Title
43194
    1CHL1    C3    1   5.989   0.842   5.948  0.5633 -0.1958  0.6731
    1CHL1    H3    2   5.929   0.935   5.959 -0.6575 -0.9876  0.8879
    1CHL1    O3    3   6.033   0.784   6.066  0.2582 -0.1497 -0.3175
    1CHL1   H3'    4   5.952   0.756   6.111 -0.2680 -1.6996 -2.1064
    1CHL1    C4    5   5.915   0.727   5.883  0.1390  0.7239  0.0194
    1CHL1   H4A    6   5.956   0.624   5.895  1.3238  1.3002  1.2183
    1CHL1   H4B    7   5.820   0.725   5.941 -0.4316 -1.0136 -0.9116
    1CHL1    C5    8   5.875   0.742   5.735  0.1623  0.5678 -0.5028
    1CHL1    C6    9   5.749   0.712   5.700 -0.3048 -0.3296 -0.1203
    1CHL1    H6   10   5.685   0.665   5.777 -1.9402  2.0738  0.1138
    1CHL1    C7   11   5.708   0.711   5.559  0.0682  0.3452  0.4285
    1CHL1   H7A   12   5.654   0.619   5.529  1.2663 -0.1674 -0.1715
    1CHL1   H7B   13   5.630   0.790   5.560  1.0905  1.3937 -0.5359
    1CHL1    C8   14   5.819   0.738   5.454  0.2394  0.0324 -0.1690
    1CHL1    H8   15   5.872   0.643   5.430 -1.3045 -1.2122  1.1630
    1CHL1   C14   16   5.764   0.796   5.326  0.6653  0.2864 -0.5023
    1CHL1   H14   17   5.716   0.890   5.361 -0.7743 -0.5600 -0.1199
    1CHL1   C15   18   5.648   0.721   5.250  0.3842  0.4517  0.3039
    1CHL1  H15A   19   5.668   0.612   5.257  0.3258  0.4308  0.1573
    1CHL1  H15B   20   5.547   0.742   5.290 -0.2579 -2.3485  0.3611
    1CHL1   C16   21   5.661   0.777   5.112  0.3227  0.0610 -0.0899
    1CHL1  H16A   22   5.692   0.690   5.050 -0.1030 -1.4106  1.6738
    1CHL1  H16B   23   5.570   0.819   5.066  0.6336 -0.7468 -1.4993
    1CHL1   C17   24   5.781   0.886   5.112 -0.1198 -0.5125  1.2599
    1CHL1   H17   25   5.735   0.975   5.161  0.8072 -0.1502  1.4913
    1CHL1   C13   26   5.872   0.840   5.222 -0.0546 -0.7450 -0.2231
    1CHL1   C18   27   5.961   0.728   5.178  0.1881  0.3898 -0.2717
    1CHL1  H18A   28   5.907   0.647   5.123  1.8432  0.6265 -2.3642
    1CHL1  H18B   29   6.036   0.769   5.107  1.5831 -0.9223  0.3937
    1CHL1  H18C   30   6.017   0.688   5.265  2.0178 -0.6770 -1.8588
    1CHL1   C12   31   5.954   0.953   5.284 -0.5320  0.8036 -0.3314
    1CHL1  H12A   32   6.015   0.999   5.204 -0.3160 -0.9902 -1.2485
    1CHL1  H12B   33   5.886   1.035   5.317  0.1101  1.3659 -0.4028
    1CHL1   C11   34   6.024   0.901   5.410  0.1640  0.2992  0.6395
    1CHL1  H11A   35   6.109   0.837   5.376 -0.1141  0.5005 -0.4804
    1CHL1  H11B   36   6.072   0.983   5.468  0.7809  0.8533 -0.6095
    1CHL1    C9   37   5.922   0.844   5.512 -0.5177  0.1995  0.8854
    1CHL1    H9   38   5.857   0.930   5.539 -1.6100 -0.2898 -0.1072
    1CHL1   C10   39   5.990   0.802   5.646  1.1645 -0.2763  0.3030
    1CHL1   C19   40   6.074   0.680   5.611 -0.8387  0.7803 -0.5276
    1CHL1  H19A   41   6.118   0.637   5.703  1.0354 -0.0915 -1.7460
    1CHL1  H19B   42   6.020   0.597   5.560  1.3821 -0.0881 -1.6050
    1CHL1  H19C   43   6.161   0.707   5.547 -1.4439 -3.5056 -3.6124
    1CHL1    C1   44   6.072   0.915   5.716  0.1972  0.7096 -0.4566
    1CHL1   H1A   45   6.161   0.928   5.650  0.2622  2.3924 -0.0776
    1CHL1   H1B   46   6.016   1.010   5.727 -0.8509 -0.0856  1.6154
    1CHL1    C2   47   6.110   0.886   5.859  0.1979 -0.2206 -0.1024
    1CHL1   H2A   48   6.160   0.980   5.891  0.3225 -0.2092 -0.3296
    1CHL1   H2B   49   6.185   0.805   5.872 -0.3259 -0.6122  0.5609
    1CHL1   C20   50   5.851   0.938   4.985 -0.2522  0.1541  0.4320
    1CHL1   H20   51   5.957   0.965   5.001 -0.1405  0.4492 -0.6748
    1CHL1   C21   52   5.782   1.064   4.943  0.6515  0.0960 -0.2735
    1CHL1  H21A   53   5.819   1.103   4.846  0.7534 -0.2201 -0.3610
    1CHL1  H21B   54   5.790   1.147   5.017  3.0829 -0.3728  0.1001
    1CHL1  H21C   55   5.675   1.046   4.923  0.1805  0.7745  1.4223
    1CHL1   C22   56   5.859   0.834   4.862 -0.3162  0.3530  0.3241
    1CHL1  H22A   57   5.915   0.744   4.898 -2.0410 -0.5048  1.0095
    1CHL1  H22B   58   5.760   0.793   4.832 -0.2596  1.0086 -0.7976
    1CHL1   C23   59   5.931   0.895   4.739 -0.8485  0.1972  0.7928
    1CHL1  H23A   60   5.877   0.984   4.700  1.6878  1.5409  0.1433
    1CHL1  H23B   61   6.036   0.908   4.772 -1.3666  1.7727  1.9407
    1CHL1   C24   62   5.935   0.800   4.614  0.2046 -0.0642 -0.6353
    1CHL1  H24A   63   5.995   0.713   4.648 -1.4089 -0.6562  0.8398
    1CHL1  H24B   64   5.830   0.770   4.600 -0.9351  2.5464  1.3977
    1CHL1   C25   65   5.985   0.860   4.482 -0.2985  0.1343 -0.7019
    1CHL1   H25   66   5.919   0.942   4.446 -0.0949  1.0662  0.9138
    1CHL1   C26   67   6.120   0.929   4.512 -0.6407 -0.1517  0.6006
    1CHL1  H26A   68   6.105   1.015   4.581  0.6393 -0.6006  1.4773
    1CHL1  H26B   69   6.185   0.858   4.567 -2.0770 -1.0126  1.2282
    1CHL1  H26C   70   6.157   0.976   4.418 -2.9032  0.1924 -0.1719
    1CHL1   C27   71   5.998   0.757   4.369  0.4094 -0.0669  0.8793
    1CHL1  H27A   72   5.899   0.708   4.359  1.5783 -2.4743  0.2937
    1CHL1  H27B   73   6.036   0.799   4.274  1.3515  0.8900  1.6574
    1CHL1  H27C   74   6.071   0.678   4.397  0.2968 -0.8104 -0.8237
    2CHL1    C3   75   0.255   6.831   5.972  0.1034 -0.4155 -0.5656
    2CHL1    H3   76   0.361   6.803   5.956  0.2271  0.5196 -1.4676
    2CHL1    O3   77   0.230   6.851   6.115 -0.1837  0.6144  0.0560
    2CHL1   H3'   78   0.135   6.847   6.120 -0.2665 -0.2562 -1.5013
    2CHL1    C4   79   0.239   6.971   5.917 -1.0093 -0.8419  0.6341
    2CHL1   H4A   80   0.135   7.002   5.942 -1.2717 -1.6848  0.6080
    2CHL1   H4B   81   0.311   7.039   5.969 -0.7455 -1.0973  0.5999
    2CHL1    C5   82   0.264   6.973   5.771  0.5673  0.0577  0.8163
    2CHL1    C6   83   0.356   7.052   5.719  0.2444  0.4622 -0.1735
    2CHL1    H6   84   0.422   7.113   5.783  2.6234 -0.7991 -1.3131
    2CHL1    C7   85   0.369   7.064   5.569 -0.7002 -0.4721 -0.0826
    2CHL1   H7A   86   0.385   7.161   5.519  0.3648 -0.0600  0.9951
    2CHL1   H7B   87   0.468   7.017   5.550 -1.6014 -1.7922 -1.7108
    2CHL1    C8   88   0.265   6.988   5.483  0.4456  0.4256  0.4040
    2CHL1    H8   89   0.172   7.048   5.499 -0.3641 -0.9671  1.1293
    2CHL1   C14   90   0.308   6.983   5.340  0.3000  0.2027  0.2385
    2CHL1   H14   91   0.403   6.925   5.347 -0.3835 -1.1041 -0.7784
    2CHL1   C15   92   0.350   7.112   5.268  0.4313 -0.9735 -0.0743
    2CHL1  H15A   93   0.282   7.195   5.297 -1.2256 -1.0660 -3.3489
    2CHL1  H15B   94   0.455   7.144   5.287 -0.2534 -0.0621  2.7171
    2CHL1   C16   95   0.333   7.067   5.122  0.2048 -0.3410  0.1622
    2CHL1  H16A   96   0.260   7.134   5.071  1.1687  0.3680 -0.3110
    2CHL1  H16B   97   0.432   7.083   5.074  0.9026  1.6774  2.1066
    2CHL1   C17   98   0.283   6.922   5.115 -0.4887 -0.2009 -0.5139
    2CHL1   H17   99   0.367   6.849   5.116 -1.2426 -1.1433  2.0439
    2CHL1   C13  100   0.209   6.906   5.252 -0.3402  0.7119  0.2386
    2CHL1   C18  101   0.073   6.973   5.254 -0.4820  0.1094  0.1283
    2CHL1  H18A  102   0.004   6.901   5.207  0.7072  0.7644 -2.8199
    2CHL1  H18B  103   0.048   7.008   5.357 -0.2584 -0.5714  0.4178
    2CHL1  H18C  104   0.068   7.063   5.189  0.2306 -0.0447 -0.1494
    2CHL1   C12  105   0.200   6.768   5.308 -0.0085  0.3267  0.5850
    2CHL1  H12A  106   0.119   6.715   5.253 -0.2634 -0.5803  1.8107
    2CHL1  H12B  107   0.297   6.718   5.289 -0.1764  0.8037 -1.8705
    2CHL1   C11  108   0.152   6.759   5.455 -0.5250 -1.0339  0.5807
    2CHL1  H11A  109   0.044   6.785   5.467 -0.7095 -1.3075 -0.3668
    2CHL1  H11B  110   0.164   6.652   5.480 -2.3487 -1.6702 -0.9329
    2CHL1    C9  111   0.240   6.850   5.546  0.5830 -0.3920 -0.1710
    2CHL1    H9  112   0.338   6.798   5.550  1.2846  0.9462  0.4636
    2CHL1   C10  113   0.176   6.862   5.690  0.2316 -0.2393 -0.2284
    2CHL1   C19  114   0.024   6.904   5.687  0.1582  0.0303 -0.1669
    2CHL1  H19A  115   0.003   6.929   5.793  1.2133  0.7768 -0.1217
    2CHL1  H19B  116   0.002   6.992   5.623 -0.6938 -0.1124 -0.0872
    2CHL1  H19C  117  -0.052   6.835   5.644 -0.8859  1.7424 -1.1893
    2CHL1    C1  118   0.184   6.724   5.758  0.6854 -0.2718 -0.1922
    2CHL1   H1A  119   0.114   6.644   5.725  0.8411 -1.0540  1.2863
    2CHL1   H1B  120   0.288   6.691   5.737  0.2899 -0.6750 -1.6035
    2CHL1    C2  121   0.162   6.733   5.910 -0.5046  0.3155  0.0196
    2CHL1   H2A  122   0.180   6.631   5.952  2.0955  0.0277 -1.5143
    2CHL1   H2B  123   0.054   6.754   5.915 -0.4484  0.3414  1.6210
    2CHL1   C20  124   0.209   6.896   4.983  0.5204  0.1732 -0.0772
    2CHL1   H20  125   0.125   6.968   4.979 -0.7703 -1.2881 -0.2881
    2CHL1   C21  126   0.150   6.748   4.991 -0.0745 -0.6770  0.2699
    2CHL1  H21A  127   0.062   6.745   5.059 -1.0872  0.4434 -0.9160
    2CHL1  H21B  128   0.226   6.679   5.033  0.7046  0.0203  0.0371
    2CHL1  H21C  129   0.118   6.705   4.893  1.7890 -3.8175  0.9360
    2CHL1   C22  130   0.300   6.915   4.862  0.9588 -0.4215  0.3161
    2CHL1  H22A  131   0.367   7.002   4.879  1.0952 -0.6630  1.0232
    2CHL1  H22B  132   0.369   6.827   4.859  0.4297 -0.8129 -1.1110
    2CHL1   C23  133   0.227   6.919   4.727 -0.3378  0.7580 -0.1878
    2CHL1  H23A  134   0.169   6.826   4.708  0.4262  0.2494 -0.0987
    2CHL1  H23B  135   0.158   7.006   4.732 -1.3104  0.1820 -2.4739
    2CHL1   C24  136   0.325   6.937   4.606 -0.4366  0.1283 -0.8195
    2CHL1  H24A  137   0.381   7.032   4.622  1.5375 -1.0845 -0.1729
    2CHL1  H24B  138   0.408   6.863   4.616 -1.9974 -1.4951  0.7045
    2CHL1   C25  139   0.261   6.922   4.471  0.2539 -0.1402  0.1936
    2CHL1   H25  140   0.213   6.822   4.468  1.3030 -0.7366  2.1118
    2CHL1   C26  141   0.159   7.037   4.468  0.0893  0.3946  0.2845
    2CHL1  H26A  142   0.076   7.038   4.542  0.2731  2.1801  0.5275
    2CHL1  H26B  143   0.200   7.140   4.468 -0.7247  0.7373 -0.3978
    2CHL1  H26C  144   0.107   7.031   4.370 -0.7881 -2.3433  0.8359
    2CHL1   C27  145   0.373   6.924   4.362 -0.1892 -1.2371 -0.3854
    2CHL1  H27A  146   0.447   6.850   4.399 -0.7589 -1.2188  0.8736
    2CHL1  H27B  147   0.332   6.898   4.262 -0.1437 -2.3257 -0.1329
    2CHL1  H27C  148   0.418   7.025   4.358  1.2584 -1.9075 -2.9244
    3CHL1    C3  149   3.744   5.686   6.281 -0.3985  0.0566 -0.1403
    3CHL1    H3  150   3.855   5.693   6.283 -0.2133 -1.8264 -1.2462
    3CHL1    O3  151   3.705   5.721   6.412  0.0902 -0.0834 -0.3211
    3CHL1   H3'  152   3.680   5.814   6.405 -0.4773 -0.2311 -0.2944
    3CHL1    C4  153   3.691   5.779   6.178 -0.3310  0.3476 -0.0059
    3CHL1   H4A  154   3.580   5.787   6.185 -0.4325  0.9176 -1.7531
    3CHL1   H4B  155   3.720   5.883   6.204 -1.4801  0.7799 -0.3461
    3CHL1    C5  156   3.729   5.733   6.039 -0.4788 -0.1297 -0.4285
    3CHL1    C6  157   3.806   5.808   5.958  0.2535  0.6522  0.6441
    3CHL1    H6  158   3.837   5.901   6.007  0.8178 -0.2554  2.0801
    3CHL1    C7  159   3.840   5.775   5.812 -0.3629  0.0435  0.2037
    3CHL1   H7A  160   3.846   5.861   5.742 -0.2950 -2.8574 -3.6759
    3CHL1   H7B  161   3.939   5.724   5.818 -0.7722 -0.5759  3.0811
    3CHL1    C8  162   3.730   5.673   5.767  0.6376 -0.4991  0.1464
    3CHL1    H8  163   3.633   5.729   5.772 -0.7875 -2.8933  1.4030
    3CHL1   C14  164   3.755   5.643   5.622 -0.1326  0.0845 -0.0060
    3CHL1   H14  165   3.861   5.611   5.617  0.4731  1.7148  1.3832
    3CHL1   C15  166   3.758   5.761   5.522 -0.2769 -0.2689 -0.8640
    3CHL1  H15A  167   3.676   5.832   5.546 -0.8135 -1.7131  1.9382
    3CHL1  H15B  168   3.858   5.808   5.509  1.1170 -2.7429  0.2916
    3CHL1   C16  169   3.724   5.699   5.387 -0.0652 -0.7743  0.6523
    3CHL1  H16A  170   3.633   5.750   5.350 -0.3353 -0.4077  1.7673
    3CHL1  H16B  171   3.804   5.714   5.312  0.0696 -2.4026  0.4378
    3CHL1   C17  172   3.713   5.547   5.408  0.2434  0.2467  0.2584
    3CHL1   H17  173   3.817   5.507   5.411  0.8953  1.4839 -2.6432
    3CHL1   C13  174   3.664   5.549   5.560 -0.1923  0.6335  0.1314
    3CHL1   C18  175   3.518   5.593   5.559  0.1057 -0.0191  0.7872
    3CHL1  H18A  176   3.490   5.656   5.471  1.6624 -1.1594 -0.6044
    3CHL1  H18B  177   3.453   5.503   5.554 -2.2178  1.6293 -1.1335
    3CHL1  H18C  178   3.493   5.645   5.653  0.1644 -2.7700  2.4206
    3CHL1   C12  179   3.683   5.414   5.634 -0.8421  0.0115 -0.4299
    3CHL1  H12A  180   3.614   5.336   5.596  0.5172 -1.4616  0.0645
    3CHL1  H12B  181   3.790   5.386   5.625 -1.2966 -0.9941 -4.9054
    3CHL1   C11  182   3.658   5.434   5.788  0.0380  0.2952  0.0048
    3CHL1  H11A  183   3.547   5.437   5.797 -0.0071  1.5158 -0.7184
    3CHL1  H11B  184   3.688   5.347   5.851  1.0573 -0.5641 -1.6025
    3CHL1    C9  185   3.723   5.560   5.857 -0.6012  1.1293  0.4938
    3CHL1    H9  186   3.825   5.536   5.891 -0.8509 -0.4910  0.1942
    3CHL1   C10  187   3.664   5.597   5.999 -1.1205 -0.4391 -0.1890
    3CHL1   C19  188   3.512   5.611   5.995  0.2182  0.0152  0.3604
    3CHL1  H19A  189   3.459   5.514   5.980 -1.4382  0.8825  0.3382
    3CHL1  H19B  190   3.478   5.645   6.095  2.1704  0.0002  1.0630
    3CHL1  H19C  191   3.490   5.685   5.915 -0.9079 -0.9900 -0.2900
    3CHL1    C1  192   3.715   5.487   6.111 -0.6646 -0.8214  0.3013
    3CHL1   H1A  193   3.663   5.389   6.103  0.0056 -1.1977  0.5283
    3CHL1   H1B  194   3.822   5.461   6.096 -1.1377 -2.0131 -1.2678
    3CHL1    C2  195   3.696   5.539   6.255 -0.1053 -1.0076  0.5082
    3CHL1   H2A  196   3.738   5.463   6.324  0.0555 -1.1459  0.2574
    3CHL1   H2B  197   3.587   5.546   6.273  0.3018  0.8518  2.6583
    3CHL1   C20  198   3.636   5.482   5.288  0.6852 -0.4848  0.5686
    3CHL1   H20  199   3.533   5.522   5.281  0.5349 -0.9536  0.0221
    3CHL1   C21  200   3.624   5.328   5.295  0.0881  0.3883 -0.6453
    3CHL1  H21A  201   3.567   5.304   5.388  0.1300 -0.2613 -0.7892
    3CHL1  H21B  202   3.725   5.286   5.313  0.3393  1.7081  1.4776
    3CHL1  H21C  203   3.579   5.277   5.207  0.5243  0.6003 -0.9957
    3CHL1   C22  204   3.702   5.519   5.157  0.5745 -0.4906  0.7958
    3CHL1  H22A  205   3.721   5.627   5.138  2.4283 -0.8066  0.6609
    3CHL1  H22B  206   3.804   5.474   5.154  1.2149  0.7864 -3.4650
    3CHL1   C23  207   3.617   5.484   5.034  0.2082 -0.0664  0.4019
    3CHL1  H23A  208   3.600   5.374   5.024  1.6139 -0.2248 -0.6073
    3CHL1  H23B  209   3.521   5.540   5.027  1.4061  1.9286 -1.4221
    3CHL1   C24  210   3.693   5.519   4.900  0.4363 -0.8199 -0.4850
    3CHL1  H24A  211   3.724   5.625   4.894 -0.4414 -0.4484  0.9933
    3CHL1  H24B  212   3.778   5.447   4.894 -0.1620 -1.5093 -0.9013
    3CHL1   C25  213   3.610   5.502   4.774  0.6909 -0.4696 -0.7272
    3CHL1   H25  214   3.521   5.567   4.787  1.5775  0.5935  0.2754
    3CHL1   C26  215   3.680   5.554   4.643  0.4442  0.6162  0.1770
    3CHL1  H26A  216   3.771   5.495   4.622  0.9518  0.4639  2.4741
    3CHL1  H26B  217   3.628   5.554   4.545 -1.6160  0.0247  1.2046
    3CHL1  H26C  218   3.708   5.659   4.666  0.7289  0.2521  1.6032
    3CHL1   C27  219   3.575   5.355   4.757  0.2935 -0.1907  0.4008
    3CHL1  H27A  220   3.666   5.294   4.740 -0.8497 -1.9425  0.3632
    3CHL1  H27B  221   3.534   5.312   4.851  3.2010 -0.3454  1.7162
    3CHL1  H27C  222   3.512   5.328   4.670  0.3138 -2.0206  0.9255
    4CHL1    C3  223   6.462   0.555   6.068  0.9197  0.3817 -0.1357
    4CHL1    H3  224   6.565   0.596   6.064  0.7757  0.7005 -0.8780
    4CHL1    O3  225   6.403   0.599   6.186  0.4808 -0.1567 -0.2212
    4CHL1   H3'  226   6.443   0.555   6.262  1.5324  0.1095 -0.6060
    4CHL1    C4  227   6.380   0.590   5.949  0.3559 -0.1531  0.3612
    4CHL1   H4A  228   6.274   0.557   5.964  0.1762  0.1470 -0.2129
    4CHL1   H4B  229   6.382   0.701   5.943  1.9416 -0.0348  2.2339
    4CHL1    C5  230   6.423   0.534   5.815 -0.1143  0.4416 -0.5087
    4CHL1    C6  231   6.434   0.610   5.705 -0.0939  0.6250  0.6336
    4CHL1    H6  232   6.410   0.716   5.725  1.2503  0.8939  0.9841
    4CHL1    C7  233   6.456   0.566   5.568 -0.3114  0.4349 -0.1937
    4CHL1   H7A  234   6.378   0.598   5.496  0.1418 -1.3597 -1.5619
    4CHL1   H7B  235   6.555   0.606   5.538  0.4390 -2.0910 -1.3436
    4CHL1    C8  236   6.458   0.413   5.557 -0.7270  0.2082  0.3231
    4CHL1    H8  237   6.350   0.390   5.548 -0.4192 -0.7621 -1.2071
    4CHL1   C14  238   6.529   0.368   5.422 -0.1491  0.6056  0.5007
    4CHL1   H14  239   6.636   0.379   5.451 -0.4089  1.0729  1.3130
    4CHL1   C15  240   6.515   0.447   5.293 -0.0757 -0.8250 -0.1233
    4CHL1  H15A  241   6.412   0.488   5.291  0.5949  0.9660  0.0406
    4CHL1  H15B  242   6.587   0.531   5.298 -0.0874 -0.8660  0.8659
    4CHL1   C16  243   6.543   0.346   5.176 -0.0188  0.0874 -0.2686
    4CHL1  H16A  244   6.448   0.339   5.120  0.5211 -0.8500 -1.1189
    4CHL1  H16B  245   6.626   0.381   5.110 -0.7097 -0.1694 -1.3001
    4CHL1   C17  246   6.574   0.211   5.251  0.9810 -0.2807 -0.8975
    4CHL1   H17  247   6.682   0.204   5.274  0.7115 -2.1057 -0.0843
    4CHL1   C13  248   6.505   0.218   5.389  0.3188  0.6414  0.7250
    4CHL1   C18  249   6.353   0.185   5.362  0.2879  0.1975  0.0676
    4CHL1  H18A  250   6.338   0.076   5.374 -2.4342  0.7144  2.7647
    4CHL1  H18B  251   6.289   0.230   5.441  0.0947 -5.2344  3.5367
    4CHL1  H18C  252   6.316   0.211   5.261  4.3351  0.4403 -1.5295
    4CHL1   C12  253   6.566   0.137   5.507  0.2138 -0.3104  0.7764
    4CHL1  H12A  254   6.533   0.032   5.492  1.3928 -0.8260  1.7011
    4CHL1  H12B  255   6.674   0.163   5.511 -0.0680  0.9432  0.6944
    4CHL1   C11  256   6.506   0.178   5.643 -0.5002  1.2133  0.5179
    4CHL1  H11A  257   6.401   0.144   5.630  0.8326 -2.9713 -1.0392
    4CHL1  H11B  258   6.552   0.122   5.727 -0.8277 -0.3455 -0.2943
    4CHL1    C9  259   6.511   0.337   5.677 -0.2203  0.3363 -0.0290
    4CHL1    H9  260   6.615   0.370   5.695 -0.6148  1.3806  0.4331
    4CHL1   C10  261   6.436   0.375   5.808  0.1690 -0.6839  0.0590
    4CHL1   C19  262   6.298   0.320   5.822 -0.2074  0.3158  0.4618
    4CHL1  H19A  263   6.235   0.365   5.902 -1.8177  0.6481 -0.9360
    4CHL1  H19B  264   6.243   0.331   5.726  1.3364 -1.2954 -0.6939
    4CHL1  H19C  265   6.298   0.210   5.837 -0.1081  0.2409 -0.0544
    4CHL1    C1  266   6.519   0.336   5.932 -0.1643  0.3978 -0.4657
    4CHL1   H1A  267   6.539   0.226   5.932  2.9898  0.8802 -1.6546
    4CHL1   H1B  268   6.624   0.369   5.921 -0.2604  0.9958  0.3367
    4CHL1    C2  269   6.467   0.393   6.069 -0.2465 -0.1194 -0.0829
    4CHL1   H2A  270   6.534   0.360   6.151 -0.0035 -1.2083 -0.6969
    4CHL1   H2B  271   6.366   0.366   6.106 -0.2039  0.3106  0.3619
    4CHL1   C20  272   6.545   0.093   5.155 -0.5423 -0.1650 -0.8587
    4CHL1   H20  273   6.438   0.106   5.127 -0.4339  1.5727 -0.5535
    4CHL1   C21  274   6.573  -0.049   5.216 -0.3729 -0.0958  0.1291
    4CHL1  H21A  275   6.676  -0.048   5.256 -0.6740 -2.6380  1.1241
    4CHL1  H21B  276   6.553  -0.133   5.146 -1.7337 -0.4523  0.9072
    4CHL1  H21C  277   6.508  -0.068   5.304  0.3718  0.2630  0.7715
    4CHL1   C22  278   6.621   0.105   5.017 -0.1556  0.2002  0.5432
    4CHL1  H22A  279   6.571   0.199   4.985  0.2009  0.0547 -0.4857
    4CHL1  H22B  280   6.723   0.139   5.045  0.8973 -1.7622 -0.6679
    4CHL1   C23  281   6.620  -0.011   4.917 -0.1021  0.0202 -0.4006
    4CHL1  H23A  282   6.676  -0.094   4.965 -0.9544 -0.0632  0.4922
    4CHL1  H23B  283   6.512  -0.032   4.899 -0.1652  0.7493 -0.9004
    4CHL1   C24  284   6.680   0.015   4.775 -0.7241 -0.0491 -0.4032
    4CHL1  H24A  285   6.635   0.113   4.748 -0.3460  0.8667  2.0791
    4CHL1  H24B  286   6.790   0.032   4.772  0.1411 -4.3537 -0.2651
    4CHL1   C25  287   6.668  -0.098   4.667 -0.2057 -0.3333  0.9482
    4CHL1   H25  288   6.560  -0.109   4.641  1.1018 -3.3955 -4.9689
    4CHL1   C26  289   6.744  -0.063   4.536  0.1848 -1.0174 -0.3097
    4CHL1  H26A  290   6.740   0.037   4.488  2.0868 -1.1441 -0.7882
    4CHL1  H26B  291   6.852  -0.085   4.549  0.3627 -0.3192 -0.5729
    4CHL1  H26C  292   6.715  -0.135   4.457  1.5721 -0.7126 -1.1215
    4CHL1   C27  293   6.716  -0.236   4.724 -0.1405 -0.8314 -0.3227
    4CHL1  H27A  294   6.819  -0.228   4.763 -0.3606  1.6875 -0.0796
    4CHL1  H27B  295   6.654  -0.266   4.811  0.0640  0.3321  0.2495
    4CHL1  H27C  296   6.710  -0.324   4.656 -0.1878 -0.0688 -1.3298
    5CHL1    C3  297   5.840   1.756   5.902 -0.0960  0.4570 -0.3278
    5CHL1    H3  298   5.896   1.806   5.820 -0.5746 -0.0874 -0.9967
    5CHL1    O3  299   5.935   1.724   6.008 -0.4534  0.4336  0.9887
    5CHL1   H3'  300   5.896   1.674   6.080 -1.0471  0.3738  0.6284
    5CHL1    C4  301   5.738   1.860   5.946  0.1394  0.8795 -0.2323
    5CHL1   H4A  302   5.682   1.818   6.032  0.9452  0.3568  0.0489
    5CHL1   H4B  303   5.791   1.948   5.989  0.1136  0.0924  1.5016
    5CHL1    C5  304   5.657   1.891   5.818  0.1639 -0.0339  0.4533
    5CHL1    C6  305   5.665   2.021   5.766 -0.2749 -0.7471 -0.0058
    5CHL1    H6  306   5.720   2.101   5.818  0.7933 -0.4272 -1.5344
    5CHL1    C7  307   5.586   2.064   5.646 -0.0465  0.1380 -0.4187
    5CHL1   H7A  308   5.542   2.162   5.674  0.4707  1.4546 -3.7562
    5CHL1   H7B  309   5.650   2.075   5.557  0.0416  1.1751 -0.2327
    5CHL1    C8  310   5.469   1.964   5.610 -0.5625  0.6354  0.4802
    5CHL1    H8  311   5.405   1.973   5.701 -0.5299  1.5871  0.4170
    5CHL1   C14  312   5.406   1.992   5.475 -0.4613 -0.5105 -0.1209
    5CHL1   H14  313   5.498   1.998   5.413 -0.7846  0.7279 -0.4954
    5CHL1   C15  314   5.332   2.125   5.465 -0.1748  1.0512 -0.8905
    5CHL1  H15A  315   5.261   2.144   5.549  0.1549  0.8218 -0.5574
    5CHL1  H15B  316   5.399   2.214   5.461 -0.5128  1.4984  1.6504
    5CHL1   C16  317   5.249   2.110   5.333  1.1566  1.1138 -0.7433
    5CHL1  H16A  318   5.140   2.119   5.353  0.6030 -0.9899 -2.3793
    5CHL1  H16B  319   5.280   2.185   5.258  0.2984 -0.2639 -2.5631
    5CHL1   C17  320   5.272   1.961   5.285 -0.8191  0.0815  0.2066
    5CHL1   H17  321   5.360   1.972   5.218 -0.9930  1.4566  0.1872
    5CHL1   C13  322   5.323   1.892   5.415  0.0630  0.5955 -0.5349
    5CHL1   C18  323   5.199   1.858   5.501 -0.1922 -0.1792  0.5577
    5CHL1  H18A  324   5.142   1.769   5.468  0.3086 -0.8209  1.3928
    5CHL1  H18B  325   5.229   1.837   5.606  0.7623  0.2974  0.3927
    5CHL1  H18C  326   5.124   1.940   5.494 -1.4314 -1.2800  0.6499
    5CHL1   C12  327   5.399   1.768   5.394 -0.1235 -0.8635 -0.2766
    5CHL1  H12A  328   5.337   1.681   5.362 -0.9370  0.0452 -1.2193
    5CHL1  H12B  329   5.475   1.782   5.315  2.2919 -0.5251  1.9520
    5CHL1   C11  330   5.458   1.711   5.524 -0.0311  0.6504  0.1543
    5CHL1  H11A  331   5.370   1.685   5.586  0.2021 -0.9797 -0.1419
    5CHL1  H11B  332   5.526   1.626   5.504 -2.0931 -0.5235 -2.6386
    5CHL1    C9  333   5.530   1.818   5.611 -0.2921 -0.1182 -0.3166
    5CHL1    H9  334   5.621   1.827   5.549 -0.6361 -0.6405 -0.9084
    5CHL1   C10  335   5.584   1.772   5.747 -0.6586  0.1840 -0.2073
    5CHL1   C19  336   5.460   1.738   5.844 -0.2725 -0.1281  0.0902
    5CHL1  H19A  337   5.389   1.669   5.793  1.4029 -1.9309  0.0656
    5CHL1  H19B  338   5.504   1.694   5.935  2.9905 -0.3986 -1.4889
    5CHL1  H19C  339   5.407   1.830   5.875  3.1642  2.1636 -0.3663
    5CHL1    C1  340   5.687   1.648   5.731 -0.5686 -0.6580 -0.3022
    5CHL1   H1A  341   5.626   1.557   5.710  0.5248 -1.8026  1.2570
    5CHL1   H1B  342   5.739   1.665   5.635 -2.2885  0.4255 -1.0954
    5CHL1    C2  343   5.774   1.627   5.859  0.4775  0.2020  0.3672
    5CHL1   H2A  344   5.852   1.551   5.834  1.0001  0.7190  0.4097
    5CHL1   H2B  345   5.701   1.587   5.933 -0.0650 -1.1064 -0.8054
    5CHL1   C20  346   5.154   1.905   5.203 -0.0275  0.5245  0.3048
    5CHL1   H20  347   5.058   1.910   5.259  0.2406  0.4154  0.7824
    5CHL1   C21  348   5.168   1.757   5.171 -0.7768  0.0172  0.0000
    5CHL1  H21A  349   5.149   1.691   5.258  0.6489 -0.6825 -0.1956
    5CHL1  H21B  350   5.269   1.727   5.138 -1.3770 -1.1987 -0.8065
    5CHL1  H21C  351   5.094   1.734   5.091 -0.3976 -0.2532 -0.2720
    5CHL1   C22  352   5.108   1.983   5.075  0.1328  0.4158 -0.1923
    5CHL1  H22A  353   5.009   1.948   5.037 -1.4032  2.4254  1.7394
    5CHL1  H22B  354   5.084   2.086   5.109 -3.5428 -0.9398  1.9597
    5CHL1   C23  355   5.228   1.986   4.972 -0.4449 -0.1134 -0.7559
    5CHL1  H23A  356   5.322   1.936   5.002  0.6811  2.1561 -0.2487
    5CHL1  H23B  357   5.185   1.929   4.887  0.1171 -0.4850 -0.7969
    5CHL1   C24  358   5.272   2.134   4.930 -0.1355 -0.4421  0.4652
    5CHL1  H24A  359   5.184   2.175   4.875  0.1175 -1.3762 -0.6696
    5CHL1  H24B  360   5.294   2.201   5.016 -0.7349  3.9081 -2.4554
    5CHL1   C25  361   5.382   2.155   4.825 -0.2798  0.3972 -0.1520
    5CHL1   H25  362   5.383   2.265   4.808 -0.1542  0.8594  2.3744
    5CHL1   C26  363   5.519   2.118   4.901  0.0420 -1.0064 -0.2634
    5CHL1  H26A  364   5.604   2.144   4.834 -0.1960  2.8969  0.6830
    5CHL1  H26B  365   5.524   2.184   4.991  0.5812  0.4217 -1.3045
    5CHL1  H26C  366   5.526   2.012   4.931 -2.0221 -0.7348  1.4141
    5CHL1   C27  367   5.355   2.074   4.692 -0.5032 -0.5133 -0.0707
    5CHL1  H27A  368   5.305   1.979   4.719 -0.6527 -0.6419 -0.7985
    5CHL1  H27B  369   5.302   2.145   4.625  1.2952  0.9856 -0.0123
    5CHL1  H27C  370   5.450   2.050   4.639 -0.0192  0.3636  0.3654
    6CHL1    C3  371   5.586   6.307   6.004  0.2491  0.0819  0.2199
    6CHL1    H3  372   5.508   6.314   5.925  1.6090  2.8463 -0.9807
    6CHL1    O3  373   5.561   6.191   6.082  0.2791  0.2559 -0.4304
    6CHL1   H3'  374   5.468   6.178   6.102  0.3722  0.8845  0.4641
    6CHL1    C4  375   5.722   6.301   5.931  0.4747  0.1885  0.3246
    6CHL1   H4A  376   5.810   6.278   5.994  0.6566  1.0804  0.4026
    6CHL1   H4B  377   5.720   6.208   5.870 -1.1692  0.7215 -0.4979
    6CHL1    C5  378   5.743   6.413   5.835  0.2427  0.1796  0.6535
    6CHL1    C6  379   5.767   6.394   5.700  0.2027 -0.1751  0.0256
    6CHL1    H6  380   5.776   6.290   5.665 -1.0774  0.1528 -1.3941
    6CHL1    C7  381   5.789   6.504   5.596  0.0497  0.1672  0.0810
    6CHL1   H7A  382   5.874   6.469   5.533  0.8388 -1.5958  2.0151
    6CHL1   H7B  383   5.702   6.510   5.527  0.5851 -0.1735 -0.6378
    6CHL1    C8  384   5.817   6.643   5.668  0.4523  0.2310 -0.3071
    6CHL1    H8  385   5.917   6.633   5.715 -0.4454  1.3275  1.9935
    6CHL1   C14  386   5.797   6.756   5.570  0.1507 -0.2170 -0.1687
    6CHL1   H14  387   5.691   6.745   5.536 -0.0110 -0.6894  0.4620
    6CHL1   C15  388   5.885   6.749   5.440 -0.3723  0.3995 -0.2566
    6CHL1  H15A  389   5.984   6.713   5.476 -1.3586 -0.7947  1.4703
    6CHL1  H15B  390   5.844   6.679   5.364  1.4563 -1.0417  0.0055
    6CHL1   C16  391   5.872   6.884   5.386  0.3917  0.2743  0.2901
    6CHL1  H16A  392   5.970   6.933   5.367  1.1343 -0.9908  0.7662
    6CHL1  H16B  393   5.824   6.880   5.286  1.6774 -0.8446 -0.3209
    6CHL1   C17  394   5.804   6.977   5.497 -0.6593 -0.0687  0.3628
    6CHL1   H17  395   5.694   6.976   5.483 -0.9123 -2.1720  2.0201
    6CHL1   C13  396   5.811   6.891   5.627  0.1199 -0.0371 -0.1204
    6CHL1   C18  397   5.956   6.907   5.682 -0.0388 -0.5534 -0.2118
    6CHL1  H18A  398   5.978   7.009   5.719  3.4227 -0.7270 -1.4561
    6CHL1  H18B  399   5.972   6.836   5.767 -0.3530  1.3142  1.4811
    6CHL1  H18C  400   6.034   6.880   5.608 -0.1998 -2.4979  0.2760
    6CHL1   C12  401   5.696   6.914   5.737  0.3639 -0.6149 -0.5417
    6CHL1  H12A  402   5.701   7.014   5.785  1.2088 -0.7431 -0.3560
    6CHL1  H12B  403   5.604   6.899   5.677  0.5882  1.6419 -1.5176
    6CHL1   C11  404   5.711   6.811   5.848  0.2285  0.2772  0.5540
    6CHL1  H11A  405   5.803   6.840   5.904  0.5151 -0.6911  0.5969
    6CHL1  H11B  406   5.619   6.817   5.910  0.4170  1.3803  0.7592
    6CHL1    C9  407   5.717   6.664   5.786  0.5422  0.2995  0.3797
    6CHL1    H9  408   5.616   6.660   5.739  0.3507  1.2055  0.6927
    6CHL1   C10  409   5.726   6.552   5.893  0.0507  0.2980  0.3078
    6CHL1   C19  410   5.850   6.572   5.981  0.4391 -0.2515  0.2619
    6CHL1  H19A  411   5.851   6.506   6.070 -0.9668 -0.8087 -0.1129
    6CHL1  H19B  412   5.946   6.568   5.924 -0.2978  0.5141 -1.0681
    6CHL1  H19C  413   5.837   6.676   6.017 -0.9242  1.1383 -3.7146
    6CHL1    C1  414   5.605   6.554   5.982  0.4329  1.0492  0.2934
    6CHL1   H1A  415   5.607   6.653   6.034  0.3664  1.6475 -0.8047
    6CHL1   H1B  416   5.515   6.547   5.917  1.1465  2.0215 -0.8497
    6CHL1    C2  417   5.582   6.440   6.091 -0.5416 -0.0350 -0.0504
    6CHL1   H2A  418   5.481   6.453   6.135 -1.0829  2.0741 -1.7417
    6CHL1   H2B  419   5.667   6.443   6.163 -0.8032  1.5104  0.2354
    6CHL1   C20  420   5.861   7.118   5.493  0.8617  0.4671 -0.5566
    6CHL1   H20  421   5.967   7.121   5.527  1.0218  0.5233 -1.0406
    6CHL1   C21  422   5.772   7.203   5.582  0.0874 -0.7876 -0.2460
    6CHL1  H21A  423   5.663   7.190   5.567 -0.0483  1.0783 -1.1032
    6CHL1  H21B  424   5.791   7.309   5.558 -0.3329 -0.9727 -1.4678
    6CHL1  H21C  425   5.781   7.194   5.692  1.7967  1.0460 -0.1805
    6CHL1   C22  426   5.862   7.166   5.347 -0.3541 -0.3280 -0.0879
    6CHL1  H22A  427   5.901   7.270   5.338 -2.1035  0.2446 -1.8471
    6CHL1  H22B  428   5.938   7.108   5.291 -1.1057 -0.4883 -0.9773
    6CHL1   C23  429   5.725   7.162   5.264  0.0144 -0.1941  0.4302
    6CHL1  H23A  430   5.677   7.063   5.280 -0.4390  0.3727  3.2849
    6CHL1  H23B  431   5.659   7.240   5.308  0.6212  0.0906  0.8539
    6CHL1   C24  432   5.764   7.202   5.119  0.8457 -0.0781  0.7248
    6CHL1  H24A  433   5.783   7.311   5.128  0.3204 -0.0776  2.0716
    6CHL1  H24B  434   5.854   7.149   5.081  0.4983 -0.8884  0.9993
    6CHL1   C25  435   5.640   7.183   5.021 -0.9754  0.3385 -0.9552
    6CHL1   H25  436   5.541   7.192   5.069 -1.4355 -0.1182 -1.7988
    6CHL1   C26  437   5.643   7.293   4.915 -0.7019 -0.0605 -0.2762
    6CHL1  H26A  438   5.747   7.295   4.875 -0.3978  0.8854  0.5163
    6CHL1  H26B  439   5.571   7.279   4.832 -1.2687 -0.4750  0.2717
    6CHL1  H26C  440   5.626   7.392   4.962 -1.1976  0.0500 -0.6822
    6CHL1   C27  441   5.647   7.049   4.953  0.1197 -0.3353  0.2987
    6CHL1  H27A  442   5.623   6.961   5.016  1.9275 -0.9651  0.1656
    6CHL1  H27B  443   5.588   7.058   4.859  0.7323 -0.8502 -0.1437
    6CHL1  H27C  444   5.754   7.035   4.926  0.5627  0.9734  1.2606
    7CHL1    C3  445   0.910   6.022   5.923  0.5858  0.4040  0.2598
    7CHL1    H3  446   1.014   5.984   5.932  0.5312  0.3309  0.5951
    7CHL1    O3  447   0.850   5.997   6.045 -0.2998 -0.4157  0.2265
    7CHL1   H3'  448   0.864   6.072   6.103 -0.7167 -2.1411  2.7341
    7CHL1    C4  449   0.923   6.171   5.895  0.2185  0.1535 -0.9296
    7CHL1   H4A  450   0.825   6.220   5.916  0.1929 -0.0628 -0.5311
    7CHL1   H4B  451   0.988   6.209   5.976 -0.2329  0.2713 -0.6150
    7CHL1    C5  452   0.967   6.223   5.764 -0.1350  0.1773  0.6887
    7CHL1    C6  453   1.062   6.322   5.747  0.2038 -0.5148  0.2026
    7CHL1    H6  454   1.112   6.367   5.834  1.3407  1.1838 -1.2552
    7CHL1    C7  455   1.083   6.393   5.616  0.3841 -1.3897  0.2546
    7CHL1   H7A  456   1.063   6.499   5.642 -1.1968 -2.2244  2.8672
    7CHL1   H7B  457   1.191   6.393   5.592  0.6539  1.8072  1.0458
    7CHL1    C8  458   0.994   6.344   5.503 -0.3618 -0.3748  0.0121
    7CHL1    H8  459   0.895   6.395   5.499  0.8036  2.0419  0.2111
    7CHL1   C14  460   1.066   6.357   5.358  0.0898 -0.0120 -0.5183
    7CHL1   H14  461   1.160   6.297   5.357 -0.6271 -1.1827 -0.5255
    7CHL1   C15  462   1.102   6.505   5.319  0.2397  0.2412  0.2287
    7CHL1  H15A  463   1.034   6.576   5.371  0.3396 -0.5295  1.4319
    7CHL1  H15B  464   1.202   6.537   5.355  0.3628  2.3957 -1.7451
    7CHL1   C16  465   1.091   6.502   5.161  0.1401 -0.3884  0.4027
    7CHL1  H16A  466   1.011   6.569   5.122 -1.8121 -3.4947 -1.4026
    7CHL1  H16B  467   1.183   6.534   5.108  1.1209 -1.4229  1.4276
    7CHL1   C17  468   1.059   6.357   5.125 -0.1347 -0.3573  0.4546
    7CHL1   H17  469   1.155   6.302   5.134 -0.4738 -0.8396  1.2325
    7CHL1   C13  470   0.984   6.297   5.239  0.0280 -0.6833 -0.4775
    7CHL1   C18  471   0.841   6.353   5.237  0.0683 -0.2967  0.7748
    7CHL1  H18A  472   0.862   6.462   5.238  3.1875 -0.8009  0.0982
    7CHL1  H18B  473   0.777   6.307   5.158  0.9683  0.0458 -0.1715
    7CHL1  H18C  474   0.794   6.334   5.336  3.0124  0.8925  2.5397
    7CHL1   C12  475   0.977   6.142   5.260  0.4225  0.6086 -0.2087
    7CHL1  H12A  476   0.921   6.097   5.175  1.2441  0.3374 -0.6142
    7CHL1  H12B  477   1.079   6.100   5.250  0.5432  0.9157 -0.3008
    7CHL1   C11  478   0.908   6.112   5.391 -0.6100  0.3121 -0.3584
    7CHL1  H11A  479   0.802   6.142   5.379 -0.5271  0.4318 -0.8381
    7CHL1  H11B  480   0.926   6.003   5.395 -0.8378  0.3061  1.3324
    7CHL1    C9  481   0.971   6.184   5.523  0.8594 -0.1456  0.0233
    7CHL1    H9  482   1.074   6.142   5.533  0.4383 -1.3659 -0.5538
    7CHL1   C10  483   0.891   6.156   5.650 -0.1533 -0.1312 -0.2912
    7CHL1   C19  484   0.739   6.204   5.639 -0.6553  0.0076 -0.5845
    7CHL1  H19A  485   0.673   6.131   5.587 -0.0845 -1.1854  0.3249
    7CHL1  H19B  486   0.693   6.224   5.739  1.3065 -1.1272  0.6134
    7CHL1  H19C  487   0.744   6.298   5.581  0.4552 -0.6469 -1.5801
    7CHL1    C1  488   0.890   5.997   5.671  0.6024  0.2146 -0.2830
    7CHL1   H1A  489   0.823   5.942   5.602 -1.3653  0.1146  1.5957
    7CHL1   H1B  490   0.989   5.950   5.652 -1.0424 -3.2332 -1.0708
    7CHL1    C2  491   0.837   5.950   5.810  0.1042  0.0908  0.5188
    7CHL1   H2A  492   0.825   5.840   5.816 -0.7719  0.1585  0.1441
    7CHL1   H2B  493   0.731   5.982   5.815  0.6420  1.8234  2.3338
    7CHL1   C20  494   0.997   6.334   4.985 -0.7972 -0.3351 -0.3891
    7CHL1   H20  495   0.932   6.244   4.994 -0.6230 -0.4083  0.1514
    7CHL1   C21  496   1.116   6.303   4.886  0.7044  1.8145  0.1652
    7CHL1  H21A  497   1.072   6.285   4.786  0.0119  2.9333  0.2507
    7CHL1  H21B  498   1.172   6.216   4.927 -2.2890 -2.4999 -3.8684
    7CHL1  H21C  499   1.178   6.394   4.877  2.2877  0.6326 -1.4200
    7CHL1   C22  500   0.910   6.446   4.921  0.6660 -0.7756 -0.3858
    7CHL1  H22A  501   0.850   6.505   4.994  2.2952 -2.3154  2.3952
    7CHL1  H22B  502   0.979   6.523   4.881 -0.6483  0.1997 -0.8063
    7CHL1   C23  503   0.825   6.386   4.805  0.5314  0.7456  0.5521
    7CHL1  H23A  504   0.891   6.357   4.721  0.0620 -2.1895  1.0756
    7CHL1  H23B  505   0.773   6.294   4.840 -0.0614  0.6361 -0.5647
    7CHL1   C24  506   0.727   6.499   4.764 -0.3899  0.2909 -0.2151
    7CHL1  H24A  507   0.678   6.526   4.860 -3.6576  1.1401 -1.9756
    7CHL1  H24B  508   0.783   6.581   4.713 -0.9464  0.3348 -0.7604
    7CHL1   C25  509   0.608   6.452   4.673 -0.6062 -0.3042  0.4096
    7CHL1   H25  510   0.554   6.369   4.724 -2.8229  2.4717  2.9124
    7CHL1   C26  511   0.501   6.569   4.656 -0.3288 -0.5114  0.5756
    7CHL1  H26A  512   0.537   6.660   4.603 -1.0949  0.7745  2.2008
    7CHL1  H26B  513   0.400   6.555   4.612 -1.4355 -0.0758  2.8404
    7CHL1  H26C  514   0.473   6.596   4.760  1.3664 -0.3233  1.0129
    7CHL1   C27  515   0.668   6.395   4.531  0.1623 -0.3327 -0.6600
    7CHL1  H27A  516   0.708   6.483   4.477 -0.1925  0.2061 -0.0514
    7CHL1  H27B  517   0.749   6.319   4.543  0.3773 -0.0384 -0.2034
    7CHL1  H27C  518   0.591   6.354   4.463 -1.7636  0.7324  0.7639
    8CHL1    C3  519   2.528   1.210   5.910  0.4253 -0.4854  0.3150
    8CHL1    H3  520   2.613   1.253   5.853  1.1101  0.8530  2.2641
    8CHL1    O3  521   2.562   1.201   6.046 -0.0174  0.0850  0.6294
    8CHL1   H3'  522   2.604   1.286   6.060 -0.2976  0.3687 -0.1577
    8CHL1    C4  523   2.404   1.300   5.888  0.1839  0.0268 -0.3011
    8CHL1   H4A  524   2.327   1.251   5.951 -1.9144  3.0423 -0.3173
    8CHL1   H4B  525   2.418   1.400   5.932 -1.9574 -0.6062  2.0451
    8CHL1    C5  526   2.368   1.292   5.740 -0.3989 -0.2590 -0.9790
    8CHL1    C6  527   2.369   1.398   5.660 -0.6355  0.4218 -0.1418
    8CHL1    H6  528   2.394   1.500   5.694 -2.6620  1.8514 -2.5388
    8CHL1    C7  529   2.334   1.396   5.516  0.7708  0.0570  0.3071
    8CHL1   H7A  530   2.267   1.478   5.482 -0.8226 -1.0818  0.5836
    8CHL1   H7B  531   2.422   1.398   5.449 -0.2753  1.5462 -1.1035
    8CHL1    C8  532   2.258   1.265   5.472  0.6304  0.2784 -0.1541
    8CHL1    H8  533   2.158   1.273   5.520  0.9710 -0.7024  0.7665
    8CHL1   C14  534   2.245   1.262   5.328  0.1898  0.1139 -0.5640
    8CHL1   H14  535   2.354   1.260   5.304 -0.1487 -0.6894 -2.1727
    8CHL1   C15  536   2.198   1.382   5.240 -0.0519 -0.1972 -0.0519
    8CHL1  H15A  537   2.103   1.418   5.285  1.1003  1.3025  1.3035
    8CHL1  H15B  538   2.268   1.468   5.234  1.4682 -1.0591  3.1531
    8CHL1   C16  539   2.166   1.318   5.103  1.0306  0.1429  0.0210
    8CHL1  H16A  540   2.059   1.341   5.086  0.1936 -1.5717  2.4444
    8CHL1  H16B  541   2.233   1.355   5.022  3.9520 -0.1494  2.1354
    8CHL1   C17  542   2.186   1.164   5.120  0.1545 -0.7722 -0.0263
    8CHL1   H17  543   2.288   1.141   5.082 -0.7708  0.6938 -3.9255
    8CHL1   C13  544   2.177   1.136   5.272 -0.3936  0.7457  0.1414
    8CHL1   C18  545   2.035   1.135   5.329  0.4844  0.0454  0.0851
    8CHL1  H18A  546   1.977   1.229   5.313  0.5204  0.3469  1.5198
    8CHL1  H18B  547   1.982   1.052   5.277  0.3808 -1.3850  2.3091
    8CHL1  H18C  548   2.023   1.107   5.436 -2.6210 -0.6898 -0.3441
    8CHL1   C12  549   2.251   1.013   5.324  0.2787  1.0065 -0.1240
    8CHL1  H12A  550   2.197   0.922   5.291  1.6488  0.3137 -0.5394
    8CHL1  H12B  551   2.355   1.000   5.288  1.6472  0.7487  3.4819
    8CHL1   C11  552   2.277   1.015   5.480  0.0290  0.3093  0.0230
    8CHL1  H11A  553   2.180   0.991   5.530 -0.1527 -0.6550 -0.7774
    8CHL1  H11B  554   2.337   0.926   5.507  0.8914  0.4893 -1.2601
    8CHL1    C9  555   2.330   1.147   5.535  0.0738  0.0816  0.7357
    8CHL1    H9  556   2.431   1.172   5.495  1.1390  0.1499  3.2623
    8CHL1   C10  557   2.345   1.148   5.693 -0.4264  0.6362  1.0933
    8CHL1   C19  558   2.223   1.091   5.764  0.0049  0.1986 -0.0184
    8CHL1  H19A  559   2.227   1.097   5.875 -0.7300 -2.2640  0.1992
    8CHL1  H19B  560   2.133   1.150   5.737 -0.8179 -2.3451 -3.4197
    8CHL1  H19C  561   2.218   0.985   5.731 -0.7378  0.5567 -1.1132
    8CHL1    C1  562   2.475   1.058   5.715  0.3216 -0.3521  0.5701
    8CHL1   H1A  563   2.463   0.954   5.677 -1.8472 -0.3633  1.1073
    8CHL1   H1B  564   2.560   1.106   5.662  0.1030  1.0933  1.4919
    8CHL1    C2  565   2.511   1.067   5.859  0.2692  0.2228 -0.1808
    8CHL1   H2A  566   2.602   1.006   5.877  0.1986 -0.4800 -1.9818
    8CHL1   H2B  567   2.432   1.008   5.910 -0.5250 -1.4646 -3.1133
    8CHL1   C20  568   2.103   1.075   5.025  0.8614 -0.2640  0.9589
    8CHL1   H20  569   1.994   1.079   5.046  0.7004  0.8389  0.0466
    8CHL1   C21  570   2.151   0.919   5.024 -0.5901 -0.0398 -0.1934
    8CHL1  H21A  571   2.099   0.855   5.097  0.1140  0.4052  0.7158
    8CHL1  H21B  572   2.258   0.923   5.054 -0.9070  1.2723  0.8535
    8CHL1  H21C  573   2.144   0.869   4.925 -2.9892 -0.9289  0.3562
    8CHL1   C22  574   2.123   1.128   4.878  0.4728 -0.6932  0.1427
    8CHL1  H22A  575   2.089   1.233   4.869  1.4271 -0.5396 -2.9057
    8CHL1  H22B  576   2.233   1.129   4.867  0.6380  2.8548  1.0807
    8CHL1   C23  577   2.049   1.053   4.756 -0.5861  0.2751  0.2587
    8CHL1  H23A  578   2.084   0.948   4.750 -0.7611  0.2740 -0.9613
    8CHL1  H23B  579   1.940   1.051   4.777 -0.7481  0.6326 -0.5401
    8CHL1   C24  580   2.089   1.102   4.617  0.0090 -0.0618  0.1015
    8CHL1  H24A  581   2.087   1.213   4.617  4.5118  0.2728  2.5250
    8CHL1  H24B  582   2.190   1.055   4.607 -0.7039 -1.7195  0.3800
    8CHL1   C25  583   1.999   1.043   4.509 -0.1948 -0.2725 -0.1765
    8CHL1   H25  584   1.988   0.934   4.529 -1.5407 -0.0345  0.5190
    8CHL1   C26  585   1.853   1.107   4.507 -0.6101 -0.3928 -0.4222
    8CHL1  H26A  586   1.871   1.214   4.486  2.3891 -0.6011  0.5762
    8CHL1  H26B  587   1.807   1.060   4.417 -0.2457  1.5310 -1.6668
    8CHL1  H26C  588   1.808   1.095   4.607  2.1263 -1.4265  0.7915
    8CHL1   C27  589   2.071   1.029   4.377 -0.4095 -0.5108 -0.0405
    8CHL1  H27A  590   2.114   1.127   4.349 -0.7350 -0.2612  0.3318
    8CHL1  H27B  591   2.161   0.965   4.380 -0.0721 -0.0308  0.2412
    8CHL1  H27C  592   2.003   0.985   4.300 -0.8848 -3.3915  1.8743
    9CHL1    C3  593   0.705   1.103   5.902 -0.2318 -0.1321  0.3585
    9CHL1    H3  594   0.800   1.150   5.869 -0.3257 -1.4632 -2.0239
    9CHL1    O3  595   0.722   1.044   6.025 -0.0343  0.5706  0.2338
    9CHL1   H3'  596   0.777   0.965   6.024 -0.0250  0.5225  1.7007
    9CHL1    C4  597   0.603   1.215   5.924 -0.0736  0.3156 -0.3533
    9CHL1   H4A  598   0.507   1.168   5.953 -0.4573 -0.8286 -3.1697
    9CHL1   H4B  599   0.642   1.272   6.011  1.0882 -1.5049  0.3471
    9CHL1    C5  600   0.592   1.293   5.798  0.2145  0.2728 -0.3843
    9CHL1    C6  601   0.601   1.423   5.780  0.0825  0.1498  0.4586
    9CHL1    H6  602   0.622   1.491   5.864 -0.6873  1.0872 -0.0686
    9CHL1    C7  603   0.579   1.502   5.650 -0.0571  0.5020 -0.2484
    9CHL1   H7A  604   0.512   1.590   5.666 -0.6403  0.0349 -0.0987
    9CHL1   H7B  605   0.678   1.542   5.621  2.1948 -2.3911  2.7070
    9CHL1    C8  606   0.514   1.417   5.533 -0.2776 -0.2281  0.1493
    9CHL1    H8  607   0.405   1.403   5.547 -0.9705  0.0358 -3.8854
    9CHL1   C14  608   0.543   1.482   5.396  0.0172  0.1022  0.6515
    9CHL1   H14  609   0.654   1.476   5.383 -0.0983 -3.1442  0.3020
    9CHL1   C15  610   0.503   1.633   5.370  0.2793  0.9505 -0.3018
    9CHL1  H15A  611   0.401   1.660   5.407 -0.2518 -0.9261 -0.3126
    9CHL1  H15B  612   0.574   1.701   5.421 -0.7942  2.1713 -0.3643
    9CHL1   C16  613   0.524   1.658   5.227  0.4587 -0.5257  0.2149
    9CHL1  H16A  614   0.427   1.706   5.204  0.4093 -0.3254  0.8194
    9CHL1  H16B  615   0.605   1.728   5.201  1.1928 -0.6986  1.8925
    9CHL1   C17  616   0.541   1.513   5.166  0.1520  0.0133 -0.0599
    9CHL1   H17  617   0.649   1.494   5.152  0.4585  1.3067  0.3625
    9CHL1   C13  618   0.496   1.408   5.274 -0.6566  0.4526 -0.3470
    9CHL1   C18  619   0.341   1.397   5.272  0.4813 -0.1535  0.4073
    9CHL1  H18A  620   0.299   1.326   5.198 -1.1581  1.1223  0.0494
    9CHL1  H18B  621   0.297   1.379   5.373  0.5703  0.7150  0.6019
    9CHL1  H18C  622   0.302   1.498   5.247  0.2533  0.0487  1.5125
    9CHL1   C12  623   0.561   1.269   5.282 -0.3695 -0.0452  0.2614
    9CHL1  H12A  624   0.538   1.207   5.192 -0.3671  0.4369 -0.0773
    9CHL1  H12B  625   0.672   1.266   5.282 -0.3610  0.0476 -0.3090
    9CHL1   C11  626   0.521   1.198   5.414  0.7661  1.0637  1.0384
    9CHL1  H11A  627   0.410   1.200   5.419  0.5600 -1.5954 -0.6031
    9CHL1  H11B  628   0.557   1.093   5.418  0.2469  0.8473  0.2626
    9CHL1    C9  629   0.567   1.276   5.536 -0.1188  0.5808  0.4542
    9CHL1    H9  630   0.677   1.284   5.519  0.0090  0.8145  1.3414
    9CHL1   C10  631   0.553   1.198   5.677 -0.0792  0.3115 -0.1220
    9CHL1   C19  632   0.402   1.156   5.701 -0.6053  0.4081  0.1729
    9CHL1  H19A  633   0.393   1.089   5.789 -0.3335  1.3299  0.9220
    9CHL1  H19B  634   0.335   1.242   5.725  1.2377  1.1839  3.0152
    9CHL1  H19C  635   0.369   1.107   5.607  2.8142  0.9665 -1.4593
    9CHL1    C1  636   0.641   1.073   5.670 -0.9810  0.4352 -0.1529
    9CHL1   H1A  637   0.599   0.999   5.599 -0.7898  0.5181 -0.3544
    9CHL1   H1B  638   0.745   1.093   5.635 -0.1944 -2.1783  0.4764
    9CHL1    C2  639   0.659   0.999   5.804  0.0632  0.4198 -0.2661
    9CHL1   H2A  640   0.739   0.923   5.801  1.1193  1.4899 -0.2507
    9CHL1   H2B  641   0.567   0.953   5.845  0.0089  1.1421  0.4457
    9CHL1   C20  642   0.474   1.510   5.028  0.2613  0.8727  0.2755
    9CHL1   H20  643   0.364   1.499   5.035  0.4121  0.3369  2.8525
    9CHL1   C21  644   0.512   1.375   4.961 -0.0490 -0.0178 -0.6199
    9CHL1  H21A  645   0.462   1.296   5.020 -1.6293  2.1482  1.0917
    9CHL1  H21B  646   0.621   1.350   4.956  0.1471  0.9495 -1.6681
    9CHL1  H21C  647   0.477   1.363   4.857  2.2709  1.4380 -1.6630
    9CHL1   C22  648   0.517   1.627   4.929 -0.8355 -0.2036  0.1550
    9CHL1  H22A  649   0.523   1.726   4.980 -0.1173 -1.2148  2.1677
    9CHL1  H22B  650   0.615   1.596   4.887 -1.6718 -2.0145 -0.5717
    9CHL1   C23  651   0.430   1.645   4.808  0.3120  0.5895 -0.3580
    9CHL1  H23A  652   0.411   1.545   4.764 -0.5248  1.4964 -2.1499
    9CHL1  H23B  653   0.335   1.684   4.851 -0.7083 -1.8350 -0.2197
    9CHL1   C24  654   0.490   1.741   4.705 -0.3763 -0.0666 -0.4755
    9CHL1  H24A  655   0.601   1.733   4.712  0.1917  3.4946 -2.7791
    9CHL1  H24B  656   0.470   1.706   4.601 -2.2076  0.4479 -0.3324
    9CHL1   C25  657   0.454   1.889   4.726 -0.1186 -0.1957  0.2577
    9CHL1   H25  658   0.493   1.910   4.828 -1.0511  2.2838  0.1796
    9CHL1   C26  659   0.521   1.980   4.617 -0.2922 -1.2568 -0.3626
    9CHL1  H26A  660   0.511   2.086   4.649 -3.9118 -0.9785 -1.9880
    9CHL1  H26B  661   0.627   1.957   4.590 -0.2336  0.4046 -1.7122
    9CHL1  H26C  662   0.469   1.966   4.520  2.5179  1.7637 -2.5060
    9CHL1   C27  663   0.308   1.934   4.725 -0.5377  0.1379 -0.2992
    9CHL1  H27A  664   0.264   1.922   4.624  0.6867  0.5819 -0.9081
    9CHL1  H27B  665   0.252   1.867   4.794  0.0545  0.1538  0.2045
    9CHL1  H27C  666   0.313   2.035   4.771 -0.1890 -0.8461  1.9573
   10CHL1    C3  667   0.339   3.428   6.258 -0.1069 -0.4248  0.3188
   10CHL1    H3  668   0.395   3.510   6.208 -0.4367 -1.8410 -2.5652
   10CHL1    O3  669   0.344   3.444   6.398  0.2290  0.1601 -0.0003
   10CHL1   H3'  670   0.306   3.361   6.428  1.1638  0.0140  0.8534
   10CHL1    C4  671   0.183   3.427   6.218  0.3297 -0.6710 -0.7412
   10CHL1   H4A  672   0.127   3.350   6.276 -0.9569  2.6806  2.9789
   10CHL1   H4B  673   0.156   3.532   6.245  0.4550 -0.8141 -0.0440
   10CHL1    C5  674   0.163   3.403   6.072 -0.3346 -0.1315 -0.3324
   10CHL1    C6  675   0.115   3.498   5.985 -0.4772 -0.1041 -0.8454
   10CHL1    H6  676   0.090   3.599   6.022 -1.3909 -0.7728  0.4333
   10CHL1    C7  677   0.090   3.467   5.839 -0.1051  0.2077  0.0475
   10CHL1   H7A  678   0.003   3.530   5.808  1.9601  3.9216  1.2126
   10CHL1   H7B  679   0.174   3.509   5.780  1.1783 -1.4514  0.6315
   10CHL1    C8  680   0.104   3.321   5.795 -0.2045 -0.2940 -0.3389
   10CHL1    H8  681   0.015   3.255   5.811  0.3033 -0.8560  0.2465
   10CHL1   C14  682   0.129   3.314   5.640  0.0920  0.7045  0.0121
   10CHL1   H14  683   0.227   3.367   5.637 -0.6248  2.0162 -2.5176
   10CHL1   C15  684   0.030   3.379   5.545 -0.0695 -1.1284 -0.0102
   10CHL1  H15A  685  -0.074   3.348   5.570 -0.6989  1.2142  0.5420
   10CHL1  H15B  686   0.035   3.487   5.569  1.2524 -0.8981 -1.2279
   10CHL1   C16  687   0.080   3.338   5.407 -0.0450  0.2437 -0.3435
   10CHL1  H16A  688  -0.004   3.311   5.340  0.2988 -0.5831 -0.4559
   10CHL1  H16B  689   0.135   3.418   5.355 -1.1941  1.6001  0.4625
   10CHL1   C17  690   0.184   3.222   5.429 -0.1463  0.1629 -0.1959
   10CHL1   H17  691   0.286   3.267   5.417 -0.4151  1.2210  1.1266
   10CHL1   C13  692   0.163   3.182   5.580  0.0549 -0.2604 -0.5944
   10CHL1   C18  693   0.056   3.075   5.601 -0.2094  0.2249  0.8661
   10CHL1  H18A  694   0.017   3.082   5.705  0.4609  0.6772  1.0924
   10CHL1  H18B  695  -0.036   3.096   5.542  0.5983  1.2627 -0.0606
   10CHL1  H18C  696   0.092   2.974   5.571  1.2494  1.5171 -2.2037
   10CHL1   C12  697   0.293   3.131   5.662  0.6282  0.9992  0.0401
   10CHL1  H12A  698   0.311   3.028   5.624  0.6155  0.8964  0.3096
   10CHL1  H12B  699   0.379   3.199   5.643  0.9016  1.1818  1.7911
   10CHL1   C11  700   0.261   3.121   5.812 -0.5361  0.1819  0.3846
   10CHL1  H11A  701   0.175   3.052   5.828 -0.0154 -0.2375  1.4462
   10CHL1  H11B  702   0.354   3.088   5.862  0.3469  2.0230  0.0439
   10CHL1    C9  703   0.229   3.260   5.873  0.9405 -1.0930  0.6052
   10CHL1    H9  704   0.307   3.334   5.844 -0.2851  0.6609  1.5728
   10CHL1   C10  705   0.222   3.263   6.028  0.2178 -0.4815  0.2184
   10CHL1   C19  706   0.133   3.157   6.073 -0.0570 -0.6403 -0.5249
   10CHL1  H19A  707   0.160   3.054   6.040 -1.2587 -0.3756 -2.5178
   10CHL1  H19B  708   0.116   3.151   6.183 -1.7767 -0.9609 -0.7703
   10CHL1  H19C  709   0.039   3.182   6.019  0.3618  1.4957 -0.3292
   10CHL1    C1  710   0.373   3.261   6.080  0.4531  0.3949  0.1085
   10CHL1   H1A  711   0.405   3.157   6.057  0.1210  0.4252 -0.5097
   10CHL1   H1B  712   0.436   3.329   6.018  0.4208  0.7134  0.4212
   10CHL1    C2  713   0.398   3.289   6.220 -0.6582 -0.9646 -0.1222
   10CHL1   H2A  714   0.504   3.298   6.254 -1.2499 -0.4516  1.7207
   10CHL1   H2B  715   0.343   3.217   6.284 -0.5240  1.4567  2.9850
   10CHL1   C20  716   0.180   3.110   5.321  0.2454 -0.0568  0.4555
   10CHL1   H20  717   0.084   3.057   5.343 -1.4991  2.8946  0.5297
   10CHL1   C21  718   0.301   3.022   5.324 -0.6522  0.5069 -0.3237
   10CHL1  H21A  719   0.321   2.973   5.421  1.2275 -0.7876 -1.3096
   10CHL1  H21B  720   0.391   3.088   5.325  0.7729 -1.2744 -2.3821
   10CHL1  H21C  721   0.312   2.940   5.250 -0.0168  0.0530  0.2629
   10CHL1   C22  722   0.184   3.173   5.178 -0.0181 -0.2105 -0.0397
   10CHL1  H22A  723   0.108   3.252   5.164 -0.2338 -0.5166 -0.6597
   10CHL1  H22B  724   0.289   3.206   5.164  0.2678 -0.0204  2.2198
   10CHL1   C23  725   0.151   3.071   5.061 -0.3777  0.0620  0.3469
   10CHL1  H23A  726   0.212   2.979   5.077 -0.7520  0.1641  2.8120
   10CHL1  H23B  727   0.046   3.038   5.066 -1.0190  2.1022  1.4465
   10CHL1   C24  728   0.184   3.124   4.917 -0.2351 -0.1745 -0.6533
   10CHL1  H24A  729   0.110   3.200   4.883 -1.1428 -1.6281 -2.0301
   10CHL1  H24B  730   0.286   3.168   4.914  1.1597 -3.0054  1.1036
   10CHL1   C25  731   0.176   3.022   4.798  0.3066 -0.1488  0.0441
   10CHL1   H25  732   0.068   2.998   4.788  0.3469 -0.5473  0.5482
   10CHL1   C26  733   0.224   3.092   4.669  0.5547  0.0681  0.1428
   10CHL1  H26A  734   0.151   3.173   4.648  0.5385 -0.2678 -1.2024
   10CHL1  H26B  735   0.328   3.125   4.688  0.9843 -1.7840  1.3106
   10CHL1  H26C  736   0.224   3.017   4.588  2.0476 -0.6062  0.7366
   10CHL1   C27  737   0.252   2.891   4.816 -0.0376  1.0404 -0.1191
   10CHL1  H27A  738   0.352   2.903   4.864  0.5478 -1.8874 -0.3681
   10CHL1  H27B  739   0.203   2.830   4.895  0.7526  2.7613  1.7940
   10CHL1  H27C  740   0.267   2.845   4.716 -0.3365  0.4215  0.1162
   11CHL1    C3  741   5.895   5.305   6.129 -1.1801 -0.2406  0.2336
   11CHL1    H3  742   5.794   5.281   6.090 -0.3890 -2.6752 -0.4642
   11CHL1    O3  743   5.888   5.283   6.268 -0.6435  0.1257  0.1893
   11CHL1   H3'  744   5.980   5.277   6.295 -0.8669 -0.1764  0.9296
   11CHL1    C4  745   6.006   5.218   6.067 -0.2219 -0.0544  0.1913
   11CHL1   H4A  746   6.102   5.264   6.098  0.6599 -1.3445 -0.5581
   11CHL1   H4B  747   6.001   5.113   6.102 -0.1638 -1.0933 -2.6445
   11CHL1    C5  748   5.984   5.237   5.915 -0.1571  0.5101  0.2544
   11CHL1    C6  749   5.958   5.124   5.838 -0.6456 -0.4755 -0.1704
   11CHL1    H6  750   5.957   5.027   5.891 -0.1379  0.1786  1.0895
   11CHL1    C7  751   5.947   5.137   5.692  0.3968  0.0313 -0.2966
   11CHL1   H7A  752   6.007   5.057   5.644 -2.8106 -2.8257  0.1304
   11CHL1   H7B  753   5.842   5.126   5.655  0.4834  1.7368 -1.1937
   11CHL1    C8  754   6.008   5.272   5.635  0.0165 -0.0292  0.5166
   11CHL1    H8  755   6.118   5.259   5.646  0.3121  0.4351 -1.4682
   11CHL1   C14  756   5.985   5.292   5.485  0.3137  0.2064  0.6143
   11CHL1   H14  757   5.877   5.313   5.475 -0.2454 -2.2235  0.7760
   11CHL1   C15  758   6.008   5.167   5.397  0.1909  0.6872 -0.0976
   11CHL1  H15A  759   6.096   5.109   5.431  0.8360  1.8203  0.2327
   11CHL1  H15B  760   5.925   5.094   5.407  1.1301 -0.3331  0.4661
   11CHL1   C16  761   6.036   5.218   5.254  0.3819  0.3773 -0.3734
   11CHL1  H16A  762   6.137   5.206   5.209  0.7914 -0.2352  0.6853
   11CHL1  H16B  763   5.962   5.182   5.179 -0.8871 -2.2497  1.9647
   11CHL1   C17  764   6.009   5.380   5.267 -0.1768  0.4949 -0.4583
   11CHL1   H17  765   5.900   5.401   5.260 -0.2418 -0.2632 -2.6963
   11CHL1   C13  766   6.054   5.410   5.413  0.0498  0.3218  0.6383
   11CHL1   C18  767   6.206   5.401   5.421  0.1984 -0.3551 -0.3818
   11CHL1  H18A  768   6.224   5.408   5.531 -0.1184  1.1110 -0.3919
   11CHL1  H18B  769   6.245   5.300   5.398 -1.4349 -1.4498  1.3523
   11CHL1  H18C  770   6.259   5.491   5.382 -0.9555  0.9108  0.8161
   11CHL1   C12  771   5.988   5.532   5.483  0.1295 -0.1613 -0.1714
   11CHL1  H12A  772   6.025   5.625   5.436  0.3635  1.2122  2.5665
   11CHL1  H12B  773   5.878   5.531   5.462  0.2238  1.5467 -0.9100
   11CHL1   C11  774   6.008   5.527   5.635  0.0608 -0.1641  0.1284
   11CHL1  H11A  775   6.110   5.565   5.653 -0.6503  0.2563  3.9796
   11CHL1  H11B  776   5.933   5.603   5.665 -0.8614 -0.1893 -1.9053
   11CHL1    C9  777   5.962   5.397   5.709 -0.2015  0.5170  0.0791
   11CHL1    H9  778   5.853   5.414   5.709  0.2798  4.7722  1.3375
   11CHL1   C10  779   6.000   5.387   5.864  0.3140  0.0990  0.4669
   11CHL1   C19  780   6.155   5.423   5.877 -0.1077 -0.1130  0.4404
   11CHL1  H19A  781   6.220   5.363   5.810 -0.2496 -0.0353  0.2337
   11CHL1  H19B  782   6.172   5.531   5.853 -0.8514  0.4449  2.2685
   11CHL1  H19C  783   6.193   5.402   5.979  1.4927  1.8495  0.3328
   11CHL1    C1  784   5.906   5.479   5.951 -0.1865  0.0001  0.2893
   11CHL1   H1A  785   5.936   5.583   5.928  2.1759  0.0333  2.8896
   11CHL1   H1B  786   5.800   5.457   5.928 -0.9410  1.7860  1.7594
   11CHL1    C2  787   5.928   5.448   6.099 -0.6940  0.0667  0.0772
   11CHL1   H2A  788   5.867   5.512   6.166 -2.1491 -1.5788  0.3855
   11CHL1   H2B  789   6.036   5.466   6.117 -0.1416 -2.8170  0.0994
   11CHL1   C20  790   6.081   5.460   5.161  0.0403 -0.1544 -0.4420
   11CHL1   H20  791   6.191   5.440   5.164 -0.1232 -1.3894 -1.6467
   11CHL1   C21  792   6.053   5.608   5.175  0.1163 -0.2929 -0.6802
   11CHL1  H21A  793   6.119   5.650   5.255  0.1224  0.3172 -0.9978
   11CHL1  H21B  794   5.945   5.619   5.197  0.0355 -2.0623 -0.0685
   11CHL1  H21C  795   6.083   5.678   5.094  0.9031  0.6568  0.3837
   11CHL1   C22  796   6.033   5.417   5.014 -0.0537  0.6139  0.0064
   11CHL1  H22A  797   6.085   5.492   4.951  0.8921  1.7482  2.0098
   11CHL1  H22B  798   6.060   5.310   5.002 -0.6216  0.2306  1.7282
   11CHL1   C23  799   5.884   5.430   4.987  0.2324 -0.5221  0.2500
   11CHL1  H23A  800   5.820   5.383   5.064 -1.9361  1.0316 -0.5033
   11CHL1  H23B  801   5.864   5.539   4.995  0.3932 -0.5143  0.5687
   11CHL1   C24  802   5.834   5.376   4.848  0.6366  0.0740 -0.3187
   11CHL1  H24A  803   5.879   5.433   4.764 -0.3761 -0.5358 -1.3011
   11CHL1  H24B  804   5.870   5.271   4.838 -1.2653 -0.6735  0.2074
   11CHL1   C25  805   5.679   5.369   4.835  0.1293  0.5155  0.1636
   11CHL1   H25  806   5.631   5.468   4.855  0.2856  0.7612 -0.6330
   11CHL1   C26  807   5.631   5.326   4.702  0.3371  0.4502  0.1714
   11CHL1  H26A  808   5.657   5.403   4.627 -0.2903 -0.4242 -0.9800
   11CHL1  H26B  809   5.668   5.226   4.672  1.2582  1.0104 -0.6071
   11CHL1  H26C  810   5.520   5.319   4.700  0.2074  2.1838 -0.6667
   11CHL1   C27  811   5.607   5.270   4.933 -0.7695  0.8426 -0.4027
   11CHL1  H27A  812   5.500   5.261   4.903 -0.3488 -3.0806 -1.2321
   11CHL1  H27B  813   5.645   5.168   4.916  1.2961  1.4995  0.0207
   11CHL1  H27C  814   5.618   5.283   5.043 -0.4503 -2.2306 -0.0038
   12CHL1    C3  815   4.117   5.641   6.140 -0.0870 -1.0790  0.2591
   12CHL1    H3  816   4.021   5.690   6.113  0.5547 -1.0209 -2.0966
   12CHL1    O3  817   4.138   5.660   6.276  0.0380  0.2164  0.0268
   12CHL1   H3'  818   4.204   5.593   6.293 -0.8255 -1.0056 -1.1708
   12CHL1    C4  819   4.120   5.493   6.122 -0.0935 -0.0044 -0.0169
   12CHL1   H4A  820   4.211   5.456   6.175 -0.6963  1.9962  2.6437
   12CHL1   H4B  821   4.036   5.449   6.180 -0.1174 -1.4706 -1.0976
   12CHL1    C5  822   4.122   5.446   5.975 -0.9813  0.3954 -0.2734
   12CHL1    C6  823   4.040   5.354   5.937  0.5608  0.3054  0.2348
   12CHL1    H6  824   3.973   5.309   6.012  1.2830 -0.6357  0.3338
   12CHL1    C7  825   4.030   5.302   5.792 -0.9080  0.4438  0.1586
   12CHL1   H7A  826   4.030   5.191   5.790  0.3614  0.3872 -3.0410
   12CHL1   H7B  827   3.936   5.340   5.747 -0.6766  2.6811  1.4057
   12CHL1    C8  828   4.145   5.343   5.702  0.3918 -0.3784 -0.2888
   12CHL1    H8  829   4.233   5.277   5.718 -0.5852 -1.8218 -0.6394
   12CHL1   C14  830   4.100   5.326   5.556  0.0941  0.0792 -0.4702
   12CHL1   H14  831   4.008   5.387   5.541  1.0781  1.7886  0.2391
   12CHL1   C15  832   4.057   5.181   5.520 -0.1111  0.5627  1.0139
   12CHL1  H15A  833   4.133   5.106   5.551  0.3111 -0.0111 -1.1964
   12CHL1  H15B  834   3.959   5.140   5.550 -0.0448 -0.2973  0.1364
   12CHL1   C16  835   4.058   5.185   5.363  0.7235 -0.1812  0.3265
   12CHL1  H16A  836   4.105   5.095   5.316 -1.1389 -0.5780 -0.8769
   12CHL1  H16B  837   3.951   5.186   5.332  0.1251  2.6549  2.0916
   12CHL1   C17  838   4.131   5.318   5.323 -0.0091 -0.9950  0.2804
   12CHL1   H17  839   4.050   5.393   5.306  0.5901 -0.0713  1.3228
   12CHL1   C13  840   4.202   5.367   5.454 -0.0588  0.3869 -0.3038
   12CHL1   C18  841   4.332   5.285   5.469  0.0328 -0.5347  0.3724
   12CHL1  H18A  842   4.416   5.322   5.407  0.9827 -3.3681 -0.2158
   12CHL1  H18B  843   4.366   5.277   5.574 -0.5036 -0.8935  0.5211
   12CHL1  H18C  844   4.313   5.179   5.441 -2.5970 -0.0019 -0.1405
   12CHL1   C12  845   4.221   5.520   5.473  0.5338  0.2030 -0.5458
   12CHL1  H12A  846   4.278   5.561   5.387  1.4380 -1.4498 -0.7898
   12CHL1  H12B  847   4.118   5.560   5.464  0.1203 -0.4291  0.9242
   12CHL1   C11  848   4.268   5.553   5.612  0.4550 -0.2276 -0.1970
   12CHL1  H11A  849   4.373   5.516   5.620  0.3970 -0.3520 -0.0102
   12CHL1  H11B  850   4.267   5.662   5.634 -0.0734 -0.4957  1.1803
   12CHL1    C9  851   4.176   5.490   5.720  0.2792  0.0080  0.2960
   12CHL1    H9  852   4.077   5.541   5.712  0.1806 -0.1611  0.4285
   12CHL1   C10  853   4.218   5.518   5.874  0.7555  0.0524 -0.6339
   12CHL1   C19  854   4.358   5.453   5.903  0.2849  0.4103  0.2283
   12CHL1  H19A  855   4.439   5.487   5.835  2.1612 -3.2454  0.4182
   12CHL1  H19B  856   4.400   5.480   6.002  0.8806 -0.6267  0.2702
   12CHL1  H19C  857   4.349   5.345   5.879 -2.8724  0.8884 -1.3101
   12CHL1    C1  858   4.225   5.668   5.903  0.2345 -0.3328 -0.9868
   12CHL1   H1A  859   4.322   5.707   5.867  0.8863  0.4226  1.3945
   12CHL1   H1B  860   4.140   5.714   5.848  0.3242  1.5166  0.3161
   12CHL1    C2  861   4.229   5.706   6.055 -0.6212  0.0315 -0.0753
   12CHL1   H2A  862   4.212   5.816   6.059 -0.7409 -0.0260  1.6088
   12CHL1   H2B  863   4.331   5.682   6.091 -0.6308 -0.9389 -0.6507
   12CHL1   C20  864   4.210   5.307   5.198 -0.1793  0.2928  0.3412
   12CHL1   H20  865   4.295   5.236   5.203 -0.2905  0.0797 -0.5118
   12CHL1   C21  866   4.269   5.442   5.151 -0.0271  0.0991 -0.6718
   12CHL1  H21A  867   4.359   5.460   5.214 -0.4498 -3.3061  1.1349
   12CHL1  H21B  868   4.184   5.513   5.163  0.1527  0.0293  1.4456
   12CHL1  H21C  869   4.290   5.433   5.042 -0.0664 -0.4416 -0.6363
   12CHL1   C22  870   4.128   5.242   5.085  0.0922 -0.0087  0.1458
   12CHL1  H22A  871   4.083   5.144   5.112 -0.8720 -0.7395 -3.6043
   12CHL1  H22B  872   4.049   5.316   5.059  2.8863  2.5513 -1.6143
   12CHL1   C23  873   4.209   5.205   4.960 -0.7545  0.2909 -0.1670
   12CHL1  H23A  874   4.214   5.286   4.884 -0.7750 -0.0117 -0.4939
   12CHL1  H23B  875   4.315   5.175   4.976 -0.3386  2.1031  0.8033
   12CHL1   C24  876   4.129   5.092   4.893 -0.5445 -0.2078  0.1107
   12CHL1  H24A  877   4.147   4.998   4.950  1.5689 -0.6019 -1.0806
   12CHL1  H24B  878   4.023   5.122   4.907 -0.2375  0.7541  0.5036
   12CHL1   C25  879   4.145   5.070   4.740 -0.0325  0.9857  0.1596
   12CHL1   H25  880   4.128   5.165   4.686  1.1947 -0.3918 -2.8655
   12CHL1   C26  881   4.287   5.027   4.714  0.3227  0.4494  0.0566
   12CHL1  H26A  882   4.321   5.009   4.609 -0.8745  0.4353 -0.3371
   12CHL1  H26B  883   4.357   5.097   4.765 -1.4177  1.1497  1.5694
   12CHL1  H26C  884   4.310   4.937   4.775 -2.0355  1.1890  2.1936
   12CHL1   C27  885   4.038   4.967   4.692 -0.1315  0.2755  0.0955
   12CHL1  H27A  886   4.044   4.872   4.749  0.1852  0.6908  0.7657
   12CHL1  H27B  887   3.938   5.005   4.725 -0.3250 -0.3821  0.2720
   12CHL1  H27C  888   4.038   4.960   4.581  1.8728  2.1530 -0.0922
   13CHL1    C3  889   3.627   5.091   6.212  0.6137 -0.5921  1.0684
   13CHL1    H3  890   3.564   5.175   6.177  1.5624 -0.5704 -0.6760
   13CHL1    O3  891   3.644   5.094   6.346 -0.1961 -0.3354 -0.4206
   13CHL1   H3'  892   3.565   5.141   6.372 -1.5947 -2.3576 -0.8046
   13CHL1    C4  893   3.556   4.960   6.172  0.7303  0.3622  0.1713
   13CHL1   H4A  894   3.610   4.872   6.212 -0.7065 -1.4466 -1.6185
   13CHL1   H4B  895   3.461   4.977   6.227  1.8635  2.9758  1.5162
   13CHL1    C5  896   3.542   4.950   6.020 -0.3801  1.0050 -0.5373
   13CHL1    C6  897   3.423   4.931   5.966 -0.1370 -0.0486  0.6215
   13CHL1    H6  898   3.330   4.925   6.024  0.3606  0.1542  1.4606
   13CHL1    C7  899   3.405   4.910   5.816  0.5494  0.3354 -0.2192
   13CHL1   H7A  900   3.346   4.819   5.793 -0.1757  0.0411  2.4397
   13CHL1   H7B  901   3.355   5.000   5.776  0.2523  0.0849 -0.4189
   13CHL1    C8  902   3.535   4.894   5.735 -0.4655  0.2985 -0.1845
   13CHL1    H8  903   3.569   4.790   5.758  2.0481  1.6800  3.1045
   13CHL1   C14  904   3.515   4.922   5.594 -0.2031 -0.2637  0.4085
   13CHL1   H14  905   3.503   5.032   5.598  0.8572  0.0116 -2.3313
   13CHL1   C15  906   3.391   4.866   5.524 -0.0850  0.2352  0.6065
   13CHL1  H15A  907   3.397   4.755   5.535 -5.2990 -0.1348  2.4587
   13CHL1  H15B  908   3.295   4.908   5.559 -1.1924  0.1390 -2.0583
   13CHL1   C16  909   3.416   4.889   5.376 -0.8651 -0.1472  0.5888
   13CHL1  H16A  910   3.402   4.788   5.333 -1.3889  0.2055 -0.0811
   13CHL1  H16B  911   3.344   4.957   5.326  0.7408  0.8696 -0.4263
   13CHL1   C17  912   3.573   4.937   5.366 -0.5748  0.8040 -0.7534
   13CHL1   H17  913   3.554   5.047   5.365  0.1226  0.9700 -3.1418
   13CHL1   C13  914   3.634   4.910   5.501 -0.8203  0.4009 -0.0244
   13CHL1   C18  915   3.686   4.767   5.494 -1.3472  0.3565 -0.3615
   13CHL1  H18A  916   3.728   4.745   5.595  1.5912 -1.8636 -1.8822
   13CHL1  H18B  917   3.615   4.683   5.476 -1.6301  0.0262  1.9038
   13CHL1  H18C  918   3.766   4.752   5.418  0.1250 -1.5506  1.4342
   13CHL1   C12  919   3.749   5.003   5.549  0.1532 -0.5870  0.1328
   13CHL1  H12A  920   3.840   4.972   5.493  1.3990  0.0615  1.7101
   13CHL1  H12B  921   3.717   5.107   5.524 -0.5362 -0.9337 -0.4661
   13CHL1   C11  922   3.781   4.969   5.700 -0.4321 -0.1308  0.1718
   13CHL1  H11A  923   3.838   4.874   5.713  0.3587 -0.0603 -2.2845
   13CHL1  H11B  924   3.844   5.047   5.749 -1.5288  0.2928  0.9529
   13CHL1    C9  925   3.652   4.983   5.785 -0.1207  0.0706  0.6301
   13CHL1    H9  926   3.615   5.087   5.770 -1.7166 -0.6217 -0.4598
   13CHL1   C10  927   3.680   4.968   5.939 -0.8456  0.2547 -0.8269
   13CHL1   C19  928   3.772   4.846   5.971 -0.1115 -0.0869  0.6860
   13CHL1  H19A  929   3.781   4.823   6.079  0.5161 -3.1987  0.0434
   13CHL1  H19B  930   3.722   4.759   5.924  0.3156  0.2316 -0.4031
   13CHL1  H19C  931   3.875   4.870   5.936  0.3511  0.3383  2.2550
   13CHL1    C1  932   3.745   5.105   5.998 -0.2485 -0.2584  0.6973
   13CHL1   H1A  933   3.844   5.095   5.948  0.0010 -3.6818  1.5491
   13CHL1   H1B  934   3.681   5.189   5.965 -2.1544 -2.2957 -1.0622
   13CHL1    C2  935   3.763   5.111   6.149  0.5771  0.3954 -0.3750
   13CHL1   H2A  936   3.800   5.210   6.185 -2.5855  1.6092 -0.1212
   13CHL1   H2B  937   3.839   5.040   6.186  2.3343  2.0558 -0.6322
   13CHL1   C20  938   3.633   4.905   5.231 -0.5346 -0.3422 -0.5608
   13CHL1   H20  939   3.662   4.798   5.225 -0.2379 -0.2822 -0.2445
   13CHL1   C21  940   3.770   4.977   5.218 -0.1515  0.2090  0.4304
   13CHL1  H21A  941   3.839   4.962   5.133 -1.1930  1.3142 -0.6550
   13CHL1  H21B  942   3.827   4.917   5.292  1.3564 -1.2370 -1.7947
   13CHL1  H21C  943   3.761   5.085   5.240 -1.1985  0.0581  0.8211
   13CHL1   C22  944   3.545   4.944   5.115  0.2527 -0.0654  0.1200
   13CHL1  H22A  945   3.447   4.894   5.134  0.4874 -0.3974  0.4478
   13CHL1  H22B  946   3.522   5.053   5.118  1.1454  0.1362 -0.2152
   13CHL1   C23  947   3.583   4.884   4.981  0.4469 -0.3809 -0.3090
   13CHL1  H23A  948   3.686   4.915   4.953  0.1309  2.8725  1.6341
   13CHL1  H23B  949   3.579   4.773   4.978 -0.2781 -0.3952  0.6750
   13CHL1   C24  950   3.495   4.941   4.871 -0.1768 -0.3298 -0.6980
   13CHL1  H24A  951   3.391   4.903   4.881 -0.0211 -1.2928 -2.2819
   13CHL1  H24B  952   3.470   5.049   4.882  0.3959 -0.2750  0.1899
   13CHL1   C25  953   3.538   4.897   4.729 -0.1285 -0.1697  0.0082
   13CHL1   H25  954   3.645   4.922   4.715  0.0845 -0.9325  0.2208
   13CHL1   C26  955   3.519   4.749   4.711  0.2630  0.3269  0.2336
   13CHL1  H26A  956   3.415   4.717   4.730  0.5468 -0.3048  0.7767
   13CHL1  H26B  957   3.550   4.734   4.605  1.0802 -0.1178  0.5219
   13CHL1  H26C  958   3.589   4.684   4.768 -2.3228 -2.1720  0.8282
   13CHL1   C27  959   3.459   4.978   4.629  0.0853 -0.6485  0.1244
   13CHL1  H27A  960   3.473   5.088   4.644 -0.3450 -0.5664 -0.0830
   13CHL1  H27B  961   3.488   4.960   4.524 -0.6788 -0.0457 -0.1996
   13CHL1  H27C  962   3.352   4.951   4.636  0.0565 -0.3226  1.2629
   14CHL1    C3  963   3.935   1.397   6.012  1.2115  0.2328  0.6768
   14CHL1    H3  964   3.919   1.290   6.036 -1.2593  0.3890  0.0326
   14CHL1    O3  965   3.947   1.461   6.136  0.8178 -0.0536  0.2318
   14CHL1   H3'  966   3.963   1.551   6.107 -0.7219  0.1059 -0.1588
   14CHL1    C4  967   4.059   1.431   5.928  0.1802  0.4727  0.4973
   14CHL1   H4A  968   4.084   1.538   5.935  2.1028  0.1520 -0.9061
   14CHL1   H4B  969   4.131   1.360   5.975 -0.8820 -0.7244  0.3854
   14CHL1    C5  970   4.042   1.390   5.781  0.0013  0.4803  0.2207
   14CHL1    C6  971   4.120   1.296   5.725 -0.5238 -0.0719 -0.1151
   14CHL1    H6  972   4.203   1.257   5.785 -1.1283  0.3171  1.0037
   14CHL1    C7  973   4.095   1.262   5.579 -0.0963 -0.4915 -0.0348
   14CHL1   H7A  974   4.189   1.242   5.524 -0.1502 -0.3651 -0.1717
   14CHL1   H7B  975   4.036   1.168   5.581  0.5932 -0.9350  1.6099
   14CHL1    C8  976   4.015   1.361   5.494  0.0740  0.7441 -0.5170
   14CHL1    H8  977   4.076   1.454   5.488  0.5042  0.6400  1.5915
   14CHL1   C14  978   3.984   1.304   5.354 -0.4822 -0.0962  0.2916
   14CHL1   H14  979   3.924   1.214   5.377 -0.6357  0.1287  0.7939
   14CHL1   C15  980   4.108   1.268   5.265  0.6033  0.3823 -0.6803
   14CHL1  H15A  981   4.189   1.343   5.278 -0.7934  1.7369  0.4965
   14CHL1  H15B  982   4.140   1.167   5.298 -1.2286  0.8809  3.1280
   14CHL1   C16  983   4.045   1.259   5.127  0.0865 -0.1336 -0.1382
   14CHL1  H16A  984   4.096   1.318   5.048 -1.4108  0.3996 -0.7445
   14CHL1  H16B  985   4.052   1.162   5.073 -1.2926  0.1010 -0.7668
   14CHL1   C17  986   3.892   1.291   5.141  0.1814  0.1115 -0.8056
   14CHL1   H17  987   3.841   1.200   5.181 -0.1062  0.6342  0.0403
   14CHL1   C13  988   3.891   1.392   5.265 -0.3877 -0.4153  0.2712
   14CHL1   C18  989   3.954   1.526   5.228  0.0604  0.0782  0.5470
   14CHL1  H18A  990   4.036   1.519   5.154  0.5121  1.7512  0.8452
   14CHL1  H18B  991   3.877   1.590   5.179  0.4020  0.0439 -0.0400
   14CHL1  H18C  992   3.986   1.584   5.317 -0.7462  1.4572 -0.0209
   14CHL1   C12  993   3.760   1.401   5.349  0.0625  0.0546  0.3866
   14CHL1  H12A  994   3.685   1.449   5.282  0.4872  1.0636  0.6189
   14CHL1  H12B  995   3.732   1.295   5.366  0.4272 -0.0019  0.6525
   14CHL1   C11  996   3.776   1.475   5.483  0.5966  0.3285 -0.1626
   14CHL1  H11A  997   3.806   1.581   5.469 -1.0696  0.9342  0.5637
   14CHL1  H11B  998   3.674   1.475   5.528  0.5971 -2.6948  0.0625
   14CHL1    C9  999   3.885   1.403   5.568  0.0653  0.2960 -0.3879
   14CHL1    H9 1000   3.837   1.304   5.582  0.4141  0.5182  3.8434
   14CHL1   C10 1001   3.927   1.459   5.706  0.3661  0.1215 -0.0984
   14CHL1   C19 1002   3.969   1.608   5.695 -0.1044  0.7834 -0.5065
   14CHL1  H19A 1003   4.068   1.630   5.650  0.6679  1.0060  1.2457
   14CHL1  H19B 1004   3.893   1.661   5.634 -1.4606  0.7980  1.1116
   14CHL1  H19C 1005   3.972   1.661   5.792  1.3962 -0.3872  0.1279
   14CHL1    C1 1006   3.793   1.445   5.791 -0.0269  0.0789  0.3602
   14CHL1   H1A 1007   3.713   1.513   5.756 -0.1010 -0.0010  0.3737
   14CHL1   H1B 1008   3.749   1.344   5.779 -1.8856  0.4628  3.0506
   14CHL1    C2 1009   3.817   1.465   5.941  0.6133  0.0990  0.2808
   14CHL1   H2A 1010   3.723   1.446   5.997  0.0048 -0.1097 -0.7739
   14CHL1   H2B 1011   3.837   1.573   5.956 -0.9667  0.0406  3.5255
   14CHL1   C20 1012   3.810   1.330   5.018  0.1787  0.4521 -0.3652
   14CHL1   H20 1013   3.728   1.398   5.048 -1.2291 -1.0766 -0.6507
   14CHL1   C21 1014   3.742   1.199   4.971 -0.3197  0.1437 -0.4374
   14CHL1  H21A 1015   3.668   1.213   4.889  0.8276  1.1391 -1.3298
   14CHL1  H21B 1016   3.690   1.140   5.050  0.2719  0.5041  0.2291
   14CHL1  H21C 1017   3.812   1.122   4.932 -3.0519 -1.8956 -1.6755
   14CHL1   C22 1018   3.897   1.401   4.913 -0.1505 -0.0410  0.1698
   14CHL1  H22A 1019   3.951   1.490   4.952 -0.9679  0.9094 -0.7824
   14CHL1  H22B 1020   3.975   1.329   4.880 -0.1861  0.0153 -0.0388
   14CHL1   C23 1021   3.821   1.449   4.795 -0.2474  0.0556  0.2487
   14CHL1  H23A 1022   3.783   1.362   4.737  1.4415 -0.8796  0.4805
   14CHL1  H23B 1023   3.735   1.513   4.825  1.4316  1.7291  1.6699
   14CHL1   C24 1024   3.908   1.529   4.697 -0.0827 -0.0883 -0.4868
   14CHL1  H24A 1025   3.989   1.460   4.666  0.1580  1.3186 -3.3600
   14CHL1  H24B 1026   3.854   1.564   4.606  0.5337  1.1091 -0.4127
   14CHL1   C25 1027   3.965   1.665   4.750 -0.4347  0.6231 -0.4800
   14CHL1   H25 1028   4.051   1.639   4.816  0.2346 -0.7785 -1.8148
   14CHL1   C26 1029   4.027   1.743   4.641 -0.4649  0.3161  0.1580
   14CHL1  H26A 1030   4.109   1.686   4.592 -1.9518  0.3336 -2.5260
   14CHL1  H26B 1031   3.958   1.767   4.558  1.1296 -3.0748 -2.4063
   14CHL1  H26C 1032   4.067   1.842   4.673  1.7497 -0.5452  0.2782
   14CHL1   C27 1033   3.858   1.742   4.825 -0.4966  0.1792  0.6009
   14CHL1  H27A 1034   3.820   1.694   4.918 -0.3809 -0.3999  0.3508
   14CHL1  H27B 1035   3.900   1.843   4.848  1.2701 -0.0904 -1.1379
   14CHL1  H27C 1036   3.766   1.747   4.762  0.6412 -2.5011 -1.4832
   15CHL1    C3 1037   3.963   2.703   6.401 -0.1526 -0.3314  0.3870
   15CHL1    H3 1038   3.961   2.599   6.361 -1.0004 -0.9546  2.0033
   15CHL1    O3 1039   3.979   2.708   6.540  0.2996  0.0480  0.7008
   15CHL1   H3' 1040   3.901   2.656   6.560 -2.2831  2.6322 -1.6888
   15CHL1    C4 1041   4.082   2.782   6.346 -0.1938 -0.2392 -0.2982
   15CHL1   H4A 1042   4.096   2.878   6.398 -0.5227  0.5169 -1.5622
   15CHL1   H4B 1043   4.168   2.712   6.358  0.1271  0.4999  2.3996
   15CHL1    C5 1044   4.066   2.807   6.191 -0.1402  0.0003 -0.2445
   15CHL1    C6 1045   4.161   2.777   6.107  0.3126 -0.0984 -0.0745
   15CHL1    H6 1046   4.259   2.751   6.149  0.0813  0.6067  0.9142
   15CHL1    C7 1047   4.162   2.785   5.962  0.4765  0.7406  0.2298
   15CHL1   H7A 1048   4.260   2.815   5.917  0.2294  0.1125 -0.7510
   15CHL1   H7B 1049   4.136   2.691   5.910 -0.6662  1.4730 -0.5641
   15CHL1    C8 1050   4.055   2.882   5.918  0.1894 -0.4407 -1.0274
   15CHL1    H8 1051   4.095   2.985   5.937 -1.7128 -0.0457  1.2112
   15CHL1   C14 1052   4.028   2.865   5.767  0.2935  0.1548 -0.5702
   15CHL1   H14 1053   3.990   2.762   5.751  1.6936 -0.4372 -0.2357
   15CHL1   C15 1054   4.157   2.868   5.674  0.0366 -0.1024 -0.6823
   15CHL1  H15A 1055   4.235   2.940   5.704  1.3649 -1.2289 -1.3187
   15CHL1  H15B 1056   4.208   2.769   5.680 -0.4163 -0.2543  2.1384
   15CHL1   C16 1057   4.095   2.888   5.536  0.3881  0.1468 -0.3559
   15CHL1  H16A 1058   4.146   2.959   5.468 -0.4142  0.3199 -0.7895
   15CHL1  H16B 1059   4.088   2.793   5.479 -0.1086  0.5086 -0.9116
   15CHL1   C17 1060   3.942   2.918   5.555 -0.8500  0.1504  0.6694
   15CHL1   H17 1061   3.890   2.821   5.542  0.8878 -0.7396  0.0165
   15CHL1   C13 1062   3.924   2.955   5.703 -0.3325 -0.1277 -0.3923
   15CHL1   C18 1063   3.956   3.102   5.732 -0.0880  0.0298 -0.1835
   15CHL1  H18A 1064   3.876   3.167   5.692  0.4582  0.0922 -1.2296
   15CHL1  H18B 1065   3.970   3.115   5.841 -0.7596 -0.7306  0.0089
   15CHL1  H18C 1066   4.055   3.127   5.687  1.1609 -1.7891  1.4134
   15CHL1   C12 1067   3.791   2.917   5.769 -0.6878  0.3785 -0.6131
   15CHL1  H12A 1068   3.719   2.999   5.743 -2.2296 -1.0707 -1.0936
   15CHL1  H12B 1069   3.759   2.821   5.724 -1.5525  1.5230 -2.5708
   15CHL1   C11 1070   3.801   2.913   5.922  0.3808  0.6523  0.1158
   15CHL1  H11A 1071   3.787   3.021   5.946  1.0823  0.6725  0.4564
   15CHL1  H11B 1072   3.712   2.860   5.962 -1.4917  3.5365  0.0580
   15CHL1    C9 1073   3.926   2.846   5.989 -0.0216 -0.0310 -0.1603
   15CHL1    H9 1074   3.918   2.738   5.966 -0.1248  0.4410 -2.6393
   15CHL1   C10 1075   3.928   2.861   6.146  0.0001 -0.1892  0.5490
   15CHL1   C19 1076   3.923   3.010   6.189  0.2670  0.7918 -0.1627
   15CHL1  H19A 1077   4.000   3.074   6.140  2.0270 -0.1527  1.2388
   15CHL1  H19B 1078   3.826   3.060   6.169 -0.4166 -0.8553 -1.2043
   15CHL1  H19C 1079   3.933   3.024   6.299  0.6369  1.8418 -0.3172
   15CHL1    C1 1080   3.813   2.768   6.208  0.6156  0.1993 -0.0087
   15CHL1   H1A 1081   3.711   2.800   6.180  0.9594  1.5617  0.2260
   15CHL1   H1B 1082   3.833   2.669   6.160 -2.1850 -0.0950 -0.7152
   15CHL1    C2 1083   3.826   2.762   6.361 -0.2899 -0.3977 -0.4064
   15CHL1   H2A 1084   3.743   2.696   6.395  0.1647 -0.4942  0.5528
   15CHL1   H2B 1085   3.817   2.860   6.412 -1.0743 -0.8565  0.3805
   15CHL1   C20 1086   3.885   3.009   5.439 -0.4611  0.2331 -0.4893
   15CHL1   H20 1087   3.932   3.108   5.457  1.5443 -1.1048  2.3851
   15CHL1   C21 1088   3.734   3.014   5.466  0.1265 -1.3330  0.0661
   15CHL1  H21A 1089   3.702   2.923   5.521  1.5910 -0.4208  2.6052
   15CHL1  H21B 1090   3.679   3.029   5.371 -4.4031  1.5793  2.7877
   15CHL1  H21C 1091   3.716   3.100   5.535  0.6769 -3.7044  3.4253
   15CHL1   C22 1092   3.914   2.963   5.290  0.0601  0.1285  0.6338
   15CHL1  H22A 1093   4.022   2.945   5.273 -0.0938  0.7563 -1.2245
   15CHL1  H22B 1094   3.865   2.863   5.286  1.5453 -0.5762 -2.1360
   15CHL1   C23 1095   3.852   3.054   5.181 -0.3740  0.1148  0.0381
   15CHL1  H23A 1096   3.741   3.041   5.178 -0.3803  0.3186 -0.9556
   15CHL1  H23B 1097   3.874   3.157   5.217 -0.2828  0.2139 -0.2945
   15CHL1   C24 1098   3.922   3.035   5.046 -0.2768  0.7911  1.1781
   15CHL1  H24A 1099   4.032   3.023   5.052 -0.0976  1.3540 -0.4549
   15CHL1  H24B 1100   3.891   2.940   4.996  3.9442  0.7907 -1.9520
   15CHL1   C25 1101   3.896   3.146   4.934 -0.1706  0.5597 -0.2051
   15CHL1   H25 1102   3.939   3.243   4.966  1.4926 -0.3203  0.3710
   15CHL1   C26 1103   3.959   3.102   4.799 -0.7431  0.7097  0.0594
   15CHL1  H26A 1104   3.925   3.176   4.724 -2.2233  0.2874  0.2843
   15CHL1  H26B 1105   4.069   3.086   4.804 -1.0444 -1.1184  2.0063
   15CHL1  H26C 1106   3.908   3.009   4.768  0.8859  0.0356 -0.7113
   15CHL1   C27 1107   3.754   3.187   4.911  0.4682  1.2649 -0.1629
   15CHL1  H27A 1108   3.685   3.104   4.936 -0.7071  1.7162 -1.7037
   15CHL1  H27B 1109   3.722   3.273   4.975 -0.3167 -0.4035  1.7813
   15CHL1  H27C 1110   3.740   3.214   4.804  0.4487 -0.9916 -0.7794
   16CHL1    C3 1111   3.618   6.306   6.104  0.4742 -0.2083  0.2404
   16CHL1    H3 1112   3.613   6.412   6.139  1.2311  0.0983 -0.5321
   16CHL1    O3 1113   3.587   6.235   6.220  0.3712  0.1299 -0.2119
   16CHL1   H3' 1114   3.661   6.179   6.244  1.4062  1.5762  0.1260
   16CHL1    C4 1115   3.511   6.283   5.992 -0.0369  0.1707  0.0577
   16CHL1   H4A 1116   3.482   6.176   5.996 -1.7000  0.5442 -1.1082
   16CHL1   H4B 1117   3.419   6.336   6.025 -1.3060 -0.6442 -2.0248
   16CHL1    C5 1118   3.544   6.317   5.852 -0.1875 -0.5527 -0.0102
   16CHL1    C6 1119   3.467   6.390   5.776 -0.4209 -0.4612 -0.0514
   16CHL1    H6 1120   3.370   6.423   5.815 -1.7125 -1.4251 -2.2352
   16CHL1    C7 1121   3.492   6.430   5.631  0.0335 -0.2677 -0.8965
   16CHL1   H7A 1122   3.402   6.454   5.571 -0.2260  1.8546  0.2377
   16CHL1   H7B 1123   3.535   6.533   5.637  0.9865 -0.6717 -0.5145
   16CHL1    C8 1124   3.592   6.332   5.569 -0.4110  0.1337  0.0523
   16CHL1    H8 1125   3.554   6.229   5.549 -0.6791 -0.6090  3.6687
   16CHL1   C14 1126   3.631   6.381   5.429  0.5529  0.6210 -0.2409
   16CHL1   H14 1127   3.683   6.475   5.457  1.1659 -0.2945  1.9324
   16CHL1   C15 1128   3.527   6.418   5.333  0.4443  0.3568 -0.5783
   16CHL1  H15A 1129   3.450   6.338   5.326  0.9221 -0.1000 -0.6604
   16CHL1  H15B 1130   3.486   6.518   5.361 -0.6738 -0.7053  1.9056
   16CHL1   C16 1131   3.599   6.430   5.202  0.2512 -0.4789  0.2674
   16CHL1  H16A 1132   3.560   6.360   5.126 -0.7047 -0.6776  0.9196
   16CHL1  H16B 1133   3.587   6.533   5.162 -2.1062 -0.5957  0.5475
   16CHL1   C17 1134   3.746   6.398   5.226  0.0910 -0.0325  0.3901
   16CHL1   H17 1135   3.789   6.489   5.272 -0.9223  0.5211  0.2876
   16CHL1   C13 1136   3.738   6.303   5.353 -0.0424 -0.4670  0.2406
   16CHL1   C18 1137   3.699   6.166   5.307 -0.2567  0.4170  0.0983
   16CHL1  H18A 1138   3.660   6.104   5.390 -0.7116  1.5133  0.7238
   16CHL1  H18B 1139   3.632   6.166   5.218  0.6129  0.7080 -0.5730
   16CHL1  H18C 1140   3.792   6.122   5.266  0.4805  1.0736  1.0352
   16CHL1   C12 1141   3.864   6.307   5.439  0.4680  0.7181  0.0730
   16CHL1  H12A 1142   3.951   6.251   5.398 -0.7119 -1.5370  0.4237
   16CHL1  H12B 1143   3.891   6.413   5.458 -1.2526  1.6720 -2.3927
   16CHL1   C11 1144   3.824   6.253   5.584 -0.4048  0.0324  0.1138
   16CHL1  H11A 1145   3.796   6.149   5.558  0.8335  0.0625 -1.5042
   16CHL1  H11B 1146   3.911   6.260   5.653 -0.6780  2.0609  0.3139
   16CHL1    C9 1147   3.713   6.320   5.657  0.6709  0.1118 -0.2741
   16CHL1    H9 1148   3.742   6.424   5.685  2.6410 -0.4443 -0.1153
   16CHL1   C10 1149   3.673   6.266   5.798  0.0999  0.3593 -0.8712
   16CHL1   C19 1150   3.678   6.116   5.783 -0.0561 -0.6173  0.0984
   16CHL1  H19A 1151   3.621   6.062   5.861 -0.2307 -3.3655 -1.7654
   16CHL1  H19B 1152   3.639   6.074   5.688 -0.7278  0.6262 -0.1893
   16CHL1  H19C 1153   3.784   6.082   5.789 -0.0827 -0.6204  0.5184
   16CHL1    C1 1154   3.774   6.319   5.907  0.4973 -0.0027 -0.1929
   16CHL1   H1A 1155   3.881   6.302   5.881  0.6899  1.3488 -0.3917
   16CHL1   H1B 1156   3.765   6.430   5.906 -1.3476 -0.1183  0.0585
   16CHL1    C2 1157   3.750   6.261   6.050  0.2601  0.0737 -0.1951
   16CHL1   H2A 1158   3.830   6.306   6.114  1.5411 -2.6813  0.2679
   16CHL1   H2B 1159   3.754   6.150   6.055  1.8491  0.1477  1.2413
   16CHL1   C20 1160   3.832   6.355   5.112 -0.1659 -0.3066 -0.2627
   16CHL1   H20 1161   3.792   6.266   5.060  0.1603  0.3019 -1.6237
   16CHL1   C21 1162   3.976   6.332   5.161 -0.4520 -0.5053  0.4697
   16CHL1  H21A 1163   3.963   6.233   5.211  0.0922 -0.3773  0.8663
   16CHL1  H21B 1164   4.013   6.411   5.229  1.2285 -1.1318  0.3348
   16CHL1  H21C 1165   4.048   6.321   5.078  1.1605  2.3319  1.3853
   16CHL1   C22 1166   3.835   6.456   4.998 -0.3495 -0.3227 -0.1090
   16CHL1  H22A 1167   3.742   6.517   5.002 -0.4169 -0.4710  0.6695
   16CHL1  H22B 1168   3.924   6.523   4.997 -0.4488 -0.1061 -2.6146
   16CHL1   C23 1169   3.819   6.391   4.863  0.5956  0.4833 -0.3962
   16CHL1  H23A 1170   3.912   6.342   4.827  0.0056 -1.6623  0.8352
   16CHL1  H23B 1171   3.734   6.319   4.858  0.1899  0.6896  2.2143
   16CHL1   C24 1172   3.779   6.493   4.753  0.1271  0.2085  0.0270
   16CHL1  H24A 1173   3.669   6.505   4.748  0.0493 -1.0229 -2.2234
   16CHL1  H24B 1174   3.828   6.591   4.771 -1.6106  1.2459 -0.6727
   16CHL1   C25 1175   3.816   6.435   4.612 -0.6079 -0.1318  0.3383
   16CHL1   H25 1176   3.926   6.415   4.608 -0.5821  0.1073 -0.2192
   16CHL1   C26 1177   3.739   6.311   4.574 -0.9471 -0.1120 -0.2053
   16CHL1  H26A 1178   3.769   6.285   4.471 -0.4683 -1.0252  0.1568
   16CHL1  H26B 1179   3.770   6.232   4.645 -1.0630 -2.3500 -2.5201
   16CHL1  H26C 1180   3.628   6.323   4.576 -0.9452 -0.1290  0.3388
   16CHL1   C27 1181   3.780   6.551   4.511  0.1592  0.5669  0.4484
   16CHL1  H27A 1182   3.808   6.513   4.411 -0.7504 -0.4565  0.5592
   16CHL1  H27B 1183   3.673   6.582   4.504  0.5439  1.7797 -0.4769
   16CHL1  H27C 1184   3.836   6.644   4.536 -0.6331  1.1607  0.0781
   17CHL1    C3 1185   1.512   3.191   6.349 -0.3509  0.1306  0.6474
   17CHL1    H3 1186   1.426   3.231   6.290 -0.7708  0.9756  1.7845
   17CHL1    O3 1187   1.486   3.190   6.490 -0.6319 -0.3098 -0.0597
   17CHL1   H3' 1188   1.483   3.278   6.528  0.9327 -1.0645  2.0102
   17CHL1    C4 1189   1.558   3.050   6.304 -0.4741 -0.0500  0.1853
   17CHL1   H4A 1190   1.649   3.014   6.355 -0.1515  3.1836  2.1428
   17CHL1   H4B 1191   1.493   2.969   6.344 -1.3040  1.6797  2.5231
   17CHL1    C5 1192   1.579   3.042   6.156 -0.0319 -0.4714  0.2942
   17CHL1    C6 1193   1.516   2.943   6.097 -0.0474  0.0084  0.4535
   17CHL1    H6 1194   1.452   2.874   6.153 -0.6844 -0.4696 -0.8288
   17CHL1    C7 1195   1.530   2.927   5.948 -1.1856  0.4226  0.0010
   17CHL1   H7A 1196   1.531   2.820   5.916  1.8942  0.8265 -1.7000
   17CHL1   H7B 1197   1.451   2.977   5.889  0.0571  0.0284 -2.0821
   17CHL1    C8 1198   1.654   3.004   5.894 -0.1741  0.6499 -0.0244
   17CHL1    H8 1199   1.747   2.947   5.917 -0.7723  0.3962  1.8552
   17CHL1   C14 1200   1.653   3.010   5.743  0.5647 -0.2971  0.1121
   17CHL1   H14 1201   1.567   3.075   5.716 -1.2580 -1.1821  3.1875
   17CHL1   C15 1202   1.637   2.880   5.665  0.4667  0.2156  0.3658
   17CHL1  H15A 1203   1.716   2.813   5.703 -0.0458 -0.1171  0.8774
   17CHL1  H15B 1204   1.539   2.829   5.677  0.7899 -1.2067 -2.3475
   17CHL1   C16 1205   1.664   2.926   5.520 -0.7216 -0.3914  0.5753
   17CHL1  H16A 1206   1.722   2.853   5.460  1.6728  3.4645 -2.3527
   17CHL1  H16B 1207   1.570   2.950   5.467  0.1124 -1.0001 -1.2654
   17CHL1   C17 1208   1.753   3.056   5.533  0.6050 -0.1196  0.0192
   17CHL1   H17 1209   1.677   3.129   5.498  1.8948  1.3886  0.2454
   17CHL1   C13 1210   1.779   3.091   5.678  0.5351  0.4189 -0.0183
   17CHL1   C18 1211   1.905   3.023   5.730 -0.4515 -0.2612  0.6429
   17CHL1  H18A 1212   1.920   3.042   5.839 -0.1371  1.6559  0.2993
   17CHL1  H18B 1213   1.903   2.914   5.712 -1.5277 -0.8376  3.5794
   17CHL1  H18C 1214   1.985   3.073   5.672 -0.7651 -3.7457 -3.2318
   17CHL1   C12 1215   1.770   3.238   5.719  0.2065  0.9911 -0.1747
   17CHL1  H12A 1216   1.869   3.283   5.696  0.3741  0.1388 -1.2365
   17CHL1  H12B 1217   1.685   3.296   5.678 -1.7568  0.9141  3.4066
   17CHL1   C11 1218   1.765   3.242   5.871  0.3545  0.3351 -0.5005
   17CHL1  H11A 1219   1.868   3.225   5.908  0.2867 -0.0793 -0.4979
   17CHL1  H11B 1220   1.744   3.347   5.903 -3.2657  0.0023 -1.3646
   17CHL1    C9 1221   1.664   3.148   5.943  0.1784 -0.7501 -0.1903
   17CHL1    H9 1222   1.569   3.197   5.910  1.0823  0.1549 -1.5576
   17CHL1   C10 1223   1.669   3.152   6.092 -0.6014 -0.0481  0.2079
   17CHL1   C19 1224   1.817   3.120   6.131 -0.0219 -0.0800 -0.4634
   17CHL1  H19A 1225   1.852   3.034   6.070 -1.6041 -0.8297 -0.3584
   17CHL1  H19B 1226   1.885   3.205   6.108 -1.7572  0.9709 -2.0362
   17CHL1  H19C 1227   1.839   3.095   6.237 -1.5841  0.3053 -0.0334
   17CHL1    C1 1228   1.624   3.291   6.146 -0.5008  0.8684 -0.3356
   17CHL1   H1A 1229   1.701   3.360   6.107  0.4295 -0.5130 -1.0231
   17CHL1   H1B 1230   1.525   3.328   6.112 -0.2181  1.5857 -0.3929
   17CHL1    C2 1231   1.622   3.292   6.302  0.6805 -0.3740  0.1696
   17CHL1   H2A 1232   1.614   3.396   6.338 -2.1956 -0.4883  0.0960
   17CHL1   H2B 1233   1.717   3.252   6.343 -0.5166  0.2088  3.9308
   17CHL1   C20 1234   1.877   3.054   5.436 -0.1624  0.3900 -0.3821
   17CHL1   H20 1235   1.951   2.980   5.472  1.0058  1.4303 -0.5871
   17CHL1   C21 1236   1.946   3.194   5.426 -0.8608  0.3888 -0.0973
   17CHL1  H21A 1237   2.026   3.199   5.349 -1.4479 -0.0513 -0.7495
   17CHL1  H21B 1238   1.975   3.233   5.525 -0.6650  0.4130 -0.1648
   17CHL1  H21C 1239   1.860   3.258   5.398 -2.6102 -1.3549  1.0502
   17CHL1   C22 1240   1.834   3.013   5.286 -0.1526  0.1966  0.0874
   17CHL1  H22A 1241   1.755   2.936   5.278  0.0923 -0.3466  2.2635
   17CHL1  H22B 1242   1.799   3.109   5.244 -0.5480 -0.0771 -0.2128
   17CHL1   C23 1243   1.950   2.954   5.203  0.3127 -0.2230  0.1889
   17CHL1  H23A 1244   2.043   3.014   5.217 -0.5827  1.3426 -0.3625
   17CHL1  H23B 1245   1.961   2.854   5.251 -0.2488 -0.7775 -0.8226
   17CHL1   C24 1246   1.914   2.951   5.061 -0.3834 -0.2939 -0.5112
   17CHL1  H24A 1247   1.820   2.895   5.042  0.1248 -1.4068  0.1544
   17CHL1  H24B 1248   1.901   3.051   5.014 -0.5538 -0.8210 -1.6151
   17CHL1   C25 1249   2.029   2.883   4.965  0.0498  0.1285 -0.5543
   17CHL1   H25 1250   2.050   2.784   5.011 -0.2151  0.7188  0.8762
   17CHL1   C26 1251   1.972   2.873   4.821 -0.4322 -0.2328  0.0289
   17CHL1  H26A 1252   1.887   2.802   4.821 -1.3681  0.6791 -3.5864
   17CHL1  H26B 1253   1.944   2.969   4.771  1.6067  0.1156 -0.5296
   17CHL1  H26C 1254   2.052   2.824   4.761 -0.6899 -0.2362 -0.3115
   17CHL1   C27 1255   2.161   2.955   4.965  0.4219 -0.9877  0.5141
   17CHL1  H27A 1256   2.237   2.905   4.902  0.9007  2.2110 -1.6973
   17CHL1  H27B 1257   2.142   3.053   4.916 -1.9812  0.2735  3.5864
   17CHL1  H27C 1258   2.203   2.974   5.066  1.9601 -1.3601 -0.0282
   18CHL1    C3 1259   2.778   4.159   6.207 -1.6053  0.1446  0.4750
   18CHL1    H3 1260   2.752   4.052   6.219 -0.2733 -0.1541  0.8636
   18CHL1    O3 1261   2.805   4.209   6.339 -0.4607 -0.4973  0.5625
   18CHL1   H3' 1262   2.830   4.302   6.341 -1.0458 -0.3367  0.8691
   18CHL1    C4 1263   2.912   4.175   6.129 -0.2300 -0.3507 -0.6359
   18CHL1   H4A 1264   2.942   4.281   6.134  1.1061 -0.7572  1.0722
   18CHL1   H4B 1265   2.989   4.120   6.186 -2.8739 -1.1811  2.4368
   18CHL1    C5 1266   2.891   4.133   5.984 -0.5175 -0.3672 -0.0752
   18CHL1    C6 1267   2.961   4.034   5.923  0.2506 -0.7520  0.0185
   18CHL1    H6 1268   3.039   3.976   5.976  1.9697 -0.4000 -2.0018
   18CHL1    C7 1269   2.956   4.008   5.774  0.6161  0.5081 -0.3350
   18CHL1   H7A 1270   3.058   4.003   5.731  1.4292  2.3887  1.2072
   18CHL1   H7B 1271   2.895   3.915   5.766 -0.4087  0.9517  1.6469
   18CHL1    C8 1272   2.879   4.119   5.687 -0.3673  0.5110 -0.7958
   18CHL1    H8 1273   2.956   4.199   5.676 -0.7322  0.8814 -0.7130
   18CHL1   C14 1274   2.844   4.078   5.551  0.4225  0.9732 -0.5453
   18CHL1   H14 1275   2.767   3.999   5.562  0.0732  1.4981  1.1051
   18CHL1   C15 1276   2.952   4.008   5.469  0.7438  0.6998  0.3095
   18CHL1  H15A 1277   3.045   4.067   5.456  1.5585 -0.2711  1.5505
   18CHL1  H15B 1278   2.991   3.911   5.507 -0.6630  0.6505  1.7430
   18CHL1   C16 1279   2.872   3.994   5.333 -0.4542 -0.4536  0.1990
   18CHL1  H16A 1280   2.956   4.027   5.268  2.1138 -1.4534  2.7845
   18CHL1  H16B 1281   2.818   3.899   5.310 -1.2855  0.2466 -0.8654
   18CHL1   C17 1282   2.764   4.107   5.333 -0.2098 -0.1888  0.1437
   18CHL1   H17 1283   2.668   4.053   5.347 -0.0629 -0.1570  1.4354
   18CHL1   C13 1284   2.786   4.191   5.456  0.1845  0.7750 -0.0876
   18CHL1   C18 1285   2.895   4.311   5.436  0.3341  0.1202  0.4407
   18CHL1  H18A 1286   2.923   4.374   5.523 -0.1127  0.0420  0.6415
   18CHL1  H18B 1287   2.994   4.279   5.396  1.6648  2.9616  1.1769
   18CHL1  H18C 1288   2.857   4.378   5.356  3.1854  0.7069 -0.5402
   18CHL1   C12 1289   2.661   4.242   5.531  0.6678 -0.3194  0.2268
   18CHL1  H12A 1290   2.614   4.317   5.464  3.5202  0.1520 -1.4124
   18CHL1  H12B 1291   2.584   4.163   5.535 -0.2775  0.5471 -0.2993
   18CHL1   C11 1292   2.691   4.291   5.669 -0.1117  0.4401 -0.3519
   18CHL1  H11A 1293   2.755   4.382   5.664  1.5863 -0.5392  1.7357
   18CHL1  H11B 1294   2.599   4.313   5.727  0.0124  0.8586 -0.3124
   18CHL1    C9 1295   2.760   4.176   5.758  0.5044 -0.3177 -0.5502
   18CHL1    H9 1296   2.680   4.099   5.757  1.4197 -1.2989 -1.7386
   18CHL1   C10 1297   2.782   4.213   5.908 -0.9741 -0.5648 -0.3640
   18CHL1   C19 1298   2.819   4.363   5.908  0.4991  0.0289  0.0570
   18CHL1  H19A 1299   2.890   4.383   5.825  0.8605 -1.2336  0.0457
   18CHL1  H19B 1300   2.726   4.418   5.884  0.1179 -1.1522 -1.3443
   18CHL1  H19C 1301   2.859   4.403   6.003  0.1887 -0.4313  0.3845
   18CHL1    C1 1302   2.651   4.193   5.982  0.0775  0.1718  1.0596
   18CHL1   H1A 1303   2.569   4.245   5.928  0.7349  0.1336 -0.0081
   18CHL1   H1B 1304   2.624   4.085   5.986 -1.7366  0.5583  0.1933
   18CHL1    C2 1305   2.660   4.237   6.136  0.6945 -0.9233  0.7462
   18CHL1   H2A 1306   2.569   4.232   6.199  0.9132  0.8494  1.2517
   18CHL1   H2B 1307   2.687   4.344   6.124  0.8372 -1.1250 -0.9472
   18CHL1   C20 1308   2.753   4.172   5.196  0.1283  0.1177  0.0466
   18CHL1   H20 1309   2.850   4.225   5.184  0.3109  0.4218  2.3831
   18CHL1   C21 1310   2.650   4.285   5.190 -0.8833  0.8470  0.5927
   18CHL1  H21A 1311   2.633   4.330   5.090 -2.9099 -3.7403 -1.4147
   18CHL1  H21B 1312   2.676   4.365   5.262 -0.8184  0.2524  1.2393
   18CHL1  H21C 1313   2.562   4.233   5.233 -0.5924  0.8043  1.1508
   18CHL1   C22 1314   2.725   4.080   5.075  0.2230 -0.4160  0.4471
   18CHL1  H22A 1315   2.753   3.975   5.100 -0.8179 -0.5896  0.9747
   18CHL1  H22B 1316   2.620   4.060   5.045  0.1758  0.4911 -0.0001
   18CHL1   C23 1317   2.792   4.132   4.946 -0.0700 -0.2511 -0.2402
   18CHL1  H23A 1318   2.763   4.237   4.927  0.3312  0.0536  0.7545
   18CHL1  H23B 1319   2.901   4.123   4.966 -0.4125  0.9640  2.6601
   18CHL1   C24 1320   2.759   4.039   4.826  0.1656 -0.0181  0.1163
   18CHL1  H24A 1321   2.815   3.945   4.845  2.6544  1.0842 -1.2452
   18CHL1  H24B 1322   2.655   4.000   4.827  1.2920 -3.3391  0.5146
   18CHL1   C25 1323   2.801   4.098   4.684 -0.3131 -0.0929  0.2759
   18CHL1   H25 1324   2.755   4.198   4.669 -0.7088 -0.3478 -0.1975
   18CHL1   C26 1325   2.949   4.125   4.660 -0.9451  0.0455 -0.5818
   18CHL1  H26A 1326   3.013   4.034   4.667 -3.4031 -1.6182  2.8038
   18CHL1  H26B 1327   2.969   4.180   4.566 -1.6186 -2.0194 -2.0144
   18CHL1  H26C 1328   2.979   4.197   4.739 -2.3511  2.4254 -2.1068
   18CHL1   C27 1329   2.753   3.993   4.588  0.5593  0.7210 -0.7855
   18CHL1  H27A 1330   2.772   4.012   4.480  0.6405  0.7807 -0.7608
   18CHL1  H27B 1331   2.814   3.902   4.603  1.4576  1.5072  0.5665
   18CHL1  H27C 1332   2.643   3.980   4.591  0.6061  0.4697  0.9802
   19CHL1    C3 1333   2.279   4.123   5.959  0.6713 -0.3647 -0.1189
   19CHL1    H3 1334   2.363   4.195   5.961 -0.8231  1.4491  0.3357
   19CHL1    O3 1335   2.255   4.079   6.092 -0.3504  0.4460 -0.2354
   19CHL1   H3' 1336   2.178   4.021   6.086  0.2796 -0.5262  0.6184
   19CHL1    C4 1337   2.148   4.172   5.898 -0.5329 -1.0213  0.6712
   19CHL1   H4A 1338   2.068   4.095   5.899 -0.9771 -0.6086 -0.5051
   19CHL1   H4B 1339   2.126   4.264   5.956  2.9015  0.7692 -0.6119
   19CHL1    C5 1340   2.166   4.198   5.743 -0.0375 -0.2826 -0.1437
   19CHL1    C6 1341   2.134   4.317   5.687  0.2888  0.4161 -0.5580
   19CHL1    H6 1342   2.098   4.397   5.752 -0.1259  1.1505 -1.6578
   19CHL1    C7 1343   2.134   4.341   5.546  0.1788  0.1450  0.2481
   19CHL1   H7A 1344   2.049   4.407   5.517  0.1850 -0.6748 -1.7655
   19CHL1   H7B 1345   2.228   4.398   5.528  0.7936 -0.3910  1.5725
   19CHL1    C8 1346   2.150   4.208   5.466  0.3863 -0.4712  0.1729
   19CHL1    H8 1347   2.052   4.156   5.457 -0.2109  0.4420  1.0643
   19CHL1   C14 1348   2.190   4.244   5.325  0.4989  0.4459  0.5033
   19CHL1   H14 1349   2.293   4.282   5.341  0.8873 -0.4453  0.1358
   19CHL1   C15 1350   2.109   4.352   5.251  0.4639  1.1850 -0.0985
   19CHL1  H15A 1351   2.003   4.317   5.254  0.7987 -0.1075 -1.9668
   19CHL1  H15B 1352   2.113   4.451   5.303  1.4246  0.4706  1.2601
   19CHL1   C16 1353   2.174   4.349   5.113  0.1474  0.3454 -0.7246
   19CHL1  H16A 1354   2.083   4.350   5.049  0.8513 -0.9534 -1.8095
   19CHL1  H16B 1355   2.242   4.432   5.085 -1.2091  1.2552 -1.4687
   19CHL1   C17 1356   2.251   4.204   5.110  0.4379  0.3915 -0.2611
   19CHL1   H17 1357   2.362   4.214   5.117  0.8440 -1.4543 -2.4548
   19CHL1   C13 1358   2.204   4.126   5.231  0.1563  0.6761  0.6644
   19CHL1   C18 1359   2.074   4.058   5.198 -0.1195 -0.1286  0.4508
   19CHL1  H18A 1360   2.021   4.021   5.289  0.8671  1.0246  1.5325
   19CHL1  H18B 1361   2.005   4.126   5.143 -1.1765  0.6240  2.5878
   19CHL1  H18C 1362   2.091   3.972   5.131 -0.2509  1.4368 -1.7017
   19CHL1   C12 1363   2.312   4.037   5.287  0.5612  0.7998  0.3583
   19CHL1  H12A 1364   2.308   3.943   5.229  0.2709  1.3556 -0.5345
   19CHL1  H12B 1365   2.417   4.074   5.284 -0.3244  3.4916 -2.1132
   19CHL1   C11 1366   2.275   4.001   5.431 -0.0148 -0.4658  0.1031
   19CHL1  H11A 1367   2.179   3.946   5.422  0.0153 -0.3849 -0.8214
   19CHL1  H11B 1368   2.352   3.935   5.478 -1.0572 -0.5022  1.8200
   19CHL1    C9 1369   2.253   4.112   5.527 -0.2724  0.1228 -0.2256
   19CHL1    H9 1370   2.354   4.158   5.539 -0.0926 -0.3358  0.0488
   19CHL1   C10 1371   2.211   4.077   5.670  0.8494 -0.6304  0.1313
   19CHL1   C19 1372   2.102   3.964   5.671 -0.1531  0.2649 -0.4844
   19CHL1  H19A 1373   2.039   3.967   5.580  0.2313  1.7960 -0.7309
   19CHL1  H19B 1374   2.154   3.866   5.679 -1.1946 -0.2634 -0.0285
   19CHL1  H19C 1375   2.023   3.976   5.748 -0.6116  0.6769 -1.0076
   19CHL1    C1 1376   2.343   4.027   5.734 -0.3673 -0.6519  0.2797
   19CHL1   H1A 1377   2.386   3.942   5.677  0.1800  0.3864 -0.8821
   19CHL1   H1B 1378   2.414   4.111   5.725 -0.9294 -0.1510  0.4768
   19CHL1    C2 1379   2.324   3.994   5.880  0.3075 -0.5703 -0.5743
   19CHL1   H2A 1380   2.423   3.966   5.921 -0.1057 -0.6319  0.4119
   19CHL1   H2B 1381   2.251   3.911   5.895  1.1163 -1.2296 -0.2311
   19CHL1   C20 1382   2.255   4.149   4.969  0.2956 -0.5271 -0.0357
   19CHL1   H20 1383   2.151   4.118   4.944  0.5022 -0.5169 -0.9336
   19CHL1   C21 1384   2.337   4.025   4.948  0.3231 -0.1795  0.3511
   19CHL1  H21A 1385   2.444   4.053   4.955 -0.1905  2.8874 -1.8821
   19CHL1  H21B 1386   2.309   3.981   4.850 -1.2828 -1.1287  1.1970
   19CHL1  H21C 1387   2.311   3.940   5.015 -2.2025 -1.2032 -1.7239
   19CHL1   C22 1388   2.289   4.258   4.864 -0.5662 -0.3135  0.2470
   19CHL1  H22A 1389   2.306   4.209   4.766 -1.7139  0.2288 -0.2356
   19CHL1  H22B 1390   2.208   4.332   4.856 -0.2215  0.0383 -0.0014
   19CHL1   C23 1391   2.424   4.326   4.883  0.2575  0.1062 -0.0728
   19CHL1  H23A 1392   2.427   4.375   4.983 -0.1748  1.6062 -0.7639
   19CHL1  H23B 1393   2.514   4.263   4.871 -1.1210 -2.0762  0.5070
   19CHL1   C24 1394   2.447   4.439   4.775 -0.5922  0.3914  0.7046
   19CHL1  H24A 1395   2.402   4.395   4.683  2.0405 -0.1924 -0.4212
   19CHL1  H24B 1396   2.388   4.528   4.805 -2.5563 -0.8304  0.6227
   19CHL1   C25 1397   2.592   4.474   4.745  0.5345  0.2709  0.1682
   19CHL1   H25 1398   2.653   4.390   4.705 -0.5707  1.1618 -3.7202
   19CHL1   C26 1399   2.585   4.575   4.628 -0.2674 -0.4724 -0.1988
   19CHL1  H26A 1400   2.561   4.674   4.671 -2.4853 -0.4875 -1.2706
   19CHL1  H26B 1401   2.685   4.574   4.580 -0.9138  2.6272 -1.8870
   19CHL1  H26C 1402   2.509   4.556   4.549 -0.4766 -0.5632  0.0226
   19CHL1   C27 1403   2.656   4.537   4.868 -0.5090 -0.7274  0.1628
   19CHL1  H27A 1404   2.699   4.451   4.925 -0.5340 -0.4570  0.5909
   19CHL1  H27B 1405   2.748   4.582   4.826  0.2849  0.7327  3.2205
   19CHL1  H27C 1406   2.590   4.608   4.921  0.1692 -1.1412  1.5988
   20CHL1    C3 1407   2.703   6.640   6.314  0.3971 -0.4649 -0.1375
   20CHL1    H3 1408   2.810   6.664   6.293  0.7666 -0.4084  1.5912
   20CHL1    O3 1409   2.682   6.624   6.458 -0.3323 -1.1722  0.2668
   20CHL1   H3' 1410   2.712   6.534   6.472  1.0119 -0.8352 -0.2030
   20CHL1    C4 1411   2.608   6.758   6.262  0.2303 -0.3988  0.3583
   20CHL1   H4A 1412   2.500   6.734   6.275 -0.1563  0.7529 -0.5896
   20CHL1   H4B 1413   2.632   6.855   6.310 -0.3549  0.7122 -1.5090
   20CHL1    C5 1414   2.618   6.771   6.109  0.0057  0.5572 -0.2445
   20CHL1    C6 1415   2.673   6.887   6.059  0.2942  0.1974 -0.5227
   20CHL1    H6 1416   2.703   6.962   6.133 -0.9231 -1.1199  1.3922
   20CHL1    C7 1417   2.662   6.917   5.912 -0.2990  0.1840 -0.1537
   20CHL1   H7A 1418   2.606   7.010   5.892  1.2505  1.8160  2.4656
   20CHL1   H7B 1419   2.770   6.926   5.886 -0.4450  0.8019 -0.5548
   20CHL1    C8 1420   2.591   6.800   5.827 -0.3944 -0.1950 -0.4469
   20CHL1    H8 1421   2.482   6.818   5.829 -0.0343  2.3484  0.7339
   20CHL1   C14 1422   2.634   6.815   5.681 -0.2053 -0.1499  0.1652
   20CHL1   H14 1423   2.741   6.792   5.665 -0.2612  0.4759 -1.2646
   20CHL1   C15 1424   2.613   6.959   5.614 -0.0851  0.3760  0.2226
   20CHL1  H15A 1425   2.511   6.997   5.636 -1.0855 -1.1419 -1.4555
   20CHL1  H15B 1426   2.690   7.032   5.646 -1.3680  2.1757 -0.6042
   20CHL1   C16 1427   2.613   6.918   5.471 -0.2797  0.5344  0.3838
   20CHL1  H16A 1428   2.521   6.962   5.427 -0.0295  1.5816  0.8787
   20CHL1  H16B 1429   2.698   6.961   5.413  0.9084 -0.1156  1.5759
   20CHL1   C17 1430   2.611   6.758   5.455 -0.4603  0.9587 -0.0695
   20CHL1   H17 1431   2.719   6.733   5.466 -0.5698  0.5749  0.1571
   20CHL1   C13 1432   2.558   6.715   5.593  0.1941 -0.0212 -0.0829
   20CHL1   C18 1433   2.406   6.744   5.586  0.0155 -0.1736 -0.0328
   20CHL1  H18A 1434   2.369   6.732   5.690  2.3437 -0.0735  0.8753
   20CHL1  H18B 1435   2.373   6.839   5.539 -1.4772 -1.4365 -1.6670
   20CHL1  H18C 1436   2.356   6.669   5.520  1.7058 -0.7889 -0.6844
   20CHL1   C12 1437   2.595   6.568   5.640 -0.4946 -0.5450  0.0707
   20CHL1  H12A 1438   2.550   6.485   5.581 -1.4523  0.2427 -0.3316
   20CHL1  H12B 1439   2.704   6.559   5.622 -0.8743 -5.0089 -1.3474
   20CHL1   C11 1440   2.555   6.552   5.786 -0.1930 -0.5292 -0.5292
   20CHL1  H11A 1441   2.444   6.557   5.797 -0.4551 -4.0012 -0.6457
   20CHL1  H11B 1442   2.569   6.455   5.838 -0.8649 -0.1660  0.3659
   20CHL1    C9 1443   2.619   6.663   5.876 -0.4331  0.1005 -0.3436
   20CHL1    H9 1444   2.728   6.643   5.871 -0.3933 -0.3416  1.4161
   20CHL1   C10 1445   2.582   6.646   6.029  0.4029 -0.0566  0.7962
   20CHL1   C19 1446   2.427   6.625   6.042 -0.6807 -0.1474 -0.3641
   20CHL1  H19A 1447   2.389   6.620   6.147  2.9105 -2.4162  1.0383
   20CHL1  H19B 1448   2.372   6.701   5.983 -1.8910 -1.3776 -0.8819
   20CHL1  H19C 1449   2.395   6.530   5.994  1.1988 -0.9422 -0.1316
   20CHL1    C1 1450   2.666   6.534   6.086  0.4115 -0.0790 -0.1526
   20CHL1   H1A 1451   2.642   6.437   6.038  1.2054 -0.1841 -0.3440
   20CHL1   H1B 1452   2.772   6.566   6.075 -0.4832  3.9969  1.1336
   20CHL1    C2 1453   2.660   6.513   6.242  0.0959  0.1461  0.2326
   20CHL1   H2A 1454   2.715   6.426   6.284 -1.9075 -0.2237  2.2474
   20CHL1   H2B 1455   2.553   6.495   6.265 -0.1560  0.3487 -0.7209
   20CHL1   C20 1456   2.537   6.706   5.336  0.1584 -0.0221 -0.5308
   20CHL1   H20 1457   2.428   6.723   5.335 -0.1825 -1.9432 -0.2054
   20CHL1   C21 1458   2.562   6.551   5.332  0.0369  0.0633 -1.0263
   20CHL1  H21A 1459   2.477   6.493   5.375  0.1929  0.0246 -0.7709
   20CHL1  H21B 1460   2.655   6.522   5.385 -0.3718 -1.8179 -1.2580
   20CHL1  H21C 1461   2.565   6.508   5.229  2.5204 -1.8698 -0.2539
   20CHL1   C22 1462   2.587   6.758   5.200 -0.1703 -0.7552  0.2936
   20CHL1  H22A 1463   2.600   6.867   5.215  0.2706 -0.8473  0.6179
   20CHL1  H22B 1464   2.683   6.705   5.179  1.3732  0.4889  3.5436
   20CHL1   C23 1465   2.498   6.734   5.081  0.1765 -0.6038  0.4102
   20CHL1  H23A 1466   2.462   6.630   5.072 -1.0506 -0.2495  1.0188
   20CHL1  H23B 1467   2.408   6.799   5.089  1.3711  1.2459 -0.5190
   20CHL1   C24 1468   2.560   6.788   4.951  1.1570 -0.6357  0.4549
   20CHL1  H24A 1469   2.642   6.857   4.981 -0.3763  1.8328 -0.7573
   20CHL1  H24B 1470   2.594   6.690   4.911 -0.6718 -1.2968  0.4165
   20CHL1   C25 1471   2.461   6.856   4.861 -0.6433  0.0556 -0.5012
   20CHL1   H25 1472   2.412   6.938   4.917 -1.3718 -0.3385 -0.5395
   20CHL1   C26 1473   2.535   6.918   4.740  0.3459  0.9400  0.2880
   20CHL1  H26A 1474   2.475   6.995   4.687  0.1532 -0.4321 -1.5802
   20CHL1  H26B 1475   2.637   6.953   4.766  1.1799 -0.3086 -1.1705
   20CHL1  H26C 1476   2.540   6.830   4.672 -0.2435  1.8076 -0.9052
   20CHL1   C27 1477   2.348   6.766   4.823  0.4487  0.1256  0.0171
   20CHL1  H27A 1478   2.293   6.808   4.736 -0.0919 -3.0532 -1.3467
   20CHL1  H27B 1479   2.386   6.662   4.808 -0.7341 -0.4586  0.8758
   20CHL1  H27C 1480   2.287   6.748   4.914  2.2187 -0.9124  1.0643
   21CHL1    C3 1481   0.892   4.970   6.135 -0.0120 -0.0867  0.4034
   21CHL1    H3 1482   0.862   4.863   6.130 -0.3116 -0.0151  0.6475
   21CHL1    O3 1483   0.844   5.019   6.261 -0.2395 -0.0831  0.0949
   21CHL1   H3' 1484   0.873   5.109   6.252 -0.9211  0.0987 -0.4744
   21CHL1    C4 1485   1.043   4.987   6.130 -1.0689 -0.6108  0.6589
   21CHL1   H4A 1486   1.067   5.095   6.142  0.9125 -0.9144 -0.1632
   21CHL1   H4B 1487   1.078   4.930   6.219  0.6184 -1.0982 -0.2665
   21CHL1    C5 1488   1.106   4.941   5.995  0.3282 -0.5338 -0.3560
   21CHL1    C6 1489   1.202   4.853   5.978 -0.7949  0.1141  0.0261
   21CHL1    H6 1490   1.250   4.811   6.067 -0.4771  0.4561  0.0170
   21CHL1    C7 1491   1.262   4.819   5.844 -0.0871  0.3970  0.1387
   21CHL1   H7A 1492   1.372   4.822   5.860  0.2286  0.5631 -1.7848
   21CHL1   H7B 1493   1.242   4.712   5.822 -1.9549  0.7043  0.1760
   21CHL1    C8 1494   1.212   4.904   5.726  0.2780 -0.0233 -0.5761
   21CHL1    H8 1495   1.267   5.000   5.737 -1.0495  0.5441  1.7269
   21CHL1   C14 1496   1.248   4.833   5.597  0.4299  0.0948  0.4216
   21CHL1   H14 1497   1.188   4.739   5.599 -0.4970  0.6875  1.5897
   21CHL1   C15 1498   1.394   4.785   5.571  0.0185 -0.4708 -0.3067
   21CHL1  H15A 1499   1.461   4.873   5.577  0.6044 -0.6507 -3.0950
   21CHL1  H15B 1500   1.423   4.705   5.642 -1.5531  1.0043  2.1744
   21CHL1   C16 1501   1.404   4.759   5.424  0.2489  0.6164  0.9962
   21CHL1  H16A 1502   1.480   4.833   5.390 -1.5327  1.1924 -2.1634
   21CHL1  H16B 1503   1.423   4.658   5.381  1.0376  1.9740 -2.1404
   21CHL1   C17 1504   1.265   4.815   5.362 -0.6363 -0.6369  0.4290
   21CHL1   H17 1505   1.200   4.725   5.351 -0.2184 -0.7123 -1.9219
   21CHL1   C13 1506   1.203   4.906   5.465 -0.5798  0.0583 -0.3135
   21CHL1   C18 1507   1.271   5.046   5.465 -0.2463  0.1762 -0.5415
   21CHL1  H18A 1508   1.379   5.022   5.468 -0.0257  1.2062  0.8491
   21CHL1  H18B 1509   1.249   5.100   5.370  1.5191  0.5461 -0.7655
   21CHL1  H18C 1510   1.241   5.119   5.544  1.5624  1.3884 -0.9242
   21CHL1   C12 1511   1.049   4.918   5.477  0.7716  0.2652 -0.2649
   21CHL1  H12A 1512   1.002   4.978   5.396 -1.4464 -2.8464 -1.4514
   21CHL1  H12B 1513   1.005   4.818   5.459  1.2030  0.4440 -2.7537
   21CHL1   C11 1514   0.998   4.980   5.607  0.0473 -0.8665 -0.1260
   21CHL1  H11A 1515   1.009   5.091   5.603 -3.6640 -0.3304  0.4800
   21CHL1  H11B 1516   0.888   4.964   5.604 -0.3347  0.6976  2.2291
   21CHL1    C9 1517   1.059   4.924   5.738  0.5960  0.1875 -0.5458
   21CHL1    H9 1518   1.027   4.818   5.751 -1.5823  1.0485  1.9599
   21CHL1   C10 1519   1.024   4.996   5.870 -0.3539  0.3464 -0.7494
   21CHL1   C19 1520   1.069   5.148   5.859 -0.0898 -0.2230  0.5671
   21CHL1  H19A 1521   1.064   5.193   5.960 -0.9014  0.3146  0.2953
   21CHL1  H19B 1522   1.171   5.155   5.815 -1.3531  2.3274 -2.3413
   21CHL1  H19C 1523   0.995   5.207   5.802  2.2628  2.2640 -0.1330
   21CHL1    C1 1524   0.873   4.986   5.887 -0.0750  0.1462  0.2298
   21CHL1   H1A 1525   0.830   5.042   5.801  0.5978  1.1539  0.5284
   21CHL1   H1B 1526   0.836   4.881   5.882  0.0597  0.1590 -1.4321
   21CHL1    C2 1527   0.815   5.045   6.022 -0.0457 -0.5519 -0.1012
   21CHL1   H2A 1528   0.704   5.042   6.023 -0.0261 -1.3432  1.1206
   21CHL1   H2B 1529   0.845   5.151   6.039 -0.7916 -0.2529 -0.5880
   21CHL1   C20 1530   1.279   4.862   5.222  0.0975 -0.5163  0.0836
   21CHL1   H20 1531   1.342   4.953   5.230  0.0456 -0.5499  1.0344
   21CHL1   C21 1532   1.143   4.908   5.167 -0.7514  0.3484  0.7318
   21CHL1  H21A 1533   1.127   5.008   5.213  2.1252  0.2350  2.1746
   21CHL1  H21B 1534   1.058   4.839   5.189 -0.6192 -0.4459 -1.0830
   21CHL1  H21C 1535   1.153   4.918   5.057  0.8802 -0.2238  0.8037
   21CHL1   C22 1536   1.341   4.763   5.119 -0.4091 -0.2664  0.5386
   21CHL1  H22A 1537   1.356   4.813   5.021 -0.1087  2.6422  1.9667
   21CHL1  H22B 1538   1.444   4.745   5.156  0.6650 -0.7851 -2.4622
   21CHL1   C23 1539   1.258   4.633   5.091  0.5486 -0.7679 -0.6691
   21CHL1  H23A 1540   1.232   4.583   5.187  0.1302  0.6373 -0.0267
   21CHL1  H23B 1541   1.160   4.655   5.044  0.2843  0.1051  0.2531
   21CHL1   C24 1542   1.336   4.528   5.002 -0.2090 -0.3774  0.0212
   21CHL1  H24A 1543   1.437   4.511   5.047  0.0626  3.5320  1.3112
   21CHL1  H24B 1544   1.280   4.432   5.007 -0.3681 -0.2209  2.1518
   21CHL1   C25 1545   1.345   4.561   4.853 -0.7928 -0.1428  0.0046
   21CHL1   H25 1546   1.382   4.665   4.846  4.1141 -1.6944 -0.4714
   21CHL1   C26 1547   1.451   4.469   4.783  0.0901 -0.6919 -0.0234
   21CHL1  H26A 1548   1.444   4.472   4.672 -0.0550  3.2095 -0.0428
   21CHL1  H26B 1549   1.557   4.492   4.807  0.3737 -1.6662 -0.3000
   21CHL1  H26C 1550   1.438   4.368   4.828 -1.2572  0.4194  2.2538
   21CHL1   C27 1551   1.206   4.542   4.784  0.1029 -0.2468  0.3007
   21CHL1  H27A 1552   1.140   4.629   4.804 -0.3902 -0.0411 -1.9556
   21CHL1  H27B 1553   1.235   4.541   4.677 -1.2722 -3.4917 -0.1403
   21CHL1  H27C 1554   1.163   4.440   4.791 -2.1063  0.4133 -2.1150
   22CHL1    C3 1555   3.176   3.468   6.056  0.2022  0.0976 -0.0389
   22CHL1    H3 1556   3.160   3.358   6.052 -0.6492  0.1688  1.1004
   22CHL1    O3 1557   3.195   3.486   6.197 -0.3610 -0.1553  0.1060
   22CHL1   H3' 1558   3.212   3.581   6.203  0.5087 -0.1717 -1.4731
   22CHL1    C4 1559   3.304   3.495   5.976  0.1067 -0.2212  0.0141
   22CHL1   H4A 1560   3.332   3.598   6.005  1.8416 -0.6911  0.1018
   22CHL1   H4B 1561   3.389   3.433   6.012  2.4680  2.3745 -0.7790
   22CHL1    C5 1562   3.282   3.478   5.826 -0.2730  0.0782  0.0833
   22CHL1    C6 1563   3.347   3.385   5.756 -0.1109 -0.2532 -0.5747
   22CHL1    H6 1564   3.420   3.318   5.803 -1.5859 -0.3113  1.7391
   22CHL1    C7 1565   3.327   3.357   5.615  0.1797  0.4500  0.3679
   22CHL1   H7A 1566   3.421   3.329   5.563 -0.4985  0.5529 -0.9546
   22CHL1   H7B 1567   3.263   3.267   5.607  1.5564 -0.5348  0.0845
   22CHL1    C8 1568   3.265   3.476   5.546 -0.4116 -0.1885 -0.8427
   22CHL1    H8 1569   3.342   3.556   5.547 -0.5547  0.0206  2.2954
   22CHL1   C14 1570   3.228   3.441   5.404 -0.7921  0.3811 -0.1302
   22CHL1   H14 1571   3.150   3.361   5.409  0.3114 -0.7127  0.0878
   22CHL1   C15 1572   3.340   3.387   5.315 -0.6289 -0.0568 -0.5552
   22CHL1  H15A 1573   3.435   3.436   5.345 -0.5483 -1.4097  1.6733
   22CHL1  H15B 1574   3.355   3.277   5.323  0.0019 -0.0024 -0.9275
   22CHL1   C16 1575   3.280   3.409   5.175  0.1604  0.1058  0.6435
   22CHL1  H16A 1576   3.348   3.446   5.096 -0.4358 -1.0247 -0.4267
   22CHL1  H16B 1577   3.241   3.309   5.147  1.7107 -0.5517  0.7355
   22CHL1   C17 1578   3.157   3.508   5.189 -0.0301  0.1435  0.3612
   22CHL1   H17 1579   3.060   3.454   5.184 -0.3032  0.7157 -1.0209
   22CHL1   C13 1580   3.170   3.562   5.333  0.4923 -0.1602  0.7991
   22CHL1   C18 1581   3.267   3.681   5.327 -0.0571  0.7337  0.1699
   22CHL1  H18A 1582   3.217   3.771   5.287  2.0484  0.3773 -3.7275
   22CHL1  H18B 1583   3.308   3.713   5.425 -0.4340 -2.9453  1.7313
   22CHL1  H18C 1584   3.351   3.654   5.260  1.1312  1.2500  1.3941
   22CHL1   C12 1585   3.039   3.612   5.406 -0.2833  0.2681 -0.1868
   22CHL1  H12A 1586   2.998   3.698   5.348 -0.4300 -0.3734 -1.0553
   22CHL1  H12B 1587   2.962   3.532   5.401  0.2563 -0.5717  2.8197
   22CHL1   C11 1588   3.073   3.650   5.551 -0.4600  0.0268 -0.1851
   22CHL1  H11A 1589   3.121   3.750   5.542  0.2541 -0.2644  0.3349
   22CHL1  H11B 1590   2.975   3.679   5.595 -1.5631 -1.9228 -1.2560
   22CHL1    C9 1591   3.141   3.536   5.623  0.6507 -0.5804  0.2739
   22CHL1    H9 1592   3.069   3.452   5.631  1.3173 -1.3245 -1.1415
   22CHL1   C10 1593   3.178   3.569   5.770  0.7350 -0.3531  0.6134
   22CHL1   C19 1594   3.233   3.714   5.772 -1.2821 -0.0512 -0.2950
   22CHL1  H19A 1595   3.305   3.729   5.688  0.8316 -1.1060  1.2558
   22CHL1  H19B 1596   3.156   3.795   5.773  2.3244  3.6921  0.8546
   22CHL1  H19C 1597   3.292   3.736   5.863 -0.4572  1.0652 -1.0646
   22CHL1    C1 1598   3.047   3.563   5.856 -0.5441  0.4638  0.6879
   22CHL1   H1A 1599   2.989   3.654   5.827 -0.5299 -0.0309 -0.9711
   22CHL1   H1B 1600   2.985   3.478   5.822 -1.2194  0.4701  1.8218
   22CHL1    C2 1601   3.066   3.560   6.009 -0.7087 -0.1849 -0.0670
   22CHL1   H2A 1602   2.973   3.539   6.067 -1.8369  0.9592 -1.3740
   22CHL1   H2B 1603   3.116   3.657   6.027  1.0840 -1.0594 -0.0784
   22CHL1   C20 1604   3.145   3.607   5.073  0.1603  1.1998 -0.3836
   22CHL1   H20 1605   3.233   3.674   5.075  2.0268 -1.1575  0.4519
   22CHL1   C21 1606   3.016   3.693   5.088 -0.5727 -0.8983  0.2090
   22CHL1  H21A 1607   2.992   3.743   4.991  1.1128 -1.1237 -0.3698
   22CHL1  H21B 1608   3.027   3.774   5.163 -1.2914  0.7354 -1.3790
   22CHL1  H21C 1609   2.922   3.638   5.110  0.1276 -2.3072 -0.1785
   22CHL1   C22 1610   3.158   3.550   4.928  0.1458 -0.0126  0.1030
   22CHL1  H22A 1611   3.263   3.514   4.921  0.5639  1.2746 -0.5930
   22CHL1  H22B 1612   3.093   3.461   4.912 -0.7382  0.8711 -1.3718
   22CHL1   C23 1613   3.141   3.649   4.808 -0.1451 -0.1269  0.2196
   22CHL1  H23A 1614   3.031   3.656   4.793 -0.1303  2.1295  0.8643
   22CHL1  H23B 1615   3.175   3.753   4.827 -0.6832  0.0030  0.5018
   22CHL1   C24 1616   3.195   3.584   4.681 -0.5059 -0.0485  0.6270
   22CHL1  H24A 1617   3.301   3.554   4.694 -0.6060  0.1547  2.1707
   22CHL1  H24B 1618   3.143   3.490   4.652 -0.7712  1.2812 -4.0787
   22CHL1   C25 1619   3.169   3.663   4.548  0.2423  0.1562  0.6771
   22CHL1   H25 1620   3.206   3.768   4.545 -0.5751  0.5460  2.6057
   22CHL1   C26 1621   3.234   3.593   4.426  0.2178 -0.5381  0.2226
   22CHL1  H26A 1622   3.344   3.599   4.431  0.1316  0.3455  2.0020
   22CHL1  H26B 1623   3.199   3.487   4.422 -2.7309  0.3636 -0.3843
   22CHL1  H26C 1624   3.196   3.643   4.335 -0.3354 -0.8632  0.2690
   22CHL1   C27 1625   3.020   3.673   4.526  0.7817 -0.5601  0.0249
   22CHL1  H27A 1626   2.981   3.747   4.600  2.3720 -1.7927  2.2220
   22CHL1  H27B 1627   2.996   3.701   4.422  0.9596  2.4274  0.6843
   22CHL1  H27C 1628   2.977   3.573   4.549 -0.6601 -0.3529 -1.5453
   23CHL1    C3 1629   2.526   0.559   6.056  0.1360 -0.8100 -0.0407
   23CHL1    H3 1630   2.630   0.535   6.086  0.3471 -2.1255 -1.6767
   23CHL1    O3 1631   2.451   0.588   6.170 -0.4321  0.4701 -0.0757
   23CHL1   H3' 1632   2.360   0.592   6.141 -0.4750 -0.7167 -0.1600
   23CHL1    C4 1633   2.533   0.690   5.968  0.1732  0.2068  0.0950
   23CHL1   H4A 1634   2.439   0.749   5.960 -0.7911 -0.5850  3.7939
   23CHL1   H4B 1635   2.599   0.767   6.014  0.9853  0.1542 -0.9451
   23CHL1    C5 1636   2.589   0.671   5.833 -0.4698  0.3411 -0.0077
   23CHL1    C6 1637   2.686   0.755   5.785 -0.5561  0.3058 -0.9671
   23CHL1    H6 1638   2.718   0.843   5.843 -0.2999  0.5626 -1.4973
   23CHL1    C7 1639   2.736   0.745   5.646  0.1298 -0.3444  0.0639
   23CHL1   H7A 1640   2.740   0.841   5.591 -0.3279 -0.9760 -1.1120
   23CHL1   H7B 1641   2.837   0.698   5.649  0.9361  1.3371  0.4603
   23CHL1    C8 1642   2.646   0.655   5.555  0.5586  0.2870 -0.3974
   23CHL1    H8 1643   2.553   0.710   5.531 -1.8756 -2.9637  0.7427
   23CHL1   C14 1644   2.726   0.607   5.437 -0.6736  0.3841  0.6458
   23CHL1   H14 1645   2.803   0.535   5.472 -1.3302 -1.9832 -2.2673
   23CHL1   C15 1646   2.813   0.710   5.366  0.2200  0.4767  0.1947
   23CHL1  H15A 1647   2.762   0.805   5.340 -0.7827 -0.2844 -0.7311
   23CHL1  H15B 1648   2.909   0.724   5.420  1.1030  1.0375 -1.4413
   23CHL1   C16 1649   2.833   0.645   5.220  0.4759 -0.3291  0.5855
   23CHL1  H16A 1650   2.797   0.713   5.140  2.1744 -2.9834 -2.6842
   23CHL1  H16B 1651   2.934   0.615   5.187  0.9863  1.2815  0.5725
   23CHL1   C17 1652   2.747   0.511   5.211  0.0370 -0.2281 -0.3163
   23CHL1   H17 1653   2.808   0.440   5.271  0.2084  1.4653  1.6546
   23CHL1   C13 1654   2.643   0.534   5.325 -0.7828  0.1830 -1.2732
   23CHL1   C18 1655   2.531   0.634   5.274  0.0537 -0.3103 -0.6737
   23CHL1  H18A 1656   2.581   0.730   5.251 -0.8319  0.5167  0.7245
   23CHL1  H18B 1657   2.481   0.594   5.183  0.9568 -0.2682 -1.1901
   23CHL1  H18C 1658   2.451   0.656   5.348 -0.2422 -1.6855 -0.5513
   23CHL1   C12 1659   2.584   0.408   5.386 -0.4788  0.0472 -0.3753
   23CHL1  H12A 1660   2.498   0.368   5.327 -1.5016  0.2777  0.9198
   23CHL1  H12B 1661   2.658   0.326   5.397 -2.1369 -1.8859 -2.3622
   23CHL1   C11 1662   2.507   0.432   5.527 -0.1047 -0.6908  0.9171
   23CHL1  H11A 1663   2.416   0.492   5.505  0.6659  0.6735  1.3648
   23CHL1  H11B 1664   2.476   0.331   5.562 -0.6489 -0.8349  0.0498
   23CHL1    C9 1665   2.588   0.525   5.620 -0.0652  0.2689  0.9533
   23CHL1    H9 1666   2.684   0.473   5.641  2.2191  2.3493 -2.9888
   23CHL1   C10 1667   2.523   0.556   5.758  0.2895 -0.8515 -0.0340
   23CHL1   C19 1668   2.377   0.588   5.728  0.4868 -0.0420  0.1587
   23CHL1  H19A 1669   2.320   0.502   5.686  1.7296 -1.4189  1.2033
   23CHL1  H19B 1670   2.320   0.614   5.820 -0.6696 -1.2724 -0.1725
   23CHL1  H19C 1671   2.369   0.678   5.663  2.1651 -0.5095 -0.7519
   23CHL1    C1 1672   2.536   0.427   5.847 -0.2365 -0.3079 -0.3314
   23CHL1   H1A 1673   2.503   0.345   5.781  0.8145 -0.1052 -1.1424
   23CHL1   H1B 1674   2.644   0.420   5.870 -0.2659  1.3184  0.4858
   23CHL1    C2 1675   2.475   0.441   5.981  0.9769  0.3718 -0.1835
   23CHL1   H2A 1676   2.498   0.355   6.047  0.4112  0.8986  0.7320
   23CHL1   H2B 1677   2.365   0.444   5.965  1.0742 -2.0710 -1.7263
   23CHL1   C20 1678   2.706   0.461   5.073  0.3049  0.7885  0.2812
   23CHL1   H20 1679   2.620   0.516   5.027  1.2401 -0.8386 -3.8924
   23CHL1   C21 1680   2.658   0.313   5.091 -0.2098 -0.2752  0.4084
   23CHL1  H21A 1681   2.557   0.301   5.135 -0.2903 -0.5608  0.1489
   23CHL1  H21B 1682   2.735   0.260   5.152 -0.5113  1.8832  2.8683
   23CHL1  H21C 1683   2.649   0.251   5.000 -1.1365 -0.8620  0.8848
   23CHL1   C22 1684   2.812   0.473   4.967  0.5085  0.4219 -0.1966
   23CHL1  H22A 1685   2.822   0.583   4.966  0.4048  0.4322 -0.1502
   23CHL1  H22B 1686   2.907   0.425   5.000 -0.0693  0.2467  1.2799
   23CHL1   C23 1687   2.780   0.417   4.825  0.5110  0.1831 -0.0058
   23CHL1  H23A 1688   2.787   0.306   4.816 -1.2542  0.2188 -3.6271
   23CHL1  H23B 1689   2.677   0.452   4.803  0.6069  0.7059  0.3484
   23CHL1   C24 1690   2.873   0.466   4.712  0.1215  0.2505 -0.3273
   23CHL1  H24A 1691   2.878   0.576   4.698 -0.1894  0.4249  0.7898
   23CHL1  H24B 1692   2.968   0.424   4.752  0.7067 -1.1261 -2.9522
   23CHL1   C25 1693   2.860   0.398   4.573 -0.1337 -0.3853 -0.3442
   23CHL1   H25 1694   2.754   0.413   4.544 -0.1608 -1.9704 -1.1514
   23CHL1   C26 1695   2.950   0.453   4.463  0.1779  0.1414  0.1380
   23CHL1  H26A 1696   2.936   0.560   4.436  0.2793 -0.3317 -1.9408
   23CHL1  H26B 1697   3.053   0.436   4.502  0.3574 -3.0294 -1.4616
   23CHL1  H26C 1698   2.934   0.391   4.373 -1.0691  1.2516 -0.4303
   23CHL1   C27 1699   2.876   0.252   4.578 -0.2828  0.4913 -0.4132
   23CHL1  H27A 1700   2.851   0.188   4.491  1.0898  0.7630 -1.0378
   23CHL1  H27B 1701   2.981   0.222   4.600 -0.9383  0.2315  3.0581
   23CHL1  H27C 1702   2.811   0.205   4.655  2.6867 -3.1465  0.1353
   24CHL1    C3 1703   4.053   1.022   6.139 -0.9213 -0.7512 -0.6699
   24CHL1    H3 1704   4.082   1.109   6.077 -0.0989 -0.6630 -0.1923
   24CHL1    O3 1705   4.092   1.049   6.275 -0.5008 -0.0702  0.3744
   24CHL1   H3' 1706   4.013   1.049   6.329  1.1633  0.4519  2.9724
   24CHL1    C4 1707   3.902   0.996   6.127 -0.1201 -0.4677  0.7648
   24CHL1   H4A 1708   3.875   0.908   6.188  0.2080 -0.2107  1.2898
   24CHL1   H4B 1709   3.850   1.086   6.167  0.3600 -0.0196  0.3936
   24CHL1    C5 1710   3.867   0.978   5.972 -0.2597  0.1601 -0.7239
   24CHL1    C6 1711   3.784   1.060   5.907 -0.1501  0.3540 -0.3355
   24CHL1    H6 1712   3.739   1.147   5.958 -1.8871 -0.0461 -1.1140
   24CHL1    C7 1713   3.749   1.049   5.763 -0.7128  0.3337 -0.4736
   24CHL1   H7A 1714   3.639   1.050   5.749 -0.6418 -1.2181 -1.3109
   24CHL1   H7B 1715   3.793   1.141   5.718 -1.9841  1.9573  1.3907
   24CHL1    C8 1716   3.793   0.916   5.701 -0.4136  0.1886  0.2920
   24CHL1    H8 1717   3.731   0.830   5.735 -1.2431  0.7057  0.0975
   24CHL1   C14 1718   3.790   0.927   5.547  0.4587  0.2139  0.2336
   24CHL1   H14 1719   3.868   1.003   5.525  2.7866 -1.8474  0.8993
   24CHL1   C15 1720   3.656   0.976   5.479  0.7230  0.2470 -0.7757
   24CHL1  H15A 1721   3.573   0.927   5.535  2.3414 -1.0989  0.5462
   24CHL1  H15B 1722   3.651   1.086   5.487 -0.2165  0.1784 -0.2408
   24CHL1   C16 1723   3.673   0.928   5.332  0.2391 -0.0908 -0.0649
   24CHL1  H16A 1724   3.583   0.868   5.307  0.7130  0.3106 -3.0698
   24CHL1  H16B 1725   3.678   1.018   5.266 -1.4614  0.8920  1.0336
   24CHL1   C17 1726   3.809   0.850   5.332 -0.7032 -0.3592 -0.4413
   24CHL1   H17 1727   3.887   0.927   5.320  0.6850 -1.6317  0.1061
   24CHL1   C13 1728   3.830   0.804   5.473 -0.4184 -0.4814 -0.1134
   24CHL1   C18 1729   3.732   0.691   5.496 -0.2235  0.3443 -0.2110
   24CHL1  H18A 1730   3.757   0.600   5.436  0.9173 -0.4819  1.4421
   24CHL1  H18B 1731   3.721   0.658   5.601  0.7701 -0.6028 -0.3848
   24CHL1  H18C 1732   3.630   0.719   5.462 -0.5050  0.4969  0.7317
   24CHL1   C12 1733   3.973   0.775   5.510 -0.1015  0.1045 -0.1747
   24CHL1  H12A 1734   4.005   0.678   5.467  0.1260 -0.3948  1.0900
   24CHL1  H12B 1735   4.038   0.852   5.463  0.1733 -0.7429 -1.2318
   24CHL1   C11 1736   3.999   0.764   5.657  0.3144  0.2324  0.0623
   24CHL1  H11A 1737   3.956   0.663   5.676 -1.7230  0.6957 -1.7245
   24CHL1  H11B 1738   4.107   0.768   5.680  0.7482  0.2364 -1.8266
   24CHL1    C9 1739   3.937   0.878   5.740 -0.0495  0.4370  0.1382
   24CHL1    H9 1740   3.994   0.971   5.716  0.6774  0.2839  1.2031
   24CHL1   C10 1741   3.950   0.867   5.896 -0.1049  0.6838 -0.3654
   24CHL1   C19 1742   3.890   0.730   5.939 -0.2905  0.0254  0.0845
   24CHL1  H19A 1743   3.784   0.730   5.906  0.3061 -2.7477 -2.2554
   24CHL1  H19B 1744   3.943   0.648   5.885 -1.5203  0.9663 -2.7010
   24CHL1  H19C 1745   3.893   0.714   6.049  1.5908 -3.6369 -0.3258
   24CHL1    C1 1746   4.098   0.869   5.949  0.0899 -0.1906  0.3867
   24CHL1   H1A 1747   4.144   0.770   5.925 -0.2990 -0.0155 -1.2363
   24CHL1   H1B 1748   4.143   0.938   5.874 -0.7228  0.1034  0.1488
   24CHL1    C2 1749   4.125   0.900   6.094 -0.2688  0.6617 -0.1337
   24CHL1   H2A 1750   4.231   0.915   6.122 -0.3570  0.0824  0.5381
   24CHL1   H2B 1751   4.103   0.810   6.155  2.3295 -1.5830 -2.2669
   24CHL1   C20 1752   3.827   0.756   5.218  0.3103 -0.2146  0.1623
   24CHL1   H20 1753   3.914   0.691   5.239 -1.2568 -3.3505 -2.2184
   24CHL1   C21 1754   3.853   0.853   5.099 -0.1923 -0.1406 -0.3037
   24CHL1  H21A 1755   3.759   0.904   5.068 -1.2524 -0.5682  1.9772
   24CHL1  H21B 1756   3.892   0.790   5.016  3.3136  2.5793 -0.9460
   24CHL1  H21C 1757   3.932   0.923   5.132 -0.2001 -1.7293  3.6828
   24CHL1   C22 1758   3.705   0.672   5.181 -0.1011  0.0118 -0.2948
   24CHL1  H22A 1759   3.645   0.627   5.263  0.5702 -0.1309  0.1264
   24CHL1  H22B 1760   3.628   0.726   5.121 -0.4067  1.7919  1.5961
   24CHL1   C23 1761   3.750   0.549   5.099 -0.0851  0.3408  0.0862
   24CHL1  H23A 1762   3.801   0.576   5.004  0.8789  1.5809  0.9061
   24CHL1  H23B 1763   3.831   0.492   5.149 -0.0291  0.4034  0.0672
   24CHL1   C24 1764   3.639   0.454   5.068  0.4705  0.5570 -0.3909
   24CHL1  H24A 1765   3.587   0.422   5.161  0.3183 -1.0847 -1.0137
   24CHL1  H24B 1766   3.560   0.512   5.015  0.2156  0.2280 -0.3777
   24CHL1   C25 1767   3.689   0.337   4.975 -0.6663 -0.3429  0.1234
   24CHL1   H25 1768   3.735   0.377   4.883  0.9686 -2.0061  0.1577
   24CHL1   C26 1769   3.792   0.261   5.054  0.4111  0.9421  0.2545
   24CHL1  H26A 1770   3.885   0.320   5.066  0.6265  0.8487 -0.8615
   24CHL1  H26B 1771   3.745   0.238   5.152 -2.3708  0.5577 -1.0637
   24CHL1  H26C 1772   3.813   0.165   5.002 -0.5525  1.1850 -0.6009
   24CHL1   C27 1773   3.578   0.240   4.925  0.2004  0.2932  0.0924
   24CHL1  H27A 1774   3.495   0.226   4.998  0.4072  3.2266  1.0427
   24CHL1  H27B 1775   3.523   0.296   4.846 -0.2901  0.3457  0.4606
   24CHL1  H27C 1776   3.621   0.149   4.879 -0.8747  0.1331 -0.6367
   25CHL1    C3 1777   0.366   4.252   5.988  0.1428  0.5270  0.2468
   25CHL1    H3 1778   0.360   4.141   5.994 -0.6196  0.5979  1.0538
   25CHL1    O3 1779   0.341   4.311   6.109 -0.2422  0.2454 -0.2654
   25CHL1   H3' 1780   0.406   4.281   6.173  1.4528 -1.3691 -2.5825
   25CHL1    C4 1781   0.495   4.296   5.937 -0.0548 -1.0289 -0.2908
   25CHL1   H4A 1782   0.493   4.406   5.921  1.1821 -1.0697 -0.8560
   25CHL1   H4B 1783   0.573   4.279   6.014  1.5303  1.8520 -1.1231
   25CHL1    C5 1784   0.527   4.237   5.797 -0.0658  0.5612 -0.2198
   25CHL1    C6 1785   0.642   4.165   5.784  0.1372 -0.4376 -0.5202
   25CHL1    H6 1786   0.719   4.161   5.863 -0.9728  0.8618  0.6688
   25CHL1    C7 1787   0.678   4.102   5.654 -0.3100  0.1591 -0.1479
   25CHL1   H7A 1788   0.781   4.129   5.619 -0.1651  0.9119  0.8312
   25CHL1   H7B 1789   0.675   3.991   5.650 -0.2655  0.1926 -2.6868
   25CHL1    C8 1790   0.596   4.154   5.536 -0.5714  1.2543 -0.9767
   25CHL1    H8 1791   0.627   4.258   5.513  2.1588  1.0498  1.2359
   25CHL1   C14 1792   0.618   4.066   5.415 -1.3488  0.2508 -0.4770
   25CHL1   H14 1793   0.579   3.967   5.447  0.5864 -0.2450  0.5524
   25CHL1   C15 1794   0.765   4.050   5.357 -0.2327 -0.0828 -0.4159
   25CHL1  H15A 1795   0.815   4.150   5.360 -1.3630  0.4728  1.2331
   25CHL1  H15B 1796   0.810   3.973   5.422 -1.5511 -2.7831 -2.5143
   25CHL1   C16 1797   0.746   4.000   5.207 -0.2853  0.5514  0.1261
   25CHL1  H16A 1798   0.792   4.070   5.134  1.5492  0.5168  1.1861
   25CHL1  H16B 1799   0.782   3.896   5.197  3.9141  1.8808 -0.7709
   25CHL1   C17 1800   0.599   4.000   5.189  0.0888 -0.9962  1.0547
   25CHL1   H17 1801   0.554   3.905   5.225 -0.5490 -0.6868  1.1011
   25CHL1   C13 1802   0.538   4.110   5.288 -0.0737  0.7987  0.5030
   25CHL1   C18 1803   0.579   4.251   5.233 -0.7567 -0.2131  0.6432
   25CHL1  H18A 1804   0.517   4.280   5.146  0.1942 -1.2930 -0.4212
   25CHL1  H18B 1805   0.580   4.339   5.301  0.5174  0.4796 -0.2261
   25CHL1  H18C 1806   0.680   4.253   5.187 -0.9070 -2.4259  0.1302
   25CHL1   C12 1807   0.387   4.103   5.317 -0.0687  0.1449 -0.2075
   25CHL1  H12A 1808   0.329   4.141   5.230  2.5262  1.5969 -1.4357
   25CHL1  H12B 1809   0.352   4.002   5.345  1.3177 -0.7376 -1.5207
   25CHL1   C11 1810   0.354   4.189   5.443 -0.3719  0.3210  0.0632
   25CHL1  H11A 1811   0.367   4.294   5.407 -0.2960  0.4427  0.4439
   25CHL1  H11B 1812   0.248   4.175   5.474  0.3452  1.3289  3.3441
   25CHL1    C9 1813   0.441   4.155   5.574 -0.0251 -0.0331  0.6973
   25CHL1    H9 1814   0.405   4.052   5.596  1.0108 -0.8547 -1.2603
   25CHL1   C10 1815   0.416   4.259   5.691 -0.0498 -0.6743  0.2449
   25CHL1   C19 1816   0.410   4.408   5.646 -0.1200 -0.0041 -0.2828
   25CHL1  H19A 1817   0.320   4.427   5.583 -0.0524  0.3084 -0.2855
   25CHL1  H19B 1818   0.401   4.475   5.735  2.3016  2.6314 -1.8413
   25CHL1  H19C 1819   0.505   4.440   5.597  2.3087 -1.9718  2.7788
   25CHL1    C1 1820   0.281   4.224   5.755 -0.1159  0.2009 -0.2137
   25CHL1   H1A 1821   0.197   4.252   5.687 -0.8118  2.3768  1.3887
   25CHL1   H1B 1822   0.284   4.115   5.773  1.2391  0.6243  2.5814
   25CHL1    C2 1823   0.247   4.290   5.887 -0.0623  0.1483  0.2015
   25CHL1   H2A 1824   0.155   4.241   5.923 -0.2654 -0.1942 -0.7515
   25CHL1   H2B 1825   0.238   4.401   5.879 -1.6060  0.2251  2.1751
   25CHL1   C20 1826   0.540   4.006   5.044 -0.0603 -0.7087 -0.0699
   25CHL1   H20 1827   0.435   4.041   5.057 -0.3080 -1.4078 -0.1519
   25CHL1   C21 1828   0.531   3.860   5.001  0.4668  0.8160  0.6635
   25CHL1  H21A 1829   0.482   3.853   4.901  1.5164 -0.4672  0.2075
   25CHL1  H21B 1830   0.472   3.802   5.075 -1.5093  1.7066 -0.1222
   25CHL1  H21C 1831   0.639   3.835   4.994  0.9286  3.0330 -2.5944
   25CHL1   C22 1832   0.600   4.086   4.932 -0.5610  0.2738 -0.1653
   25CHL1  H22A 1833   0.652   4.171   4.982  1.1660 -1.0677  0.3969
   25CHL1  H22B 1834   0.686   4.037   4.882  0.3926  2.5161 -0.8894
   25CHL1   C23 1835   0.500   4.155   4.836 -0.5370  0.3212  0.2936
   25CHL1  H23A 1836   0.414   4.088   4.817  0.5621 -1.9270  2.6365
   25CHL1  H23B 1837   0.449   4.244   4.879 -1.3564 -0.7594  1.6514
   25CHL1   C24 1838   0.563   4.176   4.691 -0.2539  0.0884  0.7430
   25CHL1  H24A 1839   0.624   4.085   4.674  1.1812  1.1621 -0.0811
   25CHL1  H24B 1840   0.480   4.175   4.617  1.6171 -1.8117 -1.4759
   25CHL1   C25 1841   0.653   4.296   4.653 -0.3839 -0.1475 -0.6257
   25CHL1   H25 1842   0.589   4.387   4.661  1.8988  1.5799 -0.8529
   25CHL1   C26 1843   0.783   4.319   4.740 -0.3242  0.0817 -0.1948
   25CHL1  H26A 1844   0.859   4.242   4.718 -0.5467  0.1153 -1.1598
   25CHL1  H26B 1845   0.835   4.411   4.705  2.3304 -0.9051  0.9426
   25CHL1  H26C 1846   0.758   4.318   4.848  0.3873 -0.9803 -0.0329
   25CHL1   C27 1847   0.679   4.292   4.503  0.6889  0.4916  0.4677
   25CHL1  H27A 1848   0.716   4.388   4.462 -0.7791 -0.5407 -3.8124
   25CHL1  H27B 1849   0.742   4.205   4.473 -1.3449 -0.7425 -0.4896
   25CHL1  H27C 1850   0.582   4.282   4.450  1.6532  0.5654 -1.3913
   26CHL1    C3 1851   2.789   3.223   6.081  0.5673 -0.0393 -0.4662
   26CHL1    H3 1852   2.857   3.308   6.056  0.6836  0.2489  0.7937
   26CHL1    O3 1853   2.757   3.234   6.215 -0.1632  0.6045 -0.1985
   26CHL1   H3' 1854   2.689   3.167   6.227  0.3658  0.0002 -0.5563
   26CHL1    C4 1855   2.667   3.223   5.988  0.1158 -0.2896 -0.0821
   26CHL1   H4A 1856   2.598   3.143   6.021 -0.9217  0.8819  0.6771
   26CHL1   H4B 1857   2.608   3.316   6.005 -1.5901 -0.9403 -2.0175
   26CHL1    C5 1858   2.699   3.212   5.842 -0.2053 -0.2102  0.5599
   26CHL1    C6 1859   2.666   3.305   5.748  0.2654 -0.8008  0.6086
   26CHL1    H6 1860   2.597   3.387   5.774  0.3017 -0.0705 -1.4049
   26CHL1    C7 1861   2.706   3.294   5.602  0.2071  0.3102  0.2835
   26CHL1   H7A 1862   2.612   3.304   5.545  0.8952 -2.5812 -1.5825
   26CHL1   H7B 1863   2.767   3.381   5.570 -0.7516  0.8167 -0.2006
   26CHL1    C8 1864   2.772   3.165   5.554 -0.4191  0.2612 -0.6482
   26CHL1    H8 1865   2.693   3.089   5.534  0.5792 -1.5127  1.7159
   26CHL1   C14 1866   2.869   3.189   5.435  0.2352 -0.3637  0.5237
   26CHL1   H14 1867   2.949   3.257   5.472 -0.6054 -0.1702  2.0636
   26CHL1   C15 1868   2.804   3.268   5.313  0.3174  0.3542 -0.6853
   26CHL1  H15A 1869   2.701   3.232   5.293  0.1889  0.7023 -0.6509
   26CHL1  H15B 1870   2.815   3.376   5.338 -0.4756  0.7489 -1.9311
   26CHL1   C16 1871   2.885   3.206   5.197  0.0108 -0.4166 -0.1011
   26CHL1  H16A 1872   2.821   3.147   5.128 -1.7821  0.8474  0.4105
   26CHL1  H16B 1873   2.924   3.291   5.136 -0.4854  0.0153  0.1707
   26CHL1   C17 1874   3.000   3.118   5.253  0.4617 -0.1709 -0.1719
   26CHL1   H17 1875   3.074   3.187   5.298  0.8930 -1.6949  1.5622
   26CHL1   C13 1876   2.933   3.063   5.380 -0.3925 -0.1428 -0.3015
   26CHL1   C18 1877   2.827   2.953   5.356 -0.6959  0.6061 -0.1081
   26CHL1  H18A 1878   2.769   2.929   5.448 -0.3177  0.8172  0.1893
   26CHL1  H18B 1879   2.747   2.978   5.283  0.5323  0.0462 -1.7050
   26CHL1  H18C 1880   2.879   2.866   5.310 -1.3530  0.8651 -1.3903
   26CHL1   C12 1881   3.024   3.011   5.491  0.3110  0.2636  0.6381
   26CHL1  H12A 1882   3.057   2.908   5.465  0.6198  0.8412 -1.5207
   26CHL1  H12B 1883   3.114   3.076   5.482  0.7592 -0.6384 -4.1745
   26CHL1   C11 1884   2.963   3.005   5.637  0.5151 -0.0847  0.1357
   26CHL1  H11A 1885   2.905   2.910   5.632 -0.5754  0.5882 -0.4374
   26CHL1  H11B 1886   3.047   2.975   5.702  3.1531 -1.9507 -3.7396
   26CHL1    C9 1887   2.865   3.125   5.672 -0.0184 -0.7332  0.2656
   26CHL1    H9 1888   2.930   3.212   5.691 -2.8557  1.2806  1.5245
   26CHL1   C10 1889   2.797   3.097   5.809 -0.9950 -0.0339 -1.0555
   26CHL1   C19 1890   2.722   2.961   5.802 -0.6132  0.4261  0.3553
   26CHL1  H19A 1891   2.790   2.873   5.796  0.9089  1.2021  3.6361
   26CHL1  H19B 1892   2.636   2.952   5.872 -1.4566  0.0536 -0.6911
   26CHL1  H19C 1893   2.680   2.962   5.699 -0.5599 -3.1869  0.1660
   26CHL1    C1 1894   2.914   3.090   5.914 -0.3534  0.7177 -0.1638
   26CHL1   H1A 1895   2.971   2.995   5.912 -1.1886 -0.0652  3.9683
   26CHL1   H1B 1896   2.978   3.180   5.901 -0.5395  0.8339 -0.2791
   26CHL1    C2 1897   2.873   3.097   6.063  0.2914  0.5088 -0.1790
   26CHL1   H2A 1898   2.950   3.107   6.142 -0.3907  2.3579  0.3172
   26CHL1   H2B 1899   2.813   3.007   6.091 -0.5636  0.6993 -1.2888
   26CHL1   C20 1900   3.066   3.032   5.148  0.2843 -0.3296  0.3408
   26CHL1   H20 1901   3.006   2.938   5.154 -1.2972  0.5350 -1.0523
   26CHL1   C21 1902   3.207   2.998   5.204 -0.0574 -0.3981  0.1431
   26CHL1  H21A 1903   3.263   3.095   5.210 -2.3169  1.1438 -1.8659
   26CHL1  H21B 1904   3.264   2.934   5.134  2.4006  0.5786  1.1158
   26CHL1  H21C 1905   3.199   2.946   5.302  1.0753  1.0232  1.0428
   26CHL1   C22 1906   3.078   3.086   5.001  0.0190 -0.0991 -0.1105
   26CHL1  H22A 1907   2.977   3.118   4.969 -0.0030  1.3173  1.2576
   26CHL1  H22B 1908   3.139   3.178   4.989  0.2537 -0.1630  0.5762
   26CHL1   C23 1909   3.137   2.976   4.913 -0.4682 -0.2503  0.2329
   26CHL1  H23A 1910   3.241   2.948   4.938 -0.5707 -0.6232  0.2519
   26CHL1  H23B 1911   3.068   2.892   4.938 -3.2459  1.5388 -0.9303
   26CHL1   C24 1912   3.125   3.007   4.753  0.1146 -0.2945 -0.5705
   26CHL1  H24A 1913   3.172   2.924   4.696  0.2511  0.0622 -0.9867
   26CHL1  H24B 1914   3.018   3.016   4.724  0.1372  2.5416 -0.0806
   26CHL1   C25 1915   3.187   3.146   4.708 -0.3547  0.3661 -0.1531
   26CHL1   H25 1916   3.122   3.227   4.746  0.9145  2.5069 -2.2433
   26CHL1   C26 1917   3.333   3.166   4.757 -0.0379  0.3094 -0.1414
   26CHL1  H26A 1918   3.357   3.272   4.739  0.6196 -0.1758 -2.3837
   26CHL1  H26B 1919   3.342   3.127   4.861 -0.8429 -1.8779 -0.8265
   26CHL1  H26C 1920   3.408   3.109   4.697 -1.3836 -0.7615 -0.8516
   26CHL1   C27 1921   3.203   3.164   4.558 -0.4621  0.4182  0.3976
   26CHL1  H27A 1922   3.262   3.256   4.540 -0.2907  0.1297 -0.5855
   26CHL1  H27B 1923   3.241   3.070   4.511  0.0546  0.4064  0.8288
   26CHL1  H27C 1924   3.107   3.181   4.506  1.1672  0.4917 -2.8628
   27CHL1    C3 1925   1.737   2.601   6.251 -0.2712 -0.2557 -0.3794
   27CHL1    H3 1926   1.633   2.605   6.212 -0.3996 -1.9441 -0.3150
   27CHL1    O3 1927   1.739   2.609   6.391 -0.1797  0.0749 -1.1347
   27CHL1   H3' 1928   1.831   2.623   6.416 -1.2811  0.8042  3.4237
   27CHL1    C4 1929   1.816   2.473   6.217 -0.2147  0.1653  0.4194
   27CHL1   H4A 1930   1.905   2.478   6.283 -2.2311  2.6192  3.1833
   27CHL1   H4B 1931   1.752   2.389   6.252 -0.0822 -0.7642 -1.4085
   27CHL1    C5 1932   1.836   2.440   6.067 -0.4210  0.2831 -0.0350
   27CHL1    C6 1933   1.787   2.332   6.014 -0.2196 -0.6638 -0.7978
   27CHL1    H6 1934   1.732   2.257   6.072 -3.4653  0.4010 -2.2452
   27CHL1    C7 1935   1.777   2.310   5.863 -0.2498  0.5876  0.1953
   27CHL1   H7A 1936   1.795   2.202   5.843  1.4548  0.8298  0.2584
   27CHL1   H7B 1937   1.673   2.324   5.826  0.1297  2.0356 -0.3900
   27CHL1    C8 1938   1.887   2.396   5.792 -0.7535  0.2783 -0.2938
   27CHL1    H8 1939   1.982   2.347   5.823 -1.0244 -0.7557 -1.0595
   27CHL1   C14 1940   1.871   2.396   5.643  0.2093  0.0467  0.5748
   27CHL1   H14 1941   1.774   2.441   5.610  0.7725 -1.0439 -2.9349
   27CHL1   C15 1942   1.873   2.257   5.574  0.3787 -0.5151 -0.7144
   27CHL1  H15A 1943   1.947   2.192   5.626  1.6031  2.1206  1.0103
   27CHL1  H15B 1944   1.770   2.217   5.587 -0.8243  2.7655  0.8034
   27CHL1   C16 1945   1.901   2.286   5.429  0.1249  0.4741 -0.0466
   27CHL1  H16A 1946   1.974   2.210   5.393 -0.9591 -1.5859  1.8696
   27CHL1  H16B 1947   1.804   2.287   5.376  0.2597 -0.8841 -0.3468
   27CHL1   C17 1948   1.954   2.434   5.418  0.3370 -0.3121 -0.0187
   27CHL1   H17 1949   1.872   2.495   5.374 -0.0128 -0.2954  0.6319
   27CHL1   C13 1950   1.981   2.475   5.568 -0.3931 -0.4386 -0.3622
   27CHL1   C18 1951   2.128   2.432   5.605 -0.2119  0.3292  0.4985
   27CHL1  H18A 1952   2.158   2.333   5.566 -0.1789  1.0315 -1.4041
   27CHL1  H18B 1953   2.190   2.512   5.558 -1.9830  0.8189 -1.1501
   27CHL1  H18C 1954   2.144   2.432   5.715 -1.3594  1.1743  0.6944
   27CHL1   C12 1955   1.972   2.623   5.602  0.4282 -0.8550 -0.6423
   27CHL1  H12A 1956   2.050   2.681   5.547  0.1014  0.2467  0.0100
   27CHL1  H12B 1957   1.877   2.666   5.563 -0.5785 -3.7599 -1.6055
   27CHL1   C11 1958   1.982   2.643   5.763  0.4009  0.6779  0.0824
   27CHL1  H11A 1959   2.088   2.629   5.794  1.1833 -0.2839 -2.7203
   27CHL1  H11B 1960   1.943   2.740   5.800  0.0001 -0.4760  2.9250
   27CHL1    C9 1961   1.896   2.542   5.838  0.4967 -0.1308 -0.2228
   27CHL1    H9 1962   1.789   2.569   5.822  0.2244  0.6684  2.4945
   27CHL1   C10 1963   1.905   2.556   5.994  1.0889  0.2158  0.1590
   27CHL1   C19 1964   2.050   2.555   6.044 -0.3661 -0.7316  0.1479
   27CHL1  H19A 1965   2.096   2.457   6.021  3.9595  0.8859  0.9228
   27CHL1  H19B 1966   2.114   2.633   5.997  2.8705 -1.9070  2.2599
   27CHL1  H19C 1967   2.050   2.581   6.152  2.8275  1.4219 -0.2062
   27CHL1    C1 1968   1.833   2.686   6.038 -0.0007  0.3728 -0.1411
   27CHL1   H1A 1969   1.889   2.776   6.007  0.9622 -0.3279 -0.5098
   27CHL1   H1B 1970   1.732   2.687   5.993  0.6360  1.7960 -1.6002
   27CHL1    C2 1971   1.816   2.716   6.188 -0.1742  0.0296 -0.2872
   27CHL1   H2A 1972   1.775   2.818   6.208  2.8217  0.8013  3.0539
   27CHL1   H2B 1973   1.909   2.712   6.248 -0.0311 -1.0298 -0.5593
   27CHL1   C20 1974   2.064   2.439   5.320 -0.6141  0.2021  0.1545
   27CHL1   H20 1975   2.154   2.389   5.362 -0.4696 -0.2283 -0.6595
   27CHL1   C21 1976   2.101   2.587   5.300  0.5998  0.1494 -0.0072
   27CHL1  H21A 1977   2.008   2.642   5.276  0.0673  0.1302  1.9005
   27CHL1  H21B 1978   2.168   2.606   5.214  0.4305  0.6055 -0.0368
   27CHL1  H21C 1979   2.159   2.624   5.387  0.1748  0.2163  0.2485
   27CHL1   C22 1980   2.021   2.376   5.182 -0.4587 -0.9207  0.1807
   27CHL1  H22A 1981   2.100   2.409   5.111 -0.4826 -1.8712 -0.3066
   27CHL1  H22B 1982   2.019   2.265   5.192 -2.1413 -0.7575  2.4865
   27CHL1   C23 1983   1.897   2.419   5.101 -0.6711  0.5113 -0.6528
   27CHL1  H23A 1984   1.807   2.419   5.167 -0.3552 -0.2504 -0.1991
   27CHL1  H23B 1985   1.911   2.524   5.069 -1.8770  0.3265 -1.8517
   27CHL1   C24 1986   1.867   2.338   4.966 -0.0330  0.6594 -0.0709
   27CHL1  H24A 1987   1.872   2.228   4.977 -1.7598  0.3506 -1.9286
   27CHL1  H24B 1988   1.762   2.360   4.936 -0.0708  0.5729 -0.0017
   27CHL1   C25 1989   1.963   2.366   4.846  0.3574  0.8722  0.4292
   27CHL1   H25 1990   2.059   2.337   4.893 -0.8237 -2.6788  0.9374
   27CHL1   C26 1991   1.933   2.264   4.732  0.5161  0.2753  0.4882
   27CHL1  H26A 1992   2.005   2.294   4.652 -0.1003 -0.9474 -0.5712
   27CHL1  H26B 1993   1.943   2.155   4.753  1.5746  0.1975 -0.2948
   27CHL1  H26C 1994   1.835   2.292   4.689 -0.8387 -0.6124  2.8184
   27CHL1   C27 1995   1.954   2.513   4.806 -0.1608 -0.2103 -0.7874
   27CHL1  H27A 1996   1.865   2.534   4.743 -1.4142  0.8399  1.2416
   27CHL1  H27B 1997   1.970   2.587   4.887  0.8739 -1.7071  0.4399
   27CHL1  H27C 1998   2.040   2.533   4.738  0.4289 -0.5123 -0.1422
   28CHL1    C3 1999   1.110   3.973   6.447 -0.3278 -0.4050  0.2776
   28CHL1    H3 2000   1.149   3.869   6.454 -1.9342 -1.1304 -0.9156
   28CHL1    O3 2001   1.109   4.034   6.574 -0.0284  0.1869  0.4916
   28CHL1   H3' 2002   1.129   4.128   6.563  1.5695  0.1591  2.5253
   28CHL1    C4 2003   1.194   4.063   6.353  0.1873  0.6358  0.4570
   28CHL1   H4A 2004   1.153   4.166   6.360  1.0428  1.0348 -0.1860
   28CHL1   H4B 2005   1.295   4.070   6.399  1.1481 -0.6672 -1.3116
   28CHL1    C5 2006   1.200   4.024   6.211 -0.0993  0.6993  0.4034
   28CHL1    C6 2007   1.318   4.014   6.149  0.4241 -0.1187  1.0696
   28CHL1    H6 2008   1.415   4.031   6.198 -0.0650 -2.4049  2.9842
   28CHL1    C7 2009   1.328   3.965   6.013  0.5851  0.6117 -0.2346
   28CHL1   H7A 2010   1.383   4.045   5.961 -1.2318  1.9941 -0.1378
   28CHL1   H7B 2011   1.396   3.878   6.002 -0.2039 -0.0798  0.2135
   28CHL1    C8 2012   1.192   3.941   5.941  0.8187 -0.5697  1.6054
   28CHL1    H8 2013   1.174   4.044   5.906  1.2462 -0.4566  1.7046
   28CHL1   C14 2014   1.209   3.845   5.814  0.0662  0.6996  0.3481
   28CHL1   H14 2015   1.240   3.747   5.856 -2.0500  0.1605  0.7813
   28CHL1   C15 2016   1.323   3.876   5.714  0.3441 -0.9953 -0.5265
   28CHL1  H15A 2017   1.335   3.983   5.686  0.6928 -1.2644 -1.4294
   28CHL1  H15B 2018   1.416   3.826   5.749 -1.6382 -3.0872  2.1314
   28CHL1   C16 2019   1.281   3.805   5.583 -0.2473  0.4052 -0.4219
   28CHL1  H16A 2020   1.288   3.882   5.503  0.2948  0.1524 -0.6209
   28CHL1  H16B 2021   1.358   3.727   5.569  1.8012  2.2411  0.1000
   28CHL1   C17 2022   1.138   3.750   5.607  0.1418 -0.6290  0.0083
   28CHL1   H17 2023   1.147   3.647   5.647 -2.2571 -0.6783  0.5642
   28CHL1   C13 2024   1.088   3.824   5.733  0.1154 -0.4345  0.1426
   28CHL1   C18 2025   1.035   3.961   5.693 -0.6742 -0.5168  0.4549
   28CHL1  H18A 2026   0.957   3.959   5.614  0.2854 -0.1610 -0.5239
   28CHL1  H18B 2027   0.998   4.017   5.781 -1.8789  1.1434 -1.0328
   28CHL1  H18C 2028   1.122   4.014   5.647 -1.4978  2.0466  1.6765
   28CHL1   C12 2029   0.977   3.757   5.826  0.3360  0.4717  0.2779
   28CHL1  H12A 2030   0.885   3.758   5.764  1.4598 -2.2458 -1.6314
   28CHL1  H12B 2031   1.011   3.652   5.839 -1.2926 -0.1289 -0.1453
   28CHL1   C11 2032   0.957   3.839   5.953 -0.5893 -0.2475 -0.1823
   28CHL1  H11A 2033   0.896   3.929   5.929  2.0119  0.9568 -2.8968
   28CHL1  H11B 2034   0.899   3.774   6.022  2.3626  0.5053  3.3207
   28CHL1    C9 2035   1.089   3.885   6.030 -0.6031 -0.5802  0.7812
   28CHL1    H9 2036   1.129   3.792   6.074  3.4017 -0.2014 -1.5449
   28CHL1   C10 2037   1.063   3.981   6.151 -1.3564  0.3978  1.1117
   28CHL1   C19 2038   0.984   4.097   6.100  0.1081 -0.2494 -0.3756
   28CHL1  H19A 2039   0.877   4.078   6.078 -0.1401  0.4805  0.1735
   28CHL1  H19B 2040   0.975   4.173   6.180 -1.8009  0.3569 -1.1169
   28CHL1  H19C 2041   1.029   4.148   6.012 -0.6876  1.6928  0.2888
   28CHL1    C1 2042   0.977   3.899   6.254  0.0562 -0.2071 -0.3986
   28CHL1   H1A 2043   0.879   3.879   6.207  0.3248  1.2298 -1.6293
   28CHL1   H1B 2044   1.025   3.800   6.271 -3.0539 -1.7931 -0.2214
   28CHL1    C2 2045   0.969   3.968   6.393 -0.4300  0.5787 -0.3287
   28CHL1   H2A 2046   0.900   3.920   6.466  0.7287 -0.3784  0.1674
   28CHL1   H2B 2047   0.938   4.073   6.371  1.5045  1.3663  0.4389
   28CHL1   C20 2048   1.056   3.748   5.476 -0.0645 -0.0402  0.2186
   28CHL1   H20 2049   1.027   3.851   5.446  0.4070  0.3238  0.9816
   28CHL1   C21 2050   0.924   3.672   5.500 -0.6399  0.1408 -0.6589
   28CHL1  H21A 2051   0.937   3.575   5.551 -2.8133 -0.9084 -1.9243
   28CHL1  H21B 2052   0.879   3.645   5.402 -0.9346 -1.8399 -0.0178
   28CHL1  H21C 2053   0.855   3.734   5.562 -1.3318  0.1053 -1.3705
   28CHL1   C22 2054   1.125   3.692   5.360 -0.2806 -0.4241 -0.2272
   28CHL1  H22A 2055   1.221   3.744   5.338 -0.9205 -0.6034 -3.9806
   28CHL1  H22B 2056   1.157   3.587   5.376  0.3470 -0.5239 -1.9818
   28CHL1   C23 2057   1.055   3.706   5.226 -0.0497 -0.5715 -0.1669
   28CHL1  H23A 2058   0.959   3.648   5.226 -1.1963  1.2482 -0.7614
   28CHL1  H23B 2059   1.023   3.811   5.210 -0.5358 -0.5364  0.9302
   28CHL1   C24 2060   1.143   3.665   5.115  0.1999  0.1535 -0.2602
   28CHL1  H24A 2061   1.242   3.711   5.134  1.5881 -1.9570 -2.0162
   28CHL1  H24B 2062   1.179   3.563   5.137 -0.5485 -0.4904 -1.8361
   28CHL1   C25 2063   1.089   3.685   4.968  0.4764  0.2353  0.0081
   28CHL1   H25 2064   1.053   3.790   4.962  0.0101  0.0748 -0.0006
   28CHL1   C26 2065   1.195   3.651   4.875 -0.8564  0.0315  0.3082
   28CHL1  H26A 2066   1.269   3.588   4.929  0.0018  0.1954 -0.6531
   28CHL1  H26B 2067   1.161   3.596   4.784 -1.6012  1.0526 -0.0532
   28CHL1  H26C 2068   1.243   3.743   4.836 -0.4158 -0.9567 -1.6143
   28CHL1   C27 2069   0.976   3.581   4.949 -0.4201 -0.6553  0.1717
   28CHL1  H27A 2070   0.919   3.609   4.858 -0.4661  0.3726  0.5124
   28CHL1  H27B 2071   1.030   3.484   4.944 -0.1350 -0.5033  0.2972
   28CHL1  H27C 2072   0.916   3.564   5.042  0.5650  2.3916  1.4868
   29CHL1    C3 2073   4.110   3.172   2.958  0.4249 -0.5530 -0.2718
   29CHL1    H3 2074   4.004   3.139   2.955 -0.5700  2.4096 -2.4284
   29CHL1    O3 2075   4.161   3.171   2.827  0.3230  0.1723 -0.8387
   29CHL1   H3' 2076   4.257   3.168   2.834  0.1757 -0.2537  2.5860
   29CHL1    C4 2077   4.119   3.317   3.008 -0.4820  0.5206  0.3696
   29CHL1   H4A 2078   4.224   3.354   3.004  0.0366 -0.7820  1.1652
   29CHL1   H4B 2079   4.057   3.379   2.940  1.3508  1.7954 -0.1918
   29CHL1    C5 2080   4.071   3.329   3.154 -0.1744  0.6408  0.5860
   29CHL1    C6 2081   3.972   3.412   3.183  0.4268 -0.9424  0.2183
   29CHL1    H6 2082   3.929   3.475   3.104  0.7884 -1.0823 -0.0886
   29CHL1    C7 2083   3.913   3.429   3.328 -0.1654 -0.1528 -0.0583
   29CHL1   H7A 2084   3.916   3.537   3.352 -0.1158  1.2784 -5.3636
   29CHL1   H7B 2085   3.813   3.382   3.340  0.6992 -1.7281  1.3076
   29CHL1    C8 2086   3.996   3.358   3.434  0.0378  0.1954 -0.8938
   29CHL1    H8 2087   4.086   3.420   3.457  0.6433 -1.0614  0.2631
   29CHL1   C14 2088   3.905   3.337   3.561 -0.0379 -0.4805 -0.0315
   29CHL1   H14 2089   3.823   3.274   3.520 -0.2016  0.9855 -2.0960
   29CHL1   C15 2090   3.830   3.456   3.617 -0.3478  0.2708  0.0756
   29CHL1  H15A 2091   3.888   3.551   3.622  1.0364 -0.5769  1.0379
   29CHL1  H15B 2092   3.746   3.473   3.547  0.8553  3.9560 -0.6760
   29CHL1   C16 2093   3.787   3.396   3.755 -0.1420 -0.5596  0.0511
   29CHL1  H16A 2094   3.816   3.467   3.835 -0.2469  0.1240 -0.5071
   29CHL1  H16B 2095   3.676   3.393   3.760 -0.1321 -0.0508  0.7626
   29CHL1   C17 2096   3.857   3.255   3.777  0.5254  0.1606 -0.2015
   29CHL1   H17 2097   3.778   3.189   3.737 -0.6079  1.2414  0.1981
   29CHL1   C13 2098   3.969   3.257   3.669 -0.1505 -0.1276  1.0917
   29CHL1   C18 2099   4.079   3.340   3.731 -0.1189 -0.6709  0.8041
   29CHL1  H18A 2100   4.124   3.285   3.816  0.8360 -0.6095  0.3596
   29CHL1  H18B 2101   4.167   3.351   3.664 -0.7107 -2.1864 -0.2824
   29CHL1  H18C 2102   4.042   3.441   3.757  0.2357 -0.1862 -0.5096
   29CHL1   C12 2103   4.022   3.121   3.610  0.2611 -0.4083  0.1362
   29CHL1  H12A 2104   4.070   3.056   3.686  1.4883  2.6738  2.1461
   29CHL1  H12B 2105   3.927   3.078   3.571  1.1466 -1.0565 -1.4443
   29CHL1   C11 2106   4.113   3.137   3.488 -0.1640 -0.3612  0.1872
   29CHL1  H11A 2107   4.201   3.195   3.522 -0.0272  1.6205 -3.1232
   29CHL1  H11B 2108   4.133   3.031   3.459 -0.0617 -0.5705  0.9922
   29CHL1    C9 2109   4.046   3.221   3.379 -1.3638  0.3017  0.5718
   29CHL1    H9 2110   3.956   3.161   3.356 -0.2032 -2.4061  2.5243
   29CHL1   C10 2111   4.131   3.234   3.254  0.4131 -0.1702 -0.5480
   29CHL1   C19 2112   4.273   3.289   3.280 -0.2759  0.3311  0.1406
   29CHL1  H19A 2113   4.342   3.215   3.324 -1.5518  0.7113  3.0012
   29CHL1  H19B 2114   4.314   3.346   3.194 -0.7112  1.6523  0.7810
   29CHL1  H19C 2115   4.262   3.365   3.361  0.5309 -0.5037  1.0603
   29CHL1    C1 2116   4.144   3.093   3.188  0.3688 -0.3600  0.2564
   29CHL1   H1A 2117   4.205   3.026   3.252  1.6606 -1.5152 -2.0611
   29CHL1   H1B 2118   4.047   3.039   3.185 -0.1470  0.5726 -0.2295
   29CHL1    C2 2119   4.201   3.091   3.052  0.6951  0.4040 -0.4854
   29CHL1   H2A 2120   4.206   2.987   3.012  0.7195  0.2991 -0.2128
   29CHL1   H2B 2121   4.306   3.127   3.052  1.2530 -1.1084 -1.1931
   29CHL1   C20 2122   3.885   3.217   3.916 -0.0946  0.8156  0.3415
   29CHL1   H20 2123   3.976   3.272   3.950  0.0990  0.9871 -0.4252
   29CHL1   C21 2124   3.911   3.065   3.918  0.6551  0.2308  0.1806
   29CHL1  H21A 2125   3.894   3.025   4.020 -0.5903  0.5936  0.1317
   29CHL1  H21B 2126   4.015   3.041   3.889  1.2480  2.3925  0.3562
   29CHL1  H21C 2127   3.849   3.013   3.842  0.8884 -0.1179  0.2229
   29CHL1   C22 2128   3.774   3.245   4.013  0.4945  0.3383  0.0642
   29CHL1  H22A 2129   3.724   3.341   3.987  0.1529  0.3801  0.8460
   29CHL1  H22B 2130   3.686   3.179   3.998 -1.6907  2.7252  1.5278
   29CHL1   C23 2131   3.819   3.246   4.170 -0.3471 -0.4792 -0.0495
   29CHL1  H23A 2132   3.796   3.141   4.200  0.6203 -0.6285  0.1890
   29CHL1  H23B 2133   3.928   3.256   4.184 -0.1155 -2.4043 -0.1639
   29CHL1   C24 2134   3.737   3.350   4.257 -0.0733  0.3463 -0.1877
   29CHL1  H24A 2135   3.758   3.445   4.202  1.7905 -0.9361 -1.8274
   29CHL1  H24B 2136   3.629   3.325   4.243 -0.3564  1.0730  0.6247
   29CHL1   C25 2137   3.765   3.353   4.406  1.0771  0.7768  0.1158
   29CHL1   H25 2138   3.874   3.339   4.420  1.2238  2.1390  0.4251
   29CHL1   C26 2139   3.729   3.491   4.456 -0.1291  0.6301  0.2572
   29CHL1  H26A 2140   3.797   3.553   4.394 -2.0832  1.2686 -1.3476
   29CHL1  H26B 2141   3.621   3.514   4.438 -0.0297 -0.2279 -1.5987
   29CHL1  H26C 2142   3.755   3.508   4.563  0.4408 -0.0547  0.2333
   29CHL1   C27 2143   3.674   3.246   4.477  0.7025  0.0483 -0.5236
   29CHL1  H27A 2144   3.683   3.150   4.422  1.2253  0.7643 -1.7261
   29CHL1  H27B 2145   3.709   3.242   4.582 -0.9232  0.6836  0.0735
   29CHL1  H27C 2146   3.569   3.280   4.468  0.2740 -1.4080 -1.4911
   30CHL1    C3 2147   2.613   3.429   2.399  0.6223 -0.4447  0.2718
   30CHL1    H3 2148   2.509   3.432   2.437  1.4000  0.8492  2.4870
   30CHL1    O3 2149   2.600   3.391   2.259  0.2403 -0.9637  0.2233
   30CHL1   H3' 2150   2.558   3.305   2.270 -0.8034 -0.2478  2.6060
   30CHL1    C4 2151   2.670   3.570   2.412  0.0889  0.3865 -0.0005
   30CHL1   H4A 2152   2.763   3.592   2.357  0.3868  2.0596  1.0913
   30CHL1   H4B 2153   2.593   3.634   2.363  1.5040  1.4295 -0.9413
   30CHL1    C5 2154   2.669   3.610   2.556 -0.5038  0.6129  0.4547
   30CHL1    C6 2155   2.602   3.716   2.607  0.1920 -0.0626 -0.2786
   30CHL1    H6 2156   2.558   3.790   2.539  2.7580  0.4323 -1.5519
   30CHL1    C7 2157   2.597   3.755   2.750 -0.1801 -0.2654 -0.4270
   30CHL1   H7A 2158   2.624   3.863   2.758  1.6184 -0.5369 -2.0477
   30CHL1   H7B 2159   2.490   3.752   2.780 -0.0539  1.0870  0.2463
   30CHL1    C8 2160   2.702   3.686   2.844  0.0404 -0.2339  0.4452
   30CHL1    H8 2161   2.795   3.744   2.830 -0.0380 -0.7061 -2.7639
   30CHL1   C14 2162   2.676   3.704   2.997 -0.9958  0.5143 -0.5760
   30CHL1   H14 2163   2.582   3.653   3.030  0.5917 -1.0049  1.9959
   30CHL1   C15 2164   2.652   3.846   3.053 -1.0370 -0.3170 -0.6432
   30CHL1  H15A 2165   2.714   3.920   3.000 -2.2272  1.5462  0.4660
   30CHL1  H15B 2166   2.545   3.871   3.034 -1.0736 -1.4414 -2.0972
   30CHL1   C16 2167   2.680   3.834   3.200  0.4202 -0.7519 -0.0977
   30CHL1  H16A 2168   2.749   3.914   3.235  2.5533 -2.2182 -0.6931
   30CHL1  H16B 2169   2.595   3.847   3.269  0.6240 -1.2577  0.2542
   30CHL1   C17 2170   2.737   3.694   3.225  0.4493 -0.2080  0.1985
   30CHL1   H17 2171   2.645   3.636   3.249 -0.2932  0.4978 -0.8661
   30CHL1   C13 2172   2.789   3.649   3.087  0.9143  0.3065  0.0000
   30CHL1   C18 2173   2.924   3.723   3.065  0.8457  0.0076 -0.5516
   30CHL1  H18A 2174   3.002   3.693   3.139 -0.1520 -0.5634  0.2902
   30CHL1  H18B 2175   2.971   3.714   2.964  2.3425 -1.1803  0.1918
   30CHL1  H18C 2176   2.904   3.830   3.087  0.1181  0.1544 -1.8362
   30CHL1   C12 2177   2.799   3.500   3.052 -0.0361  0.5903  0.1334
   30CHL1  H12A 2178   2.880   3.449   3.108  0.3706 -0.7571 -1.5882
   30CHL1  H12B 2179   2.708   3.441   3.076 -0.3966 -0.0734 -2.5345
   30CHL1   C11 2180   2.837   3.481   2.907 -0.8481  0.5937  0.9135
   30CHL1  H11A 2181   2.944   3.509   2.899 -0.0752 -1.9552  1.3750
   30CHL1  H11B 2182   2.833   3.372   2.885 -0.0148  0.6446  0.4580
   30CHL1    C9 2183   2.730   3.540   2.807  0.6606 -0.1350  0.4500
   30CHL1    H9 2184   2.634   3.494   2.838  0.6841  0.3986  1.3530
   30CHL1   C10 2185   2.749   3.514   2.658 -0.0852  0.6068 -0.4458
   30CHL1   C19 2186   2.894   3.543   2.625 -0.8120 -0.5403  0.6369
   30CHL1  H19A 2187   2.915   3.533   2.516 -3.9546  1.4148 -0.2632
   30CHL1  H19B 2188   2.917   3.643   2.668  1.5040 -1.1766  1.0249
   30CHL1  H19C 2189   2.962   3.469   2.672 -0.8892 -0.7547  0.4178
   30CHL1    C1 2190   2.708   3.369   2.622 -0.5111 -0.1455 -0.0965
   30CHL1   H1A 2191   2.773   3.292   2.669 -0.8186 -1.3294 -1.5253
   30CHL1   H1B 2192   2.605   3.358   2.663 -0.1939 -1.7127  0.3575
   30CHL1    C2 2193   2.699   3.328   2.478 -0.1589  0.2963 -0.1246
   30CHL1   H2A 2194   2.647   3.230   2.484  1.9931 -0.8623  0.7473
   30CHL1   H2B 2195   2.800   3.315   2.434 -0.6120 -2.0376 -0.6143
   30CHL1   C20 2196   2.837   3.686   3.347 -0.5254  0.5521 -0.0139
   30CHL1   H20 2197   2.902   3.774   3.328 -1.2124  1.0718 -0.0052
   30CHL1   C21 2198   2.928   3.561   3.356  0.2905  0.6797  0.3796
   30CHL1  H21A 2199   2.998   3.553   3.441  1.1223 -2.0157 -0.4602
   30CHL1  H21B 2200   2.994   3.552   3.266 -3.0671 -1.5115 -2.0928
   30CHL1  H21C 2201   2.861   3.473   3.363 -1.8724  2.2536  0.5129
   30CHL1   C22 2202   2.761   3.706   3.479 -0.0208 -0.6512 -0.3971
   30CHL1  H22A 2203   2.681   3.783   3.474 -0.5847 -1.0381  1.5676
   30CHL1  H22B 2204   2.709   3.610   3.495  0.5018 -0.7425  0.9320
   30CHL1   C23 2205   2.844   3.758   3.596  0.3560  0.3406  0.3701
   30CHL1  H23A 2206   2.922   3.684   3.626 -0.8338 -1.8984 -1.6312
   30CHL1  H23B 2207   2.895   3.849   3.558 -1.1714  1.1018  0.0977
   30CHL1   C24 2208   2.779   3.804   3.725  0.1350 -0.1515 -0.0266
   30CHL1  H24A 2209   2.846   3.872   3.782  1.1691  0.1664 -1.5498
   30CHL1  H24B 2210   2.697   3.876   3.706 -0.2211 -0.2889  0.9399
   30CHL1   C25 2211   2.717   3.687   3.805 -0.2108  0.9208 -0.3665
   30CHL1   H25 2212   2.657   3.637   3.725  1.9326  0.2999 -1.6529
   30CHL1   C26 2213   2.820   3.592   3.862  0.3176 -0.0141 -0.4842
   30CHL1  H26A 2214   2.901   3.641   3.922  1.1953  0.6029 -2.1083
   30CHL1  H26B 2215   2.770   3.511   3.920 -0.6420  0.6322 -0.3839
   30CHL1  H26C 2216   2.869   3.535   3.781  1.6570  0.7146 -0.2188
   30CHL1   C27 2217   2.622   3.727   3.917 -0.1277  0.2303 -0.0084
   30CHL1  H27A 2218   2.595   3.636   3.975 -1.8668  0.6132 -0.1645
   30CHL1  H27B 2219   2.651   3.803   3.993  1.4253  0.9475 -1.2532
   30CHL1  H27C 2220   2.536   3.765   3.858  0.1042 -1.0265 -1.1981
   31CHL1    C3 2221   4.181   1.422   2.847 -0.6359  0.0266 -0.0520
   31CHL1    H3 2222   4.203   1.313   2.844 -0.5103  0.0693 -1.6851
   31CHL1    O3 2223   4.220   1.471   2.722  0.1561 -0.1588  0.3396
   31CHL1   H3' 2224   4.214   1.567   2.718 -1.9851 -0.2544 -0.5135
   31CHL1    C4 2225   4.027   1.434   2.868 -0.8863  0.0173 -0.2348
   31CHL1   H4A 2226   3.994   1.536   2.837 -1.6341  0.2064  1.0723
   31CHL1   H4B 2227   3.992   1.354   2.800 -2.3107  0.9264 -0.6173
   31CHL1    C5 2228   3.982   1.409   3.016  0.6692  0.5519  0.5123
   31CHL1    C6 2229   3.872   1.329   3.039  0.5162  0.4011 -0.0038
   31CHL1    H6 2230   3.826   1.275   2.955  1.1686  0.6804 -0.5594
   31CHL1    C7 2231   3.810   1.305   3.178  0.2790  0.2013  1.2806
   31CHL1   H7A 2232   3.699   1.307   3.177  0.2414 -0.6620 -0.4205
   31CHL1   H7B 2233   3.850   1.206   3.209  0.0952 -0.2553  0.1100
   31CHL1    C8 2234   3.861   1.403   3.282  0.2799  0.3746 -0.2306
   31CHL1    H8 2235   3.806   1.498   3.266  1.4631  0.7721 -2.3649
   31CHL1   C14 2236   3.838   1.334   3.414 -0.3451  0.1113  0.1214
   31CHL1   H14 2237   3.905   1.245   3.411 -0.0828  0.3218 -2.2278
   31CHL1   C15 2238   3.704   1.270   3.447 -0.5632  0.2036  0.1098
   31CHL1  H15A 2239   3.626   1.331   3.397 -1.0593 -0.4211  0.1161
   31CHL1  H15B 2240   3.689   1.166   3.410  0.3965  0.3286 -0.6930
   31CHL1   C16 2241   3.690   1.279   3.599 -0.2310 -0.7103 -0.5011
   31CHL1  H16A 2242   3.611   1.353   3.621  0.0542 -0.8109  0.9555
   31CHL1  H16B 2243   3.658   1.182   3.640  2.0526 -1.5268 -0.4707
   31CHL1   C17 2244   3.821   1.341   3.659 -0.0111 -0.3826  0.1966
   31CHL1   H17 2245   3.892   1.258   3.678  0.5678  0.4999  2.1136
   31CHL1   C13 2246   3.882   1.419   3.539  0.2780  0.6691 -0.3612
   31CHL1   C18 2247   3.809   1.557   3.524  0.4488 -0.0869 -0.6701
   31CHL1  H18A 2248   3.699   1.540   3.523  0.2893  0.7157  0.6429
   31CHL1  H18B 2249   3.820   1.628   3.609 -2.2335 -0.0597 -0.2509
   31CHL1  H18C 2250   3.842   1.607   3.431  2.2515 -0.8590 -0.4969
   31CHL1   C12 2251   4.036   1.442   3.522  0.2081 -0.0257  0.0003
   31CHL1  H12A 2252   4.087   1.497   3.603  0.3413 -0.5468  0.2753
   31CHL1  H12B 2253   4.077   1.338   3.522 -0.1259 -0.2318 -2.3727
   31CHL1   C11 2254   4.076   1.499   3.387 -0.0514  0.1989 -0.0793
   31CHL1  H11A 2255   4.050   1.607   3.392  1.8256  0.6522  0.8041
   31CHL1  H11B 2256   4.187   1.496   3.388 -0.0736 -1.1859  0.0566
   31CHL1    C9 2257   4.017   1.421   3.267 -0.0056  0.1045  0.2816
   31CHL1    H9 2258   4.050   1.316   3.278  0.0551  0.3935  4.1843
   31CHL1   C10 2259   4.064   1.471   3.129  0.3259 -0.2208  0.1330
   31CHL1   C19 2260   4.035   1.623   3.126 -0.3119 -0.0036  0.1325
   31CHL1  H19A 2261   4.104   1.681   3.190  1.7653 -0.7951 -1.2862
   31CHL1  H19B 2262   4.047   1.661   3.022 -2.8481 -1.1872 -0.6781
   31CHL1  H19C 2263   3.928   1.645   3.149 -0.2389  0.5056 -0.0063
   31CHL1    C1 2264   4.217   1.441   3.105  0.0665  0.4804  0.4400
   31CHL1   H1A 2265   4.274   1.495   3.183  0.0976  1.6797 -0.3811
   31CHL1   H1B 2266   4.229   1.332   3.120 -0.4898 -0.1152 -2.7094
   31CHL1    C2 2267   4.265   1.487   2.960 -0.1984  0.2427  0.3200
   31CHL1   H2A 2268   4.374   1.466   2.945 -0.6116 -1.8188 -0.1754
   31CHL1   H2B 2269   4.253   1.597   2.952 -0.5753  0.2181  0.5248
   31CHL1   C20 2270   3.787   1.413   3.789 -0.3609 -0.9452  0.4312
   31CHL1   H20 2271   3.717   1.497   3.773  1.3741  0.7074  1.1336
   31CHL1   C21 2272   3.910   1.475   3.850 -0.2491 -0.6442 -0.8941
   31CHL1  H21A 2273   3.965   1.524   3.767 -1.7722  0.5807 -1.2192
   31CHL1  H21B 2274   3.980   1.401   3.894  2.4404  1.6146 -1.1286
   31CHL1  H21C 2275   3.888   1.559   3.920  1.1454  0.8933 -2.2211
   31CHL1   C22 2276   3.712   1.318   3.883  0.1582 -0.3459 -0.6590
   31CHL1  H22A 2277   3.617   1.270   3.849  0.0269 -0.0951 -0.6479
   31CHL1  H22B 2278   3.779   1.231   3.903 -0.7366 -1.5412 -2.5630
   31CHL1   C23 2279   3.662   1.392   4.001  0.1135 -0.5393  0.1452
   31CHL1  H23A 2280   3.745   1.434   4.062  0.0548  1.0142 -0.7933
   31CHL1  H23B 2281   3.598   1.482   3.986  1.1541  0.5931  2.1244
   31CHL1   C24 2282   3.603   1.300   4.107 -0.3501 -0.7283 -0.4383
   31CHL1  H24A 2283   3.520   1.235   4.071 -0.8679  0.8598 -2.3076
   31CHL1  H24B 2284   3.687   1.232   4.133 -1.1748 -3.0673 -3.3118
   31CHL1   C25 2285   3.546   1.372   4.232 -0.1704  0.3994 -0.1265
   31CHL1   H25 2286   3.629   1.441   4.262  0.7925 -0.8754  0.2230
   31CHL1   C26 2287   3.429   1.462   4.206 -0.5119  1.2213 -0.0561
   31CHL1  H26A 2288   3.415   1.530   4.292 -0.0303 -0.0535  1.0628
   31CHL1  H26B 2289   3.443   1.523   4.114 -0.0574  0.0694 -0.7687
   31CHL1  H26C 2290   3.346   1.391   4.185  1.1497 -0.8582  0.0368
   31CHL1   C27 2291   3.510   1.270   4.345  0.0649 -0.8734  0.6644
   31CHL1  H27A 2292   3.500   1.317   4.445 -1.4413 -0.3600  0.2944
   31CHL1  H27B 2293   3.421   1.211   4.313  0.3805 -0.2155 -1.5938
   31CHL1  H27C 2294   3.592   1.195   4.349  1.4870  0.5566 -0.4267
   32CHL1    C3 2295   1.927   2.867   2.744  0.6850  0.0983 -0.7197
   32CHL1    H3 2296   1.866   2.779   2.773  0.2237  0.0974 -1.6633
   32CHL1    O3 2297   1.930   2.870   2.609  0.5935 -0.0119  0.4215
   32CHL1   H3' 2298   1.837   2.890   2.598  0.3362 -0.7035  1.2473
   32CHL1    C4 2299   1.864   3.000   2.807  0.1351  0.5518 -0.1684
   32CHL1   H4A 2300   1.919   3.093   2.780  1.9483 -0.1061  1.0733
   32CHL1   H4B 2301   1.757   3.010   2.776 -0.5241 -0.9190  1.4283
   32CHL1    C5 2302   1.876   2.996   2.960 -0.6652  0.4935 -0.5282
   32CHL1    C6 2303   1.767   3.018   3.042 -0.5983 -0.7384 -0.2443
   32CHL1    H6 2304   1.672   3.042   2.993 -0.7642 -2.0781 -0.6164
   32CHL1    C7 2305   1.764   3.018   3.192 -0.2324  0.2252  0.0986
   32CHL1   H7A 2306   1.701   3.104   3.222 -3.1413 -0.1082 -4.1866
   32CHL1   H7B 2307   1.716   2.925   3.230  0.0606  0.1148  0.2048
   32CHL1    C8 2308   1.910   3.020   3.249  1.2679  0.4632  0.1528
   32CHL1    H8 2309   1.950   3.122   3.236  2.7090 -0.0696  0.2643
   32CHL1   C14 2310   1.909   2.985   3.403  0.2001 -0.7824  0.1195
   32CHL1   H14 2311   1.886   2.876   3.413  0.4542 -0.8484 -0.0173
   32CHL1   C15 2312   1.806   3.051   3.498 -0.5172  0.0315 -0.2471
   32CHL1  H15A 2313   1.808   3.161   3.488 -1.0843  0.0701  0.0010
   32CHL1  H15B 2314   1.702   3.014   3.480 -0.3848  0.0706 -1.1600
   32CHL1   C16 2315   1.852   3.018   3.634  0.5260  0.2964 -0.5749
   32CHL1  H16A 2316   1.857   3.112   3.693 -1.7829  0.3044 -0.3159
   32CHL1  H16B 2317   1.785   2.944   3.681  1.3007 -2.1019 -3.0074
   32CHL1   C17 2318   2.001   2.958   3.615  0.7277  0.1308 -0.1782
   32CHL1   H17 2319   1.995   2.848   3.628  3.1491  0.2396  3.2122
   32CHL1   C13 2320   2.041   2.990   3.471 -0.2476 -0.5551 -0.4153
   32CHL1   C18 2321   2.097   3.138   3.473 -0.1304 -0.5378  0.9105
   32CHL1  H18A 2322   2.205   3.140   3.499  0.5739  0.6443 -1.7094
   32CHL1  H18B 2323   2.097   3.184   3.372 -1.0848 -2.2289  0.0949
   32CHL1  H18C 2324   2.036   3.206   3.537  1.2229  1.2432  0.3860
   32CHL1   C12 2325   2.142   2.902   3.392 -0.7427 -0.8629 -0.5673
   32CHL1  H12A 2326   2.248   2.919   3.421 -1.2233  1.4865 -0.0145
   32CHL1  H12B 2327   2.100   2.800   3.405 -0.3798 -0.8803  0.5148
   32CHL1   C11 2328   2.143   2.930   3.235  0.5486 -0.7746 -0.4165
   32CHL1  H11A 2329   2.186   3.032   3.227  1.5161 -1.0601  0.7850
   32CHL1  H11B 2330   2.215   2.860   3.186  1.6190  0.2486 -0.3573
   32CHL1    C9 2331   2.005   2.928   3.174  0.1257 -0.6132 -0.0560
   32CHL1    H9 2332   1.961   2.825   3.180 -2.2385  0.1991 -1.7535
   32CHL1   C10 2333   2.011   2.959   3.018  0.0033  0.0568  0.0728
   32CHL1   C19 2334   2.110   3.077   2.995  0.2550  0.2284  0.4682
   32CHL1  H19A 2335   2.213   3.055   3.029 -0.0275 -1.0067  0.5751
   32CHL1  H19B 2336   2.114   3.097   2.886  2.5164 -1.9767  0.0551
   32CHL1  H19C 2337   2.070   3.166   3.049 -0.8208  0.9299 -1.3796
   32CHL1    C1 2338   2.068   2.843   2.947 -0.1093 -0.5986  0.4380
   32CHL1   H1A 2339   2.174   2.821   2.971 -0.5586 -1.3720  1.8264
   32CHL1   H1B 2340   2.006   2.753   2.969 -3.5082  1.3651 -0.3561
   32CHL1    C2 2341   2.066   2.853   2.794  0.0429 -0.4882  0.5017
   32CHL1   H2A 2342   2.111   2.762   2.748  0.1828 -0.2914  0.2522
   32CHL1   H2B 2343   2.120   2.942   2.755 -3.5385  1.8646  0.4765
   32CHL1   C20 2344   2.098   3.009   3.731  0.2890 -0.8285  0.0912
   32CHL1   H20 2345   2.141   3.111   3.720 -0.5969 -0.1696  2.2592
   32CHL1   C21 2346   2.220   2.915   3.726  0.2397 -0.3889  0.2196
   32CHL1  H21A 2347   2.267   2.927   3.626 -2.6532  1.2871 -1.0680
   32CHL1  H21B 2348   2.204   2.807   3.745  1.5598 -0.8551 -1.1165
   32CHL1  H21C 2349   2.292   2.939   3.807  0.0034 -2.6209  1.1756
   32CHL1   C22 2350   2.032   3.015   3.872 -0.3886  0.8606  0.1322
   32CHL1  H22A 2351   2.123   3.029   3.934  0.4584  2.3828 -1.3776
   32CHL1  H22B 2352   1.967   3.106   3.877 -2.6922 -0.7174  0.4075
   32CHL1   C23 2353   1.982   2.876   3.925 -0.6005 -0.0061 -0.1130
   32CHL1  H23A 2354   1.893   2.844   3.867 -0.6942 -0.6787  0.3903
   32CHL1  H23B 2355   2.061   2.799   3.917  2.4466  2.8789 -0.1577
   32CHL1   C24 2356   1.949   2.892   4.078 -0.5629 -0.3944 -0.0934
   32CHL1  H24A 2357   2.028   2.954   4.126 -0.6771 -0.7124  0.5123
   32CHL1  H24B 2358   1.850   2.941   4.085  0.7091  2.2079  1.0692
   32CHL1   C25 2359   1.930   2.755   4.149 -0.2286  0.2590 -0.4139
   32CHL1   H25 2360   2.018   2.691   4.128  0.4894  1.3912 -0.9202
   32CHL1   C26 2361   1.929   2.790   4.307  0.8606 -0.3254  0.2370
   32CHL1  H26A 2362   1.923   2.699   4.371 -0.1421 -0.7934 -0.4964
   32CHL1  H26B 2363   2.012   2.860   4.329  1.4105 -0.6828 -0.6446
   32CHL1  H26C 2364   1.830   2.840   4.318  0.1078 -1.8246  0.5648
   32CHL1   C27 2365   1.802   2.676   4.109  0.3814 -0.2618 -0.2664
   32CHL1  H27A 2366   1.719   2.744   4.136  1.4832  1.6835 -1.5014
   32CHL1  H27B 2367   1.783   2.659   4.001 -0.4515 -1.8567  0.1037
   32CHL1  H27C 2368   1.797   2.582   4.167  0.0541 -1.0949 -1.6014
   33CHL1    C3 2369   5.921   3.395   3.005 -0.1206 -0.0650 -0.2715
   33CHL1    H3 2370   5.981   3.307   3.039  0.5921  0.4824 -0.0784
   33CHL1    O3 2371   5.939   3.391   2.866 -0.0073 -0.6797 -0.1219
   33CHL1   H3' 2372   5.889   3.316   2.834 -1.4602  0.7204 -1.3043
   33CHL1    C4 2373   5.771   3.378   3.045  0.1660  0.1850 -0.1043
   33CHL1   H4A 2374   5.712   3.460   2.999 -1.5742 -0.3571  1.0586
   33CHL1   H4B 2375   5.735   3.278   3.014 -2.5632  0.8147  0.8230
   33CHL1    C5 2376   5.749   3.394   3.197 -0.3001  0.4367  0.2708
   33CHL1    C6 2377   5.686   3.295   3.270  0.0021  0.1322  0.2571
   33CHL1    H6 2378   5.641   3.206   3.224 -1.2060 -0.6759  2.8229
   33CHL1    C7 2379   5.655   3.309   3.416 -0.5493  0.6729  0.1685
   33CHL1   H7A 2380   5.550   3.291   3.447  0.0557 -0.1878  1.8846
   33CHL1   H7B 2381   5.713   3.227   3.464  0.9038  1.6831  0.1838
   33CHL1    C8 2382   5.695   3.448   3.476  0.2788 -0.6070  0.7191
   33CHL1    H8 2383   5.613   3.521   3.464  0.8253  0.1299  1.3931
   33CHL1   C14 2384   5.715   3.441   3.629 -0.3039  0.1982  0.3041
   33CHL1   H14 2385   5.797   3.367   3.647 -1.2285 -0.5483  1.5744
   33CHL1   C15 2386   5.586   3.393   3.694  0.3264  0.3373  0.7626
   33CHL1  H15A 2387   5.501   3.439   3.639  0.9100 -0.5267 -0.9031
   33CHL1  H15B 2388   5.577   3.282   3.697  1.0615  0.2467 -0.1442
   33CHL1   C16 2389   5.605   3.444   3.835  0.1254 -0.1764 -0.0989
   33CHL1  H16A 2390   5.523   3.515   3.854  1.5295  1.2226  0.9453
   33CHL1  H16B 2391   5.603   3.371   3.919  0.0236 -1.2612 -1.0190
   33CHL1   C17 2392   5.739   3.527   3.843  0.0981  0.7229 -0.3773
   33CHL1   H17 2393   5.821   3.455   3.863  0.6160  1.5508  0.5318
   33CHL1   C13 2394   5.758   3.575   3.690  0.4915 -0.7919 -0.1738
   33CHL1   C18 2395   5.648   3.687   3.659  0.9670  0.4284  0.4989
   33CHL1  H18A 2396   5.689   3.783   3.698 -2.2612  2.3702 -0.4358
   33CHL1  H18B 2397   5.621   3.707   3.553 -1.5761  0.5977  1.0965
   33CHL1  H18C 2398   5.559   3.666   3.723  1.4556 -1.3627  0.6358
   33CHL1   C12 2399   5.892   3.622   3.640  0.1587 -0.8730  0.0557
   33CHL1  H12A 2400   5.912   3.723   3.680  1.6182 -0.7301 -0.9508
   33CHL1  H12B 2401   5.981   3.561   3.667  1.4773  1.3493  1.0009
   33CHL1   C11 2402   5.893   3.627   3.484 -0.0138 -0.0055 -1.0413
   33CHL1  H11A 2403   5.827   3.715   3.464 -0.0941  0.3013  0.5039
   33CHL1  H11B 2404   5.993   3.652   3.444  0.4142 -0.9073 -0.5568
   33CHL1    C9 2405   5.822   3.497   3.415 -0.0023  0.1754  0.8590
   33CHL1    H9 2406   5.897   3.418   3.437  0.0504  0.7301  2.8726
   33CHL1   C10 2407   5.816   3.520   3.259 -0.3690  0.4074  0.0424
   33CHL1   C19 2408   5.724   3.633   3.225 -0.3897 -0.1454 -0.2493
   33CHL1  H19A 2409   5.715   3.644   3.115  0.4463 -1.7157 -0.5038
   33CHL1  H19B 2410   5.627   3.621   3.278  0.1104  0.1456  0.7580
   33CHL1  H19C 2411   5.761   3.733   3.255 -0.0791  0.0158 -1.1150
   33CHL1    C1 2412   5.955   3.545   3.205 -0.2100 -0.6489  0.4960
   33CHL1   H1A 2413   5.995   3.643   3.240  0.1872 -0.7702  0.3886
   33CHL1   H1B 2414   6.021   3.469   3.251  2.6013  0.3717 -1.5774
   33CHL1    C2 2415   5.972   3.531   3.052  0.6735 -0.4517 -0.3979
   33CHL1   H2A 2416   6.076   3.548   3.016 -0.1862  0.3140 -2.7297
   33CHL1   H2B 2417   5.922   3.616   3.000 -0.0463 -0.3668  0.4166
   33CHL1   C20 2418   5.749   3.629   3.951  0.0911  0.2530  0.9345
   33CHL1   H20 2419   5.676   3.709   3.924 -0.9337 -1.3990 -1.4995
   33CHL1   C21 2420   5.896   3.667   3.973  0.3070  0.4690  0.3781
   33CHL1  H21A 2421   5.896   3.740   4.057  1.1594  0.3610  0.4822
   33CHL1  H21B 2422   5.939   3.727   3.890 -0.0001  1.5040  0.9539
   33CHL1  H21C 2423   5.967   3.583   3.993  1.8261  0.6621 -3.4004
   33CHL1   C22 2424   5.697   3.573   4.095 -0.1056 -0.1401  0.2053
   33CHL1  H22A 2425   5.682   3.648   4.176 -3.4229 -0.7278  0.2633
   33CHL1  H22B 2426   5.601   3.520   4.078 -0.9633  1.5880 -0.5678
   33CHL1   C23 2427   5.788   3.470   4.164  0.0214 -0.4086 -0.2170
   33CHL1  H23A 2428   5.814   3.390   4.091  0.5069 -1.2351  0.8491
   33CHL1  H23B 2429   5.880   3.523   4.198 -0.3019  0.4963 -0.6988
   33CHL1   C24 2430   5.717   3.411   4.283  0.1067 -0.1529 -0.2342
   33CHL1  H24A 2431   5.718   3.485   4.366  0.9104 -0.3800 -0.0310
   33CHL1  H24B 2432   5.610   3.411   4.253 -0.3618  3.8213  0.8317
   33CHL1   C25 2433   5.774   3.274   4.326  0.0822  0.0435  0.3505
   33CHL1   H25 2434   5.787   3.221   4.230  1.2288  0.6958  0.1248
   33CHL1   C26 2435   5.903   3.295   4.403 -0.0458  0.5087 -0.5444
   33CHL1  H26A 2436   5.937   3.224   4.481  0.9033  1.4500 -0.0834
   33CHL1  H26B 2437   5.981   3.318   4.328 -0.9037  1.7761 -1.0958
   33CHL1  H26C 2438   5.886   3.383   4.469  1.6784  0.2927  0.2267
   33CHL1   C27 2439   5.674   3.193   4.414 -0.2250 -0.7060 -0.3613
   33CHL1  H27A 2440   5.705   3.087   4.404 -0.5449 -0.8002 -0.3674
   33CHL1  H27B 2441   5.686   3.225   4.520 -2.5231 -3.0995  0.7457
   33CHL1  H27C 2442   5.571   3.203   4.374 -1.5132 -1.7506  2.4063
   34CHL1    C3 2443   4.761   4.088   2.938 -0.4485 -0.3836 -0.3270
   34CHL1    H3 2444   4.846   4.157   2.956 -0.1534 -1.3173  2.2871
   34CHL1    O3 2445   4.729   4.085   2.802 -0.1059 -0.4978 -0.4214
   34CHL1   H3' 2446   4.683   4.001   2.794 -2.3657  0.7283 -1.0690
   34CHL1    C4 2447   4.788   3.945   2.999  0.5265 -0.7783 -0.0515
   34CHL1   H4A 2448   4.689   3.897   2.979 -0.1672  1.4027 -2.3502
   34CHL1   H4B 2449   4.868   3.889   2.946  2.1124  3.0459 -2.0741
   34CHL1    C5 2450   4.812   3.951   3.146  0.8477 -0.2128 -0.4849
   34CHL1    C6 2451   4.931   3.919   3.192 -0.1449  0.5387 -0.5995
   34CHL1    H6 2452   5.009   3.871   3.130  1.5443  0.6339  1.3452
   34CHL1    C7 2453   4.951   3.915   3.343 -0.5879 -0.1332  0.0104
   34CHL1   H7A 2454   5.001   3.820   3.373 -1.4872 -0.0784  1.7587
   34CHL1   H7B 2455   5.032   3.983   3.376 -0.2192 -1.7719  2.7569
   34CHL1    C8 2456   4.829   3.944   3.434 -0.5498  0.0065  0.1348
   34CHL1    H8 2457   4.776   3.847   3.440 -0.2650 -0.2192 -0.7310
   34CHL1   C14 2458   4.882   3.984   3.572 -0.1401  0.5193 -0.0454
   34CHL1   H14 2459   4.932   4.083   3.563  0.4033  0.1257 -1.8219
   34CHL1   C15 2460   4.985   3.892   3.639  0.3089  0.3912 -0.1266
   34CHL1  H15A 2461   4.962   3.785   3.626 -0.0773  0.3467  0.8246
   34CHL1  H15B 2462   5.083   3.908   3.589 -0.2509  1.4976 -0.9210
   34CHL1   C16 2463   4.976   3.941   3.786 -0.2473 -0.2729  0.1405
   34CHL1  H16A 2464   4.956   3.859   3.858  0.2875 -1.2506 -0.7774
   34CHL1  H16B 2465   5.072   3.989   3.814  0.0930 -1.3370  0.8894
   34CHL1   C17 2466   4.856   4.046   3.790 -0.2603 -0.2294  0.2653
   34CHL1   H17 2467   4.898   4.148   3.775 -1.7249  0.4344  0.5553
   34CHL1   C13 2468   4.763   4.011   3.673 -0.1386 -0.6493  0.4015
   34CHL1   C18 2469   4.686   3.887   3.693 -0.4209  0.1629  0.3629
   34CHL1  H18A 2470   4.604   3.908   3.766  0.0838  0.2533  0.9054
   34CHL1  H18B 2471   4.632   3.852   3.602 -0.6787  0.5979  0.3481
   34CHL1  H18C 2472   4.754   3.808   3.731  0.0300  0.2092 -0.3293
   34CHL1   C12 2473   4.680   4.127   3.606  0.0811 -0.3635 -0.0268
   34CHL1  H12A 2474   4.597   4.148   3.677  0.8436  0.6290  0.6001
   34CHL1  H12B 2475   4.732   4.225   3.621  3.8029 -2.2672  0.8019
   34CHL1   C11 2476   4.629   4.096   3.467 -0.2600 -0.3658 -0.1878
   34CHL1  H11A 2477   4.543   4.026   3.474 -3.2641  2.9551 -0.8881
   34CHL1  H11B 2478   4.588   4.186   3.416  1.0893 -0.4349 -1.4701
   34CHL1    C9 2479   4.737   4.051   3.370 -0.0913  0.1128 -0.6273
   34CHL1    H9 2480   4.823   4.122   3.361  1.3432 -1.7119 -2.0820
   34CHL1   C10 2481   4.699   4.027   3.229  0.3116  0.5109 -0.5841
   34CHL1   C19 2482   4.573   3.928   3.231  0.2488  0.3886 -0.2201
   34CHL1  H19A 2483   4.593   3.863   3.319 -1.8639  1.8500  1.4657
   34CHL1  H19B 2484   4.479   3.987   3.237  1.7473  2.9319 -0.4781
   34CHL1  H19C 2485   4.554   3.866   3.141 -0.2562  0.4286 -0.1446
   34CHL1    C1 2486   4.663   4.155   3.160 -0.4192 -0.1694 -1.2678
   34CHL1   H1A 2487   4.571   4.206   3.196  0.7049  0.0928  1.4626
   34CHL1   H1B 2488   4.742   4.230   3.180 -3.3564  2.7767  0.2581
   34CHL1    C2 2489   4.643   4.149   3.009  0.0848  0.2433 -0.6330
   34CHL1   H2A 2490   4.616   4.248   2.968 -2.2789  0.4503  1.1694
   34CHL1   H2B 2491   4.544   4.100   2.996 -0.3770  1.4697 -1.9651
   34CHL1   C20 2492   4.790   4.048   3.924 -0.0317  0.2380 -0.4342
   34CHL1   H20 2493   4.709   3.973   3.931 -0.3888  0.7604  1.9476
   34CHL1   C21 2494   4.722   4.189   3.931 -0.2577 -0.4430  0.7372
   34CHL1  H21A 2495   4.659   4.194   4.023  0.1565  0.5813  0.9840
   34CHL1  H21B 2496   4.659   4.217   3.844 -1.3176 -1.8420  1.0208
   34CHL1  H21C 2497   4.799   4.269   3.944  1.7767 -2.2377  0.1938
   34CHL1   C22 2498   4.880   4.014   4.048 -0.4193 -0.2968 -0.1197
   34CHL1  H22A 2499   4.808   4.003   4.132  0.9746 -0.9587  1.0242
   34CHL1  H22B 2500   4.932   3.915   4.044 -0.8561 -0.5308 -3.8341
   34CHL1   C23 2501   4.992   4.116   4.085  0.4769 -0.5956  0.0563
   34CHL1  H23A 2502   5.068   4.125   4.005  0.7958  0.7994  0.5016
   34CHL1  H23B 2503   4.946   4.216   4.101 -0.0754 -0.8666  0.2032
   34CHL1   C24 2504   5.073   4.079   4.206  0.1572  0.3210 -0.1820
   34CHL1  H24A 2505   5.000   4.057   4.286 -0.3895 -2.4629 -1.3340
   34CHL1  H24B 2506   5.121   3.982   4.180 -0.3727  0.4419 -1.7015
   34CHL1   C25 2507   5.168   4.192   4.254  0.0984  0.0989  0.1642
   34CHL1   H25 2508   5.127   4.293   4.234 -0.6449 -0.4654 -1.3181
   34CHL1   C26 2509   5.197   4.184   4.406 -0.1607 -0.2881  0.0023
   34CHL1  H26A 2510   5.099   4.201   4.456 -0.1671  0.8154 -0.3702
   34CHL1  H26B 2511   5.222   4.076   4.419 -3.2996 -1.0503  0.7119
   34CHL1  H26C 2512   5.273   4.257   4.439 -0.5395 -0.1006  0.4699
   34CHL1   C27 2513   5.299   4.173   4.178 -0.1797  0.6502  0.5964
   34CHL1  H27A 2514   5.385   4.237   4.206  2.1867 -2.6844  1.6203
   34CHL1  H27B 2515   5.345   4.072   4.180  0.2946  0.7985 -1.1027
   34CHL1  H27C 2516   5.281   4.187   4.069  1.5158 -1.2838 -0.0086
   35CHL1    C3 2517   1.369   4.886   2.967 -0.6775 -0.1275  0.0608
   35CHL1    H3 2518   1.315   4.792   2.993  0.5441 -1.0173 -0.5133
   35CHL1    O3 2519   1.358   4.905   2.828 -0.0870  0.3545 -0.6389
   35CHL1   H3' 2520   1.359   4.813   2.801 -1.9854  0.5376 -1.5156
   35CHL1    C4 2521   1.288   4.985   3.051  1.1514  0.3500 -0.7807
   35CHL1   H4A 2522   1.313   5.090   3.024 -2.1666  1.4736 -0.0139
   35CHL1   H4B 2523   1.183   4.966   3.019  1.2016 -1.5906  0.0681
   35CHL1    C5 2524   1.303   4.974   3.203  0.2513 -0.4978  0.4447
   35CHL1    C6 2525   1.190   4.974   3.278 -0.3220  0.2825  0.1568
   35CHL1    H6 2526   1.097   4.963   3.221 -0.0167  1.9101 -0.7334
   35CHL1    C7 2527   1.199   4.980   3.425 -0.1910  0.1056  0.6366
   35CHL1   H7A 2528   1.143   5.072   3.451 -1.0676  0.4223 -2.0250
   35CHL1   H7B 2529   1.150   4.896   3.479 -0.1003 -0.5387 -0.2550
   35CHL1    C8 2530   1.342   4.999   3.480  0.9900  0.3167  0.7600
   35CHL1    H8 2531   1.367   5.106   3.469  1.9557 -0.0084 -0.4125
   35CHL1   C14 2532   1.347   4.969   3.627  0.7272 -0.3786  0.0746
   35CHL1   H14 2533   1.327   4.861   3.645 -1.7326  0.0237  0.0150
   35CHL1   C15 2534   1.241   5.040   3.713 -0.0809 -0.3380 -0.2079
   35CHL1  H15A 2535   1.229   5.150   3.702 -1.2630 -0.2545  1.6126
   35CHL1  H15B 2536   1.141   4.993   3.716 -0.8408  1.2546  1.1037
   35CHL1   C16 2537   1.307   5.010   3.852  0.4076  0.7704  0.4437
   35CHL1  H16A 2538   1.301   5.103   3.913 -2.7723  0.9741 -0.0048
   35CHL1  H16B 2539   1.253   4.927   3.902 -0.8241  0.5558 -1.1541
   35CHL1   C17 2540   1.449   4.956   3.830 -0.2353 -0.7344 -0.3023
   35CHL1   H17 2541   1.446   4.845   3.830 -1.7525 -0.7246  1.0596
   35CHL1   C13 2542   1.479   4.997   3.685 -1.0809  0.0092 -1.0310
   35CHL1   C18 2543   1.522   5.140   3.683 -0.1961  0.0997 -0.2793
   35CHL1  H18A 2544   1.531   5.172   3.577 -1.5779  0.4286 -0.3174
   35CHL1  H18B 2545   1.442   5.206   3.724 -1.1705 -0.6189 -0.9823
   35CHL1  H18C 2546   1.617   5.148   3.740 -1.0757 -2.7014  1.7840
   35CHL1   C12 2547   1.582   4.902   3.615 -0.4652 -0.3459  0.2716
   35CHL1  H12A 2548   1.681   4.910   3.664 -0.1854  1.7219 -0.5294
   35CHL1  H12B 2549   1.553   4.797   3.638  2.4971 -1.0268  1.3502
   35CHL1   C11 2550   1.591   4.918   3.460  0.3914  0.0413  0.3308
   35CHL1  H11A 2551   1.642   5.016   3.443 -2.7348  1.7109 -0.1289
   35CHL1  H11B 2552   1.641   4.825   3.425  0.9117 -0.5975  2.5991
   35CHL1    C9 2553   1.448   4.925   3.400  0.4374  0.2643  0.2113
   35CHL1    H9 2554   1.408   4.821   3.404 -0.8835  0.6720 -1.3205
   35CHL1   C10 2555   1.446   4.964   3.250  0.0909  0.3262  0.6571
   35CHL1   C19 2556   1.513   5.100   3.227  0.1564 -0.2594 -0.8424
   35CHL1  H19A 2557   1.622   5.093   3.249  0.2386  0.9196 -0.7759
   35CHL1  H19B 2558   1.514   5.135   3.122  1.4031 -0.2971 -0.8630
   35CHL1  H19C 2559   1.470   5.172   3.300  1.2327 -1.1417  0.7307
   35CHL1    C1 2560   1.524   4.855   3.169 -0.4896 -1.0826  0.0398
   35CHL1   H1A 2561   1.632   4.858   3.194 -0.8642 -0.5319  1.7307
   35CHL1   H1B 2562   1.487   4.755   3.200 -2.5596 -1.0254 -1.9400
   35CHL1    C2 2563   1.515   4.867   3.016  0.4855 -0.3702  0.1703
   35CHL1   H2A 2564   1.559   4.778   2.965 -0.5895 -0.0630 -1.3670
   35CHL1   H2B 2565   1.577   4.957   2.997  0.5573 -0.2279  1.0252
   35CHL1   C20 2566   1.548   4.972   3.949 -0.0247 -0.0110 -0.1624
   35CHL1   H20 2567   1.644   4.936   3.904 -0.3073 -1.3184  0.2554
   35CHL1   C21 2568   1.492   4.881   4.060 -0.1965 -0.0712 -0.1275
   35CHL1  H21A 2569   1.554   4.894   4.151 -1.1544  2.9118  0.2071
   35CHL1  H21B 2570   1.494   4.774   4.030  0.3810  0.6290 -2.8773
   35CHL1  H21C 2571   1.390   4.920   4.082  0.1577  1.3328 -0.8734
   35CHL1   C22 2572   1.564   5.115   4.006 -0.4110  0.5470  0.2360
   35CHL1  H22A 2573   1.555   5.198   3.932  0.6809 -0.4100 -1.0149
   35CHL1  H22B 2574   1.487   5.139   4.083 -0.7227  0.0499  0.0825
   35CHL1   C23 2575   1.709   5.131   4.060  0.2860  0.6771  0.5309
   35CHL1  H23A 2576   1.718   5.060   4.146  1.7096 -1.4682 -1.2707
   35CHL1  H23B 2577   1.773   5.099   3.975 -1.8553 -2.5322 -0.0663
   35CHL1   C24 2578   1.748   5.270   4.102 -0.1837 -0.4868 -0.2256
   35CHL1  H24A 2579   1.744   5.330   4.009  0.7805  0.3456  0.2497
   35CHL1  H24B 2580   1.680   5.307   4.181  0.3906  2.7606 -1.0967
   35CHL1   C25 2581   1.896   5.294   4.154  1.4108 -0.3471  0.3755
   35CHL1   H25 2582   1.905   5.404   4.143  0.1726 -0.3405 -0.7535
   35CHL1   C26 2583   1.900   5.244   4.294  0.6774  0.2271  0.2407
   35CHL1  H26A 2584   1.829   5.299   4.359 -0.0245 -0.0993 -0.2483
   35CHL1  H26B 2585   1.874   5.136   4.294 -2.0415  0.7929 -0.9799
   35CHL1  H26C 2586   2.000   5.261   4.340 -0.2320  2.3167  1.6146
   35CHL1   C27 2587   2.005   5.231   4.070 -0.0055 -1.5404 -0.0964
   35CHL1  H27A 2588   1.999   5.121   4.088 -1.6075 -1.5485 -0.5123
   35CHL1  H27B 2589   1.996   5.258   3.962  1.1410  0.8279  0.3441
   35CHL1  H27C 2590   2.105   5.265   4.103 -0.9194 -0.4359  1.6972
   36CHL1    C3 2591   4.270   5.158   2.697  0.0157 -0.1463  0.1182
   36CHL1    H3 2592   4.367   5.185   2.745  0.5241  0.1470 -1.0411
   36CHL1    O3 2593   4.289   5.187   2.560  0.4293  0.4364  0.1393
   36CHL1   H3' 2594   4.201   5.202   2.525  0.1329 -1.0483  0.1696
   36CHL1    C4 2595   4.239   5.011   2.715  0.6194  0.1216 -0.0058
   36CHL1   H4A 2596   4.150   4.987   2.654  1.2562 -2.4693 -0.0374
   36CHL1   H4B 2597   4.326   4.955   2.675  1.7652  1.0766  1.0517
   36CHL1    C5 2598   4.228   4.975   2.861 -0.2481  1.0488 -0.0112
   36CHL1    C6 2599   4.315   4.891   2.929  0.1116  0.9690 -0.4410
   36CHL1    H6 2600   4.391   4.837   2.871  0.6546 -1.2456  2.0958
   36CHL1    C7 2601   4.292   4.842   3.067  0.6063  0.1960  0.1172
   36CHL1   H7A 2602   4.288   4.731   3.061  2.5685  0.1094 -0.1324
   36CHL1   H7B 2603   4.372   4.876   3.136  0.9263 -1.4353  0.5921
   36CHL1    C8 2604   4.154   4.893   3.129  0.6490 -0.2207 -0.3029
   36CHL1    H8 2605   4.071   4.823   3.105  2.5493 -2.7111 -0.1311
   36CHL1   C14 2606   4.164   4.895   3.284 -0.3823 -0.0499 -0.1568
   36CHL1   H14 2607   4.243   4.969   3.312 -0.1401 -0.0914 -0.6968
   36CHL1   C15 2608   4.208   4.764   3.354 -0.2865 -0.4830  0.7217
   36CHL1  H15A 2609   4.147   4.678   3.320 -1.2447  1.1368 -1.9685
   36CHL1  H15B 2610   4.316   4.739   3.341 -0.1515 -0.5266  1.8394
   36CHL1   C16 2611   4.175   4.785   3.498 -0.4624  0.3791  0.0888
   36CHL1  H16A 2612   4.114   4.701   3.536  0.5013  0.3016  1.5547
   36CHL1  H16B 2613   4.259   4.799   3.568 -0.9690  2.8210  0.3247
   36CHL1   C17 2614   4.089   4.916   3.507  0.3354  1.0603 -0.0972
   36CHL1   H17 2615   4.153   5.005   3.525  0.6765  0.5930  1.0873
   36CHL1   C13 2616   4.042   4.941   3.365  0.0073  0.6046  0.4216
   36CHL1   C18 2617   3.931   4.836   3.340  0.1414 -0.1280 -0.1166
   36CHL1  H18A 2618   3.928   4.803   3.234  0.9319 -0.7333  0.0420
   36CHL1  H18B 2619   3.922   4.744   3.402 -2.1326 -0.9434 -1.5378
   36CHL1  H18C 2620   3.834   4.887   3.358  0.5440  0.4609  0.4373
   36CHL1   C12 2621   4.000   5.084   3.316  0.0791 -0.2965 -0.1976
   36CHL1  H12A 2622   3.900   5.118   3.350 -0.4179 -2.0414  0.1398
   36CHL1  H12B 2623   4.081   5.155   3.344 -1.5784  1.6916 -0.1626
   36CHL1   C11 2624   3.994   5.099   3.162 -0.2714  0.0811 -0.3653
   36CHL1  H11A 2625   3.903   5.041   3.136 -1.6789  0.7830  2.4924
   36CHL1  H11B 2626   3.981   5.206   3.136  3.3846  0.6203 -0.5216
   36CHL1    C9 2627   4.117   5.036   3.083 -0.2075 -0.2630 -0.2230
   36CHL1    H9 2628   4.201   5.101   3.118 -1.3249  1.1593 -0.1102
   36CHL1   C10 2629   4.110   5.054   2.928 -0.9719  0.7505  0.4300
   36CHL1   C19 2630   3.976   4.998   2.869 -0.2095  0.6686  0.7407
   36CHL1  H19A 2631   3.952   4.894   2.901  0.5090 -0.3507 -1.7224
   36CHL1  H19B 2632   3.892   5.063   2.901 -1.9941 -1.5134  0.7560
   36CHL1  H19C 2633   3.969   5.005   2.758 -0.2976 -3.1426  0.3522
   36CHL1    C1 2634   4.128   5.207   2.898 -0.5419  0.4431 -0.2860
   36CHL1   H1A 2635   4.036   5.261   2.927 -0.5114 -0.0511  0.7962
   36CHL1   H1B 2636   4.215   5.250   2.953 -2.0878  3.7604 -0.2171
   36CHL1    C2 2637   4.152   5.239   2.749  0.0419 -0.1631 -0.3821
   36CHL1   H2A 2638   4.175   5.345   2.725  3.2756 -0.9358 -1.1657
   36CHL1   H2B 2639   4.059   5.215   2.693  0.5804 -1.1582 -0.8777
   36CHL1   C20 2640   3.989   4.914   3.623 -0.2841 -0.6113 -0.2394
   36CHL1   H20 2641   3.901   4.848   3.610 -0.0425 -0.9764 -0.0146
   36CHL1   C21 2642   3.911   5.053   3.639 -0.3909  0.0122 -0.2461
   36CHL1  H21A 2643   3.991   5.122   3.672 -1.2328  0.2383  1.3869
   36CHL1  H21B 2644   3.846   5.036   3.727  1.7091 -2.4210  0.9355
   36CHL1  H21C 2645   3.860   5.097   3.550 -0.5744  2.9437  1.1939
   36CHL1   C22 2646   4.050   4.865   3.761 -0.1831 -0.0992  0.3493
   36CHL1  H22A 2647   4.092   4.763   3.745  2.3144  0.8941  0.1526
   36CHL1  H22B 2648   4.135   4.932   3.787  0.9233 -1.7681  1.2786
   36CHL1   C23 2649   3.949   4.860   3.884 -0.3263 -0.5173  0.6871
   36CHL1  H23A 2650   3.899   4.958   3.897  0.8416  0.3314 -0.8975
   36CHL1  H23B 2651   3.869   4.788   3.855 -0.8543 -0.2005  1.3157
   36CHL1   C24 2652   4.012   4.828   4.017  0.0847  0.0910 -0.8477
   36CHL1  H24A 2653   4.084   4.745   4.002  2.7115  1.4329  2.7156
   36CHL1  H24B 2654   4.066   4.921   4.045  0.6232  0.5882 -3.3102
   36CHL1   C25 2655   3.915   4.799   4.139  0.1224 -0.1945  0.3353
   36CHL1   H25 2656   3.876   4.699   4.114  2.1279 -0.8129 -0.5333
   36CHL1   C26 2657   3.997   4.810   4.261  0.1854  0.5111 -0.8552
   36CHL1  H26A 2658   4.020   4.914   4.293  0.7459  0.2862 -0.4945
   36CHL1  H26B 2659   3.928   4.766   4.336 -1.1141 -0.0378 -2.3082
   36CHL1  H26C 2660   4.090   4.749   4.260  0.0409  0.2241  0.7186
   36CHL1   C27 2661   3.785   4.883   4.142  0.6029 -0.2351  0.7777
   36CHL1  H27A 2662   3.818   4.987   4.161  1.1871 -0.4830  1.1473
   36CHL1  H27B 2663   3.722   4.865   4.052  2.1477 -0.6487 -0.2648
   36CHL1  H27C 2664   3.723   4.838   4.223  1.9683 -2.7124  0.5459
   37CHL1    C3 2665   1.264   4.170   2.924  0.5183 -0.4529  0.2012
   37CHL1    H3 2666   1.217   4.070   2.923 -1.0209  0.0316  4.3554
   37CHL1    O3 2667   1.275   4.206   2.785 -0.7206 -0.3894  0.1976
   37CHL1   H3' 2668   1.351   4.263   2.778 -1.2662  0.2079 -1.2383
   37CHL1    C4 2669   1.163   4.261   2.989  0.5299 -0.3309 -0.4137
   37CHL1   H4A 2670   1.198   4.365   2.975  0.6011 -0.6985 -3.5708
   37CHL1   H4B 2671   1.072   4.237   2.929  1.1766 -1.0666 -1.1149
   37CHL1    C5 2672   1.144   4.228   3.140  0.0093 -0.2142 -0.4924
   37CHL1    C6 2673   1.022   4.207   3.189 -0.4121  1.0326 -0.9307
   37CHL1    H6 2674   0.934   4.232   3.129 -0.1193  0.0480 -1.7854
   37CHL1    C7 2675   1.001   4.197   3.340 -0.2082  0.2299  0.3904
   37CHL1   H7A 2676   0.922   4.269   3.369 -2.0120 -2.2112  1.9184
   37CHL1   H7B 2677   0.963   4.094   3.352  2.5815 -0.9329  0.0188
   37CHL1    C8 2678   1.129   4.222   3.421  0.2210  0.1097 -0.1656
   37CHL1    H8 2679   1.126   4.329   3.450 -0.7621 -0.3359  1.5213
   37CHL1   C14 2680   1.118   4.158   3.560  0.6012  0.3403  0.4386
   37CHL1   H14 2681   1.118   4.050   3.532 -0.7576  0.9502 -2.1330
   37CHL1   C15 2682   0.989   4.175   3.638  0.5304 -0.0438  0.0344
   37CHL1  H15A 2683   0.954   4.280   3.636 -0.0678 -0.2145  0.9567
   37CHL1  H15B 2684   0.912   4.105   3.600 -0.4578  1.7385 -1.3512
   37CHL1   C16 2685   1.037   4.144   3.783 -0.4134 -0.0554 -0.2070
   37CHL1  H16A 2686   1.020   4.241   3.834  0.0321 -0.7822  1.3951
   37CHL1  H16B 2687   0.976   4.064   3.830 -1.4742  1.2701  0.7439
   37CHL1   C17 2688   1.188   4.116   3.780  0.3262  0.4038 -0.4402
   37CHL1   H17 2689   1.195   4.008   3.755  0.1397 -0.1301  1.6611
   37CHL1   C13 2690   1.236   4.187   3.650 -0.1120  0.1805  0.6231
   37CHL1   C18 2691   1.242   4.343   3.683 -0.3631 -0.6620  0.1337
   37CHL1  H18A 2692   1.145   4.380   3.722 -0.5122  1.6123 -2.1703
   37CHL1  H18B 2693   1.324   4.365   3.755  1.5524  0.0219 -2.1019
   37CHL1  H18C 2694   1.273   4.395   3.590  1.6242 -1.2986  0.3862
   37CHL1   C12 2695   1.361   4.130   3.593 -0.8932 -0.0344  0.4765
   37CHL1  H12A 2696   1.454   4.161   3.646 -0.0592  0.2245 -1.0658
   37CHL1  H12B 2697   1.362   4.019   3.587  1.3704 -0.0038 -1.6072
   37CHL1   C11 2698   1.380   4.189   3.449 -0.2116  0.4594 -0.0593
   37CHL1  H11A 2699   1.410   4.296   3.457 -2.1605  1.1052 -0.7622
   37CHL1  H11B 2700   1.469   4.135   3.408  0.4396  0.6147  1.1201
   37CHL1    C9 2701   1.260   4.173   3.358 -0.2735  0.2083  0.2672
   37CHL1    H9 2702   1.240   4.065   3.345 -0.8782  0.4482 -0.8953
   37CHL1   C10 2703   1.283   4.229   3.216  0.6655 -0.2358  0.5303
   37CHL1   C19 2704   1.335   4.382   3.232  0.0284  0.5351 -0.0624
   37CHL1  H19A 2705   1.306   4.444   3.144  0.2004 -0.2777 -0.7116
   37CHL1  H19B 2706   1.281   4.425   3.319  0.9512 -0.2783  0.9335
   37CHL1  H19C 2707   1.441   4.392   3.262  0.3371 -2.3208  0.0698
   37CHL1    C1 2708   1.390   4.138   3.147  0.6299 -0.0282  0.0257
   37CHL1   H1A 2709   1.491   4.157   3.190  1.5417 -0.4725 -1.8177
   37CHL1   H1B 2710   1.357   4.032   3.156  0.3150  0.1718  1.6025
   37CHL1    C2 2711   1.400   4.157   2.994  0.2297 -0.3569  0.1177
   37CHL1   H2A 2712   1.454   4.070   2.951  1.0709 -0.4977  1.4135
   37CHL1   H2B 2713   1.460   4.249   2.978 -0.3236 -0.1049 -0.5814
   37CHL1   C20 2714   1.260   4.141   3.919 -0.1960  0.1728 -0.3320
   37CHL1   H20 2715   1.241   4.249   3.936 -3.0707 -0.5888  2.1446
   37CHL1   C21 2716   1.410   4.104   3.912 -0.2978  1.0648 -0.1414
   37CHL1  H21A 2717   1.431   4.011   3.855  0.1887  0.4982  0.9517
   37CHL1  H21B 2718   1.444   4.078   4.014  0.3336 -1.8165 -0.9810
   37CHL1  H21C 2719   1.468   4.191   3.874 -2.0351  2.8463  1.0511
   37CHL1   C22 2720   1.198   4.054   4.038 -0.1119  0.0325  0.0541
   37CHL1  H22A 2721   1.088   4.047   4.023 -0.5170  0.5161  2.4635
   37CHL1  H22B 2722   1.241   3.952   4.024 -1.5280 -0.5027 -0.6178
   37CHL1   C23 2723   1.226   4.100   4.179  0.1174 -0.2593 -0.0023
   37CHL1  H23A 2724   1.188   4.020   4.247 -0.8851 -0.9870 -1.3814
   37CHL1  H23B 2725   1.336   4.110   4.189  0.1043 -0.4611  0.3483
   37CHL1   C24 2726   1.177   4.243   4.216 -0.7522 -0.2403 -0.9148
   37CHL1  H24A 2727   1.203   4.254   4.324 -2.5992 -0.4890 -0.4082
   37CHL1  H24B 2728   1.233   4.311   4.149  2.9937 -1.3859  0.7969
   37CHL1   C25 2729   1.017   4.253   4.206  0.4445 -0.0503 -0.2405
   37CHL1   H25 2730   1.006   4.220   4.101 -2.0295  0.4523 -0.1920
   37CHL1   C26 2731   0.932   4.165   4.301 -0.5599  0.0516  0.1920
   37CHL1  H26A 2732   0.825   4.155   4.275 -0.2125 -1.0788 -0.8797
   37CHL1  H26B 2733   0.982   4.066   4.306  0.4970  0.3358 -2.5433
   37CHL1  H26C 2734   0.931   4.207   4.404 -3.1637  1.3197 -0.2783
   37CHL1   C27 2735   0.963   4.387   4.219 -0.0569 -0.3595  0.3066
   37CHL1  H27A 2736   0.854   4.399   4.200  0.0682 -1.7295 -1.5969
   37CHL1  H27B 2737   0.987   4.438   4.314  0.2228  1.7643 -0.8292
   37CHL1  H27C 2738   1.016   4.456   4.149  1.6774 -1.7086  0.2299
   38CHL1    C3 2739   1.891   5.086   2.826 -0.6314 -0.0959  0.7696
   38CHL1    H3 2740   1.786   5.075   2.859 -0.8396  0.3842  0.2849
   38CHL1    O3 2741   1.902   5.120   2.687 -1.0365 -0.1654 -0.4905
   38CHL1   H3' 2742   1.887   5.039   2.638 -0.4638 -2.2988  2.5777
   38CHL1    C4 2743   1.946   5.211   2.907  0.3320  0.3227  0.5509
   38CHL1   H4A 2744   2.043   5.248   2.866 -0.5209 -0.5131 -2.4546
   38CHL1   H4B 2745   1.859   5.277   2.888 -0.9995 -1.1731  1.2896
   38CHL1    C5 2746   1.965   5.174   3.056 -0.4784 -0.0132  0.0453
   38CHL1    C6 2747   1.916   5.253   3.152 -0.2626 -0.6560  0.4621
   38CHL1    H6 2748   1.864   5.348   3.131 -1.3017 -1.1094  0.9265
   38CHL1    C7 2749   1.924   5.225   3.298  0.2608  0.1431 -0.3592
   38CHL1   H7A 2750   1.949   5.324   3.344  0.7116 -0.2878  0.3483
   38CHL1   H7B 2751   1.824   5.185   3.326  0.5362 -0.5580 -0.3706
   38CHL1    C8 2752   2.025   5.115   3.332 -1.3773  0.4055  0.3644
   38CHL1    H8 2753   2.126   5.161   3.337 -1.6047  0.8097  1.6790
   38CHL1   C14 2754   1.982   5.058   3.463  0.5681 -0.2935 -0.0759
   38CHL1   H14 2755   1.892   4.994   3.453 -0.1230  0.5312  0.7058
   38CHL1   C15 2756   1.949   5.151   3.586 -0.4183  0.0641  0.5670
   38CHL1  H15A 2757   2.026   5.230   3.593  2.1492 -2.4015  2.3954
   38CHL1  H15B 2758   1.854   5.205   3.567  0.2020  0.7972 -0.5641
   38CHL1   C16 2759   1.961   5.058   3.711 -0.0853 -0.0180  0.3164
   38CHL1  H16A 2760   2.046   5.098   3.770  0.0893 -1.5309  1.1299
   38CHL1  H16B 2761   1.875   5.046   3.781  0.2820 -0.7002  0.6588
   38CHL1   C17 2762   2.009   4.919   3.655  0.3520 -0.0385 -0.0005
   38CHL1   H17 2763   1.915   4.863   3.635  0.1641 -0.2934  1.5160
   38CHL1   C13 2764   2.075   4.947   3.519 -0.4263 -0.5347  0.2964
   38CHL1   C18 2765   2.220   5.003   3.532  0.3564  0.0758  0.4885
   38CHL1  H18A 2766   2.290   4.923   3.562  1.1854 -0.1779 -1.8766
   38CHL1  H18B 2767   2.265   5.051   3.442  1.2905 -1.7625 -0.0647
   38CHL1  H18C 2768   2.218   5.084   3.608 -1.7322  1.6871 -1.1557
   38CHL1   C12 2769   2.088   4.827   3.418 -0.4041  1.2335 -0.3636
   38CHL1  H12A 2770   2.171   4.758   3.445 -1.1279  1.1266  1.8094
   38CHL1  H12B 2771   1.994   4.770   3.436 -0.3243  0.3891 -2.3966
   38CHL1   C11 2772   2.099   4.874   3.275  0.2951  0.7495  0.6327
   38CHL1  H11A 2773   2.207   4.892   3.258 -0.0970  0.8955 -1.9861
   38CHL1  H11B 2774   2.078   4.786   3.211 -0.4826  0.2459  1.5403
   38CHL1    C9 2775   2.011   4.997   3.235  0.0042 -0.0560  0.3004
   38CHL1    H9 2776   1.907   4.961   3.248 -0.3780  1.4132  1.6101
   38CHL1   C10 2777   2.028   5.034   3.087  0.6801 -0.3421  0.0160
   38CHL1   C19 2778   2.179   5.049   3.058 -0.4296  0.4998 -0.0898
   38CHL1  H19A 2779   2.229   5.119   3.128  1.0063  0.6557 -1.2251
   38CHL1  H19B 2780   2.242   4.959   3.040 -1.8327 -0.7428  0.8732
   38CHL1  H19C 2781   2.195   5.095   2.958  1.6056 -0.9922 -0.5076
   38CHL1    C1 2782   1.971   4.924   2.991  0.2901  0.1255 -0.1318
   38CHL1   H1A 2783   2.017   4.823   3.001  4.1080  1.8447  2.0175
   38CHL1   H1B 2784   1.862   4.924   3.012  0.4749  0.4543  0.9062
   38CHL1    C2 2785   1.971   4.961   2.845 -0.2928  0.1201 -0.2836
   38CHL1   H2A 2786   1.936   4.873   2.788  0.8542 -0.5324 -0.0162
   38CHL1   H2B 2787   2.079   4.986   2.830 -0.1303 -0.4361 -0.0934
   38CHL1   C20 2788   2.082   4.837   3.759 -0.3595  0.1095  0.5204
   38CHL1   H20 2789   2.166   4.898   3.801 -2.7229  2.6965  1.8314
   38CHL1   C21 2790   2.139   4.711   3.703  0.0097 -0.3625 -0.1591
   38CHL1  H21A 2791   2.064   4.639   3.663 -0.0962 -0.0917 -0.4559
   38CHL1  H21B 2792   2.196   4.661   3.784 -0.0428  0.2234  0.2420
   38CHL1  H21C 2793   2.220   4.733   3.630 -0.7529  1.4412 -0.5181
   38CHL1   C22 2794   1.998   4.801   3.888  0.3831 -0.0123  0.3114
   38CHL1  H22A 2795   1.968   4.896   3.938  0.0450 -1.1622  2.4261
   38CHL1  H22B 2796   1.904   4.749   3.861 -0.9927  2.2222  0.5357
   38CHL1   C23 2797   2.067   4.721   3.999 -0.2397  0.6750  0.0340
   38CHL1  H23A 2798   2.099   4.622   3.959  0.2140  0.9609 -0.3224
   38CHL1  H23B 2799   2.163   4.771   4.025 -0.0305 -0.4029  1.5148
   38CHL1   C24 2800   1.979   4.696   4.124 -0.0484 -0.5484 -0.3416
   38CHL1  H24A 2801   1.884   4.653   4.086  0.7994 -0.9539 -2.1180
   38CHL1  H24B 2802   2.024   4.619   4.190  2.5561  0.1624 -1.1464
   38CHL1   C25 2803   1.948   4.811   4.226  0.0616  0.7336 -0.5374
   38CHL1   H25 2804   1.941   4.904   4.166  2.3280  1.5688  0.3796
   38CHL1   C26 2805   1.816   4.775   4.297  0.1591  0.1332  0.0157
   38CHL1  H26A 2806   1.726   4.778   4.231 -1.1335  2.6246  1.7126
   38CHL1  H26B 2807   1.829   4.682   4.356 -0.7975 -2.1664 -3.1603
   38CHL1  H26C 2808   1.799   4.859   4.368  0.5240 -0.7723  1.1946
   38CHL1   C27 2809   2.061   4.830   4.336 -0.3071 -1.3989  0.1877
   38CHL1  H27A 2810   2.085   4.738   4.392  1.3529 -0.8685  0.4171
   38CHL1  H27B 2811   2.158   4.857   4.287 -1.1917 -2.1910 -2.1231
   38CHL1  H27C 2812   2.030   4.912   4.405 -1.9437 -1.7655 -0.0904
   39CHL1    C3 2813   6.304   3.588   2.840  1.4631 -0.5508  0.5169
   39CHL1    H3 2814   6.197   3.560   2.829  1.2240  0.9276 -1.4105
   39CHL1    O3 2815   6.341   3.609   2.703 -0.0357 -0.5446  0.4021
   39CHL1   H3' 2816   6.428   3.648   2.703 -1.2237  2.3075  0.7418
   39CHL1    C4 2817   6.326   3.722   2.916  0.4332 -0.3977  0.3070
   39CHL1   H4A 2818   6.425   3.758   2.881 -0.5971  0.2537 -2.1178
   39CHL1   H4B 2819   6.252   3.796   2.879 -0.3201 -1.2309  0.1084
   39CHL1    C5 2820   6.330   3.712   3.065  0.8692  0.0416 -0.3242
   39CHL1    C6 2821   6.247   3.787   3.141  0.5705  0.8105  0.5925
   39CHL1    H6 2822   6.190   3.866   3.089  1.0928  0.0701 -1.1981
   39CHL1    C7 2823   6.242   3.796   3.288 -0.7423 -0.4276 -0.7392
   39CHL1   H7A 2824   6.249   3.898   3.331  1.4192 -0.8843  0.0833
   39CHL1   H7B 2825   6.144   3.766   3.330 -1.0350 -1.4071 -2.0355
   39CHL1    C8 2826   6.353   3.707   3.354 -0.2197  0.0741  0.0876
   39CHL1    H8 2827   6.444   3.768   3.342 -0.2807  0.5195  1.6775
   39CHL1   C14 2828   6.335   3.675   3.499  0.2094 -0.4359 -0.0765
   39CHL1   H14 2829   6.244   3.611   3.506  0.9564 -1.4101  0.9763
   39CHL1   C15 2830   6.284   3.790   3.589 -0.0010  0.5727  0.1323
   39CHL1  H15A 2831   6.345   3.881   3.571 -0.4704  0.9771  0.5603
   39CHL1  H15B 2832   6.176   3.816   3.582  0.4044  2.2611 -0.4452
   39CHL1   C16 2833   6.305   3.727   3.732  0.0373  0.1145  0.6071
   39CHL1  H16A 2834   6.343   3.811   3.795 -0.0645  0.5558  0.0887
   39CHL1  H16B 2835   6.208   3.705   3.782  0.9925 -1.5624  1.8390
   39CHL1   C17 2836   6.382   3.598   3.714  0.0315 -0.4020 -0.3282
   39CHL1   H17 2837   6.305   3.518   3.714  0.4495 -0.8391  1.3002
   39CHL1   C13 2838   6.442   3.599   3.573  0.4110  0.2949 -0.2585
   39CHL1   C18 2839   6.576   3.688   3.570 -0.1416  0.6350 -0.2473
   39CHL1  H18A 2840   6.610   3.725   3.471 -0.1434 -1.5301 -1.1087
   39CHL1  H18B 2841   6.556   3.768   3.644 -0.1415  1.4436 -1.1065
   39CHL1  H18C 2842   6.653   3.620   3.614  0.7624  2.7445  1.6303
   39CHL1   C12 2843   6.455   3.464   3.495  0.0391 -0.3897  0.1663
   39CHL1  H12A 2844   6.536   3.404   3.541 -0.6895 -0.6959  1.0814
   39CHL1  H12B 2845   6.361   3.406   3.505  1.3983 -2.2431  4.8358
   39CHL1   C11 2846   6.486   3.486   3.348  0.2966  0.6605 -0.2070
   39CHL1  H11A 2847   6.581   3.541   3.333  0.3157 -0.0031 -3.1710
   39CHL1  H11B 2848   6.484   3.392   3.289 -1.4535 -0.7179  1.9257
   39CHL1    C9 2849   6.374   3.573   3.278 -0.5190  0.3641  0.6364
   39CHL1    H9 2850   6.281   3.511   3.282 -1.1765  1.2035 -0.7655
   39CHL1   C10 2851   6.403   3.592   3.126 -0.1542  0.4944 -0.1873
   39CHL1   C19 2852   6.556   3.630   3.108  0.2569 -0.6398 -0.5895
   39CHL1  H19A 2853   6.568   3.684   3.011  1.6392  1.3656  0.6178
   39CHL1  H19B 2854   6.597   3.690   3.192 -2.1757  1.8752 -1.0461
   39CHL1  H19C 2855   6.624   3.542   3.102  2.0357  0.6382 -0.1702
   39CHL1    C1 2856   6.365   3.463   3.054  0.0276  0.0074 -0.0184
   39CHL1   H1A 2857   6.437   3.384   3.086 -1.4420 -1.1832  0.4827
   39CHL1   H1B 2858   6.263   3.428   3.079 -0.8826  2.2298 -0.4467
   39CHL1    C2 2859   6.375   3.468   2.895 -0.1324  0.1295  0.7682
   39CHL1   H2A 2860   6.339   3.376   2.844 -1.5038  0.8314  0.4136
   39CHL1   H2B 2861   6.484   3.477   2.873 -0.0745  0.4953  1.2007
   39CHL1   C20 2862   6.472   3.560   3.836  0.2734 -0.3735  1.0357
   39CHL1   H20 2863   6.559   3.630   3.830  0.5850 -0.8540 -0.7220
   39CHL1   C21 2864   6.528   3.423   3.814  0.7756  0.2204 -0.1086
   39CHL1  H21A 2865   6.585   3.382   3.900 -1.6951 -3.5124 -0.0207
   39CHL1  H21B 2866   6.611   3.420   3.740  2.9018  0.0771  2.1238
   39CHL1  H21C 2867   6.442   3.354   3.795 -1.8007  3.4144 -0.8492
   39CHL1   C22 2868   6.406   3.580   3.974 -0.2971  0.0402 -0.9442
   39CHL1  H22A 2869   6.484   3.545   4.045  1.1378  0.9640 -2.0214
   39CHL1  H22B 2870   6.386   3.689   3.984  1.7140  0.5706 -2.1359
   39CHL1   C23 2871   6.281   3.497   4.000  1.2975  0.2200  0.6443
   39CHL1  H23A 2872   6.199   3.539   3.938 -0.8115 -1.1507  2.3435
   39CHL1  H23B 2873   6.295   3.393   3.963  1.6517  0.4145  0.2298
   39CHL1   C24 2874   6.231   3.521   4.145 -0.3912  0.5331 -1.0880
   39CHL1  H24A 2875   6.238   3.631   4.157 -0.5763  0.6261 -1.7716
   39CHL1  H24B 2876   6.132   3.478   4.172 -0.2137  2.0200  2.5189
   39CHL1   C25 2877   6.325   3.468   4.261  0.4523 -0.5774  0.1274
   39CHL1   H25 2878   6.415   3.529   4.238 -1.4356  2.5226  0.4812
   39CHL1   C26 2879   6.273   3.515   4.397 -0.6305  0.7745 -0.0904
   39CHL1  H26A 2880   6.362   3.530   4.462 -0.4710 -1.5480  0.3012
   39CHL1  H26B 2881   6.216   3.610   4.390  2.2912  2.5283 -3.8073
   39CHL1  H26C 2882   6.216   3.432   4.443  1.2772 -0.2244  0.5919
   39CHL1   C27 2883   6.337   3.316   4.257  0.3403  0.2113  0.6660
   39CHL1  H27A 2884   6.396   3.285   4.168 -0.6517 -1.3509  0.5060
   39CHL1  H27B 2885   6.395   3.264   4.336  0.9658  0.2870  0.2654
   39CHL1  H27C 2886   6.243   3.257   4.245  1.1829 -0.6274 -3.2071
   40CHL1    C3 2887   6.569   0.962   2.621  0.2781  0.4392  0.3621
   40CHL1    H3 2888   6.467   0.995   2.654  0.7752  0.3749  2.0609
   40CHL1    O3 2889   6.574   0.923   2.486  0.3731 -0.4227 -0.7581
   40CHL1   H3' 2890   6.537   0.835   2.484 -0.2027 -0.1817 -2.6250
   40CHL1    C4 2891   6.663   1.081   2.644  0.7914 -0.0103 -0.3127
   40CHL1   H4A 2892   6.758   1.053   2.594  1.5531 -1.2551  1.6877
   40CHL1   H4B 2893   6.614   1.163   2.588 -0.2420 -1.0572 -1.0137
   40CHL1    C5 2894   6.677   1.119   2.790  0.4286  0.1869  0.1510
   40CHL1    C6 2895   6.655   1.241   2.846  0.0613  0.4141 -0.0903
   40CHL1    H6 2896   6.611   1.318   2.780 -0.2675 -0.6713 -1.1672
   40CHL1    C7 2897   6.670   1.272   2.990 -1.1745  0.2099  0.0680
   40CHL1   H7A 2898   6.718   1.371   3.002 -0.3173 -0.3553  1.5720
   40CHL1   H7B 2899   6.572   1.284   3.039  0.3085 -0.2556  3.4014
   40CHL1    C8 2900   6.752   1.163   3.069  0.4713  0.8679 -0.0259
   40CHL1    H8 2901   6.862   1.173   3.061  1.1889 -1.2345  4.2061
   40CHL1   C14 2902   6.712   1.188   3.211 -0.1938 -0.4288  0.0945
   40CHL1   H14 2903   6.603   1.169   3.219 -0.3356  0.5313  0.6324
   40CHL1   C15 2904   6.732   1.325   3.274  0.0550 -0.3320 -0.4925
   40CHL1  H15A 2905   6.826   1.374   3.245 -0.7719  0.5268 -1.8101
   40CHL1  H15B 2906   6.649   1.396   3.251  2.2429  3.0500  1.2695
   40CHL1   C16 2907   6.751   1.293   3.428  0.5765 -0.5913  0.2942
   40CHL1  H16A 2908   6.847   1.332   3.467  0.4447 -0.0159  0.0597
   40CHL1  H16B 2909   6.670   1.346   3.483  0.1991  0.0306 -0.8166
   40CHL1   C17 2910   6.721   1.143   3.439  0.3720  0.1703 -0.3319
   40CHL1   H17 2911   6.611   1.143   3.432  0.4135  1.1362 -1.1614
   40CHL1   C13 2912   6.773   1.085   3.305 -1.1719  0.0324 -0.0322
   40CHL1   C18 2913   6.930   1.099   3.303  0.0957 -0.0922 -0.9733
   40CHL1  H18A 2914   6.972   1.054   3.396  1.4953  3.2472  0.1699
   40CHL1  H18B 2915   6.986   1.064   3.214  3.8548  0.8471  0.7954
   40CHL1  H18C 2916   6.953   1.207   3.312 -2.0469  0.4087 -0.8953
   40CHL1   C12 2917   6.715   0.946   3.269 -0.0622  0.1514 -0.0124
   40CHL1  H12A 2918   6.779   0.881   3.333 -1.4344 -1.2094  0.0147
   40CHL1  H12B 2919   6.609   0.936   3.299  0.8978 -1.7551  3.3443
   40CHL1   C11 2920   6.742   0.912   3.122  0.1193  0.0570 -1.0305
   40CHL1  H11A 2921   6.850   0.893   3.102  0.0809 -2.1939  0.6148
   40CHL1  H11B 2922   6.695   0.813   3.104 -0.6431  0.3481 -0.6713
   40CHL1    C9 2923   6.697   1.024   3.030  0.2995 -0.4114  0.0612
   40CHL1    H9 2924   6.588   1.043   3.040  0.4588  0.2641  0.5318
   40CHL1   C10 2925   6.716   0.989   2.881  0.0672  0.0296 -0.0902
   40CHL1   C19 2926   6.863   0.955   2.840  0.5769  0.2347 -0.5080
   40CHL1  H19A 2927   6.871   0.928   2.732 -0.1466  1.6822 -0.9514
   40CHL1  H19B 2928   6.939   1.034   2.862 -0.1576  0.4119  1.5252
   40CHL1  H19C 2929   6.895   0.866   2.899 -1.3455 -1.0272 -1.2600
   40CHL1    C1 2930   6.628   0.862   2.854 -0.3543 -0.2973  0.5558
   40CHL1   H1A 2931   6.675   0.776   2.906  0.9507 -0.7157 -1.2006
   40CHL1   H1B 2932   6.529   0.872   2.904 -0.9869  1.3052 -0.8884
   40CHL1    C2 2933   6.597   0.832   2.703  0.3783  0.1509  0.4477
   40CHL1   H2A 2934   6.511   0.762   2.700  1.9755 -1.9642  0.5268
   40CHL1   H2B 2935   6.690   0.786   2.662  0.7443  1.5252 -0.3399
   40CHL1   C20 2936   6.770   1.084   3.572 -0.0686  1.1252  0.1904
   40CHL1   H20 2937   6.878   1.062   3.582 -0.1018  1.3278  1.1181
   40CHL1   C21 2938   6.689   0.952   3.605 -0.6157  0.0100  0.2712
   40CHL1  H21A 2939   6.686   0.879   3.521 -2.2271 -0.6821  0.8822
   40CHL1  H21B 2940   6.582   0.977   3.625 -0.1506  1.2464  1.3492
   40CHL1  H21C 2941   6.718   0.904   3.700  1.6767  2.1234  0.7374
   40CHL1   C22 2942   6.768   1.179   3.690  0.6066 -0.7495  0.7025
   40CHL1  H22A 2943   6.841   1.261   3.677 -0.1993 -0.3302 -1.6212
   40CHL1  H22B 2944   6.667   1.226   3.695  1.6765  1.6865  0.8493
   40CHL1   C23 2945   6.800   1.124   3.827  0.1286 -0.7715 -0.0360
   40CHL1  H23A 2946   6.712   1.063   3.857  0.2668 -1.3353 -0.7463
   40CHL1  H23B 2947   6.885   1.053   3.815 -0.5556 -1.6488  0.2156
   40CHL1   C24 2948   6.838   1.230   3.931  0.1560 -0.0720 -0.1727
   40CHL1  H24A 2949   6.922   1.288   3.888 -1.7280  1.3854 -2.0861
   40CHL1  H24B 2950   6.749   1.294   3.947  0.7270  1.1067 -1.4897
   40CHL1   C25 2951   6.874   1.172   4.069  0.1147  0.1342 -0.4261
   40CHL1   H25 2952   6.792   1.106   4.104 -0.9654  1.4177 -0.4563
   40CHL1   C26 2953   6.994   1.086   4.065 -0.7552  0.1070 -0.4335
   40CHL1  H26A 2954   7.013   1.034   4.162  2.3221 -0.5604 -1.3080
   40CHL1  H26B 2955   6.982   1.011   3.984  2.9406  0.8719 -1.8572
   40CHL1  H26C 2956   7.087   1.142   4.044 -0.3032 -0.3374  0.3289
   40CHL1   C27 2957   6.889   1.292   4.166 -0.0436  0.2674  0.5876
   40CHL1  H27A 2958   6.793   1.348   4.174 -0.4620 -0.4923  0.9877
   40CHL1  H27B 2959   6.918   1.265   4.270 -2.2886  2.1153  1.8010
   40CHL1  H27C 2960   6.967   1.356   4.119 -1.4509  4.3297  3.3028
   41CHL1    C3 2961   3.579   4.041   2.649 -0.0076 -0.3290  0.5060
   41CHL1    H3 2962   3.621   3.942   2.678 -1.0196 -0.9192  0.0001
   41CHL1    O3 2963   3.610   4.076   2.511 -0.2307  0.0646 -0.1541
   41CHL1   H3' 2964   3.552   4.146   2.481 -0.2975  0.3186  0.5646
   41CHL1    C4 2965   3.430   4.046   2.678  0.6887  0.0581 -0.5414
   41CHL1   H4A 2966   3.399   4.148   2.645  1.1634  0.3454 -0.1078
   41CHL1   H4B 2967   3.386   3.968   2.612  0.9604 -0.6865  0.1381
   41CHL1    C5 2968   3.395   4.020   2.821  0.6966 -0.6233 -0.4833
   41CHL1    C6 2969   3.308   3.926   2.860  0.4611  0.1241 -0.6826
   41CHL1    H6 2970   3.269   3.858   2.782 -0.4576 -0.2214  0.0580
   41CHL1    C7 2971   3.271   3.897   3.004  0.4077 -0.6790  0.0403
   41CHL1   H7A 2972   3.163   3.873   3.017  0.3077  0.0287  0.5315
   41CHL1   H7B 2973   3.322   3.805   3.041  1.9039  0.3679  0.6683
   41CHL1    C8 2974   3.315   4.018   3.099  0.3655 -0.2869 -0.2503
   41CHL1    H8 2975   3.248   4.102   3.072  3.5134  1.8819 -2.0509
   41CHL1   C14 2976   3.284   3.974   3.246 -0.3311  0.8251  0.4130
   41CHL1   H14 2977   3.341   3.881   3.264 -1.3458  0.3167  1.1160
   41CHL1   C15 2978   3.137   3.932   3.281 -0.1828 -0.1061 -0.1398
   41CHL1  H15A 2979   3.054   3.998   3.248 -1.5639 -0.1558  2.9672
   41CHL1  H15B 2980   3.111   3.829   3.247 -0.8628 -0.6533  1.9082
   41CHL1   C16 2981   3.138   3.940   3.430 -0.2696 -0.2336  0.0231
   41CHL1  H16A 2982   3.058   4.005   3.470 -0.6530 -0.4074 -0.4568
   41CHL1  H16B 2983   3.133   3.848   3.492  0.5431  0.1730  0.7193
   41CHL1   C17 2984   3.275   4.003   3.479 -0.2675 -0.0038 -0.4164
   41CHL1   H17 2985   3.349   3.921   3.489 -1.9813 -1.4121  2.0409
   41CHL1   C13 2986   3.319   4.078   3.349 -0.6279 -0.0234  0.6831
   41CHL1   C18 2987   3.233   4.210   3.333 -0.1551 -0.2963 -0.0214
   41CHL1  H18A 2988   3.254   4.258   3.234 -2.3475 -2.5314 -1.6957
   41CHL1  H18B 2989   3.127   4.179   3.343 -0.0384 -1.3818 -1.6682
   41CHL1  H18C 2990   3.249   4.279   3.418 -0.0457 -2.1554  1.5151
   41CHL1   C12 2991   3.468   4.112   3.322 -0.4192 -0.1608 -1.2304
   41CHL1  H12A 2992   3.486   4.204   3.381  0.7503 -2.2582  1.9526
   41CHL1  H12B 2993   3.520   4.020   3.354 -1.7409 -0.7679 -0.7621
   41CHL1   C11 2994   3.522   4.148   3.181  0.3134 -0.9170  0.9695
   41CHL1  H11A 2995   3.489   4.251   3.159  2.4513 -0.4580 -0.4217
   41CHL1  H11B 2996   3.631   4.139   3.161  0.1966  0.3075 -0.3586
   41CHL1    C9 2997   3.456   4.056   3.076  0.0357 -0.1141  0.1333
   41CHL1    H9 2998   3.513   3.962   3.085 -3.0525 -1.9856  2.0827
   41CHL1   C10 2999   3.475   4.104   2.926  0.2871 -0.3395  0.8397
   41CHL1   C19 3000   3.421   4.253   2.912  0.0428  0.3369 -0.3214
   41CHL1  H19A 3001   3.325   4.268   2.966  0.6251 -0.2129  0.9072
   41CHL1  H19B 3002   3.489   4.323   2.965 -0.0134  2.1779 -2.5482
   41CHL1  H19C 3003   3.420   4.277   2.804  0.4613  1.0120 -0.1744
   41CHL1    C1 3004   3.625   4.114   2.895  0.1632 -0.1420  0.3189
   41CHL1   H1A 3005   3.649   4.206   2.951  2.2331 -0.0537 -0.6471
   41CHL1   H1B 3006   3.675   4.028   2.943  0.0846  0.5201  1.6186
   41CHL1    C2 3007   3.655   4.135   2.745 -0.1867  0.7136 -0.3426
   41CHL1   H2A 3008   3.761   4.144   2.712  0.0519  0.0137  0.1861
   41CHL1   H2B 3009   3.603   4.225   2.706 -0.4171  0.3887 -0.7935
   41CHL1   C20 3010   3.265   4.081   3.612  0.7347  0.5394  0.3062
   41CHL1   H20 3011   3.184   4.157   3.606 -0.9851 -1.2050  0.5211
   41CHL1   C21 3012   3.394   4.154   3.647  0.5479 -0.1966  0.6021
   41CHL1  H21A 3013   3.404   4.244   3.582 -1.8995  0.2667  0.7816
   41CHL1  H21B 3014   3.484   4.089   3.638 -0.1478 -1.4133  1.9569
   41CHL1  H21C 3015   3.402   4.193   3.751 -1.5807  0.9192  0.4150
   41CHL1   C22 3016   3.220   3.986   3.725  1.2930  0.1216 -0.4406
   41CHL1  H22A 3017   3.129   3.928   3.698  1.2310 -0.5695  1.1416
   41CHL1  H22B 3018   3.295   3.904   3.732  0.1708 -1.0278 -1.3856
   41CHL1   C23 3019   3.200   4.051   3.858  0.0965 -0.7924  0.1310
   41CHL1  H23A 3020   3.294   4.077   3.911 -1.0630  2.8632  0.6420
   41CHL1  H23B 3021   3.142   4.145   3.848  1.1383 -0.2596 -1.3255
   41CHL1   C24 3022   3.125   3.953   3.955  0.3182  0.3191 -0.2604
   41CHL1  H24A 3023   3.025   3.934   3.911 -0.5632  1.9504  0.9392
   41CHL1  H24B 3024   3.184   3.859   3.960 -0.5260 -0.1511  1.4146
   41CHL1   C25 3025   3.112   4.007   4.100  0.5329  0.0845  0.3576
   41CHL1   H25 3026   3.098   4.116   4.081  0.2352  0.5178  2.7118
   41CHL1   C26 3027   2.995   3.952   4.172 -0.1011  0.0537 -0.5503
   41CHL1  H26A 3028   2.897   3.968   4.121  0.7550  0.0694 -2.2488
   41CHL1  H26B 3029   3.006   3.843   4.189 -1.3542  0.1335  1.0689
   41CHL1  H26C 3030   2.994   3.999   4.273 -0.8485  0.4436 -0.7226
   41CHL1   C27 3031   3.231   4.006   4.197 -0.4575 -0.7211  0.4147
   41CHL1  H27A 3032   3.202   4.053   4.293 -0.6182 -0.4756  0.2480
   41CHL1  H27B 3033   3.275   3.908   4.228  0.2704  0.2290  2.5384
   41CHL1  H27C 3034   3.310   4.066   4.146 -0.8014 -1.6748 -1.3159
   42CHL1    C3 3035   6.508   6.275   2.729 -0.1065  0.0919 -0.3685
   42CHL1    H3 3036   6.430   6.196   2.722  0.1963 -0.2090 -0.4200
   42CHL1    O3 3037   6.544   6.311   2.599  0.0603 -0.4565 -0.6594
   42CHL1   H3' 3038   6.516   6.403   2.596 -0.3138 -0.5721 -0.7651
   42CHL1    C4 3039   6.435   6.384   2.807 -0.2279 -0.1828  0.0243
   42CHL1   H4A 3040   6.502   6.473   2.805  0.2420 -0.5320  0.0065
   42CHL1   H4B 3041   6.340   6.421   2.765 -0.3251  1.1697  1.3405
   42CHL1    C5 3042   6.408   6.351   2.954 -0.4110 -0.1899 -1.1920
   42CHL1    C6 3043   6.285   6.351   3.009 -0.5395 -0.6059 -0.5190
   42CHL1    H6 3044   6.207   6.385   2.939  1.9148  1.9963 -2.2260
   42CHL1    C7 3045   6.238   6.312   3.144  1.2097  0.1437  0.3692
   42CHL1   H7A 3046   6.159   6.379   3.185  1.5360  0.2105  0.9068
   42CHL1   H7B 3047   6.199   6.208   3.138  1.0403  0.2951 -2.2803
   42CHL1    C8 3048   6.362   6.309   3.236 -1.2065 -0.6368 -0.0366
   42CHL1    H8 3049   6.392   6.413   3.260  0.9438 -1.4713  1.2024
   42CHL1   C14 3050   6.329   6.237   3.373  0.2952 -0.0209  0.3919
   42CHL1   H14 3051   6.292   6.136   3.346  0.6132  0.0149 -0.1936
   42CHL1   C15 3052   6.227   6.306   3.457  0.2870  0.5679 -0.1274
   42CHL1  H15A 3053   6.244   6.416   3.456  0.1273  0.6418  1.8429
   42CHL1  H15B 3054   6.129   6.277   3.413  0.7038 -0.4602 -0.4063
   42CHL1   C16 3055   6.247   6.238   3.594  0.8317 -0.1257 -0.0377
   42CHL1  H16A 3056   6.265   6.312   3.676 -3.0816  2.0379 -0.8967
   42CHL1  H16B 3057   6.156   6.179   3.616 -1.0836  1.9023 -2.1018
   42CHL1   C17 3058   6.379   6.150   3.588 -0.0669  0.3209  0.2460
   42CHL1   H17 3059   6.345   6.052   3.548 -3.8157  1.1891  0.9085
   42CHL1   C13 3060   6.453   6.217   3.467  0.1351 -0.1757 -0.8029
   42CHL1   C18 3061   6.501   6.351   3.506 -0.5832 -0.6687 -0.2974
   42CHL1  H18A 3062   6.604   6.346   3.546  0.0339  2.8168 -1.1525
   42CHL1  H18B 3063   6.501   6.421   3.420 -1.3175  0.0734  0.2797
   42CHL1  H18C 3064   6.440   6.394   3.589 -0.3247 -0.0255 -0.4296
   42CHL1   C12 3065   6.551   6.136   3.400 -0.1840  0.6434 -0.2105
   42CHL1  H12A 3066   6.644   6.124   3.460 -0.6502  2.1902  0.8814
   42CHL1  H12B 3067   6.499   6.039   3.384 -0.1853  0.9389 -2.2865
   42CHL1   C11 3068   6.595   6.198   3.272  0.8562 -0.1761 -0.0911
   42CHL1  H11A 3069   6.654   6.291   3.289  0.1941  0.2353  0.0189
   42CHL1  H11B 3070   6.673   6.142   3.217  0.7777  0.7421 -1.1806
   42CHL1    C9 3071   6.478   6.232   3.169 -0.1448  0.0499 -0.4666
   42CHL1    H9 3072   6.428   6.135   3.147  1.0215 -0.8364  0.6245
   42CHL1   C10 3073   6.527   6.294   3.035  0.2369  1.4041  0.0799
   42CHL1   C19 3074   6.629   6.410   3.065  0.0410 -1.1258 -0.4889
   42CHL1  H19A 3075   6.646   6.486   2.985 -0.0274 -1.6624 -1.0168
   42CHL1  H19B 3076   6.577   6.463   3.148 -0.2991 -3.1704  0.6708
   42CHL1  H19C 3077   6.722   6.366   3.106 -0.5170 -1.5832  0.3342
   42CHL1    C1 3078   6.597   6.184   2.953 -0.2139  0.2388  0.3369
   42CHL1   H1A 3079   6.693   6.158   3.003 -0.6103  1.1104  1.6090
   42CHL1   H1B 3080   6.540   6.089   2.953 -2.2572  1.4147  0.7230
   42CHL1    C2 3081   6.636   6.231   2.815  0.1723  0.0471  0.2576
   42CHL1   H2A 3082   6.683   6.150   2.757  0.5856  0.6608 -0.2827
   42CHL1   H2B 3083   6.702   6.320   2.816  0.2733 -0.0228  0.9806
   42CHL1   C20 3084   6.460   6.116   3.716  0.0969  0.2221  0.1757
   42CHL1   H20 3085   6.565   6.099   3.684 -0.3825 -0.8716 -0.8828
   42CHL1   C21 3086   6.412   5.972   3.768  0.4643 -0.1634  0.0563
   42CHL1  H21A 3087   6.481   5.929   3.844 -0.7654 -0.5042  1.0131
   42CHL1  H21B 3088   6.429   5.905   3.682  1.7761  0.7058 -0.4007
   42CHL1  H21C 3089   6.310   5.975   3.812 -0.1547  0.2503 -1.3696
   42CHL1   C22 3090   6.452   6.226   3.828  0.4614 -0.2503  0.0275
   42CHL1  H22A 3091   6.466   6.331   3.795  0.2828 -0.0695  0.5157
   42CHL1  H22B 3092   6.349   6.227   3.869  1.1824  1.1773  1.9141
   42CHL1   C23 3093   6.541   6.204   3.951  0.7805  0.4407 -0.2490
   42CHL1  H23A 3094   6.502   6.121   4.013  3.3803  0.7763  2.0031
   42CHL1  H23B 3095   6.641   6.164   3.925  1.7505  0.8850  2.5303
   42CHL1   C24 3096   6.544   6.340   4.031 -0.2609  0.1551  0.3787
   42CHL1  H24A 3097   6.602   6.417   3.976  1.0087 -0.3617  0.9391
   42CHL1  H24B 3098   6.443   6.383   4.043  0.3086  2.9709 -3.2455
   42CHL1   C25 3099   6.610   6.331   4.168 -0.6176  0.4241  0.5416
   42CHL1   H25 3100   6.712   6.295   4.142 -1.4618 -1.4995 -0.3059
   42CHL1   C26 3101   6.609   6.470   4.230  0.3043  0.3022 -0.0656
   42CHL1  H26A 3102   6.671   6.532   4.162  0.5712 -0.7894 -0.8356
   42CHL1  H26B 3103   6.501   6.498   4.237  0.5037  0.6814  2.4142
   42CHL1  H26C 3104   6.664   6.485   4.326  0.4376 -0.2141 -0.0604
   42CHL1   C27 3105   6.545   6.225   4.255 -0.5427 -0.1065 -0.5670
   42CHL1  H27A 3106   6.599   6.231   4.352 -0.2476  1.3462 -0.8079
   42CHL1  H27B 3107   6.441   6.254   4.282 -1.2296 -2.5589 -0.2361
   42CHL1  H27C 3108   6.532   6.124   4.209  1.1900 -0.9776  0.7258
   43CHL1    C3 3109   2.019   6.265   2.827 -0.1142  1.0677 -0.6012
   43CHL1    H3 3110   2.081   6.174   2.841  0.7964  1.7501 -0.0571
   43CHL1    O3 3111   1.996   6.310   2.690  0.4214  0.2232  0.0063
   43CHL1   H3' 3112   1.919   6.367   2.679 -0.8506 -1.4044  0.0370
   43CHL1    C4 3113   1.880   6.226   2.886 -0.2178 -0.6730 -0.1578
   43CHL1   H4A 3114   1.799   6.296   2.856  1.1115  0.9888 -0.0210
   43CHL1   H4B 3115   1.853   6.130   2.839  0.4876 -0.4692 -1.0037
   43CHL1    C5 3116   1.873   6.217   3.035 -0.5253 -0.5336  0.3071
   43CHL1    C6 3117   1.821   6.112   3.096  0.5039 -0.5948  0.1449
   43CHL1    H6 3118   1.766   6.039   3.035  0.3753  1.1038 -1.8776
   43CHL1    C7 3119   1.827   6.089   3.248 -0.2751  0.9053  0.6925
   43CHL1   H7A 3120   1.729   6.045   3.276 -1.4389  3.7907  1.5664
   43CHL1   H7B 3121   1.905   6.018   3.282 -1.1533  1.6007  4.6482
   43CHL1    C8 3122   1.856   6.221   3.327 -0.6268  0.0302 -0.2615
   43CHL1    H8 3123   1.767   6.286   3.314  0.7075  2.5373  2.0916
   43CHL1   C14 3124   1.875   6.188   3.474 -0.3213 -0.4998 -0.6209
   43CHL1   H14 3125   1.968   6.128   3.471  0.3348  0.4500  0.1384
   43CHL1   C15 3126   1.769   6.111   3.542  0.5478  0.6174  0.1158
   43CHL1  H15A 3127   1.675   6.163   3.510  2.4808  2.0097 -3.9976
   43CHL1  H15B 3128   1.763   6.004   3.516  0.3029  0.0908  2.1646
   43CHL1   C16 3129   1.805   6.129   3.695 -0.3740 -0.2655  0.5773
   43CHL1  H16A 3130   1.717   6.174   3.746  1.5292  1.0989  2.8612
   43CHL1  H16B 3131   1.850   6.034   3.730  0.7743  1.3124  3.8391
   43CHL1   C17 3132   1.917   6.240   3.695 -0.2881  0.1040  0.5067
   43CHL1   H17 3133   2.012   6.183   3.691 -0.3892 -0.2985  2.6888
   43CHL1   C13 3134   1.912   6.314   3.562  0.2640  0.0068  0.2744
   43CHL1   C18 3135   1.788   6.413   3.560 -0.2698  0.2865 -0.6016
   43CHL1  H18A 3136   1.760   6.453   3.460 -1.6060  0.9649  0.0218
   43CHL1  H18B 3137   1.699   6.357   3.595 -0.5395  1.1646  0.1530
   43CHL1  H18C 3138   1.808   6.498   3.628  1.6139  1.3250 -2.3358
   43CHL1   C12 3139   2.034   6.387   3.500 -0.1421 -0.3542 -0.8114
   43CHL1  H12A 3140   2.059   6.479   3.558 -1.5759  0.0518 -0.8005
   43CHL1  H12B 3141   2.113   6.310   3.513  1.5665  1.3151 -0.9056
   43CHL1   C11 3142   2.029   6.419   3.352  0.5320 -0.3783 -0.5067
   43CHL1  H11A 3143   1.961   6.506   3.341  1.5296  0.2907 -1.4752
   43CHL1  H11B 3144   2.132   6.443   3.318 -0.0997 -0.9873 -3.0940
   43CHL1    C9 3145   1.972   6.301   3.264  0.7182 -0.2696  0.1112
   43CHL1    H9 3146   2.048   6.221   3.278  1.3562  0.8858  5.1363
   43CHL1   C10 3147   1.954   6.326   3.109 -0.1264 -0.1438 -0.4286
   43CHL1   C19 3148   1.864   6.453   3.090  0.1308 -0.5326 -0.4642
   43CHL1  H19A 3149   1.853   6.474   2.982  1.0364 -1.6793 -0.8009
   43CHL1  H19B 3150   1.761   6.438   3.129  0.4450 -3.8762 -0.6659
   43CHL1  H19C 3151   1.912   6.541   3.139 -0.5240 -0.7630  0.6138
   43CHL1    C1 3152   2.093   6.350   3.038  0.0974  0.6154  0.0757
   43CHL1   H1A 3153   2.137   6.436   3.093  0.4065  0.2383  0.4311
   43CHL1   H1B 3154   2.165   6.269   3.064  1.1877  1.2858 -0.7362
   43CHL1    C2 3155   2.082   6.384   2.895 -0.4083 -0.1636 -0.0158
   43CHL1   H2A 3156   2.182   6.396   2.849 -0.5938 -1.5017 -0.8259
   43CHL1   H2B 3157   2.026   6.477   2.873  0.6438  0.4963  0.0707
   43CHL1   C20 3158   1.933   6.326   3.824 -0.4651  0.2347  0.3252
   43CHL1   H20 3159   1.986   6.418   3.792 -1.1705 -0.0145 -1.7007
   43CHL1   C21 3160   2.021   6.253   3.930  0.3690 -0.1033 -0.0180
   43CHL1  H21A 3161   1.957   6.180   3.984 -0.5953  1.8139  1.5867
   43CHL1  H21B 3162   2.055   6.337   3.996  1.3380  1.7490 -2.6953
   43CHL1  H21C 3163   2.109   6.200   3.889 -0.5987 -2.8199  1.1979
   43CHL1   C22 3164   1.804   6.373   3.892 -0.7697  0.0767  0.6875
   43CHL1  H22A 3165   1.733   6.408   3.814 -0.2301 -1.0908 -0.3669
   43CHL1  H22B 3166   1.758   6.281   3.934  1.3114 -0.8550  1.0558
   43CHL1   C23 3167   1.826   6.502   3.965  0.3378 -0.2880  0.6081
   43CHL1  H23A 3168   1.900   6.489   4.047  0.4176  1.8296  0.9227
   43CHL1  H23B 3169   1.858   6.585   3.898 -1.8960  0.1323 -0.0094
   43CHL1   C24 3170   1.691   6.556   4.021 -0.7495  0.2524  0.8437
   43CHL1  H24A 3171   1.647   6.615   3.937  1.4682  0.2496 -0.3886
   43CHL1  H24B 3172   1.625   6.470   4.045  1.2419 -1.8462 -0.7127
   43CHL1   C25 3173   1.696   6.641   4.144  0.0045 -0.4712  0.0499
   43CHL1   H25 3174   1.731   6.575   4.227  0.8696  1.4974  1.3390
   43CHL1   C26 3175   1.794   6.763   4.157  0.3376  1.0288  0.1014
   43CHL1  H26A 3176   1.770   6.845   4.087 -0.1974 -0.3925 -1.4323
   43CHL1  H26B 3177   1.788   6.807   4.259 -0.6592  0.3297  0.3615
   43CHL1  H26C 3178   1.899   6.731   4.138  0.2910  0.1717  1.1615
   43CHL1   C27 3179   1.560   6.693   4.191  0.1415 -0.2436 -0.2094
   43CHL1  H27A 3180   1.571   6.753   4.283 -0.2090  0.8161 -0.8481
   43CHL1  H27B 3181   1.514   6.762   4.116  0.0348  1.2189  1.1538
   43CHL1  H27C 3182   1.492   6.609   4.218 -0.2822  0.2389  0.2391
   44CHL1    C3 3183   5.116   4.776   3.061 -0.3395  0.2307  0.2373
   44CHL1    H3 3184   5.098   4.678   3.110  0.2888  0.0238  0.0772
   44CHL1    O3 3185   5.086   4.763   2.920 -0.0073 -0.2508 -0.3635
   44CHL1   H3' 3186   5.161   4.796   2.871  0.2308  0.7890  0.6479
   44CHL1    C4 3187   5.033   4.887   3.118  0.1972 -0.1643 -0.1608
   44CHL1   H4A 3188   5.054   4.985   3.069  0.9389 -0.0410  0.3865
   44CHL1   H4B 3189   4.930   4.865   3.084  0.9766 -1.3151 -1.9053
   44CHL1    C5 3190   5.055   4.907   3.268 -0.9234  0.3395  0.3566
   44CHL1    C6 3191   4.946   4.919   3.346  0.1377 -0.0137 -0.6182
   44CHL1    H6 3192   4.846   4.918   3.300  0.2616  1.3111 -0.9559
   44CHL1    C7 3193   4.956   4.932   3.491 -0.5563 -0.1525 -0.6562
   44CHL1   H7A 3194   4.905   5.022   3.531  0.2178  1.0178 -2.1928
   44CHL1   H7B 3195   4.916   4.839   3.536 -1.5099 -0.3183 -1.7870
   44CHL1    C8 3196   5.105   4.967   3.536 -0.4729  0.4737 -0.3378
   44CHL1    H8 3197   5.131   5.073   3.516  0.7887  0.8423  2.7404
   44CHL1   C14 3198   5.121   4.941   3.684 -0.1964  0.4336 -0.0956
   44CHL1   H14 3199   5.098   4.832   3.688 -2.5979  0.8942  0.0077
   44CHL1   C15 3200   5.018   5.013   3.780  1.3573 -0.6915  0.7943
   44CHL1  H15A 3201   5.020   5.119   3.747  1.4094 -1.1801 -0.8843
   44CHL1  H15B 3202   4.920   4.963   3.767  1.8391 -2.0586  2.2335
   44CHL1   C16 3203   5.078   5.003   3.920 -0.0260 -0.1093  1.1468
   44CHL1  H16A 3204   5.074   5.108   3.956  0.6280 -0.2893  1.7474
   44CHL1  H16B 3205   5.030   4.934   3.992  0.3354 -1.4041  0.1789
   44CHL1   C17 3206   5.225   4.950   3.886  0.1094  0.6382  0.0939
   44CHL1   H17 3207   5.206   4.841   3.892 -2.0302  0.9725  0.0734
   44CHL1   C13 3208   5.258   4.971   3.743 -0.0814 -0.3145 -0.0344
   44CHL1   C18 3209   5.284   5.127   3.740 -0.6866 -0.5433  0.2014
   44CHL1  H18A 3210   5.305   5.159   3.635 -1.6662  0.6368  0.3447
   44CHL1  H18B 3211   5.210   5.192   3.792 -0.7967 -0.7646  0.3199
   44CHL1  H18C 3212   5.381   5.144   3.791 -0.3244  0.8386 -0.8607
   44CHL1   C12 3213   5.362   4.888   3.675  0.0150 -0.2757 -0.2785
   44CHL1  H12A 3214   5.466   4.896   3.715  0.1963 -0.7667 -0.6287
   44CHL1  H12B 3215   5.342   4.780   3.696  0.1780 -0.1409  0.6155
   44CHL1   C11 3216   5.358   4.913   3.522 -0.6624 -0.7846 -0.6989
   44CHL1  H11A 3217   5.397   5.013   3.496  1.0770 -0.7204  1.7966
   44CHL1  H11B 3218   5.415   4.832   3.471 -0.5460 -1.9844  1.2197
   44CHL1    C9 3219   5.212   4.880   3.464  0.6405 -0.2134 -0.3058
   44CHL1    H9 3220   5.180   4.777   3.491  0.2645  0.3417  1.5141
   44CHL1   C10 3221   5.208   4.903   3.311  0.2450  0.4104 -0.1318
   44CHL1   C19 3222   5.257   5.039   3.269  0.1439  0.1321  0.3308
   44CHL1  H19A 3223   5.231   5.067   3.165 -0.0357  2.1697  0.8840
   44CHL1  H19B 3224   5.223   5.122   3.335  0.0928  0.8231 -0.5501
   44CHL1  H19C 3225   5.367   5.054   3.273  0.1047  0.3330  0.7140
   44CHL1    C1 3226   5.296   4.793   3.240  0.0466  0.2941  0.1826
   44CHL1   H1A 3227   5.399   4.826   3.262 -0.0197  0.7536 -0.1899
   44CHL1   H1B 3228   5.283   4.687   3.272  1.6261 -0.6769 -2.0632
   44CHL1    C2 3229   5.267   4.799   3.092  0.8361 -0.0834 -0.0727
   44CHL1   H2A 3230   5.330   4.716   3.052  0.4018 -0.9666  1.0331
   44CHL1   H2B 3231   5.293   4.897   3.046 -0.8650  0.8281  0.8067
   44CHL1   C20 3232   5.340   4.979   3.990 -0.1005 -0.2311  0.4522
   44CHL1   H20 3233   5.429   4.987   3.924 -0.3036  1.1364  0.3219
   44CHL1   C21 3234   5.342   4.874   4.096  0.3403 -0.1931  0.3590
   44CHL1  H21A 3235   5.249   4.873   4.157 -1.1580  0.7041 -1.7893
   44CHL1  H21B 3236   5.431   4.880   4.163  2.6721 -2.4372 -2.2651
   44CHL1  H21C 3237   5.344   4.772   4.050  0.7416 -0.2961  0.5990
   44CHL1   C22 3238   5.324   5.118   4.062  0.1704 -1.0224 -0.1405
   44CHL1  H22A 3239   5.293   5.207   4.002  2.1657  0.4416  0.8930
   44CHL1  H22B 3240   5.247   5.107   4.141 -1.7568  1.3884 -1.4991
   44CHL1   C23 3241   5.455   5.170   4.125  0.0915 -0.0595 -0.0896
   44CHL1  H23A 3242   5.500   5.089   4.186  2.1540  0.9344 -0.1800
   44CHL1  H23B 3243   5.534   5.195   4.049 -0.8836 -0.0276 -1.1182
   44CHL1   C24 3244   5.418   5.306   4.194  0.2230 -1.3492  0.1181
   44CHL1  H24A 3245   5.367   5.376   4.123  3.2192  0.4494 -0.4254
   44CHL1  H24B 3246   5.331   5.289   4.262 -1.1200 -0.8143 -1.3987
   44CHL1   C25 3247   5.530   5.395   4.255 -0.2833 -0.6573 -0.2894
   44CHL1   H25 3248   5.575   5.338   4.339 -0.4318  0.1409  0.3469
   44CHL1   C26 3249   5.632   5.437   4.149 -0.8433 -0.2294  0.0898
   44CHL1  H26A 3250   5.717   5.489   4.199 -1.6821  0.6440  0.6242
   44CHL1  H26B 3251   5.687   5.355   4.097 -0.4233  0.3561 -0.4112
   44CHL1  H26C 3252   5.583   5.505   4.075 -0.1100  1.8599  1.4266
   44CHL1   C27 3253   5.475   5.522   4.312  0.6710 -0.5215 -0.0016
   44CHL1  H27A 3254   5.417   5.570   4.230 -0.4700  1.5355  1.9219
   44CHL1  H27B 3255   5.403   5.497   4.393  1.6822 -0.8603  0.8195
   44CHL1  H27C 3256   5.553   5.593   4.346 -2.1409  2.8586 -0.0229
   45CHL1    C3 3257   2.781   5.724   3.015 -0.8201 -0.3750 -0.4801
   45CHL1    H3 3258   2.864   5.652   2.999 -0.5045  0.4048 -2.5710
   45CHL1    O3 3259   2.724   5.750   2.894 -0.1416 -0.2630 -0.2969
   45CHL1   H3' 3260   2.804   5.755   2.842  0.5462 -0.1325  0.7452
   45CHL1    C4 3261   2.680   5.676   3.122 -0.6757  0.9600 -0.2715
   45CHL1   H4A 3262   2.593   5.745   3.126 -2.8182 -1.6036  0.6463
   45CHL1   H4B 3263   2.641   5.583   3.075 -2.5578  1.6728 -0.2009
   45CHL1    C5 3264   2.746   5.655   3.261 -1.1412 -0.4510  0.5881
   45CHL1    C6 3265   2.730   5.541   3.327 -0.4130 -0.0150  0.1191
   45CHL1    H6 3266   2.664   5.462   3.286  1.1639 -1.3030 -0.0345
   45CHL1    C7 3267   2.789   5.516   3.461  0.5426  0.3117  0.1007
   45CHL1   H7A 3268   2.721   5.468   3.534  2.8117  0.8114  2.6897
   45CHL1   H7B 3269   2.872   5.444   3.447  1.3779  0.8830  1.8517
   45CHL1    C8 3270   2.838   5.641   3.528  0.0141  0.4441 -0.3259
   45CHL1    H8 3271   2.749   5.690   3.571  0.8589  0.6371  1.2649
   45CHL1   C14 3272   2.923   5.589   3.644  0.0984 -0.2539  0.3045
   45CHL1   H14 3273   2.996   5.520   3.596 -1.0382 -0.3373 -1.3722
   45CHL1   C15 3274   2.857   5.498   3.748  0.1427  0.6426 -0.3610
   45CHL1  H15A 3275   2.764   5.553   3.776 -0.2694 -0.5130  0.6335
   45CHL1  H15B 3276   2.824   5.400   3.709  0.0474  1.1377 -1.5525
   45CHL1   C16 3277   2.950   5.501   3.871  0.1877 -0.1511 -0.2842
   45CHL1  H16A 3278   2.901   5.532   3.966  0.9623 -0.7779  0.3448
   45CHL1  H16B 3279   3.003   5.404   3.884  1.3705  0.6824  1.5694
   45CHL1   C17 3280   3.055   5.602   3.829 -0.1023 -0.0485  0.1396
   45CHL1   H17 3281   3.139   5.542   3.788  0.8358 -1.7741  4.0916
   45CHL1   C13 3282   2.997   5.694   3.722  0.3523  0.5482 -1.1474
   45CHL1   C18 3283   2.902   5.798   3.790 -0.0618 -0.5397 -0.0047
   45CHL1  H18A 3284   2.854   5.866   3.716  0.2134 -0.4290 -0.0831
   45CHL1  H18B 3285   2.813   5.750   3.835 -0.1156 -1.6623 -1.2427
   45CHL1  H18C 3286   2.959   5.861   3.861  1.0465 -0.9158 -0.5367
   45CHL1   C12 3287   3.091   5.772   3.625 -0.2703 -0.2317 -0.1644
   45CHL1  H12A 3288   3.147   5.857   3.671  1.4343 -1.6900  0.5817
   45CHL1  H12B 3289   3.174   5.707   3.590  0.0435 -0.4618  0.9863
   45CHL1   C11 3290   3.008   5.828   3.504  0.3159  0.3636  0.0402
   45CHL1  H11A 3291   2.947   5.914   3.542  1.9369  0.5997  2.2694
   45CHL1  H11B 3292   3.082   5.873   3.434  0.0222  0.9136  0.0691
   45CHL1    C9 3293   2.919   5.725   3.435 -0.1891  0.3211  0.0322
   45CHL1    H9 3294   2.996   5.650   3.408 -0.3631 -0.8227  2.4685
   45CHL1   C10 3295   2.832   5.776   3.306  0.5701  0.4393  0.0343
   45CHL1   C19 3296   2.743   5.893   3.349 -0.4023  0.6385  0.2337
   45CHL1  H19A 3297   2.661   5.906   3.275 -3.3134  0.5635  3.2448
   45CHL1  H19B 3298   2.687   5.879   3.444  1.6308  1.0640  1.5461
   45CHL1  H19C 3299   2.802   5.985   3.365  1.6717 -0.1220 -2.3133
   45CHL1    C1 3300   2.933   5.823   3.196  0.5640 -0.0706 -0.1441
   45CHL1   H1A 3301   2.990   5.910   3.237  0.1977 -0.1022  0.4467
   45CHL1   H1B 3302   3.012   5.746   3.182  1.1372  0.8122 -2.2066
   45CHL1    C2 3303   2.855   5.857   3.062 -0.2591 -0.0815  0.1067
   45CHL1   H2A 3304   2.921   5.885   2.977  1.2672  0.2561  1.3508
   45CHL1   H2B 3305   2.783   5.937   3.089 -0.4598 -0.4996  0.8419
   45CHL1   C20 3306   3.119   5.662   3.953 -0.2672 -0.7501 -0.6134
   45CHL1   H20 3307   3.034   5.706   4.010  1.9069  0.6989  1.6791
   45CHL1   C21 3308   3.216   5.774   3.912  0.5023  0.0296  0.1594
   45CHL1  H21A 3309   3.153   5.858   3.875 -3.1825 -1.2340  2.9198
   45CHL1  H21B 3310   3.278   5.732   3.829  0.6923  0.9297 -0.1611
   45CHL1  H21C 3311   3.289   5.809   3.988  2.1048  0.5945 -1.5491
   45CHL1   C22 3312   3.199   5.569   4.051  0.4100 -0.9594  0.3300
   45CHL1  H22A 3313   3.159   5.465   4.050  1.4186 -1.3625 -0.6497
   45CHL1  H22B 3314   3.295   5.548   3.999  0.0863 -0.4708 -0.4920
   45CHL1   C23 3315   3.213   5.625   4.194 -0.6256  0.0345 -0.2608
   45CHL1  H23A 3316   3.276   5.716   4.197  0.2249 -0.5246  3.0589
   45CHL1  H23B 3317   3.115   5.653   4.239  0.3223 -0.1372  2.0511
   45CHL1   C24 3318   3.278   5.520   4.292  0.2164  0.5700 -0.0639
   45CHL1  H24A 3319   3.218   5.433   4.260  1.2340  0.0862 -0.6828
   45CHL1  H24B 3320   3.386   5.525   4.267  0.2678  2.2517  0.3284
   45CHL1   C25 3321   3.249   5.554   4.445  0.1584 -0.0105 -0.2169
   45CHL1   H25 3322   3.139   5.567   4.451  0.1582 -0.2994  0.5450
   45CHL1   C26 3323   3.281   5.436   4.538 -0.7796 -0.7304  0.1962
   45CHL1  H26A 3324   3.383   5.406   4.504 -0.3176  3.0723 -2.3659
   45CHL1  H26B 3325   3.275   5.471   4.643  1.5990  1.7771 -0.3729
   45CHL1  H26C 3326   3.212   5.350   4.527 -0.8319 -0.6686  0.0431
   45CHL1   C27 3327   3.328   5.679   4.475  0.3743  0.5097 -0.3439
   45CHL1  H27A 3328   3.432   5.651   4.502  0.1068 -1.4184 -1.1707
   45CHL1  H27B 3329   3.326   5.757   4.395 -0.0463 -1.4878 -2.3997
   45CHL1  H27C 3330   3.288   5.720   4.570  2.3767  1.5629  0.1122
   46CHL1    C3 3331   4.950   3.415   2.868 -0.3738 -0.4677 -0.3792
   46CHL1    H3 3332   5.055   3.429   2.898  0.1249  0.4343 -2.3631
   46CHL1    O3 3333   4.950   3.422   2.725 -0.2477  0.5100 -0.3519
   46CHL1   H3' 3334   4.867   3.465   2.703 -1.5300 -0.4482  2.1996
   46CHL1    C4 3335   4.897   3.279   2.913  0.2851  0.2883  0.5103
   46CHL1   H4A 3336   4.796   3.275   2.868  1.8250 -1.5143 -3.2363
   46CHL1   H4B 3337   4.951   3.190   2.874 -0.1552 -0.0774  0.7462
   46CHL1    C5 3338   4.887   3.272   3.064  0.5600  0.7932  0.3100
   46CHL1    C6 3339   4.957   3.183   3.140  0.5242  0.3527  0.0938
   46CHL1    H6 3340   5.032   3.117   3.095 -0.0412 -0.5628  0.4625
   46CHL1    C7 3341   4.943   3.177   3.289 -0.7285  0.0717  0.6836
   46CHL1   H7A 3342   4.924   3.074   3.326  1.1328 -0.0649  1.3685
   46CHL1   H7B 3343   5.036   3.208   3.340 -0.3118 -0.7553  0.4431
   46CHL1    C8 3344   4.816   3.255   3.338 -0.3358  0.2680 -1.1518
   46CHL1    H8 3345   4.736   3.184   3.309 -0.0350 -1.5563  2.0184
   46CHL1   C14 3346   4.823   3.270   3.488  0.1049  0.5437 -0.2460
   46CHL1   H14 3347   4.918   3.328   3.496  0.7543 -0.2641 -1.7398
   46CHL1   C15 3348   4.849   3.154   3.587 -0.2761 -0.5298  0.7132
   46CHL1  H15A 3349   4.802   3.061   3.548 -0.0419 -0.3492  0.0024
   46CHL1  H15B 3350   4.957   3.128   3.596 -0.1548 -0.7469 -1.0419
   46CHL1   C16 3351   4.788   3.189   3.722 -0.8572 -1.0315  0.2449
   46CHL1  H16A 3352   4.696   3.126   3.724 -1.7077  0.1812  1.0741
   46CHL1  H16B 3353   4.850   3.162   3.810  0.0347 -4.2121 -1.1896
   46CHL1   C17 3354   4.748   3.336   3.708  0.0577  0.3508  0.2429
   46CHL1   H17 3355   4.837   3.399   3.730 -0.4836  0.8594  1.0132
   46CHL1   C13 3356   4.717   3.353   3.552  0.7277 -0.1912  0.4356
   46CHL1   C18 3357   4.573   3.288   3.527 -0.4523  0.2407 -0.5006
   46CHL1  H18A 3358   4.494   3.356   3.565 -0.5483  1.0420 -2.0615
   46CHL1  H18B 3359   4.560   3.277   3.417  1.3774  3.5684 -1.1888
   46CHL1  H18C 3360   4.562   3.187   3.571 -1.5675  0.1954 -0.8459
   46CHL1   C12 3361   4.727   3.492   3.496 -0.0615 -0.1788 -0.3977
   46CHL1  H12A 3362   4.643   3.557   3.528 -1.4936 -2.1356  0.0134
   46CHL1  H12B 3363   4.823   3.541   3.521 -0.5452  1.5156 -1.6278
   46CHL1   C11 3364   4.713   3.495   3.340 -0.2161  0.0396 -0.2243
   46CHL1  H11A 3365   4.609   3.468   3.314 -0.1025  1.3164 -2.2665
   46CHL1  H11B 3366   4.725   3.596   3.294 -1.0929  0.2172 -0.0721
   46CHL1    C9 3367   4.809   3.395   3.274  0.5939  0.4199 -0.8173
   46CHL1    H9 3368   4.910   3.432   3.300  1.4180 -1.7914 -0.6276
   46CHL1   C10 3369   4.794   3.384   3.122  0.1339 -0.0377  0.5242
   46CHL1   C19 3370   4.640   3.371   3.076 -0.0943  0.2776 -0.5877
   46CHL1  H19A 3371   4.589   3.468   3.088 -1.7053 -0.6836  0.7693
   46CHL1  H19B 3372   4.607   3.334   2.976 -2.0326 -0.7198  0.3531
   46CHL1  H19C 3373   4.588   3.307   3.151  0.6449 -1.4311 -1.4634
   46CHL1    C1 3374   4.846   3.517   3.058 -0.1657  0.4130 -0.7389
   46CHL1   H1A 3375   4.776   3.596   3.094  2.1057  1.6258  1.3176
   46CHL1   H1B 3376   4.944   3.541   3.103  1.4942 -1.8702 -2.8584
   46CHL1    C2 3377   4.859   3.531   2.914  0.7521  0.5310  0.6887
   46CHL1   H2A 3378   4.890   3.630   2.876  1.7867  0.8918  2.3606
   46CHL1   H2B 3379   4.760   3.500   2.874  1.1801 -0.6515  0.5120
   46CHL1   C20 3380   4.641   3.375   3.807  0.1897  0.7481  0.3863
   46CHL1   H20 3381   4.556   3.306   3.787  1.9948 -1.7183  0.6209
   46CHL1   C21 3382   4.600   3.523   3.789  0.1687  0.0006  0.4681
   46CHL1  H21A 3383   4.697   3.577   3.783 -1.2248  2.5651 -0.8339
   46CHL1  H21B 3384   4.535   3.554   3.874  1.5361  1.8751  0.9089
   46CHL1  H21C 3385   4.545   3.557   3.699  0.9404 -0.8074 -0.3247
   46CHL1   C22 3386   4.688   3.352   3.952  0.7374  0.0923  0.7597
   46CHL1  H22A 3387   4.622   3.394   4.031 -0.7404 -0.3168 -0.2170
   46CHL1  H22B 3388   4.707   3.243   3.960  3.3390  0.2820 -1.3728
   46CHL1   C23 3389   4.817   3.434   3.992 -0.5597  0.5270 -0.1517
   46CHL1  H23A 3390   4.896   3.441   3.915 -1.0541 -0.1880 -0.7368
   46CHL1  H23B 3391   4.797   3.543   3.983  2.8994  1.1307 -2.5765
   46CHL1   C24 3392   4.874   3.399   4.130  0.5100 -0.2848  0.7904
   46CHL1  H24A 3393   4.800   3.421   4.210  0.8260 -0.6948  1.1949
   46CHL1  H24B 3394   4.887   3.289   4.137 -0.2459 -0.7296 -2.8238
   46CHL1   C25 3395   5.014   3.455   4.175 -0.1372  0.1410  0.3467
   46CHL1   H25 3396   5.020   3.564   4.158  0.4549 -0.2870 -3.0456
   46CHL1   C26 3397   5.031   3.433   4.327  0.7421 -0.1408  1.0621
   46CHL1  H26A 3398   4.943   3.481   4.377 -1.9022 -0.9872 -2.3516
   46CHL1  H26B 3399   5.037   3.325   4.352  3.2340  0.0456  1.4357
   46CHL1  H26C 3400   5.124   3.477   4.369  1.6524  0.6454 -1.5770
   46CHL1   C27 3401   5.114   3.375   4.091  0.6908  0.1093  0.2842
   46CHL1  H27A 3402   5.110   3.267   4.119  1.6479 -0.1222 -0.4267
   46CHL1  H27B 3403   5.105   3.385   3.981 -0.6768  0.4452  0.4073
   46CHL1  H27C 3404   5.218   3.402   4.120  0.8260 -0.6274  0.5201
   47CHL1    C3 3405   0.593   6.838   2.508  0.6081  0.2386 -0.3029
   47CHL1    H3 3406   0.583   6.739   2.557  1.7221  0.3908  0.2603
   47CHL1    O3 3407   0.574   6.810   2.369  0.3184 -0.5942 -0.2130
   47CHL1   H3' 3408   0.482   6.784   2.362 -0.5752  2.0014  0.7077
   47CHL1    C4 3409   0.479   6.936   2.543 -0.1268 -0.1164  0.0809
   47CHL1   H4A 3410   0.501   7.020   2.474  0.9027 -0.4171  0.0233
   47CHL1   H4B 3411   0.378   6.891   2.533 -0.4969  0.7270 -0.0059
   47CHL1    C5 3412   0.487   6.983   2.687  0.1592  0.2524  0.2752
   47CHL1    C6 3413   0.383   6.978   2.764  0.3754 -0.5893 -0.5592
   47CHL1    H6 3414   0.293   6.923   2.732  0.2764 -0.5222 -0.3972
   47CHL1    C7 3415   0.393   7.032   2.905  0.5952  0.1779 -0.2403
   47CHL1   H7A 3416   0.306   7.101   2.912 -1.8868 -2.6768 -1.1264
   47CHL1   H7B 3417   0.384   6.952   2.981  3.0931  0.5064  0.5175
   47CHL1    C8 3418   0.511   7.136   2.938 -0.3276 -0.3840  0.3860
   47CHL1    H8 3419   0.484   7.227   2.879  1.2920 -0.2347 -0.1522
   47CHL1   C14 3420   0.538   7.159   3.087  0.6114 -0.5024 -0.5482
   47CHL1   H14 3421   0.550   7.057   3.128 -2.1322 -1.2097 -1.3023
   47CHL1   C15 3422   0.425   7.212   3.175 -0.5854  0.2123  0.4027
   47CHL1  H15A 3423   0.390   7.310   3.133  2.0896  0.7807 -0.6947
   47CHL1  H15B 3424   0.346   7.135   3.185  1.4333 -1.9177  0.7216
   47CHL1   C16 3425   0.499   7.237   3.310 -0.0476 -0.7389  0.0186
   47CHL1  H16A 3426   0.462   7.329   3.361  0.6223  0.0581 -0.8889
   47CHL1  H16B 3427   0.483   7.158   3.386  1.1579  0.4453  1.5978
   47CHL1   C17 3428   0.652   7.248   3.277 -0.4853 -0.3743 -0.1719
   47CHL1   H17 3429   0.705   7.155   3.304  2.6302  0.3222 -3.2191
   47CHL1   C13 3430   0.656   7.246   3.120 -0.6605 -0.7269 -0.4941
   47CHL1   C18 3431   0.646   7.390   3.075 -0.1334  0.3989 -0.2005
   47CHL1  H18A 3432   0.633   7.388   2.965 -0.5104  1.1726 -0.1763
   47CHL1  H18B 3433   0.568   7.448   3.130  0.5177 -0.9334  2.2880
   47CHL1  H18C 3434   0.743   7.441   3.097 -0.0452  0.6374 -1.1171
   47CHL1   C12 3435   0.784   7.168   3.067 -0.5463 -0.1927  0.1554
   47CHL1  H12A 3436   0.881   7.219   3.086 -1.5215  1.6487  0.3251
   47CHL1  H12B 3437   0.785   7.073   3.126  0.1457 -0.3424 -0.0847
   47CHL1   C11 3438   0.767   7.152   2.918 -0.1564  0.5718  0.8285
   47CHL1  H11A 3439   0.776   7.248   2.862  1.3731  0.1437  0.2947
   47CHL1  H11B 3440   0.857   7.103   2.876 -1.5695 -1.6441  0.2108
   47CHL1    C9 3441   0.637   7.073   2.875  0.4819  0.0582 -0.7580
   47CHL1    H9 3442   0.632   6.971   2.920 -3.5903  0.2278 -0.4567
   47CHL1   C10 3443   0.622   7.041   2.724  0.2227  0.7008  0.5500
   47CHL1   C19 3444   0.651   7.175   2.643 -1.2404  0.9814  0.1870
   47CHL1  H19A 3445   0.592   7.260   2.684 -0.4372  1.4508  0.3905
   47CHL1  H19B 3446   0.758   7.203   2.650 -1.1161  0.2432  1.7116
   47CHL1  H19C 3447   0.633   7.160   2.535  0.6994 -2.1633  0.2012
   47CHL1    C1 3448   0.729   6.937   2.683 -0.0971  0.9429  0.3260
   47CHL1   H1A 3449   0.834   6.960   2.711  0.7523 -3.0223  0.9033
   47CHL1   H1B 3450   0.713   6.844   2.741  3.2678  0.5175  0.7724
   47CHL1    C2 3451   0.728   6.897   2.536  0.5012  0.1440  0.4646
   47CHL1   H2A 3452   0.801   6.816   2.515  0.5048  0.6819 -1.7671
   47CHL1   H2B 3453   0.740   6.983   2.467 -0.2620 -0.1845 -0.0791
   47CHL1   C20 3454   0.721   7.365   3.348 -0.0675 -0.0787  0.5211
   47CHL1   H20 3455   0.681   7.463   3.312  0.7262 -0.1869 -0.7101
   47CHL1   C21 3456   0.872   7.364   3.328 -0.0897 -0.3614  0.5461
   47CHL1  H21A 3457   0.900   7.366   3.221 -0.0593 -0.1000  0.5586
   47CHL1  H21B 3458   0.909   7.269   3.374 -0.0535 -0.6229 -0.0237
   47CHL1  H21C 3459   0.929   7.448   3.373  1.0118 -1.2375  0.8472
   47CHL1   C22 3460   0.698   7.373   3.499  0.5309  0.3971 -1.0820
   47CHL1  H22A 3461   0.589   7.364   3.519  0.0289  2.5127 -2.5276
   47CHL1  H22B 3462   0.751   7.285   3.543 -0.6032 -0.7730 -1.9861
   47CHL1   C23 3463   0.754   7.493   3.567  0.1812 -0.0774 -0.0468
   47CHL1  H23A 3464   0.864   7.507   3.567  0.4539 -1.9141 -0.8576
   47CHL1  H23B 3465   0.702   7.578   3.518 -3.2157 -1.5385  0.6833
   47CHL1   C24 3466   0.710   7.485   3.718  0.7507 -0.0808 -0.9205
   47CHL1  H24A 3467   0.599   7.481   3.711  0.4613  1.8770  1.1930
   47CHL1  H24B 3468   0.745   7.387   3.755 -0.0054 -0.6264 -1.6269
   47CHL1   C25 3469   0.755   7.614   3.806  0.2584 -0.1496  0.0328
   47CHL1   H25 3470   0.709   7.706   3.766  0.1386  0.4393  1.4797
   47CHL1   C26 3471   0.699   7.587   3.950 -0.1514  0.3067 -0.3595
   47CHL1  H26A 3472   0.736   7.661   4.024 -2.1751  0.1462  0.8934
   47CHL1  H26B 3473   0.589   7.602   3.959 -0.3927  0.1320 -2.5181
   47CHL1  H26C 3474   0.713   7.480   3.978  1.1296  0.1693 -1.4484
   47CHL1   C27 3475   0.905   7.635   3.821  0.2259 -0.0505  0.8217
   47CHL1  H27A 3476   0.924   7.726   3.881 -0.4697  0.9284 -0.3941
   47CHL1  H27B 3477   0.953   7.544   3.862  3.8237  1.1600 -0.3544
   47CHL1  H27C 3478   0.942   7.652   3.717  0.5987 -0.2702  0.9182
   48CHL1    C3 3479   6.732   4.675   2.891  0.2563  0.0568 -0.1229
   48CHL1    H3 3480   6.720   4.565   2.900  1.5269 -0.1402 -0.7074
   48CHL1    O3 3481   6.735   4.696   2.747  0.0911 -0.5314 -0.4523
   48CHL1   H3' 3482   6.787   4.774   2.725 -0.3979  0.4449  1.5719
   48CHL1    C4 3483   6.619   4.752   2.966 -0.5102  0.7553 -0.1803
   48CHL1   H4A 3484   6.627   4.863   2.961 -2.1363  0.8757 -0.7790
   48CHL1   H4B 3485   6.521   4.718   2.926 -0.0189  0.0758 -0.8263
   48CHL1    C5 3486   6.633   4.716   3.113 -0.2797 -0.2441 -0.0714
   48CHL1    C6 3487   6.534   4.661   3.176 -0.2999 -0.4858  0.7968
   48CHL1    H6 3488   6.440   4.638   3.124 -0.0578 -0.5413  0.3751
   48CHL1    C7 3489   6.531   4.642   3.326 -0.4007 -0.0841 -0.3678
   48CHL1   H7A 3490   6.426   4.658   3.360  0.2517  0.0186  1.7062
   48CHL1   H7B 3491   6.561   4.538   3.352  0.5213 -0.2883 -2.0850
   48CHL1    C8 3492   6.650   4.714   3.397  0.4253  0.5290  0.8441
   48CHL1    H8 3493   6.622   4.822   3.402  0.8833  0.8416 -1.7558
   48CHL1   C14 3494   6.672   4.660   3.534  0.0190  0.4552 -0.3565
   48CHL1   H14 3495   6.694   4.552   3.519  1.1243  1.0453 -3.6598
   48CHL1   C15 3496   6.540   4.663   3.625 -0.0891 -0.2373 -0.2657
   48CHL1  H15A 3497   6.504   4.768   3.626 -0.5287 -0.3858 -0.3476
   48CHL1  H15B 3498   6.465   4.588   3.591 -0.2470  0.5892 -1.8370
   48CHL1   C16 3499   6.601   4.650   3.771 -1.0482  0.4835  0.4486
   48CHL1  H16A 3500   6.554   4.727   3.836 -2.2985  0.4336 -0.3472
   48CHL1  H16B 3501   6.578   4.550   3.815 -0.2834 -0.4870 -1.2653
   48CHL1   C17 3502   6.755   4.664   3.761  0.0639 -0.1336 -0.2951
   48CHL1   H17 3503   6.787   4.558   3.757  0.5656  0.0155 -0.3169
   48CHL1   C13 3504   6.777   4.730   3.622 -0.4239  0.2615  0.0209
   48CHL1   C18 3505   6.759   4.884   3.632  1.7118  0.4034  1.0201
   48CHL1  H18A 3506   6.677   4.920   3.698 -0.1306 -0.1958 -0.8163
   48CHL1  H18B 3507   6.855   4.938   3.646  1.7929  0.5361  0.0474
   48CHL1  H18C 3508   6.729   4.923   3.532 -0.2155 -2.0917  0.5277
   48CHL1   C12 3509   6.913   4.698   3.549 -0.2077  0.0038  0.0119
   48CHL1  H12A 3510   6.997   4.748   3.601 -0.4080 -0.1552  0.4979
   48CHL1  H12B 3511   6.925   4.588   3.547  2.0150  0.1161  2.2145
   48CHL1   C11 3512   6.911   4.744   3.402 -0.3368  0.1232 -0.3615
   48CHL1  H11A 3513   6.936   4.851   3.395  1.2690 -0.2422 -0.4697
   48CHL1  H11B 3514   6.996   4.708   3.340  0.0501  0.4994 -0.0440
   48CHL1    C9 3515   6.785   4.693   3.316 -0.2573  0.0571 -0.5103
   48CHL1    H9 3516   6.796   4.582   3.311  3.9073  0.0830  2.3538
   48CHL1   C10 3517   6.778   4.742   3.173  0.4280  0.1502  0.0570
   48CHL1   C19 3518   6.806   4.893   3.178  0.9782 -0.3917 -0.2119
   48CHL1  H19A 3519   6.909   4.922   3.206  1.5018 -0.8053 -1.6690
   48CHL1  H19B 3520   6.790   4.934   3.076 -1.6869 -0.0234  0.2671
   48CHL1  H19C 3521   6.725   4.930   3.244  0.2004 -4.5555  1.4827
   48CHL1    C1 3522   6.895   4.676   3.087 -0.0917 -0.0367 -0.0896
   48CHL1   H1A 3523   6.993   4.716   3.123  0.3917  0.4789 -1.8910
   48CHL1   H1B 3524   6.893   4.568   3.111  2.3215  0.0159  0.6770
   48CHL1    C2 3525   6.877   4.707   2.934 -0.1977  0.1933 -0.6383
   48CHL1   H2A 3526   6.960   4.656   2.881  0.8224 -0.4204  1.4076
   48CHL1   H2B 3527   6.879   4.818   2.925  0.1603  0.4533  1.8851
   48CHL1   C20 3528   6.833   4.726   3.871 -0.4448  0.3690 -0.1780
   48CHL1   H20 3529   6.939   4.745   3.841  0.7562  1.3588  4.0436
   48CHL1   C21 3530   6.835   4.609   3.977 -0.4174 -0.3820  0.3265
   48CHL1  H21A 3531   6.914   4.624   4.054  0.5564 -0.7753 -0.5698
   48CHL1  H21B 3532   6.874   4.511   3.942 -1.3434 -0.7461  0.3103
   48CHL1  H21C 3533   6.737   4.592   4.025 -1.0117  0.5515 -0.5185
   48CHL1   C22 3534   6.778   4.858   3.946  0.0438  0.4425  0.3126
   48CHL1  H22A 3535   6.787   4.941   3.873  3.1280 -1.4523 -1.6892
   48CHL1  H22B 3536   6.674   4.837   3.981 -0.5649  1.4357 -0.8576
   48CHL1   C23 3537   6.863   4.920   4.059 -0.8554 -0.8554  0.8022
   48CHL1  H23A 3538   6.867   4.850   4.145 -2.0467 -0.7687  0.9526
   48CHL1  H23B 3539   6.965   4.940   4.020 -0.8169 -1.0638  0.7975
   48CHL1   C24 3540   6.812   5.062   4.101 -0.7600 -0.6145  0.3766
   48CHL1  H24A 3541   6.810   5.129   4.013  4.2899  0.7745  1.0109
   48CHL1  H24B 3542   6.711   5.044   4.144 -0.8241  0.8041  0.8867
   48CHL1   C25 3543   6.904   5.138   4.191 -0.1557  0.3040 -0.3864
   48CHL1   H25 3544   7.009   5.131   4.153 -0.3950  0.3689 -1.0847
   48CHL1   C26 3545   6.867   5.291   4.203 -0.5285  0.2116 -0.3329
   48CHL1  H26A 3546   6.870   5.341   4.105  1.0143  2.8354  0.9534
   48CHL1  H26B 3547   6.767   5.304   4.250  1.2461 -0.5494  4.2486
   48CHL1  H26C 3548   6.946   5.337   4.267 -1.6378  0.0151  1.2458
   48CHL1   C27 3549   6.926   5.073   4.334 -0.2310  0.1774  0.0736
   48CHL1  H27A 3550   6.829   5.064   4.387 -0.0225 -0.7448  0.3113
   48CHL1  H27B 3551   6.964   4.969   4.335 -0.3586  0.1299 -0.0396
   48CHL1  H27C 3552   6.996   5.138   4.392 -0.2766  0.0881  0.2292
   49CHL1    C3 3553   0.462   5.786   2.699 -0.5031  0.8589  0.5679
   49CHL1    H3 3554   0.364   5.771   2.748  0.0523 -0.5571  1.2940
   49CHL1    O3 3555   0.428   5.787   2.559 -0.4414 -0.8977 -0.5130
   49CHL1   H3' 3556   0.486   5.725   2.515 -0.7322 -1.3014 -0.3260
   49CHL1    C4 3557   0.522   5.921   2.748 -0.9273  0.2993  0.6549
   49CHL1   H4A 3558   0.590   5.964   2.671 -1.7959 -0.6546 -0.6793
   49CHL1   H4B 3559   0.433   5.985   2.731 -0.0295  1.1236 -1.1928
   49CHL1    C5 3560   0.558   5.923   2.894  0.0537  0.0971 -0.0102
   49CHL1    C6 3561   0.516   6.015   2.983  0.5708  0.0711  0.3481
   49CHL1    H6 3562   0.451   6.097   2.948  0.4617  0.1038  0.6216
   49CHL1    C7 3563   0.557   6.019   3.129  0.0613 -0.9238  0.1022
   49CHL1   H7A 3564   0.596   6.120   3.153 -1.6535 -0.3076  0.4428
   49CHL1   H7B 3565   0.476   5.992   3.200 -1.1860  1.4341 -0.3261
   49CHL1    C8 3566   0.675   5.925   3.158  0.3352 -0.6712 -0.1744
   49CHL1    H8 3567   0.768   5.980   3.133  1.2822 -1.2737  1.7931
   49CHL1   C14 3568   0.687   5.909   3.308 -0.1879 -0.3947  0.4484
   49CHL1   H14 3569   0.587   5.866   3.329 -1.5649  1.8523 -1.0545
   49CHL1   C15 3570   0.717   6.030   3.398 -0.3281 -0.1380  0.4520
   49CHL1  H15A 3571   0.794   6.091   3.347  0.0011  0.0030  1.1137
   49CHL1  H15B 3572   0.633   6.101   3.413  0.3461  0.6962  0.3269
   49CHL1   C16 3573   0.761   5.964   3.529  0.1530 -0.3512  0.4694
   49CHL1  H16A 3574   0.859   6.007   3.558 -0.8757 -0.0052  3.8277
   49CHL1  H16B 3575   0.688   5.993   3.607  0.4832  0.1130  0.6075
   49CHL1   C17 3576   0.776   5.811   3.512 -0.0811  0.3517  0.6320
   49CHL1   H17 3577   0.679   5.762   3.534  0.4057 -1.3563 -0.8769
   49CHL1   C13 3578   0.792   5.806   3.354 -0.5956 -0.2624  0.4963
   49CHL1   C18 3579   0.932   5.854   3.309 -0.2255 -0.0835 -0.4208
   49CHL1  H18A 3580   0.956   5.957   3.343 -1.0807  0.8423 -2.4281
   49CHL1  H18B 3581   1.001   5.789   3.367  0.9762  0.4869 -1.1598
   49CHL1  H18C 3582   0.935   5.863   3.198 -1.3091 -0.8197 -0.5243
   49CHL1   C12 3583   0.766   5.664   3.294  0.0623 -0.1658  0.5110
   49CHL1  H12A 3584   0.856   5.606   3.321  1.4503  2.3584  1.6224
   49CHL1  H12B 3585   0.670   5.627   3.337 -1.7567  3.2099 -0.2774
   49CHL1   C11 3586   0.748   5.682   3.137  0.2633 -0.0959  0.2662
   49CHL1  H11A 3587   0.855   5.698   3.112  0.7649 -1.7744  1.1332
   49CHL1  H11B 3588   0.711   5.586   3.096 -0.7082  0.4757 -0.2287
   49CHL1    C9 3589   0.651   5.792   3.091 -0.6408  0.1580 -0.4784
   49CHL1    H9 3590   0.553   5.756   3.129  0.2788 -0.0778  1.8138
   49CHL1   C10 3591   0.644   5.806   2.936  0.4357  0.4034 -0.8054
   49CHL1   C19 3592   0.784   5.833   2.873 -0.1057 -0.1564 -0.1763
   49CHL1  H19A 3593   0.779   5.858   2.764 -0.3206 -3.5205 -1.0506
   49CHL1  H19B 3594   0.822   5.922   2.927 -2.2477  1.4254 -1.0791
   49CHL1  H19C 3595   0.850   5.747   2.893  1.3666  0.6842 -1.2277
   49CHL1    C1 3596   0.575   5.675   2.881 -0.7713  0.1017  0.5373
   49CHL1   H1A 3597   0.645   5.590   2.897 -1.0730 -0.7292 -2.1246
   49CHL1   H1B 3598   0.484   5.639   2.935 -1.4965  1.3122  0.1712
   49CHL1    C2 3599   0.548   5.675   2.730 -0.3043  0.2806 -0.1106
   49CHL1   H2A 3600   0.494   5.581   2.705 -1.9465  1.5780 -1.7995
   49CHL1   H2B 3601   0.637   5.678   2.664 -0.6058 -2.3314 -0.7393
   49CHL1   C20 3602   0.878   5.754   3.613 -0.7151 -0.4602  0.3558
   49CHL1   H20 3603   0.982   5.783   3.584 -1.4497 -0.6089 -2.7794
   49CHL1   C21 3604   0.868   5.601   3.610 -0.0876 -0.0437  0.1623
   49CHL1  H21A 3605   0.879   5.552   3.510 -5.0915  0.3841 -0.8593
   49CHL1  H21B 3606   0.770   5.564   3.646  1.2490 -1.1971  2.9471
   49CHL1  H21C 3607   0.939   5.559   3.684  0.1006  1.4641  0.8766
   49CHL1   C22 3608   0.846   5.806   3.757  0.2300 -0.5842  0.1671
   49CHL1  H22A 3609   0.832   5.916   3.766 -2.1088 -0.9536  2.2994
   49CHL1  H22B 3610   0.744   5.777   3.791  0.6657 -0.8060  1.3395
   49CHL1   C23 3611   0.936   5.748   3.874  0.3497 -0.2308  0.1160
   49CHL1  H23A 3612   0.923   5.638   3.886  0.3468 -0.0458  2.1737
   49CHL1  H23B 3613   1.042   5.760   3.844  0.7014 -0.3163  1.2682
   49CHL1   C24 3614   0.905   5.826   4.000 -0.3524  0.1360  0.1704
   49CHL1  H24A 3615   0.908   5.933   3.972  1.5636  0.3732  1.0911
   49CHL1  H24B 3616   0.809   5.782   4.034 -0.1097 -0.7760 -0.2863
   49CHL1   C25 3617   1.016   5.820   4.107 -0.2975 -0.1638 -0.8905
   49CHL1   H25 3618   1.034   5.712   4.124 -0.6853 -0.1491 -0.3512
   49CHL1   C26 3619   1.138   5.909   4.064  0.6001 -0.1406 -0.2723
   49CHL1  H26A 3620   1.227   5.847   4.089  0.2315 -1.4806 -2.0249
   49CHL1  H26B 3621   1.141   5.916   3.953 -0.4811 -0.0692 -0.3096
   49CHL1  H26C 3622   1.149   6.009   4.109  1.5496 -0.0489 -0.6636
   49CHL1   C27 3623   0.965   5.873   4.244 -0.0792  0.0216  0.6350
   49CHL1  H27A 3624   0.871   5.825   4.278  0.2553 -2.4472 -1.5989
   49CHL1  H27B 3625   1.035   5.874   4.330  0.6168  1.1185  0.0848
   49CHL1  H27C 3626   0.950   5.983   4.236  0.8183  0.0478 -0.9351
   50CHL1    C3 3627   6.047   1.044   2.465  0.1048  0.0427  0.1290
   50CHL1    H3 3628   5.982   1.126   2.502 -0.0069 -0.1021  0.2551
   50CHL1    O3 3629   6.050   1.043   2.325  0.3842 -0.0150  0.4145
   50CHL1   H3' 3630   6.100   1.121   2.302 -2.2396  1.9559  0.8985
   50CHL1    C4 3631   6.192   1.078   2.520 -0.1806  0.3440 -0.1951
   50CHL1   H4A 3632   6.264   1.006   2.476  0.4507  0.0971  1.1806
   50CHL1   H4B 3633   6.226   1.174   2.476 -2.0748 -0.2111 -3.2107
   50CHL1    C5 3634   6.197   1.066   2.678 -0.0973 -0.4114  0.3466
   50CHL1    C6 3635   6.237   1.170   2.754 -0.2307 -0.0754  0.7530
   50CHL1    H6 3636   6.287   1.261   2.719 -1.2128  0.9788  1.9696
   50CHL1    C7 3637   6.223   1.174   2.903  0.1721  0.0636 -0.4307
   50CHL1   H7A 3638   6.310   1.233   2.939  0.2365  0.1174 -0.6682
   50CHL1   H7B 3639   6.126   1.226   2.920  1.0510  1.2028  1.3530
   50CHL1    C8 3640   6.220   1.036   2.958  0.3591  0.3524 -0.8950
   50CHL1    H8 3641   6.317   0.986   2.938 -0.5149 -0.3406 -3.8446
   50CHL1   C14 3642   6.201   1.038   3.106 -0.1763 -0.1796 -0.8745
   50CHL1   H14 3643   6.110   1.094   3.132 -0.9471 -2.4816  1.8832
   50CHL1   C15 3644   6.307   1.113   3.189  0.4344 -0.4241 -0.1169
   50CHL1  H15A 3645   6.403   1.079   3.144  0.5398 -1.8285  1.0844
   50CHL1  H15B 3646   6.293   1.221   3.168 -0.0617 -0.7347 -1.4416
   50CHL1   C16 3647   6.284   1.068   3.329 -0.6586 -0.4813 -0.1987
   50CHL1  H16A 3648   6.380   1.047   3.381  0.2875 -0.8522 -2.0019
   50CHL1  H16B 3649   6.228   1.135   3.397  1.7775 -1.2266  2.7711
   50CHL1   C17 3650   6.196   0.937   3.320 -0.3841  0.0100 -0.9005
   50CHL1   H17 3651   6.093   0.968   3.349  0.1502  0.2840  0.8324
   50CHL1   C13 3652   6.191   0.901   3.171 -0.0231  0.3945  0.2090
   50CHL1   C18 3653   6.314   0.810   3.133 -0.1759  0.2069  0.5087
   50CHL1  H18A 3654   6.410   0.850   3.174  0.7703 -1.6151  0.1843
   50CHL1  H18B 3655   6.292   0.704   3.159 -0.5598 -0.4994 -2.3823
   50CHL1  H18C 3656   6.325   0.800   3.023 -1.9362 -1.9714  0.4803
   50CHL1   C12 3657   6.064   0.841   3.118  0.8857  0.4033 -0.9042
   50CHL1  H12A 3658   6.043   0.747   3.174  2.5549  0.2248 -0.5179
   50CHL1  H12B 3659   5.986   0.916   3.142  2.6224  2.0967 -0.3321
   50CHL1   C11 3660   6.071   0.817   2.958 -0.4551 -0.8442 -0.5095
   50CHL1  H11A 3661   6.152   0.745   2.937  0.1232 -0.9203  1.7756
   50CHL1  H11B 3662   5.974   0.782   2.916 -0.7729  0.0996 -0.6006
   50CHL1    C9 3663   6.109   0.950   2.889 -0.0697 -0.0845 -0.2040
   50CHL1    H9 3664   6.014   1.004   2.909 -0.3502 -1.1480  1.5441
   50CHL1   C10 3665   6.132   0.943   2.737  0.3811 -0.3964 -0.6374
   50CHL1   C19 3666   6.231   0.825   2.694  1.4488  0.0819 -0.6333
   50CHL1  H19A 3667   6.179   0.730   2.721  0.8290  0.0497 -1.8517
   50CHL1  H19B 3668   6.247   0.829   2.584 -3.7738  1.0209 -1.6481
   50CHL1  H19C 3669   6.328   0.830   2.747  1.0387 -0.4139  0.1862
   50CHL1    C1 3670   5.991   0.916   2.668 -0.0190 -0.9201 -0.1002
   50CHL1   H1A 3671   5.955   0.815   2.699 -0.5883 -0.6854  0.0059
   50CHL1   H1B 3672   5.908   0.981   2.704  0.9221  0.2151  0.0867
   50CHL1    C2 3673   5.995   0.915   2.517  0.4707  0.0620 -0.4835
   50CHL1   H2A 3674   5.894   0.906   2.472 -0.2240  0.6834  0.8987
   50CHL1   H2B 3675   6.057   0.833   2.474  0.3574  0.5864 -1.6955
   50CHL1   C20 3676   6.237   0.831   3.426  1.0962  0.0762 -0.2913
   50CHL1   H20 3677   6.335   0.780   3.413  0.9035 -0.1957 -0.7275
   50CHL1   C21 3678   6.136   0.715   3.411 -0.2168  0.1916 -0.3097
   50CHL1  H21A 3679   6.154   0.656   3.504 -0.4576  0.0177 -0.3712
   50CHL1  H21B 3680   6.155   0.649   3.324  1.3107  1.1197 -0.7154
   50CHL1  H21C 3681   6.032   0.753   3.404  0.6712  2.4578 -3.3926
   50CHL1   C22 3682   6.229   0.881   3.574 -0.2139  0.3920  0.3325
   50CHL1  H22A 3683   6.281   0.979   3.574 -0.1466  0.3680 -0.4384
   50CHL1  H22B 3684   6.127   0.893   3.616  0.2357  1.1261  1.2381
   50CHL1   C23 3685   6.294   0.791   3.680  0.2138  0.4706 -0.4799
   50CHL1  H23A 3686   6.248   0.690   3.681  0.1385  0.4987  1.2873
   50CHL1  H23B 3687   6.402   0.788   3.654  0.9083  0.0072  2.2380
   50CHL1   C24 3688   6.296   0.847   3.821 -0.2401  0.2707 -1.1950
   50CHL1  H24A 3689   6.336   0.951   3.821  1.5985 -0.3256  1.0231
   50CHL1  H24B 3690   6.190   0.853   3.854  0.0042 -1.8970  0.2380
   50CHL1   C25 3691   6.388   0.778   3.929 -0.0405  0.7389 -0.3062
   50CHL1   H25 3692   6.336   0.681   3.943 -0.3457  0.9804  0.2848
   50CHL1   C26 3693   6.540   0.762   3.897 -0.1876 -0.6028  0.6611
   50CHL1  H26A 3694   6.601   0.854   3.910  0.3258 -0.9746  0.9286
   50CHL1  H26B 3695   6.571   0.683   3.969  0.8312 -0.2484  0.6360
   50CHL1  H26C 3696   6.571   0.727   3.796  2.1447 -0.2596  1.1841
   50CHL1   C27 3697   6.376   0.862   4.057 -0.1130  0.4715  0.7611
   50CHL1  H27A 3698   6.268   0.863   4.083 -0.5094 -4.1778  0.0199
   50CHL1  H27B 3699   6.430   0.814   4.142  1.8549  2.0944  0.5158
   50CHL1  H27C 3700   6.411   0.967   4.049 -0.0637  0.6498  2.7207
   51CHL1    C3 3701   1.291   1.631   2.799 -0.6450 -0.5788 -0.1234
   51CHL1    H3 3702   1.330   1.527   2.803  0.1401 -0.3014 -0.3141
   51CHL1    O3 3703   1.230   1.646   2.677 -0.3806 -0.6618  0.7088
   51CHL1   H3' 3704   1.308   1.648   2.622  0.9665 -0.2124  2.5518
   51CHL1    C4 3705   1.179   1.654   2.905  0.3558  0.7268  0.5452
   51CHL1   H4A 3706   1.126   1.751   2.891 -0.4741  0.0655 -1.2473
   51CHL1   H4B 3707   1.095   1.584   2.884 -0.9122  1.5405  2.5108
   51CHL1    C5 3708   1.240   1.632   3.043  0.7054 -0.7702 -0.0604
   51CHL1    C6 3709   1.211   1.535   3.124  0.1635 -0.3562 -0.5687
   51CHL1    H6 3710   1.140   1.458   3.090 -0.3297  0.3013 -1.0383
   51CHL1    C7 3711   1.259   1.501   3.261 -0.1808  0.2277  0.2612
   51CHL1   H7A 3712   1.171   1.490   3.328 -0.2326  2.2668  0.6033
   51CHL1   H7B 3713   1.323   1.410   3.257  0.6279  0.7796  0.3953
   51CHL1    C8 3714   1.337   1.627   3.304  0.5050 -0.8322  0.1204
   51CHL1    H8 3715   1.260   1.706   3.319  0.9579 -0.1189 -1.1990
   51CHL1   C14 3716   1.398   1.593   3.439  0.0213 -0.2186  1.5209
   51CHL1   H14 3717   1.456   1.502   3.412 -0.1832 -0.2638  1.2346
   51CHL1   C15 3718   1.307   1.532   3.548  0.1126  0.2078 -0.2590
   51CHL1  H15A 3719   1.217   1.596   3.565 -2.0289 -1.9092 -2.7358
   51CHL1  H15B 3720   1.276   1.429   3.520  0.7335  0.5192 -2.2432
   51CHL1   C16 3721   1.407   1.531   3.660  0.0797 -0.0691 -0.0861
   51CHL1  H16A 3722   1.365   1.577   3.752 -2.1004 -0.7314 -0.6994
   51CHL1  H16B 3723   1.432   1.426   3.686  2.0478  0.6387  1.1030
   51CHL1   C17 3724   1.535   1.604   3.612  0.8012  0.3338 -0.7564
   51CHL1   H17 3725   1.610   1.536   3.568  2.2375  2.3914 -1.6685
   51CHL1   C13 3726   1.489   1.696   3.495 -0.2536  0.5995  0.5028
   51CHL1   C18 3727   1.412   1.817   3.549 -0.1505 -0.5023  0.5957
   51CHL1  H18A 3728   1.486   1.890   3.590 -0.9561 -0.1199  1.3994
   51CHL1  H18B 3729   1.351   1.868   3.472  1.6038  1.3668  0.3304
   51CHL1  H18C 3730   1.344   1.795   3.634  2.1949 -0.3021  2.6567
   51CHL1   C12 3731   1.592   1.733   3.390 -0.8720  0.3953 -0.7608
   51CHL1  H12A 3732   1.653   1.819   3.426 -0.0337  0.0721 -1.3870
   51CHL1  H12B 3733   1.662   1.651   3.365 -1.2750 -0.2843  0.2550
   51CHL1   C11 3734   1.523   1.800   3.273 -0.3891 -0.0509  0.3124
   51CHL1  H11A 3735   1.477   1.895   3.308 -0.6474 -0.5626  1.3848
   51CHL1  H11B 3736   1.600   1.825   3.196 -0.6735  0.7692  0.2825
   51CHL1    C9 3737   1.433   1.697   3.204  0.7600 -0.0883 -0.2772
   51CHL1    H9 3738   1.507   1.616   3.186  2.1287  0.4871  2.2011
   51CHL1   C10 3739   1.364   1.732   3.069  0.4597  0.9566  0.0448
   51CHL1   C19 3740   1.299   1.871   3.088 -0.1703 -0.4597 -0.4651
   51CHL1  H19A 3741   1.391   1.933   3.102 -0.5608  0.1382 -0.5396
   51CHL1  H19B 3742   1.243   1.893   2.995 -0.2465 -0.1746 -0.3499
   51CHL1  H19C 3743   1.221   1.877   3.166  1.2312  0.6805  0.9154
   51CHL1    C1 3744   1.466   1.732   2.959  1.0191 -0.0580 -0.6091
   51CHL1   H1A 3745   1.528   1.824   2.964  0.2505  0.4762 -0.8572
   51CHL1   H1B 3746   1.536   1.649   2.985 -0.0633 -0.3668  1.5652
   51CHL1    C2 3747   1.408   1.727   2.820 -0.3367 -0.2370 -0.5336
   51CHL1   H2A 3748   1.486   1.700   2.745 -1.2502 -2.5260 -0.7274
   51CHL1   H2B 3749   1.372   1.831   2.806  0.0894 -0.2196 -1.6115
   51CHL1   C20 3750   1.609   1.686   3.726 -0.7539  0.1960 -0.2884
   51CHL1   H20 3751   1.543   1.769   3.759 -0.7893  0.4400 -0.9479
   51CHL1   C21 3752   1.739   1.738   3.673 -0.6210 -0.2763  0.6778
   51CHL1  H21A 3753   1.809   1.767   3.754  2.7671  0.2173 -2.1983
   51CHL1  H21B 3754   1.732   1.827   3.606 -3.0282  1.5368  3.1318
   51CHL1  H21C 3755   1.792   1.662   3.611  0.0861 -0.8160  1.9153
   51CHL1   C22 3756   1.641   1.592   3.852 -0.1118 -0.5621  0.2601
   51CHL1  H22A 3757   1.707   1.650   3.921  0.2141 -0.0731 -0.4480
   51CHL1  H22B 3758   1.548   1.573   3.909  1.0281 -0.2335  2.3294
   51CHL1   C23 3759   1.691   1.451   3.814 -0.6519  0.1454 -0.3305
   51CHL1  H23A 3760   1.605   1.399   3.766 -0.4204 -0.0704 -0.5107
   51CHL1  H23B 3761   1.782   1.468   3.753 -0.9991 -0.1494 -0.9359
   51CHL1   C24 3762   1.740   1.372   3.939  0.6308 -0.0187  0.3153
   51CHL1  H24A 3763   1.820   1.431   3.989  1.8415 -0.2971 -1.1945
   51CHL1  H24B 3764   1.659   1.349   4.011  1.7858 -0.1495  1.6298
   51CHL1   C25 3765   1.810   1.239   3.910  0.0082  1.0637 -0.1441
   51CHL1   H25 3766   1.884   1.254   3.828 -0.4763 -0.5333 -0.9326
   51CHL1   C26 3767   1.867   1.175   4.036  0.1798  0.6770  0.0696
   51CHL1  H26A 3768   1.901   1.074   4.007 -0.2873  1.0328 -1.8419
   51CHL1  H26B 3769   1.949   1.237   4.079  0.1301  0.4707  0.4650
   51CHL1  H26C 3770   1.786   1.177   4.113  0.5450  0.2389  0.4666
   51CHL1   C27 3771   1.705   1.131   3.860  0.1951 -0.0835 -0.4277
   51CHL1  H27A 3772   1.637   1.112   3.946  0.6766  3.1306  0.8400
   51CHL1  H27B 3773   1.652   1.166   3.769 -0.2590  0.9482  0.2084
   51CHL1  H27C 3774   1.763   1.038   3.843 -0.7089 -0.6787 -0.2708
   52CHL1    C3 3775   1.235   3.150   2.845  0.1442  0.3334 -0.1021
   52CHL1    H3 3776   1.141   3.091   2.844  0.0148  0.4060  2.1737
   52CHL1    O3 3777   1.271   3.167   2.711 -0.0709  0.7755  0.2022
   52CHL1   H3' 3778   1.358   3.206   2.702 -0.8740  2.9868  1.1613
   52CHL1    C4 3779   1.209   3.283   2.911 -0.2632 -0.1191 -1.2236
   52CHL1   H4A 3780   1.292   3.356   2.899 -1.8920  2.1201  0.3792
   52CHL1   H4B 3781   1.134   3.336   2.849 -1.1983 -1.2871 -1.1219
   52CHL1    C5 3782   1.188   3.262   3.064 -0.2710 -0.1517  0.8976
   52CHL1    C6 3783   1.084   3.318   3.122  0.4097  0.0859  0.0926
   52CHL1    H6 3784   1.009   3.365   3.056  1.3046 -1.2337 -1.9899
   52CHL1    C7 3785   1.074   3.326   3.269  1.1477 -0.0579  0.7745
   52CHL1   H7A 3786   1.035   3.424   3.306  0.8225  0.0335  0.1992
   52CHL1   H7B 3787   1.000   3.253   3.307 -0.4953  2.4946  2.8944
   52CHL1    C8 3788   1.203   3.295   3.347  0.4880 -0.2260  0.7616
   52CHL1    H8 3789   1.268   3.384   3.343 -2.3340  1.9970  1.3730
   52CHL1   C14 3790   1.168   3.261   3.491 -0.2475  0.2364  0.2426
   52CHL1   H14 3791   1.108   3.168   3.486 -0.1006  0.0894  1.0120
   52CHL1   C15 3792   1.079   3.358   3.578  0.1373 -0.0895  0.3601
   52CHL1  H15A 3793   1.105   3.463   3.555  0.3098 -0.2167 -0.0450
   52CHL1  H15B 3794   0.972   3.333   3.565 -0.3097  0.8917  1.9502
   52CHL1   C16 3795   1.115   3.316   3.719  0.7560 -0.2789  0.1289
   52CHL1  H16A 3796   1.162   3.387   3.790 -0.1923 -1.5110  2.0645
   52CHL1  H16B 3797   1.022   3.303   3.778  0.4170 -0.3595 -0.4151
   52CHL1   C17 3798   1.209   3.191   3.707 -1.1584 -0.2517 -0.0826
   52CHL1   H17 3799   1.139   3.105   3.698 -2.6092  0.9775 -0.9616
   52CHL1   C13 3800   1.282   3.214   3.579  0.1027 -0.1617 -0.5531
   52CHL1   C18 3801   1.380   3.331   3.591  0.2339  0.2767 -0.0835
   52CHL1  H18A 3802   1.467   3.306   3.656  1.6036 -0.0432 -1.9656
   52CHL1  H18B 3803   1.426   3.339   3.491 -1.6475  1.4707 -0.9235
   52CHL1  H18C 3804   1.335   3.431   3.609  1.4429  1.0155 -1.0017
   52CHL1   C12 3805   1.345   3.084   3.514 -0.4046 -0.3125 -0.1369
   52CHL1  H12A 3806   1.429   3.043   3.573 -1.8748 -2.9233  0.2807
   52CHL1  H12B 3807   1.260   3.013   3.506 -1.1059  0.5443 -0.4450
   52CHL1   C11 3808   1.387   3.109   3.367  0.3044 -0.6160  0.0083
   52CHL1  H11A 3809   1.473   3.178   3.377 -0.0066 -0.4821  2.1733
   52CHL1  H11B 3810   1.425   3.015   3.321  0.0556 -0.0885 -1.3217
   52CHL1    C9 3811   1.268   3.167   3.279  0.0841  0.1907  0.2602
   52CHL1    H9 3812   1.187   3.091   3.290  0.6980 -0.6881 -1.0488
   52CHL1   C10 3813   1.306   3.183   3.127  0.4539 -0.8601 -0.4828
   52CHL1   C19 3814   1.434   3.280   3.125  0.2308  0.5919  0.7427
   52CHL1  H19A 3815   1.525   3.224   3.154 -0.3023 -0.0697  1.1612
   52CHL1  H19B 3816   1.447   3.323   3.023 -2.1511  0.9891  0.5514
   52CHL1  H19C 3817   1.422   3.366   3.194  1.7944  1.8846 -0.4982
   52CHL1    C1 3818   1.333   3.047   3.064 -0.1873 -0.3360 -0.3133
   52CHL1   H1A 3819   1.423   2.991   3.100  0.2631  0.0619 -0.8139
   52CHL1   H1B 3820   1.245   2.980   3.070 -1.7753  1.7750  2.2075
   52CHL1    C2 3821   1.351   3.067   2.915  0.8323 -0.2450 -0.0384
   52CHL1   H2A 3822   1.361   2.975   2.853  0.5868  0.7930 -1.6854
   52CHL1   H2B 3823   1.442   3.128   2.900 -1.0053  2.8181  0.4654
   52CHL1   C20 3824   1.285   3.160   3.835 -0.4757 -0.0701 -0.0766
   52CHL1   H20 3825   1.365   3.237   3.841  0.7801 -1.3966  2.5910
   52CHL1   C21 3826   1.363   3.021   3.832  0.6506 -0.3647  0.5345
   52CHL1  H21A 3827   1.301   2.953   3.770  0.1276  0.5738  0.0119
   52CHL1  H21B 3828   1.377   2.965   3.927  1.1058 -1.0853  0.0533
   52CHL1  H21C 3829   1.458   3.031   3.776  0.7197  0.7807  0.8350
   52CHL1   C22 3830   1.210   3.170   3.971 -1.4017 -0.5312  0.0691
   52CHL1  H22A 3831   1.301   3.170   4.036  0.6060  0.6363 -2.5583
   52CHL1  H22B 3832   1.178   3.276   3.961  2.7994  0.8422 -0.8237
   52CHL1   C23 3833   1.092   3.071   3.992  0.3982  0.0141  0.0679
   52CHL1  H23A 3834   1.014   3.079   3.914 -2.4022 -2.0970  2.4534
   52CHL1  H23B 3835   1.114   2.963   4.007 -1.4218 -0.1737  1.7572
   52CHL1   C24 3836   1.003   3.098   4.121 -0.7651 -0.1642 -0.5412
   52CHL1  H24A 3837   1.008   3.206   4.145 -1.0039  0.0704 -1.4949
   52CHL1  H24B 3838   0.896   3.076   4.098 -0.2473 -0.4807 -2.9874
   52CHL1   C25 3839   1.048   3.028   4.248 -0.4012 -0.0640  0.9518
   52CHL1   H25 3840   1.038   2.919   4.230 -3.4889  0.4390 -1.0149
   52CHL1   C26 3841   1.198   3.053   4.283 -0.4069  0.3781  0.3318
   52CHL1  H26A 3842   1.225   3.161   4.292  0.8308  0.1466 -0.4253
   52CHL1  H26B 3843   1.232   2.995   4.371  0.6917 -0.8993 -0.8956
   52CHL1  H26C 3844   1.260   3.017   4.199  2.2785  0.0524  2.3328
   52CHL1   C27 3845   0.962   3.069   4.367  0.0513  0.3709 -0.5857
   52CHL1  H27A 3846   0.984   3.023   4.466 -1.1834  1.4809  0.2337
   52CHL1  H27B 3847   0.977   3.179   4.379 -2.2469  0.4600  2.3048
   52CHL1  H27C 3848   0.858   3.038   4.344 -0.1910  0.1654  0.7031
   53CHL1    C3 3849   0.949   6.143   2.651 -0.0416  0.1432  0.6396
   53CHL1    H3 3850   0.854   6.096   2.618 -0.2501  0.9326  0.0990
   53CHL1    O3 3851   1.046   6.114   2.555  0.0074 -0.4531  0.0828
   53CHL1   H3' 3852   1.065   6.022   2.575 -1.9928 -0.9153 -0.0124
   53CHL1    C4 3853   0.926   6.298   2.637 -0.0447 -0.0212 -0.5832
   53CHL1   H4A 3854   1.027   6.342   2.647  0.6449 -1.9665  2.2380
   53CHL1   H4B 3855   0.882   6.316   2.537 -0.6284  0.5195 -0.2386
   53CHL1    C5 3856   0.834   6.353   2.747  0.0629 -0.7400 -0.0390
   53CHL1    C6 3857   0.728   6.430   2.707 -0.7215  0.1141  0.1538
   53CHL1    H6 3858   0.714   6.453   2.600 -0.6675  0.7368  0.2747
   53CHL1    C7 3859   0.633   6.495   2.803  0.4027 -0.2392 -0.8977
   53CHL1   H7A 3860   0.611   6.603   2.786 -0.0223 -0.0419  0.7162
   53CHL1   H7B 3861   0.535   6.444   2.800 -1.1139  2.3842  0.3968
   53CHL1    C8 3862   0.681   6.495   2.958 -0.5632  0.3942  0.2433
   53CHL1    H8 3863   0.753   6.579   2.959  0.0960 -0.1637  1.2616
   53CHL1   C14 3864   0.570   6.536   3.055 -0.0547  0.0984  0.0860
   53CHL1   H14 3865   0.500   6.449   3.050  2.2932 -1.8443 -1.2619
   53CHL1   C15 3866   0.481   6.660   3.024 -0.5510 -0.0274  1.0212
   53CHL1  H15A 3867   0.547   6.746   2.998 -0.9838  0.5884  1.9073
   53CHL1  H15B 3868   0.404   6.631   2.950 -0.7569  1.4567  0.6107
   53CHL1   C16 3869   0.411   6.678   3.155 -0.5283  0.5785 -0.2876
   53CHL1  H16A 3870   0.419   6.784   3.188  1.1122  0.5711 -0.5642
   53CHL1  H16B 3871   0.306   6.644   3.161 -0.7755  1.4829  3.4616
   53CHL1   C17 3872   0.490   6.585   3.261 -0.0862 -0.2069 -0.3757
   53CHL1   H17 3873   0.423   6.497   3.267 -2.1178  1.3498  0.5712
   53CHL1   C13 3874   0.623   6.539   3.198 -0.4931  0.2118 -0.2327
   53CHL1   C18 3875   0.731   6.648   3.218 -0.4015 -0.2699  0.8234
   53CHL1  H18A 3876   0.696   6.740   3.167  1.5469 -0.9353 -1.9328
   53CHL1  H18B 3877   0.762   6.676   3.321  0.7306  0.9005  0.1846
   53CHL1  H18C 3878   0.816   6.616   3.154 -0.6896  0.3992  0.0920
   53CHL1   C12 3879   0.670   6.391   3.232 -0.5207 -0.4101 -0.5965
   53CHL1  H12A 3880   0.703   6.379   3.337 -1.4923 -0.3690 -0.2807
   53CHL1  H12B 3881   0.580   6.329   3.216 -2.0893  1.3639  0.7574
   53CHL1   C11 3882   0.781   6.353   3.140 -0.6254 -0.2562  0.0528
   53CHL1  H11A 3883   0.872   6.412   3.167  0.3507 -2.1532  1.1518
   53CHL1  H11B 3884   0.812   6.248   3.161  2.1383  0.8650  2.2527
   53CHL1    C9 3885   0.748   6.358   2.989 -0.1779 -0.5991  0.3480
   53CHL1    H9 3886   0.669   6.281   2.978 -0.8218  0.0329  0.4933
   53CHL1   C10 3887   0.863   6.317   2.890 -0.0003 -0.0110  0.0947
   53CHL1   C19 3888   0.996   6.392   2.928 -0.7246 -0.2501 -0.7739
   53CHL1  H19A 3889   1.027   6.369   3.032 -0.3817 -0.0431 -0.8282
   53CHL1  H19B 3890   1.088   6.361   2.872  0.1487  1.6599 -0.4634
   53CHL1  H19C 3891   0.985   6.502   2.926 -2.5183 -0.4005 -0.2688
   53CHL1    C1 3892   0.885   6.159   2.891 -0.5245 -0.0319 -0.5086
   53CHL1   H1A 3893   0.909   6.115   2.991  1.5036 -0.2109 -1.0386
   53CHL1   H1B 3894   0.788   6.117   2.857 -0.3045  0.6111 -1.9843
   53CHL1    C2 3895   0.992   6.111   2.798 -0.3728 -0.0988  0.7117
   53CHL1   H2A 3896   0.984   6.000   2.806 -1.4446 -0.3010 -2.0022
   53CHL1   H2B 3897   1.096   6.136   2.827  0.5034 -1.4182 -1.0679
   53CHL1   C20 3898   0.495   6.653   3.398 -0.1736 -0.3329  0.0733
   53CHL1   H20 3899   0.565   6.740   3.395  0.2220 -0.6521 -2.1738
   53CHL1   C21 3900   0.537   6.552   3.503  0.7369 -0.0898  0.3976
   53CHL1  H21A 3901   0.476   6.459   3.497  1.6755 -0.7248  0.5649
   53CHL1  H21B 3902   0.544   6.592   3.606  1.3951  2.1782 -0.4743
   53CHL1  H21C 3903   0.643   6.519   3.494  0.7941  0.4838 -1.6477
   53CHL1   C22 3904   0.353   6.714   3.436  0.1676  0.4411 -0.4361
   53CHL1  H22A 3905   0.309   6.791   3.369 -2.9632 -0.5304  0.3519
   53CHL1  H22B 3906   0.276   6.636   3.416 -0.9398  1.8562 -2.0055
   53CHL1   C23 3907   0.348   6.777   3.575  0.0422 -0.1213  0.3959
   53CHL1  H23A 3908   0.244   6.811   3.596  0.1776 -0.1295  1.1310
   53CHL1  H23B 3909   0.365   6.700   3.653 -3.8298 -0.9593  0.6260
   53CHL1   C24 3910   0.435   6.899   3.597  0.0643  0.4261 -0.2650
   53CHL1  H24A 3911   0.544   6.879   3.586  0.4467  2.0063  0.4422
   53CHL1  H24B 3912   0.418   6.954   3.502  1.8420 -1.2286 -1.6414
   53CHL1   C25 3913   0.399   6.979   3.718 -0.2407 -0.4059 -0.3057
   53CHL1   H25 3914   0.288   6.972   3.730 -0.3650 -0.1814 -1.2755
   53CHL1   C26 3915   0.461   6.910   3.845 -0.2885 -0.3105 -0.0081
   53CHL1  H26A 3916   0.458   6.800   3.831  1.3743 -0.2600 -1.0257
   53CHL1  H26B 3917   0.566   6.945   3.844 -0.1323 -0.7829 -0.6152
   53CHL1  H26C 3918   0.418   6.949   3.940 -0.4114 -0.1349 -0.1371
   53CHL1   C27 3919   0.432   7.129   3.718 -0.0518 -0.2655 -0.1023
   53CHL1  H27A 3920   0.537   7.145   3.684 -0.4583 -1.1855 -1.8803
   53CHL1  H27B 3921   0.377   7.183   3.639 -0.0192 -1.4300 -0.9494
   53CHL1  H27C 3922   0.412   7.167   3.820  0.1285 -1.6114  0.4592
   54CHL1    C3 3923   0.376   5.179   2.973 -0.5176  0.3634 -0.2969
   54CHL1    H3 3924   0.451   5.108   3.012  0.3600  1.3733 -0.0906
   54CHL1    O3 3925   0.354   5.167   2.835 -0.1242 -0.3419  0.5361
   54CHL1   H3' 3926   0.428   5.215   2.796 -0.2008  1.2752  2.2206
   54CHL1    C4 3927   0.245   5.164   3.059  0.0416  0.5393 -0.1141
   54CHL1   H4A 3928   0.158   5.227   3.030 -1.7041 -1.3209  0.8219
   54CHL1   H4B 3929   0.209   5.061   3.042 -0.2143  0.6447 -0.2111
   54CHL1    C5 3930   0.265   5.186   3.213  0.5858 -0.2554  0.4762
   54CHL1    C6 3931   0.243   5.090   3.303 -0.0408  0.0634 -0.2379
   54CHL1    H6 3932   0.222   4.991   3.260 -0.3927  2.1532 -5.6578
   54CHL1    C7 3933   0.252   5.112   3.453 -0.2841 -0.2035  0.3483
   54CHL1   H7A 3934   0.157   5.076   3.498 -1.1204 -2.0160 -2.6168
   54CHL1   H7B 3935   0.332   5.055   3.504 -0.1086 -2.0215 -1.8187
   54CHL1    C8 3936   0.272   5.263   3.494 -0.1221 -0.2054  0.0800
   54CHL1    H8 3937   0.168   5.299   3.479 -0.4757  0.1653  2.8719
   54CHL1   C14 3938   0.307   5.276   3.640 -0.8095 -0.1020  0.9335
   54CHL1   H14 3939   0.411   5.239   3.652 -0.4326  0.1223 -1.2316
   54CHL1   C15 3940   0.228   5.195   3.742 -1.3420 -0.0462 -0.3557
   54CHL1  H15A 3941   0.119   5.189   3.726 -1.3253 -1.0003 -0.1607
   54CHL1  H15B 3942   0.266   5.091   3.750 -1.3950 -0.1787 -1.6013
   54CHL1   C16 3943   0.279   5.254   3.880 -0.0462 -0.5620 -0.0818
   54CHL1  H16A 3944   0.192   5.287   3.941  0.4715  2.2310 -0.7342
   54CHL1  H16B 3945   0.346   5.176   3.923  0.7731  0.5294  0.6755
   54CHL1   C17 3946   0.353   5.383   3.841  0.7123 -0.4622 -0.0267
   54CHL1   H17 3947   0.463   5.368   3.832  0.9635  1.3496 -0.3796
   54CHL1   C13 3948   0.321   5.416   3.693  0.7560  0.3437 -0.2561
   54CHL1   C18 3949   0.188   5.487   3.685 -0.3763  0.1932 -0.6415
   54CHL1  H18A 3950   0.194   5.592   3.719 -0.9691 -0.4916  1.7955
   54CHL1  H18B 3951   0.152   5.491   3.580  0.8409 -1.2501 -1.1527
   54CHL1  H18C 3952   0.109   5.438   3.746  1.3720 -1.1447  0.6946
   54CHL1   C12 3953   0.430   5.486   3.604  0.1537  0.6020 -0.5617
   54CHL1  H12A 3954   0.446   5.594   3.622  3.5277 -0.0284  0.8936
   54CHL1  H12B 3955   0.528   5.442   3.630  0.3491  0.5773 -1.3090
   54CHL1   C11 3956   0.402   5.478   3.454 -0.2703 -0.2814  0.5606
   54CHL1  H11A 3957   0.312   5.541   3.441  1.7316  2.3157 -2.2681
   54CHL1  H11B 3958   0.474   5.540   3.396 -1.3092  0.6070  0.1748
   54CHL1    C9 3959   0.375   5.331   3.403  0.5282  0.1471 -0.2705
   54CHL1    H9 3960   0.470   5.275   3.415 -0.4108 -1.5222 -0.3285
   54CHL1   C10 3961   0.326   5.325   3.249 -0.0843  0.0196  0.3978
   54CHL1   C19 3962   0.226   5.436   3.219  0.2347  0.3651 -0.0503
   54CHL1  H19A 3963   0.282   5.532   3.212  2.8131 -1.0307  0.0514
   54CHL1  H19B 3964   0.163   5.425   3.129 -0.8215 -2.1267  0.8983
   54CHL1  H19C 3965   0.152   5.428   3.301 -1.1547 -0.8656 -1.3799
   54CHL1    C1 3966   0.452   5.340   3.157 -0.0805 -0.1441  0.1252
   54CHL1   H1A 3967   0.501   5.438   3.173  0.2025 -0.4007  0.8920
   54CHL1   H1B 3968   0.526   5.264   3.190  0.2779  0.8530  1.7181
   54CHL1    C2 3969   0.430   5.318   3.002 -0.4919  0.0032 -0.6972
   54CHL1   H2A 3970   0.527   5.330   2.949  0.3549 -1.5459  0.4139
   54CHL1   H2B 3971   0.370   5.402   2.962  0.3016  0.4799 -0.9246
   54CHL1   C20 3972   0.332   5.498   3.944 -0.3856 -0.1927 -0.0749
   54CHL1   H20 3973   0.231   5.545   3.943  0.8535  2.7610 -1.0876
   54CHL1   C21 3974   0.431   5.615   3.911  0.1115 -0.0068  0.5342
   54CHL1  H21A 3975   0.448   5.697   3.983 -0.5692  1.0614 -0.4915
   54CHL1  H21B 3976   0.392   5.665   3.820  1.2712  0.3600  0.2241
   54CHL1  H21C 3977   0.528   5.566   3.889 -0.4983 -1.6312  1.3125
   54CHL1   C22 3978   0.343   5.446   4.087 -0.0940 -0.7142  0.2390
   54CHL1  H22A 3979   0.266   5.368   4.106 -0.0735 -1.4110 -2.1884
   54CHL1  H22B 3980   0.444   5.402   4.105  1.1577  2.4483  1.7531
   54CHL1   C23 3981   0.291   5.551   4.189 -1.2731  0.7192  0.0365
   54CHL1  H23A 3982   0.352   5.644   4.189 -0.7072  0.3664 -1.0210
   54CHL1  H23B 3983   0.185   5.576   4.166 -1.0835  1.1791 -0.3485
   54CHL1   C24 3984   0.310   5.497   4.332  0.3210 -0.2098  0.3878
   54CHL1  H24A 3985   0.260   5.401   4.357 -0.7541  0.5015  1.0271
   54CHL1  H24B 3986   0.420   5.479   4.329 -0.1477 -3.7129 -2.1936
   54CHL1   C25 3987   0.272   5.604   4.430 -0.3593 -0.2371 -0.0292
   54CHL1   H25 3988   0.304   5.703   4.393  1.8156 -1.3902 -1.4765
   54CHL1   C26 3989   0.122   5.605   4.450 -0.3233  0.3468 -0.3001
   54CHL1  H26A 3990   0.086   5.507   4.487  1.2135 -0.2183 -0.2647
   54CHL1  H26B 3991   0.088   5.683   4.522  1.1092  1.0071 -0.3219
   54CHL1  H26C 3992   0.061   5.626   4.360 -1.3017  1.3796  0.5664
   54CHL1   C27 3993   0.337   5.578   4.565 -0.6540  0.3092  0.0070
   54CHL1  H27A 3994   0.304   5.483   4.612  2.7491 -1.8820 -1.6653
   54CHL1  H27B 3995   0.447   5.561   4.555 -0.8094 -0.6110 -0.2364
   54CHL1  H27C 3996   0.331   5.663   4.636 -1.6168 -0.7769  1.2758
   55CHL1    C3 3997   2.430   0.422   2.810 -0.0759  0.2736 -0.4689
   55CHL1    H3 3998   2.364   0.511   2.796 -1.1942 -0.8040 -2.7125
   55CHL1    O3 3999   2.421   0.361   2.683 -0.2288 -0.0374 -0.2505
   55CHL1   H3' 4000   2.499   0.306   2.672 -0.3761 -0.2605 -0.2001
   55CHL1    C4 4001   2.578   0.450   2.836 -0.3522 -0.1877 -0.1691
   55CHL1   H4A 4002   2.642   0.360   2.822  1.4162  1.0769 -0.6128
   55CHL1   H4B 4003   2.614   0.507   2.748 -1.3785  1.7193  0.5827
   55CHL1    C5 4004   2.607   0.507   2.972  0.3551  0.6827  0.2006
   55CHL1    C6 4005   2.668   0.622   2.999  0.1966  0.0440  0.1312
   55CHL1    H6 4006   2.709   0.679   2.914  1.9490 -1.5406 -0.1404
   55CHL1    C7 4007   2.675   0.681   3.136 -0.5685  0.2065 -0.5966
   55CHL1   H7A 4008   2.775   0.726   3.154  0.3556 -1.8745 -0.3050
   55CHL1   H7B 4009   2.599   0.759   3.158  0.6278  1.0688  0.6172
   55CHL1    C8 4010   2.654   0.583   3.256 -0.0413  0.5686 -0.1985
   55CHL1    H8 4011   2.746   0.520   3.252  0.8180  1.7491  0.4407
   55CHL1   C14 4012   2.635   0.657   3.392 -0.6850 -0.0154 -0.5769
   55CHL1   H14 4013   2.546   0.724   3.390  0.2391  1.3367  0.9611
   55CHL1   C15 4014   2.746   0.756   3.438  0.0530 -0.2271  0.1423
   55CHL1  H15A 4015   2.851   0.721   3.428  0.9233  2.2203 -0.1690
   55CHL1  H15B 4016   2.731   0.849   3.379  0.2610 -1.0633 -1.2680
   55CHL1   C16 4017   2.721   0.776   3.595 -0.7545  0.7413 -0.4128
   55CHL1  H16A 4018   2.811   0.751   3.654 -1.3352 -0.7725 -0.1296
   55CHL1  H16B 4019   2.682   0.875   3.626 -0.1549  0.2424  2.1714
   55CHL1   C17 4020   2.616   0.675   3.626  0.0990 -0.1934 -0.8562
   55CHL1   H17 4021   2.523   0.735   3.615 -0.6861 -0.8181  1.7297
   55CHL1   C13 4022   2.610   0.568   3.513  0.2080  0.5539 -0.1107
   55CHL1   C18 4023   2.740   0.482   3.540  0.0059  0.4435  0.1650
   55CHL1  H18A 4024   2.744   0.432   3.639 -1.2751 -0.3483 -0.1563
   55CHL1  H18B 4025   2.757   0.412   3.455  2.3581  1.9047 -0.6740
   55CHL1  H18C 4026   2.831   0.545   3.531  0.3162 -0.2980 -3.2418
   55CHL1   C12 4027   2.485   0.473   3.488 -0.8647 -0.5267  0.6600
   55CHL1  H12A 4028   2.489   0.385   3.555 -0.6238 -1.8052 -0.9766
   55CHL1  H12B 4029   2.393   0.535   3.484  0.1558  0.9772 -1.9152
   55CHL1   C11 4030   2.506   0.402   3.345 -0.2248  0.2631 -0.0163
   55CHL1  H11A 4031   2.603   0.348   3.349 -0.1178  0.3553 -1.1443
   55CHL1  H11B 4032   2.432   0.323   3.320 -0.9265  0.9065  0.0082
   55CHL1    C9 4033   2.526   0.498   3.225 -0.1908  0.5975  0.5854
   55CHL1    H9 4034   2.441   0.569   3.209  0.3582  0.7693 -1.8464
   55CHL1   C10 4035   2.532   0.423   3.083 -0.7841  1.1259  0.3412
   55CHL1   C19 4036   2.614   0.288   3.092  0.0930  0.2055  0.7787
   55CHL1  H19A 4037   2.614   0.219   3.005 -1.5963 -2.6842  2.8536
   55CHL1  H19B 4038   2.717   0.304   3.131 -0.2052  0.5568  1.4466
   55CHL1  H19C 4039   2.557   0.224   3.164 -0.9450 -2.0486 -1.8457
   55CHL1    C1 4040   2.386   0.386   3.044 -0.3360  0.5407  0.1062
   55CHL1   H1A 4041   2.347   0.314   3.119  0.1142  0.2311  0.0448
   55CHL1   H1B 4042   2.324   0.478   3.052  0.4924  1.2478 -1.1651
   55CHL1    C2 4043   2.362   0.321   2.903 -0.4667  0.1498 -0.2948
   55CHL1   H2A 4044   2.253   0.336   2.887 -0.5335  0.0687  0.0887
   55CHL1   H2B 4045   2.395   0.216   2.890 -0.3762  0.3862 -2.4139
   55CHL1   C20 4046   2.625   0.628   3.776  0.2366  0.0356 -0.6991
   55CHL1   H20 4047   2.726   0.585   3.793 -0.2953 -0.9750 -0.0383
   55CHL1   C21 4048   2.514   0.526   3.799  0.5939  1.0386  1.1297
   55CHL1  H21A 4049   2.427   0.562   3.740  1.4398  0.8517 -0.2847
   55CHL1  H21B 4050   2.476   0.514   3.903 -1.5316 -1.0185  0.2002
   55CHL1  H21C 4051   2.542   0.422   3.773 -0.4295  1.0049  0.0666
   55CHL1   C22 4052   2.616   0.750   3.879  0.6294 -0.2169  0.2004
   55CHL1  H22A 4053   2.689   0.828   3.850  1.4396 -0.4025  1.6861
   55CHL1  H22B 4054   2.512   0.784   3.860  2.0221  2.9689 -2.7586
   55CHL1   C23 4055   2.632   0.734   4.034 -0.5185  0.4446  0.0727
   55CHL1  H23A 4056   2.563   0.654   4.068 -0.5558  0.7285  0.6777
   55CHL1  H23B 4057   2.732   0.687   4.050 -1.6483 -1.8712  0.7934
   55CHL1   C24 4058   2.621   0.857   4.120 -0.6879 -0.7983  0.9239
   55CHL1  H24A 4059   2.716   0.913   4.105 -1.3785  0.0687 -0.4149
   55CHL1  H24B 4060   2.540   0.923   4.082  1.0466  1.0411  0.2286
   55CHL1   C25 4061   2.614   0.834   4.275  0.0959 -0.0155  0.0603
   55CHL1   H25 4062   2.520   0.777   4.288  0.7309 -1.1910 -0.4260
   55CHL1   C26 4063   2.726   0.745   4.329  0.4394 -0.1470  0.4314
   55CHL1  H26A 4064   2.820   0.804   4.318  0.4766  0.1535  2.0964
   55CHL1  H26B 4065   2.715   0.731   4.438 -0.0614  0.9293  0.5345
   55CHL1  H26C 4066   2.744   0.651   4.272  2.6278 -0.6970  1.9148
   55CHL1   C27 4067   2.607   0.969   4.349 -0.1358 -0.2373 -0.1308
   55CHL1  H27A 4068   2.507   1.013   4.329 -0.7116 -1.8184 -0.9257
   55CHL1  H27B 4069   2.607   0.949   4.458 -0.3517  0.8372  0.0779
   55CHL1  H27C 4070   2.693   1.036   4.329  0.8086 -1.1963  0.5664
   56CHL1    C3 4071   5.576   0.898   2.817  0.2821 -0.3835  0.1673
   56CHL1    H3 4072   5.504   0.981   2.829 -3.3483 -3.1042 -1.1613
   56CHL1    O3 4073   5.635   0.922   2.688 -0.1920 -0.2100  0.4418
   56CHL1   H3' 4074   5.703   0.855   2.686 -0.3973 -0.4337  0.8497
   56CHL1    C4 4075   5.679   0.879   2.925 -0.0436 -0.3678  0.2208
   56CHL1   H4A 4076   5.747   0.794   2.900 -1.4136 -2.1314  2.1938
   56CHL1   H4B 4077   5.727   0.978   2.911 -2.6710  1.0047  0.2708
   56CHL1    C5 4078   5.611   0.851   3.055 -0.5511  0.5434 -0.3257
   56CHL1    C6 4079   5.638   0.931   3.160 -0.1460  0.2100 -0.1372
   56CHL1    H6 4080   5.715   1.009   3.152  1.2159 -0.9793  0.7345
   56CHL1    C7 4081   5.586   0.903   3.293 -0.2274 -0.2966  0.4782
   56CHL1   H7A 4082   5.662   0.931   3.369 -0.5199  0.1276  0.6196
   56CHL1   H7B 4083   5.493   0.962   3.311 -0.1575  0.1121 -0.4777
   56CHL1    C8 4084   5.562   0.756   3.312  0.3899  0.6151 -0.8239
   56CHL1    H8 4085   5.659   0.703   3.304  0.9560  1.5588 -0.4217
   56CHL1   C14 4086   5.514   0.719   3.449  0.6031  0.6229 -1.2111
   56CHL1   H14 4087   5.414   0.767   3.446  0.7350  0.8533 -2.3041
   56CHL1   C15 4088   5.578   0.790   3.573 -0.6623  0.1459 -0.5935
   56CHL1  H15A 4089   5.689   0.782   3.576 -0.7654 -2.4651 -0.9572
   56CHL1  H15B 4090   5.545   0.895   3.589 -0.2783  0.0754  0.7105
   56CHL1   C16 4091   5.520   0.696   3.681 -0.3446  0.0305  0.3931
   56CHL1  H16A 4092   5.601   0.663   3.749  1.3403  2.8986 -0.0558
   56CHL1  H16B 4093   5.447   0.753   3.744 -0.0011 -0.5689  1.3516
   56CHL1   C17 4094   5.443   0.574   3.618  0.3662  0.3093  0.3465
   56CHL1   H17 4095   5.335   0.598   3.620  0.1301 -0.6514 -0.2171
   56CHL1   C13 4096   5.484   0.578   3.471  1.0181  0.6815 -0.0284
   56CHL1   C18 4097   5.612   0.489   3.444  1.3574 -0.1802 -0.2593
   56CHL1  H18A 4098   5.693   0.529   3.509 -0.1883  0.8530  1.1072
   56CHL1  H18B 4099   5.596   0.380   3.461 -0.2056  0.2215  1.2013
   56CHL1  H18C 4100   5.648   0.502   3.340  0.4474  2.2320 -0.3246
   56CHL1   C12 4101   5.365   0.543   3.377  0.0829 -0.0943  0.4390
   56CHL1  H12A 4102   5.336   0.437   3.390 -1.0743 -0.0755 -1.5194
   56CHL1  H12B 4103   5.277   0.605   3.405  1.5873  1.1690  2.6802
   56CHL1   C11 4104   5.403   0.568   3.226 -0.7722  0.3779 -0.2408
   56CHL1  H11A 4105   5.475   0.487   3.198 -0.5917 -0.0733  1.4572
   56CHL1  H11B 4106   5.319   0.546   3.157  0.3966  2.3774 -2.4426
   56CHL1    C9 4107   5.465   0.710   3.199  0.3596 -0.7172  0.2125
   56CHL1    H9 4108   5.379   0.780   3.192  1.5634  0.6590 -2.1291
   56CHL1   C10 4109   5.529   0.723   3.057 -0.5736 -0.1050 -0.7576
   56CHL1   C19 4110   5.620   0.599   3.024 -0.0367 -0.0891 -0.1571
   56CHL1  H19A 4111   5.700   0.593   3.102 -1.1479  2.3970  1.2789
   56CHL1  H19B 4112   5.561   0.505   3.014 -3.1843  1.8697 -1.4876
   56CHL1  H19C 4113   5.690   0.609   2.938 -0.7561  0.8853 -0.6383
   56CHL1    C1 4114   5.421   0.752   2.949 -0.1481  1.2278 -0.1823
   56CHL1   H1A 4115   5.367   0.655   2.944  1.5266  0.0943  2.1859
   56CHL1   H1B 4116   5.350   0.831   2.982 -1.2210  0.5611 -0.7916
   56CHL1    C2 4117   5.480   0.777   2.807 -0.4924 -0.3716  0.1440
   56CHL1   H2A 4118   5.402   0.807   2.734  1.0188  1.1065 -0.9323
   56CHL1   H2B 4119   5.525   0.681   2.772 -1.1892 -0.2331 -1.1727
   56CHL1   C20 4120   5.438   0.441   3.697 -0.0856  0.7390 -0.5276
   56CHL1   H20 4121   5.543   0.414   3.722 -0.4381  1.3433  1.8693
   56CHL1   C21 4122   5.364   0.324   3.635 -0.1947  0.4973  0.1038
   56CHL1  H21A 4123   5.343   0.239   3.704  0.3033  0.7105  0.5251
   56CHL1  H21B 4124   5.415   0.288   3.544  0.2823  1.5898 -0.0730
   56CHL1  H21C 4125   5.263   0.351   3.597 -1.0704 -2.1401  0.3086
   56CHL1   C22 4126   5.370   0.485   3.830  0.4648  0.2426 -0.2470
   56CHL1  H22A 4127   5.405   0.583   3.869 -0.4733  0.7486 -0.6365
   56CHL1  H22B 4128   5.263   0.497   3.804  0.5764  2.0955  0.0193
   56CHL1   C23 4129   5.389   0.393   3.947 -0.2470 -0.6529  0.4055
   56CHL1  H23A 4130   5.312   0.313   3.941 -0.9443 -0.0175  0.7434
   56CHL1  H23B 4131   5.492   0.351   3.947 -0.3357 -0.9008  1.5580
   56CHL1   C24 4132   5.376   0.470   4.078 -0.0534 -0.0352 -0.1302
   56CHL1  H24A 4133   5.416   0.573   4.078 -2.1921  0.8395 -0.5271
   56CHL1  H24B 4134   5.268   0.472   4.104  0.2169 -2.4628  1.4926
   56CHL1   C25 4135   5.454   0.391   4.180 -0.5052  0.7558 -0.1611
   56CHL1   H25 4136   5.562   0.386   4.151 -0.6666  2.0419 -1.1076
   56CHL1   C26 4137   5.443   0.472   4.310 -0.2464  0.1534  0.1646
   56CHL1  H26A 4138   5.475   0.577   4.294  0.0714  0.5421  2.7875
   56CHL1  H26B 4139   5.339   0.488   4.347  0.1605  4.6973 -0.0821
   56CHL1  H26C 4140   5.511   0.414   4.376 -0.1994 -2.4588 -2.0224
   56CHL1   C27 4141   5.396   0.246   4.188  0.1887  0.1932  0.0048
   56CHL1  H27A 4142   5.288   0.248   4.215 -0.4116 -1.6933 -1.9835
   56CHL1  H27B 4143   5.409   0.188   4.094  4.4072 -0.9628  1.0797
   56CHL1  H27C 4144   5.458   0.189   4.262  1.1678  0.9158 -0.2401
   57SAPC     N 4145   6.499   3.731   6.951 -0.2626 -0.4566  0.1702
   57SAPC   C12 4146   6.558   3.756   6.807  0.7942  0.1474 -0.3122
   57SAPC  H12A 4147   6.478   3.739   6.737 -0.0199  0.3489  0.5533
   57SAPC  H12B 4148   6.628   3.674   6.799 -2.8002 -3.1401 -0.9486
   57SAPC   C13 4149   6.466   3.593   6.976 -0.6017 -0.0517  0.1183
   57SAPC  H13A 4150   6.392   3.553   6.908 -0.5001 -1.5607  0.8603
   57SAPC  H13B 4151   6.556   3.534   6.964  0.0766  1.0342 -0.3081
   57SAPC  H13C 4152   6.415   3.579   7.070 -0.7139 -1.1379 -0.0981
   57SAPC   C14 4153   6.602   3.764   7.056 -0.1578 -0.5555 -0.0838
   57SAPC  H14A 4154   6.571   3.741   7.156  1.4090 -3.5756 -0.1824
   57SAPC  H14B 4155   6.693   3.708   7.039  0.1840  0.3244 -1.2890
   57SAPC  H14C 4156   6.632   3.868   7.050  1.1646 -0.9797 -1.6124
   57SAPC   C15 4157   6.380   3.820   6.968  0.6033  0.9138 -0.7033
   57SAPC  H15A 4158   6.404   3.921   6.939  0.0379  1.3265  0.2009
   57SAPC  H15B 4159   6.298   3.800   6.901 -0.1876  2.4872 -0.2558
   57SAPC  H15C 4160   6.335   3.824   7.067  1.3062 -0.9475 -0.2641
   57SAPC   C11 4161   6.633   3.884   6.772 -0.1512 -0.0842  0.4945
   57SAPC  H11A 4162   6.680   3.883   6.672  0.0298  0.5159  0.5662
   57SAPC  H11B 4163   6.725   3.882   6.834  0.7475  1.0273 -0.7545
   57SAPC     P 4164   6.466   4.078   6.703  0.2156  0.1084 -0.2126
   57SAPC   O13 4165   6.336   4.100   6.771 -0.1610  0.1169  0.0081
   57SAPC   O14 4166   6.546   4.197   6.662 -0.4246  0.0930 -0.2409
   57SAPC   O12 4167   6.561   3.998   6.804  0.1355  0.1042 -0.0792
   57SAPC   O11 4168   6.439   3.974   6.583  0.1675 -0.4228  0.0959
   57SAPC    C1 4169   6.494   4.002   6.453 -0.7221  0.5902 -0.1900
   57SAPC    HA 4170   6.598   4.039   6.469 -0.3142 -1.1800  1.7520
   57SAPC    HB 4171   6.518   3.904   6.406 -0.4021  0.1493  0.8517
   57SAPC    C2 4172   6.409   4.097   6.377  0.1225 -0.2808  1.2690
   57SAPC    HS 4173   6.393   4.188   6.440  1.3702  2.3162 -1.8939
   57SAPC   O21 4174   6.289   4.035   6.340  0.4144 -0.4632  0.1816
   57SAPC   C21 4175   6.180   4.079   6.389  0.2293  0.4750  0.8448
   57SAPC   O22 4176   6.166   4.181   6.453  0.3719 -0.4599  0.1958
   57SAPC   C22 4177   6.061   3.991   6.347  0.4927  0.0055 -0.1037
   57SAPC   H2R 4178   6.086   3.914   6.271 -0.4875  1.1421 -1.6523
   57SAPC   H2S 4179   6.020   3.941   6.437  0.3245  1.1282  0.4578
   57SAPC    C3 4180   6.480   4.153   6.250  0.8618 -0.5205 -0.0057
   57SAPC    HX 4181   6.496   4.063   6.186  0.9884 -0.6969  0.2676
   57SAPC    HY 4182   6.577   4.189   6.289  1.7996 -0.4810 -2.2200
   57SAPC   O31 4183   6.402   4.254   6.179  0.0527  0.6527 -0.1287
   57SAPC   C31 4184   6.396   4.370   6.227 -0.7120 -0.2424 -0.5995
   57SAPC   O32 4185   6.461   4.409   6.321  0.9084 -0.2382 -0.1853
   57SAPC   C32 4186   6.296   4.456   6.149 -0.7093  0.1327 -0.5834
   57SAPC   H2X 4187   6.277   4.554   6.198 -1.7741  0.9408 -2.4975
   57SAPC   H2Y 4188   6.196   4.413   6.171 -0.4307 -0.0294  0.4400
   57SAPC   C23 4189   5.947   4.090   6.289 -0.1336 -0.4073 -0.7720
   57SAPC   H3R 4190   5.956   4.190   6.335  0.8194 -1.3323  1.1644
   57SAPC   H3S 4191   5.850   4.043   6.317 -1.0540  0.7546 -1.8765
   57SAPC   C24 4192   5.949   4.100   6.130 -0.5216  0.3355 -0.4149
   57SAPC   H4R 4193   5.974   3.999   6.092  4.1418  0.3281  1.9287
   57SAPC   H4S 4194   6.027   4.173   6.101  1.1040 -0.4324  1.6746
   57SAPC   C25 4195   5.827   4.145   6.064  0.1478 -0.0753  1.2891
   57SAPC   H5R 4196   5.751   4.182   6.135  0.5864 -0.4051  1.9407
   57SAPC   C26 4197   5.806   4.152   5.930  0.1480  0.5012 -0.3870
   57SAPC   H6R 4198   5.710   4.190   5.891  0.5795  0.3656 -1.6537
   57SAPC   C27 4199   5.905   4.102   5.832  0.0812  0.2049  0.0180
   57SAPC   H7R 4200   5.974   4.029   5.878  1.1860  1.8102  1.0079
   57SAPC   H7S 4201   5.966   4.188   5.797 -1.2130  0.2818 -2.2203
   57SAPC   C28 4202   5.857   4.021   5.713  0.2042  0.3420  0.0322
   57SAPC   H8R 4203   5.774   3.950   5.731  1.5156 -1.5294 -0.9577
   57SAPC   C29 4204   5.903   4.026   5.584 -0.1394 -0.0320 -0.6799
   57SAPC   H9R 4205   5.847   3.980   5.501 -0.7619 -1.5462  0.5230
   57SAPC  C210 4206   6.026   4.100   5.546 -0.3511  0.0403 -0.1562
   57SAPC  H10R 4207   6.053   4.047   5.452 -2.1073  0.7536 -1.1047
   57SAPC  H10S 4208   6.111   4.098   5.617 -1.3367  0.5226  1.0677
   57SAPC  C211 4209   6.007   4.247   5.518  0.6178 -0.4364 -0.5405
   57SAPC  H11R 4210   5.915   4.286   5.563  0.3612 -1.1755 -0.4040
   57SAPC  C212 4211   6.073   4.335   5.439 -0.6141  0.2681 -0.0984
   57SAPC  H12R 4212   6.042   4.440   5.437  0.0096  0.5155  1.7085
   57SAPC  C213 4213   6.181   4.299   5.335  0.5493  0.5029 -1.0035
   57SAPC  H13R 4214   6.255   4.226   5.374  0.6014  0.2852 -1.5096
   57SAPC  H13S 4215   6.229   4.398   5.318 -2.1776  1.9180 -1.0315
   57SAPC  C214 4216   6.128   4.239   5.204 -0.1222 -0.8063 -0.2063
   57SAPC  H14R 4217   6.123   4.129   5.213 -3.0266 -0.7532 -0.1763
   57SAPC  C215 4218   6.089   4.307   5.086  0.1255  0.4380  0.2761
   57SAPC  H15R 4219   6.057   4.253   4.995  1.5855  0.5084 -0.3062
   57SAPC  C216 4220   6.093   4.452   5.053 -0.6950  0.2462  0.0803
   57SAPC  H16R 4221   6.130   4.501   5.145  2.2447  1.0576 -1.4040
   57SAPC  H16S 4222   5.993   4.498   5.039 -1.0024 -0.6759 -0.8408
   57SAPC  C217 4223   6.201   4.478   4.944 -0.0398  0.7207  0.7868
   57SAPC  H17R 4224   6.294   4.418   4.937 -0.6284 -0.0925 -0.4414
   57SAPC  H17S 4225   6.233   4.583   4.958 -1.1022  1.0166  1.0964
   57SAPC  C218 4226   6.139   4.474   4.811  0.2462  0.0899 -0.2118
   57SAPC  H18R 4227   6.049   4.538   4.818  1.7357  2.5236 -1.7574
   57SAPC  H18S 4228   6.113   4.368   4.787  0.1794  0.2508 -0.8846
   57SAPC  C219 4229   6.220   4.528   4.707 -0.3278  1.4560  0.2260
   57SAPC  H19R 4230   6.164   4.516   4.612 -0.9592  1.0524  0.6451
   57SAPC  H19S 4231   6.318   4.478   4.691 -1.0118  0.2001 -0.1526
   57SAPC  C220 4232   6.238   4.677   4.718 -0.4224 -0.0653  0.0621
   57SAPC  H20R 4233   6.301   4.708   4.632 -1.7890  1.8406 -0.3373
   57SAPC  H20S 4234   6.303   4.705   4.803 -1.5896 -0.2896  1.0485
   57SAPC  H20T 4235   6.149   4.744   4.719  0.6741  1.4866 -0.9603
   57SAPC   C33 4236   6.320   4.458   6.000  0.3022  0.4703  0.2450
   57SAPC   H3X 4237   6.427   4.439   5.976  0.2826 -1.0124  1.1993
   57SAPC   H3Y 4238   6.297   4.560   5.961  1.0100  0.9308  0.9969
   57SAPC   C34 4239   6.236   4.343   5.931  0.1644  0.1783  0.8631
   57SAPC   H4X 4240   6.132   4.351   5.968 -1.1479 -0.5269 -2.3552
   57SAPC   H4Y 4241   6.261   4.242   5.969 -0.2736 -0.6437 -0.9206
   57SAPC   C35 4242   6.236   4.341   5.777  1.0965  0.0611 -0.4385
   57SAPC   H5X 4243   6.196   4.434   5.730  1.8311 -0.8319 -2.9749
   57SAPC   H5Y 4244   6.172   4.266   5.727  2.1809 -1.4671  0.3730
   57SAPC   C36 4245   6.375   4.325   5.717 -0.6974  0.5067 -0.5359
   57SAPC   H6X 4246   6.453   4.385   5.768 -0.0344 -1.9798  1.5881
   57SAPC   H6Y 4247   6.369   4.355   5.610 -0.4909 -2.0578 -1.3308
   57SAPC   C37 4248   6.449   4.192   5.729  0.2204 -0.4698  0.0837
   57SAPC   H7X 4249   6.385   4.108   5.694 -3.4710  1.5962  1.2976
   57SAPC   H7Y 4250   6.464   4.161   5.835 -1.2650 -1.1219  0.1360
   57SAPC   C38 4251   6.584   4.182   5.656 -0.3885 -0.6219 -0.8281
   57SAPC   H8X 4252   6.628   4.082   5.675 -1.0744 -0.5464  1.4618
   57SAPC   H8Y 4253   6.655   4.262   5.685 -3.1088  1.4651  0.5620
   57SAPC   C39 4254   6.566   4.207   5.515 -0.5039  0.5905 -1.0481
   57SAPC   H9X 4255   6.533   4.312   5.499 -0.6384  0.6178 -0.6258
   57SAPC   H9Y 4256   6.490   4.134   5.479 -2.6616  1.4308  1.4510
   57SAPC  C310 4257   6.686   4.175   5.433  0.1101 -0.3647  0.3121
   57SAPC  H10X 4258   6.718   4.069   5.445 -0.1362 -0.4627  0.0937
   57SAPC  H10Y 4259   6.768   4.243   5.465 -0.5855  1.4378 -1.4880
   57SAPC  C311 4260   6.657   4.205   5.282  0.2699 -0.0008  0.1822
   57SAPC  H11X 4261   6.655   4.313   5.258 -0.5245  0.1825  0.9972
   57SAPC  H11Y 4262   6.557   4.164   5.257  0.0642  1.2937 -1.2810
   57SAPC  C312 4263   6.754   4.128   5.195 -0.0666  0.3535 -0.9814
   57SAPC  H12X 4264   6.715   4.024   5.194  0.0443  0.3118 -1.3923
   57SAPC  H12Y 4265   6.851   4.133   5.248 -0.7242 -0.4423  0.3475
   57SAPC  C313 4266   6.746   4.189   5.062  0.2900 -0.3440  0.0655
   57SAPC  H13X 4267   6.844   4.180   5.011  1.3974  2.1025  1.5806
   57SAPC  H13Y 4268   6.731   4.299   5.065 -0.6146 -0.4416 -0.4571
   57SAPC  C314 4269   6.631   4.140   4.975  0.3250  0.1706  0.3071
   57SAPC  H14X 4270   6.605   4.194   4.881  0.4315 -1.9699 -1.0150
   57SAPC  H14Y 4271   6.542   4.130   5.041 -0.2617  0.8385 -0.3716
   57SAPC  C315 4272   6.648   3.995   4.927 -0.9728  0.1384 -0.4925
   57SAPC  H15X 4273   6.659   3.937   5.021  2.3581 -0.3357 -1.0507
   57SAPC  H15Y 4274   6.739   3.974   4.867 -0.4693 -0.6791  0.5228
   57SAPC  C316 4275   6.520   3.938   4.865  0.2123 -0.1192  0.0266
   57SAPC  H16X 4276   6.503   3.988   4.767 -4.3538 -1.6710 -0.2387
   57SAPC  H16Y 4277   6.427   3.947   4.926 -0.8440 -0.3692 -1.4656
   57SAPC  C317 4278   6.526   3.789   4.839  0.6339  1.0492  0.1764
   57SAPC  H17X 4279   6.632   3.773   4.811  0.5717  0.1432  0.4435
   57SAPC  H17Y 4280   6.453   3.757   4.762  1.2900 -0.2398  0.0644
   57SAPC  C318 4281   6.484   3.707   4.966 -0.3880  0.5905 -0.0320
   57SAPC  H18X 4282   6.374   3.711   4.975 -0.4786  2.9925 -1.3695
   57SAPC  H18Y 4283   6.532   3.744   5.059  0.9594 -1.8470  0.3190
   57SAPC  H18Z 4284   6.515   3.601   4.956  3.1404  1.6396 -2.5885
   58SAPC     N 4285   5.798   6.058   6.677 -0.6910  0.5927 -0.4450
   58SAPC   C12 4286   5.690   6.165   6.663 -0.4757  0.0108 -0.4803
   58SAPC  H12A 4287   5.669   6.181   6.558 -0.4305 -1.7196 -0.7888
   58SAPC  H12B 4288   5.725   6.258   6.704  3.9637 -1.0636 -1.2984
   58SAPC   C13 4289   5.763   5.930   6.610 -0.7213  0.0918  0.5194
   58SAPC  H13A 4290   5.841   5.856   6.619 -1.9705 -1.1402  1.7581
   58SAPC  H13B 4291   5.677   5.887   6.658 -0.8954  0.0906  0.2053
   58SAPC  H13C 4292   5.745   5.946   6.505  2.0537  0.9042  0.0821
   58SAPC   C14 4293   5.918   6.119   6.610  0.3017  0.3511  0.4461
   58SAPC  H14A 4294   5.974   6.188   6.672 -0.2497 -1.4833  3.1579
   58SAPC  H14B 4295   5.987   6.041   6.582  0.2904 -0.1658  1.7803
   58SAPC  H14C 4296   5.891   6.166   6.516  3.1893 -0.1849 -0.7552
   58SAPC   C15 4297   5.846   6.027   6.823 -0.7921 -0.2650  0.4154
   58SAPC  H15A 4298   5.922   5.951   6.815 -0.9908 -0.4566  0.3409
   58SAPC  H15B 4299   5.883   6.118   6.868 -1.6935  0.0117  0.6144
   58SAPC  H15C 4300   5.762   5.985   6.875  0.1586  1.3557  3.4706
   58SAPC   C11 4301   5.558   6.132   6.742 -0.4087 -0.0323  0.2915
   58SAPC  H11A 4302   5.504   6.229   6.750  1.2561  0.8755  0.9317
   58SAPC  H11B 4303   5.587   6.102   6.845 -0.3952 -0.7518  0.0840
   58SAPC     P 4304   5.407   6.054   6.553  0.1746 -0.1530 -0.2376
   58SAPC   O13 4305   5.294   6.146   6.597 -0.1799  0.0173  0.1344
   58SAPC   O14 4306   5.493   6.104   6.446  0.0225 -0.2187  0.0802
   58SAPC   O12 4307   5.494   6.019   6.678 -0.0308 -0.7307  0.7969
   58SAPC   O11 4308   5.342   5.919   6.511  0.0250  0.2372 -0.1671
   58SAPC    C1 4309   5.414   5.833   6.422 -0.2171 -0.3873 -0.7717
   58SAPC    HA 4310   5.524   5.845   6.434 -0.4880 -0.0531  1.9640
   58SAPC    HB 4311   5.385   5.730   6.452 -1.6539 -0.3234 -1.8246
   58SAPC    C2 4312   5.376   5.881   6.276 -0.9677  0.1216 -0.3199
   58SAPC    HS 4313   5.447   5.964   6.255 -2.5976  1.9337  1.0127
   58SAPC   O21 4314   5.235   5.909   6.261  0.4983  0.4664  0.2519
   58SAPC   C21 4315   5.213   6.006   6.168  0.1687 -0.1122 -0.4376
   58SAPC   O22 4316   5.301   6.057   6.104  0.0353  0.4428 -0.3452
   58SAPC   C22 4317   5.064   6.047   6.165 -0.1455  0.1832  0.0887
   58SAPC   H2R 4318   5.025   6.056   6.269  0.5293  1.9251  0.2234
   58SAPC   H2S 4319   5.045   6.150   6.131 -1.5485  0.4768  1.6331
   58SAPC    C3 4320   5.410   5.753   6.190  0.1216 -0.7414  0.0286
   58SAPC    HX 4321   5.337   5.674   6.219  0.6572 -1.4383 -0.4907
   58SAPC    HY 4322   5.501   5.707   6.234  0.4499  0.8870  1.1420
   58SAPC   O31 4323   5.415   5.770   6.044  0.3791 -0.0400  0.2228
   58SAPC   C31 4324   5.535   5.794   5.995  0.0119 -0.5830 -0.1528
   58SAPC   O32 4325   5.636   5.805   6.062  0.1166  0.4659  0.4917
   58SAPC   C32 4326   5.535   5.806   5.844 -0.1182  0.0551 -0.3903
   58SAPC   H2X 4327   5.506   5.911   5.821 -0.4598 -0.1425 -0.8774
   58SAPC   H2Y 4328   5.459   5.735   5.806 -0.0155 -1.0053  1.3051
   58SAPC   C23 4329   4.988   5.944   6.077  0.2703  0.1173 -0.6826
   58SAPC   H3R 4330   4.883   5.980   6.081  0.6043  1.0169  0.8287
   58SAPC   H3S 4331   4.998   5.845   6.126  2.9522  0.3466 -0.5942
   58SAPC   C24 4332   5.035   5.932   5.928  0.0763  0.0369  0.1033
   58SAPC   H4R 4333   4.983   5.843   5.887  1.9425 -0.9272 -0.2450
   58SAPC   H4S 4334   5.142   5.906   5.917  0.1121  0.0729  0.3511
   58SAPC   C25 4335   5.020   6.056   5.838  0.5566 -0.2255 -0.0147
   58SAPC   H5R 4336   4.963   6.134   5.889  1.2449  1.7023 -2.0200
   58SAPC   C26 4337   5.066   6.076   5.715 -0.6898  0.1364 -0.5821
   58SAPC   H6R 4338   5.054   6.175   5.670 -2.0927  0.0481 -0.4555
   58SAPC   C27 4339   5.153   5.981   5.636 -0.0969  0.0917 -0.8024
   58SAPC   H7R 4340   5.094   5.891   5.610  0.1468 -0.9249  1.8437
   58SAPC   H7S 4341   5.231   5.945   5.706  0.5100 -0.2789 -1.6580
   58SAPC   C28 4342   5.228   6.041   5.515 -0.3480 -0.3775  0.4612
   58SAPC   H8R 4343   5.314   6.102   5.546 -1.2991  0.8368  0.8225
   58SAPC   C29 4344   5.201   6.025   5.384 -0.2624  0.5819 -0.6380
   58SAPC   H9R 4345   5.256   6.078   5.306 -1.6632 -0.3689 -2.3406
   58SAPC  C210 4346   5.102   5.927   5.334  0.9003  0.2665  0.8497
   58SAPC  H10R 4347   5.036   5.882   5.411 -0.1056  2.1566  1.1576
   58SAPC  H10S 4348   5.146   5.848   5.270 -0.5925  1.3096 -1.5997
   58SAPC  C211 4349   5.005   6.006   5.248 -0.2719  0.4652 -0.3880
   58SAPC  H11R 4350   4.919   6.039   5.309 -1.0922 -1.1642 -0.5945
   58SAPC  C212 4351   5.027   6.056   5.125  0.2617 -0.7520  0.2265
   58SAPC  H12R 4352   4.948   6.116   5.077  1.1661  0.5098  0.2789
   58SAPC  C213 4353   5.137   6.029   5.033  0.5639 -0.1735 -0.2975
   58SAPC  H13R 4354   5.229   5.986   5.078  0.0094 -0.9419  0.1248
   58SAPC  H13S 4355   5.158   6.125   4.982  0.7755 -0.2417 -0.3422
   58SAPC  C214 4356   5.093   5.930   4.931  0.6642 -0.5865 -0.0391
   58SAPC  H14R 4357   5.120   5.828   4.963  0.4143 -0.2602  1.2668
   58SAPC  C215 4358   5.028   5.955   4.811 -0.0458  0.0635  0.0950
   58SAPC  H15R 4359   5.009   5.872   4.741 -2.2084  0.7312 -0.1846
   58SAPC  C216 4360   4.975   6.088   4.759  0.2502  0.2775  0.3247
   58SAPC  H16R 4361   5.048   6.121   4.682  2.3090 -0.1159  2.0218
   58SAPC  H16S 4362   4.988   6.161   4.842  2.4123 -0.2840  0.5506
   58SAPC  C217 4363   4.838   6.086   4.681  0.7993 -0.2236  0.4363
   58SAPC  H17R 4364   4.811   6.188   4.648  1.2921  0.0853  0.9541
   58SAPC  H17S 4365   4.763   6.053   4.757  1.0390 -0.0862  0.7379
   58SAPC  C218 4366   4.826   6.002   4.556 -0.1845 -0.0308  0.3563
   58SAPC  H18R 4367   4.868   5.899   4.557  2.0420  0.8225  1.7307
   58SAPC  H18S 4368   4.891   6.045   4.477  0.9856 -0.3265  1.1279
   58SAPC  C219 4369   4.685   5.986   4.513 -0.1836  0.2300 -0.4385
   58SAPC  H19R 4370   4.640   6.084   4.485 -1.0956  0.7251  2.3880
   58SAPC  H19S 4371   4.628   5.952   4.602 -0.4797 -0.8554 -1.0340
   58SAPC  C220 4372   4.666   5.892   4.399 -0.1923 -0.2415 -0.2361
   58SAPC  H20R 4373   4.704   5.792   4.428 -0.0563 -0.1802 -0.2003
   58SAPC  H20S 4374   4.721   5.917   4.306  1.7710  0.4899  1.0654
   58SAPC  H20T 4375   4.558   5.877   4.376 -1.1852  1.3103  2.8873
   58SAPC   C33 4376   5.668   5.762   5.789 -0.9550 -1.1607  0.2208
   58SAPC   H3X 4377   5.686   5.655   5.812  1.0112 -0.6789  1.1651
   58SAPC   H3Y 4378   5.752   5.820   5.834 -0.3680 -1.5449 -0.3627
   58SAPC   C34 4379   5.683   5.794   5.637  0.1292  0.7128  0.9672
   58SAPC   H4X 4380   5.607   5.744   5.574  0.9345  1.3245 -0.5320
   58SAPC   H4Y 4381   5.782   5.761   5.601 -0.6114  1.9932 -2.6125
   58SAPC   C35 4382   5.676   5.949   5.605 -0.2655  0.3959 -0.1498
   58SAPC   H5X 4383   5.740   6.000   5.681 -0.9172  0.7395  0.1768
   58SAPC   H5Y 4384   5.579   5.999   5.622 -0.6160 -0.5153  0.6818
   58SAPC   C36 4385   5.727   5.977   5.464 -0.2908  0.5431  0.0523
   58SAPC   H6X 4386   5.664   5.923   5.390  0.6842  2.0227 -1.9941
   58SAPC   H6Y 4387   5.830   5.939   5.444 -1.3212 -0.9347 -3.0280
   58SAPC   C37 4388   5.716   6.128   5.437 -0.3138  0.4571 -0.3704
   58SAPC   H7X 4389   5.807   6.168   5.488 -1.5648  2.1889  0.5995
   58SAPC   H7Y 4390   5.634   6.181   5.489  1.4842  1.4483  1.5939
   58SAPC   C38 4391   5.714   6.165   5.289 -0.7122  0.2759 -0.2993
   58SAPC   H8X 4392   5.616   6.201   5.251  0.2452  0.6778 -2.5323
   58SAPC   H8Y 4393   5.735   6.078   5.223  0.8323 -2.2105  3.1598
   58SAPC   C39 4394   5.806   6.282   5.257 -0.4755 -0.3254 -0.3429
   58SAPC   H9X 4395   5.907   6.250   5.291  0.0672  1.5997 -0.0534
   58SAPC   H9Y 4396   5.771   6.375   5.305 -2.8899 -0.5852 -1.4695
   58SAPC  C310 4397   5.814   6.315   5.107  1.4443  0.4725  0.2024
   58SAPC  H10X 4398   5.715   6.299   5.059  0.8707  1.0287  1.1492
   58SAPC  H10Y 4399   5.888   6.260   5.046 -0.0082  0.6084 -1.8020
   58SAPC  C311 4400   5.828   6.463   5.084  0.2030 -0.0034  0.5454
   58SAPC  H11X 4401   5.932   6.492   5.112 -0.4287  2.2359  0.8035
   58SAPC  H11Y 4402   5.754   6.516   5.147  2.0090 -0.1539  2.9554
   58SAPC  C312 4403   5.809   6.510   4.938 -0.6156 -0.4004 -0.7509
   58SAPC  H12X 4404   5.702   6.507   4.910 -0.5082  2.2128 -1.8075
   58SAPC  H12Y 4405   5.872   6.444   4.874  1.4933  0.2368  0.5567
   58SAPC  C313 4406   5.851   6.656   4.919  0.4197 -0.3951  0.4897
   58SAPC  H13X 4407   5.953   6.680   4.953  0.7376  1.7333 -1.7093
   58SAPC  H13Y 4408   5.787   6.719   4.984  0.2111  1.8225 -1.7427
   58SAPC  C314 4409   5.857   6.699   4.767 -0.4786  0.3817 -0.6637
   58SAPC  H14X 4410   5.913   6.622   4.711  0.3512  0.5737 -0.1119
   58SAPC  H14Y 4411   5.899   6.801   4.759 -1.9079  0.9991 -0.5317
   58SAPC  C315 4412   5.713   6.702   4.717  0.2238  0.2403 -0.5483
   58SAPC  H15X 4413   5.650   6.765   4.784 -1.6791  0.8991 -2.8048
   58SAPC  H15Y 4414   5.680   6.597   4.705 -0.8241  0.5353 -0.4183
   58SAPC  C316 4415   5.683   6.776   4.586  0.5060 -0.2320 -0.0941
   58SAPC  H16X 4416   5.729   6.734   4.494  3.1870 -0.5344  1.3103
   58SAPC  H16Y 4417   5.706   6.884   4.598 -2.7317  0.3151  2.5562
   58SAPC  C317 4418   5.530   6.791   4.547 -0.0762 -0.1368 -0.1328
   58SAPC  H17X 4419   5.532   6.892   4.500  1.1821 -0.1317 -0.1231
   58SAPC  H17Y 4420   5.469   6.811   4.637  1.1724  2.6861  0.1969
   58SAPC  C318 4421   5.473   6.697   4.446  1.0920  1.3516  0.2675
   58SAPC  H18X 4422   5.450   6.604   4.502  2.6638 -0.7533 -2.3262
   58SAPC  H18Y 4423   5.545   6.687   4.361  0.0624  3.4853 -0.9317
   58SAPC  H18Z 4424   5.382   6.721   4.388 -0.6680 -1.8412  1.4640
   59SAPC     N 4425   2.008   2.261   6.771  0.1217  0.5878 -0.7364
   59SAPC   C12 4426   2.061   2.121   6.763  0.3103  0.4839 -0.2681
   59SAPC  H12A 4427   2.048   2.060   6.852 -0.9166 -2.4364 -2.3002
   59SAPC  H12B 4428   2.168   2.135   6.756  0.2096  0.5399 -2.2754
   59SAPC   C13 4429   2.042   2.317   6.909 -0.8910  0.2138  0.0529
   59SAPC  H13A 4430   2.031   2.424   6.903 -5.3487 -0.0780 -0.4094
   59SAPC  H13B 4431   1.967   2.281   6.979 -1.1531  0.3654 -0.1463
   59SAPC  H13C 4432   2.141   2.302   6.948 -0.3845  2.2972 -0.3422
   59SAPC   C14 4433   2.068   2.344   6.665 -0.2574 -0.6012 -0.0072
   59SAPC  H14A 4434   2.045   2.323   6.562 -2.7556 -0.4496  0.4410
   59SAPC  H14B 4435   2.035   2.443   6.694  0.5987 -0.5539  0.8512
   59SAPC  H14C 4436   2.175   2.344   6.679 -0.3603  0.0993  0.8758
   59SAPC   C15 4437   1.859   2.260   6.766 -0.8832  0.1632  0.4619
   59SAPC  H15A 4438   1.822   2.202   6.683  2.3095 -0.9532 -0.3264
   59SAPC  H15B 4439   1.819   2.231   6.862 -3.4716 -0.0682 -0.6086
   59SAPC  H15C 4440   1.824   2.360   6.744 -2.5528 -0.8854 -2.1189
   59SAPC   C11 4441   2.035   2.042   6.636 -0.2587  0.2108  0.0411
   59SAPC  H11A 4442   2.061   1.938   6.666 -2.4576 -0.0864  1.1527
   59SAPC  H11B 4443   2.094   2.074   6.548  1.8515 -0.9075  0.9727
   59SAPC     P 4444   1.793   1.922   6.623  0.1069  0.5550 -0.5073
   59SAPC   O13 4445   1.867   1.802   6.663 -0.0144  0.0779 -0.1073
   59SAPC   O14 4446   1.682   1.965   6.717 -0.2565 -0.2579 -0.3850
   59SAPC   O12 4447   1.894   2.044   6.607  0.5602  0.2809  0.2229
   59SAPC   O11 4448   1.740   1.896   6.481  0.5395  0.1676  0.1809
   59SAPC    C1 4449   1.825   1.876   6.371  0.5866  0.0646 -1.1375
   59SAPC    HA 4450   1.840   1.972   6.317  0.6502  1.6894  1.5562
   59SAPC    HB 4451   1.921   1.831   6.403 -0.6638 -3.1185 -1.4316
   59SAPC    C2 4452   1.765   1.764   6.283  0.7517  0.2354  0.3014
   59SAPC    HS 4453   1.838   1.737   6.204 -0.3739 -1.6583 -0.1600
   59SAPC   O21 4454   1.631   1.805   6.234 -0.8318  0.1990  0.1304
   59SAPC   C21 4455   1.648   1.902   6.138  0.1574 -0.0895  0.4584
   59SAPC   O22 4456   1.753   1.930   6.094 -0.6467 -0.0019 -0.6141
   59SAPC   C22 4457   1.513   1.940   6.077 -0.1354 -0.8104  0.4708
   59SAPC   H2R 4458   1.455   1.847   6.057 -0.7494 -0.3871  0.2769
   59SAPC   H2S 4459   1.461   1.997   6.156 -3.5886 -0.4487 -1.8579
   59SAPC    C3 4460   1.744   1.629   6.360 -0.0882  0.2361  0.2833
   59SAPC    HX 4461   1.670   1.643   6.442  0.7015 -0.0768  1.0804
   59SAPC    HY 4462   1.840   1.598   6.407 -0.1208 -0.6490 -0.2314
   59SAPC   O31 4463   1.717   1.519   6.266  0.3134 -0.1638  0.7010
   59SAPC   C31 4464   1.592   1.471   6.260 -0.2426  0.6737  0.7192
   59SAPC   O32 4465   1.505   1.514   6.326 -0.3423 -0.3905 -0.4103
   59SAPC   C32 4466   1.571   1.366   6.160 -0.7646 -0.2279 -0.0229
   59SAPC   H2X 4467   1.528   1.280   6.215 -2.2166 -0.3732 -1.3240
   59SAPC   H2Y 4468   1.668   1.338   6.115 -0.1070 -1.3945  1.9863
   59SAPC   C23 4469   1.527   2.020   5.944 -0.5170 -0.1383 -0.4321
   59SAPC   H3R 4470   1.603   2.098   5.968 -2.0115  0.7074  1.9286
   59SAPC   H3S 4471   1.434   2.072   5.915 -0.5279 -1.1898 -2.4657
   59SAPC   C24 4472   1.579   1.942   5.817  0.5806  0.7923  0.4417
   59SAPC   H4R 4473   1.512   1.855   5.803  2.4446 -0.5278 -0.7331
   59SAPC   H4S 4474   1.678   1.897   5.841 -0.4688 -0.9203  1.8140
   59SAPC   C25 4475   1.598   2.030   5.700 -0.3197  0.7011 -0.2608
   59SAPC   H5R 4476   1.624   2.129   5.740  2.1753  0.4543 -1.1346
   59SAPC   C26 4477   1.546   2.001   5.574 -0.7265 -0.2477  0.3219
   59SAPC   H6R 4478   1.567   2.072   5.492  0.9911  0.9283  1.7067
   59SAPC   C27 4479   1.473   1.874   5.538  0.1733  0.8113 -0.2472
   59SAPC   H7R 4480   1.429   1.833   5.630  2.4581 -1.0478  0.1132
   59SAPC   H7S 4481   1.534   1.790   5.497 -1.0252 -0.3192  0.2544
   59SAPC   C28 4482   1.371   1.910   5.429 -0.1593 -0.1561 -0.5576
   59SAPC   H8R 4483   1.270   1.910   5.471 -0.3489 -1.5852 -0.9321
   59SAPC   C29 4484   1.391   1.935   5.303 -0.8632 -0.1949  0.9395
   59SAPC   H9R 4485   1.307   1.974   5.243 -0.1820  0.2316  0.2376
   59SAPC  C210 4486   1.526   1.936   5.233 -0.9642  0.7639 -0.1829
   59SAPC  H10R 4487   1.518   1.846   5.169 -0.4679 -0.1070  0.9417
   59SAPC  H10S 4488   1.612   1.899   5.292  0.9792 -0.7111 -3.6855
   59SAPC  C211 4489   1.555   2.055   5.147 -0.4148  0.3490  0.1767
   59SAPC  H11R 4490   1.581   2.146   5.202 -1.3483 -0.2930  1.7663
   59SAPC  C212 4491   1.574   2.060   5.012 -0.0569 -0.3648 -0.2401
   59SAPC  H12R 4492   1.608   2.155   4.967  0.3073 -0.3666  0.0237
   59SAPC  C213 4493   1.550   1.949   4.910 -0.2759  0.0460 -0.3407
   59SAPC  H13R 4494   1.464   1.992   4.853 -0.6292 -0.0816  0.0848
   59SAPC  H13S 4495   1.507   1.852   4.942 -1.1095 -0.1133 -1.8121
   59SAPC  C214 4496   1.668   1.926   4.820  0.5645  0.2705 -0.2794
   59SAPC  H14R 4497   1.748   1.869   4.869  0.8213  1.2337  0.4587
   59SAPC  C215 4498   1.677   1.965   4.690  0.2064 -0.7748  0.1281
   59SAPC  H15R 4499   1.757   1.913   4.636 -0.3733 -2.1697  0.5627
   59SAPC  C216 4500   1.571   2.037   4.607  0.1686  0.4300  0.1757
   59SAPC  H16R 4501   1.578   2.146   4.629 -0.6304  0.3077  1.0980
   59SAPC  H16S 4502   1.468   2.010   4.638 -0.9620  0.5142 -3.1360
   59SAPC  C217 4503   1.573   2.029   4.454 -0.3721 -0.3806 -0.7948
   59SAPC  H17R 4504   1.471   2.064   4.427 -0.1371  1.9406  0.9970
   59SAPC  H17S 4505   1.581   1.925   4.416 -4.7212 -1.0827 -0.3174
   59SAPC  C218 4506   1.681   2.122   4.395 -0.0951 -0.2192 -0.6492
   59SAPC  H18R 4507   1.778   2.090   4.438 -1.1279 -0.9529  1.2732
   59SAPC  H18S 4508   1.661   2.227   4.424 -0.5230 -0.0363 -1.5726
   59SAPC  C219 4509   1.686   2.114   4.240  0.1404  0.6363  0.2270
   59SAPC  H19R 4510   1.582   2.116   4.201  0.8739  0.5114 -1.8771
   59SAPC  H19S 4511   1.735   2.020   4.210  0.5744  1.1140 -0.5899
   59SAPC  C220 4512   1.760   2.234   4.186  0.0876  0.5111  0.5622
   59SAPC  H20R 4513   1.749   2.237   4.075  0.1358  0.9365  0.5704
   59SAPC  H20S 4514   1.865   2.215   4.215  0.2648 -0.2654 -0.5185
   59SAPC  H20T 4515   1.719   2.325   4.234 -0.9073  0.2456  0.2609
   59SAPC   C33 4516   1.469   1.411   6.047 -0.7863  0.4719  0.0065
   59SAPC   H3X 4517   1.391   1.479   6.087 -0.4706  2.2779 -2.1868
   59SAPC   H3Y 4518   1.418   1.320   6.008  0.1300  0.1367 -0.4221
   59SAPC   C34 4519   1.528   1.478   5.928 -0.1330 -0.9337  0.5629
   59SAPC   H4X 4520   1.553   1.410   5.844 -1.2202  1.3053 -1.6825
   59SAPC   H4Y 4521   1.620   1.532   5.959 -0.9364  2.1424 -1.9837
   59SAPC   C35 4522   1.424   1.581   5.865  0.5249  0.1309 -0.4183
   59SAPC   H5X 4523   1.483   1.642   5.794 -0.1146 -0.7471 -1.7468
   59SAPC   H5Y 4524   1.372   1.638   5.946 -2.5178  0.4815 -2.4351
   59SAPC   C36 4525   1.302   1.507   5.798 -1.2372  0.4922 -0.1902
   59SAPC   H6X 4526   1.239   1.444   5.863 -0.1615  0.2327  0.6275
   59SAPC   H6Y 4527   1.359   1.454   5.718  1.4776  3.6332 -0.5668
   59SAPC   C37 4528   1.203   1.603   5.736  0.2055 -0.3217  0.6822
   59SAPC   H7X 4529   1.225   1.708   5.765  0.6413  0.1200 -1.0997
   59SAPC   H7Y 4530   1.103   1.572   5.773  0.7292  1.2423  3.6947
   59SAPC   C38 4531   1.198   1.599   5.583 -0.0880  0.0171 -0.9266
   59SAPC   H8X 4532   1.185   1.496   5.544 -0.1532 -0.0340 -0.7717
   59SAPC   H8Y 4533   1.294   1.644   5.548  0.9230  0.5038  2.1444
   59SAPC   C39 4534   1.080   1.689   5.540 -0.1220  0.3178  0.2089
   59SAPC   H9X 4535   1.116   1.782   5.588  1.6156  0.0383 -0.4868
   59SAPC   H9Y 4536   0.986   1.650   5.584  0.4994 -1.4164  0.0835
   59SAPC  C310 4537   1.064   1.708   5.391  0.1518 -0.7668  0.5540
   59SAPC  H10X 4538   1.039   1.613   5.338 -0.0903 -0.4156  0.0385
   59SAPC  H10Y 4539   1.160   1.747   5.352 -1.4203  1.8486 -0.9156
   59SAPC  C311 4540   0.959   1.820   5.363 -0.0520 -0.3038  0.1298
   59SAPC  H11X 4541   0.996   1.923   5.380 -2.2382  0.7585 -1.0066
   59SAPC  H11Y 4542   0.880   1.804   5.439  0.9615  2.1443  1.8180
   59SAPC  C312 4543   0.897   1.825   5.215  0.4459  0.0612 -0.3600
   59SAPC  H12X 4544   0.823   1.908   5.217 -0.3246 -0.6162 -0.3501
   59SAPC  H12Y 4545   0.837   1.734   5.199 -0.4794  0.7191 -0.6858
   59SAPC  C313 4546   0.992   1.827   5.094  0.3466  0.0084  0.0619
   59SAPC  H13X 4547   1.060   1.739   5.094  0.3840 -0.2614 -5.1701
   59SAPC  H13Y 4548   1.052   1.920   5.092  0.0060  0.3418  2.4071
   59SAPC  C314 4549   0.915   1.816   4.971  0.0028 -0.5498  0.5221
   59SAPC  H14X 4550   0.849   1.726   4.975 -2.0863  0.8556 -0.4859
   59SAPC  H14Y 4551   0.989   1.798   4.891  1.0769  0.3603  1.2765
   59SAPC  C315 4552   0.824   1.936   4.940 -0.3357 -0.8012 -0.2257
   59SAPC  H15X 4553   0.808   1.999   5.030  3.3492 -1.2226  0.9234
   59SAPC  H15Y 4554   0.723   1.896   4.919  0.1355 -2.1999  0.0108
   59SAPC  C316 4555   0.864   2.028   4.824 -0.7364 -0.4455 -0.3439
   59SAPC  H16X 4556   0.853   1.977   4.726  1.3975 -0.3278 -0.7062
   59SAPC  H16Y 4557   0.972   2.054   4.837 -0.3891 -1.8128 -0.3386
   59SAPC  C317 4558   0.778   2.158   4.830 -0.0470 -1.2129  0.3139
   59SAPC  H17X 4559   0.775   2.188   4.937  0.3236 -0.7389  0.1971
   59SAPC  H17Y 4560   0.670   2.144   4.809  0.2320 -1.6288 -0.9886
   59SAPC  C318 4561   0.822   2.265   4.729 -0.4422  0.0917 -0.5102
   59SAPC  H18X 4562   0.774   2.364   4.741 -0.7177  0.2418 -2.6087
   59SAPC  H18Y 4563   0.801   2.234   4.625 -1.8917  1.7842 -0.7637
   59SAPC  H18Z 4564   0.931   2.280   4.750 -0.6249 -0.1829  0.7117
   60SAPC     N 4565   3.317   2.231   7.176 -0.8278  0.0606  0.0404
   60SAPC   C12 4566   3.370   2.138   7.062 -0.3861 -0.1571  0.0746
   60SAPC  H12A 4567   3.465   2.097   7.091 -1.3795 -0.8008  2.7175
   60SAPC  H12B 4568   3.388   2.203   6.978  1.2743 -1.5589 -0.7136
   60SAPC   C13 4569   3.205   2.316   7.138 -0.0414  0.0049  0.9769
   60SAPC  H13A 4570   3.217   2.344   7.035 -1.6803 -1.7915  0.2224
   60SAPC  H13B 4571   3.111   2.261   7.142  0.2943 -0.6429  0.2559
   60SAPC  H13C 4572   3.190   2.402   7.201 -0.1936 -0.2745  1.3313
   60SAPC   C14 4573   3.286   2.154   7.304  0.4519 -0.3645  0.0576
   60SAPC  H14A 4574   3.376   2.136   7.362  1.3524 -1.3880 -1.5706
   60SAPC  H14B 4575   3.221   2.211   7.368  2.7660  1.9879  0.4843
   60SAPC  H14C 4576   3.250   2.054   7.285  1.2797 -0.4591 -1.1190
   60SAPC   C15 4577   3.423   2.325   7.213 -0.5584 -0.3427 -0.5252
   60SAPC  H15A 4578   3.504   2.270   7.260 -1.9303 -2.3564 -0.3878
   60SAPC  H15B 4579   3.474   2.381   7.136  0.0015 -0.5391 -0.3048
   60SAPC  H15C 4580   3.383   2.389   7.290  1.6766  0.9171 -0.3122
   60SAPC   C11 4581   3.269   2.035   7.004  0.1886  0.1556  0.0637
   60SAPC  H11A 4582   3.231   1.977   7.091  0.7034 -1.7728 -0.9462
   60SAPC  H11B 4583   3.328   1.967   6.939  1.9378  0.2430  1.4828
   60SAPC     P 4584   3.192   2.160   6.792  0.4409 -0.0012 -0.7052
   60SAPC   O13 4585   3.067   2.183   6.714 -0.2242  0.2564 -0.2531
   60SAPC   O14 4586   3.278   2.279   6.811 -0.3323 -0.1176 -0.3318
   60SAPC   O12 4587   3.159   2.093   6.929  0.3143  0.0103  0.2985
   60SAPC   O11 4588   3.278   2.053   6.718  0.2093 -0.1452  0.4661
   60SAPC    C1 4589   3.395   2.080   6.646 -1.0283 -0.5057 -0.5824
   60SAPC    HA 4590   3.471   2.123   6.714 -0.4240 -1.0364 -0.9026
   60SAPC    HB 4591   3.428   1.977   6.621 -2.6427 -0.7492 -1.8915
   60SAPC    C2 4592   3.375   2.161   6.518 -0.1619 -0.5659  0.4207
   60SAPC    HS 4593   3.357   2.265   6.551  2.9266  0.3773 -0.5525
   60SAPC   O21 4594   3.267   2.103   6.436  0.1537 -0.1069  0.1366
   60SAPC   C21 4595   3.198   2.189   6.369  0.2620  0.3231  0.7555
   60SAPC   O22 4596   3.203   2.308   6.373 -0.6297  0.2565 -0.1276
   60SAPC   C22 4597   3.111   2.108   6.268  0.7937 -1.0111 -0.3413
   60SAPC   H2R 4598   3.174   2.023   6.237  1.5078  0.0779 -2.0373
   60SAPC   H2S 4599   3.010   2.086   6.309 -0.3157  2.8780 -0.5424
   60SAPC    C3 4600   3.506   2.187   6.429 -0.0692  0.6906  0.9820
   60SAPC    HX 4601   3.566   2.095   6.413 -0.2045  0.6361  0.7826
   60SAPC    HY 4602   3.575   2.248   6.491  0.7221 -0.1911  0.9895
   60SAPC   O31 4603   3.474   2.252   6.303  0.1322 -0.0945 -0.2036
   60SAPC   C31 4604   3.532   2.370   6.280  0.6406  0.3541  0.4978
   60SAPC   O32 4605   3.629   2.414   6.339  0.2162  0.7056 -0.2705
   60SAPC   C32 4606   3.459   2.435   6.158  0.2571  0.0302  0.4659
   60SAPC   H2X 4607   3.439   2.543   6.177 -1.2800 -0.0812 -0.4172
   60SAPC   H2Y 4608   3.364   2.381   6.137  0.8320  0.5967 -4.7631
   60SAPC   C23 4609   3.099   2.184   6.128 -0.1371 -0.2697  0.1424
   60SAPC   H3R 4610   3.049   2.114   6.058 -1.8701  0.2717  0.8060
   60SAPC   H3S 4611   3.194   2.221   6.083 -1.4158  0.3587 -2.1908
   60SAPC   C24 4612   2.999   2.305   6.137 -0.0212  0.4331 -0.4113
   60SAPC   H4R 4613   3.058   2.394   6.106  0.4268 -0.3476 -1.9142
   60SAPC   H4S 4614   2.978   2.319   6.245  1.1338  0.1147 -0.1314
   60SAPC   C25 4615   2.865   2.292   6.071 -0.8403  0.1989  0.4730
   60SAPC   H5R 4616   2.776   2.336   6.119 -1.0625  0.9710 -0.6081
   60SAPC   C26 4617   2.841   2.242   5.950 -0.2267  0.1130  0.2392
   60SAPC   H6R 4618   2.734   2.228   5.930 -0.0287  1.3323 -2.0117
   60SAPC   C27 4619   2.926   2.199   5.835  0.3508 -0.6097 -0.1074
   60SAPC   H7R 4620   3.031   2.233   5.849  0.6025 -1.4680  0.1390
   60SAPC   H7S 4621   2.891   2.261   5.749 -2.5887 -0.0268  1.3829
   60SAPC   C28 4622   2.939   2.057   5.810  0.8547 -0.4032 -0.0426
   60SAPC   H8R 4623   2.927   1.990   5.897 -1.3143 -0.7084 -0.5376
   60SAPC   C29 4624   2.943   2.003   5.694 -0.1337 -0.3025 -0.2440
   60SAPC   H9R 4625   2.954   1.895   5.682  0.1943 -0.3961  0.8055
   60SAPC  C210 4626   2.955   2.078   5.563  0.0681  0.2471  0.2207
   60SAPC  H10R 4627   2.981   2.186   5.573  1.2939 -0.0897  0.9389
   60SAPC  H10S 4628   2.857   2.070   5.512 -0.4625  0.9347  1.1118
   60SAPC  C211 4629   3.068   2.024   5.478 -0.7462 -0.1588  0.4234
   60SAPC  H11R 4630   3.160   2.011   5.537  0.2863  1.1943 -0.8006
   60SAPC  C212 4631   3.070   1.982   5.348  0.4814 -0.2259  0.2802
   60SAPC  H12R 4632   3.165   1.948   5.306  0.0702  0.1384 -0.9771
   60SAPC  C213 4633   2.968   1.982   5.239  0.5713  0.1385 -0.2843
   60SAPC  H13R 4634   2.871   2.008   5.287  0.8349  0.5363  0.0356
   60SAPC  H13S 4635   2.942   1.880   5.202 -3.2175  0.5747  0.7585
   60SAPC  C214 4636   2.983   2.079   5.128  0.6504 -0.5959 -0.8983
   60SAPC  H14R 4637   2.980   2.183   5.163  0.9612 -0.8566 -0.0759
   60SAPC  C215 4638   3.034   2.057   5.003 -0.8537 -1.6790 -0.5715
   60SAPC  H15R 4639   3.029   2.133   4.923  2.5413 -1.5035 -0.7734
   60SAPC  C216 4640   3.067   1.921   4.957  0.2037  0.1733  0.0081
   60SAPC  H16R 4641   3.070   1.842   5.035 -0.8397  0.4598  0.3670
   60SAPC  H16S 4642   3.171   1.919   4.918 -0.2840 -3.7225 -1.5401
   60SAPC  C217 4643   2.975   1.869   4.843 -0.1425 -0.6681 -0.2680
   60SAPC  H17R 4644   3.001   1.763   4.820  0.5143 -0.7199  0.6588
   60SAPC  H17S 4645   2.996   1.929   4.752  0.4340  1.2893  1.0996
   60SAPC  C218 4646   2.825   1.876   4.878 -0.7105  0.4213 -0.2350
   60SAPC  H18R 4647   2.794   1.980   4.904 -5.5118 -0.4218 -1.5166
   60SAPC  H18S 4648   2.815   1.807   4.964 -0.8608 -0.3742 -0.8746
   60SAPC  C219 4649   2.745   1.841   4.757  0.0735  0.8730 -0.2903
   60SAPC  H19R 4650   2.763   1.926   4.688 -0.1983  0.7984 -0.4541
   60SAPC  H19S 4651   2.638   1.851   4.786  0.7698  0.1580  2.8063
   60SAPC  C220 4652   2.759   1.704   4.683  0.5026 -0.1915 -0.3295
   60SAPC  H20R 4653   2.724   1.615   4.738 -1.0152  0.8798  0.5112
   60SAPC  H20S 4654   2.863   1.687   4.647  0.3868  1.9890 -1.9736
   60SAPC  H20T 4655   2.704   1.717   4.587  4.0403 -2.1397 -2.8493
   60SAPC   C33 4656   3.538   2.413   6.026 -0.2035  0.2436  0.3119
   60SAPC   H3X 4657   3.577   2.309   6.022 -0.3477  0.2312 -1.5976
   60SAPC   H3Y 4658   3.622   2.485   6.035  0.9706 -1.2331  1.8880
   60SAPC   C34 4659   3.456   2.435   5.900 -0.0554 -0.2306  0.0847
   60SAPC   H4X 4660   3.465   2.542   5.874  1.4578 -0.9184 -2.5936
   60SAPC   H4Y 4661   3.354   2.391   5.905 -0.3067  0.2678 -0.5443
   60SAPC   C35 4662   3.508   2.356   5.787 -0.4153  0.1027  0.0336
   60SAPC   H5X 4663   3.547   2.256   5.815 -2.3065 -0.4948  0.6841
   60SAPC   H5Y 4664   3.593   2.415   5.745  1.4526 -1.8850  0.8107
   60SAPC   C36 4665   3.408   2.355   5.677  0.3105 -0.0354  0.0123
   60SAPC   H6X 4666   3.387   2.457   5.636  1.9397 -0.3620 -1.7867
   60SAPC   H6Y 4667   3.323   2.304   5.728 -0.0350 -0.0212 -0.5404
   60SAPC   C37 4668   3.453   2.262   5.562  0.2997  0.2990 -0.5923
   60SAPC   H7X 4669   3.466   2.156   5.592  0.7024  0.2431 -0.9494
   60SAPC   H7Y 4670   3.554   2.297   5.530 -0.4968  0.4479 -3.1446
   60SAPC   C38 4671   3.375   2.280   5.435  0.8292  0.4441  0.3129
   60SAPC   H8X 4672   3.337   2.383   5.422  3.3938  1.4275  0.0297
   60SAPC   H8Y 4673   3.290   2.207   5.436  0.4766  0.6834 -2.4685
   60SAPC   C39 4674   3.466   2.261   5.306 -0.0414 -0.1381 -0.5535
   60SAPC   H9X 4675   3.529   2.170   5.314 -1.4702 -1.1095 -0.0087
   60SAPC   H9Y 4676   3.541   2.341   5.293 -1.4422  1.4023  0.3686
   60SAPC  C310 4677   3.387   2.250   5.177 -0.0087  0.2139 -0.2808
   60SAPC  H10X 4678   3.322   2.339   5.161 -0.8679  0.0832  2.0840
   60SAPC  H10Y 4679   3.315   2.167   5.190  1.6099 -1.2371 -0.3117
   60SAPC  C311 4680   3.473   2.225   5.055  0.4442  0.1421 -0.3183
   60SAPC  H11X 4681   3.540   2.137   5.062  0.3489  0.0819 -0.1447
   60SAPC  H11Y 4682   3.532   2.317   5.037  0.4785  0.2586  0.3564
   60SAPC  C312 4683   3.396   2.217   4.918 -0.3332  0.8757 -0.3769
   60SAPC  H12X 4684   3.349   2.316   4.900 -1.3236  0.3357 -0.8663
   60SAPC  H12Y 4685   3.313   2.144   4.933 -1.0356  1.2952 -1.9498
   60SAPC  C313 4686   3.482   2.165   4.800  0.4984 -0.4852 -0.3735
   60SAPC  H13X 4687   3.416   2.146   4.713 -0.8807  1.0481  0.2840
   60SAPC  H13Y 4688   3.528   2.067   4.828 -1.2517 -0.5207  2.8949
   60SAPC  C314 4689   3.589   2.252   4.743  1.0963  0.4791 -0.0528
   60SAPC  H14X 4690   3.645   2.298   4.827 -0.0607  1.7939  0.0457
   60SAPC  H14Y 4691   3.542   2.339   4.692  0.4792  0.0213 -0.2768
   60SAPC  C315 4692   3.685   2.182   4.652 -0.8177  0.7950 -0.2833
   60SAPC  H15X 4693   3.642   2.144   4.556  0.6241 -1.1161 -0.2550
   60SAPC  H15Y 4694   3.711   2.090   4.709 -2.0335  0.9623  0.5663
   60SAPC  C316 4695   3.813   2.264   4.628 -0.3650 -0.4102  0.1662
   60SAPC  H16X 4696   3.883   2.199   4.573  2.0195  0.8403  1.5709
   60SAPC  H16Y 4697   3.864   2.284   4.724  1.7341 -0.6219 -0.8626
   60SAPC  C317 4698   3.783   2.395   4.563 -0.8814  0.0686  0.4543
   60SAPC  H17X 4699   3.729   2.455   4.640  0.7240  0.6777  1.1473
   60SAPC  H17Y 4700   3.715   2.391   4.475 -0.6243 -0.1534  0.2636
   60SAPC  C318 4701   3.910   2.479   4.525  0.0962 -0.3014 -0.1100
   60SAPC  H18X 4702   3.984   2.503   4.604 -2.0271  0.0707  1.8691
   60SAPC  H18Y 4703   3.878   2.573   4.474 -2.6764 -1.5229 -0.8231
   60SAPC  H18Z 4704   3.962   2.422   4.445 -0.7928  1.2539 -1.8900
   61SAPC     N 4705   0.343   0.928   6.554  0.5066  0.4250  0.0731
   61SAPC   C12 4706   0.424   1.053   6.583 -0.1569 -0.8066  0.5414
   61SAPC  H12A 4707   0.364   1.142   6.569 -2.0753 -2.3501 -1.8278
   61SAPC  H12B 4708   0.489   1.065   6.498  0.9095 -0.0663  1.4239
   61SAPC   C13 4709   0.443   0.824   6.509 -0.3800  0.0494  0.0446
   61SAPC  H13A 4710   0.416   0.720   6.521  0.7129 -0.2286  0.2402
   61SAPC  H13B 4711   0.443   0.833   6.402  0.1532  0.1777  0.0535
   61SAPC  H13C 4712   0.535   0.830   6.565 -0.5677 -0.9267  0.4817
   61SAPC   C14 4713   0.261   0.877   6.672  0.4791  0.0777 -0.4389
   61SAPC  H14A 4714   0.198   0.792   6.650 -0.9264  1.2516 -1.1896
   61SAPC  H14B 4715   0.323   0.852   6.756  1.4825 -0.0676 -1.1979
   61SAPC  H14C 4716   0.189   0.954   6.697  0.5513  1.0577 -2.8896
   61SAPC   C15 4717   0.248   0.934   6.437  0.5030  0.4504  0.5900
   61SAPC  H15A 4718   0.288   0.965   6.342  2.7091 -0.3434  1.1895
   61SAPC  H15B 4719   0.178   0.852   6.428  2.7083 -1.3008 -2.1194
   61SAPC  H15C 4720   0.180   1.015   6.456 -0.8592 -0.0597 -1.7316
   61SAPC   C11 4721   0.503   1.061   6.712  0.3692  0.3076  0.3184
   61SAPC  H11A 4722   0.448   1.038   6.805  0.8079  0.3739  0.5992
   61SAPC  H11B 4723   0.545   1.164   6.721 -1.3991  1.1742 -0.9225
   61SAPC     P 4724   0.741   0.987   6.627 -0.0813 -0.1384 -0.2673
   61SAPC   O13 4725   0.848   1.043   6.707 -0.4521  0.3298  0.3059
   61SAPC   O14 4726   0.780   0.866   6.547  0.6160 -0.2130  0.1737
   61SAPC   O12 4727   0.605   0.965   6.708 -0.1410 -0.3438 -0.5179
   61SAPC   O11 4728   0.706   1.094   6.522  0.8871 -0.2313 -0.2374
   61SAPC    C1 4729   0.808   1.153   6.442 -0.6741  0.1978  0.1235
   61SAPC    HA 4730   0.897   1.155   6.508  0.0305  0.2206 -0.8010
   61SAPC    HB 4731   0.838   1.074   6.370 -0.6818 -0.1362  0.4825
   61SAPC    C2 4732   0.761   1.270   6.360  0.0542 -0.4571 -0.3988
   61SAPC    HS 4733   0.703   1.238   6.270  1.8496 -0.0177 -1.7665
   61SAPC   O21 4734   0.881   1.347   6.329 -0.7328  0.4442  0.3281
   61SAPC   C21 4735   0.887   1.409   6.220  0.1113  0.8077  0.5341
   61SAPC   O22 4736   0.793   1.423   6.142  0.6062 -0.2285  0.7349
   61SAPC   C22 4737   1.020   1.471   6.200 -0.6092  0.7968  0.2087
   61SAPC   H2R 4738   1.047   1.529   6.292  3.2507  0.3243 -0.4713
   61SAPC   H2S 4739   1.094   1.389   6.198 -2.1936 -0.7041  1.0376
   61SAPC    C3 4740   0.668   1.356   6.449  0.3198 -0.6379 -0.0682
   61SAPC    HX 4741   0.742   1.378   6.529  0.8416 -1.1647 -0.4021
   61SAPC    HY 4742   0.588   1.296   6.499  0.8839 -0.5477  0.9641
   61SAPC   O31 4743   0.616   1.474   6.389  0.1244  0.5593 -0.6941
   61SAPC   C31 4744   0.516   1.452   6.303 -0.5536  0.4275 -0.9499
   61SAPC   O32 4745   0.473   1.339   6.278  0.2028 -0.4020 -0.3380
   61SAPC   C32 4746   0.459   1.585   6.261  0.1049 -0.5719 -0.1656
   61SAPC   H2X 4747   0.545   1.655   6.252 -0.0822  0.1135  2.6020
   61SAPC   H2Y 4748   0.391   1.620   6.341  0.3619  0.4701 -0.3977
   61SAPC   C23 4749   1.026   1.571   6.081 -0.2677  0.3774 -0.0151
   61SAPC   H3R 4750   0.932   1.622   6.052  0.2344 -0.6860 -4.1168
   61SAPC   H3S 4751   1.035   1.516   5.985 -0.8258  2.1829 -1.1406
   61SAPC   C24 4752   1.129   1.688   6.096 -0.2181  0.0588  0.1468
   61SAPC   H4R 4753   1.122   1.748   6.003 -1.7579  0.1683  0.2975
   61SAPC   H4S 4754   1.224   1.631   6.105 -0.5235 -0.5752 -0.5266
   61SAPC   C25 4755   1.109   1.782   6.211  0.0329 -0.3002 -0.8647
   61SAPC   H5R 4756   1.067   1.740   6.304  0.0307  1.8543  0.1750
   61SAPC   C26 4757   1.110   1.915   6.194  0.1348  0.1033 -0.7950
   61SAPC   H6R 4758   1.088   1.978   6.282 -2.3282  1.4789 -2.2686
   61SAPC   C27 4759   1.160   2.005   6.092  0.1581  0.2788  0.8017
   61SAPC   H7R 4760   1.226   1.957   6.017  1.7106  0.6152  1.9019
   61SAPC   H7S 4761   1.233   2.076   6.137 -2.3384  1.8190  2.6849
   61SAPC   C28 4762   1.041   2.074   6.036 -0.2918 -0.8644 -0.3400
   61SAPC   H8R 4763   1.009   2.151   6.108 -3.1671 -0.9684 -1.3812
   61SAPC   C29 4764   1.000   2.079   5.905  0.1354  0.4560 -0.7497
   61SAPC   H9R 4765   0.908   2.131   5.877 -0.8635 -0.7109  0.2786
   61SAPC  C210 4766   1.048   1.993   5.790 -0.1685 -0.4376 -0.2657
   61SAPC  H10R 4767   0.974   1.931   5.737  1.1251 -0.6472 -1.9204
   61SAPC  H10S 4768   1.116   1.912   5.824  0.6751  0.2152 -0.3314
   61SAPC  C211 4769   1.129   2.066   5.686 -0.1250 -0.1269 -0.5138
   61SAPC  H11R 4770   1.237   2.055   5.704 -0.4803 -1.3382  1.0923
   61SAPC  C212 4771   1.081   2.132   5.576 -0.1921  0.2747  0.6974
   61SAPC  H12R 4772   1.155   2.167   5.504  0.3744  1.3358  1.7608
   61SAPC  C213 4773   0.940   2.161   5.540 -0.4004 -0.6704  0.1811
   61SAPC  H13R 4774   0.873   2.146   5.627 -0.8922 -1.2119 -0.2794
   61SAPC  H13S 4775   0.910   2.085   5.465  3.1154 -1.0916 -0.9522
   61SAPC  C214 4776   0.925   2.307   5.496 -0.9354  0.5004  0.5172
   61SAPC  H14R 4777   0.904   2.380   5.576 -0.9603  1.4946 -0.3724
   61SAPC  C215 4778   0.943   2.341   5.368  0.2457  0.2308 -0.8158
   61SAPC  H15R 4779   0.924   2.446   5.339 -0.3203  0.2305 -0.4693
   61SAPC  C216 4780   0.982   2.254   5.251 -0.1033 -0.0906 -0.5810
   61SAPC  H16R 4781   0.911   2.268   5.166  1.6755  1.3769 -1.9094
   61SAPC  H16S 4782   0.978   2.144   5.264 -1.3394 -0.1641 -1.3782
   61SAPC  C217 4783   1.115   2.298   5.201  0.0657 -0.1544 -0.0638
   61SAPC  H17R 4784   1.193   2.272   5.275 -0.7134  0.0001  0.8332
   61SAPC  H17S 4785   1.127   2.406   5.182  0.1712  0.0624  1.1362
   61SAPC  C218 4786   1.141   2.222   5.065  0.5756 -0.4371  0.3177
   61SAPC  H18R 4787   1.064   2.250   4.990  3.4175  1.3162 -2.1456
   61SAPC  H18S 4788   1.130   2.112   5.073 -0.9136 -0.3871 -0.5682
   61SAPC  C219 4789   1.278   2.248   4.999 -0.3497  0.3957  0.6296
   61SAPC  H19R 4790   1.349   2.176   5.044 -1.4375 -0.8551  0.4164
   61SAPC  H19S 4791   1.311   2.354   5.007 -2.5736  1.0367  3.2726
   61SAPC  C220 4792   1.288   2.226   4.847 -0.1674  0.4572  0.2437
   61SAPC  H20R 4793   1.262   2.119   4.831  0.3423  0.2305  0.8866
   61SAPC  H20S 4794   1.391   2.236   4.807 -0.2991  1.4924  0.1396
   61SAPC  H20T 4795   1.215   2.289   4.792  0.7573  1.8402  0.5664
   61SAPC   C33 4796   0.394   1.581   6.125  0.6858  0.5536 -1.2796
   61SAPC   H3X 4797   0.317   1.502   6.132 -0.9312  2.1825  2.9048
   61SAPC   H3Y 4798   0.476   1.550   6.058  1.0097  1.3102 -1.2433
   61SAPC   C34 4799   0.313   1.709   6.079 -0.0514  0.0796  0.0161
   61SAPC   H4X 4800   0.377   1.799   6.082 -1.9217  1.4643  0.9312
   61SAPC   H4Y 4801   0.231   1.729   6.152  1.0614 -1.6649  1.8505
   61SAPC   C35 4802   0.259   1.685   5.933 -0.2318  0.1243  0.1010
   61SAPC   H5X 4803   0.180   1.608   5.927  0.0747 -0.0695 -2.1048
   61SAPC   H5Y 4804   0.344   1.646   5.873 -0.2165 -0.0934  0.2631
   61SAPC   C36 4805   0.201   1.802   5.848 -0.2384 -0.9724 -0.1550
   61SAPC   H6X 4806   0.279   1.877   5.825 -0.0872 -0.5055  1.7096
   61SAPC   H6Y 4807   0.123   1.853   5.909 -0.3359 -0.1723 -0.9393
   61SAPC   C37 4808   0.151   1.748   5.715  0.5600 -0.5207  0.9923
   61SAPC   H7X 4809   0.056   1.693   5.729 -0.9161  1.2676 -1.1795
   61SAPC   H7Y 4810   0.236   1.686   5.679  0.4437  0.2509 -0.7443
   61SAPC   C38 4811   0.138   1.858   5.609 -0.6680 -0.0225  0.2537
   61SAPC   H8X 4812   0.233   1.915   5.608 -0.0188 -1.0372 -2.2671
   61SAPC   H8Y 4813   0.056   1.923   5.646 -0.8425 -0.4010  0.5451
   61SAPC   C39 4814   0.095   1.804   5.467  0.1743  0.2686 -0.4679
   61SAPC   H9X 4815   0.001   1.747   5.479  0.0315  0.0629 -2.2874
   61SAPC   H9Y 4816   0.176   1.741   5.424  1.7727  2.0521 -0.2163
   61SAPC  C310 4817   0.066   1.927   5.376 -0.0687  0.5454 -0.6170
   61SAPC  H10X 4818   0.163   1.981   5.366 -0.6869  2.5249  2.6675
   61SAPC  H10Y 4819  -0.005   1.999   5.421  0.9608  0.5378  1.1221
   61SAPC  C311 4820   0.002   1.885   5.249 -0.3634  0.5853  0.8412
   61SAPC  H11X 4821  -0.090   1.826   5.272  0.9487 -1.3349  1.3806
   61SAPC  H11Y 4822   0.062   1.812   5.191 -2.4614 -0.0742 -0.6389
   61SAPC  C312 4823  -0.033   2.004   5.158  0.3408  0.0667 -0.2523
   61SAPC  H12X 4824   0.061   2.058   5.134  1.6728 -1.5070  1.1506
   61SAPC  H12Y 4825  -0.096   2.073   5.218  0.8902 -0.0678  0.4884
   61SAPC  C313 4826  -0.083   1.963   5.018 -0.6164  0.4158  0.0029
   61SAPC  H13X 4827  -0.193   1.948   5.016 -0.5637  0.0413 -0.2142
   61SAPC  H13Y 4828  -0.041   1.864   4.988  0.5196  1.4376 -1.9622
   61SAPC  C314 4829  -0.053   2.070   4.904 -0.5075 -0.3408  0.1549
   61SAPC  H14X 4830   0.055   2.096   4.907 -0.1218 -1.4133  5.3205
   61SAPC  H14Y 4831  -0.102   2.161   4.944 -0.1282 -0.2739  0.4754
   61SAPC  C315 4832  -0.122   2.050   4.770  0.0717  0.3379 -0.1307
   61SAPC  H15X 4833  -0.085   1.952   4.733  0.1671  0.7780 -1.2416
   61SAPC  H15Y 4834  -0.084   2.122   4.695 -0.9722  0.8566 -0.1824
   61SAPC  C316 4835  -0.276   2.057   4.760 -0.2192 -0.3626 -0.2185
   61SAPC  H16X 4836  -0.297   2.164   4.781 -0.2474  0.0580 -2.1557
   61SAPC  H16Y 4837  -0.319   1.987   4.835 -1.5772  2.0704  1.4167
   61SAPC  C317 4838  -0.330   2.015   4.621 -0.2755  0.0291  0.2754
   61SAPC  H17X 4839  -0.292   1.913   4.597 -0.6737 -0.0720  0.0657
   61SAPC  H17Y 4840  -0.291   2.088   4.545  0.5850 -1.2147 -0.5117
   61SAPC  C318 4841  -0.481   2.013   4.596  0.4576 -0.3342  0.0106
   61SAPC  H18X 4842  -0.523   1.913   4.619 -1.7065  0.4070 -0.4199
   61SAPC  H18Y 4843  -0.503   2.037   4.489 -1.9122  1.9065  0.8900
   61SAPC  H18Z 4844  -0.531   2.099   4.646 -0.7720 -1.1114  0.1602
   62SAPC     N 4845   4.185   0.109   7.108 -0.2299  0.6453  0.0002
   62SAPC   C12 4846   4.265   0.017   7.014 -0.3805 -0.2453  0.0954
   62SAPC  H12A 4847   4.331  -0.052   7.064 -0.1778  0.4296  0.7786
   62SAPC  H12B 4848   4.331   0.070   6.948  0.5369 -2.0180 -0.4713
   62SAPC   C13 4849   4.283   0.182   7.197  0.0899 -0.6792  0.2295
   62SAPC  H13A 4850   4.322   0.117   7.275  0.2818 -0.1989  0.5389
   62SAPC  H13B 4851   4.359   0.212   7.127 -0.4213 -0.0014 -0.0420
   62SAPC  H13C 4852   4.238   0.270   7.241  1.1542  0.2548 -0.5111
   62SAPC   C14 4853   4.108   0.213   7.031 -0.1732  0.1522  0.4283
   62SAPC  H14A 4854   4.065   0.173   6.941  0.8117  2.2947 -1.0904
   62SAPC  H14B 4855   4.040   0.254   7.104 -0.2939  0.6017  0.0632
   62SAPC  H14C 4856   4.166   0.299   6.999  0.2275 -0.3613 -0.2695
   62SAPC   C15 4857   4.091   0.028   7.190 -0.2752 -0.0370 -0.3553
   62SAPC  H15A 4858   4.051   0.093   7.265 -0.4871  1.3942 -1.6651
   62SAPC  H15B 4859   4.011  -0.001   7.123 -1.7303  0.7923  0.9814
   62SAPC  H15C 4860   4.140  -0.063   7.223  0.6339  0.0214 -1.4638
   62SAPC   C11 4861   4.175  -0.070   6.918 -0.5100 -0.4639 -0.5260
   62SAPC  H11A 4862   4.117  -0.146   6.974  0.6537 -1.1469 -0.2111
   62SAPC  H11B 4863   4.255  -0.125   6.863 -0.3937  0.7761 -1.6537
   62SAPC     P 4864   4.170   0.092   6.709  0.5282 -0.1620  0.1158
   62SAPC   O13 4865   4.078   0.204   6.676  0.1471  0.7869  0.1539
   62SAPC   O14 4866   4.313   0.124   6.739  0.0648  0.1439  0.0892
   62SAPC   O12 4867   4.102   0.007   6.828  0.4552 -0.3575  0.3937
   62SAPC   O11 4868   4.179  -0.011   6.586 -0.1310 -0.3113  0.3031
   62SAPC    C1 4869   4.065  -0.097   6.549  0.3019  0.1922 -0.5174
   62SAPC    HA 4870   4.097  -0.202   6.566 -1.8859 -0.3163  0.7308
   62SAPC    HB 4871   3.983  -0.082   6.622  1.0990 -1.5965  0.8212
   62SAPC    C2 4872   4.000  -0.073   6.411 -0.3991  0.8472 -0.6519
   62SAPC    HS 4873   3.910  -0.138   6.412  0.4396 -0.6813  4.4764
   62SAPC   O21 4874   4.101  -0.102   6.308 -0.1188 -0.4661 -0.0227
   62SAPC   C21 4875   4.062  -0.169   6.205 -0.0550  0.2195  0.3397
   62SAPC   O22 4876   3.952  -0.221   6.200  0.4355 -0.0556  0.2054
   62SAPC   C22 4877   4.178  -0.180   6.104  0.1201 -0.1887  0.1477
   62SAPC   H2R 4878   4.193  -0.080   6.058  0.8120  0.1788  1.1324
   62SAPC   H2S 4879   4.269  -0.190   6.167  0.8658 -0.6730 -0.9912
   62SAPC    C3 4880   3.952   0.074   6.401  0.7531  0.1301  0.7310
   62SAPC    HX 4881   4.046   0.132   6.418  0.9213 -0.6263  2.6138
   62SAPC    HY 4882   3.886   0.096   6.487 -0.2987 -1.2052  0.2834
   62SAPC   O31 4883   3.895   0.112   6.272 -0.1025 -0.2769 -0.0399
   62SAPC   C31 4884   3.920   0.235   6.224  0.3968  0.1284 -0.3132
   62SAPC   O32 4885   3.970   0.328   6.291  0.5663  0.2317 -0.1074
   62SAPC   C32 4886   3.879   0.248   6.080 -0.9051  0.0435  0.3417
   62SAPC   H2X 4887   3.786   0.188   6.065 -1.9188  1.3646  1.1703
   62SAPC   H2Y 4888   3.962   0.200   6.024 -1.1954 -0.8720  0.6691
   62SAPC   C23 4889   4.159  -0.298   6.012 -0.3906 -0.1173  0.4003
   62SAPC   H3R 4890   4.105  -0.379   6.067  0.4291 -0.2594  1.0297
   62SAPC   H3S 4891   4.261  -0.336   5.988  0.0078  1.2335 -0.1078
   62SAPC   C24 4892   4.087  -0.277   5.874 -0.4437 -0.5185 -0.5479
   62SAPC   H4R 4893   3.983  -0.238   5.887 -0.0244  0.3482  0.2941
   62SAPC   H4S 4894   4.063  -0.372   5.820  0.3606 -0.4478 -1.0444
   62SAPC   C25 4895   4.160  -0.173   5.791 -0.0657  0.6523 -1.0211
   62SAPC   H5R 4896   4.149  -0.067   5.817  0.1425  0.0622  1.7838
   62SAPC   C26 4897   4.250  -0.202   5.693 -0.0553  0.8026 -0.1199
   62SAPC   H6R 4898   4.298  -0.121   5.637 -0.6426  1.9786  1.0337
   62SAPC   C27 4899   4.310  -0.336   5.656  0.0556  0.6027 -0.3536
   62SAPC   H7R 4900   4.316  -0.405   5.742  2.0511 -0.7926 -1.5392
   62SAPC   H7S 4901   4.413  -0.324   5.616  0.3968 -2.4171 -0.5941
   62SAPC   C28 4902   4.227  -0.421   5.555 -0.6047 -1.0845 -0.1723
   62SAPC   H8R 4903   4.129  -0.452   5.592 -0.3916 -3.3425 -1.3140
   62SAPC   C29 4904   4.260  -0.465   5.430  0.5415  0.1256 -0.2909
   62SAPC   H9R 4905   4.188  -0.516   5.365  0.8890  0.7268 -1.1737
   62SAPC  C210 4906   4.393  -0.439   5.358 -0.1425 -0.1426  0.3948
   62SAPC  H10R 4907   4.431  -0.540   5.330  0.2945 -0.2221  1.2186
   62SAPC  H10S 4908   4.463  -0.385   5.425  0.0523  2.5092 -1.8025
   62SAPC  C211 4909   4.380  -0.354   5.231  0.1715  0.4727 -0.2162
   62SAPC  H11R 4910   4.400  -0.247   5.240  1.5861  0.3427 -1.5062
   62SAPC  C212 4911   4.355  -0.408   5.112 -1.2471 -0.1627 -0.4098
   62SAPC  H12R 4912   4.339  -0.340   5.028 -2.9384  0.7999  0.6332
   62SAPC  C213 4913   4.335  -0.550   5.083 -0.4027  0.1083  0.3004
   62SAPC  H13R 4914   4.257  -0.554   5.003 -1.6281 -1.8645  1.4998
   62SAPC  H13S 4915   4.279  -0.607   5.160 -0.5002 -2.7043 -1.7183
   62SAPC  C214 4916   4.459  -0.630   5.050  0.6019 -0.0058 -0.3562
   62SAPC  H14R 4917   4.547  -0.593   5.105 -0.1806 -0.6806  1.4092
   62SAPC  C215 4918   4.467  -0.743   4.974 -0.2839  0.0845  0.0344
   62SAPC  H15R 4919   4.564  -0.792   4.982 -1.1150 -1.5343  0.6494
   62SAPC  C216 4920   4.361  -0.815   4.895 -0.1277 -0.2599  0.3583
   62SAPC  H16R 4921   4.260  -0.774   4.918  0.8552  0.9453  2.9548
   62SAPC  H16S 4922   4.364  -0.918   4.936 -0.2469  0.0664  1.2270
   62SAPC  C217 4923   4.374  -0.820   4.742  0.2104 -0.5867 -0.4242
   62SAPC  H17R 4924   4.364  -0.921   4.697 -0.5364  0.9135 -3.9617
   62SAPC  H17S 4925   4.474  -0.778   4.722 -1.2208  2.5220 -1.6324
   62SAPC  C218 4926   4.273  -0.726   4.662 -0.0850  0.1546  0.0199
   62SAPC  H18R 4927   4.338  -0.670   4.592 -1.5003  0.6468 -0.9601
   62SAPC  H18S 4928   4.215  -0.658   4.728  1.3506  0.2228  1.2499
   62SAPC  C219 4929   4.171  -0.813   4.577 -0.8400 -0.0871  0.1680
   62SAPC  H19R 4930   4.119  -0.879   4.649  1.4004 -1.7575  0.3348
   62SAPC  H19S 4931   4.233  -0.867   4.502 -1.4310  0.6626 -0.8926
   62SAPC  C220 4932   4.062  -0.731   4.503  0.4811  0.2213 -0.0077
   62SAPC  H20R 4933   4.105  -0.715   4.401  1.0567 -0.8777  0.0422
   62SAPC  H20S 4934   4.043  -0.636   4.557  0.0165 -1.6781  3.4750
   62SAPC  H20T 4935   3.966  -0.783   4.483  0.9337  0.4609 -3.5494
   62SAPC   C33 4936   3.860   0.392   6.024  1.2232 -0.7322 -0.3827
   62SAPC   H3X 4937   3.954   0.450   6.041  0.9898 -0.6181  0.6320
   62SAPC   H3Y 4938   3.782   0.447   6.081  0.9399 -0.6361 -0.8579
   62SAPC   C34 4939   3.823   0.383   5.876  0.5773  0.9429 -0.2614
   62SAPC   H4X 4940   3.789   0.481   5.838  0.6701  0.5314 -1.4268
   62SAPC   H4Y 4941   3.753   0.303   5.845  1.0721  0.2500  0.3766
   62SAPC   C35 4942   3.936   0.350   5.773  0.7562 -0.4017 -0.5450
   62SAPC   H5X 4943   3.941   0.240   5.782  1.8424 -0.3323 -0.0063
   62SAPC   H5Y 4944   4.033   0.402   5.794  0.5781 -0.1507 -0.3267
   62SAPC   C36 4945   3.905   0.384   5.624  0.1271 -0.1145  0.0955
   62SAPC   H6X 4946   3.871   0.488   5.611  1.5338  0.3331 -0.1736
   62SAPC   H6Y 4947   3.818   0.321   5.598 -0.2140  0.9986 -1.5305
   62SAPC   C37 4948   4.026   0.354   5.534 -0.0176 -0.3657 -0.3477
   62SAPC   H7X 4949   4.045   0.245   5.537 -0.8969 -0.5148  0.6241
   62SAPC   H7Y 4950   4.110   0.411   5.581 -1.6739  1.6007  0.4316
   62SAPC   C38 4951   4.000   0.380   5.383  0.2524 -0.6884  0.3656
   62SAPC   H8X 4952   3.934   0.468   5.371 -0.1409 -1.0055  0.1954
   62SAPC   H8Y 4953   3.939   0.292   5.354 -2.9854  1.1006  1.2765
   62SAPC   C39 4954   4.140   0.386   5.318 -0.3733  0.9566 -0.2894
   62SAPC   H9X 4955   4.157   0.288   5.268 -0.5241  0.5019  0.5228
   62SAPC   H9Y 4956   4.215   0.403   5.397 -0.7133 -1.2947  0.6057
   62SAPC  C310 4957   4.128   0.510   5.227  0.0831 -0.1425  0.1342
   62SAPC  H10X 4958   4.126   0.609   5.278 -0.4667  0.6995 -1.4565
   62SAPC  H10Y 4959   4.038   0.495   5.163  1.4373  0.0324 -1.9126
   62SAPC  C311 4960   4.244   0.528   5.136 -0.3156  0.1749 -0.2488
   62SAPC  H11X 4961   4.340   0.549   5.189  0.4447 -0.3632 -1.3598
   62SAPC  H11Y 4962   4.239   0.624   5.081 -1.7256  0.2834  0.0515
   62SAPC  C312 4963   4.266   0.415   5.039  0.1929 -0.3143  0.0125
   62SAPC  H12X 4964   4.263   0.320   5.098  0.0486 -0.3585 -0.0646
   62SAPC  H12Y 4965   4.371   0.432   5.010 -1.1669  3.0421 -3.9130
   62SAPC  C313 4966   4.170   0.413   4.918 -0.4338 -0.0082  0.0356
   62SAPC  H13X 4967   4.167   0.519   4.884  0.3256  0.8587  2.4231
   62SAPC  H13Y 4968   4.066   0.385   4.946 -0.5281  0.0473 -0.2629
   62SAPC  C314 4969   4.218   0.323   4.800 -0.9730 -0.2304  0.1310
   62SAPC  H14X 4970   4.222   0.217   4.832  0.9583 -1.2908 -3.2016
   62SAPC  H14Y 4971   4.325   0.334   4.772 -1.5760  1.3931 -1.7947
   62SAPC  C315 4972   4.144   0.338   4.667  0.2395  0.4362  0.0984
   62SAPC  H15X 4973   4.180   0.257   4.599  0.1264  0.1211  0.4081
   62SAPC  H15Y 4974   4.175   0.437   4.628  0.2091  0.4729  0.1684
   62SAPC  C316 4975   3.988   0.332   4.684  0.2316  0.2706 -0.4342
   62SAPC  H16X 4976   3.952   0.419   4.744 -1.9959 -0.2199 -0.9651
   62SAPC  H16Y 4977   3.967   0.242   4.747  0.6617  0.6326  0.2406
   62SAPC  C317 4978   3.919   0.311   4.548  0.9937  0.1403 -0.6390
   62SAPC  H17X 4979   3.969   0.221   4.504 -1.5624 -1.5153 -0.3677
   62SAPC  H17Y 4980   3.940   0.401   4.487  0.9726  0.7025  0.1827
   62SAPC  C318 4981   3.767   0.269   4.551 -0.1052  0.0812 -0.1929
   62SAPC  H18X 4982   3.713   0.347   4.608  0.7816 -1.1845  2.5689
   62SAPC  H18Y 4983   3.763   0.182   4.621  2.3283  0.3161  0.3467
   62SAPC  H18Z 4984   3.718   0.262   4.452 -0.2499  0.0255 -0.1181
   63SAPC     N 4985   2.975   4.510   6.868  0.5170 -1.0834 -0.5660
   63SAPC   C12 4986   3.050   4.523   6.735 -0.3654 -0.3876  0.5121
   63SAPC  H12A 4987   2.972   4.552   6.666  0.6123 -2.1405 -1.4838
   63SAPC  H12B 4988   3.086   4.424   6.708  2.3520  0.0471  2.1457
   63SAPC   C13 4989   3.065   4.468   6.979  1.0421  0.1692 -0.7098
   63SAPC  H13A 4990   3.094   4.366   6.960 -1.0208 -0.4269 -0.9914
   63SAPC  H13B 4991   3.152   4.532   6.985 -0.2601  1.9132  1.5472
   63SAPC  H13C 4992   3.010   4.459   7.072  2.3213 -1.3025 -0.0479
   63SAPC   C14 4993   2.912   4.639   6.914  0.0550  0.2141  0.3939
   63SAPC  H14A 4994   2.816   4.664   6.871  0.3144  0.0887 -0.2632
   63SAPC  H14B 4995   2.903   4.647   7.022  1.4547  3.2064  0.3915
   63SAPC  H14C 4996   2.992   4.707   6.889 -0.0774  0.1037 -0.3489
   63SAPC   C15 4997   2.857   4.423   6.856  0.4614  0.3726  0.5692
   63SAPC  H15A 4998   2.775   4.448   6.923  0.5607 -0.5390  1.0391
   63SAPC  H15B 4999   2.807   4.443   6.763  3.7774 -0.9724 -1.6844
   63SAPC  H15C 5000   2.876   4.317   6.853  2.5637  0.7256 -0.2935
   63SAPC   C11 5001   3.167   4.623   6.723  0.0383  0.3617  0.3991
   63SAPC  H11A 5002   3.129   4.727   6.720 -0.1390  0.2812 -0.6667
   63SAPC  H11B 5003   3.205   4.610   6.620 -1.0463 -2.1119  0.2346
   63SAPC     P 5004   3.396   4.521   6.804  0.7790  0.2002 -0.1668
   63SAPC   O13 5005   3.495   4.613   6.750 -0.5002  0.1981  0.3198
   63SAPC   O14 5006   3.436   4.452   6.929  0.5076  0.4681  0.3686
   63SAPC   O12 5007   3.261   4.606   6.830  0.0275 -0.0604 -0.5226
   63SAPC   O11 5008   3.351   4.410   6.702 -0.3283 -0.0042 -0.3592
   63SAPC    C1 5009   3.436   4.338   6.619 -0.1654 -0.3992  0.0217
   63SAPC    HA 5010   3.536   4.314   6.662  0.4959  1.0439 -0.6526
   63SAPC    HB 5011   3.394   4.236   6.605 -0.6236 -0.2616  0.3739
   63SAPC    C2 5012   3.473   4.419   6.490 -0.0250 -0.4893  0.2522
   63SAPC    HS 5013   3.528   4.511   6.519 -0.5118 -0.0810 -0.0899
   63SAPC   O21 5014   3.350   4.451   6.418  0.5214  0.3671 -0.3373
   63SAPC   C21 5015   3.362   4.540   6.331 -0.5695  0.0710  0.2417
   63SAPC   O22 5016   3.448   4.626   6.323  0.3942  0.6702  0.4321
   63SAPC   C22 5017   3.244   4.536   6.236 -0.1848 -0.6868 -0.2839
   63SAPC   H2R 5018   3.186   4.441   6.234 -0.7192 -0.3805  0.4059
   63SAPC   H2S 5019   3.179   4.616   6.278  0.4325 -0.7259  0.7830
   63SAPC    C3 5020   3.577   4.337   6.415 -0.1779 -0.6067  0.2003
   63SAPC    HX 5021   3.553   4.231   6.440  0.5752 -0.6931  0.5636
   63SAPC    HY 5022   3.677   4.365   6.452 -0.8222  1.8145  0.2270
   63SAPC   O31 5023   3.574   4.373   6.274  0.2330  0.3178  0.3241
   63SAPC   C31 5024   3.686   4.347   6.196  0.5764 -0.5198 -0.9036
   63SAPC   O32 5025   3.780   4.282   6.242  0.1811  0.3466 -0.1094
   63SAPC   C32 5026   3.683   4.418   6.065  0.3283  0.4074 -0.3866
   63SAPC   H2X 5027   3.661   4.523   6.093  0.3173  0.4488 -0.5481
   63SAPC   H2Y 5028   3.596   4.378   6.008 -0.5546  0.3329  0.9823
   63SAPC   C23 5029   3.281   4.593   6.095  0.0681  0.5345  0.2425
   63SAPC   H3R 5030   3.353   4.527   6.041 -0.6722 -0.7187  0.7312
   63SAPC   H3S 5031   3.328   4.693   6.102  0.3813  0.4132 -0.0944
   63SAPC   C24 5032   3.169   4.606   5.998  0.0599  0.6149  0.0740
   63SAPC   H4R 5033   3.194   4.687   5.927  0.1139  0.7533  0.2490
   63SAPC   H4S 5034   3.086   4.642   6.063 -0.6757  0.2934 -0.6884
   63SAPC   C25 5035   3.146   4.474   5.929 -0.1971  0.5973 -0.0255
   63SAPC   H5R 5036   3.106   4.397   5.997 -0.5082  1.9897  1.4147
   63SAPC   C26 5037   3.161   4.444   5.801 -0.0018 -0.2775 -0.0778
   63SAPC   H6R 5038   3.145   4.343   5.760  1.4347 -0.2825 -0.6877
   63SAPC   C27 5039   3.214   4.524   5.689 -0.4593  0.6406 -0.6650
   63SAPC   H7R 5040   3.196   4.632   5.706 -1.7409  0.1571  1.3342
   63SAPC   H7S 5041   3.158   4.499   5.596 -1.1428 -1.3745  0.2220
   63SAPC   C28 5042   3.363   4.512   5.656  0.6207  0.5446 -0.0202
   63SAPC   H8R 5043   3.430   4.548   5.736  1.1818 -3.3485  1.4590
   63SAPC   C29 5044   3.421   4.454   5.553  0.2442 -0.1327  0.0707
   63SAPC   H9R 5045   3.530   4.456   5.542  0.1782  0.7436 -0.6040
   63SAPC  C210 5046   3.349   4.389   5.436  0.3454  0.2377  0.1894
   63SAPC  H10R 5047   3.261   4.331   5.469  0.7035 -0.4492 -0.0213
   63SAPC  H10S 5048   3.417   4.314   5.389 -0.3649 -0.3130  0.0225
   63SAPC  C211 5049   3.308   4.488   5.333  0.2238 -0.1460  0.0420
   63SAPC  H11R 5050   3.232   4.563   5.361  1.2920  1.5961 -1.4707
   63SAPC  C212 5051   3.377   4.512   5.210  0.4343  0.0313 -0.1169
   63SAPC  H12R 5052   3.339   4.594   5.147 -0.0062 -0.4556 -0.4910
   63SAPC  C213 5053   3.484   4.425   5.153 -0.1624  0.0984  0.4095
   63SAPC  H13R 5054   3.488   4.441   5.043 -1.8986  1.8629  0.5379
   63SAPC  H13S 5055   3.450   4.322   5.173 -0.5788  0.1908  0.1835
   63SAPC  C214 5056   3.623   4.445   5.196  0.9760 -0.2552 -0.1163
   63SAPC  H14R 5057   3.632   4.498   5.292  0.6209 -1.2930  0.5042
   63SAPC  C215 5058   3.735   4.393   5.143  0.0123 -0.1193 -0.1471
   63SAPC  H15R 5059   3.824   4.414   5.203 -0.9978 -3.0944  2.6762
   63SAPC  C216 5060   3.773   4.322   5.012  0.0906  1.0726 -0.7039
   63SAPC  H16R 5061   3.855   4.374   4.959  0.8558  0.6893  0.0652
   63SAPC  H16S 5062   3.683   4.306   4.949  0.3293  0.7703 -0.9648
   63SAPC  C217 5063   3.834   4.186   5.053  1.0034 -0.3631 -0.2276
   63SAPC  H17R 5064   3.769   4.126   5.120 -1.2472  1.3225 -0.7894
   63SAPC  H17S 5065   3.927   4.203   5.111  1.3406  2.2721 -1.3899
   63SAPC  C218 5066   3.874   4.098   4.932 -0.2793 -0.3884  0.3137
   63SAPC  H18R 5067   3.970   4.135   4.891 -1.0000  1.2439  0.0090
   63SAPC  H18S 5068   3.796   4.106   4.852  0.0016  1.0105  0.1551
   63SAPC  C219 5069   3.873   3.956   4.971 -1.0104 -0.8581 -0.0977
   63SAPC  H19R 5070   3.866   3.912   4.869  0.7754  0.1913 -0.7249
   63SAPC  H19S 5071   3.773   3.941   5.017  0.3342 -0.0944  3.4011
   63SAPC  C220 5072   3.989   3.902   5.053  0.6287  0.2289 -0.2940
   63SAPC  H20R 5073   3.970   3.798   5.086  0.0007  0.2052 -0.7117
   63SAPC  H20S 5074   4.007   3.962   5.144 -0.0034  0.4984 -0.3408
   63SAPC  H20T 5075   4.088   3.896   5.001 -0.1826 -3.3363 -1.7183
   63SAPC   C33 5076   3.815   4.410   5.986 -0.3412  0.1747 -0.3801
   63SAPC   H3X 5077   3.848   4.304   5.979  0.1633  0.2911  0.1370
   63SAPC   H3Y 5078   3.896   4.462   6.041  0.0753 -0.9227  0.0884
   63SAPC   C34 5079   3.801   4.475   5.853 -0.6673  0.0570  0.2156
   63SAPC   H4X 5080   3.776   4.583   5.855 -0.8457  0.1090  4.7523
   63SAPC   H4Y 5081   3.711   4.425   5.812 -1.2666  1.5122 -0.3113
   63SAPC   C35 5082   3.923   4.433   5.760 -0.3187 -0.0955  0.2614
   63SAPC   H5X 5083   3.962   4.339   5.806 -0.1909 -0.0092  0.3303
   63SAPC   H5Y 5084   4.005   4.506   5.774 -1.0367  1.0345 -1.2182
   63SAPC   C36 5085   3.893   4.409   5.610 -0.2518  0.3549  0.0440
   63SAPC   H6X 5086   3.979   4.442   5.548  0.9778  0.8563  1.9491
   63SAPC   H6Y 5087   3.803   4.471   5.590 -0.1664  0.4225 -0.1363
   63SAPC   C37 5088   3.856   4.270   5.567 -0.6635 -0.2576  0.5555
   63SAPC   H7X 5089   3.840   4.278   5.457 -1.0484 -1.0375  0.5526
   63SAPC   H7Y 5090   3.764   4.233   5.617 -1.6801 -0.4064 -1.3289
   63SAPC   C38 5091   3.984   4.179   5.585  1.2300  0.4547  0.0627
   63SAPC   H8X 5092   4.015   4.164   5.690  0.7742 -0.4996  0.0691
   63SAPC   H8Y 5093   4.064   4.239   5.537 -1.0713  3.6201 -0.1452
   63SAPC   C39 5094   3.970   4.043   5.516  0.7311  0.4529  0.5264
   63SAPC   H9X 5095   3.945   4.061   5.409  2.9677 -1.4858 -0.4049
   63SAPC   H9Y 5096   3.876   3.992   5.547 -0.8298  2.2680 -0.9128
   63SAPC  C310 5097   4.083   3.941   5.526  0.1613 -0.6527  0.1818
   63SAPC  H10X 5098   4.106   3.925   5.633  3.5923 -2.0143 -0.5931
   63SAPC  H10Y 5099   4.176   3.980   5.479 -0.0557 -2.0179 -1.5024
   63SAPC  C311 5100   4.042   3.807   5.467 -0.1245 -0.2344 -0.0005
   63SAPC  H11X 5101   3.999   3.831   5.367 -1.7607 -1.7109  0.2955
   63SAPC  H11Y 5102   3.959   3.772   5.532 -1.0879 -0.0386 -1.0884
   63SAPC  C312 5103   4.147   3.690   5.463 -0.4157 -0.1516  0.1326
   63SAPC  H12X 5104   4.091   3.599   5.495 -1.4959  0.8940  1.3094
   63SAPC  H12Y 5105   4.225   3.699   5.542  0.3240 -0.3117 -0.5587
   63SAPC  C313 5106   4.231   3.675   5.334 -0.3136 -0.0929 -0.2803
   63SAPC  H13X 5107   4.176   3.651   5.240 -1.3902 -0.0704  0.3182
   63SAPC  H13Y 5108   4.302   3.591   5.350  0.8781  0.7498 -1.0173
   63SAPC  C314 5109   4.307   3.806   5.300  0.3562  0.3202 -0.1691
   63SAPC  H14X 5110   4.386   3.837   5.372  2.4550 -1.4869 -1.5871
   63SAPC  H14Y 5111   4.236   3.891   5.293  0.7687  0.5985 -1.1631
   63SAPC  C315 5112   4.376   3.786   5.166 -0.1153 -0.3619 -0.2151
   63SAPC  H15X 5113   4.434   3.879   5.149  1.5749 -1.5735 -1.2860
   63SAPC  H15Y 5114   4.298   3.779   5.087 -2.1323  1.0831  1.5101
   63SAPC  C316 5115   4.480   3.683   5.166 -0.0634  0.0380 -0.2613
   63SAPC  H16X 5116   4.440   3.580   5.169 -1.4515  0.5667  1.0874
   63SAPC  H16Y 5117   4.534   3.705   5.261 -0.8495 -3.0650  1.0274
   63SAPC  C317 5118   4.584   3.694   5.046  0.1649 -0.3794 -0.9395
   63SAPC  H17X 5119   4.534   3.668   4.950  0.7073 -1.0111 -1.0546
   63SAPC  H17Y 5120   4.655   3.613   5.072  2.6157  2.3227  1.4617
   63SAPC  C318 5121   4.654   3.826   5.038  0.1199  0.3854  0.0661
   63SAPC  H18X 5122   4.694   3.857   5.136  1.6326  0.0036 -0.4095
   63SAPC  H18Y 5123   4.594   3.916   5.013  0.5686  1.3189  2.2097
   63SAPC  H18Z 5124   4.746   3.820   4.976 -0.1718 -1.1437 -0.2611
   64SAPC     N 5125   3.491   5.395   6.869 -0.1232  0.4197 -0.1730
   64SAPC   C12 5126   3.402   5.475   6.779 -0.1933 -0.5653  0.3340
   64SAPC  H12A 5127   3.393   5.574   6.822  0.2831 -0.0214 -0.7765
   64SAPC  H12B 5128   3.306   5.425   6.783 -0.0759 -1.2119 -2.5866
   64SAPC   C13 5129   3.525   5.260   6.812 -0.1903 -0.5352 -0.0156
   64SAPC  H13A 5130   3.446   5.188   6.829 -1.4784  1.3361  2.7111
   64SAPC  H13B 5131   3.546   5.274   6.708 -2.0929 -1.6436 -0.6081
   64SAPC  H13C 5132   3.617   5.217   6.847  0.9749  0.0732 -2.1812
   64SAPC   C14 5133   3.622   5.465   6.886  0.0402  0.5433  0.6332
   64SAPC  H14A 5134   3.615   5.560   6.935  1.9042  0.9104  0.2649
   64SAPC  H14B 5135   3.700   5.408   6.935 -1.0922 -0.1076  1.7364
   64SAPC  H14C 5136   3.653   5.487   6.785 -2.6052  2.3013  0.1168
   64SAPC   C15 5137   3.422   5.367   6.998  0.3262 -0.0810 -0.7429
   64SAPC  H15A 5138   3.460   5.271   7.025  1.7524  0.8740  0.7847
   64SAPC  H15B 5139   3.454   5.442   7.069  1.0671 -0.5750 -0.5503
   64SAPC  H15C 5140   3.314   5.360   6.989  0.4574 -1.1828 -1.7716
   64SAPC   C11 5141   3.447   5.482   6.629  0.3963  0.3058  0.5231
   64SAPC  H11A 5142   3.552   5.518   6.620  0.1792  0.5011 -1.6235
   64SAPC  H11B 5143   3.381   5.546   6.566  1.0284 -3.1615 -4.2191
   64SAPC     P 5144   3.339   5.288   6.477 -0.0788 -0.3992 -0.2438
   64SAPC   O13 5145   3.410   5.211   6.372 -0.4086  0.1844 -0.0664
   64SAPC   O14 5146   3.247   5.218   6.563  0.3145  0.2635 -0.3274
   64SAPC   O12 5147   3.444   5.354   6.572 -0.6116 -0.3289  0.2256
   64SAPC   O11 5148   3.261   5.412   6.417 -0.1665  0.3404 -0.4481
   64SAPC    C1 5149   3.273   5.459   6.275  0.1522  0.2831 -0.9420
   64SAPC    HA 5150   3.250   5.567   6.270 -1.2798  0.2136  2.0184
   64SAPC    HB 5151   3.378   5.447   6.238  0.8942  1.0941  0.7936
   64SAPC    C2 5152   3.172   5.374   6.195 -0.4493 -0.2867 -0.3616
   64SAPC    HS 5153   3.167   5.271   6.236 -2.8437 -0.4676 -0.9368
   64SAPC   O21 5154   3.207   5.381   6.058 -0.3914 -0.0398  0.3102
   64SAPC   C21 5155   3.196   5.276   5.986  0.2180  0.1342  0.6789
   64SAPC   O22 5156   3.154   5.168   6.025  0.3170 -0.2784  0.6527
   64SAPC   C22 5157   3.240   5.300   5.840  0.1357  0.5632 -0.5782
   64SAPC   H2R 5158   3.222   5.405   5.810  1.5785  1.4132  1.3558
   64SAPC   H2S 5159   3.350   5.282   5.847  0.1219  1.0789  1.5827
   64SAPC    C3 5160   3.032   5.438   6.230  0.1281 -0.1667  0.3469
   64SAPC    HX 5161   3.010   5.527   6.167  1.1104 -0.7673 -0.8747
   64SAPC    HY 5162   3.037   5.474   6.335  0.0816  0.5915  0.1014
   64SAPC   O31 5163   2.935   5.338   6.207  0.5174  0.2857  0.1846
   64SAPC   C31 5164   2.807   5.389   6.238 -0.0286  0.3279  0.0626
   64SAPC   O32 5165   2.786   5.506   6.259  0.2672 -0.1208  0.3763
   64SAPC   C32 5166   2.707   5.278   6.208 -0.4333 -1.2718  0.4374
   64SAPC   H2X 5167   2.606   5.325   6.211  0.0806 -0.1574  2.0169
   64SAPC   H2Y 5168   2.734   5.205   6.287  2.9858  0.1860  0.8015
   64SAPC   C23 5169   3.163   5.211   5.741 -0.1736 -0.0432 -0.2410
   64SAPC   H3R 5170   3.057   5.239   5.760  0.1620  0.7228  0.6175
   64SAPC   H3S 5171   3.169   5.102   5.759 -0.3337  0.1989  1.4663
   64SAPC   C24 5172   3.210   5.247   5.598  0.3108  1.1033 -0.1305
   64SAPC   H4R 5173   3.318   5.220   5.599  0.4362  1.5383 -0.9978
   64SAPC   H4S 5174   3.206   5.357   5.584  0.6095  1.3972  1.7209
   64SAPC   C25 5175   3.136   5.161   5.503 -1.0097 -0.3227  0.4394
   64SAPC   H5R 5176   3.111   5.059   5.536 -2.4484  0.6172  2.4396
   64SAPC   C26 5177   3.111   5.200   5.377 -0.0663  0.6142  0.4031
   64SAPC   H6R 5178   3.058   5.125   5.317  0.2959  0.9790 -0.3785
   64SAPC   C27 5179   3.141   5.335   5.324  0.4098  0.0787  0.1657
   64SAPC   H7R 5180   3.248   5.353   5.297 -0.3627  3.9299 -0.9486
   64SAPC   H7S 5181   3.122   5.419   5.394 -1.5826  1.1596 -1.5784
   64SAPC   C28 5182   3.058   5.364   5.205 -0.3040  0.1487  0.3555
   64SAPC   H8R 5183   2.963   5.416   5.222  0.8255  2.0224  1.3151
   64SAPC   C29 5184   3.093   5.333   5.079  0.3360 -0.7165  0.5906
   64SAPC   H9R 5185   3.024   5.363   5.000  0.6691  0.7830  0.8410
   64SAPC  C210 5186   3.221   5.254   5.044 -0.0722 -0.7699 -0.2687
   64SAPC  H10R 5187   3.222   5.153   5.091 -0.3673 -0.4674  0.3915
   64SAPC  H10S 5188   3.314   5.309   5.070 -0.0448 -1.1742  0.5082
   64SAPC  C211 5189   3.218   5.243   4.894  0.0877 -0.1177 -0.2604
   64SAPC  H11R 5190   3.277   5.327   4.855  1.3640 -0.3485  1.0598
   64SAPC  C212 5191   3.165   5.154   4.808  0.5298 -0.7800  0.0828
   64SAPC  H12R 5192   3.192   5.152   4.701 -1.2182 -2.5358 -0.4016
   64SAPC  C213 5193   3.101   5.028   4.860 -0.1085 -0.3765  0.4956
   64SAPC  H13R 5194   2.994   5.057   4.871 -0.0206  0.3323 -0.3955
   64SAPC  H13S 5195   3.133   5.006   4.964  0.3366  0.4260  0.5295
   64SAPC  C214 5196   3.114   4.908   4.771 -0.3866 -0.1506  0.2475
   64SAPC  H14R 5197   3.212   4.857   4.769 -1.0219 -1.3821 -1.1078
   64SAPC  C215 5198   3.024   4.868   4.680 -0.0000 -0.1507  0.5847
   64SAPC  H15R 5199   3.053   4.787   4.610 -0.7755  1.1541 -1.3435
   64SAPC  C216 5200   2.889   4.926   4.646 -0.2231 -0.2579  0.0150
   64SAPC  H16R 5201   2.859   5.007   4.716  0.3669  1.1685 -1.3230
   64SAPC  H16S 5202   2.815   4.845   4.663  0.0138 -0.1681  1.6298
   64SAPC  C217 5203   2.872   4.980   4.503  0.2817  0.3166  0.3244
   64SAPC  H17R 5204   2.765   5.010   4.495 -0.2311 -1.2145  1.0433
   64SAPC  H17S 5205   2.881   4.893   4.435  1.5566 -1.1951  2.2994
   64SAPC  C218 5206   2.971   5.087   4.448 -0.8980 -0.3342  0.5193
   64SAPC  H18R 5207   3.059   5.043   4.397  1.3125  1.0057  2.9422
   64SAPC  H18S 5208   3.000   5.141   4.540 -2.1616  0.1350  0.6611
   64SAPC  C219 5209   2.901   5.183   4.353  1.2725 -0.0780  0.7657
   64SAPC  H19R 5210   2.825   5.240   4.410 -2.4720 -2.7947 -1.0732
   64SAPC  H19S 5211   2.848   5.124   4.275  2.4782  1.0217 -0.9635
   64SAPC  C220 5212   2.998   5.271   4.276  0.4432  0.0974  0.1051
   64SAPC  H20R 5213   2.935   5.340   4.216 -0.3914 -0.7976 -0.0723
   64SAPC  H20S 5214   3.073   5.213   4.218  0.8985  1.1671 -0.3991
   64SAPC  H20T 5215   3.056   5.329   4.351 -0.4102 -0.1375  0.9773
   64SAPC   C33 5216   2.726   5.210   6.071  0.7410 -0.3255 -0.0262
   64SAPC   H3X 5217   2.648   5.131   6.066 -3.8018  3.6447  0.6531
   64SAPC   H3Y 5218   2.824   5.163   6.050  1.3637  0.3236  1.3370
   64SAPC   C34 5219   2.705   5.303   5.954  0.1783  0.2336 -0.1809
   64SAPC   H4X 5220   2.763   5.398   5.968 -1.8669  1.4808  0.2164
   64SAPC   H4Y 5221   2.603   5.345   5.954  1.2148  3.0410  1.3888
   64SAPC   C35 5222   2.740   5.234   5.821  0.4972  0.6459 -0.7702
   64SAPC   H5X 5223   2.678   5.142   5.816  3.7382 -1.6371 -3.8231
   64SAPC   H5Y 5224   2.845   5.196   5.819  0.2236 -0.8887  3.7145
   64SAPC   C36 5225   2.707   5.318   5.693 -0.0213  0.6343 -0.1149
   64SAPC   H6X 5226   2.794   5.386   5.680 -0.1745  1.2527  1.6913
   64SAPC   H6Y 5227   2.615   5.376   5.719 -0.7735 -0.0958 -1.0986
   64SAPC   C37 5228   2.686   5.229   5.574 -0.6190  0.0918  0.0270
   64SAPC   H7X 5229   2.592   5.172   5.589 -0.3898 -0.2231  0.2854
   64SAPC   H7Y 5230   2.767   5.154   5.582  1.1886  2.0957  2.0583
   64SAPC   C38 5231   2.686   5.298   5.441  0.5098 -0.2485  0.4550
   64SAPC   H8X 5232   2.785   5.349   5.435  0.1703  0.5729  1.4933
   64SAPC   H8Y 5233   2.611   5.379   5.447  2.0793  1.3096 -0.1898
   64SAPC   C39 5234   2.681   5.196   5.325  0.8184 -0.1660 -0.3333
   64SAPC   H9X 5235   2.593   5.130   5.339  0.0614  0.8509 -0.1960
   64SAPC   H9Y 5236   2.772   5.133   5.324  1.4027  0.5855  1.4182
   64SAPC  C310 5237   2.670   5.253   5.182  0.5085 -0.3860 -0.5798
   64SAPC  H10X 5238   2.753   5.323   5.158 -0.5582  0.7237 -1.1587
   64SAPC  H10Y 5239   2.583   5.318   5.159  0.3219 -0.5701 -0.3909
   64SAPC  C311 5240   2.667   5.151   5.070 -0.2813  0.6213 -0.0365
   64SAPC  H11X 5241   2.565   5.113   5.052  0.2618 -0.4842 -0.9142
   64SAPC  H11Y 5242   2.742   5.075   5.102  0.8958  1.3921 -0.8751
   64SAPC  C312 5243   2.708   5.188   4.930  0.5235 -0.7537 -0.5615
   64SAPC  H12X 5244   2.724   5.097   4.869 -0.0370 -1.4840  0.3583
   64SAPC  H12Y 5245   2.808   5.235   4.938  0.0549  0.0973  0.5722
   64SAPC  C313 5246   2.632   5.299   4.852 -0.2618 -0.1623  0.1452
   64SAPC  H13X 5247   2.659   5.397   4.898  1.2352 -1.0976  1.3605
   64SAPC  H13Y 5248   2.523   5.282   4.840 -0.5476  1.4678  0.1046
   64SAPC  C314 5249   2.687   5.313   4.706  0.3488 -0.2582 -0.5569
   64SAPC  H14X 5250   2.646   5.226   4.651 -1.4138  0.7387 -0.9028
   64SAPC  H14Y 5251   2.796   5.300   4.695  0.6730  0.2002  1.5830
   64SAPC  C315 5252   2.646   5.446   4.640  0.0725  0.0850 -0.0206
   64SAPC  H15X 5253   2.544   5.478   4.670  0.3486  2.1181 -1.1040
   64SAPC  H15Y 5254   2.647   5.427   4.531 -0.1849 -0.6176  0.0932
   64SAPC  C316 5255   2.757   5.554   4.674 -0.3506 -0.2501 -0.7593
   64SAPC  H16X 5256   2.860   5.518   4.652 -0.8401 -0.0198 -4.0238
   64SAPC  H16Y 5257   2.750   5.570   4.783 -1.4198 -1.1370 -0.6852
   64SAPC  C317 5258   2.735   5.686   4.597 -0.0692 -0.2501  0.8358
   64SAPC  H17X 5259   2.776   5.769   4.658  0.0117  1.7134 -1.7151
   64SAPC  H17Y 5260   2.630   5.697   4.562 -0.4947 -0.7728  1.8976
   64SAPC  C318 5261   2.823   5.689   4.473  0.3753 -0.5742  0.2904
   64SAPC  H18X 5262   2.811   5.783   4.417  3.6783  0.1809  0.6652
   64SAPC  H18Y 5263   2.803   5.610   4.398 -0.5398 -0.2300  0.1574
   64SAPC  H18Z 5264   2.926   5.668   4.510 -0.3832 -2.2512  1.6319
   65SAPC     N 5265   2.456   1.190   1.943  0.0342 -0.5791 -0.2810
   65SAPC   C12 5266   2.329   1.276   1.962 -0.1750  1.0361 -0.2005
   65SAPC  H12A 5267   2.243   1.209   1.962 -0.3774  1.2311  2.0779
   65SAPC  H12B 5268   2.319   1.343   1.878 -1.8611  2.0094  0.7224
   65SAPC   C13 5269   2.440   1.097   1.829 -0.3142  0.1960 -0.1795
   65SAPC  H13A 5270   2.530   1.039   1.813 -0.5317  0.0496 -0.9279
   65SAPC  H13B 5271   2.372   1.021   1.866 -1.2515  2.3139  2.8938
   65SAPC  H13C 5272   2.407   1.150   1.741 -1.2115  0.2696  0.1874
   65SAPC   C14 5273   2.568   1.287   1.900 -0.2632 -0.3536 -0.4278
   65SAPC  H14A 5274   2.553   1.341   1.808 -0.0452 -0.0534 -0.2902
   65SAPC  H14B 5275   2.572   1.363   1.978  0.5644 -0.1861 -0.6230
   65SAPC  H14C 5276   2.665   1.239   1.892 -1.3024 -2.2962 -2.0565
   65SAPC   C15 5277   2.497   1.129   2.071 -0.0214  0.0226 -0.8998
   65SAPC  H15A 5278   2.489   1.191   2.159  0.3778 -1.8882  0.5322
   65SAPC  H15B 5279   2.428   1.053   2.104 -0.8439  0.6056 -1.2340
   65SAPC  H15C 5280   2.597   1.090   2.064 -0.1894 -0.8631  0.9494
   65SAPC   C11 5281   2.329   1.374   2.083  0.1048 -0.5199  0.6586
   65SAPC  H11A 5282   2.342   1.316   2.177 -2.4587 -1.9005  0.2453
   65SAPC  H11B 5283   2.229   1.421   2.089  1.1676  2.3587 -1.6957
   65SAPC     P 5284   2.437   1.617   2.020 -0.3081 -0.4284  0.1388
   65SAPC   O13 5285   2.442   1.607   1.870 -0.1878  0.4700 -0.6000
   65SAPC   O14 5286   2.325   1.693   2.086  0.1298 -0.0710  0.2425
   65SAPC   O12 5287   2.439   1.471   2.076  0.2232  1.2062 -0.2606
   65SAPC   O11 5288   2.566   1.675   2.088 -0.1094  0.1765  0.9057
   65SAPC    C1 5289   2.678   1.599   2.122 -0.8721 -0.5419  0.1849
   65SAPC    HA 5290   2.684   1.500   2.072 -1.5514 -1.5475  2.0334
   65SAPC    HB 5291   2.773   1.652   2.100 -1.7646  1.4428  0.8226
   65SAPC    C2 5292   2.680   1.559   2.277  0.3596 -0.4654 -0.6411
   65SAPC    HS 5293   2.577   1.523   2.297  0.3052  0.1893  0.3120
   65SAPC   O21 5294   2.730   1.665   2.358 -0.0030 -0.1767 -0.0689
   65SAPC   C21 5295   2.645   1.761   2.378 -0.3618 -0.4262  0.0375
   65SAPC   O22 5296   2.524   1.756   2.371 -0.3449 -0.0445 -0.7729
   65SAPC   C22 5297   2.713   1.887   2.422  0.0693 -0.3473 -0.3892
   65SAPC   H2R 5298   2.820   1.859   2.432  0.2291  0.4858  0.3207
   65SAPC   H2S 5299   2.706   1.963   2.341 -1.8796  0.6932  0.6777
   65SAPC    C3 5300   2.772   1.440   2.288  0.3174  0.2161 -0.4362
   65SAPC    HX 5301   2.874   1.469   2.254 -0.0267  0.9350 -0.8857
   65SAPC    HY 5302   2.729   1.371   2.212  0.2396 -2.3258  1.7923
   65SAPC   O31 5303   2.777   1.395   2.427  0.4033  0.1217 -0.8242
   65SAPC   C31 5304   2.707   1.288   2.456 -0.1775  0.4594 -1.2223
   65SAPC   O32 5305   2.625   1.235   2.385 -0.6611 -0.3922  0.3235
   65SAPC   C32 5306   2.729   1.249   2.595  0.9702 -0.7512 -1.1315
   65SAPC   H2X 5307   2.810   1.308   2.645  0.6210 -0.6390 -0.6923
   65SAPC   H2Y 5308   2.743   1.139   2.605 -1.5470 -1.0336 -0.2483
   65SAPC   C23 5309   2.666   1.945   2.556 -0.2661  0.1320 -0.2452
   65SAPC   H3R 5310   2.689   1.883   2.645 -2.6357  0.5288  0.7222
   65SAPC   H3S 5311   2.556   1.960   2.561 -0.5233 -0.8226 -2.1679
   65SAPC   C24 5312   2.750   2.077   2.589 -0.2960 -0.2698  0.2348
   65SAPC   H4R 5313   2.701   2.116   2.681  1.2007 -1.0355  1.4084
   65SAPC   H4S 5314   2.739   2.155   2.510 -1.4585  0.6896  1.2966
   65SAPC   C25 5315   2.894   2.056   2.622 -0.4235  0.4645 -0.2495
   65SAPC   H5R 5316   2.954   2.023   2.536 -1.1499  1.2137 -1.0521
   65SAPC   C26 5317   2.949   2.053   2.747  0.8987 -0.5904  0.0924
   65SAPC   H6R 5318   3.058   2.040   2.747  0.8108 -1.5512  1.5007
   65SAPC   C27 5319   2.882   2.090   2.879 -0.4039 -0.3246 -0.9943
   65SAPC   H7R 5320   2.775   2.123   2.880  0.0915  1.5020  1.3616
   65SAPC   H7S 5321   2.935   2.181   2.915 -0.0554 -1.1300  0.6129
   65SAPC   C28 5322   2.891   1.984   2.984 -0.4767  0.1669  0.1970
   65SAPC   H8R 5323   2.988   1.932   2.985  1.8654  4.0712  2.4903
   65SAPC   C29 5324   2.804   1.964   3.085 -0.0459 -0.0537  0.2971
   65SAPC   H9R 5325   2.846   1.904   3.166  3.1527  0.3453 -0.9179
   65SAPC  C210 5326   2.669   2.025   3.111  0.9630  0.0261 -0.9674
   65SAPC  H10R 5327   2.615   1.948   3.170  0.1950  1.4324  0.2526
   65SAPC  H10S 5328   2.613   2.037   3.016  1.3153  1.9853 -0.9608
   65SAPC  C211 5329   2.668   2.167   3.163 -0.7482 -0.2581  0.2203
   65SAPC  H11R 5330   2.726   2.233   3.095  0.0316 -0.9422  0.2079
   65SAPC  C212 5331   2.602   2.213   3.271  0.3379 -0.0129  0.3723
   65SAPC  H12R 5332   2.604   2.320   3.296 -3.0792  0.0025  1.0743
   65SAPC  C213 5333   2.512   2.122   3.362  0.5539 -0.1982  0.3455
   65SAPC  H13R 5334   2.576   2.039   3.399 -1.6126 -0.9495  2.7941
   65SAPC  H13S 5335   2.427   2.083   3.301 -0.2452  0.3562  1.0850
   65SAPC  C214 5336   2.451   2.201   3.476  0.1901  0.0889  0.0214
   65SAPC  H14R 5337   2.355   2.246   3.447 -0.5011 -1.2979  0.0671
   65SAPC  C215 5338   2.493   2.212   3.606  0.1947  0.5002  0.7602
   65SAPC  H15R 5339   2.438   2.278   3.675 -1.7604 -0.1499 -0.1036
   65SAPC  C216 5340   2.613   2.133   3.664  0.6362 -0.2972 -0.0719
   65SAPC  H16R 5341   2.703   2.197   3.650  0.7271 -0.6366 -1.1440
   65SAPC  H16S 5342   2.625   2.043   3.599 -0.7839 -0.3042 -0.3598
   65SAPC  C217 5343   2.605   2.091   3.814  0.0579 -0.5228  0.9476
   65SAPC  H17R 5344   2.556   2.176   3.866  2.0981  0.4628  1.3627
   65SAPC  H17S 5345   2.703   2.086   3.866  0.3150  1.0223  0.6580
   65SAPC  C218 5346   2.517   1.973   3.839 -0.1462  0.1453  0.3831
   65SAPC  H18R 5347   2.556   1.873   3.811 -1.0811 -0.9823  2.8501
   65SAPC  H18S 5348   2.419   1.996   3.791 -0.0854  1.0494  0.6688
   65SAPC  C219 5349   2.478   1.961   3.990 -0.1455 -0.4412  0.7352
   65SAPC  H19R 5350   2.427   1.862   3.995  0.3704 -0.7524  0.0317
   65SAPC  H19S 5351   2.409   2.043   4.017  0.4235 -0.2100  1.5350
   65SAPC  C220 5352   2.593   1.962   4.081 -0.1538 -0.7152 -0.0316
   65SAPC  H20R 5353   2.557   1.931   4.182  0.2735 -0.1164  0.3095
   65SAPC  H20S 5354   2.645   2.060   4.087  1.1455 -1.4828  2.5865
   65SAPC  H20T 5355   2.677   1.900   4.044  0.1916  0.1327 -0.7131
   65SAPC   C33 5356   2.597   1.273   2.679 -0.5192 -0.4004 -0.2652
   65SAPC   H3X 5357   2.521   1.195   2.654 -2.4224  1.4841 -0.6380
   65SAPC   H3Y 5358   2.547   1.369   2.654 -1.3129 -0.6233  0.4095
   65SAPC   C34 5359   2.618   1.275   2.833  0.7753 -0.2664 -0.4847
   65SAPC   H4X 5360   2.521   1.304   2.880  0.6500 -2.4706  0.7268
   65SAPC   H4Y 5361   2.695   1.353   2.852  0.7536 -0.4318  0.2824
   65SAPC   C35 5362   2.662   1.140   2.892 -0.5587 -0.2723  0.0792
   65SAPC   H5X 5363   2.763   1.118   2.851 -0.2618 -1.0961  1.1786
   65SAPC   H5Y 5364   2.599   1.065   2.841 -0.6718 -0.3521  0.3338
   65SAPC   C36 5365   2.656   1.131   3.041 -0.5573  0.0297  0.0880
   65SAPC   H6X 5366   2.674   1.028   3.078  2.8240 -0.2599 -1.9153
   65SAPC   H6Y 5367   2.556   1.169   3.069  0.0868  3.1034 -1.3854
   65SAPC   C37 5368   2.760   1.223   3.112 -0.7864  0.4529 -0.4805
   65SAPC   H7X 5369   2.753   1.326   3.070 -0.7211  0.2994 -0.8681
   65SAPC   H7Y 5370   2.851   1.174   3.071 -0.4070  0.2465  0.5704
   65SAPC   C38 5371   2.769   1.209   3.267 -0.0081 -0.2165 -0.0499
   65SAPC   H8X 5372   2.763   1.102   3.300 -1.3619 -0.2665 -0.4163
   65SAPC   H8Y 5373   2.684   1.262   3.314 -0.1118  0.1296 -0.6240
   65SAPC   C39 5374   2.896   1.278   3.320  0.2276  0.8668  0.4786
   65SAPC   H9X 5375   2.896   1.377   3.269  2.7393  0.5980 -0.1697
   65SAPC   H9Y 5376   2.982   1.223   3.276  1.0801  1.7480  1.0002
   65SAPC  C310 5377   2.895   1.315   3.466  0.0787  0.2005 -0.2955
   65SAPC  H10X 5378   2.795   1.353   3.496  0.4847  0.4981  0.7248
   65SAPC  H10Y 5379   2.961   1.403   3.477  1.4948 -0.8991  0.2888
   65SAPC  C311 5380   2.952   1.204   3.554  0.2506 -0.3565 -0.5606
   65SAPC  H11X 5381   3.055   1.173   3.526  0.4008 -1.0298  0.6213
   65SAPC  H11Y 5382   2.887   1.116   3.530  0.6303 -0.3945 -1.4748
   65SAPC  C312 5383   2.945   1.240   3.697  0.3508  0.7857 -0.1191
   65SAPC  H12X 5384   2.837   1.241   3.724  0.7304  1.6007  1.4737
   65SAPC  H12Y 5385   2.987   1.341   3.715  2.5837 -0.0982 -0.0906
   65SAPC  C313 5386   3.011   1.139   3.791  0.1025 -0.1679 -0.1748
   65SAPC  H13X 5387   3.120   1.137   3.771 -0.1010  0.1235 -1.4702
   65SAPC  H13Y 5388   2.970   1.039   3.763 -0.8590  0.2082 -0.1643
   65SAPC  C314 5389   2.982   1.161   3.933  0.1323 -0.4580 -0.6323
   65SAPC  H14X 5390   2.885   1.127   3.973  1.0293 -1.4039  0.8177
   65SAPC  H14Y 5391   2.979   1.272   3.938  1.4986 -0.3609 -1.2598
   65SAPC  C315 5392   3.084   1.108   4.035  0.1195  0.5815 -0.1919
   65SAPC  H15X 5393   3.183   1.127   3.988 -0.5977  0.1143 -2.0016
   65SAPC  H15Y 5394   3.070   0.999   4.048  0.2618  0.4716 -0.9357
   65SAPC  C316 5395   3.071   1.182   4.166 -1.2941 -0.2454  0.0603
   65SAPC  H16X 5396   2.966   1.193   4.202 -1.1737 -1.5472  0.8824
   65SAPC  H16Y 5397   3.100   1.284   4.133  0.6883 -1.2927 -1.6901
   65SAPC  C317 5398   3.171   1.136   4.268 -0.2847 -0.4609 -0.4126
   65SAPC  H17X 5399   3.272   1.145   4.222  0.4530  1.4906  1.4146
   65SAPC  H17Y 5400   3.139   1.032   4.292 -0.8248 -0.1144  0.4147
   65SAPC  C318 5401   3.168   1.227   4.396 -1.3300 -0.8131  0.0547
   65SAPC  H18X 5402   3.065   1.229   4.440 -0.7193  0.7356  1.4848
   65SAPC  H18Y 5403   3.192   1.325   4.351 -0.0450 -0.5737  1.1977
   65SAPC  H18Z 5404   3.242   1.203   4.475 -0.6449 -2.7523 -1.0897
   66SAPC     N 5405   4.369   6.509   1.852  0.8396  0.0530  0.1015
   66SAPC   C12 5406   4.462   6.391   1.839  0.6192 -0.3401 -0.0970
   66SAPC  H12A 5407   4.559   6.437   1.839  1.2352 -1.5562 -1.4399
   66SAPC  H12B 5408   4.453   6.338   1.745  1.4206  1.9154 -1.5177
   66SAPC   C13 5409   4.400   6.580   1.981  0.0326  1.2847  0.4613
   66SAPC  H13A 5410   4.334   6.662   2.005 -2.4408 -0.3572 -0.3257
   66SAPC  H13B 5411   4.381   6.513   2.063  2.2478  1.3910  1.1000
   66SAPC  H13C 5412   4.503   6.610   1.987  0.4553  0.4865 -1.6418
   66SAPC   C14 5413   4.389   6.616   1.745  0.3582  0.3418  0.7616
   66SAPC  H14A 5414   4.494   6.631   1.722  0.7898  0.2296  2.4926
   66SAPC  H14B 5415   4.337   6.591   1.654 -0.1226  1.9399  0.5555
   66SAPC  H14C 5416   4.358   6.714   1.779  1.9983  0.5775  1.7107
   66SAPC   C15 5417   4.225   6.467   1.867 -0.2493 -0.2823  0.4927
   66SAPC  H15A 5418   4.190   6.397   1.792 -1.4919 -0.9525  1.6529
   66SAPC  H15B 5419   4.201   6.425   1.964 -2.1103  3.0880  1.6382
   66SAPC  H15C 5420   4.155   6.548   1.879 -0.7882 -0.9619  2.1177
   66SAPC   C11 5421   4.467   6.287   1.955 -0.0608  0.0092  0.0095
   66SAPC  H11A 5422   4.519   6.198   1.915  1.8857  0.5148  1.2838
   66SAPC  H11B 5423   4.363   6.250   1.970  0.4624 -1.4103  0.2417
   66SAPC     P 5424   4.664   6.347   2.112 -0.1290 -0.3150  0.1659
   66SAPC   O13 5425   4.735   6.230   2.056 -0.4078 -0.4805  0.7570
   66SAPC   O14 5426   4.711   6.482   2.082  0.1325  0.0424  0.3013
   66SAPC   O12 5427   4.511   6.339   2.080 -0.9583 -0.4798  0.1392
   66SAPC   O11 5428   4.653   6.332   2.269 -0.1629 -0.1529  0.5290
   66SAPC    C1 5429   4.579   6.225   2.320  0.5449  1.1103 -0.3191
   66SAPC    HA 5430   4.472   6.254   2.316  0.3180  0.5805  1.3854
   66SAPC    HB 5431   4.586   6.132   2.259 -1.2074 -0.6161  1.9418
   66SAPC    C2 5432   4.622   6.190   2.470 -0.0280 -0.2414 -0.0233
   66SAPC    HS 5433   4.617   6.286   2.527  1.1675 -0.7431  0.9697
   66SAPC   O21 5434   4.754   6.142   2.468 -0.2772  0.3050  0.5341
   66SAPC   C21 5435   4.832   6.161   2.577  0.0662 -0.3937  0.0794
   66SAPC   O22 5436   4.805   6.228   2.677  0.3374  0.1401  0.4340
   66SAPC   C22 5437   4.967   6.093   2.569 -0.2260  0.1964  1.1660
   66SAPC   H2R 5438   4.961   6.008   2.499 -2.1904  0.8180  0.5195
   66SAPC   H2S 5439   5.036   6.165   2.520  1.5208  0.0134  3.2138
   66SAPC    C3 5440   4.532   6.085   2.532  1.0785  0.2086  0.5084
   66SAPC    HX 5441   4.544   5.998   2.463  0.3234  1.9234 -1.9142
   66SAPC    HY 5442   4.428   6.119   2.516  1.4369  0.4182 -1.6441
   66SAPC   O31 5443   4.561   6.056   2.666 -0.1505 -0.8520 -0.6273
   66SAPC   C31 5444   4.514   6.151   2.747 -0.2604  0.0969 -0.7668
   66SAPC   O32 5445   4.440   6.241   2.713 -0.1412  0.1750 -0.3270
   66SAPC   C32 5446   4.566   6.123   2.883 -0.3020 -0.0674 -0.4492
   66SAPC   H2X 5447   4.666   6.073   2.883 -0.9883 -1.6034  1.5975
   66SAPC   H2Y 5448   4.502   6.040   2.921 -0.4007  0.1012 -0.2478
   66SAPC   C23 5449   5.031   6.045   2.698 -0.1381 -0.3537 -0.6672
   66SAPC   H3R 5450   5.036   6.125   2.775 -0.3552 -0.8863 -0.0920
   66SAPC   H3S 5451   5.134   6.013   2.672  0.2887  1.5653 -1.5240
   66SAPC   C24 5452   4.957   5.934   2.772  0.4413 -0.1603 -0.1525
   66SAPC   H4R 5453   4.921   5.858   2.699 -1.6794  0.4918  0.1532
   66SAPC   H4S 5454   4.867   5.975   2.821 -0.3625  1.2713 -2.6481
   66SAPC   C25 5455   5.047   5.868   2.873 -0.0434 -0.3200 -0.1479
   66SAPC   H5R 5456   5.143   5.829   2.834  0.1888 -0.3135  0.4034
   66SAPC   C26 5457   5.033   5.867   3.010  0.6038  0.9565 -0.1230
   66SAPC   H6R 5458   5.111   5.828   3.078  1.4424 -0.5241 -1.8225
   66SAPC   C27 5459   4.919   5.932   3.090  0.1049  0.3098 -0.0170
   66SAPC   H7R 5460   4.883   6.015   3.025 -2.3094 -0.1519  0.6459
   66SAPC   H7S 5461   4.964   5.982   3.178  0.5481  1.9373 -1.1216
   66SAPC   C28 5462   4.810   5.832   3.116  0.4861  0.2033  0.2333
   66SAPC   H8R 5463   4.736   5.826   3.035 -1.1492  2.4716  1.4139
   66SAPC   C29 5464   4.785   5.760   3.230  0.1973 -0.0091  0.0075
   66SAPC   H9R 5465   4.686   5.712   3.230  0.2264 -0.3458 -3.4827
   66SAPC  C210 5466   4.869   5.763   3.354 -0.1325  0.2534  0.6483
   66SAPC  H10R 5467   4.972   5.724   3.339 -1.0005 -2.6571  1.6260
   66SAPC  H10S 5468   4.823   5.688   3.421 -2.4171 -0.2504 -1.3505
   66SAPC  C211 5469   4.878   5.890   3.434 -0.6499  0.7190  0.4965
   66SAPC  H11R 5470   4.967   5.948   3.404 -0.4141 -0.1105 -0.4663
   66SAPC  C212 5471   4.786   5.945   3.514 -0.3924 -0.1740  0.3103
   66SAPC  H12R 5472   4.822   6.038   3.559 -0.2476 -0.0802  0.0013
   66SAPC  C213 5473   4.655   5.893   3.555  0.2178  0.2296 -0.0808
   66SAPC  H13R 5474   4.667   5.813   3.631  0.3531 -1.0870 -1.4390
   66SAPC  H13S 5475   4.597   5.858   3.467  0.8582 -0.4948 -0.2227
   66SAPC  C214 5476   4.573   6.011   3.608 -0.0370  0.7348  0.1310
   66SAPC  H14R 5477   4.542   6.086   3.535 -0.2882  0.9692  0.4758
   66SAPC  C215 5478   4.536   6.035   3.732  0.4114 -0.5506  0.1284
   66SAPC  H15R 5479   4.474   6.122   3.759 -0.1228 -0.6000 -0.8908
   66SAPC  C216 5480   4.558   5.942   3.855  0.0212  0.2639  0.5742
   66SAPC  H16R 5481   4.652   5.884   3.844 -0.0280  0.0216  1.3532
   66SAPC  H16S 5482   4.485   5.858   3.847  0.6017 -0.0812 -1.6696
   66SAPC  C217 5483   4.560   6.004   3.994 -0.0625  0.1946  0.9664
   66SAPC  H17R 5484   4.666   6.024   4.023  0.5822  1.2042 -1.8144
   66SAPC  H17S 5485   4.529   5.923   4.064  0.7191 -0.2195  0.8538
   66SAPC  C218 5486   4.463   6.122   4.016 -0.2568  0.2787  0.1666
   66SAPC  H18R 5487   4.366   6.085   3.975 -1.2404 -0.3830  2.8626
   66SAPC  H18S 5488   4.496   6.211   3.959 -0.0755  1.4424  1.9988
   66SAPC  C219 5489   4.455   6.178   4.160  0.2878  0.1240  0.1634
   66SAPC  H19R 5490   4.414   6.094   4.219 -0.9980 -0.4646 -1.4843
   66SAPC  H19S 5491   4.373   6.253   4.160  0.5880  0.5641 -2.4895
   66SAPC  C220 5492   4.584   6.243   4.204  0.0241  0.0805  0.9831
   66SAPC  H20R 5493   4.582   6.240   4.315 -1.7243 -1.0527  0.9717
   66SAPC  H20S 5494   4.600   6.340   4.153  1.5366 -1.8268 -2.5500
   66SAPC  H20T 5495   4.670   6.177   4.181 -1.0302 -1.8744  2.3208
   66SAPC   C33 5496   4.580   6.241   2.977 -0.0208  0.1452  0.2398
   66SAPC   H3X 5497   4.483   6.296   2.985  0.4916  0.8551  1.9985
   66SAPC   H3Y 5498   4.666   6.303   2.946  1.1156 -1.1006  0.8072
   66SAPC   C34 5499   4.635   6.189   3.122 -0.5503 -0.3268  0.0910
   66SAPC   H4X 5500   4.727   6.130   3.105 -2.3064 -3.3246  0.3457
   66SAPC   H4Y 5501   4.563   6.123   3.175 -0.9093 -0.6377 -0.7591
   66SAPC   C35 5502   4.672   6.315   3.205  0.4436 -0.7095  0.2618
   66SAPC   H5X 5503   4.580   6.375   3.220  0.8829 -0.1851  0.8872
   66SAPC   H5Y 5504   4.732   6.389   3.148 -3.3352  2.7576  0.2961
   66SAPC   C36 5505   4.746   6.279   3.329 -0.0863 -0.3610 -0.6207
   66SAPC   H6X 5506   4.840   6.225   3.308  0.2293  0.0726 -0.3428
   66SAPC   H6Y 5507   4.674   6.214   3.384  0.3611  0.8968  1.5849
   66SAPC   C37 5508   4.773   6.410   3.412 -0.0510  0.5840  0.4257
   66SAPC   H7X 5509   4.683   6.466   3.444 -0.3013 -0.6254  1.9573
   66SAPC   H7Y 5510   4.833   6.475   3.345  0.3627 -0.3792 -0.1604
   66SAPC   C38 5511   4.846   6.387   3.540  0.0929  0.0124  0.1069
   66SAPC   H8X 5512   4.877   6.484   3.582  0.6413 -1.7574  4.3066
   66SAPC   H8Y 5513   4.938   6.325   3.533 -0.1564 -0.2982 -0.5425
   66SAPC   C39 5514   4.756   6.335   3.650 -0.2143 -0.0842 -0.4796
   66SAPC   H9X 5515   4.715   6.233   3.631 -1.8166  0.5658 -0.6104
   66SAPC   H9Y 5516   4.670   6.404   3.658  0.1018  0.2401  0.2050
   66SAPC  C310 5517   4.812   6.323   3.792 -0.3651  0.6241  0.2053
   66SAPC  H10X 5518   4.744   6.268   3.860  2.6406 -0.8486  2.2652
   66SAPC  H10Y 5519   4.847   6.420   3.832 -0.9482  0.0718  2.1665
   66SAPC  C311 5520   4.941   6.233   3.811 -0.0632 -0.0282  0.3675
   66SAPC  H11X 5521   5.021   6.257   3.738 -0.5662 -1.2902 -0.6305
   66SAPC  H11Y 5522   4.915   6.132   3.774 -1.4824  0.1164  0.9132
   66SAPC  C312 5523   4.988   6.232   3.951  0.2242  0.0834 -0.5683
   66SAPC  H12X 5524   4.909   6.222   4.029 -0.0022  0.5293 -0.7377
   66SAPC  H12Y 5525   5.017   6.338   3.969 -1.1297  0.2909  0.6239
   66SAPC  C313 5526   5.110   6.131   3.970 -0.0039 -0.0265 -0.3414
   66SAPC  H13X 5527   5.166   6.152   4.063 -1.1806 -2.1960  0.9584
   66SAPC  H13Y 5528   5.185   6.152   3.891  1.4845  2.5728  1.5917
   66SAPC  C314 5529   5.061   5.979   3.970  0.2305 -0.7091 -0.3117
   66SAPC  H14X 5530   5.148   5.911   3.958  1.7237  1.5777 -4.0461
   66SAPC  H14Y 5531   5.005   5.955   3.877 -2.6013  1.5151  0.6626
   66SAPC  C315 5532   4.984   5.939   4.100 -0.2830  0.7545  0.4571
   66SAPC  H15X 5533   4.891   5.999   4.100 -1.9311 -1.6365 -0.8610
   66SAPC  H15Y 5534   5.040   5.961   4.194  0.1826 -1.5656  0.8068
   66SAPC  C316 5535   4.920   5.795   4.102  0.0686  0.5177 -0.6793
   66SAPC  H16X 5536   4.862   5.776   4.008  1.9689  1.6545 -2.1598
   66SAPC  H16Y 5537   4.850   5.792   4.188  0.6502 -1.2377 -0.2337
   66SAPC  C317 5538   5.020   5.684   4.124 -0.2861  0.3703 -0.3622
   66SAPC  H17X 5539   5.105   5.693   4.053  1.5708  0.3988  1.7863
   66SAPC  H17Y 5540   4.970   5.587   4.101 -0.5339  0.0435  1.4361
   66SAPC  C318 5541   5.067   5.674   4.266  0.2391 -0.3327  0.7717
   66SAPC  H18X 5542   5.119   5.576   4.258 -0.3622 -0.5140 -1.5592
   66SAPC  H18Y 5543   4.988   5.672   4.344 -2.1550 -1.4874 -1.5275
   66SAPC  H18Z 5544   5.138   5.759   4.283  0.7415 -0.5596 -0.1306
   67SAPC     N 5545   2.713   1.990   1.929 -0.2998  0.4074 -0.6843
   67SAPC   C12 5546   2.762   1.950   2.070 -0.0550 -0.6077  0.5067
   67SAPC  H12A 5547   2.693   1.870   2.094 -1.1423 -0.9691 -3.2008
   67SAPC  H12B 5548   2.762   2.027   2.145  2.0995 -2.9331  3.1252
   67SAPC   C13 5549   2.564   2.014   1.935  0.3399 -1.0487 -0.4511
   67SAPC  H13A 5550   2.531   2.024   1.833 -5.0819 -0.2531  1.1020
   67SAPC  H13B 5551   2.506   1.936   1.981 -1.1103  0.4788  0.4309
   67SAPC  H13C 5552   2.535   2.108   1.980 -0.2990 -1.6854  0.4883
   67SAPC   C14 5553   2.783   2.113   1.884 -0.8492 -0.3080 -0.2612
   67SAPC  H14A 5554   2.757   2.200   1.943 -1.0550  0.1790 -1.0635
   67SAPC  H14B 5555   2.888   2.088   1.887 -0.2371  2.1143  0.5155
   67SAPC  H14C 5556   2.747   2.144   1.788 -2.4435 -0.1267  0.3564
   67SAPC   C15 5557   2.736   1.870   1.842 -0.4028 -0.3500 -0.1495
   67SAPC  H15A 5558   2.730   1.906   1.740 -1.8717  0.9527  0.3493
   67SAPC  H15B 5559   2.832   1.823   1.857  0.9450  2.5431  1.1518
   67SAPC  H15C 5560   2.663   1.791   1.852  0.2889 -1.1757 -1.3680
   67SAPC   C11 5561   2.906   1.912   2.099  0.2217  0.0974 -0.5409
   67SAPC  H11A 5562   2.945   1.836   2.028 -0.8945  0.0131 -1.0843
   67SAPC  H11B 5563   2.907   1.854   2.194  0.6565  1.7667  0.5236
   67SAPC     P 5564   3.001   2.120   2.207  0.2420 -0.5176  0.1659
   67SAPC   O13 5565   3.116   2.211   2.171 -0.0167  0.3299  0.5509
   67SAPC   O14 5566   2.870   2.185   2.228  0.4202 -0.5650  0.0296
   67SAPC   O12 5567   2.990   2.022   2.092  0.1485  0.2440 -0.2718
   67SAPC   O11 5568   3.034   2.022   2.329  0.1060  0.0629  0.6630
   67SAPC    C1 5569   3.139   1.922   2.321  0.1195  0.7874 -0.5192
   67SAPC    HA 5570   3.090   1.834   2.274  1.0716  0.1415 -0.3396
   67SAPC    HB 5571   3.215   1.953   2.247  0.5724  1.2527  0.1293
   67SAPC    C2 5572   3.196   1.884   2.462  1.0527  0.3848  0.2128
   67SAPC    HS 5573   3.278   1.809   2.456 -0.2934 -1.3280  2.0458
   67SAPC   O21 5574   3.099   1.821   2.552 -0.6459 -0.1226 -0.2223
   67SAPC   C21 5575   3.049   1.706   2.528 -0.0927  0.9854  0.1672
   67SAPC   O22 5576   3.061   1.640   2.426  0.4686 -0.2865 -0.5622
   67SAPC   C22 5577   2.951   1.655   2.637 -0.6279  0.3256 -0.4052
   67SAPC   H2R 5578   2.884   1.738   2.670 -1.7369 -1.3356  1.8169
   67SAPC   H2S 5579   2.875   1.588   2.591  0.2217  0.0836 -1.5161
   67SAPC    C3 5580   3.245   2.016   2.521  0.5601 -0.1017  0.2183
   67SAPC    HX 5581   3.165   2.092   2.506 -0.0078  0.2169  4.0202
   67SAPC    HY 5582   3.328   2.054   2.457  0.3814  2.0685  1.2025
   67SAPC   O31 5583   3.279   2.009   2.657  0.1378 -0.1636 -0.1266
   67SAPC   C31 5584   3.393   1.949   2.695  0.2926 -0.2770  0.5602
   67SAPC   O32 5585   3.465   1.895   2.610 -0.4293  0.1724  0.8982
   67SAPC   C32 5586   3.405   1.943   2.840 -0.2794  0.0006  0.0766
   67SAPC   H2X 5587   3.495   1.880   2.857  0.8833  1.5787 -0.0057
   67SAPC   H2Y 5588   3.312   1.892   2.872 -1.0580  1.8042  0.8309
   67SAPC   C23 5589   3.027   1.586   2.750  0.4191 -0.3631 -0.1534
   67SAPC   H3R 5590   3.088   1.500   2.715  1.0926 -0.2011  0.5867
   67SAPC   H3S 5591   2.958   1.545   2.827  0.1796 -1.2555 -0.8235
   67SAPC   C24 5592   3.120   1.680   2.830 -0.7017  0.5061  0.9127
   67SAPC   H4R 5593   3.066   1.770   2.864  1.8914  2.5691 -0.0872
   67SAPC   H4S 5594   3.208   1.703   2.765 -1.5962 -0.4366 -0.6858
   67SAPC   C25 5595   3.176   1.607   2.951  0.1363  0.2805  0.7250
   67SAPC   H5R 5596   3.259   1.539   2.928 -0.2032  0.5353 -1.5257
   67SAPC   C26 5597   3.134   1.604   3.078 -0.1921  0.3378 -0.9078
   67SAPC   H6R 5598   3.192   1.554   3.157 -2.5394 -0.5116  0.3603
   67SAPC   C27 5599   3.028   1.685   3.135 -0.0794  0.3805 -0.1624
   67SAPC   H7R 5600   2.954   1.615   3.182 -0.5416  0.1279 -1.2416
   67SAPC   H7S 5601   2.959   1.726   3.058 -0.4980 -0.3492 -0.1967
   67SAPC   C28 5602   3.073   1.786   3.232  0.1043  0.3331 -0.1370
   67SAPC   H8R 5603   3.159   1.848   3.205  1.6791 -0.7697  2.0903
   67SAPC   C29 5604   3.005   1.806   3.348 -0.3000 -0.1874  0.3979
   67SAPC   H9R 5605   3.048   1.884   3.413  4.0351 -3.4097  1.8571
   67SAPC  C210 5606   2.890   1.731   3.401 -0.2090  0.1212 -0.7806
   67SAPC  H10R 5607   2.926   1.634   3.442 -0.7615  0.2790  0.0973
   67SAPC  H10S 5608   2.817   1.695   3.325  0.9967 -1.6639 -1.1491
   67SAPC  C211 5609   2.804   1.796   3.511  0.5172 -0.1096  0.1538
   67SAPC  H11R 5610   2.753   1.890   3.487 -0.3392 -0.8643 -1.1247
   67SAPC  C212 5611   2.802   1.761   3.641 -0.1474 -0.4686  1.0681
   67SAPC  H12R 5612   2.734   1.819   3.704  0.5723  2.7110 -0.8337
   67SAPC  C213 5613   2.850   1.631   3.692 -0.1466 -0.4068  0.3299
   67SAPC  H13R 5614   2.955   1.627   3.657 -0.3879  0.2261 -0.4647
   67SAPC  H13S 5615   2.802   1.542   3.645  2.4988 -1.1668 -1.1282
   67SAPC  C214 5616   2.853   1.622   3.847  0.0622 -0.0405 -0.1953
   67SAPC  H14R 5617   2.763   1.585   3.897 -1.0121  2.2602 -0.2919
   67SAPC  C215 5618   2.946   1.668   3.937  0.2545  0.6666 -0.2063
   67SAPC  H15R 5619   2.920   1.640   4.040  0.5563  1.5220  0.1061
   67SAPC  C216 5620   3.084   1.730   3.929 -0.2430 -0.3792  0.4009
   67SAPC  H16R 5621   3.107   1.783   4.024 -1.7283  0.9197  0.0926
   67SAPC  H16S 5622   3.099   1.810   3.854 -0.8968 -0.7081 -0.0896
   67SAPC  C217 5623   3.189   1.616   3.921 -0.2892 -0.3122  0.7927
   67SAPC  H17R 5624   3.167   1.544   4.003  0.5695 -1.2549  0.2159
   67SAPC  H17S 5625   3.279   1.671   3.953 -1.6320 -0.2617  5.1489
   67SAPC  C218 5626   3.211   1.549   3.787  0.4074 -0.4824  0.1574
   67SAPC  H18R 5627   3.248   1.629   3.720 -0.3310  1.3990  1.8936
   67SAPC  H18S 5628   3.116   1.507   3.747 -0.5555  0.4417  1.3712
   67SAPC  C219 5629   3.310   1.431   3.789 -0.6161 -0.5485  0.1759
   67SAPC  H19R 5630   3.268   1.351   3.853 -3.8006 -0.8890 -2.1153
   67SAPC  H19S 5631   3.412   1.465   3.817 -0.1952  0.6614 -2.5501
   67SAPC  C220 5632   3.315   1.357   3.653  1.1050 -0.1629  0.0846
   67SAPC  H20R 5633   3.396   1.281   3.659  1.6475  0.2904 -1.1342
   67SAPC  H20S 5634   3.331   1.415   3.559 -4.0665 -0.6866 -1.3995
   67SAPC  H20T 5635   3.224   1.295   3.639  0.8326  0.6836 -2.4045
   67SAPC   C33 5636   3.409   2.089   2.913 -0.5948  0.1583  0.5534
   67SAPC   H3X 5637   3.460   2.165   2.849 -1.7465 -0.4071 -1.0994
   67SAPC   H3Y 5638   3.472   2.083   3.005 -0.2843  0.6961  0.3834
   67SAPC   C34 5639   3.270   2.139   2.963  0.3042  0.0948 -0.1693
   67SAPC   H4X 5640   3.228   2.054   3.022  0.4409 -0.2124 -0.5103
   67SAPC   H4Y 5641   3.213   2.165   2.871  0.7630  0.0657 -0.4658
   67SAPC   C35 5642   3.285   2.258   3.060 -0.5610 -0.2542  1.0370
   67SAPC   H5X 5643   3.303   2.338   2.984  0.8597 -2.2229 -0.8303
   67SAPC   H5Y 5644   3.367   2.257   3.135  1.4254  1.3814 -0.9343
   67SAPC   C36 5645   3.154   2.291   3.142  0.5534 -0.4469  0.2096
   67SAPC   H6X 5646   3.074   2.271   3.068 -1.3679  0.4865  1.9200
   67SAPC   H6Y 5647   3.159   2.395   3.179 -2.4691 -0.2013  0.1943
   67SAPC   C37 5648   3.130   2.205   3.259 -0.1131 -0.0664  0.6743
   67SAPC   H7X 5649   3.225   2.159   3.293 -0.2664 -1.0940 -0.2368
   67SAPC   H7Y 5650   3.064   2.118   3.238  0.2741 -0.3643  0.6795
   67SAPC   C38 5651   3.073   2.288   3.372  1.1593  0.8791 -0.4530
   67SAPC   H8X 5652   2.986   2.347   3.336  0.6203 -0.3029 -1.1539
   67SAPC   H8Y 5653   3.153   2.356   3.408  0.9650  0.2285  1.3431
   67SAPC   C39 5654   3.031   2.208   3.500 -0.0115 -0.2016  0.1928
   67SAPC   H9X 5655   2.954   2.129   3.486 -2.0442  1.7284 -0.0571
   67SAPC   H9Y 5656   2.983   2.284   3.565 -1.5395 -0.9321 -0.0398
   67SAPC  C310 5657   3.154   2.139   3.581  1.0812 -0.2349 -0.1414
   67SAPC  H10X 5658   3.228   2.218   3.606 -1.2307  1.8273  0.6469
   67SAPC  H10Y 5659   3.205   2.073   3.509  1.8999 -0.9965  1.0944
   67SAPC  C311 5660   3.110   2.056   3.702 -0.2127 -0.3139 -0.2476
   67SAPC  H11X 5661   3.190   1.991   3.742  1.1090  3.0299  3.1698
   67SAPC  H11Y 5662   3.025   1.992   3.670  0.0754 -2.3428  2.7087
   67SAPC  C312 5663   3.056   2.133   3.817  0.9221 -0.6210  0.2936
   67SAPC  H12X 5664   2.964   2.186   3.784  1.6675  0.4187 -0.1775
   67SAPC  H12Y 5665   3.134   2.211   3.821  0.1578  0.1615  0.1618
   67SAPC  C313 5666   3.036   2.070   3.953 -0.4823 -0.8126 -0.0151
   67SAPC  H13X 5667   3.113   1.989   3.954  0.5938  0.0698 -2.5882
   67SAPC  H13Y 5668   2.936   2.023   3.963 -0.7181  0.1535  3.2489
   67SAPC  C314 5669   3.047   2.163   4.079  0.2334  0.3828 -0.1278
   67SAPC  H14X 5670   2.964   2.237   4.075 -0.1200 -0.0405 -0.8383
   67SAPC  H14Y 5671   3.154   2.190   4.094 -0.0959  0.6330  2.1994
   67SAPC  C315 5672   3.018   2.088   4.214  0.0795 -0.1622  0.4877
   67SAPC  H15X 5673   3.052   1.983   4.225 -0.8945 -0.3478  2.2075
   67SAPC  H15Y 5674   2.910   2.078   4.237  0.1016  2.1490  1.8669
   67SAPC  C316 5675   3.069   2.166   4.333  0.2143 -0.2923 -0.5577
   67SAPC  H16X 5676   3.046   2.272   4.313 -0.4458 -0.3382 -0.0782
   67SAPC  H16Y 5677   3.179   2.146   4.334  0.6577  1.8885 -1.4692
   67SAPC  C317 5678   2.995   2.116   4.460  0.0226  0.2935 -0.1153
   67SAPC  H17X 5679   3.033   2.011   4.462 -0.8952 -0.0477  0.4453
   67SAPC  H17Y 5680   2.886   2.109   4.437 -0.0789  0.3752  0.3223
   67SAPC  C318 5681   3.027   2.197   4.588  0.5309 -0.2224 -0.4078
   67SAPC  H18X 5682   3.003   2.305   4.574  1.7274 -0.2146 -2.9584
   67SAPC  H18Y 5683   3.135   2.190   4.611  0.3672  0.9363  0.8447
   67SAPC  H18Z 5684   2.970   2.156   4.674  0.0649  0.2131 -0.5000
   68SAPC     N 5685   4.020   0.106   2.500  0.6983 -0.6081  0.4205
   68SAPC   C12 5686   3.893   0.034   2.506  0.4579  0.2189 -0.3459
   68SAPC  H12A 5687   3.868  -0.012   2.412 -1.0502 -1.0391  0.6143
   68SAPC  H12B 5688   3.813   0.105   2.519  1.7321  1.3911  1.6576
   68SAPC   C13 5689   4.128   0.008   2.471  0.1340 -0.2329  0.3341
   68SAPC  H13A 5690   4.119  -0.078   2.536  1.9087  0.5125  1.6447
   68SAPC  H13B 5691   4.108  -0.009   2.367 -0.8429  1.0800  0.2883
   68SAPC  H13C 5692   4.225   0.050   2.491  0.0461  0.7158 -1.1341
   68SAPC   C14 5693   4.016   0.225   2.408 -1.1845 -0.2860 -0.2721
   68SAPC  H14A 5694   3.952   0.303   2.447 -0.7059 -0.6667  1.3744
   68SAPC  H14B 5695   4.115   0.266   2.400 -0.2799 -2.2010  0.5179
   68SAPC  H14C 5696   3.989   0.187   2.311  1.3257 -1.8598 -0.4460
   68SAPC   C15 5697   4.056   0.167   2.637 -0.0101  0.1190 -0.1630
   68SAPC  H15A 5698   4.059   0.097   2.719 -0.6747  0.7081  0.3786
   68SAPC  H15B 5699   4.151   0.218   2.627  1.0803 -1.4623  1.3403
   68SAPC  H15C 5700   3.991   0.248   2.667 -0.9569 -0.0189 -1.7737
   68SAPC   C11 5701   3.865  -0.096   2.594  0.1302 -0.4534  0.5379
   68SAPC  H11A 5702   3.758  -0.123   2.589  0.5236 -2.0131 -0.3084
   68SAPC  H11B 5703   3.899  -0.073   2.697  1.6177 -0.8529  0.1674
   68SAPC     P 5704   3.905  -0.301   2.429  0.1286 -0.4085  0.1097
   68SAPC   O13 5705   3.869  -0.219   2.309 -0.3165 -0.0923  0.4111
   68SAPC   O14 5706   3.989  -0.415   2.400 -0.4847  0.4875 -0.4060
   68SAPC   O12 5707   3.944  -0.209   2.544  0.3211 -0.9271 -0.2626
   68SAPC   O11 5708   3.768  -0.357   2.476 -0.3885  0.0298  0.1524
   68SAPC    C1 5709   3.744  -0.454   2.567  0.1864  0.0296 -0.4250
   68SAPC    HA 5710   3.787  -0.551   2.534 -1.7289 -1.6320  1.6135
   68SAPC    HB 5711   3.802  -0.448   2.661  1.5359 -1.0996 -1.1520
   68SAPC    C2 5712   3.600  -0.469   2.611  0.2755 -0.5765 -0.1701
   68SAPC    HS 5713   3.554  -0.463   2.510  3.0781 -2.7701 -1.7371
   68SAPC   O21 5714   3.560  -0.354   2.689  0.2589 -0.3450 -0.4056
   68SAPC   C21 5715   3.432  -0.309   2.679  0.5358  0.2156  0.2711
   68SAPC   O22 5716   3.338  -0.378   2.644 -0.0846  0.0111  0.4215
   68SAPC   C22 5717   3.420  -0.178   2.759  1.1456 -0.1564 -0.5685
   68SAPC   H2R 5718   3.516  -0.149   2.806  1.0925  0.3348 -0.7514
   68SAPC   H2S 5719   3.388  -0.102   2.684  0.4708 -0.5822 -0.7163
   68SAPC    C3 5720   3.562  -0.606   2.686  0.1093  0.6675  0.2506
   68SAPC    HX 5721   3.582  -0.689   2.615 -1.1779  0.8381 -0.3336
   68SAPC    HY 5722   3.453  -0.599   2.705  0.4864  0.0554  3.1884
   68SAPC   O31 5723   3.639  -0.620   2.808  0.1798  0.2703 -0.0433
   68SAPC   C31 5724   3.569  -0.680   2.911 -0.6717  0.5212 -0.4100
   68SAPC   O32 5725   3.450  -0.719   2.905 -0.6339 -0.1041 -0.3080
   68SAPC   C32 5726   3.650  -0.699   3.037 -0.2956  0.3159 -0.2912
   68SAPC   H2X 5727   3.577  -0.671   3.116  0.2600 -1.5605  0.9370
   68SAPC   H2Y 5728   3.741  -0.637   3.050 -1.4542  1.6418  2.0694
   68SAPC   C23 5729   3.316  -0.192   2.870  0.1873 -0.9506  0.3194
   68SAPC   H3R 5730   3.215  -0.211   2.828  0.1988  0.3744 -0.3615
   68SAPC   H3S 5731   3.298  -0.095   2.921 -2.1606 -2.0217  1.6733
   68SAPC   C24 5732   3.349  -0.296   2.976  0.0852  0.1278 -0.5747
   68SAPC   H4R 5733   3.458  -0.314   2.963 -0.3516 -1.0397 -3.1888
   68SAPC   H4S 5734   3.292  -0.389   2.954  1.0727 -0.2466 -1.6402
   68SAPC   C25 5735   3.335  -0.254   3.116 -0.3939 -0.0740  0.0932
   68SAPC   H5R 5736   3.244  -0.195   3.138  0.9948  1.7340  1.2915
   68SAPC   C26 5737   3.423  -0.279   3.218 -0.5811 -0.8551  0.0048
   68SAPC   H6R 5738   3.397  -0.240   3.317  1.2718  1.1728 -0.2370
   68SAPC   C27 5739   3.551  -0.360   3.209  0.4202 -0.1429 -0.1283
   68SAPC   H7R 5740   3.575  -0.389   3.105 -0.1446  1.1148 -0.6237
   68SAPC   H7S 5741   3.515  -0.446   3.270  0.6578  0.4211  0.8295
   68SAPC   C28 5742   3.677  -0.307   3.281  0.6922 -0.5609  0.3497
   68SAPC   H8R 5743   3.744  -0.248   3.217  0.7560  1.5533  2.2480
   68SAPC   C29 5744   3.717  -0.332   3.406 -0.4709  0.2892  0.2845
   68SAPC   H9R 5745   3.811  -0.281   3.432  0.3189 -0.5311 -0.8165
   68SAPC  C210 5746   3.652  -0.415   3.515 -0.3878  0.1430 -0.7756
   68SAPC  H10R 5747   3.712  -0.505   3.543  0.4412  0.4386 -1.5773
   68SAPC  H10S 5748   3.566  -0.470   3.472 -1.1547  1.0532 -0.4346
   68SAPC  C211 5749   3.615  -0.327   3.633 -1.0420  0.4192  0.2188
   68SAPC  H11R 5750   3.519  -0.275   3.622 -0.3782  1.8618  0.9900
   68SAPC  C212 5751   3.693  -0.299   3.736 -0.5621 -0.1229 -0.3358
   68SAPC  H12R 5752   3.655  -0.216   3.797 -1.0301 -0.4084 -0.2371
   68SAPC  C213 5753   3.833  -0.348   3.768 -0.2447  0.4820 -0.0112
   68SAPC  H13R 5754   3.851  -0.416   3.683 -2.0617  0.5474 -0.4718
   68SAPC  H13S 5755   3.835  -0.410   3.860 -0.2721  2.0208  1.0671
   68SAPC  C214 5756   3.938  -0.243   3.793 -0.5431 -0.1240 -0.4777
   68SAPC  H14R 5757   3.936  -0.169   3.712 -2.6862 -0.1929 -0.5355
   68SAPC  C215 5758   4.002  -0.214   3.909  0.7406  0.5694 -0.5663
   68SAPC  H15R 5759   4.074  -0.132   3.917  1.1229  0.2842 -0.9988
   68SAPC  C216 5760   3.988  -0.288   4.037 -0.6795 -0.2177 -0.3412
   68SAPC  H16R 5761   3.898  -0.350   4.056  0.1649 -1.0661  1.1222
   68SAPC  H16S 5762   3.992  -0.220   4.125  4.4812 -0.5298 -0.0220
   68SAPC  C217 5763   4.109  -0.377   4.079  0.4137 -0.4807  0.2592
   68SAPC  H17R 5764   4.201  -0.315   4.076 -0.6875  1.1748 -0.5696
   68SAPC  H17S 5765   4.128  -0.456   4.002 -0.8325 -1.8473  1.3033
   68SAPC  C218 5766   4.086  -0.452   4.214  0.1168 -0.7366  0.2530
   68SAPC  H18R 5767   4.112  -0.558   4.193  1.6328 -0.7275  1.8517
   68SAPC  H18S 5768   3.982  -0.435   4.249  0.4102  0.5257  0.5732
   68SAPC  C219 5769   4.176  -0.400   4.328 -0.5992  0.2552 -0.0760
   68SAPC  H19R 5770   4.280  -0.417   4.295  0.5126  5.1853  0.0654
   68SAPC  H19S 5771   4.174  -0.444   4.430  0.9729  1.1887  0.3961
   68SAPC  C220 5772   4.159  -0.252   4.350 -0.4868 -0.1625  0.2204
   68SAPC  H20R 5773   4.179  -0.189   4.260 -0.9159 -1.8129 -1.0847
   68SAPC  H20S 5774   4.225  -0.213   4.431  0.2105  0.1861 -0.4934
   68SAPC  H20T 5775   4.050  -0.236   4.364 -0.2069  1.8509  0.3983
   68SAPC   C33 5776   3.679  -0.850   3.056 -0.1899  0.1301 -0.4073
   68SAPC   H3X 5777   3.769  -0.875   2.995 -0.0345 -0.2629 -0.0231
   68SAPC   H3Y 5778   3.597  -0.914   3.016 -0.4144  0.3830 -0.3557
   68SAPC   C34 5779   3.702  -0.892   3.206 -0.0499  0.5380 -0.4662
   68SAPC   H4X 5780   3.740  -0.997   3.209 -0.5390  0.3817  1.7637
   68SAPC   H4Y 5781   3.608  -0.897   3.265  0.8546 -0.9308  0.9409
   68SAPC   C35 5782   3.805  -0.810   3.285  0.5110  0.8460 -0.3917
   68SAPC   H5X 5783   3.766  -0.705   3.284 -0.8091  0.3754 -1.6140
   68SAPC   H5Y 5784   3.900  -0.822   3.230  1.1279  2.3516  0.2877
   68SAPC   C36 5785   3.819  -0.862   3.427  0.2489  0.0527  0.4885
   68SAPC   H6X 5786   3.854  -0.968   3.420  0.7925  0.3357 -2.1325
   68SAPC   H6Y 5787   3.731  -0.854   3.494  0.4040  0.4576  0.6453
   68SAPC   C37 5788   3.925  -0.776   3.513  0.4477  0.5720  0.4103
   68SAPC   H7X 5789   3.933  -0.675   3.468  0.0946  0.7277  0.6900
   68SAPC   H7Y 5790   4.028  -0.818   3.520  0.9401  1.9304  1.9131
   68SAPC   C38 5791   3.881  -0.754   3.647  0.5073  0.2532 -0.2070
   68SAPC   H8X 5792   3.834  -0.844   3.694  3.5377 -0.6087  1.4323
   68SAPC   H8Y 5793   3.790  -0.690   3.648 -0.6453 -0.9083  5.2322
   68SAPC   C39 5794   3.992  -0.704   3.743  0.5982 -0.2959  0.3300
   68SAPC   H9X 5795   4.017  -0.609   3.691 -0.4145  0.0277  0.4014
   68SAPC   H9Y 5796   4.084  -0.766   3.747  1.4798  0.9477 -0.0022
   68SAPC  C310 5797   3.938  -0.673   3.884 -0.7807 -0.6498  0.7558
   68SAPC  H10X 5798   3.842  -0.618   3.882 -0.6486 -0.3897 -1.6226
   68SAPC  H10Y 5799   4.016  -0.605   3.927 -0.0826 -0.1295 -1.1953
   68SAPC  C311 5800   3.942  -0.788   3.983 -0.1388  0.3856 -0.8524
   68SAPC  H11X 5801   3.858  -0.856   3.960 -0.0480  0.3497 -1.0866
   68SAPC  H11Y 5802   3.913  -0.752   4.084  0.0209  1.3666 -1.1442
   68SAPC  C312 5803   4.073  -0.870   3.996 -0.3115  0.4315 -0.0843
   68SAPC  H12X 5804   4.146  -0.804   4.047 -0.4781 -0.4707  1.3603
   68SAPC  H12Y 5805   4.103  -0.899   3.893 -1.8992  0.2088 -0.5148
   68SAPC  C313 5806   4.059  -1.005   4.065  0.1336  0.3007 -0.1891
   68SAPC  H13X 5807   3.994  -1.079   4.013  0.9676 -0.7103  0.1859
   68SAPC  H13Y 5808   4.018  -0.986   4.166 -2.6961  1.9057 -1.5132
   68SAPC  C314 5809   4.188  -1.076   4.095  0.4716  0.3902  0.2273
   68SAPC  H14X 5810   4.165  -1.147   4.176  1.3634  0.0783  0.2125
   68SAPC  H14Y 5811   4.265  -1.002   4.125  3.8867 -1.3879 -3.2761
   68SAPC  C315 5812   4.242  -1.155   3.974 -0.0694 -0.3713  0.4135
   68SAPC  H15X 5813   4.301  -1.085   3.913 -3.0684  1.1727 -0.9376
   68SAPC  H15Y 5814   4.165  -1.206   3.912  0.7130  0.6929 -1.5142
   68SAPC  C316 5815   4.340  -1.276   4.017  0.0392 -0.3914  0.0123
   68SAPC  H16X 5816   4.372  -1.330   3.925  0.1556  0.1085 -0.2433
   68SAPC  H16Y 5817   4.278  -1.338   4.085 -0.9153  0.4617 -0.0619
   68SAPC  C317 5818   4.452  -1.227   4.105  0.0274  0.2011  0.0584
   68SAPC  H17X 5819   4.418  -1.163   4.189  0.3492  0.4307  0.0153
   68SAPC  H17Y 5820   4.515  -1.164   4.039 -2.1607 -0.0073 -2.3821
   68SAPC  C318 5821   4.531  -1.343   4.168  0.0452 -1.0140 -0.2625
   68SAPC  H18X 5822   4.465  -1.425   4.204  1.3043 -1.9747 -0.0607
   68SAPC  H18Y 5823   4.604  -1.319   4.249  0.9555  1.9731 -1.8080
   68SAPC  H18Z 5824   4.587  -1.396   4.088 -1.9769 -1.4351 -1.4674
   69SAPC     N 5825   5.248   3.008   2.178 -0.0289  0.2633 -0.1670
   69SAPC   C12 5826   5.150   2.892   2.152 -0.2396 -0.2323  0.1787
   69SAPC  H12A 5827   5.158   2.868   2.047 -0.6408 -0.6274  0.2340
   69SAPC  H12B 5828   5.049   2.931   2.155  0.0196  0.5311 -0.4996
   69SAPC   C13 5829   5.249   3.043   2.321 -0.1071 -0.5742  0.0062
   69SAPC  H13A 5830   5.297   2.964   2.377  2.0957  0.2586 -0.5807
   69SAPC  H13B 5831   5.306   3.133   2.338 -1.7533  0.6757 -0.8411
   69SAPC  H13C 5832   5.150   3.050   2.362 -0.2423  3.6251 -0.5766
   69SAPC   C14 5833   5.386   2.973   2.125 -0.1536 -0.1799 -0.1522
   69SAPC  H14A 5834   5.385   2.960   2.018 -0.3628  0.2464 -0.2049
   69SAPC  H14B 5835   5.457   3.055   2.130  2.3104 -2.1333 -0.9286
   69SAPC  H14C 5836   5.439   2.897   2.181  1.4992  1.3171  0.4408
   69SAPC   C15 5837   5.203   3.122   2.091 -0.0967  0.4880 -0.9124
   69SAPC  H15A 5838   5.251   3.217   2.106  0.5729  0.7612 -4.1007
   69SAPC  H15B 5839   5.206   3.092   1.987  0.8482  0.7586 -0.9727
   69SAPC  H15C 5840   5.099   3.149   2.101 -0.1622 -0.4860  2.1570
   69SAPC   C11 5841   5.159   2.764   2.237 -0.0952  0.7054 -0.1468
   69SAPC  H11A 5842   5.090   2.689   2.192 -1.3041  1.8272 -0.2166
   69SAPC  H11B 5843   5.119   2.784   2.339  1.2145  0.5235  0.4301
   69SAPC     P 5844   5.369   2.679   2.377  0.3853  0.4552 -0.0895
   69SAPC   O13 5845   5.482   2.592   2.347  0.4496 -0.0012 -0.3894
   69SAPC   O14 5846   5.394   2.799   2.464  0.0623  0.6882 -0.9064
   69SAPC   O12 5847   5.301   2.716   2.234 -0.0186 -0.3271  0.2587
   69SAPC   O11 5848   5.255   2.593   2.447 -0.0278 -0.5558 -0.5166
   69SAPC    C1 5849   5.170   2.492   2.389  0.4698 -0.5214  0.0724
   69SAPC    HA 5850   5.185   2.482   2.280 -1.1064 -2.6414 -0.0198
   69SAPC    HB 5851   5.204   2.400   2.442  1.0615 -0.3362  0.0215
   69SAPC    C2 5852   5.017   2.505   2.422 -0.1651  0.3201  0.3771
   69SAPC    HS 5853   4.973   2.603   2.394  0.5519  0.5349 -0.0514
   69SAPC   O21 5854   5.001   2.473   2.557  0.0301 -0.3093 -0.5231
   69SAPC   C21 5855   4.986   2.572   2.643 -0.0967  0.5168  0.0033
   69SAPC   O22 5856   4.994   2.688   2.612 -0.4594 -0.4378 -0.0521
   69SAPC   C22 5857   4.949   2.516   2.781 -0.0860 -0.6074 -0.7010
   69SAPC   H2R 5858   4.863   2.447   2.773  0.1916 -0.8884 -1.3629
   69SAPC   H2S 5859   5.035   2.459   2.823  0.2337 -0.4515 -1.1321
   69SAPC    C3 5860   4.926   2.400   2.343  0.0821 -0.0931  0.0928
   69SAPC    HX 5861   4.972   2.300   2.352  0.5527  0.2954  2.8650
   69SAPC    HY 5862   4.910   2.423   2.236  1.4341  2.9192  0.4284
   69SAPC   O31 5863   4.792   2.407   2.398 -0.2907 -0.9269  0.1873
   69SAPC   C31 5864   4.738   2.291   2.406 -0.0410 -0.6655 -0.7237
   69SAPC   O32 5865   4.780   2.183   2.372  0.0834 -0.1304 -0.8956
   69SAPC   C32 5866   4.599   2.326   2.476  0.3410  0.0766  0.5287
   69SAPC   H2X 5867   4.530   2.375   2.404 -1.0271  0.8112  2.2560
   69SAPC   H2Y 5868   4.607   2.404   2.555  0.9265  0.4888  0.0733
   69SAPC   C23 5869   4.913   2.630   2.878 -0.5075 -0.7977  0.1641
   69SAPC   H3R 5870   4.821   2.679   2.838  0.6696  1.5081  0.1570
   69SAPC   H3S 5871   4.996   2.703   2.876 -0.4142 -0.8289  1.6849
   69SAPC   C24 5872   4.886   2.585   3.024 -0.0408  0.5019 -0.2981
   69SAPC   H4R 5873   4.791   2.529   3.026  1.5704 -2.3964  0.1176
   69SAPC   H4S 5874   4.876   2.685   3.073  2.1680  0.1400  1.0611
   69SAPC   C25 5875   4.992   2.514   3.107 -0.4769  0.6972 -0.2537
   69SAPC   H5R 5876   5.009   2.408   3.082  0.3545  1.0632 -1.2833
   69SAPC   C26 5877   5.059   2.560   3.209  0.1277 -0.8232  0.0878
   69SAPC   H6R 5878   5.122   2.493   3.270 -1.7198 -0.7885  2.1537
   69SAPC   C27 5879   5.036   2.698   3.272 -0.1106 -0.7834  0.5364
   69SAPC   H7R 5880   4.926   2.713   3.285  0.0518  0.2380  0.8397
   69SAPC   H7S 5881   5.074   2.778   3.205  0.2478 -1.3275  0.0800
   69SAPC   C28 5882   5.100   2.719   3.405 -0.2362  0.0545  0.3236
   69SAPC   H8R 5883   5.210   2.712   3.405 -0.1878  0.5485 -1.1195
   69SAPC   C29 5884   5.039   2.743   3.523 -0.3347  0.1126 -0.2799
   69SAPC   H9R 5885   5.101   2.761   3.612  0.9814  0.0237 -1.1565
   69SAPC  C210 5886   4.891   2.755   3.551 -0.9995 -0.1975 -0.7920
   69SAPC  H10R 5887   4.851   2.813   3.466  1.3241 -1.7298 -3.0847
   69SAPC  H10S 5888   4.894   2.818   3.642  0.3069 -0.6490 -0.5006
   69SAPC  C211 5889   4.840   2.609   3.568 -0.0201  0.3150 -0.7195
   69SAPC  H11R 5890   4.837   2.554   3.472  1.5195 -0.4551 -0.3538
   69SAPC  C212 5891   4.822   2.536   3.680  0.1635  0.2419 -0.8436
   69SAPC  H12R 5892   4.774   2.438   3.664  0.0578 -0.0148  0.9383
   69SAPC  C213 5893   4.827   2.587   3.819  0.3651 -0.1690 -0.3865
   69SAPC  H13R 5894   4.737   2.563   3.880  0.0347 -0.7064 -1.0736
   69SAPC  H13S 5895   4.827   2.698   3.827 -0.1772  0.0167 -2.2991
   69SAPC  C214 5896   4.953   2.545   3.893  0.0535 -1.1688 -0.6729
   69SAPC  H14R 5897   5.038   2.545   3.823 -1.0737 -0.2540 -2.1083
   69SAPC  C215 5898   4.964   2.502   4.020  0.3445 -0.1591  0.0173
   69SAPC  H15R 5899   5.064   2.469   4.053  1.0636 -1.2462 -2.9597
   69SAPC  C216 5900   4.839   2.481   4.112 -0.3757  0.0258  0.1436
   69SAPC  H16R 5901   4.760   2.432   4.051  0.1215 -0.1490 -0.3741
   69SAPC  H16S 5902   4.798   2.578   4.147  3.3739  2.0543 -0.4927
   69SAPC  C217 5903   4.865   2.390   4.235  0.5991 -0.0002  0.4577
   69SAPC  H17R 5904   4.917   2.456   4.308 -0.5205  0.8481  0.5043
   69SAPC  H17S 5905   4.932   2.309   4.198 -1.3450 -0.5335 -2.1234
   69SAPC  C218 5906   4.741   2.333   4.301  0.6797 -0.1227 -0.1211
   69SAPC  H18R 5907   4.695   2.266   4.225  1.9563 -2.8907  1.4015
   69SAPC  H18S 5908   4.664   2.413   4.310  0.3300 -0.6417  2.1457
   69SAPC  C219 5909   4.768   2.245   4.425  0.3422 -0.2336 -0.0228
   69SAPC  H19R 5910   4.833   2.161   4.393  0.1049 -0.1336 -0.7664
   69SAPC  H19S 5911   4.673   2.197   4.457  0.7977  0.1932  2.1286
   69SAPC  C220 5912   4.820   2.310   4.555 -0.0932 -0.0657  0.4096
   69SAPC  H20R 5913   4.928   2.291   4.540 -0.2912  0.5312 -2.1265
   69SAPC  H20S 5914   4.777   2.261   4.645 -1.3042  0.9448  0.4089
   69SAPC  H20T 5915   4.805   2.420   4.558  0.6373  0.0498  0.0105
   69SAPC   C33 5916   4.528   2.194   2.512 -0.7447 -0.2289 -0.4742
   69SAPC   H3X 5917   4.517   2.127   2.424 -0.4042 -0.0998 -0.6193
   69SAPC   H3Y 5918   4.427   2.217   2.550 -0.8142 -0.3042 -0.6148
   69SAPC   C34 5919   4.603   2.122   2.627 -0.1247 -0.4560  0.0457
   69SAPC   H4X 5920   4.691   2.069   2.586  0.8000 -0.7237  2.2432
   69SAPC   H4Y 5921   4.535   2.045   2.669 -0.2263  0.2919  1.3185
   69SAPC   C35 5922   4.645   2.213   2.744 -0.1587 -0.1532  0.2033
   69SAPC   H5X 5923   4.552   2.271   2.761  0.5624  0.7797  1.1139
   69SAPC   H5Y 5924   4.729   2.280   2.718 -0.8867  0.1297 -1.5696
   69SAPC   C36 5925   4.679   2.118   2.864 -0.2491 -0.8740  1.1988
   69SAPC   H6X 5926   4.780   2.075   2.847 -0.8102 -1.7825  0.0455
   69SAPC   H6Y 5927   4.600   2.039   2.867 -0.4279 -0.7368  0.1422
   69SAPC   C37 5928   4.665   2.199   2.996  0.1980 -0.1300 -0.0972
   69SAPC   H7X 5929   4.569   2.161   3.036 -0.8192  1.1504 -1.2683
   69SAPC   H7Y 5930   4.661   2.309   2.983  2.4626  0.2970  2.0509
   69SAPC   C38 5931   4.777   2.158   3.099 -0.0592  0.1752  0.6704
   69SAPC   H8X 5932   4.877   2.198   3.072  0.0072 -1.2441 -1.4845
   69SAPC   H8Y 5933   4.798   2.050   3.083  2.1420  0.8767 -1.8586
   69SAPC   C39 5934   4.756   2.192   3.240 -0.3407 -0.2516  0.4817
   69SAPC   H9X 5935   4.679   2.124   3.281 -0.6052 -0.0898  0.2607
   69SAPC   H9Y 5936   4.716   2.296   3.243 -0.8117 -0.3918 -0.4266
   69SAPC  C310 5937   4.891   2.176   3.312 -0.2243  0.1805 -0.3084
   69SAPC  H10X 5938   4.962   2.249   3.267 -2.1116  1.7619 -0.8415
   69SAPC  H10Y 5939   4.930   2.073   3.296 -1.7968 -0.5622  0.4482
   69SAPC  C311 5940   4.877   2.187   3.469  0.3760 -0.2663  0.0215
   69SAPC  H11X 5941   4.828   2.286   3.482  1.1176  0.5777 -2.7986
   69SAPC  H11Y 5942   4.982   2.177   3.505 -0.2207 -1.1253  1.6565
   69SAPC  C312 5943   4.792   2.079   3.540 -0.5044 -0.4313  0.7381
   69SAPC  H12X 5944   4.756   2.004   3.465  1.4920  1.0534 -1.8747
   69SAPC  H12Y 5945   4.703   2.125   3.589 -0.1374  0.1103  0.8990
   69SAPC  C313 5946   4.867   2.005   3.639 -0.4880 -0.3087  0.8547
   69SAPC  H13X 5947   4.912   2.077   3.709 -0.7892 -0.8511  1.6167
   69SAPC  H13Y 5948   4.945   1.938   3.596 -0.3088 -0.9860  2.1816
   69SAPC  C314 5949   4.787   1.912   3.720  0.0340 -0.2379 -0.5698
   69SAPC  H14X 5950   4.713   1.857   3.658  0.3259 -0.8950 -0.3513
   69SAPC  H14Y 5951   4.742   1.971   3.802  2.4613 -0.6084  1.1581
   69SAPC  C315 5952   4.882   1.815   3.807  0.5527  0.5367 -0.1595
   69SAPC  H15X 5953   4.958   1.873   3.862  2.6144 -0.3499 -1.8850
   69SAPC  H15Y 5954   4.937   1.739   3.747  0.5937 -1.6384  2.4709
   69SAPC  C316 5955   4.785   1.740   3.908 -0.2731 -0.2967  0.2880
   69SAPC  H16X 5956   4.722   1.671   3.848 -0.7189 -1.9081  2.4730
   69SAPC  H16Y 5957   4.720   1.808   3.968  0.3240  0.3656  0.2060
   69SAPC  C317 5958   4.849   1.647   4.009 -0.6134  0.9944 -0.5000
   69SAPC  H17X 5959   4.888   1.700   4.099  2.7832  0.7957 -1.7096
   69SAPC  H17Y 5960   4.934   1.600   3.955 -0.7549  0.7277 -0.4926
   69SAPC  C318 5961   4.752   1.533   4.059  0.3741 -0.1847  0.2341
   69SAPC  H18X 5962   4.814   1.462   4.118  2.8796  1.9454  0.3127
   69SAPC  H18Y 5963   4.707   1.481   3.972 -1.0504  0.3968  0.5925
   69SAPC  H18Z 5964   4.670   1.586   4.113  1.0727  2.2034 -0.9296
   70SAPC     N 5965   6.258   1.769   1.672  0.0486 -0.6067 -0.8225
   70SAPC   C12 5966   6.290   1.776   1.814 -0.0935 -0.8807 -0.1792
   70SAPC  H12A 5967   6.284   1.674   1.850 -1.1598 -0.3952  1.1164
   70SAPC  H12B 5968   6.211   1.830   1.863  0.4554 -1.3572  1.2701
   70SAPC   C13 5969   6.110   1.733   1.650 -0.2096 -0.3752  0.7417
   70SAPC  H13A 5970   6.051   1.813   1.694  1.6036  0.8956  0.9540
   70SAPC  H13B 5971   6.084   1.733   1.545  0.6701  2.5950  0.4441
   70SAPC  H13C 5972   6.086   1.645   1.708 -0.1607  1.3026  3.5260
   70SAPC   C14 5973   6.272   1.894   1.596 -0.0463 -0.6228 -0.3428
   70SAPC  H14A 5974   6.372   1.933   1.612 -0.2853 -0.1928  0.1592
   70SAPC  H14B 5975   6.245   1.874   1.494 -0.9630  0.0105 -0.2466
   70SAPC  H14C 5976   6.208   1.970   1.639 -0.8590 -0.8726 -1.0726
   70SAPC   C15 5977   6.350   1.663   1.611 -0.9356 -0.3859  0.0737
   70SAPC  H15A 5978   6.345   1.560   1.644  0.2107 -0.5954 -0.3567
   70SAPC  H15B 5979   6.323   1.661   1.506 -0.5330 -0.7847 -0.0252
   70SAPC  H15C 5980   6.454   1.691   1.613 -1.1247  0.3418 -0.0248
   70SAPC   C11 5981   6.422   1.832   1.865 -0.4812  0.6061 -0.3216
   70SAPC  H11A 5982   6.503   1.790   1.802 -1.1354 -1.2812  0.0456
   70SAPC  H11B 5983   6.436   1.800   1.971 -0.1588 -2.0364 -1.1137
   70SAPC     P 5984   6.358   2.068   1.959 -0.3944 -0.3483 -0.4247
   70SAPC   O13 5985   6.428   2.076   2.088  0.7226 -0.2805  0.1844
   70SAPC   O14 5986   6.332   2.195   1.888 -0.1105  0.2524 -0.0259
   70SAPC   O12 5987   6.431   1.970   1.861  0.2260 -0.3438  0.0537
   70SAPC   O11 5988   6.223   1.993   1.977 -0.5086  0.1345 -0.2123
   70SAPC    C1 5989   6.109   2.074   2.019 -0.3551  0.3123  0.0789
   70SAPC    HA 5990   6.082   2.156   1.949  3.6256  0.7434 -1.2039
   70SAPC    HB 5991   6.021   2.008   2.025 -0.9314  0.9860 -0.7079
   70SAPC    C2 5992   6.133   2.132   2.159  0.6743 -0.6729  0.7516
   70SAPC    HS 5993   6.195   2.223   2.145 -2.4077  1.4159 -0.4248
   70SAPC   O21 5994   6.173   2.032   2.248 -0.5502  0.8545 -0.3286
   70SAPC   C21 5995   6.247   2.082   2.353  0.3419  0.3366  0.5450
   70SAPC   O22 5996   6.280   2.198   2.368 -0.4080 -0.1451  0.3481
   70SAPC   C22 5997   6.298   1.973   2.453  0.3146 -0.0195  0.0681
   70SAPC   H2R 5998   6.329   1.884   2.393  0.5611  0.0972  0.0196
   70SAPC   H2S 5999   6.392   2.021   2.488  0.3551 -0.0641  0.0215
   70SAPC    C3 6000   6.001   2.184   2.208  0.9689 -0.3490 -0.1858
   70SAPC    HX 6001   5.919   2.112   2.192  0.6191  0.4217 -2.0944
   70SAPC    HY 6002   5.985   2.269   2.138 -1.0248 -0.6093 -0.0996
   70SAPC   O31 6003   6.006   2.228   2.346  0.3468 -0.3595 -0.3481
   70SAPC   C31 6004   5.889   2.291   2.378  0.5114  0.0236 -0.2433
   70SAPC   O32 6005   5.789   2.290   2.309  0.1546  0.2867  0.5230
   70SAPC   C32 6006   5.892   2.360   2.508  0.0399  0.2052  0.6959
   70SAPC   H2X 6007   5.965   2.442   2.497  0.8005 -0.6477 -0.9657
   70SAPC   H2Y 6008   5.919   2.280   2.581 -1.4854 -0.8556  0.1482
   70SAPC   C23 6009   6.185   1.943   2.554  0.2815  0.0646 -0.5880
   70SAPC   H3R 6010   6.234   1.871   2.623 -1.5967 -0.6448  0.0631
   70SAPC   H3S 6011   6.096   1.896   2.507  0.7766 -1.1827 -0.3185
   70SAPC   C24 6012   6.123   2.063   2.631  0.0385 -0.1062  0.7386
   70SAPC   H4R 6013   6.054   2.117   2.564 -0.8160 -1.2531  0.6587
   70SAPC   H4S 6014   6.202   2.131   2.669  0.9477 -1.1748  0.8166
   70SAPC   C25 6015   6.043   2.019   2.746 -1.1512  0.2595  0.0855
   70SAPC   H5R 6016   6.029   1.910   2.743  3.0813 -0.4348 -0.8313
   70SAPC   C26 6017   6.018   2.094   2.856  0.1488  1.0577  0.5411
   70SAPC   H6R 6018   5.961   2.053   2.941  1.1205 -2.0154 -0.1349
   70SAPC   C27 6019   6.049   2.236   2.867  0.0266 -0.9365 -0.2392
   70SAPC   H7R 6020   6.104   2.286   2.784 -1.2731  2.0895  0.5979
   70SAPC   H7S 6021   6.127   2.243   2.946  1.1070 -1.4149 -1.2167
   70SAPC   C28 6022   5.922   2.331   2.888 -0.4114  1.1978  0.0170
   70SAPC   H8R 6023   5.888   2.387   2.800 -0.1386 -0.9063 -1.5256
   70SAPC   C29 6024   5.849   2.344   3.004 -0.2840 -0.1121 -0.4741
   70SAPC   H9R 6025   5.765   2.416   2.997 -0.4016 -0.1322  0.5698
   70SAPC  C210 6026   5.870   2.273   3.139  0.0587 -0.4063  0.1195
   70SAPC  H10R 6027   5.950   2.331   3.191 -0.6420 -0.7856  1.6743
   70SAPC  H10S 6028   5.901   2.168   3.118 -0.3214 -0.8223  1.5316
   70SAPC  C211 6029   5.745   2.243   3.228  0.5048  0.4183  0.2497
   70SAPC  H11R 6030   5.655   2.254   3.166  0.7476  3.5255  0.3099
   70SAPC  C212 6031   5.746   2.194   3.356  0.1679 -0.6466  0.7752
   70SAPC  H12R 6032   5.646   2.182   3.400 -0.3507 -0.3145 -0.2789
   70SAPC  C213 6033   5.862   2.193   3.447 -0.1281  0.3660  0.3431
   70SAPC  H13R 6034   5.966   2.200   3.409  0.6392  1.9998  2.4984
   70SAPC  H13S 6035   5.851   2.093   3.495  1.6461 -0.0122  0.0233
   70SAPC  C214 6036   5.824   2.292   3.549  0.0252 -0.2587 -0.3263
   70SAPC  H14R 6037   5.763   2.378   3.517 -0.4054 -0.0336  1.0186
   70SAPC  C215 6038   5.846   2.291   3.682  0.8113  0.0657  0.2705
   70SAPC  H15R 6039   5.790   2.365   3.741  2.6996  1.4825  0.4115
   70SAPC  C216 6040   5.926   2.197   3.762 -0.0267  0.6790  0.1020
   70SAPC  H16R 6041   5.990   2.250   3.836 -1.9740  0.7243  1.8438
   70SAPC  H16S 6042   5.988   2.129   3.700 -1.2993 -0.4141 -0.0063
   70SAPC  C217 6043   5.848   2.096   3.846  0.4191 -0.1334 -0.2048
   70SAPC  H17R 6044   5.911   2.013   3.885  1.5066  1.2435  1.0969
   70SAPC  H17S 6045   5.759   2.059   3.790  0.0495  0.5698 -0.0977
   70SAPC  C218 6046   5.783   2.145   3.981 -0.9215 -0.0072  0.7762
   70SAPC  H18R 6047   5.750   2.248   3.958 -1.7385 -0.6023 -0.8527
   70SAPC  H18S 6048   5.856   2.143   4.064 -0.0915  0.1359  0.0587
   70SAPC  C219 6049   5.671   2.050   4.021  0.5553 -0.1996 -0.4542
   70SAPC  H19R 6050   5.599   2.047   3.937 -0.9142  1.4503  0.6738
   70SAPC  H19S 6051   5.623   2.107   4.104  0.4768  0.4868 -0.9621
   70SAPC  C220 6052   5.715   1.916   4.078 -0.0044 -0.2107 -0.1384
   70SAPC  H20R 6053   5.633   1.852   4.117  0.2119 -0.4040  0.0009
   70SAPC  H20S 6054   5.787   1.939   4.159  0.2250  1.0633 -0.6870
   70SAPC  H20T 6055   5.765   1.854   4.000  0.0206 -0.1025 -0.2091
   70SAPC   C33 6056   5.750   2.407   2.553 -0.2783  0.2610  0.8586
   70SAPC   H3X 6057   5.687   2.457   2.477 -2.1067 -1.0472  1.4419
   70SAPC   H3Y 6058   5.763   2.485   2.631  2.6500 -0.0976  0.8575
   70SAPC   C34 6059   5.663   2.301   2.614  0.2892 -0.0156 -0.0611
   70SAPC   H4X 6060   5.705   2.269   2.711 -0.1799  3.6642  1.5317
   70SAPC   H4Y 6061   5.668   2.212   2.548  2.6533 -0.1157  0.1775
   70SAPC   C35 6062   5.516   2.343   2.631  0.0807  0.1103  0.5517
   70SAPC   H5X 6063   5.449   2.269   2.681  0.0880 -1.2048 -1.3142
   70SAPC   H5Y 6064   5.461   2.357   2.535 -3.2196 -2.1158  1.9037
   70SAPC   C36 6065   5.499   2.471   2.711  0.1473 -0.0669 -0.3136
   70SAPC   H6X 6066   5.536   2.546   2.638  0.0840 -0.1807 -0.4611
   70SAPC   H6Y 6067   5.567   2.480   2.799  0.3567  0.1376 -0.4962
   70SAPC   C37 6068   5.356   2.500   2.741 -0.5619  0.1870 -0.3395
   70SAPC   H7X 6069   5.305   2.480   2.644 -1.8715  1.2777  0.0890
   70SAPC   H7Y 6070   5.321   2.424   2.814  0.8536 -0.5505 -0.3965
   70SAPC   C38 6071   5.335   2.643   2.785 -0.8038 -0.1847  0.6163
   70SAPC   H8X 6072   5.227   2.669   2.778 -0.6618 -0.0513 -1.9321
   70SAPC   H8Y 6073   5.381   2.713   2.712 -3.1939  1.3479  0.4609
   70SAPC   C39 6074   5.380   2.672   2.926  0.3081 -0.3465  0.5278
   70SAPC   H9X 6075   5.478   2.629   2.955  0.4912  0.4033  1.0574
   70SAPC   H9Y 6076   5.310   2.632   3.003  0.7081 -0.1528  1.0009
   70SAPC  C310 6077   5.375   2.827   2.956 -0.5006 -0.0742  0.2544
   70SAPC  H10X 6078   5.270   2.857   2.938 -0.6330  0.8417  2.2241
   70SAPC  H10Y 6079   5.440   2.871   2.878 -0.9913 -1.0827 -0.7609
   70SAPC  C311 6080   5.419   2.877   3.097  0.3746  0.1201  0.1010
   70SAPC  H11X 6081   5.524   2.843   3.107  0.0007 -0.9277  0.6338
   70SAPC  H11Y 6082   5.356   2.828   3.174 -1.0902  1.7101 -0.0149
   70SAPC  C312 6083   5.426   3.027   3.122 -0.1213  0.4495  0.3953
   70SAPC  H12X 6084   5.339   3.071   3.069 -2.1267 -1.7896  1.6038
   70SAPC  H12Y 6085   5.525   3.069   3.095  2.3605 -2.8407  3.2597
   70SAPC  C313 6086   5.422   3.057   3.279 -0.3338  0.5780 -0.0831
   70SAPC  H13X 6087   5.400   3.165   3.293 -0.2858  0.3426  2.2080
   70SAPC  H13Y 6088   5.520   3.030   3.323  0.2746 -0.6229 -2.0413
   70SAPC  C314 6089   5.299   2.998   3.362  0.3094 -0.4703  0.3017
   70SAPC  H14X 6090   5.326   2.891   3.364  0.5807 -0.5372 -2.6059
   70SAPC  H14Y 6091   5.206   3.012   3.303  1.0654  1.4708 -0.5387
   70SAPC  C315 6092   5.269   3.070   3.494  0.2519 -0.1812  0.2283
   70SAPC  H15X 6093   5.185   3.015   3.542  0.1230 -0.0203  0.1859
   70SAPC  H15Y 6094   5.246   3.179   3.490  0.3306 -0.1592  0.4153
   70SAPC  C316 6095   5.384   3.067   3.605  0.4051 -0.1836 -0.2430
   70SAPC  H16X 6096   5.463   3.133   3.564 -1.1094  0.6170 -1.9640
   70SAPC  H16Y 6097   5.410   2.960   3.626 -1.7904 -0.7046  0.0709
   70SAPC  C317 6098   5.325   3.114   3.739  0.0094 -1.1971 -0.6312
   70SAPC  H17X 6099   5.230   3.059   3.756 -0.7905  0.1356 -0.5938
   70SAPC  H17Y 6100   5.297   3.222   3.735  0.6811 -0.9608  0.4863
   70SAPC  C318 6101   5.419   3.086   3.856 -0.0167 -0.2837  0.1626
   70SAPC  H18X 6102   5.427   2.977   3.874  0.7208 -0.1338  0.8113
   70SAPC  H18Y 6103   5.375   3.126   3.951  2.0811 -0.7776  1.4129
   70SAPC  H18Z 6104   5.517   3.134   3.837 -0.8057  1.2630 -0.1367
   71SAPC     N 6105   5.461   5.968   2.181  0.0265 -0.3951  0.3792
   71SAPC   C12 6106   5.342   5.957   2.282 -0.5632 -0.2296  0.6888
   71SAPC  H12A 6107   5.375   5.880   2.349  0.5572 -2.3582 -2.0901
   71SAPC  H12B 6108   5.260   5.906   2.235  0.0325 -1.3855  0.8564
   71SAPC   C13 6109   5.577   6.039   2.243 -0.6247  0.0405 -0.3884
   71SAPC  H13A 6110   5.627   5.978   2.316  1.7054  1.3365 -0.8107
   71SAPC  H13B 6111   5.652   6.049   2.165 -0.8060  1.3512 -0.4143
   71SAPC  H13C 6112   5.547   6.140   2.269 -0.8613 -0.0645 -0.2518
   71SAPC   C14 6113   5.509   5.829   2.148  0.1465  0.9067 -0.2416
   71SAPC  H14A 6114   5.538   5.789   2.245 -2.2586  2.1481  1.0810
   71SAPC  H14B 6115   5.435   5.769   2.099  1.0820 -0.4773 -0.0248
   71SAPC  H14C 6116   5.595   5.836   2.083  0.4795 -0.2065  0.0505
   71SAPC   C15 6117   5.424   6.031   2.055  0.2996 -0.1200 -0.2704
   71SAPC  H15A 6118   5.507   6.044   1.987  1.2699 -2.2193  0.4450
   71SAPC  H15B 6119   5.358   5.964   2.003  1.5975 -0.1927 -1.9130
   71SAPC  H15C 6120   5.367   6.122   2.068  0.5016 -0.3269  2.5751
   71SAPC   C11 6121   5.301   6.080   2.356 -0.1980 -0.0493 -0.2313
   71SAPC  H11A 6122   5.380   6.120   2.424 -0.2168  0.1121 -0.3029
   71SAPC  H11B 6123   5.216   6.068   2.427  0.8962  1.3992  1.4398
   71SAPC     P 6124   5.123   6.171   2.186  0.1889  0.0226  0.2525
   71SAPC   O13 6125   5.127   6.267   2.070 -0.3390 -0.0807  0.4482
   71SAPC   O14 6126   5.104   6.032   2.142  0.6814 -0.3257  0.1514
   71SAPC   O12 6127   5.256   6.184   2.263  0.1817 -0.3039 -0.3762
   71SAPC   O11 6128   5.021   6.212   2.293  0.3906  0.3787  0.3814
   71SAPC    C1 6129   4.996   6.351   2.314 -0.5106  0.4076 -0.1391
   71SAPC    HA 6130   4.937   6.400   2.233 -1.0161  0.9420  0.5407
   71SAPC    HB 6131   4.920   6.352   2.394  1.0046 -0.8128  1.3891
   71SAPC    C2 6132   5.114   6.429   2.362 -0.7963  0.4938 -0.0316
   71SAPC    HS 6133   5.203   6.407   2.299 -0.5587 -0.6856  0.6905
   71SAPC   O21 6134   5.144   6.369   2.491  0.2313  0.4725  0.0496
   71SAPC   C21 6135   5.272   6.386   2.534 -0.2738  0.7604  0.0483
   71SAPC   O22 6136   5.353   6.453   2.470 -0.2436 -0.0805 -0.4844
   71SAPC   C22 6137   5.298   6.300   2.662 -0.1694  0.8173  0.2072
   71SAPC   H2R 6138   5.221   6.343   2.729 -0.6141 -0.4871  0.5620
   71SAPC   H2S 6139   5.260   6.202   2.626 -0.2244  0.5654  0.9289
   71SAPC    C3 6140   5.085   6.583   2.378  0.1636 -0.1939  0.3900
   71SAPC    HX 6141   5.054   6.631   2.283 -0.4741 -0.5167  0.4294
   71SAPC    HY 6142   5.170   6.652   2.397 -0.4090  0.6693 -0.1178
   71SAPC   O31 6143   4.973   6.614   2.468 -0.9663  0.2357  0.0849
   71SAPC   C31 6144   5.009   6.613   2.603  0.0523  0.1376  0.0269
   71SAPC   O32 6145   5.123   6.600   2.646  0.2489  0.1906  0.8088
   71SAPC   C32 6146   4.882   6.609   2.692  0.4522 -0.1526  0.0380
   71SAPC   H2X 6147   4.806   6.551   2.635  0.8914  0.7056 -1.4535
   71SAPC   H2Y 6148   4.837   6.710   2.693  0.7426 -0.0200  0.5960
   71SAPC   C23 6149   5.441   6.290   2.717  0.3635 -0.7928 -0.5827
   71SAPC   H3R 6150   5.472   6.397   2.723 -2.0129 -0.0913  0.5833
   71SAPC   H3S 6151   5.522   6.244   2.658  2.8314 -0.0212  1.9791
   71SAPC   C24 6152   5.452   6.241   2.861 -0.3642 -0.5393  0.2731
   71SAPC   H4R 6153   5.390   6.306   2.926 -1.4226 -0.4635 -0.7752
   71SAPC   H4S 6154   5.556   6.271   2.885 -0.3056 -0.1686 -0.4251
   71SAPC   C25 6155   5.432   6.092   2.883 -0.0546  0.3162  0.1093
   71SAPC   H5R 6156   5.465   6.027   2.801  1.2883 -1.6572  2.0896
   71SAPC   C26 6157   5.413   6.041   3.006  0.5354 -0.5821  0.0548
   71SAPC   H6R 6158   5.401   5.933   3.024  1.0730 -0.6693 -0.1098
   71SAPC   C27 6159   5.363   6.119   3.121  0.5862 -0.0544 -0.2251
   71SAPC   H7R 6160   5.411   6.218   3.137  2.2409 -0.8211 -0.2807
   71SAPC   H7S 6161   5.400   6.059   3.207 -0.4038 -0.4006 -0.0168
   71SAPC   C28 6162   5.212   6.142   3.130 -0.1156  0.1552  0.1359
   71SAPC   H8R 6163   5.156   6.092   3.049  2.6933  0.0120 -1.8556
   71SAPC   C29 6164   5.134   6.215   3.213 -0.0272  0.0547  0.0120
   71SAPC   H9R 6165   5.030   6.219   3.179  0.5870  1.5642 -1.9274
   71SAPC  C210 6166   5.188   6.297   3.323  0.1302  0.5222  0.7065
   71SAPC  H10R 6167   5.241   6.227   3.391 -1.6629 -2.6552 -0.9303
   71SAPC  H10S 6168   5.094   6.329   3.374  0.5950  1.0555  1.2355
   71SAPC  C211 6169   5.267   6.417   3.288 -0.0532  0.6002 -0.3358
   71SAPC  H11R 6170   5.255   6.456   3.186  0.3119  1.0084 -0.2253
   71SAPC  C212 6171   5.342   6.491   3.371 -0.1186 -0.3243 -0.2346
   71SAPC  H12R 6172   5.396   6.581   3.339 -0.0281  0.0390  0.8896
   71SAPC  C213 6173   5.386   6.468   3.515  0.1365  0.4686  0.2017
   71SAPC  H13R 6174   5.333   6.381   3.559 -1.0482  1.6734  1.2245
   71SAPC  H13S 6175   5.349   6.546   3.584 -1.2809 -0.5854  0.6831
   71SAPC  C214 6176   5.533   6.425   3.543 -0.6969 -0.1666 -0.8675
   71SAPC  H14R 6177   5.597   6.385   3.463  2.1023 -0.5462  1.3867
   71SAPC  C215 6178   5.586   6.415   3.666  0.0597  0.2212  0.2821
   71SAPC  H15R 6179   5.691   6.383   3.668  0.2113  0.5747 -1.3056
   71SAPC  C216 6180   5.518   6.443   3.806  0.6884 -0.1125  0.0968
   71SAPC  H16R 6181   5.407   6.434   3.803  0.7229 -0.3402 -1.6669
   71SAPC  H16S 6182   5.552   6.544   3.835  2.2949 -1.0841  1.7308
   71SAPC  C217 6183   5.578   6.352   3.914  0.2938  0.1473  0.0678
   71SAPC  H17R 6184   5.688   6.363   3.926  0.2893 -0.5444  0.8266
   71SAPC  H17S 6185   5.548   6.249   3.885 -1.2523  0.0019  1.9704
   71SAPC  C218 6186   5.512   6.373   4.053 -0.9145  0.3868  0.0747
   71SAPC  H18R 6187   5.409   6.331   4.048  0.1801 -2.4590 -1.0400
   71SAPC  H18S 6188   5.522   6.480   4.081 -2.3034  0.2318  1.3106
   71SAPC  C219 6189   5.582   6.273   4.155  0.0666 -0.0339 -0.6323
   71SAPC  H19R 6190   5.681   6.317   4.182 -0.8426  0.5463  2.0455
   71SAPC  H19S 6191   5.589   6.179   4.095  0.6014 -0.0821 -0.4992
   71SAPC  C220 6192   5.509   6.262   4.293 -0.4560  0.3474 -0.1487
   71SAPC  H20R 6193   5.427   6.191   4.273  0.3255 -0.2490 -1.3708
   71SAPC  H20S 6194   5.467   6.360   4.324  0.8742  1.2409 -1.0206
   71SAPC  H20T 6195   5.573   6.224   4.376 -0.6623 -3.0240 -1.4035
   71SAPC   C33 6196   4.903   6.563   2.839 -0.2348 -0.0954 -0.4410
   71SAPC   H3X 6197   4.973   6.477   2.835  0.8700  0.7427  0.3551
   71SAPC   H3Y 6198   4.804   6.525   2.873 -0.7832  0.1398 -1.6777
   71SAPC   C34 6199   4.951   6.673   2.929 -0.4552  0.2945 -0.1109
   71SAPC   H4X 6200   4.893   6.767   2.919 -1.4133 -0.2289  0.3763
   71SAPC   H4Y 6201   5.053   6.684   2.888  0.3269 -0.2059  1.5893
   71SAPC   C35 6202   4.963   6.630   3.070 -0.1374 -0.8883 -0.0440
   71SAPC   H5X 6203   5.022   6.536   3.069 -1.9805 -2.0905 -0.6707
   71SAPC   H5Y 6204   4.864   6.602   3.113 -2.1333  0.1988 -3.4899
   71SAPC   C36 6205   5.021   6.738   3.157 -0.4157 -0.1182 -0.6927
   71SAPC   H6X 6206   4.972   6.836   3.140 -1.3270 -0.1862  1.3485
   71SAPC   H6Y 6207   5.123   6.765   3.121 -0.8656 -0.5442 -2.4109
   71SAPC   C37 6208   5.007   6.702   3.302 -0.6292 -0.1400  0.3545
   71SAPC   H7X 6209   5.041   6.596   3.308  0.1181 -0.5036 -4.9652
   71SAPC   H7Y 6210   4.902   6.687   3.333 -0.8342 -0.7833 -0.5906
   71SAPC   C38 6211   5.070   6.790   3.400 -0.7448 -0.6317 -0.6503
   71SAPC   H8X 6212   5.019   6.888   3.386  1.4673  0.3051 -2.7079
   71SAPC   H8Y 6213   5.173   6.819   3.372  0.1966 -4.5224 -1.7889
   71SAPC   C39 6214   5.066   6.734   3.545 -0.4158  0.5009  0.8050
   71SAPC   H9X 6215   5.107   6.632   3.539 -1.1857  0.2164  0.1914
   71SAPC   H9Y 6216   4.957   6.728   3.566 -1.4983  3.0710 -3.0546
   71SAPC  C310 6217   5.143   6.823   3.644 -0.1890 -0.1474  0.6636
   71SAPC  H10X 6218   5.096   6.923   3.641  2.1703  1.0315 -1.2252
   71SAPC  H10Y 6219   5.251   6.826   3.617  0.1208 -0.8626  1.7388
   71SAPC  C311 6220   5.132   6.764   3.790 -0.1622 -0.3477 -0.4849
   71SAPC  H11X 6221   5.025   6.761   3.821 -0.4102 -0.4729 -1.3381
   71SAPC  H11Y 6222   5.178   6.851   3.842 -1.5423  0.2271 -0.1891
   71SAPC  C312 6223   5.205   6.638   3.813 -0.3385 -0.3071  0.3301
   71SAPC  H12X 6224   5.302   6.655   3.762 -0.8109 -2.1886 -1.3353
   71SAPC  H12Y 6225   5.154   6.555   3.759 -0.1887  0.6097 -1.2826
   71SAPC  C313 6226   5.220   6.600   3.959  0.4889 -0.2101  0.5861
   71SAPC  H13X 6227   5.282   6.677   4.010  0.9007 -1.3400  1.8546
   71SAPC  H13Y 6228   5.265   6.499   3.969  0.5641 -0.2085  0.2933
   71SAPC  C314 6229   5.085   6.601   4.033 -0.2966  0.3301 -0.2593
   71SAPC  H14X 6230   5.012   6.542   3.975 -0.3379 -1.2159  1.2983
   71SAPC  H14Y 6231   5.049   6.705   4.046  1.1627  1.0160 -1.3996
   71SAPC  C315 6232   5.118   6.547   4.176  0.4081  0.5115 -0.3967
   71SAPC  H15X 6233   5.159   6.630   4.237 -2.0464  1.6599 -0.2164
   71SAPC  H15Y 6234   5.192   6.465   4.162  0.1410  0.2794 -0.4534
   71SAPC  C316 6235   4.989   6.493   4.241 -0.1905 -0.0904 -0.2065
   71SAPC  H16X 6236   4.951   6.412   4.175  2.9855 -1.4407 -0.5705
   71SAPC  H16Y 6237   4.910   6.569   4.250 -0.2060 -0.1341  0.0449
   71SAPC  C317 6238   5.004   6.453   4.395  0.1992  0.0612 -0.1703
   71SAPC  H17X 6239   5.023   6.539   4.462 -2.0408  1.0464 -0.7128
   71SAPC  H17Y 6240   5.088   6.382   4.378 -0.5685 -0.3636 -2.6149
   71SAPC  C318 6241   4.880   6.371   4.440  0.0527  0.4437  0.0993
   71SAPC  H18X 6242   4.786   6.429   4.456  0.5936  0.9011  1.8923
   71SAPC  H18Y 6243   4.896   6.323   4.539 -1.9466  0.5670  0.5148
   71SAPC  H18Z 6244   4.868   6.287   4.368 -1.8828  0.3861  0.4362
   72SAPC     N 6245   3.489   5.023   2.242 -0.0846 -1.0550 -0.2475
   72SAPC   C12 6246   3.449   4.897   2.168  0.5348  0.3470  0.1876
   72SAPC  H12A 6247   3.499   4.814   2.216  0.2974 -0.2035 -0.4921
   72SAPC  H12B 6248   3.496   4.909   2.071  0.3782 -0.1838  0.0441
   72SAPC   C13 6249   3.441   5.143   2.177 -0.3962 -0.0155  0.4644
   72SAPC  H13A 6250   3.434   5.229   2.243  0.4804  1.9433 -1.8585
   72SAPC  H13B 6251   3.503   5.169   2.092 -1.7053  2.0877  0.0803
   72SAPC  H13C 6252   3.342   5.127   2.138 -1.1762  2.3346  1.2942
   72SAPC   C14 6253   3.425   5.014   2.377 -0.2647 -0.0624  0.2817
   72SAPC  H14A 6254   3.317   5.019   2.372 -0.4325 -2.7860 -0.1875
   72SAPC  H14B 6255   3.442   4.919   2.425 -1.1724 -1.2976 -1.7300
   72SAPC  H14C 6256   3.457   5.091   2.446 -1.5584  0.7963 -0.0410
   72SAPC   C15 6257   3.642   5.029   2.263 -0.0622 -0.0427  0.3854
   72SAPC  H15A 6258   3.656   5.106   2.337 -2.5319  0.1888  0.6959
   72SAPC  H15B 6259   3.680   4.931   2.287  0.3325 -0.2623 -1.0037
   72SAPC  H15C 6260   3.684   5.070   2.172  0.1798  3.0401  1.7874
   72SAPC   C11 6261   3.303   4.872   2.143 -0.5345 -0.2149  0.0666
   72SAPC  H11A 6262   3.239   4.905   2.227  0.5784 -2.2833  1.8124
   72SAPC  H11B 6263   3.287   4.764   2.122 -1.0363 -0.2142  0.4287
   72SAPC     P 6264   3.129   4.982   1.971 -0.2831  0.3126  0.0680
   72SAPC   O13 6265   3.064   5.104   2.027  0.1451 -0.2621 -0.5024
   72SAPC   O14 6266   3.152   4.982   1.825  0.6301  0.2985  0.3683
   72SAPC   O12 6267   3.268   4.965   2.038 -0.0154 -0.0725 -0.3924
   72SAPC   O11 6268   3.058   4.844   2.025 -0.4959  0.0572  0.4011
   72SAPC    C1 6269   2.943   4.840   2.104 -0.1743  0.5500  0.1121
   72SAPC    HA 6270   2.862   4.904   2.061 -0.5685 -1.4714 -2.4140
   72SAPC    HB 6271   2.893   4.742   2.092  0.9886 -0.0767  0.3000
   72SAPC    C2 6272   2.972   4.867   2.260 -0.0189 -0.3357  1.0449
   72SAPC    HS 6273   3.027   4.963   2.271  2.6162 -1.6694  0.1554
   72SAPC   O21 6274   3.046   4.753   2.312  0.5920  0.1358 -0.0313
   72SAPC   C21 6275   3.124   4.782   2.414  0.6578 -0.5361 -0.8671
   72SAPC   O22 6276   3.146   4.895   2.455  0.2929  0.5470 -0.3872
   72SAPC   C22 6277   3.190   4.645   2.470 -0.1647 -0.3901  0.1854
   72SAPC   H2R 6278   3.111   4.587   2.523  0.0178  0.4682  1.4656
   72SAPC   H2S 6279   3.232   4.590   2.383 -3.3408 -2.6085 -0.1183
   72SAPC    C3 6280   2.836   4.885   2.331 -0.5694  0.4012  0.6284
   72SAPC    HX 6281   2.772   4.795   2.319 -1.2534  0.6082  2.4246
   72SAPC    HY 6282   2.786   4.970   2.279 -1.6433  0.1174  1.1871
   72SAPC   O31 6283   2.849   4.922   2.468 -0.8093  0.2072  0.4646
   72SAPC   C31 6284   2.858   5.048   2.499 -0.2985  0.2421  0.1289
   72SAPC   O32 6285   2.869   5.137   2.422  0.2227 -1.1338  0.0225
   72SAPC   C32 6286   2.857   5.061   2.649 -0.6421 -0.2335 -0.7166
   72SAPC   H2X 6287   2.906   5.160   2.659 -3.2164  1.2114 -1.6207
   72SAPC   H2Y 6288   2.920   4.987   2.703 -2.1147 -1.0707 -0.0836
   72SAPC   C23 6289   3.298   4.678   2.578  0.4158  1.2053 -0.1165
   72SAPC   H3R 6290   3.272   4.753   2.656 -0.3211  0.9878 -0.1482
   72SAPC   H3S 6291   3.386   4.708   2.517  1.3225 -2.9286 -1.1555
   72SAPC   C24 6292   3.346   4.553   2.643  0.6076  0.1156  0.1232
   72SAPC   H4R 6293   3.448   4.561   2.686  1.7640 -1.5267 -2.0794
   72SAPC   H4S 6294   3.358   4.480   2.560  0.9897  0.6900 -0.3305
   72SAPC   C25 6295   3.244   4.513   2.746 -0.5576 -0.1459 -0.1888
   72SAPC   H5R 6296   3.164   4.445   2.714 -2.2780  2.0023 -0.7009
   72SAPC   C26 6297   3.248   4.534   2.883 -0.0971  0.0265  0.4980
   72SAPC   H6R 6298   3.167   4.489   2.943  0.9872 -1.6911  0.7498
   72SAPC   C27 6299   3.347   4.629   2.951 -0.2689  0.0569 -0.6316
   72SAPC   H7R 6300   3.301   4.730   2.957 -2.5528 -0.6299 -3.7607
   72SAPC   H7S 6301   3.439   4.640   2.889 -0.8205 -1.6152 -1.8285
   72SAPC   C28 6302   3.386   4.594   3.093 -0.1422  0.5449 -0.5999
   72SAPC   H8R 6303   3.407   4.489   3.121  0.2852  0.5389 -0.9345
   72SAPC   C29 6304   3.394   4.672   3.208  0.4402 -0.4939 -0.1010
   72SAPC   H9R 6305   3.438   4.632   3.300 -1.4298  0.9287  1.5006
   72SAPC  C210 6306   3.376   4.823   3.208  0.0548  0.0541 -0.4225
   72SAPC  H10R 6307   3.301   4.841   3.288  2.1629 -1.1960  1.9487
   72SAPC  H10S 6308   3.333   4.863   3.113 -0.3500 -2.3327 -1.3238
   72SAPC  C211 6309   3.503   4.891   3.251 -0.0352 -0.4787  0.3252
   72SAPC  H11R 6310   3.565   4.928   3.169 -2.4220 -1.5245 -2.0843
   72SAPC  C212 6311   3.543   4.908   3.374 -0.0390  0.2787  0.2519
   72SAPC  H12R 6312   3.634   4.967   3.389  0.0115  0.4446 -0.6268
   72SAPC  C213 6313   3.486   4.866   3.504 -0.0563  0.3119  0.0693
   72SAPC  H13R 6314   3.466   4.757   3.501 -0.5113  0.3829  0.3687
   72SAPC  H13S 6315   3.386   4.914   3.514  0.6475  2.0712 -0.9348
   72SAPC  C214 6316   3.562   4.905   3.627 -0.5006 -0.4808  0.1783
   72SAPC  H14R 6317   3.666   4.938   3.613 -0.7521 -0.7060 -2.9821
   72SAPC  C215 6318   3.516   4.887   3.752 -0.0589 -0.5187  0.1608
   72SAPC  H15R 6319   3.581   4.919   3.835 -0.4454  0.8560 -0.0418
   72SAPC  C216 6320   3.382   4.836   3.793 -0.9136 -0.2815 -0.2331
   72SAPC  H16R 6321   3.313   4.825   3.707  0.3820 -2.6551 -1.0745
   72SAPC  H16S 6322   3.344   4.903   3.873 -2.5990 -1.7430  0.2483
   72SAPC  C217 6323   3.405   4.702   3.869 -0.7562  0.1871 -0.7102
   72SAPC  H17R 6324   3.464   4.720   3.962  1.4605  2.2011 -2.3736
   72SAPC  H17S 6325   3.469   4.635   3.807 -0.0975  1.7852 -1.8469
   72SAPC  C218 6326   3.276   4.634   3.912  0.7785 -0.2633  0.0735
   72SAPC  H18R 6327   3.219   4.638   3.816  0.0620  0.6780  0.5298
   72SAPC  H18S 6328   3.233   4.699   3.991  6.0687  2.9069  0.7986
   72SAPC  C219 6329   3.304   4.494   3.969  0.4219  0.0173  0.0816
   72SAPC  H19R 6330   3.379   4.507   4.050  1.3004  3.7210 -1.1207
   72SAPC  H19S 6331   3.349   4.430   3.890  0.4901  2.1607 -1.7020
   72SAPC  C220 6332   3.188   4.428   4.032 -0.2681  0.2856  0.2860
   72SAPC  H20R 6333   3.165   4.486   4.124  0.0210  1.3491 -0.3051
   72SAPC  H20S 6334   3.210   4.324   4.063 -1.9112 -0.7931 -1.8450
   72SAPC  H20T 6335   3.095   4.415   3.972 -0.3615 -3.1028  0.9664
   72SAPC   C33 6336   2.712   5.068   2.700 -0.2688 -0.2201  0.7358
   72SAPC   H3X 6337   2.653   4.976   2.678  3.1336 -1.8854 -2.8403
   72SAPC   H3Y 6338   2.676   5.154   2.638 -1.2182 -0.6843  0.6231
   72SAPC   C34 6339   2.685   5.110   2.845 -0.2296 -0.2676 -0.4459
   72SAPC   H4X 6340   2.605   5.187   2.854  0.6649  0.7362 -0.8555
   72SAPC   H4Y 6341   2.773   5.162   2.888 -0.9781 -0.1307  0.9906
   72SAPC   C35 6342   2.663   4.987   2.939 -0.4478 -0.3110 -0.5222
   72SAPC   H5X 6343   2.737   4.904   2.945 -1.3451 -1.1105 -0.2346
   72SAPC   H5Y 6344   2.581   4.927   2.893 -1.2507  0.6274 -0.3438
   72SAPC   C36 6345   2.642   5.044   3.080  0.3611  0.1690 -1.1603
   72SAPC   H6X 6346   2.587   5.138   3.056  0.6631 -0.0533 -2.7749
   72SAPC   H6Y 6347   2.730   5.067   3.144  0.0161 -1.1652 -0.1562
   72SAPC   C37 6348   2.551   4.962   3.184  0.4614  0.2459  0.0190
   72SAPC   H7X 6349   2.586   4.859   3.208  1.9417  0.6716 -0.2078
   72SAPC   H7Y 6350   2.453   4.947   3.133  0.3418  0.2263  0.2534
   72SAPC   C38 6351   2.529   5.036   3.314  0.1850  0.3354 -0.3462
   72SAPC   H8X 6352   2.480   4.964   3.383 -1.9151  1.4319 -0.6173
   72SAPC   H8Y 6353   2.464   5.124   3.298  0.1218  0.0771 -1.6854
   72SAPC   C39 6354   2.658   5.083   3.385  0.5029  0.7047  0.6233
   72SAPC   H9X 6355   2.727   5.146   3.325  0.9648  2.1494  2.5770
   72SAPC   H9Y 6356   2.719   4.992   3.407  0.5129  0.8234  1.1112
   72SAPC  C310 6357   2.633   5.158   3.521  0.9337  0.4052  0.0032
   72SAPC  H10X 6358   2.591   5.259   3.501  1.1714  0.6897  0.9217
   72SAPC  H10Y 6359   2.741   5.171   3.543  0.9226 -0.9730  0.9621
   72SAPC  C311 6360   2.562   5.070   3.625 -0.3967 -0.1266 -0.0189
   72SAPC  H11X 6361   2.636   4.990   3.645 -0.3095 -0.2954 -0.9868
   72SAPC  H11Y 6362   2.472   5.017   3.588 -0.3276  0.6031 -1.2872
   72SAPC  C312 6363   2.534   5.149   3.754 -0.6504 -0.7242  0.3876
   72SAPC  H12X 6364   2.472   5.238   3.730 -1.5363 -1.8138 -1.6797
   72SAPC  H12Y 6365   2.634   5.183   3.786 -0.2775 -2.6417  1.4327
   72SAPC  C313 6366   2.480   5.058   3.865  0.9852 -0.7382  0.0511
   72SAPC  H13X 6367   2.571   5.015   3.913  0.8519  0.0599  1.0675
   72SAPC  H13Y 6368   2.411   4.982   3.822  0.2622 -0.5964  0.9316
   72SAPC  C314 6369   2.404   5.142   3.971 -0.3120  0.0149 -0.1198
   72SAPC  H14X 6370   2.378   5.074   4.054 -1.6027  1.1279  0.4268
   72SAPC  H14Y 6371   2.309   5.189   3.936 -1.9444 -1.6254  1.8886
   72SAPC  C315 6372   2.487   5.257   4.045 -0.5174 -0.2582 -0.3088
   72SAPC  H15X 6373   2.524   5.334   3.975 -2.3200  0.8022 -0.1595
   72SAPC  H15Y 6374   2.580   5.211   4.086  0.6875  0.7094 -1.8266
   72SAPC  C316 6375   2.400   5.329   4.148  0.2462  0.2515 -0.1931
   72SAPC  H16X 6376   2.339   5.247   4.191  0.6689 -0.0111 -0.0808
   72SAPC  H16Y 6377   2.321   5.379   4.088 -2.6736 -2.9964  0.6556
   72SAPC  C317 6378   2.473   5.411   4.252  0.3798  0.6727 -0.7702
   72SAPC  H17X 6379   2.561   5.352   4.286 -0.1415 -0.4912 -1.3619
   72SAPC  H17Y 6380   2.424   5.433   4.349  2.5106  1.3796  0.2060
   72SAPC  C318 6381   2.542   5.530   4.187  0.5333  0.1700 -0.5235
   72SAPC  H18X 6382   2.469   5.600   4.139 -0.1514 -0.4834 -0.4455
   72SAPC  H18Y 6383   2.599   5.496   4.098 -2.3238 -3.3945 -1.2358
   72SAPC  H18Z 6384   2.610   5.583   4.257  1.3766  2.0002 -2.5940
   73SLPC     N 6385   1.226   0.637   6.726  0.5782  0.7765  0.2858
   73SLPC   C13 6386   1.196   0.770   6.768  0.4708  0.3983 -0.1118
   73SLPC  H13A 6387   1.276   0.811   6.828  0.8625  1.5030 -1.3527
   73SLPC  H13B 6388   1.191   0.838   6.684  0.9740 -1.0579 -1.3601
   73SLPC  H13C 6389   1.106   0.769   6.827  0.4986 -2.3035 -0.0193
   73SLPC   C14 6390   1.201   0.541   6.835 -0.1334  0.1058 -0.4068
   73SLPC  H14A 6391   1.101   0.542   6.875  0.6459  1.7703  1.7137
   73SLPC  H14B 6392   1.218   0.436   6.813  2.0249  0.2828  0.2202
   73SLPC  H14C 6393   1.263   0.568   6.919  1.3239 -0.6845 -1.1865
   73SLPC   C15 6394   1.373   0.639   6.694 -0.1141  0.5096  0.2989
   73SLPC  H15A 6395   1.403   0.547   6.645 -2.8626  0.8939 -2.4522
   73SLPC  H15B 6396   1.391   0.723   6.628  3.5188 -1.6381 -1.8346
   73SLPC  H15C 6397   1.425   0.661   6.786  0.4526 -0.9592  0.3676
   73SLPC   C12 6398   1.145   0.591   6.605 -0.4822 -0.1846  0.2160
   73SLPC  H12A 6399   1.100   0.672   6.550 -1.3501 -1.2263 -0.6329
   73SLPC  H12B 6400   1.067   0.529   6.646 -0.6099 -0.0287  0.2095
   73SLPC   C11 6401   1.226   0.501   6.509 -0.4949 -0.0339 -0.2723
   73SLPC  H11A 6402   1.311   0.555   6.462 -1.1525  1.1541 -0.1356
   73SLPC  H11B 6403   1.152   0.476   6.429  0.1715 -0.5762 -0.7284
   73SLPC     P 6404   1.378   0.300   6.525 -0.5016 -0.4654 -0.6601
   73SLPC   O13 6405   1.502   0.366   6.570 -1.2649  0.5586 -0.2893
   73SLPC   O14 6406   1.353   0.158   6.572 -0.3041 -0.2813 -0.4278
   73SLPC   O12 6407   1.262   0.380   6.580 -0.2142  0.4292  0.7202
   73SLPC   O11 6408   1.355   0.312   6.365  0.1833  0.4295  0.9186
   73SLPC    C1 6409   1.272   0.211   6.298 -0.9684  0.5022 -0.5139
   73SLPC    HA 6410   1.325   0.115   6.314 -0.3764  0.7830 -0.7828
   73SLPC    HB 6411   1.166   0.209   6.333 -1.2971  1.7361 -1.4003
   73SLPC    C2 6412   1.274   0.246   6.145  0.2438 -0.4891 -0.0025
   73SLPC    HS 6413   1.216   0.169   6.090 -2.9958  2.5660 -1.2604
   73SLPC   O21 6414   1.397   0.262   6.082 -0.9390  0.5486 -0.2274
   73SLPC   C21 6415   1.489   0.169   6.098 -0.1992  0.6249 -0.1944
   73SLPC   O22 6416   1.469   0.057   6.145  0.3169  0.2750  0.0049
   73SLPC   C22 6417   1.616   0.214   6.023 -0.1787  0.0779  0.6430
   73SLPC   H2R 6418   1.603   0.312   5.973 -1.9773  0.1913  1.2779
   73SLPC   H2S 6419   1.702   0.230   6.091  2.1569  0.9952 -2.2926
   73SLPC    C3 6420   1.187   0.373   6.131  0.5311 -0.1878  0.6718
   73SLPC    HX 6421   1.229   0.454   6.194 -0.9388  1.1416  0.0090
   73SLPC    HY 6422   1.089   0.354   6.179 -0.3764  0.1706 -0.9795
   73SLPC   O31 6423   1.168   0.409   5.991  0.0307 -0.4511  0.1244
   73SLPC   C31 6424   1.085   0.507   5.967  0.6140 -0.8979 -0.3066
   73SLPC   O32 6425   1.014   0.567   6.046  0.5812 -0.6964 -0.3984
   73SLPC   C32 6426   1.085   0.533   5.820 -0.0556  0.4329  0.2146
   73SLPC   H2X 6427   1.012   0.460   5.781 -1.1104  1.6095 -0.0572
   73SLPC   H2Y 6428   1.187   0.529   5.777 -1.1080  2.0121 -2.6762
   73SLPC   C23 6429   1.644   0.111   5.908 -0.0047  0.4231  0.1119
   73SLPC   H3R 6430   1.555   0.103   5.843  1.0106  2.5924 -1.7087
   73SLPC   H3S 6431   1.657   0.012   5.956 -0.3605  0.6169  0.6061
   73SLPC   C24 6432   1.753   0.139   5.810 -0.0127  0.2644 -0.3998
   73SLPC   H4R 6433   1.855   0.130   5.853  0.5448 -0.5416 -1.8117
   73SLPC   H4S 6434   1.752   0.247   5.782 -0.4320  0.3107 -0.2075
   73SLPC   C25 6435   1.742   0.057   5.681  0.0520 -0.0946  0.7597
   73SLPC   H5R 6436   1.723  -0.050   5.705 -0.0582 -0.4405 -0.8143
   73SLPC   H5S 6437   1.847   0.062   5.646  1.0563  1.3410  3.6261
   73SLPC   C26 6438   1.646   0.120   5.573 -0.0867  0.0482  0.7550
   73SLPC   H6R 6439   1.667   0.229   5.564  1.4101 -0.3696 -2.3079
   73SLPC   H6S 6440   1.542   0.103   5.605 -0.8551 -0.6515 -1.8771
   73SLPC   C27 6441   1.662   0.066   5.427 -0.2963  0.8651 -0.1422
   73SLPC   H7R 6442   1.625  -0.038   5.431 -2.6751  1.5205 -2.5552
   73SLPC   H7S 6443   1.771   0.056   5.407 -0.6105 -2.9249 -0.6118
   73SLPC   C28 6444   1.589   0.148   5.322 -0.2987  0.7730  0.5258
   73SLPC   H8R 6445   1.481   0.159   5.348 -1.0914 -0.7629 -1.7720
   73SLPC   H8S 6446   1.581   0.075   5.239  2.3756  0.6457  0.3037
   73SLPC   C29 6447   1.659   0.283   5.291  0.7760  0.0190  0.5212
   73SLPC   H9R 6448   1.706   0.341   5.371 -1.8351  3.0854  0.0415
   73SLPC  C210 6449   1.664   0.337   5.173 -0.1675 -0.2511  0.0117
   73SLPC  H10R 6450   1.711   0.435   5.158 -0.6994 -0.3054 -2.5173
   73SLPC  C211 6451   1.590   0.270   5.055  0.0192  0.2336  0.3663
   73SLPC  H11R 6452   1.562   0.350   4.984 -0.8174 -0.2340  0.1654
   73SLPC  H11S 6453   1.491   0.229   5.084 -1.4794  2.0129 -1.9068
   73SLPC  C212 6454   1.667   0.161   4.982 -0.2542 -0.1335  0.2119
   73SLPC  H12R 6455   1.747   0.120   5.045 -0.1259 -1.2822 -0.6550
   73SLPC  C213 6456   1.631   0.099   4.867  0.7027  0.0798  0.0994
   73SLPC  H13R 6457   1.698   0.023   4.823  1.6092  0.5047  0.7124
   73SLPC  C214 6458   1.514   0.135   4.781  0.2715 -0.3404 -0.3670
   73SLPC  H14R 6459   1.461   0.224   4.820 -0.6744 -1.3039  0.6254
   73SLPC  H14S 6460   1.434   0.060   4.800  1.4462 -1.4698  0.3418
   73SLPC  C215 6461   1.547   0.146   4.631  0.0240  0.1170 -0.7508
   73SLPC  H15R 6462   1.456   0.172   4.573  0.5834 -0.4825 -1.9423
   73SLPC  H15S 6463   1.581   0.046   4.595 -2.1889 -0.1640 -2.2649
   73SLPC  C216 6464   1.664   0.238   4.605 -0.1714 -0.6690 -0.0856
   73SLPC  H16R 6465   1.756   0.212   4.662 -0.8252 -0.2725  1.2024
   73SLPC  H16S 6466   1.630   0.337   4.642  2.9371  0.4539  0.1125
   73SLPC  C217 6467   1.698   0.250   4.462 -0.2748  0.1150  0.1730
   73SLPC  H17R 6468   1.607   0.254   4.397 -0.6544 -1.1394  0.5950
   73SLPC  H17S 6469   1.753   0.157   4.437  3.3911  2.1752 -0.0802
   73SLPC  C218 6470   1.791   0.367   4.442 -0.5775 -0.5019 -0.2067
   73SLPC  H18R 6471   1.848   0.356   4.347 -0.1772  1.3459 -0.2146
   73SLPC  H18S 6472   1.869   0.381   4.520  0.8268  2.3328 -1.9761
   73SLPC  H18T 6473   1.731   0.460   4.441 -0.9990 -0.7733 -0.7509
   73SLPC   C33 6474   1.018   0.662   5.782 -0.4628  0.8327  1.0074
   73SLPC   H3X 6475   1.066   0.740   5.844 -0.5314  2.3636 -0.7608
   73SLPC   H3Y 6476   0.909   0.652   5.799 -0.7915 -1.3848 -1.5726
   73SLPC   C34 6477   1.041   0.693   5.639  0.0092  0.4579  0.1365
   73SLPC   H4X 6478   1.017   0.596   5.591 -1.9949  0.6839  0.5670
   73SLPC   H4Y 6479   1.147   0.715   5.616  0.1492 -1.0142 -0.7245
   73SLPC   C35 6480   0.943   0.800   5.575  0.4946 -0.0531 -0.4818
   73SLPC   H5X 6481   0.948   0.899   5.625  0.0193  0.5834 -1.6590
   73SLPC   H5Y 6482   0.835   0.772   5.576  0.0033  1.7575 -0.2256
   73SLPC   C36 6483   0.981   0.797   5.423  0.5855  0.7153  0.0199
   73SLPC   H6X 6484   0.965   0.691   5.395  0.6186  0.6102  0.3857
   73SLPC   H6Y 6485   1.091   0.811   5.419  0.7348 -0.1685  0.7474
   73SLPC   C37 6486   0.903   0.883   5.324  0.0629  0.1083 -0.1690
   73SLPC   H7X 6487   0.898   0.991   5.350  1.3849 -0.0679  0.9530
   73SLPC   H7Y 6488   0.799   0.844   5.327 -0.3469  1.1693  1.8373
   73SLPC   C38 6489   0.967   0.878   5.184 -0.0221  0.2469  0.8229
   73SLPC   H8X 6490   0.995   0.771   5.167  0.0495  0.4520 -0.4275
   73SLPC   H8Y 6491   1.052   0.949   5.187 -1.0130  1.7045 -2.0812
   73SLPC   C39 6492   0.859   0.907   5.085 -0.3103  0.0486  0.5299
   73SLPC   H9X 6493   0.832   1.014   5.098  0.6307  0.7064 -2.2434
   73SLPC   H9Y 6494   0.769   0.842   5.097 -1.1205  0.9239 -0.5454
   73SLPC  C310 6495   0.902   0.888   4.938 -0.4257  0.1909 -0.5427
   73SLPC  H10X 6496   0.826   0.929   4.868 -2.3044 -0.9721  0.7354
   73SLPC  H10Y 6497   0.926   0.781   4.918  0.4476  0.3693 -0.4954
   73SLPC  C311 6498   1.033   0.966   4.910 -0.1758 -0.2748  0.5281
   73SLPC  H11X 6499   1.115   0.938   4.979  1.1656  0.5817 -0.6699
   73SLPC  H11Y 6500   1.020   1.076   4.912  0.2064 -0.2360  1.3587
   73SLPC  C312 6501   1.090   0.928   4.771  0.1372 -0.3403 -0.7389
   73SLPC  H12X 6502   1.148   0.835   4.790 -0.9846 -0.7274  1.0669
   73SLPC  H12Y 6503   1.150   1.017   4.744  1.0498 -1.0962 -1.2449
   73SLPC  C313 6504   0.988   0.901   4.663 -0.3290 -0.1595  0.4452
   73SLPC  H13X 6505   0.932   0.997   4.661  0.2983  0.2001 -0.8031
   73SLPC  H13Y 6506   0.916   0.819   4.685  0.9158 -2.0437 -1.9640
   73SLPC  C314 6507   1.060   0.884   4.523 -0.4219  0.3336  0.9938
   73SLPC  H14X 6508   0.998   0.818   4.459 -0.6463 -0.4986  2.0403
   73SLPC  H14Y 6509   1.155   0.827   4.527 -0.2090  0.2694 -2.4681
   73SLPC  C315 6510   1.090   1.015   4.453  0.3741  0.2778  0.4857
   73SLPC  H15X 6511   1.164   0.985   4.376 -0.4906 -3.3911  0.9338
   73SLPC  H15Y 6512   1.135   1.084   4.529 -1.6090  0.4008  1.6128
   73SLPC  C316 6513   0.962   1.078   4.392  0.0491 -0.2757 -0.2937
   73SLPC  H16X 6514   0.968   1.182   4.354 -3.3443 -0.1653 -0.8232
   73SLPC  H16Y 6515   0.871   1.089   4.456 -2.4579  3.7743 -4.0333
   73SLPC  C317 6516   0.904   1.004   4.270  0.4988 -0.2666  0.1486
   73SLPC  H17X 6517   0.874   0.897   4.267 -2.4487  0.5005 -0.5268
   73SLPC  H17Y 6518   0.999   0.993   4.214  0.3795  1.7910 -0.5274
   73SLPC  C318 6519   0.806   1.084   4.174 -0.1457  0.1716  0.3873
   73SLPC  H18X 6520   0.790   1.013   4.090 -0.4849  1.3994 -0.6054
   73SLPC  H18Y 6521   0.859   1.176   4.143  3.7311 -2.1256 -0.4114
   73SLPC  H18Z 6522   0.715   1.112   4.232 -1.7496 -0.9659 -1.4352
   74SLPC     N 6523   4.851   6.130   6.908  0.0361  0.4489  0.2253
   74SLPC   C13 6524   4.734   6.223   6.939 -0.2160  0.0831  0.1844
   74SLPC  H13A 6525   4.747   6.284   7.027 -3.4189 -0.0765  0.8857
   74SLPC  H13B 6526   4.699   6.291   6.862 -2.0954  0.3162  1.1731
   74SLPC  H13C 6527   4.643   6.168   6.957 -1.6369  2.2205 -0.0650
   74SLPC   C14 6528   4.793   6.012   6.836 -0.3604 -0.2327  0.2425
   74SLPC  H14A 6529   4.860   5.930   6.816 -1.4516 -0.5224 -2.6214
   74SLPC  H14B 6530   4.723   5.968   6.905 -1.8465 -0.4478 -1.3475
   74SLPC  H14C 6531   4.731   6.033   6.750 -0.1262 -0.9948 -0.1157
   74SLPC   C15 6532   4.917   6.096   7.043 -0.0637 -0.1475  0.8197
   74SLPC  H15A 6533   4.994   6.021   7.026 -0.2538 -0.5991  1.8731
   74SLPC  H15B 6534   4.957   6.185   7.087 -0.9257  0.9375 -0.5110
   74SLPC  H15C 6535   4.843   6.056   7.110  0.9944 -0.5356  1.7833
   74SLPC   C12 6536   4.968   6.197   6.835 -0.4661  0.4600 -0.5010
   74SLPC  H12A 6537   5.046   6.123   6.842 -1.7919 -1.0312 -1.1513
   74SLPC  H12B 6538   4.996   6.286   6.889  3.6309 -0.8369 -0.1212
   74SLPC   C11 6539   4.938   6.228   6.682  0.4738  0.4902 -0.2537
   74SLPC  H11A 6540   4.894   6.141   6.628 -0.1884  0.7980 -0.2198
   74SLPC  H11B 6541   5.031   6.240   6.622 -1.6419  0.2410 -3.9185
   74SLPC     P 6542   4.889   6.470   6.695  0.3499 -0.0748  0.2778
   74SLPC   O13 6543   4.808   6.516   6.804  0.3714  0.3887 -0.2755
   74SLPC   O14 6544   5.037   6.473   6.719 -0.3555  0.3511  0.4387
   74SLPC   O12 6545   4.842   6.327   6.653 -0.0037  0.7295  0.6573
   74SLPC   O11 6546   4.859   6.564   6.570 -0.2994  0.3693 -0.2528
   74SLPC    C1 6547   4.742   6.567   6.488 -0.1520  0.1273 -0.0777
   74SLPC    HA 6548   4.663   6.502   6.532  0.6443  0.2583  1.6008
   74SLPC    HB 6549   4.699   6.669   6.481 -0.0275  0.0768 -2.4027
   74SLPC    C2 6550   4.766   6.516   6.344  0.6436 -0.2900 -0.0780
   74SLPC    HS 6551   4.794   6.409   6.340 -0.0480 -0.6681  3.0085
   74SLPC   O21 6552   4.865   6.606   6.289 -0.4240 -0.2950 -0.2928
   74SLPC   C21 6553   4.986   6.562   6.304  0.4516  0.4152  0.0636
   74SLPC   O22 6554   5.021   6.453   6.352  0.4567  0.0561  0.3301
   74SLPC   C22 6555   5.090   6.649   6.223  0.3402 -0.5874 -0.0050
   74SLPC   H2R 6556   5.038   6.733   6.171 -0.5806 -1.2620 -0.1945
   74SLPC   H2S 6557   5.141   6.698   6.309  0.0331 -1.1632  0.5174
   74SLPC    C3 6558   4.626   6.534   6.264  0.0821  0.5418  0.3210
   74SLPC    HX 6559   4.610   6.644   6.272 -2.5092  0.2011  0.6199
   74SLPC    HY 6560   4.545   6.480   6.318 -1.3572  1.9872 -0.3130
   74SLPC   O31 6561   4.639   6.509   6.123  0.1333 -0.1592  0.5347
   74SLPC   C31 6562   4.628   6.384   6.080  0.0206 -0.8088 -0.5773
   74SLPC   O32 6563   4.634   6.282   6.149 -0.3241  0.3078 -0.0404
   74SLPC   C32 6564   4.612   6.378   5.929  0.1695 -0.1772  0.5406
   74SLPC   H2X 6565   4.698   6.436   5.889  2.3103 -2.7078  1.1257
   74SLPC   H2Y 6566   4.514   6.424   5.907 -1.6845 -3.1629  1.9569
   74SLPC   C23 6567   5.183   6.572   6.121 -0.6202  0.1895 -0.4022
   74SLPC   H3R 6568   5.243   6.492   6.170 -0.2732 -0.7755 -2.2709
   74SLPC   H3S 6569   5.258   6.648   6.090  0.7337 -1.4781 -1.4540
   74SLPC   C24 6570   5.115   6.527   5.992  0.0407  0.0214  0.1563
   74SLPC   H4R 6571   5.042   6.604   5.962 -0.0385  0.2390  0.9064
   74SLPC   H4S 6572   5.050   6.439   6.014  0.5239 -0.3675  0.0560
   74SLPC   C25 6573   5.222   6.490   5.882  0.2546 -0.4931  0.6828
   74SLPC   H5R 6574   5.279   6.402   5.918  0.6774 -0.1684  0.8170
   74SLPC   H5S 6575   5.289   6.579   5.878 -0.4424  0.0334  0.5804
   74SLPC   C26 6576   5.173   6.473   5.735  0.7720 -0.1643  0.2247
   74SLPC   H6R 6577   5.153   6.572   5.688  0.2630  0.1012  0.9682
   74SLPC   H6S 6578   5.080   6.413   5.739  1.3120 -0.9887  3.0693
   74SLPC   C27 6579   5.266   6.392   5.651 -0.1668  0.4551  0.0745
   74SLPC   H7R 6580   5.225   6.391   5.548 -0.2914  1.7566  0.0959
   74SLPC   H7S 6581   5.270   6.285   5.681 -1.6994 -0.3434 -2.2286
   74SLPC   C28 6582   5.405   6.453   5.630 -0.3645 -0.0218  0.1352
   74SLPC   H8R 6583   5.453   6.382   5.560  0.7890 -0.1624  1.0447
   74SLPC   H8S 6584   5.459   6.460   5.727  0.6351  1.9496 -0.5167
   74SLPC   C29 6585   5.402   6.581   5.558  0.6673  0.2450 -0.5367
   74SLPC   H9R 6586   5.391   6.670   5.622 -1.6261  1.3966 -2.3498
   74SLPC  C210 6587   5.417   6.602   5.424 -0.0243 -1.0434  0.0509
   74SLPC  H10R 6588   5.431   6.709   5.402  0.0381 -1.0377  0.1151
   74SLPC  C211 6589   5.432   6.504   5.314  0.3750 -0.2533  0.3140
   74SLPC  H11R 6590   5.475   6.406   5.344 -2.1990 -1.8963 -1.0641
   74SLPC  H11S 6591   5.502   6.543   5.236 -0.9163  0.6684 -0.4249
   74SLPC  C212 6592   5.303   6.486   5.239  0.3510  0.2800  0.3820
   74SLPC  H12R 6593   5.213   6.534   5.278 -0.1840  1.4330 -2.0242
   74SLPC  C213 6594   5.283   6.411   5.126  0.1784  0.7575  0.0300
   74SLPC  H13R 6595   5.183   6.408   5.079  0.3797 -0.4568 -0.3712
   74SLPC  C214 6596   5.387   6.341   5.045 -0.8579  0.0115  0.7016
   74SLPC  H14R 6597   5.393   6.234   5.074 -0.1143 -0.5695 -1.3646
   74SLPC  H14S 6598   5.479   6.395   5.075 -0.7281  2.8508 -3.8254
   74SLPC  C215 6599   5.375   6.366   4.892 -0.2520 -0.2575 -0.9568
   74SLPC  H15R 6600   5.377   6.477   4.885 -0.3277 -0.2711 -1.1941
   74SLPC  H15S 6601   5.282   6.316   4.857  1.2588 -2.7608 -1.5488
   74SLPC  C216 6602   5.488   6.310   4.811 -0.5272 -0.4886 -0.1260
   74SLPC  H16R 6603   5.477   6.201   4.830 -1.2961 -0.5131 -0.6722
   74SLPC  H16S 6604   5.585   6.347   4.850 -1.7533  0.1083  2.5957
   74SLPC  C217 6605   5.475   6.345   4.661 -0.5410  0.0062 -0.0958
   74SLPC  H17R 6606   5.554   6.312   4.591  0.4174  1.5927  0.1955
   74SLPC  H17S 6607   5.482   6.455   4.647  0.4565 -0.0056  0.2315
   74SLPC  C218 6608   5.335   6.298   4.610 -0.0537 -0.1766 -0.4585
   74SLPC  H18R 6609   5.257   6.353   4.668 -0.3563  0.9280 -1.8526
   74SLPC  H18S 6610   5.329   6.191   4.639  0.7997 -0.3943 -1.0373
   74SLPC  H18T 6611   5.339   6.318   4.501 -2.2135  1.0919 -0.3571
   74SLPC   C33 6612   4.602   6.240   5.873 -0.3182  0.4340 -1.7197
   74SLPC   H3X 6613   4.534   6.176   5.934  0.9404  1.4047  0.8089
   74SLPC   H3Y 6614   4.701   6.195   5.895 -0.1013  2.0245  1.0038
   74SLPC   C34 6615   4.570   6.242   5.724 -0.5347 -0.6248 -0.0423
   74SLPC   H4X 6616   4.629   6.325   5.680 -1.3830  0.6536  1.1793
   74SLPC   H4Y 6617   4.463   6.266   5.705 -0.3351  1.3641  1.1159
   74SLPC   C35 6618   4.606   6.110   5.649 -0.6621 -0.6710 -0.2162
   74SLPC   H5X 6619   4.540   6.027   5.683  1.4007 -1.8106  1.1721
   74SLPC   H5Y 6620   4.703   6.069   5.685 -2.4106 -2.6136  2.7011
   74SLPC   C36 6621   4.624   6.113   5.496  0.0289 -0.1340 -0.8249
   74SLPC   H6X 6622   4.708   6.183   5.480 -0.9446  1.6131  1.2307
   74SLPC   H6Y 6623   4.528   6.156   5.458  0.4550  2.8505  1.1824
   74SLPC   C37 6624   4.655   5.972   5.434 -0.4126  0.0672 -0.8178
   74SLPC   H7X 6625   4.598   5.896   5.491  0.6160 -1.6484 -1.9726
   74SLPC   H7Y 6626   4.753   5.943   5.477 -0.4041 -1.5984 -1.8669
   74SLPC   C38 6627   4.644   5.969   5.287 -0.5949  0.5246  0.9148
   74SLPC   H8X 6628   4.716   6.041   5.243 -0.1625 -0.0153  0.7243
   74SLPC   H8Y 6629   4.549   6.002   5.240  0.5959  2.1335 -0.5187
   74SLPC   C39 6630   4.689   5.830   5.250 -0.2356  0.2031  0.4922
   74SLPC   H9X 6631   4.644   5.757   5.321  0.7911 -0.9765 -0.0446
   74SLPC   H9Y 6632   4.798   5.813   5.248 -0.3448 -0.4904 -1.7178
   74SLPC  C310 6633   4.638   5.801   5.106  0.1261 -0.1732 -0.3112
   74SLPC  H10X 6634   4.685   5.879   5.043 -1.2862  0.4130 -0.6789
   74SLPC  H10Y 6635   4.529   5.821   5.097  0.2499  0.2185 -1.1119
   74SLPC  C311 6636   4.657   5.654   5.067  0.5072  0.6124  0.2691
   74SLPC  H11X 6637   4.617   5.596   5.152 -0.0177  0.0031 -0.3752
   74SLPC  H11Y 6638   4.762   5.623   5.054 -0.1151 -1.0935 -1.2048
   74SLPC  C312 6639   4.581   5.615   4.938  0.0720 -0.0047  0.0210
   74SLPC  H12X 6640   4.472   5.634   4.950  0.1684  0.1454  0.7360
   74SLPC  H12Y 6641   4.597   5.508   4.914  0.5721  0.2309 -0.7282
   74SLPC  C313 6642   4.625   5.690   4.809  0.3279  0.3328  0.2044
   74SLPC  H13X 6643   4.718   5.648   4.765  0.3957  0.5193  0.1705
   74SLPC  H13Y 6644   4.643   5.797   4.832 -0.5898  0.9798 -1.8254
   74SLPC  C314 6645   4.519   5.670   4.701  0.2331 -0.0973  0.2553
   74SLPC  H14X 6646   4.533   5.736   4.613 -0.9496 -0.2182 -0.0401
   74SLPC  H14Y 6647   4.424   5.690   4.755 -0.3598 -2.2387  0.1345
   74SLPC  C315 6648   4.504   5.522   4.656 -0.2905  0.2629  0.1881
   74SLPC  H15X 6649   4.483   5.456   4.743 -0.2698 -0.8716 -0.6361
   74SLPC  H15Y 6650   4.597   5.480   4.612  1.0072  2.8919  0.2667
   74SLPC  C316 6651   4.394   5.512   4.551 -0.6328  0.2802  0.6843
   74SLPC  H16X 6652   4.415   5.421   4.491  0.0781  0.4936  0.5965
   74SLPC  H16Y 6653   4.418   5.589   4.475  2.3433 -2.3371 -1.3281
   74SLPC  C317 6654   4.254   5.508   4.617 -0.4352  0.2779  0.4722
   74SLPC  H17X 6655   4.239   5.611   4.656  2.1290  0.6504  0.6268
   74SLPC  H17Y 6656   4.264   5.443   4.707 -0.4374  0.9602  0.9766
   74SLPC  C318 6657   4.139   5.475   4.525  0.5224  0.1620  0.1975
   74SLPC  H18X 6658   4.154   5.527   4.428  4.3995  2.8603  1.9730
   74SLPC  H18Y 6659   4.045   5.515   4.568 -1.0523  0.1952 -3.0130
   74SLPC  H18Z 6660   4.130   5.366   4.505  0.8814  0.1472  0.1151
   75SLPC     N 6661   0.369   5.982   6.814 -0.0246 -0.1473 -0.2614
   75SLPC   C13 6662   0.284   5.992   6.690 -0.0965 -0.2434 -0.2439
   75SLPC  H13A 6663   0.340   5.989   6.598 -2.1498 -0.7508 -1.5557
   75SLPC  H13B 6664   0.216   5.909   6.678 -0.4880 -0.1078  0.9163
   75SLPC  H13C 6665   0.228   6.085   6.690 -0.9819 -0.7575  0.2401
   75SLPC   C14 6666   0.467   5.867   6.792 -0.4224  0.2850  0.3393
   75SLPC  H14A 6667   0.543   5.890   6.719 -1.1106  2.5685  0.2540
   75SLPC  H14B 6668   0.514   5.841   6.886 -0.6228 -2.4436 -0.2616
   75SLPC  H14C 6669   0.406   5.782   6.768  0.7159 -0.6667  0.6862
   75SLPC   C15 6670   0.280   5.942   6.930 -0.2786 -0.1752 -0.7579
   75SLPC  H15A 6671   0.215   6.019   6.969  0.7340 -1.3430  3.8715
   75SLPC  H15B 6672   0.224   5.857   6.894  0.3991 -0.4119 -1.2669
   75SLPC  H15C 6673   0.350   5.906   7.004  1.3004 -0.7298 -2.4530
   75SLPC   C12 6674   0.437   6.113   6.849 -0.0934 -0.2221  0.1540
   75SLPC  H12A 6675   0.500   6.148   6.768 -1.0352  1.6025  0.1637
   75SLPC  H12B 6676   0.499   6.090   6.934  1.1244  1.9656 -0.0766
   75SLPC   C11 6677   0.348   6.236   6.896 -0.1128  0.4447 -0.2228
   75SLPC  H11A 6678   0.407   6.319   6.941  0.0606  0.9465 -1.3365
   75SLPC  H11B 6679   0.275   6.202   6.972 -2.3386 -1.2322 -2.9142
   75SLPC     P 6680   0.353   6.372   6.677 -0.2431 -0.0687  0.0905
   75SLPC   O13 6681   0.263   6.478   6.631 -0.4185 -0.4192 -0.2635
   75SLPC   O14 6682   0.485   6.413   6.725  0.2736 -0.1475 -0.4608
   75SLPC   O12 6683   0.272   6.286   6.789  0.0095 -0.2584  0.5406
   75SLPC   O11 6684   0.386   6.261   6.563  0.7379 -0.4459 -0.1884
   75SLPC    C1 6685   0.306   6.241   6.453 -0.2446  1.6600  0.3567
   75SLPC    HA 6686   0.309   6.131   6.436 -0.5387  1.1847  3.0525
   75SLPC    HB 6687   0.200   6.272   6.468 -0.0685  1.6494  1.7549
   75SLPC    C2 6688   0.366   6.303   6.332 -0.2551  0.7133  1.5164
   75SLPC    HS 6689   0.356   6.413   6.340  1.2353  1.3981 -3.0761
   75SLPC   O21 6690   0.313   6.249   6.211 -0.2705  0.0301  0.1825
   75SLPC   C21 6691   0.248   6.316   6.129 -0.2955  0.4605 -0.1516
   75SLPC   O22 6692   0.186   6.420   6.156 -0.4652  0.5034 -0.4071
   75SLPC   C22 6693   0.270   6.256   5.987  0.1238 -0.4324 -1.0902
   75SLPC   H2R 6694   0.366   6.203   5.996  0.8592  1.2125  2.8591
   75SLPC   H2S 6695   0.186   6.186   5.967 -0.1083 -0.0275 -1.5767
   75SLPC    C3 6696   0.519   6.269   6.323 -0.6125  0.5803 -0.2464
   75SLPC    HX 6697   0.534   6.162   6.348 -1.1872 -0.0080 -2.2492
   75SLPC    HY 6698   0.574   6.332   6.397 -1.9805  1.3067  0.1844
   75SLPC   O31 6699   0.582   6.291   6.198  0.0814 -0.4688  0.1414
   75SLPC   C31 6700   0.578   6.413   6.137  0.0570  0.4660  0.0265
   75SLPC   O32 6701   0.519   6.506   6.183 -0.3111 -0.0096  0.2731
   75SLPC   C32 6702   0.664   6.413   6.008  0.1923 -0.0647 -0.6252
   75SLPC   H2X 6703   0.619   6.331   5.948 -0.2161  0.4585 -1.0378
   75SLPC   H2Y 6704   0.766   6.399   6.051 -0.3186  0.5048  0.8481
   75SLPC   C23 6705   0.280   6.359   5.876  0.4149 -0.6922 -0.2970
   75SLPC   H3R 6706   0.344   6.438   5.920 -0.6045 -1.0838  2.0425
   75SLPC   H3S 6707   0.180   6.401   5.848  0.3855 -0.9374 -0.5695
   75SLPC   C24 6708   0.358   6.305   5.754  0.0914 -0.1754  0.2911
   75SLPC   H4R 6709   0.326   6.200   5.739 -0.5864 -0.8032  4.7311
   75SLPC   H4S 6710   0.463   6.285   5.783  1.0341  0.9041 -2.0600
   75SLPC   C25 6711   0.346   6.399   5.634 -0.2762 -0.8626 -0.0044
   75SLPC   H5R 6712   0.384   6.497   5.669 -0.4032 -0.7445 -0.1917
   75SLPC   H5S 6713   0.239   6.421   5.613  0.0663  1.4097  0.3866
   75SLPC   C26 6714   0.434   6.367   5.512  0.3058 -0.2432 -0.0675
   75SLPC   H6R 6715   0.428   6.258   5.496 -0.3085 -0.1962 -0.1841
   75SLPC   H6S 6716   0.540   6.390   5.536  0.7124 -1.0270 -1.0686
   75SLPC   C27 6717   0.392   6.444   5.383 -0.8615  0.7426 -0.0826
   75SLPC   H7R 6718   0.423   6.551   5.389  0.9755  0.2131  0.6137
   75SLPC   H7S 6719   0.281   6.441   5.381 -0.8217 -1.4561 -1.2607
   75SLPC   C28 6720   0.453   6.383   5.253 -0.1291  1.0660 -0.1557
   75SLPC   H8R 6721   0.416   6.279   5.245  0.9922  0.7086 -1.0293
   75SLPC   H8S 6722   0.564   6.382   5.262  0.0461 -3.4608 -0.9078
   75SLPC   C29 6723   0.399   6.458   5.129 -0.4786 -0.3169 -0.6311
   75SLPC   H9R 6724   0.431   6.563   5.134  1.6272 -0.9651  1.6384
   75SLPC  C210 6725   0.350   6.409   5.019 -0.4139  0.0355 -0.3586
   75SLPC  H10R 6726   0.326   6.479   4.938  2.7099  1.0221 -0.5851
   75SLPC  C211 6727   0.322   6.267   4.995  0.3000 -0.5164 -0.4150
   75SLPC  H11R 6728   0.241   6.235   5.064 -2.1753  2.3861 -1.7520
   75SLPC  H11S 6729   0.419   6.218   5.021  0.5319  0.0099 -0.2805
   75SLPC  C212 6730   0.301   6.231   4.853 -0.1384  0.5450  0.2970
   75SLPC  H12R 6731   0.326   6.310   4.780 -0.9194 -1.7964 -2.6932
   75SLPC  C213 6732   0.244   6.121   4.806  0.2454  0.4294 -0.0498
   75SLPC  H13R 6733   0.253   6.096   4.699  2.2481 -3.3108  0.8232
   75SLPC  C214 6734   0.205   6.006   4.898 -0.5019 -0.1517  0.7223
   75SLPC  H14R 6735   0.097   6.020   4.920 -0.3993  0.5504  0.8171
   75SLPC  H14S 6736   0.271   5.998   4.987 -1.2766 -1.1216  1.2370
   75SLPC  C215 6737   0.204   5.869   4.827 -0.5914 -0.3264  0.3184
   75SLPC  H15R 6738   0.303   5.841   4.785 -0.8516 -0.3868 -0.2608
   75SLPC  H15S 6739   0.139   5.875   4.737 -0.0314  1.3547  0.0061
   75SLPC  C216 6740   0.157   5.757   4.917  0.3718 -0.2126  0.1578
   75SLPC  H16R 6741   0.058   5.774   4.964  0.4952 -1.7722  1.0655
   75SLPC  H16S 6742   0.240   5.748   4.990 -1.3905 -2.1026  2.0356
   75SLPC  C217 6743   0.144   5.626   4.846  0.3440 -0.3839  0.2502
   75SLPC  H17R 6744   0.246   5.584   4.833  0.9139  0.8769  0.4926
   75SLPC  H17S 6745   0.109   5.633   4.740  0.0617 -1.3051  0.2787
   75SLPC  C218 6746   0.063   5.513   4.919  0.4770  0.5483 -0.3114
   75SLPC  H18R 6747  -0.020   5.567   4.968  0.3573 -0.3780  0.5315
   75SLPC  H18S 6748   0.129   5.459   4.991  0.0639  2.1509  1.3229
   75SLPC  H18T 6749   0.013   5.444   4.847 -1.5437  0.4651  1.0897
   75SLPC   C33 6750   0.651   6.546   5.937 -0.4923 -0.3183  0.0559
   75SLPC   H3X 6751   0.694   6.628   5.999  1.2516  0.0685 -1.5629
   75SLPC   H3Y 6752   0.548   6.583   5.916  0.3720  1.3397 -1.6577
   75SLPC   C34 6753   0.711   6.535   5.800  0.1670 -0.2090  0.7020
   75SLPC   H4X 6754   0.654   6.453   5.751 -2.0163 -0.0386  2.7931
   75SLPC   H4Y 6755   0.814   6.499   5.817 -0.4098 -1.7719  1.0424
   75SLPC   C35 6756   0.699   6.667   5.722  0.8271 -0.1928  0.2054
   75SLPC   H5X 6757   0.751   6.746   5.780 -1.9094  0.6831  1.6473
   75SLPC   H5Y 6758   0.591   6.693   5.726  0.4379 -1.7846  1.1013
   75SLPC   C36 6759   0.737   6.651   5.565 -0.5570 -0.9651 -0.0267
   75SLPC   H6X 6760   0.687   6.564   5.519 -0.4000 -0.1226 -1.9026
   75SLPC   H6Y 6761   0.844   6.621   5.566  0.0372  1.0113  0.9783
   75SLPC   C37 6762   0.712   6.774   5.479 -0.0081  0.1468  0.0040
   75SLPC   H7X 6763   0.760   6.872   5.501  0.1543 -0.3906  2.2341
   75SLPC   H7Y 6764   0.604   6.796   5.481 -0.0219  0.2244 -0.9262
   75SLPC   C38 6765   0.734   6.735   5.336  0.6738 -0.3156  0.1839
   75SLPC   H8X 6766   0.676   6.647   5.301 -0.9004  0.6132  0.3369
   75SLPC   H8Y 6767   0.835   6.692   5.319  1.9099  2.3938  0.1475
   75SLPC   C39 6768   0.697   6.854   5.237  0.2634  0.2333 -0.4899
   75SLPC   H9X 6769   0.759   6.944   5.258 -0.8787  0.9495 -0.0950
   75SLPC   H9Y 6770   0.593   6.890   5.240  0.7317  1.6421  2.7327
   75SLPC  C310 6771   0.720   6.802   5.092  0.1739  0.3550 -0.8343
   75SLPC  H10X 6772   0.663   6.712   5.061 -1.2620  0.7121  0.6321
   75SLPC  H10Y 6773   0.830   6.786   5.087  0.1590 -0.4108  0.7962
   75SLPC  C311 6774   0.692   6.906   4.978 -1.2405  0.2073  0.4140
   75SLPC  H11X 6775   0.749   7.000   4.991 -3.3018  1.5918  0.0078
   75SLPC  H11Y 6776   0.588   6.944   4.965 -0.3493  1.8102 -3.1888
   75SLPC  C312 6777   0.718   6.852   4.839  0.0669  0.1747  0.5942
   75SLPC  H12X 6778   0.652   6.766   4.816  2.4006 -1.0747 -2.0297
   75SLPC  H12Y 6779   0.815   6.801   4.854 -0.7927 -1.0105  2.4594
   75SLPC  C313 6780   0.705   6.960   4.728 -0.3843  0.5858 -0.1366
   75SLPC  H13X 6781   0.774   7.044   4.752 -2.3417  1.8754  1.2619
   75SLPC  H13Y 6782   0.603   7.002   4.737 -0.3411  0.3819  1.5506
   75SLPC  C314 6783   0.738   6.916   4.592  0.0578 -0.2978  0.4930
   75SLPC  H14X 6784   0.658   6.851   4.550 -1.3909 -0.1638  2.8119
   75SLPC  H14Y 6785   0.829   6.852   4.594  0.7705  0.6984  2.1565
   75SLPC  C315 6786   0.752   7.033   4.493  0.2978  0.3666  0.2453
   75SLPC  H15X 6787   0.834   7.102   4.525 -0.9717  3.0570 -1.8873
   75SLPC  H15Y 6788   0.659   7.093   4.486 -0.1732 -0.4832 -1.0236
   75SLPC  C316 6789   0.789   6.986   4.345  1.0010  0.3932  0.2348
   75SLPC  H16X 6790   0.710   6.914   4.317 -0.7254  2.8688 -1.6196
   75SLPC  H16Y 6791   0.884   6.929   4.353  0.1169 -1.3529 -1.2991
   75SLPC  C317 6792   0.805   7.098   4.246  0.5302 -0.0643 -0.4643
   75SLPC  H17X 6793   0.808   7.053   4.144  2.3293 -0.5186 -0.2360
   75SLPC  H17Y 6794   0.905   7.142   4.261  0.2670 -0.3762  2.7685
   75SLPC  C318 6795   0.695   7.204   4.248  0.3567  0.0983 -0.1205
   75SLPC  H18X 6796   0.599   7.152   4.270 -0.3749  1.0438 -1.0322
   75SLPC  H18Y 6797   0.699   7.253   4.149 -1.8528  2.0050  0.6519
   75SLPC  H18Z 6798   0.706   7.279   4.330 -0.5416  0.0095  0.0849
   76SLPC     N 6799   3.488   3.193   7.411  0.2712  0.2505 -0.2976
   76SLPC   C13 6800   3.473   3.262   7.549 -0.6619 -0.3919  0.0229
   76SLPC  H13A 6801   3.548   3.241   7.623  1.1412 -1.1538 -1.9035
   76SLPC  H13B 6802   3.482   3.370   7.543 -2.7172 -0.2366 -1.4366
   76SLPC  H13C 6803   3.372   3.250   7.583 -0.6449 -2.4447 -0.5109
   76SLPC   C14 6804   3.488   3.044   7.441  0.0575 -1.0099 -0.4150
   76SLPC  H14A 6805   3.400   3.013   7.495 -1.0740  1.5151 -0.6734
   76SLPC  H14B 6806   3.476   2.985   7.351 -1.6622  1.5553 -2.0236
   76SLPC  H14C 6807   3.573   3.027   7.505 -1.1501  0.3931  1.6657
   76SLPC   C15 6808   3.608   3.241   7.334 -0.0521  0.2616 -0.5715
   76SLPC  H15A 6809   3.694   3.191   7.376 -0.3713  1.6458  1.9940
   76SLPC  H15B 6810   3.595   3.211   7.232  0.9685  0.5956 -0.8104
   76SLPC  H15C 6811   3.632   3.347   7.337 -1.5509  0.6421 -1.0106
   76SLPC   C12 6812   3.359   3.220   7.329  0.0560  1.1188  0.9135
   76SLPC  H12A 6813   3.357   3.324   7.300 -0.1398  1.1381  0.9939
   76SLPC  H12B 6814   3.273   3.204   7.393 -0.2769  1.3680  0.5379
   76SLPC   C11 6815   3.345   3.148   7.191  0.6395 -0.0974  0.3289
   76SLPC  H11A 6816   3.248   3.186   7.150  1.4675  0.8751 -0.8066
   76SLPC  H11B 6817   3.324   3.039   7.187 -0.3412  0.0999 -2.1011
   76SLPC     P 6818   3.413   3.336   7.017 -0.2718  0.1078  0.3319
   76SLPC   O13 6819   3.375   3.438   7.112  0.1805 -0.1481 -0.1315
   76SLPC   O14 6820   3.538   3.361   6.943  0.3357  0.5691  0.0228
   76SLPC   O12 6821   3.440   3.189   7.091 -0.7251  0.4183 -0.1774
   76SLPC   O11 6822   3.302   3.314   6.910 -0.5384 -0.5743 -0.3853
   76SLPC    C1 6823   3.270   3.195   6.840  0.0349  0.0072 -0.2082
   76SLPC    HA 6824   3.305   3.109   6.902 -1.2427 -0.3229  0.0779
   76SLPC    HB 6825   3.163   3.184   6.813  0.6526 -2.7757 -1.9607
   76SLPC    C2 6826   3.351   3.182   6.706 -0.3241 -0.6117 -0.3458
   76SLPC    HS 6827   3.456   3.152   6.726  0.0109 -0.2954 -1.5258
   76SLPC   O21 6828   3.341   3.299   6.626  0.2796 -0.1501 -0.0202
   76SLPC   C21 6829   3.454   3.336   6.567 -0.9345  0.5258 -0.0681
   76SLPC   O22 6830   3.554   3.261   6.572  0.2786  0.1693  0.2226
   76SLPC   C22 6831   3.438   3.466   6.489 -0.0747 -0.1574  0.3945
   76SLPC   H2R 6832   3.361   3.454   6.409  1.2500  1.3974 -1.2118
   76SLPC   H2S 6833   3.405   3.536   6.569  2.4819  0.8760  0.6410
   76SLPC    C3 6834   3.293   3.061   6.631 -0.2787 -0.4779 -0.3094
   76SLPC    HX 6835   3.183   3.075   6.622 -0.6480 -2.7362 -0.0761
   76SLPC    HY 6836   3.311   2.962   6.679  0.9336 -1.0166 -1.8040
   76SLPC   O31 6837   3.343   3.061   6.493  0.0918 -0.5557  0.0310
   76SLPC   C31 6838   3.426   2.969   6.456 -0.9933  0.1428 -0.9966
   76SLPC   O32 6839   3.472   2.878   6.527  0.2083 -0.3775 -0.2553
   76SLPC   C32 6840   3.455   2.985   6.307 -0.5745 -0.0931 -0.4421
   76SLPC   H2X 6841   3.482   2.879   6.289 -0.7364 -0.5031  1.5188
   76SLPC   H2Y 6842   3.545   3.046   6.287 -0.3456 -1.2902 -3.6360
   76SLPC   C23 6843   3.571   3.524   6.431  0.0676  0.6913  0.4829
   76SLPC   H3R 6844   3.641   3.534   6.517  0.1301 -2.8591  1.0006
   76SLPC   H3S 6845   3.554   3.621   6.379 -1.6356  1.5470  2.4822
   76SLPC   C24 6846   3.632   3.433   6.322 -0.1642  0.2121 -1.0072
   76SLPC   H4R 6847   3.556   3.431   6.241 -2.2500  1.9294  0.8043
   76SLPC   H4S 6848   3.634   3.327   6.353 -0.6811  0.3977 -0.3240
   76SLPC   C25 6849   3.768   3.475   6.271 -0.1947 -0.1935  1.1608
   76SLPC   H5R 6850   3.842   3.489   6.352 -0.3067  3.5153  0.7928
   76SLPC   H5S 6851   3.749   3.577   6.231  2.4406 -0.3555 -0.7565
   76SLPC   C26 6852   3.822   3.394   6.151 -0.7839  0.3247 -0.5012
   76SLPC   H6R 6853   3.858   3.297   6.192 -0.3164  0.4729 -0.5650
   76SLPC   H6S 6854   3.920   3.438   6.124  0.6651 -1.9362  0.7714
   76SLPC   C27 6855   3.725   3.361   6.031 -0.4788 -0.4066 -0.8651
   76SLPC   H7R 6856   3.628   3.336   6.079 -0.2826  0.5260  0.0376
   76SLPC   H7S 6857   3.752   3.269   5.975 -0.6387 -1.9579  1.5086
   76SLPC   C28 6858   3.692   3.476   5.937  0.3204  0.0249 -0.9339
   76SLPC   H8R 6859   3.648   3.562   5.991 -0.5211  0.1280 -1.7454
   76SLPC   H8S 6860   3.609   3.435   5.875 -0.2222 -2.9073  1.4687
   76SLPC   C29 6861   3.815   3.514   5.863 -0.3115  0.1104 -0.5907
   76SLPC   H9R 6862   3.903   3.525   5.929 -0.3881  0.2420 -0.5081
   76SLPC  C210 6863   3.837   3.519   5.732  0.2855 -0.3954 -0.4631
   76SLPC  H10R 6864   3.933   3.561   5.698  1.1724  0.0915  2.4098
   76SLPC  C211 6865   3.719   3.504   5.633 -0.6663 -0.3017 -0.3517
   76SLPC  H11R 6866   3.666   3.600   5.618 -1.3564 -1.0250 -3.1295
   76SLPC  H11S 6867   3.645   3.431   5.672  0.1734 -1.2700 -0.5322
   76SLPC  C212 6868   3.765   3.452   5.500  0.5766  0.2935  0.0697
   76SLPC  H12R 6869   3.812   3.353   5.506  1.4248  0.7312  1.1463
   76SLPC  C213 6870   3.738   3.508   5.385 -0.0472 -0.6989  0.6696
   76SLPC  H13R 6871   3.777   3.456   5.296 -1.6968 -3.0621  1.2265
   76SLPC  C214 6872   3.673   3.636   5.349  0.2675 -0.7295  0.1460
   76SLPC  H14R 6873   3.727   3.717   5.402 -1.6119  1.1386 -0.6460
   76SLPC  H14S 6874   3.569   3.641   5.388  0.3333  1.2032  0.1867
   76SLPC  C215 6875   3.688   3.675   5.206 -0.7549  0.0859 -0.1631
   76SLPC  H15R 6876   3.795   3.653   5.188 -0.6558 -0.6055  1.1225
   76SLPC  H15S 6877   3.651   3.779   5.211  0.0497  0.3415  0.6917
   76SLPC  C216 6878   3.617   3.601   5.091  1.0251 -0.2456 -0.2585
   76SLPC  H16R 6879   3.506   3.594   5.100  0.8596  2.1594  0.1505
   76SLPC  H16S 6880   3.660   3.499   5.082  0.2207 -0.5794 -0.4328
   76SLPC  C217 6881   3.662   3.669   4.961 -0.2364  0.1722  0.4964
   76SLPC  H17R 6882   3.772   3.656   4.957 -0.3803 -1.6989  1.5020
   76SLPC  H17S 6883   3.630   3.774   4.980  1.3891  0.2561  3.1685
   76SLPC  C218 6884   3.592   3.592   4.848 -0.6716 -0.4000  0.0423
   76SLPC  H18R 6885   3.625   3.487   4.860 -0.4933 -0.3799 -0.2591
   76SLPC  H18S 6886   3.607   3.623   4.742 -0.0494  0.3065  0.3311
   76SLPC  H18T 6887   3.483   3.588   4.870 -0.8992  0.0647 -0.9409
   76SLPC   C33 6888   3.323   3.030   6.236  0.7558 -0.0069 -0.6213
   76SLPC   H3X 6889   3.304   3.137   6.259 -1.7009 -0.9329  2.2306
   76SLPC   H3Y 6890   3.242   2.971   6.284  0.5530 -0.2568 -1.2494
   76SLPC   C34 6891   3.305   3.007   6.083 -0.5567 -0.4648  0.3086
   76SLPC   H4X 6892   3.211   3.043   6.036 -0.2940  1.6039  1.2626
   76SLPC   H4Y 6893   3.297   2.896   6.082 -0.0274 -0.5136  0.8718
   76SLPC   C35 6894   3.427   3.055   6.009 -0.5120  0.4080  0.5795
   76SLPC   H5X 6895   3.511   2.992   6.047 -1.6328 -1.4891  0.0506
   76SLPC   H5Y 6896   3.445   3.164   6.023  1.5833  0.5606 -2.4416
   76SLPC   C36 6897   3.424   3.035   5.856 -0.0480  0.1387 -0.0810
   76SLPC   H6X 6898   3.509   3.086   5.807 -0.1048 -0.2796 -0.6295
   76SLPC   H6Y 6899   3.338   3.072   5.796  0.4374 -1.7048 -2.0410
   76SLPC   C37 6900   3.428   2.882   5.817  0.3851  0.4661  0.8252
   76SLPC   H7X 6901   3.337   2.829   5.854  0.8466 -0.6305  0.4430
   76SLPC   H7Y 6902   3.515   2.834   5.867  0.4667 -0.2721  0.0115
   76SLPC   C38 6903   3.427   2.865   5.659  0.3080 -0.4994 -0.0272
   76SLPC   H8X 6904   3.511   2.924   5.615  0.7513 -1.5667 -0.6436
   76SLPC   H8Y 6905   3.342   2.924   5.619  2.3293  2.5824 -0.1099
   76SLPC   C39 6906   3.419   2.720   5.622  0.3758  0.2541  0.2076
   76SLPC   H9X 6907   3.318   2.689   5.656 -0.4409  2.0086 -0.5223
   76SLPC   H9Y 6908   3.498   2.654   5.665 -0.8680 -0.8318  0.8887
   76SLPC  C310 6909   3.433   2.707   5.472 -0.1399 -0.1896 -0.2218
   76SLPC  H10X 6910   3.431   2.806   5.421  0.0580  0.1454  0.4116
   76SLPC  H10Y 6911   3.354   2.639   5.432 -2.4767  1.3618  1.4350
   76SLPC  C311 6912   3.567   2.644   5.425 -0.3181  0.1673  0.1404
   76SLPC  H11X 6913   3.564   2.533   5.422 -1.6012  0.1920 -0.0586
   76SLPC  H11Y 6914   3.647   2.682   5.492 -0.0763 -0.2657  0.1010
   76SLPC  C312 6915   3.588   2.675   5.277 -0.9612 -0.5220  0.3962
   76SLPC  H12X 6916   3.691   2.642   5.249 -0.6304  0.4470  0.4205
   76SLPC  H12Y 6917   3.583   2.786   5.269  1.4074 -0.3172  0.9474
   76SLPC  C313 6918   3.473   2.620   5.186 -0.3910  0.4364  0.8451
   76SLPC  H13X 6919   3.376   2.659   5.224 -1.4779  0.0543 -1.3968
   76SLPC  H13Y 6920   3.484   2.510   5.189  0.9447  0.5786  1.9119
   76SLPC  C314 6921   3.484   2.666   5.036 -0.4955  0.0051  0.3528
   76SLPC  H14X 6922   3.473   2.776   5.039 -1.5450 -0.1001  1.3834
   76SLPC  H14Y 6923   3.408   2.637   4.960  1.0361  1.1203 -1.6881
   76SLPC  C315 6924   3.608   2.628   4.951 -0.5315  0.3649 -0.1796
   76SLPC  H15X 6925   3.625   2.519   4.939 -4.7634 -0.3712 -1.1427
   76SLPC  H15Y 6926   3.701   2.665   4.999 -0.7681 -0.5510  1.0410
   76SLPC  C316 6927   3.609   2.674   4.800 -0.0848  0.9463 -0.4017
   76SLPC  H16X 6928   3.529   2.631   4.735  1.2127  0.2606 -1.6145
   76SLPC  H16Y 6929   3.701   2.627   4.759 -1.7469 -2.5077 -0.5140
   76SLPC  C317 6930   3.606   2.821   4.765 -0.2317  0.3007  1.0999
   76SLPC  H17X 6931   3.657   2.886   4.840  1.1190 -0.0940  0.5471
   76SLPC  H17Y 6932   3.502   2.860   4.776 -0.3654 -0.0831  1.2230
   76SLPC  C318 6933   3.669   2.861   4.634  0.7265 -0.3038  0.0432
   76SLPC  H18X 6934   3.628   2.958   4.600  1.1571  0.0837  0.6048
   76SLPC  H18Y 6935   3.654   2.787   4.552 -0.0437 -1.7163  1.4068
   76SLPC  H18Z 6936   3.778   2.881   4.646 -0.0379  3.2133  2.6773
   77SLPC     N 6937   2.407   0.688   6.964  0.5310 -1.3695  0.1644
   77SLPC   C13 6938   2.490   0.707   7.092 -0.4276 -0.6105  0.0126
   77SLPC  H13A 6939   2.589   0.719   7.051 -1.3790  1.4523 -1.8850
   77SLPC  H13B 6940   2.467   0.795   7.150  1.6351 -0.7567  1.1319
   77SLPC  H13C 6941   2.484   0.621   7.158  2.6827  0.0193  1.2852
   77SLPC   C14 6942   2.409   0.821   6.888 -0.1799  0.3225  0.1958
   77SLPC  H14A 6943   2.371   0.906   6.942  2.2031  1.7881 -0.2963
   77SLPC  H14B 6944   2.510   0.843   6.856 -0.3013 -0.1123 -0.5115
   77SLPC  H14C 6945   2.349   0.805   6.800 -2.6255 -2.1119  2.1283
   77SLPC   C15 6946   2.262   0.669   7.004 -0.0678  0.0694  0.1852
   77SLPC  H15A 6947   2.202   0.652   6.916  0.3850  1.6042 -0.4514
   77SLPC  H15B 6948   2.264   0.585   7.072  1.3293 -0.2046 -0.1712
   77SLPC  H15C 6949   2.226   0.747   7.070 -1.5145  0.5691 -1.1379
   77SLPC   C12 6950   2.461   0.576   6.880 -0.7058  0.5757  0.1794
   77SLPC  H12A 6951   2.566   0.598   6.870  0.3258 -3.2250  0.9599
   77SLPC  H12B 6952   2.421   0.587   6.780 -1.8886 -1.0633  0.4309
   77SLPC   C11 6953   2.440   0.426   6.925  0.7036 -0.1228 -0.0107
   77SLPC  H11A 6954   2.486   0.412   7.025  0.5536 -0.8252 -0.0313
   77SLPC  H11B 6955   2.506   0.368   6.856 -0.5991 -0.1555 -1.2654
   77SLPC     P 6956   2.247   0.314   6.792  0.1325  0.5859 -0.0374
   77SLPC   O13 6957   2.301   0.178   6.767  0.7169  0.3240 -0.3117
   77SLPC   O14 6958   2.100   0.339   6.788  0.3104  0.3766 -0.2044
   77SLPC   O12 6959   2.305   0.378   6.918 -0.0699  0.4641  0.1983
   77SLPC   O11 6960   2.330   0.403   6.690 -0.1621 -0.6745 -0.6373
   77SLPC    C1 6961   2.275   0.524   6.640  0.1948 -0.0110 -0.7426
   77SLPC    HA 6962   2.212   0.579   6.712  3.0452  2.5464  0.0219
   77SLPC    HB 6963   2.351   0.596   6.602 -0.1355 -0.5384 -2.4989
   77SLPC    C2 6964   2.185   0.490   6.511 -0.7117 -0.1492  0.0344
   77SLPC    HS 6965   2.083   0.477   6.553 -1.3043  0.0895 -1.2781
   77SLPC   O21 6966   2.238   0.379   6.438  0.4357  0.3096 -0.3415
   77SLPC   C21 6967   2.159   0.284   6.393  0.6295 -0.2527  0.4870
   77SLPC   O22 6968   2.035   0.283   6.396  0.0900 -0.3270  0.6222
   77SLPC   C22 6969   2.237   0.171   6.328  0.4581  0.0136 -0.6502
   77SLPC   H2R 6970   2.347   0.191   6.331  0.2999  0.8704  0.2126
   77SLPC   H2S 6971   2.235   0.080   6.391 -0.0241 -1.1436 -2.2979
   77SLPC    C3 6972   2.162   0.617   6.424 -0.4576  0.4277  0.6002
   77SLPC    HX 6973   2.252   0.659   6.373 -2.1008  3.2413 -0.2220
   77SLPC    HY 6974   2.139   0.701   6.492  0.5376 -0.0789  1.6002
   77SLPC   O31 6975   2.047   0.598   6.331  0.1309  0.2416 -0.2202
   77SLPC   C31 6976   2.078   0.580   6.206  0.3604 -1.0559 -0.4833
   77SLPC   O32 6977   2.190   0.567   6.158 -0.2262  0.8363 -1.2322
   77SLPC   C32 6978   1.953   0.579   6.129  0.6950 -0.4596 -1.0888
   77SLPC   H2X 6979   1.906   0.679   6.135  0.2215 -0.7410  1.3095
   77SLPC   H2Y 6980   1.885   0.507   6.181 -1.9608 -0.3225 -4.0821
   77SLPC   C23 6981   2.178   0.118   6.194 -0.6715  0.4203  0.7911
   77SLPC   H3R 6982   2.070   0.139   6.186 -0.9004 -1.2750 -2.2705
   77SLPC   H3S 6983   2.190   0.008   6.177 -3.5153 -0.3357  2.8259
   77SLPC   C24 6984   2.238   0.193   6.074 -0.1475 -0.4545 -0.5755
   77SLPC   H4R 6985   2.340   0.154   6.053  0.3592  0.9167 -0.7633
   77SLPC   H4S 6986   2.251   0.302   6.084  2.1014 -0.5969 -1.3711
   77SLPC   C25 6987   2.161   0.158   5.946  0.0646 -0.2311  0.2620
   77SLPC   H5R 6988   2.056   0.190   5.959 -0.0076 -1.1128  2.0684
   77SLPC   H5S 6989   2.143   0.049   5.938 -2.9037  0.0713  1.6100
   77SLPC   C26 6990   2.204   0.227   5.812  0.0488  0.1753 -0.1045
   77SLPC   H6R 6991   2.301   0.188   5.774 -0.8433 -1.4724 -0.7810
   77SLPC   H6S 6992   2.234   0.329   5.845  0.0251  0.8080 -1.9623
   77SLPC   C27 6993   2.094   0.223   5.701  0.4091  0.0488 -0.4632
   77SLPC   H7R 6994   2.013   0.289   5.740 -0.3130 -0.8116 -0.4843
   77SLPC   H7S 6995   2.052   0.120   5.697 -0.8620  0.5328 -0.1598
   77SLPC   C28 6996   2.153   0.247   5.569  0.1526 -0.1295 -0.2048
   77SLPC   H8R 6997   2.217   0.163   5.533  0.3747  0.5524 -1.4495
   77SLPC   H8S 6998   2.217   0.336   5.584  2.2639 -1.2078 -2.2131
   77SLPC   C29 6999   2.049   0.285   5.467  0.7956 -0.3350  0.2580
   77SLPC   H9R 7000   1.952   0.322   5.504  1.0771  2.7312 -1.7424
   77SLPC  C210 7001   2.062   0.264   5.335  0.0090  0.8947  0.5245
   77SLPC  H10R 7002   1.985   0.302   5.267 -0.1051 -0.7255 -0.3070
   77SLPC  C211 7003   2.188   0.209   5.268  0.0325  0.5380 -0.2475
   77SLPC  H11R 7004   2.151   0.120   5.212 -0.8975  0.0484  1.0848
   77SLPC  H11S 7005   2.263   0.158   5.331 -1.9525 -0.5630  1.3614
   77SLPC  C212 7006   2.261   0.313   5.177 -0.1842 -0.7564 -0.5454
   77SLPC  H12R 7007   2.317   0.384   5.239 -0.3576  0.1121 -1.3726
   77SLPC  C213 7008   2.243   0.345   5.051 -0.2948 -0.3909 -1.0770
   77SLPC  H13R 7009   2.307   0.423   5.007 -1.2992  1.4218  0.4892
   77SLPC  C214 7010   2.152   0.263   4.962  0.0356 -0.3991  1.1159
   77SLPC  H14R 7011   2.084   0.205   5.027  0.5198 -0.9656  1.1302
   77SLPC  H14S 7012   2.211   0.190   4.902 -0.0962 -1.6393  2.4450
   77SLPC  C215 7013   2.060   0.345   4.867 -0.1763  0.4274  0.0037
   77SLPC  H15R 7014   2.016   0.272   4.797 -1.9487 -1.6049  2.9862
   77SLPC  H15S 7015   2.113   0.422   4.807 -1.6262  1.8700  0.4708
   77SLPC  C216 7016   1.947   0.425   4.941  0.7409  0.2428  0.3451
   77SLPC  H16R 7017   1.976   0.515   5.000  0.8442 -0.6454  1.6892
   77SLPC  H16S 7018   1.889   0.351   4.999  0.2663  0.9754  0.8189
   77SLPC  C217 7019   1.856   0.488   4.829 -0.0175 -0.2537 -0.0118
   77SLPC  H17R 7020   1.761   0.523   4.874  0.2531  2.3456 -1.2689
   77SLPC  H17S 7021   1.838   0.413   4.749 -1.8767  0.8054 -0.6556
   77SLPC  C218 7022   1.924   0.611   4.767 -0.1693  0.3494  0.3807
   77SLPC  H18R 7023   2.018   0.583   4.714 -1.2918 -1.3841 -0.8022
   77SLPC  H18S 7024   1.941   0.694   4.839 -2.0242  0.2673  0.9445
   77SLPC  H18T 7025   1.857   0.641   4.684 -0.5733  0.3300  0.7026
   77SLPC   C33 7026   1.966   0.542   5.981 -0.3345  0.8687  0.2364
   77SLPC   H3X 7027   1.875   0.491   5.944 -1.6532  1.5726  2.3337
   77SLPC   H3Y 7028   2.047   0.467   5.971 -0.8950  0.1837  0.7278
   77SLPC   C34 7029   1.997   0.659   5.891  0.0833  0.1132 -0.6554
   77SLPC   H4X 7030   2.084   0.715   5.931 -0.7852  0.0784  1.4104
   77SLPC   H4Y 7031   1.909   0.728   5.897 -1.4156 -1.7686 -0.1606
   77SLPC   C35 7032   2.017   0.617   5.740 -0.0425 -0.3071 -0.3051
   77SLPC   H5X 7033   1.936   0.558   5.691 -1.1388  0.7319  0.2019
   77SLPC   H5Y 7034   2.100   0.543   5.740 -0.1893 -0.4953  1.0170
   77SLPC   C36 7035   2.057   0.732   5.657 -0.0424  0.3435  0.2346
   77SLPC   H6X 7036   2.155   0.767   5.695  0.3702 -2.3538  1.8814
   77SLPC   H6Y 7037   1.979   0.811   5.662  0.6352  1.0427 -0.0720
   77SLPC   C37 7038   2.077   0.684   5.514  0.0414 -0.3008  0.0848
   77SLPC   H7X 7039   2.116   0.580   5.518  0.4329 -0.1206  1.3907
   77SLPC   H7Y 7040   2.147   0.742   5.451  0.0474  0.9715  1.2300
   77SLPC   C38 7041   1.937   0.673   5.452 -0.2424  0.5171  0.0166
   77SLPC   H8X 7042   1.851   0.632   5.509 -0.8312 -2.3397 -2.6490
   77SLPC   H8Y 7043   1.944   0.596   5.373 -0.7754  0.0856  0.3829
   77SLPC   C39 7044   1.883   0.809   5.392 -0.0427 -0.2894  0.1035
   77SLPC   H9X 7045   1.952   0.841   5.311 -0.5364  1.3790  0.3055
   77SLPC   H9Y 7046   1.908   0.874   5.478 -0.8105 -1.1307  0.9797
   77SLPC  C310 7047   1.743   0.817   5.361  0.6611 -0.4077  0.5558
   77SLPC  H10X 7048   1.714   0.919   5.328  2.8777  0.3271  0.7128
   77SLPC  H10Y 7049   1.686   0.781   5.449  0.0285  2.2300  1.3020
   77SLPC  C311 7050   1.689   0.723   5.253  0.5286 -1.0226 -0.3234
   77SLPC  H11X 7051   1.580   0.741   5.239  0.0701 -3.2986 -0.1117
   77SLPC  H11Y 7052   1.688   0.619   5.291 -1.8071 -0.8135  0.3507
   77SLPC  C312 7053   1.762   0.733   5.110  0.1891  0.9505 -0.6791
   77SLPC  H12X 7054   1.710   0.669   5.037  2.0292  0.1331 -1.3377
   77SLPC  H12Y 7055   1.865   0.691   5.117 -0.7729 -1.2692  2.6161
   77SLPC  C313 7056   1.762   0.868   5.033 -0.3393  0.0752  0.3998
   77SLPC  H13X 7057   1.811   0.843   4.936 -1.4457  1.0880 -0.4492
   77SLPC  H13Y 7058   1.823   0.940   5.092  0.0541  0.6236 -0.6452
   77SLPC  C314 7059   1.623   0.916   5.001  0.2865  0.1018  0.0781
   77SLPC  H14X 7060   1.542   0.906   5.076  0.3451 -1.0586 -0.0017
   77SLPC  H14Y 7061   1.583   0.841   4.930 -1.4764 -0.4408  1.5659
   77SLPC  C315 7062   1.609   1.056   4.932 -0.7978 -0.4806  0.3987
   77SLPC  H15X 7063   1.696   1.072   4.864 -0.1610 -1.5528  0.9423
   77SLPC  H15Y 7064   1.613   1.135   5.010 -0.2710  0.2919 -0.3809
   77SLPC  C316 7065   1.478   1.067   4.858 -0.3508  0.0515  0.1259
   77SLPC  H16X 7066   1.401   1.095   4.933 -1.9173 -1.3100 -0.9055
   77SLPC  H16Y 7067   1.459   0.975   4.798 -2.2566  0.1208  0.5631
   77SLPC  C317 7068   1.493   1.174   4.744  0.1942  0.3371 -0.7240
   77SLPC  H17X 7069   1.577   1.142   4.679 -0.9460 -2.6641 -0.9111
   77SLPC  H17Y 7070   1.515   1.269   4.797 -2.0793  1.1941 -1.1840
   77SLPC  C318 7071   1.375   1.188   4.642 -0.7806  0.4784 -0.3980
   77SLPC  H18X 7072   1.376   1.281   4.581 -0.7706 -1.1635 -3.0545
   77SLPC  H18Y 7073   1.281   1.174   4.701 -0.6283  0.4945 -0.1505
   77SLPC  H18Z 7074   1.394   1.105   4.571  0.4932 -1.4632  2.0827
   78SLPC     N 7075   3.429   3.841   7.019  0.0516 -0.0315 -0.3655
   78SLPC   C13 7076   3.564   3.781   7.003 -0.7597 -0.2750 -0.6542
   78SLPC  H13A 7077   3.564   3.690   6.944  1.9344  0.8776 -2.6547
   78SLPC  H13B 7078   3.626   3.842   6.939  1.8835 -1.2079  0.8587
   78SLPC  H13C 7079   3.603   3.759   7.101 -0.8991 -0.6505 -0.6809
   78SLPC   C14 7080   3.442   3.979   6.974  0.0843 -1.2127  0.1913
   78SLPC  H14A 7081   3.531   4.026   7.012 -1.9660  1.7632  1.7450
   78SLPC  H14B 7082   3.444   3.988   6.866  1.1759 -4.1262 -0.1408
   78SLPC  H14C 7083   3.352   4.028   7.008  2.1926  2.7359  0.6792
   78SLPC   C15 7084   3.396   3.854   7.166 -0.1770 -0.1444 -0.5335
   78SLPC  H15A 7085   3.292   3.883   7.170  0.1029  0.9907 -1.1415
   78SLPC  H15B 7086   3.406   3.757   7.213 -0.8459 -0.8240 -1.7476
   78SLPC  H15C 7087   3.458   3.926   7.217 -3.6318  1.9300  1.0966
   78SLPC   C12 7088   3.320   3.768   6.951  0.0322  0.9685  0.0393
   78SLPC  H12A 7089   3.223   3.815   6.949  0.5205  2.0066 -2.4538
   78SLPC  H12B 7090   3.300   3.675   7.004  0.6916  0.5489 -0.4282
   78SLPC   C11 7091   3.355   3.734   6.803 -0.5844 -0.0052  0.5117
   78SLPC  H11A 7092   3.388   3.629   6.794 -0.5335  0.1460 -1.3501
   78SLPC  H11B 7093   3.444   3.791   6.770 -1.2992 -0.2713 -2.0784
   78SLPC     P 7094   3.166   3.895   6.693  0.0414 -0.3898  0.0405
   78SLPC   O13 7095   3.058   3.911   6.788 -0.4923 -0.7160 -0.6622
   78SLPC   O14 7096   3.258   4.008   6.682  0.1074 -0.5565  0.2342
   78SLPC   O12 7097   3.243   3.756   6.723  1.1278  0.1118  0.0054
   78SLPC   O11 7098   3.099   3.866   6.550 -0.4637  0.5826 -0.0234
   78SLPC    C1 7099   3.080   3.742   6.480  0.4917 -0.4414  0.4074
   78SLPC    HA 7100   3.183   3.702   6.467  0.3553 -0.5152 -0.4426
   78SLPC    HB 7101   3.022   3.670   6.541 -3.3555  1.0046 -1.2483
   78SLPC    C2 7102   3.006   3.773   6.346 -0.2359  0.2198 -0.2153
   78SLPC    HS 7103   3.007   3.681   6.284  0.8809 -1.4232  2.1294
   78SLPC   O21 7104   3.077   3.879   6.281 -0.3549 -0.1552 -0.3374
   78SLPC   C21 7105   3.192   3.845   6.238 -0.1156  0.2075  0.3970
   78SLPC   O22 7106   3.239   3.737   6.221 -0.3651  0.2157 -0.5268
   78SLPC   C22 7107   3.255   3.979   6.194  0.7140  0.2580  0.2362
   78SLPC   H2R 7108   3.176   4.052   6.165  1.1781  0.9452  0.6684
   78SLPC   H2S 7109   3.319   4.020   6.274  0.0350  2.5634 -0.3049
   78SLPC    C3 7110   2.851   3.815   6.360 -0.2766 -0.3777  0.2073
   78SLPC    HX 7111   2.860   3.920   6.395 -2.0603 -0.1005 -0.1185
   78SLPC    HY 7112   2.807   3.746   6.435 -0.8973  0.1303  0.3131
   78SLPC   O31 7113   2.778   3.820   6.241  0.0939 -0.4844  0.7246
   78SLPC   C31 7114   2.737   3.705   6.192 -0.0743 -0.0140 -0.0760
   78SLPC   O32 7115   2.768   3.595   6.233  0.0793 -0.3591 -0.1282
   78SLPC   C32 7116   2.640   3.728   6.076  0.0223 -0.1562  0.1980
   78SLPC   H2X 7117   2.603   3.832   6.090  0.0181 -0.4218  2.4818
   78SLPC   H2Y 7118   2.552   3.661   6.084 -0.7334  0.9273  1.3821
   78SLPC   C23 7119   3.352   3.952   6.067 -0.2332 -0.3293  0.2219
   78SLPC   H3R 7120   3.306   3.888   5.989 -0.2208 -0.8684  0.6447
   78SLPC   H3S 7121   3.440   3.892   6.100 -1.3976 -1.7355  0.8977
   78SLPC   C24 7122   3.406   4.081   6.010 -0.6308 -0.2062 -0.3202
   78SLPC   H4R 7123   3.433   4.150   6.093 -1.8300  0.9197 -0.8340
   78SLPC   H4S 7124   3.325   4.129   5.952 -0.2150 -0.8122 -1.4300
   78SLPC   C25 7125   3.528   4.069   5.925  0.3751 -0.4482  0.0653
   78SLPC   H5R 7126   3.615   4.027   5.980 -1.3202 -2.2005  1.5774
   78SLPC   H5S 7127   3.553   4.169   5.883 -0.8085 -0.2757 -0.2831
   78SLPC   C26 7128   3.515   3.987   5.791 -0.2852  0.0968 -0.1546
   78SLPC   H6R 7129   3.509   3.881   5.822 -0.9018  0.1011 -0.2323
   78SLPC   H6S 7130   3.618   3.992   5.749  1.3720 -0.9635  3.4182
   78SLPC   C27 7131   3.409   4.038   5.692 -0.1612 -0.0743 -0.0163
   78SLPC   H7R 7132   3.415   4.148   5.708  2.4110 -0.3128  1.1918
   78SLPC   H7S 7133   3.314   3.997   5.733  1.5851 -1.2556  3.1912
   78SLPC   C28 7134   3.424   3.980   5.549 -0.2187 -0.5195 -1.2440
   78SLPC   H8R 7135   3.322   3.986   5.505  0.7660  2.4464 -3.4975
   78SLPC   H8S 7136   3.452   3.875   5.572 -0.8930 -0.5055 -0.2945
   78SLPC   C29 7137   3.524   4.045   5.453 -0.0745  0.5620 -0.0849
   78SLPC   H9R 7138   3.619   4.078   5.497  0.7266  0.0411 -1.3635
   78SLPC  C210 7139   3.499   4.056   5.318  0.1151 -0.0826 -0.2878
   78SLPC  H10R 7140   3.580   4.096   5.255  0.1017 -0.3351 -0.4683
   78SLPC  C211 7141   3.384   3.993   5.246  0.3822  0.1295  0.2327
   78SLPC  H11R 7142   3.324   3.933   5.317  0.9222 -2.0344 -1.0536
   78SLPC  H11S 7143   3.420   3.916   5.175 -1.2882 -0.1797 -0.3309
   78SLPC  C212 7144   3.284   4.090   5.182 -0.1416 -0.3330 -0.4273
   78SLPC  H12R 7145   3.247   4.167   5.252  1.0650 -0.2930  0.1803
   78SLPC  C213 7146   3.245   4.096   5.053 -0.1685 -0.7598  0.0562
   78SLPC  H13R 7147   3.183   4.180   5.019  0.8611 -0.4448 -1.1033
   78SLPC  C214 7148   3.276   3.998   4.944 -0.6391  0.3546  0.7351
   78SLPC  H14R 7149   3.182   4.006   4.885  0.8643  1.1632 -1.7167
   78SLPC  H14S 7150   3.292   3.892   4.975 -0.1138  0.4550  0.8162
   78SLPC  C215 7151   3.389   4.044   4.847  0.4138 -0.4864 -0.0322
   78SLPC  H15R 7152   3.485   4.067   4.898  1.6658 -1.2776 -1.9039
   78SLPC  H15S 7153   3.362   4.145   4.811  0.7891 -0.6683 -0.8779
   78SLPC  C216 7154   3.414   3.948   4.724 -0.0380 -0.0323 -0.0385
   78SLPC  H16R 7155   3.324   3.930   4.661  1.2300 -0.1240 -1.9076
   78SLPC  H16S 7156   3.439   3.848   4.766 -2.5478 -1.1466 -0.9513
   78SLPC  C217 7157   3.514   4.004   4.635 -0.3771  0.1108  0.5028
   78SLPC  H17R 7158   3.614   3.986   4.680 -0.3967 -0.7877  0.1985
   78SLPC  H17S 7159   3.511   4.115   4.630  0.5408  0.0920 -1.1012
   78SLPC  C218 7160   3.510   3.947   4.491 -0.3788  0.7877  0.3638
   78SLPC  H18R 7161   3.464   4.023   4.424 -0.4723  0.3724 -0.0534
   78SLPC  H18S 7162   3.451   3.852   4.492  2.4881 -1.1107  0.3646
   78SLPC  H18T 7163   3.608   3.926   4.442 -1.5847  0.0065 -1.8982
   78SLPC   C33 7164   2.708   3.710   5.936  0.1298 -0.8035 -0.0022
   78SLPC   H3X 7165   2.745   3.608   5.914 -1.3716 -0.9092 -2.4013
   78SLPC   H3Y 7166   2.800   3.773   5.941 -0.3737 -0.1265  1.3688
   78SLPC   C34 7167   2.607   3.751   5.826  0.3002  0.7091 -1.2198
   78SLPC   H4X 7168   2.591   3.861   5.833  1.1664  0.7161  2.3230
   78SLPC   H4Y 7169   2.511   3.696   5.837  0.9060 -0.3213 -1.0065
   78SLPC   C35 7170   2.678   3.707   5.694  0.0600 -0.1933  0.2167
   78SLPC   H5X 7171   2.718   3.604   5.693  1.5253  0.3580  0.0733
   78SLPC   H5Y 7172   2.773   3.763   5.681  0.8267 -1.0901  1.7056
   78SLPC   C36 7173   2.584   3.736   5.573  0.5924  0.2934  0.7615
   78SLPC   H6X 7174   2.586   3.847   5.566 -4.2386  0.4996 -0.9373
   78SLPC   H6Y 7175   2.478   3.712   5.596  0.9221 -0.4635  1.5278
   78SLPC   C37 7176   2.641   3.674   5.448 -0.2304  0.1499  0.1739
   78SLPC   H7X 7177   2.629   3.565   5.466 -1.6645  0.4463  1.2727
   78SLPC   H7Y 7178   2.743   3.710   5.423 -1.0489  2.4616 -0.0554
   78SLPC   C38 7179   2.559   3.720   5.326  0.5858 -0.4184  0.2517
   78SLPC   H8X 7180   2.551   3.831   5.323  4.0614 -0.0464  1.1266
   78SLPC   H8Y 7181   2.450   3.702   5.336  0.6450 -0.8761  0.0946
   78SLPC   C39 7182   2.623   3.675   5.197  0.7516 -0.5673 -0.4558
   78SLPC   H9X 7183   2.646   3.569   5.220 -0.6642 -1.3425 -2.3193
   78SLPC   H9Y 7184   2.723   3.718   5.176  0.9031  0.1717  1.5865
   78SLPC  C310 7185   2.532   3.704   5.075 -0.7125  0.0529 -1.1311
   78SLPC  H10X 7186   2.525   3.815   5.067 -0.2780  0.2169  0.5366
   78SLPC  H10Y 7187   2.434   3.665   5.109  1.8092 -3.0934  3.6957
   78SLPC  C311 7188   2.576   3.644   4.938  0.1460  0.2198 -0.5237
   78SLPC  H11X 7189   2.612   3.542   4.962  1.7920  1.3482  2.1577
   78SLPC  H11Y 7190   2.667   3.683   4.887  0.2384 -0.5929 -1.0059
   78SLPC  C312 7191   2.461   3.627   4.833  0.4232 -0.2195 -0.1724
   78SLPC  H12X 7192   2.404   3.722   4.847  1.0544 -0.0657  1.6442
   78SLPC  H12Y 7193   2.397   3.542   4.862  0.2325 -0.7542 -2.0879
   78SLPC  C313 7194   2.508   3.591   4.684  0.1032 -0.1643  0.0997
   78SLPC  H13X 7195   2.571   3.501   4.699  0.0150 -0.5808 -1.8570
   78SLPC  H13Y 7196   2.571   3.676   4.652 -2.2181  2.4200  1.9167
   78SLPC  C314 7197   2.389   3.585   4.588 -0.1808 -0.2358 -0.2214
   78SLPC  H14X 7198   2.325   3.670   4.619 -0.6515 -0.4257 -0.6748
   78SLPC  H14Y 7199   2.340   3.487   4.603  0.0981 -0.2512  0.6588
   78SLPC  C315 7200   2.448   3.601   4.447 -0.1215 -0.1111 -0.1768
   78SLPC  H15X 7201   2.375   3.548   4.383 -0.7089  1.6024 -0.9846
   78SLPC  H15Y 7202   2.538   3.539   4.465  0.3646  0.9954  1.4940
   78SLPC  C316 7203   2.470   3.737   4.383 -0.4105  0.4243  0.3478
   78SLPC  H16X 7204   2.485   3.703   4.278 -0.3382 -3.3083  1.4091
   78SLPC  H16Y 7205   2.561   3.787   4.421  0.2274 -0.5596  0.1453
   78SLPC  C317 7206   2.350   3.839   4.390  0.3348  0.6312 -0.5845
   78SLPC  H17X 7207   2.314   3.852   4.495 -1.5567 -0.5358 -1.0243
   78SLPC  H17Y 7208   2.266   3.797   4.329 -0.4760  1.1051  0.1818
   78SLPC  C318 7209   2.410   3.975   4.342  0.3786 -0.0955 -0.2200
   78SLPC  H18X 7210   2.323   4.045   4.337  0.2272 -0.3818 -2.1479
   78SLPC  H18Y 7211   2.446   3.960   4.238 -0.7081  0.6729 -0.7304
   78SLPC  H18Z 7212   2.488   4.019   4.407  0.4257 -1.3508  0.6000
   79SLPC     N 7213   3.099   1.592   6.812  0.0787  0.3605 -0.1053
   79SLPC   C13 7214   3.231   1.651   6.808 -0.0352 -0.3814 -0.5142
   79SLPC  H13A 7215   3.280   1.632   6.713  0.0198  1.3460 -0.8679
   79SLPC  H13B 7216   3.236   1.759   6.799  1.1236 -0.4251 -0.5459
   79SLPC  H13C 7217   3.287   1.620   6.894 -1.9621  0.0293  0.9622
   79SLPC   C14 7218   3.018   1.616   6.691 -0.6362  0.6012  0.1249
   79SLPC  H14A 7219   3.054   1.558   6.607  0.7909  0.0926  1.0435
   79SLPC  H14B 7220   2.914   1.604   6.717 -1.0629  2.1073 -0.7898
   79SLPC  H14C 7221   3.032   1.717   6.656  1.2763 -0.6073 -3.0283
   79SLPC   C15 7222   3.035   1.657   6.927 -0.1636 -0.5473 -0.4605
   79SLPC  H15A 7223   3.090   1.652   7.020 -1.9916  0.0786  0.7141
   79SLPC  H15B 7224   3.027   1.761   6.898 -0.0152 -1.3450 -3.6721
   79SLPC  H15C 7225   2.933   1.627   6.943  0.3697 -1.7501  0.9436
   79SLPC   C12 7226   3.104   1.439   6.836 -0.0861 -0.0217 -0.2586
   79SLPC  H12A 7227   3.003   1.408   6.856 -0.1200 -0.3280 -0.8816
   79SLPC  H12B 7228   3.152   1.424   6.932 -0.3062 -0.3092 -0.1923
   79SLPC   C11 7229   3.154   1.350   6.726 -0.0803  0.6566  0.3731
   79SLPC  H11A 7230   3.174   1.251   6.771  1.6985 -0.0469 -1.7654
   79SLPC  H11B 7231   3.249   1.384   6.678 -0.2888 -1.8430 -2.0373
   79SLPC     P 7232   2.939   1.240   6.619  0.2118  0.0220 -0.2391
   79SLPC   O13 7233   2.886   1.236   6.755 -0.1085 -0.1464  0.0489
   79SLPC   O14 7234   2.846   1.265   6.510  0.5381  0.2434  0.0279
   79SLPC   O12 7235   3.058   1.337   6.617  0.2278 -0.2767 -0.3531
   79SLPC   O11 7236   3.007   1.101   6.598  0.2041 -0.4302 -0.0585
   79SLPC    C1 7237   3.097   1.085   6.487 -0.0829 -0.2420 -0.0304
   79SLPC    HA 7238   3.091   1.157   6.402 -0.6110  0.2055  0.3784
   79SLPC    HB 7239   3.200   1.099   6.527 -0.3476  0.4117  0.4383
   79SLPC    C2 7240   3.095   0.940   6.427  0.1196 -0.1609  0.3602
   79SLPC    HS 7241   3.198   0.920   6.391  0.6218  1.5795  0.7616
   79SLPC   O21 7242   3.004   0.921   6.321 -0.2897 -0.4386  0.0770
   79SLPC   C21 7243   3.045   0.971   6.207 -0.3412 -0.1987 -0.0302
   79SLPC   O22 7244   3.150   1.025   6.177  0.4670 -0.0857 -0.3534
   79SLPC   C22 7245   2.954   0.924   6.092  0.6062  0.3238 -0.1734
   79SLPC   H2R 7246   2.950   0.813   6.096  0.6362  0.3468  0.6381
   79SLPC   H2S 7247   2.854   0.971   6.102 -0.6165 -2.2969  1.0279
   79SLPC    C3 7248   3.059   0.837   6.537 -0.0878  0.1165 -0.4269
   79SLPC    HX 7249   2.953   0.864   6.558 -0.8280 -1.3479 -2.0272
   79SLPC    HY 7250   3.129   0.840   6.624  0.4873  1.4597 -0.9059
   79SLPC   O31 7251   3.065   0.707   6.472 -0.2577 -0.5558 -0.2532
   79SLPC   C31 7252   2.989   0.603   6.508 -0.2111 -0.4668  0.1343
   79SLPC   O32 7253   2.921   0.591   6.608  0.4686  0.0423 -0.0106
   79SLPC   C32 7254   3.003   0.492   6.396  0.5276  1.1324 -0.3347
   79SLPC   H2X 7255   2.935   0.406   6.412  0.2754  1.3440 -0.2665
   79SLPC   H2Y 7256   3.105   0.450   6.388 -0.3476 -0.8147 -2.0242
   79SLPC   C23 7257   2.993   0.974   5.951  0.6138 -0.6560 -0.4065
   79SLPC   H3R 7258   2.940   0.923   5.868  0.7387  0.8313 -1.4289
   79SLPC   H3S 7259   3.101   0.958   5.929  0.5656 -2.6168  0.5408
   79SLPC   C24 7260   2.963   1.126   5.930  0.4095 -1.0094 -0.4541
   79SLPC   H4R 7261   3.025   1.181   6.004  0.6914 -3.5338  1.3328
   79SLPC   H4S 7262   2.858   1.150   5.958  1.1538  1.3391  0.5847
   79SLPC   C25 7263   2.980   1.176   5.783 -0.2089  0.4203  0.6465
   79SLPC   H5R 7264   3.088   1.185   5.758 -0.0508 -0.0366  1.1747
   79SLPC   H5S 7265   2.930   1.275   5.787  0.9059  1.0803 -0.8502
   79SLPC   C26 7266   2.900   1.096   5.677 -0.5007 -0.8846  1.2104
   79SLPC   H6R 7267   2.792   1.096   5.700 -1.0270  2.4869 -0.6921
   79SLPC   H6S 7268   2.945   0.994   5.678  1.0570 -0.3021 -0.9091
   79SLPC   C27 7269   2.930   1.158   5.530  0.3833 -0.3719  0.9187
   79SLPC   H7R 7270   3.027   1.213   5.532  0.1471  0.1878 -1.0623
   79SLPC   H7S 7271   2.855   1.240   5.521  0.6197 -0.0955  1.3849
   79SLPC   C28 7272   2.913   1.052   5.419  0.6645 -0.1346  0.3300
   79SLPC   H8R 7273   2.815   1.001   5.427  1.0319 -0.8810  0.1931
   79SLPC   H8S 7274   2.991   0.975   5.440  1.1009  0.7059  1.9693
   79SLPC   C29 7275   2.921   1.104   5.277  0.5566 -0.6670  0.0464
   79SLPC   H9R 7276   3.024   1.126   5.248  0.4143  0.3607  0.2631
   79SLPC  C210 7277   2.818   1.108   5.189  0.4726  0.0045 -0.4657
   79SLPC  H10R 7278   2.856   1.154   5.096  0.6552 -0.8877 -0.8389
   79SLPC  C211 7279   2.667   1.092   5.215 -0.8108 -0.1482  0.0780
   79SLPC  H11R 7280   2.630   1.154   5.299 -1.1673 -0.0226 -0.1696
   79SLPC  H11S 7281   2.635   0.991   5.248  0.4205 -0.7426 -0.4940
   79SLPC  C212 7282   2.583   1.129   5.096 -0.0422  0.2844 -0.0034
   79SLPC  H12R 7283   2.534   1.226   5.112 -1.9196 -1.0815  3.6453
   79SLPC  C213 7284   2.544   1.049   5.000  0.4531  0.6039 -0.0351
   79SLPC  H13R 7285   2.475   1.088   4.923  0.5441  2.4288  0.7450
   79SLPC  C214 7286   2.573   0.899   5.000  0.2711 -0.6088  0.9159
   79SLPC  H14R 7287   2.487   0.851   5.051 -1.7112  2.4843  0.7576
   79SLPC  H14S 7288   2.674   0.870   5.033  1.1634  2.4736  1.1839
   79SLPC  C215 7289   2.561   0.846   4.848  0.2702 -0.7654  0.2790
   79SLPC  H15R 7290   2.616   0.749   4.849 -1.2207 -1.6547 -0.3452
   79SLPC  H15S 7291   2.620   0.919   4.789 -0.2168  0.1031  0.8490
   79SLPC  C216 7292   2.409   0.834   4.803  0.6057 -0.0989  0.5885
   79SLPC  H16R 7293   2.367   0.936   4.788  0.6150 -0.2051 -0.1883
   79SLPC  H16S 7294   2.340   0.786   4.876 -1.5603  1.5342 -0.2784
   79SLPC  C217 7295   2.398   0.759   4.674 -0.0873  0.0811  0.0432
   79SLPC  H17R 7296   2.480   0.684   4.674 -0.5544 -0.4502 -1.2817
   79SLPC  H17S 7297   2.418   0.828   4.589  2.5168  0.0421  0.5328
   79SLPC  C218 7298   2.262   0.695   4.654 -0.2845 -0.8201  0.2989
   79SLPC  H18R 7299   2.254   0.652   4.552 -0.9991 -1.9708  0.8264
   79SLPC  H18S 7300   2.181   0.771   4.667  1.5947  0.9080  3.1138
   79SLPC  H18T 7301   2.252   0.615   4.730 -1.2509 -0.4772  0.5399
   79SLPC   C33 7302   2.981   0.553   6.252  0.4381  0.3380 -0.0255
   79SLPC   H3X 7303   3.052   0.636   6.227 -1.2907  1.4970 -1.2674
   79SLPC   H3Y 7304   2.878   0.595   6.252  0.2602 -0.0942  0.5310
   79SLPC   C34 7305   2.979   0.437   6.154 -0.7310 -1.1604 -0.2092
   79SLPC   H4X 7306   2.904   0.370   6.201  0.0387 -2.0905 -0.2749
   79SLPC   H4Y 7307   3.082   0.398   6.166  0.5775  2.6041  2.6602
   79SLPC   C35 7308   2.952   0.477   6.009  0.6159 -0.9268  0.1436
   79SLPC   H5X 7309   3.026   0.558   5.994  0.7039 -1.0643 -0.1617
   79SLPC   H5Y 7310   2.857   0.534   6.012  1.1436 -0.0304  0.3229
   79SLPC   C36 7311   2.960   0.358   5.909 -0.9555  0.0542 -0.5223
   79SLPC   H6X 7312   2.893   0.276   5.941  0.6996  0.3914  4.7516
   79SLPC   H6Y 7313   3.064   0.327   5.932 -0.2327  2.4144 -0.3564
   79SLPC   C37 7314   2.965   0.391   5.761 -0.0852 -0.6015  0.1769
   79SLPC   H7X 7315   3.049   0.459   5.735 -0.8013 -0.1358 -0.9945
   79SLPC   H7Y 7316   2.864   0.436   5.748  0.6398  1.3772  0.9256
   79SLPC   C38 7317   2.978   0.259   5.686 -0.0494  0.4083  0.9515
   79SLPC   H8X 7318   2.887   0.196   5.699 -0.4215  0.7913  0.2526
   79SLPC   H8Y 7319   3.062   0.193   5.714  1.7568  1.5143 -1.5188
   79SLPC   C39 7320   2.989   0.281   5.532  0.6659 -0.2853 -0.3815
   79SLPC   H9X 7321   3.069   0.356   5.514  0.1133  0.0634 -1.5144
   79SLPC   H9Y 7322   2.907   0.343   5.490 -0.0777 -1.6246 -0.9993
   79SLPC  C310 7323   2.998   0.165   5.441 -0.0546  0.4390 -0.1026
   79SLPC  H10X 7324   2.919   0.094   5.470  0.5948 -0.4109 -0.3683
   79SLPC  H10Y 7325   3.096   0.115   5.459 -0.8403 -1.7538 -1.5402
   79SLPC  C311 7326   3.002   0.190   5.296 -0.3606 -0.5345  0.7233
   79SLPC  H11X 7327   3.104   0.214   5.259 -0.6277 -1.1540 -0.4480
   79SLPC  H11Y 7328   2.944   0.281   5.270  1.1511 -0.3549 -2.5076
   79SLPC  C312 7329   2.955   0.066   5.215  0.4752 -0.6277  0.3147
   79SLPC  H12X 7330   2.858   0.030   5.258  0.3723  1.8720  2.4058
   79SLPC  H12Y 7331   3.027  -0.007   5.258  0.2726 -1.8010 -1.2588
   79SLPC  C313 7332   2.951   0.082   5.067 -0.2919 -1.0167  0.0431
   79SLPC  H13X 7333   3.039   0.142   5.034 -2.4460  0.2443 -4.0092
   79SLPC  H13Y 7334   2.870   0.147   5.028  0.6876  0.9627  1.1346
   79SLPC  C314 7335   2.949  -0.048   4.995  0.3536  0.5685  0.0797
   79SLPC  H14X 7336   2.855  -0.098   5.028 -2.2561  3.9165 -1.6155
   79SLPC  H14Y 7337   3.031  -0.116   5.026 -0.6244 -0.7040 -0.0378
   79SLPC  C315 7338   2.942  -0.044   4.844  0.5190 -0.2923  0.8076
   79SLPC  H15X 7339   3.024   0.025   4.813 -2.3711  2.3757 -1.4817
   79SLPC  H15Y 7340   2.850   0.010   4.814 -0.2096 -2.1361 -0.4533
   79SLPC  C316 7341   2.942  -0.178   4.772 -0.3153  0.2558 -0.1628
   79SLPC  H16X 7342   2.852  -0.238   4.799 -1.1234  1.4507 -0.0934
   79SLPC  H16Y 7343   3.029  -0.240   4.802 -0.0746  0.2620 -0.8397
   79SLPC  C317 7344   2.968  -0.169   4.622 -0.5047 -0.2231 -0.6359
   79SLPC  H17X 7345   3.066  -0.116   4.617 -0.7595  0.4146  0.7600
   79SLPC  H17Y 7346   2.887  -0.109   4.575  0.0016  1.0696  0.1042
   79SLPC  C318 7347   2.998  -0.295   4.548  0.2777  0.5013 -0.4566
   79SLPC  H18X 7348   2.910  -0.363   4.548 -0.7816  1.8165 -0.0978
   79SLPC  H18Y 7349   3.083  -0.352   4.590 -0.6200  0.9405  2.1708
   79SLPC  H18Z 7350   3.022  -0.266   4.444  0.1661 -1.9549 -1.2262
   80SLPC     N 7351   5.137   3.428   6.623  0.4334  0.3069  0.1156
   80SLPC   C13 7352   5.094   3.570   6.612 -0.5941  0.0124  0.5654
   80SLPC  H13A 7353   5.060   3.592   6.712  0.5273  0.5698  0.8449
   80SLPC  H13B 7354   5.172   3.643   6.594 -0.1260 -0.7140 -0.4012
   80SLPC  H13C 7355   5.007   3.581   6.550  0.0727 -0.0041 -0.3870
   80SLPC   C14 7356   5.021   3.342   6.659 -0.1679  0.0615  0.1617
   80SLPC  H14A 7357   4.946   3.337   6.581  0.1465 -1.6447 -0.0680
   80SLPC  H14B 7358   5.059   3.241   6.666 -0.8189 -0.1097  1.3498
   80SLPC  H14C 7359   4.972   3.368   6.751  0.6958  0.9241  0.3959
   80SLPC   C15 7360   5.246   3.419   6.729  0.3445 -0.1327 -0.2967
   80SLPC  H15A 7361   5.210   3.434   6.830 -1.8941 -0.0139 -1.0702
   80SLPC  H15B 7362   5.299   3.324   6.724  0.0925 -0.4408  1.7146
   80SLPC  H15C 7363   5.325   3.492   6.721  2.4756 -2.1547  0.9919
   80SLPC   C12 7364   5.187   3.395   6.479  0.1406  0.4570 -0.7098
   80SLPC  H12A 7365   5.210   3.290   6.483 -1.3728  0.0708 -1.3680
   80SLPC  H12B 7366   5.274   3.457   6.463  1.0572 -0.6392 -0.1067
   80SLPC   C11 7367   5.091   3.426   6.362 -0.1341 -0.0672  0.1685
   80SLPC  H11A 7368   5.142   3.409   6.264 -1.6818  2.1068 -1.0971
   80SLPC  H11B 7369   5.076   3.535   6.348 -1.0642  0.0072  1.5871
   80SLPC     P 7370   4.944   3.210   6.292  0.1797 -0.3460  0.1740
   80SLPC   O13 7371   5.052   3.128   6.336 -0.0943  0.2751 -0.0453
   80SLPC   O14 7372   4.801   3.165   6.303 -0.3332  0.1404 -0.2032
   80SLPC   O12 7373   4.966   3.349   6.371 -0.2746 -0.0728 -0.4717
   80SLPC   O11 7374   4.966   3.259   6.143  0.6890 -0.1023  0.0790
   80SLPC    C1 7375   4.853   3.256   6.052 -0.4244  0.5459 -0.3270
   80SLPC    HA 7376   4.822   3.150   6.034  1.7449  0.0179 -1.2471
   80SLPC    HB 7377   4.766   3.308   6.098 -0.9562 -0.1883 -0.4811
   80SLPC    C2 7378   4.885   3.316   5.918 -0.1954 -0.5814  0.5160
   80SLPC    HS 7379   4.789   3.333   5.863  1.1451  0.0330 -1.7883
   80SLPC   O21 7380   4.963   3.230   5.836  0.0711 -0.0579 -0.3153
   80SLPC   C21 7381   4.898   3.141   5.757  0.4174 -0.0149  0.3291
   80SLPC   O22 7382   4.775   3.119   5.762  0.5914 -0.1665  0.3489
   80SLPC   C22 7383   4.997   3.073   5.672  0.1914 -0.5711 -0.1295
   80SLPC   H2R 7384   5.092   3.129   5.664 -1.0684  1.7731  0.5111
   80SLPC   H2S 7385   5.016   2.975   5.721  1.2324 -0.9221 -1.1752
   80SLPC    C3 7386   4.946   3.457   5.923 -1.4734  0.0060  0.7269
   80SLPC    HX 7387   5.040   3.452   5.982 -1.7556  0.2899  1.2071
   80SLPC    HY 7388   4.892   3.541   5.972  0.1273  0.8667  1.0766
   80SLPC   O31 7389   4.998   3.485   5.793 -0.3622  0.0554 -0.2951
   80SLPC   C31 7390   5.099   3.561   5.773 -0.9334 -0.6759 -0.4041
   80SLPC   O32 7391   5.147   3.646   5.854  0.5565  0.4731 -0.3961
   80SLPC   C32 7392   5.173   3.528   5.647  0.0167 -0.0332  0.5473
   80SLPC   H2X 7393   5.146   3.427   5.609 -0.4507 -0.2459  1.4366
   80SLPC   H2Y 7394   5.283   3.544   5.658 -0.2398  1.5995  1.0147
   80SLPC   C23 7395   4.944   3.031   5.532  0.3155  0.4503 -0.0884
   80SLPC   H3R 7396   4.928   3.124   5.473  0.0841  2.0568  2.3273
   80SLPC   H3S 7397   4.845   2.985   5.548  1.0181 -0.7646  0.9211
   80SLPC   C24 7398   5.032   2.941   5.451  0.2805 -0.2084  0.5679
   80SLPC   H4R 7399   4.968   2.892   5.375  0.6206  0.5230 -0.2086
   80SLPC   H4S 7400   5.088   2.867   5.511  1.4594  1.2468  1.3520
   80SLPC   C25 7401   5.140   3.020   5.372 -0.5089 -0.8472  0.1752
   80SLPC   H5R 7402   5.172   3.103   5.439  0.6645 -2.7283  2.0902
   80SLPC   H5S 7403   5.097   3.072   5.284 -0.1974 -0.1007  0.4568
   80SLPC   C26 7404   5.269   2.945   5.336  0.3859 -0.0279  0.7687
   80SLPC   H6R 7405   5.312   2.892   5.423  1.1878 -0.3213  0.2108
   80SLPC   H6S 7406   5.347   3.015   5.301  0.6008 -0.6361 -0.0091
   80SLPC   C27 7407   5.249   2.858   5.215 -0.0962 -0.8155  0.0865
   80SLPC   H7R 7408   5.217   2.907   5.121 -2.5793 -2.1895  0.1309
   80SLPC   H7S 7409   5.160   2.798   5.244 -3.2272  1.2348 -4.1169
   80SLPC   C28 7410   5.375   2.766   5.186 -0.2347 -0.3204  0.2415
   80SLPC   H8R 7411   5.409   2.720   5.281  1.8105 -2.1878 -1.2819
   80SLPC   H8S 7412   5.453   2.838   5.153 -0.2903 -0.3713 -0.0030
   80SLPC   C29 7413   5.343   2.655   5.083 -0.1726  0.6047 -0.4051
   80SLPC   H9R 7414   5.295   2.569   5.131 -1.6683  2.0752  0.9016
   80SLPC  C210 7415   5.374   2.652   4.952  0.7591  0.0357  0.2039
   80SLPC  H10R 7416   5.346   2.567   4.889 -1.6961 -0.4638  1.8089
   80SLPC  C211 7417   5.470   2.746   4.883 -0.3369 -0.7189  0.8971
   80SLPC  H11R 7418   5.488   2.834   4.949 -0.1296 -1.2442  1.5564
   80SLPC  H11S 7419   5.432   2.800   4.794  3.4492  1.4676  0.3879
   80SLPC  C212 7420   5.584   2.663   4.842  0.6292 -1.0213 -0.0316
   80SLPC  H12R 7421   5.658   2.648   4.922  0.1947  2.7312  1.2543
   80SLPC  C213 7422   5.602   2.598   4.726 -0.9939 -0.0724 -0.5263
   80SLPC  H13R 7423   5.681   2.522   4.724 -1.8366 -0.9724 -2.0801
   80SLPC  C214 7424   5.529   2.598   4.594  0.4518  0.4483 -0.3404
   80SLPC  H14R 7425   5.420   2.615   4.609  0.3974 -0.9432  1.0746
   80SLPC  H14S 7426   5.524   2.498   4.547  0.2951  0.5819 -0.6084
   80SLPC  C215 7427   5.571   2.688   4.476  0.0317 -0.0162  0.1131
   80SLPC  H15R 7428   5.531   2.790   4.495  1.4828  0.4289  0.9633
   80SLPC  H15S 7429   5.518   2.661   4.382  0.7169 -0.7130 -0.0897
   80SLPC  C216 7430   5.720   2.680   4.446  0.6863  0.1231 -0.7353
   80SLPC  H16R 7431   5.776   2.720   4.533 -0.1375  0.5081 -0.3652
   80SLPC  H16S 7432   5.734   2.747   4.358 -2.8663 -0.6205 -2.0335
   80SLPC  C217 7433   5.764   2.548   4.396 -0.5281 -0.7168  0.0811
   80SLPC  H17R 7434   5.722   2.468   4.462  0.0463 -1.7826 -0.8056
   80SLPC  H17S 7435   5.872   2.549   4.421 -0.4507  2.2040 -0.0619
   80SLPC  C218 7436   5.745   2.532   4.251  0.7723  0.0852  0.4511
   80SLPC  H18R 7437   5.787   2.437   4.212  2.4174  0.4361  1.2671
   80SLPC  H18S 7438   5.796   2.615   4.198 -0.7719  0.9180  0.2134
   80SLPC  H18T 7439   5.637   2.546   4.229  1.0254  2.6681  0.5105
   80SLPC   C33 7440   5.127   3.619   5.527 -0.3137 -0.0436  0.2389
   80SLPC   H3X 7441   5.142   3.722   5.566  0.9748 -0.6002  1.3097
   80SLPC   H3Y 7442   5.022   3.599   5.499 -0.7866  1.0012  1.2068
   80SLPC   C34 7443   5.224   3.608   5.418 -0.1594  0.8633 -0.5739
   80SLPC   H4X 7444   5.328   3.611   5.457 -0.4117  1.7540  0.0841
   80SLPC   H4Y 7445   5.211   3.698   5.353 -0.4505  0.3739 -1.1947
   80SLPC   C35 7446   5.195   3.495   5.328  0.6072  0.7688  0.0342
   80SLPC   H5X 7447   5.095   3.510   5.283 -0.0431 -0.4612  0.9877
   80SLPC   H5Y 7448   5.194   3.399   5.384 -0.8467  0.4598 -0.4746
   80SLPC   C36 7449   5.285   3.474   5.204  0.1836 -0.6538 -0.0853
   80SLPC   H6X 7450   5.392   3.466   5.233  0.8770  0.5073 -2.1783
   80SLPC   H6Y 7451   5.279   3.570   5.150 -1.9636 -0.1643  0.8988
   80SLPC   C37 7452   5.233   3.365   5.108  0.8308 -0.0029  0.2645
   80SLPC   H7X 7453   5.135   3.389   5.062  1.5085 -1.6847 -2.2783
   80SLPC   H7Y 7454   5.221   3.277   5.174 -2.2304 -1.0552 -1.4726
   80SLPC   C38 7455   5.334   3.344   4.997 -0.6611 -0.0818 -0.1928
   80SLPC   H8X 7456   5.417   3.282   5.038  0.6781  0.6380 -1.6966
   80SLPC   H8Y 7457   5.372   3.445   4.968 -0.3676  0.2358  1.2540
   80SLPC   C39 7458   5.284   3.275   4.873  0.3582 -0.2480  0.6605
   80SLPC   H9X 7459   5.177   3.302   4.861  0.7038  0.7501 -0.2641
   80SLPC   H9Y 7460   5.280   3.166   4.897 -2.3434 -0.4660 -0.3806
   80SLPC  C310 7461   5.367   3.302   4.746  0.2713  0.2576  0.1319
   80SLPC  H10X 7462   5.468   3.256   4.757  0.2783  0.0747 -0.6818
   80SLPC  H10Y 7463   5.378   3.412   4.738  1.7360  0.3348  2.3773
   80SLPC  C311 7464   5.298   3.251   4.615  0.4094 -1.0457 -0.3398
   80SLPC  H11X 7465   5.356   3.288   4.527  1.2093 -1.1387  0.1354
   80SLPC  H11Y 7466   5.197   3.296   4.624  0.0915 -0.6802 -3.9995
   80SLPC  C312 7467   5.299   3.102   4.601 -0.0291 -0.0842  0.4712
   80SLPC  H12X 7468   5.257   3.057   4.693 -0.2426 -1.4468 -0.2669
   80SLPC  H12Y 7469   5.401   3.058   4.598  0.1819  0.2762  1.6594
   80SLPC  C313 7470   5.230   3.051   4.475  0.0702 -0.5519 -0.8736
   80SLPC  H13X 7471   5.277   3.081   4.380  1.3088 -0.1360 -0.1482
   80SLPC  H13Y 7472   5.124   3.086   4.480  0.4649  0.6278 -0.3603
   80SLPC  C314 7473   5.229   2.897   4.459 -0.0407  0.8174 -1.0112
   80SLPC  H14X 7474   5.200   2.848   4.554  1.7618 -0.7136 -1.1902
   80SLPC  H14Y 7475   5.328   2.850   4.442 -0.3413 -0.2458  0.0121
   80SLPC  C315 7476   5.135   2.845   4.344 -0.1711 -0.2144 -0.0309
   80SLPC  H15X 7477   5.038   2.884   4.382  0.8091  0.3791  2.0119
   80SLPC  H15Y 7478   5.115   2.735   4.343 -0.8801 -0.1056  0.5662
   80SLPC  C316 7479   5.190   2.883   4.207 -0.7875 -0.1346 -0.6336
   80SLPC  H16X 7480   5.301   2.879   4.211 -0.7784 -0.9748 -1.2217
   80SLPC  H16Y 7481   5.156   2.982   4.171 -2.3083 -0.7531 -1.0205
   80SLPC  C317 7482   5.138   2.784   4.096 -0.5076 -0.2402 -0.0762
   80SLPC  H17X 7483   5.029   2.803   4.085  0.0686  2.8752 -1.4375
   80SLPC  H17Y 7484   5.148   2.678   4.128 -0.7410  0.1911  1.5209
   80SLPC  C318 7485   5.212   2.796   3.962  0.3064 -0.2536 -0.8350
   80SLPC  H18X 7486   5.145   2.777   3.876  1.8532 -2.0989 -1.6982
   80SLPC  H18Y 7487   5.299   2.727   3.951  1.3770  1.3840 -4.4047
   80SLPC  H18Z 7488   5.258   2.896   3.946  0.0554 -0.1124 -0.6705
   81SLPC     N 7489   0.368   2.397   2.336 -0.6114  0.0991 -0.6029
   81SLPC   C13 7490   0.347   2.290   2.229 -0.7395  0.2174 -0.0582
   81SLPC  H13A 7491   0.243   2.263   2.235 -0.9031  0.8621  0.0945
   81SLPC  H13B 7492   0.360   2.321   2.126  1.6492  1.8906  0.6448
   81SLPC  H13C 7493   0.409   2.204   2.249 -1.0488 -0.2824 -1.2158
   81SLPC   C14 7494   0.295   2.518   2.298 -0.3316  1.0322  0.0461
   81SLPC  H14A 7495   0.286   2.596   2.372 -0.8658  1.6214 -0.6275
   81SLPC  H14B 7496   0.344   2.560   2.211 -1.6970  0.7522 -0.8939
   81SLPC  H14C 7497   0.194   2.488   2.273  0.6817 -1.9309 -0.9176
   81SLPC   C15 7498   0.516   2.427   2.336 -0.0910 -0.2191 -0.3606
   81SLPC  H15A 7499   0.549   2.457   2.237 -1.2212 -0.2949 -0.7820
   81SLPC  H15B 7500   0.539   2.511   2.399  3.7589  1.0765 -3.1350
   81SLPC  H15C 7501   0.570   2.344   2.379 -0.4918 -0.9303 -1.2035
   81SLPC   C12 7502   0.333   2.341   2.474  0.6320  0.0214 -0.8322
   81SLPC  H12A 7503   0.364   2.413   2.548  3.7194 -1.9937  0.0293
   81SLPC  H12B 7504   0.381   2.247   2.496 -1.1466 -0.7164  0.1175
   81SLPC   C11 7505   0.184   2.315   2.516  1.1804 -0.2875  0.3591
   81SLPC  H11A 7506   0.131   2.409   2.491  1.2578 -0.5640 -0.9548
   81SLPC  H11B 7507   0.180   2.292   2.625  0.6155 -0.3709  0.3259
   81SLPC     P 7508   0.169   2.049   2.478 -0.3234  0.6282  0.4194
   81SLPC   O13 7509   0.119   1.965   2.366 -0.5667 -0.2938 -0.3518
   81SLPC   O14 7510   0.315   2.040   2.520 -0.6122 -0.9969  0.4715
   81SLPC   O12 7511   0.131   2.202   2.445 -0.3022  0.2568  0.1279
   81SLPC   O11 7512   0.079   2.015   2.606  0.3485  0.0944 -0.8422
   81SLPC    C1 7513  -0.064   2.024   2.597 -0.0006  0.1621 -0.5722
   81SLPC    HA 7514  -0.092   2.009   2.491  2.5613  1.0959 -1.4595
   81SLPC    HB 7515  -0.116   1.953   2.664 -0.0285  0.8561  0.1632
   81SLPC    C2 7516  -0.114   2.172   2.641 -0.6210 -0.1015 -0.2246
   81SLPC    HS 7517  -0.091   2.242   2.558 -1.4868 -0.5447 -0.8487
   81SLPC   O21 7518  -0.051   2.208   2.761 -0.2864  0.2518 -0.9109
   81SLPC   C21 7519  -0.032   2.340   2.780  0.1140  0.2321  0.6188
   81SLPC   O22 7520  -0.046   2.428   2.698 -0.1062 -0.1031  0.0090
   81SLPC   C22 7521   0.002   2.364   2.930 -0.0061 -0.2263 -0.1284
   81SLPC   H2R 7522   0.097   2.422   2.935 -0.6765  0.9420 -0.7306
   81SLPC   H2S 7523  -0.081   2.421   2.975  0.8777  1.1819 -0.2215
   81SLPC    C3 7524  -0.270   2.175   2.667 -1.0226 -0.2607  1.3249
   81SLPC    HX 7525  -0.323   2.159   2.570 -0.1687 -0.1854  0.8374
   81SLPC    HY 7526  -0.298   2.280   2.692  1.3737  0.8014 -0.1202
   81SLPC   O31 7527  -0.317   2.068   2.749 -0.4592  0.2227 -0.6205
   81SLPC   C31 7528  -0.355   2.107   2.872 -0.1936 -0.1589 -0.4186
   81SLPC   O32 7529  -0.344   2.218   2.925  0.2798  0.8381  0.0870
   81SLPC   C32 7530  -0.421   1.985   2.945 -0.6039 -0.0820  0.7702
   81SLPC   H2X 7531  -0.344   1.907   2.967  1.4777  1.8392  0.6038
   81SLPC   H2Y 7532  -0.473   1.948   2.854  2.0134  1.5352 -1.5496
   81SLPC   C23 7533   0.021   2.233   3.020 -0.1360 -0.0681  0.4863
   81SLPC   H3R 7534   0.114   2.181   2.990  0.9170  1.8658  0.1849
   81SLPC   H3S 7535  -0.056   2.158   2.992 -1.0907  1.6182 -1.7223
   81SLPC   C24 7536   0.019   2.249   3.172  0.3375  0.6518  0.0792
   81SLPC   H4R 7537   0.083   2.336   3.199  1.9552 -1.1380  2.4531
   81SLPC   H4S 7538   0.050   2.152   3.217 -0.2876 -0.6721 -2.2143
   81SLPC   C25 7539  -0.119   2.290   3.228  0.0180 -0.0263 -0.2459
   81SLPC   H5R 7540  -0.173   2.194   3.246  1.9589 -0.8680  1.5816
   81SLPC   H5S 7541  -0.173   2.355   3.156 -0.1424 -1.4729 -1.4914
   81SLPC   C26 7542  -0.111   2.364   3.367 -0.1455  0.4313 -0.7351
   81SLPC   H6R 7543  -0.209   2.417   3.372 -0.8940 -0.9682  0.1029
   81SLPC   H6S 7544  -0.027   2.436   3.368 -0.6415  1.0275 -1.1643
   81SLPC   C27 7545  -0.128   2.270   3.484 -0.1406  0.0357 -0.5208
   81SLPC   H7R 7546  -0.028   2.233   3.516  1.9663  2.8691 -3.2473
   81SLPC   H7S 7547  -0.193   2.187   3.450  0.2834 -0.2023 -0.7498
   81SLPC   C28 7548  -0.206   2.329   3.607 -0.3083 -0.0170  0.2027
   81SLPC   H8R 7549  -0.192   2.255   3.689  0.1631 -0.6541 -0.4301
   81SLPC   H8S 7550  -0.313   2.348   3.582 -0.3374 -0.3280  0.0838
   81SLPC   C29 7551  -0.153   2.471   3.636  0.0815 -0.3559 -0.1205
   81SLPC   H9R 7552  -0.150   2.541   3.551  0.9912  0.5764  0.6595
   81SLPC  C210 7553  -0.116   2.521   3.755 -0.3775  0.4311  0.3132
   81SLPC  H10R 7554  -0.080   2.625   3.754  0.1088  0.2766  1.2969
   81SLPC  C211 7555  -0.111   2.460   3.891  0.5874 -0.2544 -0.6888
   81SLPC  H11R 7556  -0.007   2.455   3.927 -0.2128 -2.6085  1.6052
   81SLPC  H11S 7557  -0.142   2.354   3.896 -0.3938  0.0725  1.6304
   81SLPC  C212 7558  -0.201   2.539   3.977 -0.3561  0.0780 -0.3979
   81SLPC  H12R 7559  -0.306   2.508   3.967 -0.7665  1.8219 -2.2242
   81SLPC  C213 7560  -0.165   2.638   4.066 -0.0833  0.3615 -0.0238
   81SLPC  H13R 7561  -0.245   2.694   4.116 -2.4014 -2.0426 -0.8060
   81SLPC  C214 7562  -0.022   2.695   4.079 -0.1751  0.8981 -0.9503
   81SLPC  H14R 7563  -0.011   2.805   4.088 -3.7063  1.1870  3.2293
   81SLPC  H14S 7564   0.044   2.652   4.001  1.6777  0.2910  0.8431
   81SLPC  C215 7565   0.031   2.648   4.223 -0.5633 -1.0755  0.1493
   81SLPC  H15R 7566   0.032   2.537   4.222 -1.5869 -1.0949  0.1512
   81SLPC  H15S 7567  -0.037   2.688   4.300  0.9900  0.0069  1.0131
   81SLPC  C216 7568   0.173   2.702   4.243 -0.0800  0.3490 -0.7333
   81SLPC  H16R 7569   0.173   2.812   4.261  0.1706  0.1852  0.3438
   81SLPC  H16S 7570   0.225   2.687   4.146  0.7243  0.6030 -0.3540
   81SLPC  C217 7571   0.253   2.628   4.354 -0.0547  0.4362 -0.3193
   81SLPC  H17R 7572   0.360   2.657   4.353  0.0479  0.2443  1.6698
   81SLPC  H17S 7573   0.247   2.518   4.338  1.6578  0.3561 -0.6599
   81SLPC  C218 7574   0.192   2.654   4.493  1.1216 -0.3111 -0.1298
   81SLPC  H18R 7575   0.274   2.638   4.566 -0.2727 -0.6727  1.4205
   81SLPC  H18S 7576   0.114   2.579   4.518  1.0742 -0.5439 -0.9386
   81SLPC  H18T 7577   0.145   2.754   4.504  0.9576 -0.4487  0.4687
   81SLPC   C33 7578  -0.527   2.005   3.044 -0.3282  1.1987  0.2493
   81SLPC   H3X 7579  -0.579   1.912   3.076 -1.6804  2.9262  3.4775
   81SLPC   H3Y 7580  -0.608   2.074   3.012 -0.1940  1.4455  0.4373
   81SLPC   C34 7581  -0.468   2.059   3.178 -0.1324 -0.2622 -0.2681
   81SLPC   H4X 7582  -0.418   2.156   3.157 -0.7732 -0.3640 -2.5609
   81SLPC   H4Y 7583  -0.386   1.987   3.200 -1.0323 -1.6290 -1.1952
   81SLPC   C35 7584  -0.568   2.056   3.287 -0.1598 -0.1625 -0.0242
   81SLPC   H5X 7585  -0.617   1.956   3.285 -0.2501 -0.1368 -2.7663
   81SLPC   H5Y 7586  -0.647   2.132   3.266  1.3333  1.8044  1.1166
   81SLPC   C36 7587  -0.520   2.098   3.424 -0.4273  0.0337 -0.1621
   81SLPC   H6X 7588  -0.609   2.122   3.485 -3.4583 -1.3466 -3.6085
   81SLPC   H6Y 7589  -0.462   2.193   3.425  2.3739 -1.5286 -0.6252
   81SLPC   C37 7590  -0.461   1.985   3.501 -0.4208  0.0863 -0.5449
   81SLPC   H7X 7591  -0.364   1.958   3.455 -0.0056 -1.4412  1.0722
   81SLPC   H7Y 7592  -0.521   1.891   3.503  0.6317 -0.5972  0.0111
   81SLPC   C38 7593  -0.415   2.031   3.642  0.5242  0.3776  0.0526
   81SLPC   H8X 7594  -0.354   2.124   3.633 -1.1467  1.7374  1.8349
   81SLPC   H8Y 7595  -0.356   1.947   3.686 -1.7639 -0.4658  1.6883
   81SLPC   C39 7596  -0.527   2.048   3.747 -0.3097  0.0566  0.2223
   81SLPC   H9X 7597  -0.599   1.965   3.731  2.4218 -2.7042  1.2361
   81SLPC   H9Y 7598  -0.583   2.142   3.724  1.4712  1.7156  2.1777
   81SLPC  C310 7599  -0.470   2.050   3.888 -0.2544  0.5724 -0.6198
   81SLPC  H10X 7600  -0.407   1.960   3.900 -0.7012  0.4762  1.2342
   81SLPC  H10Y 7601  -0.546   2.055   3.969 -0.1770  1.5432 -0.5878
   81SLPC  C311 7602  -0.366   2.163   3.927  0.2889 -0.0742 -0.5284
   81SLPC  H11X 7603  -0.419   2.259   3.911 -0.4826 -0.4955 -0.5467
   81SLPC  H11Y 7604  -0.280   2.162   3.857  1.3280  1.7439  0.6497
   81SLPC  C312 7605  -0.305   2.152   4.067  0.1413  0.7897 -0.7517
   81SLPC  H12X 7606  -0.378   2.112   4.141 -0.1468  0.1513 -1.3646
   81SLPC  H12Y 7607  -0.283   2.251   4.112 -2.9714  0.1788  2.6279
   81SLPC  C313 7608  -0.176   2.069   4.066 -0.3377  0.2011 -0.7258
   81SLPC  H13X 7609  -0.098   2.112   4.000 -0.6424 -1.8371 -2.5388
   81SLPC  H13Y 7610  -0.199   1.971   4.017 -1.2019  1.5051 -3.1187
   81SLPC  C314 7611  -0.121   2.060   4.211  0.7944  0.0288  0.0928
   81SLPC  H14X 7612  -0.033   1.991   4.205  0.3119 -0.5938  0.0033
   81SLPC  H14Y 7613  -0.199   2.007   4.270  1.5540  0.3903  1.4581
   81SLPC  C315 7614  -0.081   2.185   4.288  0.7820 -0.3504  0.7229
   81SLPC  H15X 7615  -0.172   2.238   4.323 -0.2544 -3.2444  2.7309
   81SLPC  H15Y 7616  -0.033   2.262   4.222  2.1084 -0.2582  1.7484
   81SLPC  C316 7617   0.004   2.157   4.414 -0.8604 -0.0055  0.2201
   81SLPC  H16X 7618   0.093   2.094   4.392 -1.5178 -0.8506 -0.0550
   81SLPC  H16Y 7619  -0.064   2.107   4.486 -2.6385  0.8349 -0.8346
   81SLPC  C317 7620   0.040   2.293   4.477 -0.8161  0.1060  0.8427
   81SLPC  H17X 7621  -0.043   2.339   4.535  0.7918  1.4224  2.1901
   81SLPC  H17Y 7622   0.087   2.352   4.395  1.0299 -1.4567  0.7145
   81SLPC  C318 7623   0.159   2.283   4.576 -0.1638 -0.0549  0.7341
   81SLPC  H18X 7624   0.244   2.234   4.523 -1.0277  0.6050 -1.3467
   81SLPC  H18Y 7625   0.140   2.229   4.672 -1.6917 -0.8406  0.0325
   81SLPC  H18Z 7626   0.206   2.381   4.598 -0.1360 -0.0209  0.5224
   82SLPC     N 7627   1.957   5.123   2.164  1.0369  0.5832  0.5602
   82SLPC   C13 7628   1.849   5.204   2.095 -0.1183  0.5295 -0.0985
   82SLPC  H13A 7629   1.836   5.297   2.147  0.9974  0.7522 -0.1977
   82SLPC  H13B 7630   1.885   5.229   1.996 -0.2467 -2.3601 -0.9802
   82SLPC  H13C 7631   1.751   5.157   2.089  0.2096 -0.0111 -2.6470
   82SLPC   C14 7632   2.085   5.211   2.151  0.4087  0.2648 -1.1403
   82SLPC  H14A 7633   2.076   5.304   2.204 -0.2210 -0.3401 -0.1513
   82SLPC  H14B 7634   2.169   5.163   2.199 -0.1736  0.0631 -0.2927
   82SLPC  H14C 7635   2.115   5.222   2.048 -2.3206 -0.9562 -2.1761
   82SLPC   C15 7636   1.980   5.000   2.085  0.1461  0.9619  0.3319
   82SLPC  H15A 7637   2.065   4.942   2.115 -0.4686 -0.2859 -0.2723
   82SLPC  H15B 7638   1.897   4.933   2.099  0.8906  0.1938  1.1455
   82SLPC  H15C 7639   1.985   5.020   1.979  0.9013 -1.3859 -0.1210
   82SLPC   C12 7640   1.921   5.092   2.307 -0.5454  1.2397  0.3735
   82SLPC  H12A 7641   1.824   5.048   2.321 -0.3478  0.7202  0.1303
   82SLPC  H12B 7642   1.906   5.185   2.361  0.5868  1.6598 -0.0077
   82SLPC   C11 7643   2.022   4.998   2.384  0.7409  0.1939 -0.2050
   82SLPC  H11A 7644   2.037   5.029   2.489  2.0203  0.4678 -0.4533
   82SLPC  H11B 7645   2.112   5.020   2.322  1.3136  0.4492  0.7064
   82SLPC     P 7646   1.903   4.785   2.478  0.0595 -0.2810 -0.1133
   82SLPC   O13 7647   1.839   4.894   2.564  0.1973 -0.2276 -0.0333
   82SLPC   O14 7648   1.811   4.686   2.413 -0.4684  0.6119 -0.2698
   82SLPC   O12 7649   1.986   4.867   2.374  0.5878  0.4949  0.3413
   82SLPC   O11 7650   2.023   4.718   2.556 -0.3150  0.0314 -0.7330
   82SLPC    C1 7651   2.045   4.580   2.536  1.0026 -0.6306 -0.1969
   82SLPC    HA 7652   2.016   4.542   2.436  2.6837  0.8375 -1.3020
   82SLPC    HB 7653   2.154   4.576   2.560  0.7338  2.0757  1.9854
   82SLPC    C2 7654   1.967   4.492   2.639  0.4411  0.0203  0.2696
   82SLPC    HS 7655   1.864   4.481   2.598  0.9503 -0.2605 -0.9601
   82SLPC   O21 7656   1.947   4.562   2.764 -0.4777  0.4983 -0.2677
   82SLPC   C21 7657   1.822   4.539   2.823 -0.5873 -0.1509 -0.2440
   82SLPC   O22 7658   1.732   4.474   2.778  0.0993 -0.1775 -0.7098
   82SLPC   C22 7659   1.834   4.576   2.978  0.5934 -0.8454  0.3621
   82SLPC   H2R 7660   1.936   4.620   2.988 -0.2044  1.0635  0.5192
   82SLPC   H2S 7661   1.771   4.666   2.993 -1.9646 -2.6496  1.1249
   82SLPC    C3 7662   2.036   4.354   2.657  0.0863 -0.1172 -0.3838
   82SLPC    HX 7663   2.132   4.393   2.695 -0.5729  1.0391  0.1437
   82SLPC    HY 7664   2.053   4.318   2.553  1.3157 -0.7744  0.0290
   82SLPC   O31 7665   1.960   4.264   2.740 -0.1323 -0.4551 -0.0788
   82SLPC   C31 7666   1.854   4.213   2.680  0.2120  0.2363 -0.0148
   82SLPC   O32 7667   1.822   4.226   2.565 -0.3871  0.3196  0.1697
   82SLPC   C32 7668   1.761   4.147   2.778  0.4520  0.2926  0.0769
   82SLPC   H2X 7669   1.661   4.166   2.734  1.0713  2.8232 -0.3944
   82SLPC   H2Y 7670   1.762   4.207   2.872 -0.0676  0.3778  0.0297
   82SLPC   C23 7671   1.813   4.445   3.065  0.5521 -0.6311  0.9434
   82SLPC   H3R 7672   1.886   4.373   3.023 -0.4095 -0.6180 -0.8467
   82SLPC   H3S 7673   1.712   4.401   3.054  0.5876 -0.1822 -2.1431
   82SLPC   C24 7674   1.843   4.472   3.217 -0.1230  0.2395  0.0733
   82SLPC   H4R 7675   1.933   4.535   3.236 -0.3103  0.5408 -0.0240
   82SLPC   H4S 7676   1.861   4.368   3.251 -2.1398 -0.3688 -0.6091
   82SLPC   C25 7677   1.720   4.522   3.295  0.5065  0.9633  0.3179
   82SLPC   H5R 7678   1.646   4.439   3.293 -0.8549  2.0652  2.0513
   82SLPC   H5S 7679   1.681   4.621   3.264  1.1387  1.3225  0.6699
   82SLPC   C26 7680   1.751   4.541   3.446 -0.0796 -0.0231 -0.3489
   82SLPC   H6R 7681   1.783   4.642   3.480  0.4155 -0.3997  0.3270
   82SLPC   H6S 7682   1.839   4.480   3.476  0.5117  0.9469 -0.0528
   82SLPC   C27 7683   1.623   4.508   3.535  0.6764 -0.3584 -0.2756
   82SLPC   H7R 7684   1.561   4.447   3.465  0.0098  1.7758 -1.6537
   82SLPC   H7S 7685   1.571   4.599   3.570  0.1712  0.1524 -2.2262
   82SLPC   C28 7686   1.664   4.422   3.662 -0.4985 -0.0576 -0.5887
   82SLPC   H8R 7687   1.733   4.341   3.634  0.0226  0.8785 -2.1507
   82SLPC   H8S 7688   1.571   4.372   3.698 -0.2591 -0.9352 -1.1869
   82SLPC   C29 7689   1.729   4.493   3.780 -0.0726  0.3816  0.6574
   82SLPC   H9R 7690   1.720   4.602   3.781  3.0263  0.7848 -1.2827
   82SLPC  C210 7691   1.796   4.433   3.882  0.3964 -0.3558 -0.4051
   82SLPC  H10R 7692   1.845   4.495   3.959  0.6130  0.0627 -0.8683
   82SLPC  C211 7693   1.834   4.288   3.890  0.0461 -0.0209  0.2006
   82SLPC  H11R 7694   1.902   4.267   3.805  0.0500  2.2533 -0.4164
   82SLPC  H11S 7695   1.743   4.223   3.890  1.5090 -2.2034  0.7607
   82SLPC  C212 7696   1.908   4.262   4.026  1.0144 -0.1775  0.2455
   82SLPC  H12R 7697   2.015   4.241   4.016  0.7538 -0.6099 -2.2803
   82SLPC  C213 7698   1.853   4.270   4.150 -0.2234  0.0285  0.8921
   82SLPC  H13R 7699   1.913   4.246   4.239 -1.3573 -2.8905  0.9870
   82SLPC  C214 7700   1.702   4.270   4.187  0.5623  1.3087  0.2969
   82SLPC  H14R 7701   1.663   4.204   4.268  1.2450 -1.3012 -1.3648
   82SLPC  H14S 7702   1.646   4.221   4.104  0.2319  3.3331 -0.7330
   82SLPC  C215 7703   1.653   4.415   4.213  0.2876 -0.0189  0.4618
   82SLPC  H15R 7704   1.700   4.494   4.150 -1.6901  1.3074  0.5871
   82SLPC  H15S 7705   1.672   4.433   4.321 -1.1492 -0.8292  0.8727
   82SLPC  C216 7706   1.507   4.431   4.192 -0.4507  0.1205  0.2226
   82SLPC  H16R 7707   1.444   4.346   4.228 -0.4059 -0.2626 -0.5839
   82SLPC  H16S 7708   1.497   4.426   4.081  0.6126  0.0627  0.1208
   82SLPC  C217 7709   1.449   4.557   4.260  0.5505  0.2636  0.0645
   82SLPC  H17R 7710   1.512   4.642   4.227 -0.6931  1.8773  1.6401
   82SLPC  H17S 7711   1.454   4.562   4.370 -1.1648 -0.3421  0.2107
   82SLPC  C218 7712   1.302   4.596   4.219 -0.5552 -0.2240 -0.3227
   82SLPC  H18R 7713   1.224   4.563   4.290 -0.2097  1.2678  0.8154
   82SLPC  H18S 7714   1.283   4.562   4.115  1.2297  1.8887 -1.4508
   82SLPC  H18T 7715   1.292   4.706   4.206 -0.3377 -0.0045  1.1813
   82SLPC   C33 7716   1.802   4.001   2.814 -0.9136 -0.2303  0.0889
   82SLPC   H3X 7717   1.912   3.990   2.827 -0.6655  0.1268 -1.5403
   82SLPC   H3Y 7718   1.767   3.940   2.728 -2.4873  0.0903  0.4625
   82SLPC   C34 7719   1.741   3.947   2.950 -0.3091  0.0120 -0.5466
   82SLPC   H4X 7720   1.753   3.837   2.959  0.3832  0.0476 -0.9808
   82SLPC   H4Y 7721   1.631   3.962   2.944 -0.2069  0.5621 -1.1448
   82SLPC   C35 7722   1.799   4.021   3.074 -0.1260  0.0498  0.4566
   82SLPC   H5X 7723   1.764   4.125   3.062 -1.4021 -0.4178 -0.0967
   82SLPC   H5Y 7724   1.909   4.021   3.061  0.0274 -2.4510  1.1291
   82SLPC   C36 7725   1.750   3.965   3.209  0.3891 -0.3456 -0.2378
   82SLPC   H6X 7726   1.776   3.857   3.215 -0.4643 -0.6266 -1.3863
   82SLPC   H6Y 7727   1.640   3.965   3.192  0.6296 -0.8154 -1.9776
   82SLPC   C37 7728   1.791   4.032   3.341 -0.8404 -0.0373 -0.2735
   82SLPC   H7X 7729   1.733   4.122   3.371  0.1588  0.0826  1.4339
   82SLPC   H7Y 7730   1.898   4.056   3.324 -0.6114 -0.5640  0.3675
   82SLPC   C38 7731   1.785   3.938   3.462 -0.2983  0.1131  0.3229
   82SLPC   H8X 7732   1.863   3.861   3.444 -1.0539 -0.7755  0.7486
   82SLPC   H8Y 7733   1.687   3.885   3.454  0.0947 -0.6677  0.6199
   82SLPC   C39 7734   1.794   4.005   3.599  0.2510 -0.0980 -0.0530
   82SLPC   H9X 7735   1.711   4.073   3.624  0.1692 -0.4842  0.7708
   82SLPC   H9Y 7736   1.887   4.066   3.608 -0.0681  0.2915  0.7288
   82SLPC  C310 7737   1.800   3.891   3.701  0.0089  0.2617  0.5231
   82SLPC  H10X 7738   1.873   3.811   3.677 -1.3469 -1.5246  2.0588
   82SLPC  H10Y 7739   1.698   3.847   3.707  0.7033 -1.3459  1.1072
   82SLPC  C311 7740   1.809   3.947   3.847 -0.2637  0.2474  0.4520
   82SLPC  H11X 7741   1.720   4.014   3.858 -1.3197 -1.0840  0.2586
   82SLPC  H11Y 7742   1.902   4.006   3.861 -1.1394  1.9140 -0.4247
   82SLPC  C312 7743   1.802   3.849   3.955  0.4392  0.6774  0.1338
   82SLPC  H12X 7744   1.884   3.775   3.964  1.7799  1.8600 -1.6814
   82SLPC  H12Y 7745   1.708   3.793   3.942 -0.2713  1.2493  2.3144
   82SLPC  C313 7746   1.794   3.922   4.089  0.2664  0.2409  0.3388
   82SLPC  H13X 7747   1.715   4.001   4.088 -0.2118 -0.0577  3.7040
   82SLPC  H13Y 7748   1.898   3.961   4.101  1.0423 -2.0226  1.3792
   82SLPC  C314 7749   1.759   3.833   4.209 -0.3402  0.0288  0.1440
   82SLPC  H14X 7750   1.661   3.781   4.199 -1.2636  1.7574 -0.1274
   82SLPC  H14Y 7751   1.746   3.901   4.295  0.2839 -0.3369  0.5293
   82SLPC  C315 7752   1.877   3.731   4.239  0.6125 -0.0164  0.2321
   82SLPC  H15X 7753   1.968   3.788   4.215  0.0155  1.7177  1.8325
   82SLPC  H15Y 7754   1.872   3.653   4.160  0.3202  1.4480 -1.2504
   82SLPC  C316 7755   1.886   3.676   4.375  0.2222 -0.8905  0.1768
   82SLPC  H16X 7756   1.803   3.607   4.400 -1.0075  0.5731  0.2664
   82SLPC  H16Y 7757   1.879   3.763   4.444  1.2630 -0.2128 -0.5369
   82SLPC  C317 7758   2.017   3.612   4.394  0.4271 -0.0506 -0.5697
   82SLPC  H17X 7759   2.027   3.573   4.498 -3.6440  0.6747  0.2890
   82SLPC  H17Y 7760   2.099   3.686   4.390  1.5153 -1.1395  0.7457
   82SLPC  C318 7761   2.052   3.498   4.302  1.3535  1.0329  0.0647
   82SLPC  H18X 7762   2.100   3.412   4.353  0.7271  0.6531  0.0263
   82SLPC  H18Y 7763   2.120   3.534   4.223  0.4875  0.5903 -0.9027
   82SLPC  H18Z 7764   1.953   3.470   4.260  1.7080  1.6068 -1.1699
   83SLPC     N 7765   4.975   3.499   2.277  0.0686 -0.0512  0.7391
   83SLPC   C13 7766   5.107   3.524   2.343 -0.8171 -0.3866  0.1116
   83SLPC  H13A 7767   5.115   3.485   2.443  1.6004  0.8503  0.4889
   83SLPC  H13B 7768   5.198   3.499   2.290 -0.7699 -0.9456  0.4522
   83SLPC  H13C 7769   5.126   3.630   2.353 -0.4829 -0.2810 -1.3693
   83SLPC   C14 7770   4.965   3.582   2.152 -0.5536 -1.0578  0.2796
   83SLPC  H14A 7771   4.977   3.687   2.174 -0.5935 -1.1282  0.6297
   83SLPC  H14B 7772   5.023   3.560   2.063  1.4862  1.9120  0.7018
   83SLPC  H14C 7773   4.867   3.586   2.106 -0.6598  3.9560  0.3467
   83SLPC   C15 7774   4.877   3.539   2.379  0.5067 -0.7762  0.1409
   83SLPC  H15A 7775   4.888   3.479   2.469 -1.7371  0.5379  1.3785
   83SLPC  H15B 7776   4.883   3.645   2.401  2.3921 -0.6425 -0.8448
   83SLPC  H15C 7777   4.778   3.540   2.336  0.9378  1.0639 -0.9313
   83SLPC   C12 7778   4.948   3.356   2.233  0.0273 -0.7727  0.4070
   83SLPC  H12A 7779   5.024   3.322   2.164 -0.2027 -0.7255  0.1332
   83SLPC  H12B 7780   4.855   3.351   2.180 -0.9713  0.6443  1.9283
   83SLPC   C11 7781   4.936   3.258   2.346  0.1195 -0.6826 -0.0560
   83SLPC  H11A 7782   4.843   3.268   2.407 -0.4767 -0.0063 -1.0443
   83SLPC  H11B 7783   5.015   3.263   2.423 -2.6617  0.8936  2.9453
   83SLPC     P 7784   4.816   3.056   2.261 -0.7521  0.1612 -0.0918
   83SLPC   O13 7785   4.729   3.147   2.193  0.1505 -0.4333 -0.0188
   83SLPC   O14 7786   4.840   2.932   2.183  0.1747  0.6292  0.0379
   83SLPC   O12 7787   4.948   3.129   2.282 -0.7736 -0.4794  0.3311
   83SLPC   O11 7788   4.768   3.025   2.411  0.1483 -0.5117 -0.1176
   83SLPC    C1 7789   4.814   2.908   2.478 -0.8902 -0.4837  0.5396
   83SLPC    HA 7790   4.776   2.815   2.430  0.2895 -0.2797 -0.8685
   83SLPC    HB 7791   4.925   2.906   2.486 -0.7265  0.2556 -1.1404
   83SLPC    C2 7792   4.768   2.903   2.629  0.2287 -0.4869  0.4840
   83SLPC    HS 7793   4.812   2.810   2.671  0.1132 -0.7390  0.0587
   83SLPC   O21 7794   4.627   2.899   2.634  0.5570 -0.0406 -0.2629
   83SLPC   C21 7795   4.573   2.785   2.614 -0.0268  0.3891 -0.2956
   83SLPC   O22 7796   4.633   2.686   2.575  0.4933  0.3997 -0.3130
   83SLPC   C22 7797   4.425   2.790   2.640 -0.0446  0.5479 -0.2115
   83SLPC   H2R 7798   4.383   2.890   2.665 -1.6247 -0.2863  0.6295
   83SLPC   H2S 7799   4.379   2.780   2.539  1.2401 -1.3114 -0.6640
   83SLPC    C3 7800   4.816   3.022   2.717 -0.0939 -0.4188 -0.3275
   83SLPC    HX 7801   4.753   3.111   2.694  0.6555 -0.1609 -1.4951
   83SLPC    HY 7802   4.921   3.041   2.684 -0.1394  0.3525 -0.0448
   83SLPC   O31 7803   4.817   2.984   2.854  0.1806  0.1734  0.0031
   83SLPC   C31 7804   4.698   3.004   2.919 -0.0374 -0.8172 -0.6699
   83SLPC   O32 7805   4.601   3.062   2.873 -1.2082  0.1468 -0.3287
   83SLPC   C32 7806   4.703   2.918   3.050  0.3308 -0.2194  0.5055
   83SLPC   H2X 7807   4.800   2.933   3.102  0.1619  0.7900  0.5383
   83SLPC   H2Y 7808   4.693   2.814   3.012 -2.4602  0.0124  0.3942
   83SLPC   C23 7809   4.370   2.682   2.736  0.6626  0.8784  0.4468
   83SLPC   H3R 7810   4.426   2.591   2.707  0.2189  0.8652 -0.3868
   83SLPC   H3S 7811   4.260   2.675   2.720  0.7872 -0.0867 -0.0555
   83SLPC   C24 7812   4.405   2.704   2.887 -0.0960  0.0500 -0.3525
   83SLPC   H4R 7813   4.339   2.789   2.916 -0.4518 -0.8278  1.5949
   83SLPC   H4S 7814   4.511   2.737   2.891  1.3782 -4.1199  0.4435
   83SLPC   C25 7815   4.392   2.581   2.977  0.6050  0.0820 -0.0344
   83SLPC   H5R 7816   4.461   2.500   2.945  1.0905  0.1723  0.7556
   83SLPC   H5S 7817   4.297   2.533   2.945  1.0511  0.4935 -2.0739
   83SLPC   C26 7818   4.381   2.612   3.126 -0.0550  0.0969 -0.0013
   83SLPC   H6R 7819   4.311   2.697   3.143 -0.7382 -0.2920 -0.7725
   83SLPC   H6S 7820   4.483   2.643   3.157  0.5316 -1.0452 -0.7306
   83SLPC   C27 7821   4.328   2.493   3.218  0.3089 -0.7377  0.7389
   83SLPC   H7R 7822   4.367   2.398   3.174 -1.7330 -1.2959  0.0531
   83SLPC   H7S 7823   4.221   2.487   3.189  0.0558 -2.6413  1.8930
   83SLPC   C28 7824   4.334   2.517   3.366 -0.5854  0.1623  0.1297
   83SLPC   H8R 7825   4.260   2.452   3.418 -0.5068  0.1605  0.2394
   83SLPC   H8S 7826   4.314   2.624   3.390 -0.9347  0.2319 -0.4415
   83SLPC   C29 7827   4.478   2.488   3.404  0.5018 -0.0955  0.2236
   83SLPC   H9R 7828   4.554   2.536   3.341  0.0852  0.9651  0.5141
   83SLPC  C210 7829   4.516   2.404   3.500 -0.0603 -0.1357  0.1906
   83SLPC  H10R 7830   4.624   2.397   3.521 -0.4584 -0.7733  2.2016
   83SLPC  C211 7831   4.435   2.326   3.600  0.2752  0.5772 -0.1453
   83SLPC  H11R 7832   4.436   2.223   3.560  0.1724  0.8794 -0.9409
   83SLPC  H11S 7833   4.329   2.357   3.616  0.5059  0.6353  1.4596
   83SLPC  C212 7834   4.495   2.312   3.738  0.5578  0.0202 -0.6999
   83SLPC  H12R 7835   4.549   2.218   3.755  0.8461 -0.3003 -3.1193
   83SLPC  C213 7836   4.490   2.412   3.831 -0.1263  0.5359 -0.3172
   83SLPC  H13R 7837   4.533   2.404   3.932  1.5671  0.6602 -0.9811
   83SLPC  C214 7838   4.430   2.546   3.807  0.3885 -0.3073 -0.1145
   83SLPC  H14R 7839   4.395   2.552   3.701 -0.8818  0.6782  0.3298
   83SLPC  H14S 7840   4.507   2.625   3.803  0.6300 -0.5212  0.2142
   83SLPC  C215 7841   4.325   2.588   3.918 -0.2345 -0.3201  0.1020
   83SLPC  H15R 7842   4.240   2.518   3.901  1.2663 -1.8950 -1.2638
   83SLPC  H15S 7843   4.290   2.690   3.895  0.3968 -0.2731 -0.6579
   83SLPC  C216 7844   4.369   2.560   4.067  0.4421  0.1811  0.6043
   83SLPC  H16R 7845   4.476   2.590   4.074  1.0869 -1.6751 -0.5594
   83SLPC  H16S 7846   4.343   2.454   4.090  1.1206 -0.3669 -1.0251
   83SLPC  C217 7847   4.305   2.650   4.172 -0.1965 -0.1243  0.0553
   83SLPC  H17R 7848   4.197   2.625   4.177 -0.3052  0.2226 -0.5438
   83SLPC  H17S 7849   4.317   2.754   4.134  0.9935  0.0613  0.8572
   83SLPC  C218 7850   4.367   2.622   4.312  0.1470  0.7476 -0.1246
   83SLPC  H18R 7851   4.478   2.625   4.316  0.4524 -3.1171 -1.2782
   83SLPC  H18S 7852   4.338   2.520   4.345 -2.8505  2.1466  1.9645
   83SLPC  H18T 7853   4.332   2.687   4.394  0.6027  0.8749 -0.0315
   83SLPC   C33 7854   4.578   2.955   3.135 -0.2815 -0.4803 -0.7569
   83SLPC   H3X 7855   4.486   2.914   3.088 -0.1197  0.0628 -1.5648
   83SLPC   H3Y 7856   4.562   3.064   3.145 -0.4237 -0.6950  2.4803
   83SLPC   C34 7857   4.608   2.898   3.269  0.3698  0.0363 -0.3245
   83SLPC   H4X 7858   4.699   2.954   3.300 -0.5799  1.0654  0.7236
   83SLPC   H4Y 7859   4.651   2.796   3.257  0.9103  0.1359  0.6383
   83SLPC   C35 7860   4.490   2.926   3.361  0.2444 -0.4690 -0.6893
   83SLPC   H5X 7861   4.403   2.863   3.334  0.8066 -0.2001 -3.4175
   83SLPC   H5Y 7862   4.451   3.030   3.352 -1.9679 -1.0672  1.1494
   83SLPC   C36 7863   4.533   2.902   3.513  0.1257  0.0629  0.8078
   83SLPC   H6X 7864   4.588   2.996   3.535 -0.2372  0.1135  1.5497
   83SLPC   H6Y 7865   4.606   2.818   3.516 -0.6967 -0.6671  0.6827
   83SLPC   C37 7866   4.414   2.903   3.608 -0.0145  1.1031  0.3093
   83SLPC   H7X 7867   4.357   2.807   3.601  1.1266  0.4545 -0.3697
   83SLPC   H7Y 7868   4.352   2.982   3.560  1.9410  2.1947 -0.5185
   83SLPC   C38 7869   4.448   2.915   3.760  0.3335  0.0631  0.3752
   83SLPC   H8X 7870   4.550   2.958   3.753  1.1052 -1.7835 -0.2280
   83SLPC   H8Y 7871   4.425   2.818   3.808  0.9150 -0.2087  0.1025
   83SLPC   C39 7872   4.371   3.037   3.821  1.0695 -0.0126 -0.7580
   83SLPC   H9X 7873   4.261   3.024   3.817  0.6281  0.9066  3.3263
   83SLPC   H9Y 7874   4.405   3.133   3.776  1.1439 -0.3095 -1.3405
   83SLPC  C310 7875   4.400   3.055   3.973 -0.2158 -0.2065 -0.0340
   83SLPC  H10X 7876   4.504   3.093   3.974 -0.2049 -0.2364 -0.0113
   83SLPC  H10Y 7877   4.400   2.954   4.019  1.1626 -0.2919 -0.1810
   83SLPC  C311 7878   4.314   3.144   4.054  0.7246  0.3978 -0.0064
   83SLPC  H11X 7879   4.215   3.095   4.064  0.4224  0.6369 -1.6413
   83SLPC  H11Y 7880   4.296   3.242   4.006 -0.0892  0.5182  0.5283
   83SLPC  C312 7881   4.370   3.163   4.197 -0.0081  0.5856  0.2092
   83SLPC  H12X 7882   4.472   3.203   4.179 -1.0817  2.7262 -1.7463
   83SLPC  H12Y 7883   4.369   3.062   4.243  0.7773 -0.6295 -2.2785
   83SLPC  C313 7884   4.298   3.265   4.290 -0.6315 -0.2536  0.5436
   83SLPC  H13X 7885   4.190   3.250   4.273 -0.0691 -3.4569 -1.0262
   83SLPC  H13Y 7886   4.327   3.368   4.258  2.3637 -0.6582  1.5850
   83SLPC  C314 7887   4.326   3.255   4.442  0.2869  0.0938  0.0693
   83SLPC  H14X 7888   4.424   3.304   4.464  0.0964  0.3413  0.3681
   83SLPC  H14Y 7889   4.326   3.149   4.473 -1.9112  0.4152  1.3891
   83SLPC  C315 7890   4.211   3.310   4.538  0.0624 -0.5861  0.2689
   83SLPC  H15X 7891   4.253   3.314   4.641 -0.0701 -0.5714  0.3219
   83SLPC  H15Y 7892   4.125   3.241   4.542 -0.4142 -0.0489 -0.5436
   83SLPC  C316 7893   4.175   3.462   4.517  0.1412  1.0454 -0.1699
   83SLPC  H16X 7894   4.084   3.464   4.453 -0.4576  1.6031  0.6849
   83SLPC  H16Y 7895   4.248   3.509   4.447 -0.3609  0.5678 -1.0317
   83SLPC  C317 7896   4.142   3.528   4.651  0.3738  0.2437 -0.5735
   83SLPC  H17X 7897   4.238   3.511   4.704  0.0936 -0.9825 -0.4247
   83SLPC  H17Y 7898   4.064   3.477   4.713 -0.2494  1.1424 -0.5937
   83SLPC  C318 7899   4.113   3.683   4.652  0.0233 -0.1883  0.0739
   83SLPC  H18X 7900   4.008   3.713   4.637  0.2353  0.7944  0.4690
   83SLPC  H18Y 7901   4.179   3.731   4.576 -2.2240  5.4489  1.1971
   83SLPC  H18Z 7902   4.149   3.723   4.750  0.8663  0.5986 -0.5479
   84SLPC     N 7903   4.000   6.101   2.230 -0.0911  0.6258  0.2644
   84SLPC   C13 7904   4.076   6.189   2.135  0.5229 -0.1109 -0.7179
   84SLPC  H13A 7905   4.134   6.264   2.188  1.1763  1.9688 -4.0429
   84SLPC  H13B 7906   4.153   6.132   2.085  0.5535 -0.4385 -0.2981
   84SLPC  H13C 7907   4.006   6.226   2.062  0.4656 -0.0789 -0.6462
   84SLPC   C14 7908   4.093   6.018   2.311 -0.5568 -0.1897 -0.6566
   84SLPC  H14A 7909   4.023   5.944   2.348 -0.7050  0.1113 -0.3303
   84SLPC  H14B 7910   4.176   5.971   2.261 -0.6333 -1.3581  0.2735
   84SLPC  H14C 7911   4.119   6.079   2.395  0.9778  0.4197 -1.5408
   84SLPC   C15 7912   3.940   6.006   2.129 -0.1348  0.2666 -0.4448
   84SLPC  H15A 7913   3.850   6.048   2.089  0.9648  3.3440  0.0804
   84SLPC  H15B 7914   4.002   5.975   2.046  0.7280  0.2939  0.1771
   84SLPC  H15C 7915   3.909   5.912   2.173  1.0592 -0.6613 -1.4899
   84SLPC   C12 7916   3.893   6.175   2.310 -0.5069  0.4132 -0.0750
   84SLPC  H12A 7917   3.944   6.258   2.359 -0.2413  1.7711 -2.5004
   84SLPC  H12B 7918   3.857   6.115   2.392  1.2220  0.4912  0.7800
   84SLPC   C11 7919   3.764   6.237   2.243 -0.2286 -0.2159 -0.4205
   84SLPC  H11A 7920   3.783   6.308   2.159  0.8275 -0.9771 -0.8409
   84SLPC  H11B 7921   3.727   6.306   2.323 -0.1828 -1.4073  0.6537
   84SLPC     P 7922   3.561   6.086   2.296 -0.2057  0.0955 -0.0338
   84SLPC   O13 7923   3.487   6.207   2.338 -0.3873  0.2718  0.0866
   84SLPC   O14 7924   3.472   5.985   2.233  0.1489  0.5033 -0.2676
   84SLPC   O12 7925   3.672   6.137   2.197  0.5152 -0.1284  0.4981
   84SLPC   O11 7926   3.638   6.036   2.423  0.5357  0.1097 -0.6118
   84SLPC    C1 7927   3.696   5.908   2.443 -0.1252  0.5436 -0.2485
   84SLPC    HA 7928   3.611   5.837   2.452 -0.5897  0.9845 -1.0614
   84SLPC    HB 7929   3.747   5.874   2.351  1.8289 -2.1923  1.6574
   84SLPC    C2 7930   3.793   5.898   2.559 -0.3414 -0.0377 -0.6182
   84SLPC    HS 7931   3.718   5.894   2.641 -0.5386 -1.0357 -0.8254
   84SLPC   O21 7932   3.877   6.019   2.567 -0.2892  0.5081 -0.3689
   84SLPC   C21 7933   3.920   6.048   2.689  0.0545  0.8726  1.0651
   84SLPC   O22 7934   3.894   5.978   2.786  0.4531  0.1179 -0.1310
   84SLPC   C22 7935   4.010   6.166   2.687 -0.3914 -0.9463 -1.4594
   84SLPC   H2R 7936   4.114   6.130   2.672  0.1582 -0.1220  0.1058
   84SLPC   H2S 7937   3.991   6.227   2.596 -0.5750  0.9135 -0.2421
   84SLPC    C3 7938   3.877   5.765   2.548 -0.0732  0.6127 -0.0939
   84SLPC    HX 7939   3.961   5.792   2.481  1.1362  0.2947  1.2736
   84SLPC    HY 7940   3.816   5.689   2.493  0.0607  1.0815 -0.9155
   84SLPC   O31 7941   3.929   5.709   2.670 -0.0288  0.2871 -0.0240
   84SLPC   C31 7942   3.832   5.683   2.755  0.0001 -0.0542 -0.4333
   84SLPC   O32 7943   3.713   5.694   2.735 -0.1758 -0.6028  0.3786
   84SLPC   C32 7944   3.884   5.660   2.898 -0.7430 -0.1189  0.4950
   84SLPC   H2X 7945   3.880   5.754   2.957  0.2921 -0.1814  0.6772
   84SLPC   H2Y 7946   3.991   5.632   2.899 -0.8961 -0.7833 -0.2275
   84SLPC   C23 7947   4.008   6.262   2.809  0.0582  0.5888 -0.1116
   84SLPC   H3R 7948   4.023   6.211   2.906 -0.8779  0.4166 -0.0579
   84SLPC   H3S 7949   3.903   6.298   2.809 -0.2483 -0.1502 -2.2692
   84SLPC   C24 7950   4.098   6.380   2.815 -0.4595  0.4520 -0.4331
   84SLPC   H4R 7951   4.079   6.415   2.712 -3.2439  1.3836  0.2972
   84SLPC   H4S 7952   4.200   6.351   2.846 -0.7475  0.3227  0.4193
   84SLPC   C25 7953   4.036   6.467   2.921 -1.1155  0.0687  0.4694
   84SLPC   H5R 7954   4.028   6.426   3.024  0.6049 -1.7808 -0.0700
   84SLPC   H5S 7955   3.932   6.494   2.890 -1.2086 -0.6330  0.1333
   84SLPC   C26 7956   4.120   6.599   2.935  0.4055 -0.3313 -0.3163
   84SLPC   H6R 7957   4.127   6.647   2.834 -0.0873 -0.4566 -0.4122
   84SLPC   H6S 7958   4.218   6.584   2.986 -0.5113 -0.4481  1.4857
   84SLPC   C27 7959   4.027   6.700   3.003 -0.2928  0.0807  0.5471
   84SLPC   H7R 7960   3.991   6.657   3.099  2.9903  0.4911  2.1157
   84SLPC   H7S 7961   3.938   6.722   2.940 -1.7824  2.1435  3.1798
   84SLPC   C28 7962   4.091   6.841   3.010  0.1192  0.0099 -0.4109
   84SLPC   H8R 7963   4.013   6.915   3.040 -0.8144 -1.3278  0.6156
   84SLPC   H8S 7964   4.121   6.873   2.908 -1.1620  0.8025 -0.5646
   84SLPC   C29 7965   4.214   6.837   3.101 -0.8260  0.2573  0.3143
   84SLPC   H9R 7966   4.304   6.789   3.060 -0.7151  0.5568  0.2068
   84SLPC  C210 7967   4.226   6.882   3.226  0.4056  0.0576  0.2734
   84SLPC  H10R 7968   4.327   6.881   3.270  1.4981  3.0599 -1.8029
   84SLPC  C211 7969   4.119   6.928   3.314  0.3411  0.0173  0.2263
   84SLPC  H11R 7970   4.024   6.927   3.256  0.6597  2.6082 -0.4893
   84SLPC  H11S 7971   4.134   7.036   3.339  1.7440 -0.2090  0.4170
   84SLPC  C212 7972   4.111   6.856   3.441 -0.5791  1.0324 -0.0379
   84SLPC  H12R 7973   4.048   6.766   3.439  0.2277  0.3501  2.4180
   84SLPC  C213 7974   4.172   6.878   3.561 -0.1654 -1.0009 -0.0251
   84SLPC  H13R 7975   4.153   6.814   3.648  1.6787 -0.8765  0.5235
   84SLPC  C214 7976   4.248   6.999   3.595  0.4752 -0.2414 -0.1859
   84SLPC  H14R 7977   4.195   7.080   3.540 -0.4723  1.2398  2.7075
   84SLPC  H14S 7978   4.352   6.988   3.559  1.2749  3.2198  0.7329
   84SLPC  C215 7979   4.247   7.042   3.742 -0.2924  0.0982  0.3543
   84SLPC  H15R 7980   4.142   7.049   3.775 -0.1311  2.3095  0.5508
   84SLPC  H15S 7981   4.302   7.139   3.747  0.6119 -0.3500 -0.4878
   84SLPC  C216 7982   4.324   6.955   3.843  0.5360 -0.0666 -0.4935
   84SLPC  H16R 7983   4.429   6.935   3.812 -0.2149 -1.3755 -2.3876
   84SLPC  H16S 7984   4.272   6.856   3.847 -1.6753  1.0827  2.1342
   84SLPC  C217 7985   4.324   7.026   3.981  0.0837 -0.0873  0.3623
   84SLPC  H17R 7986   4.218   7.054   3.997 -0.0266 -0.2514 -0.0632
   84SLPC  H17S 7987   4.385   7.118   3.966 -0.9106  0.5454  0.1626
   84SLPC  C218 7988   4.368   6.944   4.098 -0.3481 -0.2479 -0.8515
   84SLPC  H18R 7989   4.370   7.007   4.189  0.4658 -1.4539  0.0064
   84SLPC  H18S 7990   4.467   6.894   4.083  0.7058  2.2167 -2.8035
   84SLPC  H18T 7991   4.299   6.858   4.112  0.0767 -0.9550 -2.7723
   84SLPC   C33 7992   3.806   5.539   2.957  0.2603  0.3645 -0.5894
   84SLPC   H3X 7993   3.830   5.442   2.908  0.6988  0.1423  0.0592
   84SLPC   H3Y 7994   3.698   5.564   2.953  0.4338  1.1088 -0.8283
   84SLPC   C34 7995   3.837   5.524   3.105  0.0588 -0.0239  0.1499
   84SLPC   H4X 7996   3.835   5.623   3.154  1.6908  0.3551 -0.4806
   84SLPC   H4Y 7997   3.932   5.471   3.129 -0.1367 -0.6606 -0.4618
   84SLPC   C35 7998   3.726   5.439   3.176 -0.4488  0.2340 -0.6013
   84SLPC   H5X 7999   3.713   5.346   3.115  2.2881  0.1796 -1.2599
   84SLPC   H5Y 8000   3.629   5.493   3.175 -0.5870 -0.0107 -0.8648
   84SLPC   C36 8001   3.751   5.415   3.327  0.1144 -0.3758 -0.0193
   84SLPC   H6X 8002   3.771   5.512   3.378  4.6845  0.0776 -2.1768
   84SLPC   H6Y 8003   3.837   5.348   3.352 -1.1147 -2.1761 -0.4613
   84SLPC   C37 8004   3.625   5.353   3.390  0.3184 -0.0075  0.0705
   84SLPC   H7X 8005   3.598   5.256   3.343 -2.0968  0.9192 -0.5942
   84SLPC   H7Y 8006   3.532   5.411   3.375  1.1419  1.4143  0.2114
   84SLPC   C38 8007   3.649   5.324   3.540  0.3018 -0.5363  0.0314
   84SLPC   H8X 8008   3.698   5.409   3.593  0.1560 -0.9368  0.8263
   84SLPC   H8Y 8009   3.722   5.240   3.551  1.5835  0.2641 -1.8382
   84SLPC   C39 8010   3.528   5.279   3.617  0.0272 -0.2630 -0.6514
   84SLPC   H9X 8011   3.493   5.179   3.583  0.6148 -0.6755 -0.0767
   84SLPC   H9Y 8012   3.456   5.360   3.593 -1.1496 -0.5793  1.6105
   84SLPC  C310 8013   3.549   5.273   3.773 -0.2718 -0.3059  0.5836
   84SLPC  H10X 8014   3.603   5.369   3.786  1.3180 -1.1537  0.4020
   84SLPC  H10Y 8015   3.593   5.177   3.804 -0.6898 -0.2968  1.2271
   84SLPC  C311 8016   3.415   5.303   3.845  0.2736  0.1569  0.7026
   84SLPC  H11X 8017   3.337   5.227   3.820 -0.7114  0.4215  2.8010
   84SLPC  H11Y 8018   3.368   5.393   3.801 -1.1999 -0.1281  1.6432
   84SLPC  C312 8019   3.408   5.295   3.992  0.0242 -0.8921  0.4455
   84SLPC  H12X 8020   3.312   5.311   4.046 -1.3912  1.1215 -2.4332
   84SLPC  H12Y 8021   3.477   5.376   4.026 -0.3467  0.0041 -0.8545
   84SLPC  C313 8022   3.462   5.156   4.047 -0.4832  0.5618 -0.5521
   84SLPC  H13X 8023   3.572   5.159   4.036 -0.2061 -1.4052  1.0794
   84SLPC  H13Y 8024   3.429   5.070   3.984  0.3899 -0.2817  0.1079
   84SLPC  C314 8025   3.437   5.117   4.201  0.0300  0.5697  0.6219
   84SLPC  H14X 8026   3.460   5.008   4.209  0.2142  0.3570 -1.9163
   84SLPC  H14Y 8027   3.328   5.133   4.204 -0.5634 -2.2982 -1.1159
   84SLPC  C315 8028   3.511   5.207   4.302 -0.3162  0.1162  0.1349
   84SLPC  H15X 8029   3.453   5.219   4.397 -0.7229 -2.1073  0.2090
   84SLPC  H15Y 8030   3.538   5.307   4.261 -1.4356  0.1280 -0.6280
   84SLPC  C316 8031   3.649   5.160   4.344 -0.6104  0.4890 -0.7263
   84SLPC  H16X 8032   3.701   5.146   4.247  0.6159 -1.3128  0.1293
   84SLPC  H16Y 8033   3.647   5.061   4.394  0.5474  0.6562 -0.3125
   84SLPC  C317 8034   3.721   5.260   4.447  0.0274 -0.3330 -0.2072
   84SLPC  H17X 8035   3.653   5.277   4.532 -1.2523 -1.7132 -0.9117
   84SLPC  H17Y 8036   3.739   5.356   4.392 -1.4834  1.2992  1.9954
   84SLPC  C318 8037   3.861   5.204   4.478 -0.1440  0.0608  0.2387
   84SLPC  H18X 8038   3.928   5.193   4.390  1.8161  3.2800  1.1864
   84SLPC  H18Y 8039   3.852   5.100   4.518 -1.8793  0.0624 -0.0880
   84SLPC  H18Z 8040   3.912   5.260   4.559  2.2292 -3.2242  1.2522
   85SLPC     N 8041   2.442   3.811   1.672 -0.8867 -0.1023 -0.4359
   85SLPC   C13 8042   2.345   3.784   1.564 -0.2708  0.1932 -0.0476
   85SLPC  H13A 8043   2.393   3.811   1.471  1.5757 -1.1898  0.4276
   85SLPC  H13B 8044   2.313   3.681   1.568 -0.5862  0.3147  1.3444
   85SLPC  H13C 8045   2.255   3.841   1.580 -0.8653 -1.1620  1.9429
   85SLPC   C14 8046   2.565   3.722   1.673  0.3682 -0.1799  0.2553
   85SLPC  H14A 8047   2.601   3.717   1.571 -1.3200 -1.2104 -0.3220
   85SLPC  H14B 8048   2.636   3.754   1.747 -1.4919 -1.2232  2.6077
   85SLPC  H14C 8049   2.542   3.617   1.688 -0.4586 -0.5084 -2.6996
   85SLPC   C15 8050   2.380   3.785   1.802 -0.1382  0.2291 -0.3719
   85SLPC  H15A 8051   2.450   3.796   1.883  0.6847  1.8832 -1.2468
   85SLPC  H15B 8052   2.309   3.861   1.833 -0.7953 -0.2452 -0.6953
   85SLPC  H15C 8053   2.350   3.683   1.821 -0.8992  0.9200  2.6299
   85SLPC   C12 8054   2.492   3.959   1.662  0.4156  0.3108  0.1639
   85SLPC  H12A 8055   2.404   4.021   1.656 -0.4878 -0.9780 -0.5249
   85SLPC  H12B 8056   2.541   3.975   1.567 -1.2239 -1.7931 -1.1120
   85SLPC   C11 8057   2.577   4.021   1.779  0.1136 -0.5281 -0.6829
   85SLPC  H11A 8058   2.597   4.128   1.755  0.7250 -0.7488 -1.1793
   85SLPC  H11B 8059   2.676   3.972   1.766  1.5030  2.1608 -0.8296
   85SLPC     P 8060   2.401   4.096   1.963 -0.2052  0.4418 -0.3349
   85SLPC   O13 8061   2.358   4.197   1.865 -0.6563 -0.7609 -0.2872
   85SLPC   O14 8062   2.284   4.014   2.010  0.2897 -0.0702  0.1779
   85SLPC   O12 8063   2.520   3.997   1.913 -0.6598 -0.1856  0.3238
   85SLPC   O11 8064   2.459   4.172   2.085 -0.2570  0.6276 -0.3439
   85SLPC    C1 8065   2.590   4.165   2.132 -1.2913  0.3586  0.5466
   85SLPC    HA 8066   2.652   4.145   2.043 -1.0440 -1.9840  1.1721
   85SLPC    HB 8067   2.633   4.265   2.156  0.3573  0.1856 -1.4336
   85SLPC    C2 8068   2.630   4.066   2.247  0.1056  0.1669  0.5376
   85SLPC    HS 8069   2.591   3.964   2.225 -1.0988  0.5416  0.8632
   85SLPC   O21 8070   2.573   4.128   2.364 -0.4388 -0.1023  0.2064
   85SLPC   C21 8071   2.450   4.098   2.382  0.2819  0.1438  0.6691
   85SLPC   O22 8072   2.387   4.016   2.319  0.9577 -0.5377 -0.2401
   85SLPC   C22 8073   2.404   4.160   2.513  0.0750  0.3951  0.5514
   85SLPC   H2R 8074   2.381   4.267   2.491  1.5463  0.7528  0.6143
   85SLPC   H2S 8075   2.306   4.115   2.540  0.0214  0.3356  0.2588
   85SLPC    C3 8076   2.781   4.041   2.266 -0.0292  0.1383 -0.3203
   85SLPC    HX 8077   2.826   4.141   2.280 -0.1692  0.2372 -0.5668
   85SLPC    HY 8078   2.808   3.991   2.171 -0.7966 -0.6213 -0.1581
   85SLPC   O31 8079   2.812   3.953   2.381 -0.0999 -0.1971 -0.1028
   85SLPC   C31 8080   2.910   3.998   2.452  0.2543 -0.8555 -0.4286
   85SLPC   O32 8081   2.976   4.098   2.431 -0.3902 -0.0196  0.1585
   85SLPC   C32 8082   2.929   3.902   2.569  0.2750 -0.1664  0.3222
   85SLPC   H2X 8083   3.001   3.826   2.532  0.6828  0.5292 -0.3388
   85SLPC   H2Y 8084   2.833   3.848   2.588  0.9780 -1.1836  1.0761
   85SLPC   C23 8085   2.515   4.145   2.629  0.1724 -1.0460 -0.1874
   85SLPC   H3R 8086   2.614   4.164   2.583 -0.6170  1.3432 -1.0208
   85SLPC   H3S 8087   2.522   4.038   2.658  2.4755 -0.4908  1.6423
   85SLPC   C24 8088   2.478   4.230   2.749  0.5528  0.2503 -0.2565
   85SLPC   H4R 8089   2.467   4.337   2.720 -0.6508  0.6195  1.3637
   85SLPC   H4S 8090   2.572   4.223   2.807  0.1593 -1.5101  0.2446
   85SLPC   C25 8091   2.348   4.186   2.819 -0.1700 -0.4971 -0.3534
   85SLPC   H5R 8092   2.330   4.274   2.886  3.4662 -0.8319  1.3278
   85SLPC   H5S 8093   2.254   4.170   2.763  1.1242 -1.2622 -2.4146
   85SLPC   C26 8094   2.380   4.062   2.912 -0.2455  0.0984  0.8699
   85SLPC   H6R 8095   2.437   4.096   3.001 -2.5326 -0.3212  2.5893
   85SLPC   H6S 8096   2.439   3.989   2.853  0.1474  1.4552 -0.4884
   85SLPC   C27 8097   2.259   3.982   2.968  0.9994  0.3645 -0.2241
   85SLPC   H7R 8098   2.301   3.884   2.999 -0.4979 -0.0837  0.4827
   85SLPC   H7S 8099   2.175   3.964   2.898  1.2306 -0.5458 -0.2816
   85SLPC   C28 8100   2.206   4.041   3.105 -0.1705 -0.4165 -0.0804
   85SLPC   H8R 8101   2.291   4.039   3.176 -0.5884 -1.8006  0.4013
   85SLPC   H8S 8102   2.125   3.975   3.142 -1.0946  2.1365  2.8509
   85SLPC   C29 8103   2.157   4.189   3.088 -0.4030  0.7415  0.0276
   85SLPC   H9R 8104   2.124   4.227   2.990 -1.1689 -1.7106 -0.7481
   85SLPC  C210 8105   2.151   4.270   3.193  0.6004 -0.9387  0.5023
   85SLPC  H10R 8106   2.120   4.376   3.189  2.0181 -0.5069  0.2563
   85SLPC  C211 8107   2.192   4.230   3.335 -0.6141 -0.1706 -0.9722
   85SLPC  H11R 8108   2.159   4.129   3.367  0.7717  0.2127  2.0530
   85SLPC  H11S 8109   2.138   4.307   3.395 -1.5232 -0.1458 -1.7912
   85SLPC  C212 8110   2.344   4.212   3.367  0.0601  0.1373  0.1373
   85SLPC  H12R 8111   2.420   4.248   3.295 -0.3678 -0.0092 -0.3921
   85SLPC  C213 8112   2.386   4.155   3.482  0.0138  0.1855  0.1814
   85SLPC  H13R 8113   2.494   4.148   3.502  0.0620  0.1524 -0.0886
   85SLPC  C214 8114   2.295   4.102   3.600  0.7682  0.0164 -0.1322
   85SLPC  H14R 8115   2.330   4.000   3.625  0.4331  0.2359  1.3230
   85SLPC  H14S 8116   2.187   4.098   3.576 -0.0404 -0.8871  3.2015
   85SLPC  C215 8117   2.304   4.186   3.727  0.1344 -1.0242 -0.2467
   85SLPC  H15R 8118   2.276   4.291   3.703  1.3186 -1.0014 -1.6656
   85SLPC  H15S 8119   2.410   4.192   3.761  0.6423 -1.7782 -1.6355
   85SLPC  C216 8120   2.218   4.137   3.835 -0.3012  0.0154  0.5836
   85SLPC  H16R 8121   2.124   4.098   3.790  0.4697 -0.4571 -0.6741
   85SLPC  H16S 8122   2.199   4.212   3.915  1.4379 -1.1207  2.1314
   85SLPC  C217 8123   2.278   4.023   3.913  0.6395  0.7297  0.2006
   85SLPC  H17R 8124   2.376   4.047   3.959  0.3476  3.2616 -0.3534
   85SLPC  H17S 8125   2.293   3.937   3.844  2.5618  0.5641  0.7646
   85SLPC  C218 8126   2.183   3.968   4.018  0.6808 -0.1302 -0.2775
   85SLPC  H18R 8127   2.090   3.922   3.980 -0.2946  1.8151 -0.3380
   85SLPC  H18S 8128   2.147   4.046   4.089  4.1954  0.6889  0.8066
   85SLPC  H18T 8129   2.230   3.890   4.082  0.0974 -0.9753 -0.8648
   85SLPC   C33 8130   2.984   3.974   2.698  0.2977 -0.1019  0.2100
   85SLPC   H3X 8131   3.076   4.035   2.686 -0.3471  1.2831  1.9107
   85SLPC   H3Y 8132   3.012   3.893   2.769 -0.6867  2.9412  4.4713
   85SLPC   C34 8133   2.878   4.073   2.756  0.1788  0.0758  0.1927
   85SLPC   H4X 8134   2.775   4.030   2.747  0.9984 -2.0980  0.4758
   85SLPC   H4Y 8135   2.869   4.163   2.692  0.5838  0.1201  0.1937
   85SLPC   C35 8136   2.927   4.112   2.892 -0.6393  0.4847  1.1966
   85SLPC   H5X 8137   3.025   4.164   2.883  0.1595 -0.9348  1.3130
   85SLPC   H5Y 8138   2.951   4.018   2.947 -0.5588 -0.4344 -0.3689
   85SLPC   C36 8139   2.843   4.201   2.979 -0.4826 -0.1433  0.1130
   85SLPC   H6X 8140   2.746   4.146   2.982 -1.1876  0.9154 -1.6086
   85SLPC   H6Y 8141   2.822   4.298   2.929  0.3129 -0.5974 -1.1511
   85SLPC   C37 8142   2.903   4.216   3.119  0.0639  0.5845  0.3028
   85SLPC   H7X 8143   2.996   4.276   3.128  1.1760 -1.0350  0.0406
   85SLPC   H7Y 8144   2.914   4.112   3.156 -3.5605 -0.0537 -0.0831
   85SLPC   C38 8145   2.795   4.287   3.208 -0.0037  0.3307 -0.5448
   85SLPC   H8X 8146   2.700   4.229   3.211  0.3476 -0.2328  1.7642
   85SLPC   H8Y 8147   2.772   4.382   3.155 -2.8740  1.6072  2.5935
   85SLPC   C39 8148   2.841   4.330   3.349  0.5429  0.0712  0.7818
   85SLPC   H9X 8149   2.793   4.423   3.387 -0.4767  0.0879 -0.5030
   85SLPC   H9Y 8150   2.951   4.344   3.360  0.3227  2.4642  0.6065
   85SLPC  C310 8151   2.802   4.231   3.455  0.2373  0.0313 -0.0850
   85SLPC  H10X 8152   2.860   4.137   3.445 -0.5172 -0.6334  1.5044
   85SLPC  H10Y 8153   2.695   4.209   3.432  0.1835 -0.0133  0.2102
   85SLPC  C311 8154   2.793   4.284   3.601  0.4099 -0.1322  0.0531
   85SLPC  H11X 8155   2.697   4.243   3.639 -0.2525 -1.0424 -2.4101
   85SLPC  H11Y 8156   2.775   4.394   3.601  1.7686  0.1386  2.1324
   85SLPC  C312 8157   2.909   4.246   3.693 -0.0194 -0.5298  0.0355
   85SLPC  H12X 8158   2.996   4.299   3.649 -1.1399  2.0594  0.7377
   85SLPC  H12Y 8159   2.920   4.136   3.696 -0.3045 -0.6037 -1.1671
   85SLPC  C313 8160   2.890   4.289   3.834  0.7336 -0.2913  0.7167
   85SLPC  H13X 8161   2.858   4.396   3.838 -1.0476 -0.8141  1.5462
   85SLPC  H13Y 8162   2.984   4.271   3.890  0.4236 -0.7865  1.0773
   85SLPC  C314 8163   2.782   4.212   3.915  0.0501 -0.0796  0.0895
   85SLPC  H14X 8164   2.781   4.102   3.896 -0.4876  0.1034 -1.0265
   85SLPC  H14Y 8165   2.682   4.247   3.883  0.5823  1.8431  0.4361
   85SLPC  C315 8166   2.785   4.233   4.066  0.0398  0.1919 -0.4064
   85SLPC  H15X 8167   2.887   4.196   4.092 -0.5408 -1.0234  0.2383
   85SLPC  H15Y 8168   2.707   4.172   4.116  0.9231 -2.1293 -1.6860
   85SLPC  C316 8169   2.772   4.375   4.119  0.4240  0.0145  0.5779
   85SLPC  H16X 8170   2.676   4.412   4.079  0.9606 -1.6966 -2.6183
   85SLPC  H16Y 8171   2.848   4.441   4.072 -0.5038  0.3434 -0.5028
   85SLPC  C317 8172   2.777   4.388   4.267 -0.2102 -0.8782  0.2098
   85SLPC  H17X 8173   2.707   4.312   4.307 -2.2515  0.5092 -0.5508
   85SLPC  H17Y 8174   2.749   4.486   4.312  0.9722 -0.1350 -0.5944
   85SLPC  C318 8175   2.916   4.357   4.319  0.2051  0.4732  0.0198
   85SLPC  H18X 8176   2.978   4.447   4.296 -0.9233  1.2721  0.0068
   85SLPC  H18Y 8177   2.965   4.269   4.272 -0.3633  0.0511  0.2163
   85SLPC  H18Z 8178   2.928   4.354   4.429  0.1386  1.6184  0.0696
   86SLPC     N 8179   2.595   3.047   2.003 -0.3943  0.4187  0.4833
   86SLPC   C13 8180   2.554   3.181   1.963  0.7008  0.3515 -0.7631
   86SLPC  H13A 8181   2.454   3.167   1.925  1.2332 -0.4895 -1.9397
   86SLPC  H13B 8182   2.540   3.245   2.048 -0.2102  0.5136 -1.0225
   86SLPC  H13C 8183   2.620   3.221   1.887 -0.4247  0.7183 -1.5706
   86SLPC   C14 8184   2.731   3.050   2.049 -0.8760  0.3877  0.6915
   86SLPC  H14A 8185   2.765   2.955   2.087  1.5306  0.5988 -0.7239
   86SLPC  H14B 8186   2.805   3.070   1.973 -0.4599 -1.1183  0.6606
   86SLPC  H14C 8187   2.741   3.127   2.124  0.0060  0.5132  0.4536
   86SLPC   C15 8188   2.589   2.964   1.879  0.8265 -0.0805  0.2536
   86SLPC  H15A 8189   2.611   2.858   1.887 -0.8406 -0.4515  0.1188
   86SLPC  H15B 8190   2.493   2.976   1.832  0.3799 -0.6758  0.9855
   86SLPC  H15C 8191   2.655   3.009   1.806 -1.2398  0.3498 -1.4358
   86SLPC   C12 8192   2.508   2.981   2.104  0.6753  0.1018  0.1752
   86SLPC  H12A 8193   2.534   2.876   2.111  2.0862  0.3781 -0.7043
   86SLPC  H12B 8194   2.409   2.987   2.061 -0.6688 -1.7032  2.7595
   86SLPC   C11 8195   2.513   3.039   2.258  0.2268  0.7820 -0.0890
   86SLPC  H11A 8196   2.615   3.032   2.301 -0.2545 -0.8393  0.8779
   86SLPC  H11B 8197   2.440   2.979   2.316 -1.5303  1.0318 -1.8867
   86SLPC     P 8198   2.309   3.205   2.285  0.3010 -0.3225 -0.0840
   86SLPC   O13 8199   2.290   3.346   2.292  0.1714 -0.3121 -0.2469
   86SLPC   O14 8200   2.242   3.133   2.179  0.5878  0.2235 -0.3962
   86SLPC   O12 8201   2.459   3.173   2.257  0.1808  0.2001 -0.2811
   86SLPC   O11 8202   2.276   3.136   2.416  0.1144  0.0019  0.7651
   86SLPC    C1 8203   2.327   3.176   2.546  0.2794 -0.6226 -0.3521
   86SLPC    HA 8204   2.287   3.101   2.618  0.3754 -1.6826 -1.3660
   86SLPC    HB 8205   2.436   3.179   2.565  0.4736  0.1234 -1.5296
   86SLPC    C2 8206   2.256   3.308   2.603 -0.0820  0.1965  0.0372
   86SLPC    HS 8207   2.297   3.388   2.538 -1.3661  0.3355 -0.6534
   86SLPC   O21 8208   2.305   3.327   2.739  0.8137 -0.1207 -0.2199
   86SLPC   C21 8209   2.278   3.448   2.785  0.5690 -0.6161 -0.0840
   86SLPC   O22 8210   2.263   3.549   2.719  0.3456  0.7471  0.1095
   86SLPC   C22 8211   2.279   3.443   2.939 -0.4069  0.1983  0.0115
   86SLPC   H2R 8212   2.191   3.385   2.973  0.4428 -0.4197  1.2122
   86SLPC   H2S 8213   2.369   3.394   2.982 -2.5250 -2.3056  1.9067
   86SLPC    C3 8214   2.107   3.304   2.580  0.4394  0.6693  0.0927
   86SLPC    HX 8215   2.079   3.196   2.573 -0.6824  0.8493  1.4185
   86SLPC    HY 8216   2.086   3.341   2.477  1.4907 -1.5128 -0.9693
   86SLPC   O31 8217   2.022   3.360   2.682 -0.1936  0.3612 -0.3515
   86SLPC   C31 8218   1.944   3.463   2.650  0.2169  0.9282  0.2330
   86SLPC   O32 8219   1.926   3.506   2.537 -0.4365  0.2419 -0.5082
   86SLPC   C32 8220   1.879   3.523   2.770 -0.1844  0.2270 -1.0164
   86SLPC   H2X 8221   1.768   3.524   2.760 -0.5463  0.1910  2.0604
   86SLPC   H2Y 8222   1.920   3.624   2.790 -0.7917  0.6319 -1.7814
   86SLPC   C23 8223   2.272   3.581   3.006 -0.0135  0.3953  0.0713
   86SLPC   H3R 8224   2.169   3.621   2.994 -0.6607 -0.4332  2.2703
   86SLPC   H3S 8225   2.334   3.659   2.958 -0.4954  0.5281 -0.3485
   86SLPC   C24 8226   2.304   3.578   3.160  0.2626 -0.4751 -0.1391
   86SLPC   H4R 8227   2.402   3.527   3.160  0.7118  0.3195 -2.0053
   86SLPC   H4S 8228   2.225   3.510   3.198 -1.5480  0.9647 -1.1354
   86SLPC   C25 8229   2.291   3.721   3.221 -0.3769 -0.4900 -0.0856
   86SLPC   H5R 8230   2.186   3.755   3.211 -1.0486 -2.0773  1.2818
   86SLPC   H5S 8231   2.365   3.787   3.170  1.0467 -0.8195  1.4656
   86SLPC   C26 8232   2.312   3.735   3.375  0.0790 -0.8797 -0.5442
   86SLPC   H6R 8233   2.294   3.840   3.406  1.2492 -1.4088  2.2371
   86SLPC   H6S 8234   2.418   3.706   3.394  0.8854  1.2821 -1.4316
   86SLPC   C27 8235   2.223   3.652   3.468 -0.7562  0.6042  0.0552
   86SLPC   H7R 8236   2.242   3.543   3.459  2.1558  1.0828 -0.4360
   86SLPC   H7S 8237   2.116   3.671   3.446 -1.7831 -2.4676  1.7735
   86SLPC   C28 8238   2.247   3.674   3.619  0.1646 -0.0045  0.3899
   86SLPC   H8R 8239   2.225   3.782   3.631  2.9839  0.5178  1.6356
   86SLPC   H8S 8240   2.356   3.668   3.643  0.6779 -1.4856 -1.9590
   86SLPC   C29 8241   2.159   3.603   3.714  0.0629  0.1391  0.0535
   86SLPC   H9R 8242   2.058   3.647   3.711 -0.0285  0.1237  1.6848
   86SLPC  C210 8243   2.198   3.521   3.810 -0.0793 -0.9927 -0.1259
   86SLPC  H10R 8244   2.114   3.491   3.874 -1.7557 -0.1464 -1.7985
   86SLPC  C211 8245   2.339   3.478   3.843  0.3774 -0.1384 -0.4827
   86SLPC  H11R 8246   2.374   3.528   3.936  1.8557 -0.7322 -0.6896
   86SLPC  H11S 8247   2.415   3.500   3.765 -0.8627 -0.1457 -1.7166
   86SLPC  C212 8248   2.328   3.325   3.861  0.6797  0.2582  0.7749
   86SLPC  H12R 8249   2.321   3.273   3.765  0.3345  1.7055 -0.0026
   86SLPC  C213 8250   2.332   3.257   3.981 -0.2258  0.0489  0.0549
   86SLPC  H13R 8251   2.336   3.147   3.977  2.7305  0.1116 -1.0691
   86SLPC  C214 8252   2.330   3.310   4.116 -0.3984 -0.0872 -0.5178
   86SLPC  H14R 8253   2.235   3.285   4.168  0.4859  1.1110  1.8434
   86SLPC  H14S 8254   2.330   3.421   4.106 -2.3527 -0.1091 -1.1642
   86SLPC  C215 8255   2.455   3.285   4.203 -0.3429 -0.6433 -0.6682
   86SLPC  H15R 8256   2.471   3.175   4.209  0.7851 -0.4833 -0.5177
   86SLPC  H15S 8257   2.436   3.325   4.305 -0.2597 -0.3361 -0.7723
   86SLPC  C216 8258   2.588   3.348   4.157  0.0339 -0.1189  0.2032
   86SLPC  H16R 8259   2.570   3.444   4.103 -3.1478 -0.4132  0.5529
   86SLPC  H16S 8260   2.626   3.271   4.087 -1.9325 -1.3330  0.3745
   86SLPC  C217 8261   2.693   3.363   4.272 -0.1095  0.8415 -0.1804
   86SLPC  H17R 8262   2.655   3.300   4.355  0.7441  1.2981  0.5638
   86SLPC  H17S 8263   2.712   3.468   4.302 -2.6716  0.7689  2.1271
   86SLPC  C218 8264   2.826   3.300   4.224  0.0669 -0.3573 -0.4498
   86SLPC  H18R 8265   2.854   3.329   4.121  0.8988  0.9552  0.1143
   86SLPC  H18S 8266   2.820   3.189   4.224  1.3596 -0.4557  0.3706
   86SLPC  H18T 8267   2.907   3.329   4.295 -1.1406  2.2199 -0.0194
   86SLPC   C33 8268   1.890   3.428   2.891 -0.3490  0.1039  0.4112
   86SLPC   H3X 8269   1.987   3.379   2.916  0.2169  1.0802  0.1880
   86SLPC   H3Y 8270   1.828   3.341   2.860  0.2628 -0.6502  1.2581
   86SLPC   C34 8271   1.833   3.492   3.017 -0.3893  0.5430  0.3079
   86SLPC   H4X 8272   1.726   3.506   2.992 -0.3508 -0.9242 -0.7962
   86SLPC   H4Y 8273   1.890   3.584   3.043  0.0090  0.4582 -0.2544
   86SLPC   C35 8274   1.847   3.390   3.128 -0.6197 -0.0829 -0.0830
   86SLPC   H5X 8275   1.955   3.362   3.133 -1.3011 -2.8119  0.9026
   86SLPC   H5Y 8276   1.790   3.301   3.097 -0.1329  0.5179 -2.9176
   86SLPC   C36 8277   1.800   3.444   3.262 -0.0669  0.0382 -0.8475
   86SLPC   H6X 8278   1.802   3.349   3.320  2.4442  0.1467 -0.6284
   86SLPC   H6Y 8279   1.694   3.476   3.255  0.8687  3.4663 -1.6230
   86SLPC   C37 8280   1.878   3.551   3.344  0.3263  0.6280 -0.0118
   86SLPC   H7X 8281   1.855   3.638   3.278 -2.7982 -0.2305 -0.2001
   86SLPC   H7Y 8282   1.987   3.530   3.343  0.1760 -1.1403 -4.8578
   86SLPC   C38 8283   1.819   3.577   3.484  0.2034  0.6338 -0.1964
   86SLPC   H8X 8284   1.710   3.596   3.474  0.1566  0.0927 -0.7761
   86SLPC   H8Y 8285   1.874   3.665   3.524  0.4574 -0.0278  0.9377
   86SLPC   C39 8286   1.837   3.465   3.597  0.5177 -0.4377 -0.8010
   86SLPC   H9X 8287   1.943   3.430   3.593  1.5671  2.4099 -0.0707
   86SLPC   H9Y 8288   1.773   3.376   3.577  0.4069 -0.8467  1.1770
   86SLPC  C310 8289   1.812   3.514   3.740  0.0060  0.4074  0.2258
   86SLPC  H10X 8290   1.719   3.572   3.755  0.8061  2.1198 -1.1461
   86SLPC  H10Y 8291   1.904   3.560   3.782  1.5838 -2.2186 -0.0874
   86SLPC  C311 8292   1.798   3.391   3.833 -0.3481 -0.3770  0.1850
   86SLPC  H11X 8293   1.887   3.330   3.806  0.3549  1.2658 -1.4362
   86SLPC  H11Y 8294   1.712   3.324   3.810 -0.5796  0.1837 -0.5975
   86SLPC  C312 8295   1.800   3.424   3.986  0.3293  0.6874  0.1393
   86SLPC  H12X 8296   1.714   3.488   4.014 -0.4516  0.5042 -1.6769
   86SLPC  H12Y 8297   1.891   3.486   4.003  1.4328 -0.7807 -0.1627
   86SLPC  C313 8298   1.803   3.303   4.084 -0.1333 -0.0636 -0.2351
   86SLPC  H13X 8299   1.805   3.334   4.191 -0.4082  0.3184 -0.3379
   86SLPC  H13Y 8300   1.900   3.252   4.067  0.2007  0.7417 -0.8349
   86SLPC  C314 8301   1.683   3.212   4.073 -0.1744  0.7004  0.5804
   86SLPC  H14X 8302   1.723   3.133   4.007 -1.1794  0.6628 -0.0094
   86SLPC  H14Y 8303   1.593   3.250   4.020 -0.6132 -2.0908 -0.8237
   86SLPC  C315 8304   1.648   3.141   4.211  0.5552  0.6702 -0.1325
   86SLPC  H15X 8305   1.582   3.208   4.270  1.8242  0.5559  1.5037
   86SLPC  H15Y 8306   1.740   3.126   4.272 -1.1716  0.7160  2.6288
   86SLPC  C316 8307   1.580   3.005   4.181  0.3484  0.1922  0.1466
   86SLPC  H16X 8308   1.644   2.949   4.109 -1.0718 -0.2805 -0.7944
   86SLPC  H16Y 8309   1.496   3.020   4.110  1.5221 -0.1390 -1.3790
   86SLPC  C317 8310   1.543   2.934   4.307 -0.2857 -0.8095 -0.1648
   86SLPC  H17X 8311   1.487   2.999   4.378  1.2287  0.9454 -0.4890
   86SLPC  H17Y 8312   1.632   2.912   4.369  1.2550 -0.0756 -2.0042
   86SLPC  C318 8313   1.463   2.802   4.289  0.0773  0.1240  0.3087
   86SLPC  H18X 8314   1.393   2.813   4.204  1.5942 -2.6311 -1.4677
   86SLPC  H18Y 8315   1.403   2.765   4.375 -2.4700 -2.0188 -2.1892
   86SLPC  H18Z 8316   1.534   2.717   4.277 -0.5834 -0.4652  0.5162
   87SLPC     N 8317   3.858   5.502   1.769 -0.4455  0.0405 -0.0541
   87SLPC   C13 8318   3.900   5.370   1.718  0.2285 -0.0157  0.1498
   87SLPC  H13A 8319   3.987   5.343   1.776  0.7947  1.4842  0.0357
   87SLPC  H13B 8320   3.827   5.292   1.734 -0.0039  0.2278  0.2720
   87SLPC  H13C 8321   3.929   5.376   1.614  1.3645 -0.3959  0.4272
   87SLPC   C14 8322   3.731   5.535   1.699  0.4277  0.1674 -0.3573
   87SLPC  H14A 8323   3.653   5.461   1.707 -1.4782  2.1930  0.9691
   87SLPC  H14B 8324   3.687   5.623   1.742  1.0049 -0.1473  0.9472
   87SLPC  H14C 8325   3.762   5.561   1.599  0.2922  0.3594 -0.3487
   87SLPC   C15 8326   3.954   5.615   1.714  0.1762 -0.2910 -0.1970
   87SLPC  H15A 8327   4.042   5.630   1.776 -0.3049  1.3367  0.1279
   87SLPC  H15B 8328   3.978   5.588   1.612 -0.8626  0.4902 -0.6643
   87SLPC  H15C 8329   3.905   5.710   1.705  1.0733  0.2332  0.2811
   87SLPC   C12 8330   3.842   5.509   1.918 -0.1121  0.0632 -0.3858
   87SLPC  H12A 8331   3.746   5.464   1.939  1.1127 -2.3749  0.4134
   87SLPC  H12B 8332   3.845   5.614   1.944 -0.3060 -0.2889  1.1413
   87SLPC   C11 8333   3.952   5.447   2.006 -0.6673  0.8727  0.4073
   87SLPC  H11A 8334   3.967   5.343   1.972 -0.3659  0.2679  2.2703
   87SLPC  H11B 8335   3.915   5.434   2.110 -0.9592 -1.7051  0.0486
   87SLPC     P 8336   4.096   5.654   2.073 -0.0685 -0.1089  0.4755
   87SLPC   O13 8337   4.150   5.754   1.982  0.3271 -0.4132  0.5230
   87SLPC   O14 8338   3.972   5.701   2.137  0.2175 -0.0694 -0.4320
   87SLPC   O12 8339   4.070   5.521   1.992 -0.3580  0.7325 -0.1432
   87SLPC   O11 8340   4.204   5.621   2.172  0.1386  0.4405  0.1782
   87SLPC    C1 8341   4.169   5.533   2.278 -0.0861  0.3916 -0.8433
   87SLPC    HA 8342   4.092   5.578   2.344 -0.1209  1.6940 -1.7365
   87SLPC    HB 8343   4.131   5.435   2.243  1.1928  0.1725 -1.6930
   87SLPC    C2 8344   4.295   5.490   2.368  0.5961  0.0604  0.2212
   87SLPC    HS 8345   4.258   5.415   2.440  0.5580 -0.9257 -0.8085
   87SLPC   O21 8346   4.347   5.603   2.453  0.1476 -0.0258  0.1977
   87SLPC   C21 8347   4.272   5.630   2.563 -1.0358  0.2386 -0.1747
   87SLPC   O22 8348   4.169   5.572   2.589 -0.0670  0.9323 -0.5665
   87SLPC   C22 8349   4.333   5.754   2.642 -0.2731 -0.8297  0.0374
   87SLPC   H2R 8350   4.438   5.733   2.672  0.4678 -0.3989 -2.0563
   87SLPC   H2S 8351   4.331   5.848   2.582  1.8141 -2.1255 -2.2765
   87SLPC    C3 8352   4.398   5.418   2.280 -0.2742 -0.2647 -0.3929
   87SLPC    HX 8353   4.444   5.499   2.219 -0.1927 -0.2156 -0.2679
   87SLPC    HY 8354   4.341   5.349   2.215  0.9043 -1.5714 -0.0991
   87SLPC   O31 8355   4.492   5.342   2.357 -0.6611  0.4244  0.2316
   87SLPC   C31 8356   4.596   5.414   2.412  0.4128  0.0628  0.1010
   87SLPC   O32 8357   4.624   5.530   2.391  0.0749  0.1528 -0.2384
   87SLPC   C32 8358   4.685   5.332   2.509  0.5252  0.1491 -0.5135
   87SLPC   H2X 8359   4.776   5.299   2.454 -0.4852 -0.4098 -1.9088
   87SLPC   H2Y 8360   4.621   5.247   2.539  0.3978  0.9351  1.6054
   87SLPC   C23 8361   4.244   5.777   2.762 -0.2514  0.2202  0.5583
   87SLPC   H3R 8362   4.239   5.692   2.834  0.8040  1.9022  2.7234
   87SLPC   H3S 8363   4.139   5.804   2.736 -0.2423 -0.8458 -0.6817
   87SLPC   C24 8364   4.308   5.882   2.845  0.5418 -0.8215 -0.0211
   87SLPC   H4R 8365   4.329   5.977   2.792 -0.5708  1.1269  2.7973
   87SLPC   H4S 8366   4.407   5.849   2.882  1.7995  0.9937 -1.5834
   87SLPC   C25 8367   4.221   5.920   2.960  0.1698  0.1329 -0.7843
   87SLPC   H5R 8368   4.215   5.835   3.032 -0.9241 -0.4264 -1.5141
   87SLPC   H5S 8369   4.120   5.951   2.925  0.1682  1.1388  0.0638
   87SLPC   C26 8370   4.280   6.033   3.040  0.5406 -0.1155  0.4723
   87SLPC   H6R 8371   4.292   6.125   2.979 -0.1046  0.2770  0.9229
   87SLPC   H6S 8372   4.383   5.997   3.065  1.1267  0.6248 -0.7746
   87SLPC   C27 8373   4.206   6.062   3.176  0.1039  0.2618  0.2392
   87SLPC   H7R 8374   4.195   5.963   3.225 -0.3656 -0.2581 -0.8830
   87SLPC   H7S 8375   4.098   6.081   3.154 -0.3523 -1.7371  0.5421
   87SLPC   C28 8376   4.261   6.172   3.267  0.3397  0.2100 -0.4213
   87SLPC   H8R 8377   4.370   6.162   3.284  0.3836  1.2656  0.0122
   87SLPC   H8S 8378   4.216   6.166   3.368 -0.2053  0.4249 -0.6477
   87SLPC   C29 8379   4.230   6.299   3.200  0.3555 -0.3112 -0.0457
   87SLPC   H9R 8380   4.235   6.289   3.091  2.0848 -0.1034 -0.0034
   87SLPC  C210 8381   4.193   6.416   3.260 -0.5299 -0.2076 -0.5518
   87SLPC  H10R 8382   4.191   6.506   3.197  0.2715  0.4829  0.3783
   87SLPC  C211 8383   4.209   6.440   3.408 -0.2654 -0.7431  0.4770
   87SLPC  H11R 8384   4.204   6.343   3.461 -0.0842 -0.7082  0.5601
   87SLPC  H11S 8385   4.119   6.499   3.438  0.6856  0.1170  1.7889
   87SLPC  C212 8386   4.334   6.525   3.439 -0.3311 -0.2718  0.6431
   87SLPC  H12R 8387   4.365   6.603   3.368 -0.6495  0.5090  1.3459
   87SLPC  C213 8388   4.405   6.510   3.550  0.7292  0.4087  0.9236
   87SLPC  H13R 8389   4.492   6.571   3.577  0.6486  1.9231 -1.7846
   87SLPC  C214 8390   4.370   6.414   3.661  0.0887  0.3604 -0.2920
   87SLPC  H14R 8391   4.444   6.333   3.679 -1.3451 -0.9129  0.0951
   87SLPC  H14S 8392   4.272   6.363   3.648  0.4936 -1.5478  2.9405
   87SLPC  C215 8393   4.361   6.492   3.794 -0.0476 -0.2419  0.4302
   87SLPC  H15R 8394   4.307   6.426   3.865 -1.9894 -2.1785 -2.6427
   87SLPC  H15S 8395   4.304   6.588   3.787 -0.2262 -0.3081  0.9290
   87SLPC  C216 8396   4.503   6.532   3.850  1.2458 -0.3951  0.1572
   87SLPC  H16R 8397   4.559   6.593   3.777 -2.6127  0.7688 -2.1427
   87SLPC  H16S 8398   4.574   6.447   3.861  1.4865 -0.7491 -3.1170
   87SLPC  C217 8399   4.481   6.611   3.976 -0.2820  0.0499 -0.0393
   87SLPC  H17R 8400   4.450   6.549   4.063 -2.6270  1.5964  0.3085
   87SLPC  H17S 8401   4.404   6.692   3.970 -0.9526 -0.6408 -1.0409
   87SLPC  C218 8402   4.615   6.668   4.026  0.3061  0.1629 -0.1688
   87SLPC  H18R 8403   4.667   6.737   3.956  0.2479 -0.5805 -0.9578
   87SLPC  H18S 8404   4.687   6.585   4.043  1.3031  1.1391  0.4703
   87SLPC  H18T 8405   4.607   6.719   4.125  3.3279 -0.0491  0.2677
   87SLPC   C33 8406   4.721   5.402   2.638 -0.0570 -0.2922 -0.1356
   87SLPC   H3X 8407   4.795   5.483   2.621 -1.4673  1.1796  0.4523
   87SLPC   H3Y 8408   4.781   5.340   2.707  1.1929  1.8803  0.8293
   87SLPC   C34 8409   4.591   5.424   2.726 -0.1317 -0.3559  0.5688
   87SLPC   H4X 8410   4.526   5.334   2.717 -1.0378  0.3924 -0.7911
   87SLPC   H4Y 8411   4.535   5.510   2.684  0.3158 -0.4522 -0.2512
   87SLPC   C35 8412   4.627   5.461   2.874 -0.3060 -0.4025  0.1829
   87SLPC   H5X 8413   4.723   5.517   2.879  0.5192 -1.8269  0.9823
   87SLPC   H5Y 8414   4.647   5.358   2.911 -0.8559 -1.7458 -2.9270
   87SLPC   C36 8415   4.518   5.540   2.960 -0.2504  0.1560  0.3836
   87SLPC   H6X 8416   4.504   5.640   2.914 -1.9758  0.0518  0.6293
   87SLPC   H6Y 8417   4.559   5.550   3.063 -1.2690 -0.4510  0.8631
   87SLPC   C37 8418   4.390   5.458   2.982  0.8282  0.7895 -0.0559
   87SLPC   H7X 8419   4.431   5.359   3.012 -1.0801  0.4369  1.5690
   87SLPC   H7Y 8420   4.335   5.440   2.887 -1.5816 -0.3745  1.4846
   87SLPC   C38 8421   4.290   5.508   3.089 -0.4680 -0.8100  1.0403
   87SLPC   H8X 8422   4.189   5.463   3.081 -0.8361  0.1954 -0.3754
   87SLPC   H8Y 8423   4.276   5.618   3.076  0.1168 -0.9700 -1.3109
   87SLPC   C39 8424   4.340   5.480   3.233 -0.0475  0.0088 -0.3412
   87SLPC   H9X 8425   4.446   5.503   3.253  0.2548 -1.3023 -0.3741
   87SLPC   H9Y 8426   4.323   5.373   3.256  0.2845 -0.0805 -0.5143
   87SLPC  C310 8427   4.273   5.568   3.333  0.0314  0.0312 -1.0239
   87SLPC  H10X 8428   4.250   5.666   3.288 -1.5070  0.8012  1.2727
   87SLPC  H10Y 8429   4.326   5.589   3.427  1.1315  1.0433 -1.8467
   87SLPC  C311 8430   4.132   5.518   3.381  0.5486  0.5707  0.5564
   87SLPC  H11X 8431   4.145   5.413   3.412  2.0359  0.3414 -0.6860
   87SLPC  H11Y 8432   4.071   5.516   3.289  1.1418 -2.2772  0.1367
   87SLPC  C312 8433   4.070   5.601   3.486  0.3119  0.0547 -0.6495
   87SLPC  H12X 8434   3.960   5.600   3.471  0.1892  0.2608  0.1950
   87SLPC  H12Y 8435   4.104   5.704   3.463  0.3789  0.3603  0.7268
   87SLPC  C313 8436   4.105   5.557   3.629  0.0935 -0.4652 -0.1982
   87SLPC  H13X 8437   4.068   5.627   3.707 -0.5239  0.0427 -0.9382
   87SLPC  H13Y 8438   4.215   5.545   3.639  0.0402 -0.7079  0.1134
   87SLPC  C314 8439   4.054   5.414   3.658 -0.5091 -0.4470  0.1300
   87SLPC  H14X 8440   4.120   5.335   3.617  1.3908  1.7951 -1.4021
   87SLPC  H14Y 8441   3.954   5.405   3.612 -0.7636  0.1124  0.5631
   87SLPC  C315 8442   4.048   5.384   3.811  0.3796 -0.0960 -0.6144
   87SLPC  H15X 8443   4.131   5.432   3.867  0.4875 -0.4195 -0.4969
   87SLPC  H15Y 8444   4.048   5.273   3.820  0.5869 -0.0328  0.2390
   87SLPC  C316 8445   3.926   5.426   3.881  0.0319 -0.4079 -0.6129
   87SLPC  H16X 8446   3.843   5.362   3.843 -2.4385  2.0340  0.3382
   87SLPC  H16Y 8447   3.913   5.535   3.862  3.0971 -0.0178 -0.9801
   87SLPC  C317 8448   3.943   5.413   4.029  0.0744 -0.1070 -0.4416
   87SLPC  H17X 8449   4.029   5.474   4.064  0.2089 -0.4927 -0.0772
   87SLPC  H17Y 8450   3.965   5.310   4.066 -0.3061  0.5011  1.6156
   87SLPC  C318 8451   3.817   5.451   4.107  0.3928 -0.0640  1.0456
   87SLPC  H18X 8452   3.743   5.386   4.056  0.1342  0.7116  0.4123
   87SLPC  H18Y 8453   3.797   5.560   4.098  0.7434 -0.0020  1.0127
   87SLPC  H18Z 8454   3.825   5.428   4.216 -1.3152 -2.8005  0.6875
   88SLPC     N 8455   1.541   1.460   2.030 -0.3388 -0.9965  0.2110
   88SLPC   C13 8456   1.514   1.574   1.933  0.1203  0.8042  0.0171
   88SLPC  H13A 8457   1.578   1.554   1.848 -1.4675 -1.1405 -0.8047
   88SLPC  H13B 8458   1.412   1.576   1.897 -0.0096  1.2363  0.3987
   88SLPC  H13C 8459   1.531   1.674   1.970 -2.7056  1.1833  0.5472
   88SLPC   C14 8460   1.517   1.341   1.944 -0.3801 -0.0758  0.0126
   88SLPC  H14A 8461   1.594   1.327   1.869  1.0890 -0.7708  1.5755
   88SLPC  H14B 8462   1.524   1.248   1.998 -2.2223  1.4094  3.0312
   88SLPC  H14C 8463   1.418   1.346   1.902 -0.9836  2.4020  1.5619
   88SLPC   C15 8464   1.442   1.460   2.144 -0.3868  0.2085 -0.2046
   88SLPC  H15A 8465   1.443   1.364   2.193 -1.4471  0.6767  0.7821
   88SLPC  H15B 8466   1.468   1.533   2.220  1.6897 -1.3542  0.6714
   88SLPC  H15C 8467   1.339   1.466   2.112 -1.1642 -0.0927  2.0830
   88SLPC   C12 8468   1.691   1.465   2.078  0.9400 -0.1972  0.2897
   88SLPC  H12A 8469   1.695   1.551   2.143 -3.0383  0.7013 -0.4150
   88SLPC  H12B 8470   1.750   1.479   1.988 -0.8316  0.4156 -0.8223
   88SLPC   C11 8471   1.747   1.336   2.151 -0.0306 -0.4302  0.3579
   88SLPC  H11A 8472   1.667   1.281   2.205 -0.8911 -1.0407 -1.4922
   88SLPC  H11B 8473   1.821   1.364   2.229 -1.1536  2.0091  0.6277
   88SLPC     P 8474   1.963   1.256   2.021  0.1046 -0.0758 -0.3410
   88SLPC   O13 8475   2.017   1.140   1.947 -0.1417 -0.4671 -0.0027
   88SLPC   O14 8476   1.988   1.382   1.949 -0.3189 -0.4408  0.3008
   88SLPC   O12 8477   1.801   1.247   2.052 -0.5952 -0.2246  0.0901
   88SLPC   O11 8478   2.027   1.271   2.158  0.2540  0.1799  0.1342
   88SLPC    C1 8479   2.057   1.162   2.245 -0.3650  0.1474  1.0893
   88SLPC    HA 8480   1.998   1.072   2.219 -0.1403  0.5888 -1.1900
   88SLPC    HB 8481   2.163   1.132   2.227 -0.3350  1.1995 -0.8115
   88SLPC    C2 8482   2.063   1.212   2.393  0.2833 -0.5168 -0.6132
   88SLPC    HS 8483   1.962   1.246   2.424  1.0091  0.7376  0.4954
   88SLPC   O21 8484   2.159   1.319   2.398  0.2260  0.0525  0.2562
   88SLPC   C21 8485   2.109   1.436   2.425 -0.0260  0.2538  0.7734
   88SLPC   O22 8486   1.999   1.463   2.471 -0.0824 -0.4342  0.3996
   88SLPC   C22 8487   2.221   1.534   2.409 -0.4657  0.0558 -0.3265
   88SLPC   H2R 8488   2.273   1.513   2.313 -0.1604 -0.2635 -0.0946
   88SLPC   H2S 8489   2.181   1.638   2.405  1.8253  0.9875 -0.7783
   88SLPC    C3 8490   2.104   1.097   2.480 -0.3984 -0.1826  0.5126
   88SLPC    HX 8491   2.204   1.069   2.439  0.0887 -1.2194  2.3017
   88SLPC    HY 8492   2.039   1.009   2.462 -0.3061  0.1533 -1.7344
   88SLPC   O31 8493   2.111   1.127   2.616  0.2538 -0.7586  0.6888
   88SLPC   C31 8494   1.999   1.159   2.680 -0.1809 -0.4126 -0.0109
   88SLPC   O32 8495   1.883   1.153   2.640 -0.2833  0.4166  0.2534
   88SLPC   C32 8496   2.052   1.188   2.824  0.3580  0.3643  0.3050
   88SLPC   H2X 8497   2.004   1.113   2.890  0.2178  0.7310  0.6206
   88SLPC   H2Y 8498   2.011   1.290   2.844 -0.2171  0.4704 -1.3013
   88SLPC   C23 8499   2.333   1.531   2.516  0.4870 -0.1847 -0.3743
   88SLPC   H3R 8500   2.427   1.576   2.478  1.5266 -1.7327  0.2576
   88SLPC   H3S 8501   2.363   1.425   2.530  0.3855 -0.0770  0.7761
   88SLPC   C24 8502   2.288   1.605   2.644  0.1948 -0.5124 -0.2398
   88SLPC   H4R 8503   2.244   1.526   2.709 -0.5801 -1.1480 -1.4969
   88SLPC   H4S 8504   2.209   1.681   2.622  0.0588 -0.7672 -0.6453
   88SLPC   C25 8505   2.391   1.685   2.720  0.1847  0.4025 -0.3158
   88SLPC   H5R 8506   2.413   1.777   2.661 -1.6148  1.0322 -0.0708
   88SLPC   H5S 8507   2.489   1.633   2.729  1.0999  1.9017 -1.1660
   88SLPC   C26 8508   2.336   1.732   2.856  0.2259 -0.2645  0.5529
   88SLPC   H6R 8509   2.327   1.650   2.930 -0.2692 -0.1975  0.5740
   88SLPC   H6S 8510   2.232   1.767   2.835  0.6975  1.4190  0.8880
   88SLPC   C27 8511   2.391   1.864   2.921 -0.8922  0.3984  0.2952
   88SLPC   H7R 8512   2.491   1.839   2.961 -1.5850  1.9829  3.3815
   88SLPC   H7S 8513   2.337   1.879   3.018  0.7062  0.8452  1.1500
   88SLPC   C28 8514   2.396   2.001   2.845 -0.0117 -0.3099  0.0898
   88SLPC   H8R 8515   2.486   2.010   2.781  0.6620 -0.2675  1.0379
   88SLPC   H8S 8516   2.412   2.082   2.919  0.0505 -0.7542  0.5605
   88SLPC   C29 8517   2.261   2.031   2.769 -0.6407 -0.0608 -0.0045
   88SLPC   H9R 8518   2.255   1.986   2.669 -1.7872  1.4388 -0.6502
   88SLPC  C210 8519   2.154   2.083   2.831 -0.4678 -0.0409 -0.1692
   88SLPC  H10R 8520   2.062   2.096   2.772  0.4418  0.7422 -1.4806
   88SLPC  C211 8521   2.132   2.143   2.973  0.0502  0.2032 -0.1150
   88SLPC  H11R 8522   2.203   2.087   3.037 -1.6953  0.8234  2.5156
   88SLPC  H11S 8523   2.033   2.121   3.019 -0.3974  0.5026 -0.9115
   88SLPC  C212 8524   2.166   2.285   2.987  0.0110  0.4735  0.8119
   88SLPC  H12R 8525   2.202   2.334   2.895 -3.0420 -2.1175 -2.0278
   88SLPC  C213 8526   2.171   2.362   3.097 -0.0661 -0.5601  0.0611
   88SLPC  H13R 8527   2.209   2.463   3.072 -0.3586 -0.0460  1.5763
   88SLPC  C214 8528   2.131   2.342   3.243 -0.1821  0.2089 -0.4612
   88SLPC  H14R 8529   2.145   2.237   3.277 -0.4533 -1.0765 -3.9447
   88SLPC  H14S 8530   2.023   2.365   3.256  0.1407  3.6887 -2.6210
   88SLPC  C215 8531   2.204   2.441   3.335 -0.0675  0.5559  1.1215
   88SLPC  H15R 8532   2.183   2.548   3.311 -0.0346  0.3570  0.1650
   88SLPC  H15S 8533   2.312   2.419   3.323 -0.2611  0.8653 -2.0864
   88SLPC  C216 8534   2.154   2.416   3.484  0.4434 -0.6520 -0.1086
   88SLPC  H16R 8535   2.238   2.430   3.554 -0.0466 -2.5439  0.9281
   88SLPC  H16S 8536   2.117   2.312   3.499 -0.3661 -0.4718 -0.7705
   88SLPC  C217 8537   2.055   2.532   3.523 -0.1016 -0.0508 -0.7591
   88SLPC  H17R 8538   2.016   2.562   3.424  3.0524  1.8176 -1.5422
   88SLPC  H17S 8539   2.117   2.619   3.554 -0.8722  0.6004 -0.9908
   88SLPC  C218 8540   1.952   2.507   3.632  0.2028  0.6222  0.1187
   88SLPC  H18R 8541   1.875   2.435   3.598 -0.1649 -0.1591  2.4112
   88SLPC  H18S 8542   1.897   2.603   3.644  1.3899  1.1906  1.3687
   88SLPC  H18T 8543   2.002   2.464   3.722  1.3137 -0.1578 -0.8464
   88SLPC   C33 8544   2.207   1.219   2.841  0.5992 -0.0939  0.9913
   88SLPC   H3X 8545   2.246   1.288   2.762  1.4876 -0.0742  1.4283
   88SLPC   H3Y 8546   2.255   1.119   2.832 -0.8484 -0.7442  0.2814
   88SLPC   C34 8547   2.238   1.283   2.974 -0.4679 -0.0047  0.2657
   88SLPC   H4X 8548   2.150   1.341   3.010  0.8078  1.8435  0.4897
   88SLPC   H4Y 8549   2.322   1.353   2.961 -1.5985  0.9939 -2.3279
   88SLPC   C35 8550   2.273   1.174   3.079  0.3233 -0.5867 -0.0038
   88SLPC   H5X 8551   2.345   1.105   3.030 -1.8511 -1.2963 -2.4107
   88SLPC   H5Y 8552   2.182   1.112   3.093 -0.8356  0.6662 -1.6613
   88SLPC   C36 8553   2.323   1.224   3.214 -0.2105  0.3538  0.2261
   88SLPC   H6X 8554   2.251   1.297   3.256 -0.7532 -0.1053  0.1078
   88SLPC   H6Y 8555   2.417   1.283   3.207 -1.3021  1.9735 -1.5429
   88SLPC   C37 8556   2.351   1.112   3.316  0.9880  0.0682 -0.1832
   88SLPC   H7X 8557   2.432   1.051   3.271 -0.0829 -0.6905 -1.1519
   88SLPC   H7Y 8558   2.269   1.038   3.333  1.2736 -0.1309  0.3266
   88SLPC   C38 8559   2.408   1.167   3.451  0.1827 -0.0446  0.2932
   88SLPC   H8X 8560   2.334   1.239   3.492 -1.2393 -1.3205  0.0258
   88SLPC   H8Y 8561   2.503   1.222   3.434 -0.0365  0.1564 -0.2895
   88SLPC   C39 8562   2.428   1.061   3.558 -0.5651  1.0511 -0.4672
   88SLPC   H9X 8563   2.526   1.015   3.537 -0.2992  0.9621  0.8727
   88SLPC   H9Y 8564   2.338   0.996   3.555  0.5532 -0.5422 -0.4463
   88SLPC  C310 8565   2.427   1.108   3.704 -0.0848 -0.3477  0.1412
   88SLPC  H10X 8566   2.470   1.030   3.771 -0.6336  1.3719  2.6190
   88SLPC  H10Y 8567   2.323   1.116   3.742 -0.2243  0.6157 -0.4055
   88SLPC  C311 8568   2.512   1.238   3.723 -0.1922  1.0521 -0.4815
   88SLPC  H11X 8569   2.462   1.311   3.657 -2.0920 -0.2105 -0.5404
   88SLPC  H11Y 8570   2.606   1.217   3.667 -1.0340 -2.4679 -0.8008
   88SLPC  C312 8571   2.512   1.305   3.863 -0.3720  0.2731  0.2610
   88SLPC  H12X 8572   2.420   1.277   3.919 -0.8514 -0.0433 -0.6555
   88SLPC  H12Y 8573   2.506   1.415   3.849 -0.4151  0.2481  0.0839
   88SLPC  C313 8574   2.642   1.279   3.949  0.1630 -0.7046  0.4759
   88SLPC  H13X 8575   2.732   1.306   3.890 -0.0177 -0.8286  0.1418
   88SLPC  H13Y 8576   2.657   1.171   3.970  0.7834 -1.0713 -1.5845
   88SLPC  C314 8577   2.644   1.377   4.066 -0.2570  0.3115  0.0731
   88SLPC  H14X 8578   2.555   1.351   4.127 -1.0343  1.2647 -0.6093
   88SLPC  H14Y 8579   2.633   1.482   4.032  0.2217  0.1136 -0.7430
   88SLPC  C315 8580   2.760   1.373   4.165 -0.3365 -0.0968 -0.4335
   88SLPC  H15X 8581   2.853   1.393   4.108  1.0084 -1.4262  1.1986
   88SLPC  H15Y 8582   2.761   1.272   4.213  1.5238  0.2474  0.3127
   88SLPC  C316 8583   2.744   1.470   4.278  0.1552 -0.1295 -0.0987
   88SLPC  H16X 8584   2.644   1.455   4.325  0.7148 -0.3862  1.0484
   88SLPC  H16Y 8585   2.745   1.575   4.242  1.2681  0.5242  1.6824
   88SLPC  C317 8586   2.854   1.458   4.391  0.1340  0.8793 -0.0657
   88SLPC  H17X 8587   2.866   1.355   4.432 -2.5779  0.6210  0.3022
   88SLPC  H17Y 8588   2.823   1.507   4.486  1.1178  0.3167  0.5643
   88SLPC  C318 8589   2.995   1.503   4.352  0.0368 -0.0328  0.1861
   88SLPC  H18X 8590   2.989   1.605   4.310 -1.5555 -1.1865 -2.6462
   88SLPC  H18Y 8591   3.036   1.436   4.273 -0.0944 -0.9465  0.8719
   88SLPC  H18Z 8592   3.063   1.506   4.440 -1.7003 -2.6977  1.7699
   89SAPE     N 8593   6.308   6.345   7.197 -0.2062  0.3992 -1.2344
   89SAPE   HN1 8594   6.310   6.253   7.247 -1.5474  0.3593 -1.2008
   89SAPE   HN2 8595   6.339   6.321   7.101  1.2597  0.7960 -0.8810
   89SAPE   HN3 8596   6.380   6.411   7.231 -1.4852  0.3512  1.9006
   89SAPE   C12 8597   6.171   6.405   7.183 -0.7306 -0.6030  0.2655
   89SAPE  H12A 8598   6.145   6.448   7.282  1.0178 -0.9043  0.8876
   89SAPE  H12B 8599   6.097   6.323   7.173 -0.9302 -0.2983 -0.8962
   89SAPE   C11 8600   6.149   6.508   7.071 -0.2210  0.0637  0.7040
   89SAPE  H11A 8601   6.213   6.594   7.098  0.6020  0.3318 -1.8256
   89SAPE  H11B 8602   6.044   6.543   7.086 -0.1195  0.7814 -0.2076
   89SAPE     P 8603   6.040   6.366   6.870 -0.0486 -0.4047 -0.1084
   89SAPE   O13 8604   6.009   6.242   6.945 -0.0452 -0.7705  0.8341
   89SAPE   O14 8605   5.929   6.457   6.855  0.4298 -0.2994  0.1425
   89SAPE   O12 8606   6.165   6.443   6.944 -1.0999 -0.3736  0.1525
   89SAPE   O11 8607   6.095   6.324   6.732 -0.0057 -0.2390 -0.5141
   89SAPE    C1 8608   6.236   6.319   6.713 -0.4268 -0.1248  1.3608
   89SAPE    HA 8609   6.271   6.424   6.706 -0.8908 -0.0742 -0.8279
   89SAPE    HB 8610   6.293   6.276   6.798  1.0188  2.1213  1.5976
   89SAPE    C2 8611   6.272   6.251   6.576  0.8688 -0.1602  0.2211
   89SAPE    HS 8612   6.365   6.291   6.532  0.8377 -0.0957  0.2133
   89SAPE   O21 8613   6.162   6.270   6.480 -0.0534 -0.5615 -0.8275
   89SAPE   C21 8614   6.155   6.394   6.433 -0.4323 -0.3182 -0.0709
   89SAPE   O22 8615   6.236   6.483   6.458 -0.6762 -0.0653  0.3988
   89SAPE   C22 8616   6.025   6.407   6.353  0.1987  0.7756 -0.4938
   89SAPE   H2R 8617   5.940   6.417   6.424 -0.1437 -1.6471 -0.4734
   89SAPE   H2S 8618   6.021   6.501   6.294 -2.8735  0.0707 -1.5798
   89SAPE    C3 8619   6.290   6.105   6.582  0.6203  0.5924 -0.4916
   89SAPE    HX 8620   6.192   6.053   6.591 -1.4069  3.7255 -2.5381
   89SAPE    HY 8621   6.340   6.083   6.679 -0.3796  1.6947  0.2940
   89SAPE   O31 8622   6.376   6.052   6.476 -0.0543 -0.1569 -0.1549
   89SAPE   C31 8623   6.318   5.972   6.390 -0.3487  0.0675  0.5179
   89SAPE   O32 8624   6.198   5.965   6.369 -0.0346 -0.2870  0.5533
   89SAPE   C32 8625   6.431   5.884   6.327  0.2386  0.3800 -0.0597
   89SAPE   H2X 8626   6.448   5.798   6.395  0.3800 -0.0231 -0.6008
   89SAPE   H2Y 8627   6.527   5.940   6.315  0.5355 -0.3948 -1.4909
   89SAPE   C23 8628   5.996   6.289   6.253 -0.7027  0.3756  0.1910
   89SAPE   H3R 8629   5.893   6.303   6.213 -0.2304  1.6138 -0.6465
   89SAPE   H3S 8630   6.004   6.187   6.296  2.5323  0.9078  1.1541
   89SAPE   C24 8631   6.094   6.291   6.128  0.4302 -0.1106 -0.2789
   89SAPE   H4R 8632   6.193   6.290   6.179  0.7219  0.7992 -0.8091
   89SAPE   H4S 8633   6.084   6.392   6.084 -0.3622  0.9368  2.1461
   89SAPE   C25 8634   6.097   6.178   6.030  0.0726 -0.0189 -0.4661
   89SAPE   H5R 8635   6.076   6.077   6.068 -1.2465  0.3112 -0.2596
   89SAPE   C26 8636   6.104   6.191   5.897 -1.2403 -0.3123  0.2435
   89SAPE   H6R 8637   6.094   6.106   5.828  0.7859  1.1268 -2.0063
   89SAPE   C27 8638   6.122   6.310   5.806  0.3184  0.4020 -0.8431
   89SAPE   H7R 8639   6.102   6.406   5.858  1.3378 -0.0296  0.3943
   89SAPE   H7S 8640   6.041   6.301   5.731 -0.1823 -0.0801 -0.2493
   89SAPE   C28 8641   6.255   6.318   5.739 -0.4929 -0.9368  0.1143
   89SAPE   H8R 8642   6.339   6.327   5.810 -0.0471  0.4304 -0.5506
   89SAPE   C29 8643   6.285   6.336   5.607 -0.2349  0.1820  0.0015
   89SAPE   H9R 8644   6.385   6.357   5.566 -1.7447  0.4582 -4.0365
   89SAPE  C210 8645   6.183   6.325   5.496  0.1786  0.0219 -0.1226
   89SAPE  H10R 8646   6.085   6.283   5.527 -0.0065 -0.0434 -0.7790
   89SAPE  H10S 8647   6.223   6.242   5.433  1.9905  1.3482 -0.8046
   89SAPE  C211 8648   6.158   6.450   5.419  0.4746  0.1487  0.2906
   89SAPE  H11R 8649   6.090   6.525   5.462 -0.9578 -0.7250 -0.3883
   89SAPE  C212 8650   6.209   6.471   5.298 -0.3434  0.1140 -0.4396
   89SAPE  H12R 8651   6.190   6.571   5.258  1.9552  0.6065 -0.4291
   89SAPE  C213 8652   6.292   6.380   5.211  0.3590 -0.5725 -0.6288
   89SAPE  H13R 8653   6.214   6.324   5.155 -0.8582  0.8648 -0.4403
   89SAPE  H13S 8654   6.351   6.303   5.265 -0.0323 -1.0369 -0.8579
   89SAPE  C214 8655   6.380   6.458   5.113 -0.6636  0.3533  0.5468
   89SAPE  H14R 8656   6.486   6.470   5.139 -0.3111  0.1915 -0.7441
   89SAPE  C215 8657   6.330   6.526   5.004  0.0365  1.4948 -0.6146
   89SAPE  H15R 8658   6.405   6.572   4.938  1.7442 -0.9783 -0.5304
   89SAPE  C216 8659   6.191   6.531   4.946 -0.2394 -0.3963 -0.4000
   89SAPE  H16R 8660   6.169   6.639   4.937  1.2015  0.2067  2.3841
   89SAPE  H16S 8661   6.111   6.477   5.001  1.2343 -1.7369  0.4975
   89SAPE  C217 8662   6.205   6.488   4.797 -0.3017  0.4800  0.5180
   89SAPE  H17R 8663   6.277   6.554   4.744 -1.6100 -1.0100 -3.5326
   89SAPE  H17S 8664   6.111   6.514   4.745  0.3287  0.7195 -0.5383
   89SAPE  C218 8665   6.232   6.338   4.777 -0.3803 -0.1824 -0.3311
   89SAPE  H18R 8666   6.329   6.319   4.829 -0.7626  0.1109  0.5137
   89SAPE  H18S 8667   6.230   6.326   4.667 -0.2401  0.1479 -0.3705
   89SAPE  C219 8668   6.127   6.234   4.833  0.4784  0.5462  0.3007
   89SAPE  H19R 8669   6.025   6.269   4.805  1.0119  1.4366 -0.5647
   89SAPE  H19S 8670   6.135   6.255   4.942  1.4639  0.7527  0.1939
   89SAPE  C220 8671   6.161   6.089   4.796 -0.0641 -0.2385 -0.1967
   89SAPE  H20R 8672   6.104   6.013   4.853 -0.3674  0.9636  1.1873
   89SAPE  H20S 8673   6.270   6.073   4.810  0.3374 -0.5681 -3.1854
   89SAPE  H20T 8674   6.141   6.065   4.690  1.6459 -1.5307 -0.2854
   89SAPE   C33 8675   6.381   5.829   6.192  0.9025 -0.6017 -0.6901
   89SAPE   H3X 8676   6.328   5.905   6.131 -2.4989 -0.4485  2.0998
   89SAPE   H3Y 8677   6.306   5.748   6.204  0.7149 -0.4872 -1.0684
   89SAPE   C34 8678   6.486   5.753   6.112 -0.4681  0.7556  0.1325
   89SAPE   H4X 8679   6.520   5.661   6.165 -1.7296  0.4960  0.5412
   89SAPE   H4Y 8680   6.575   5.815   6.088 -1.4569  2.4726  0.6850
   89SAPE   C35 8681   6.429   5.707   5.972  0.0709  0.4606  0.3254
   89SAPE   H5X 8682   6.334   5.655   5.995 -0.1821  1.7617  2.4283
   89SAPE   H5Y 8683   6.499   5.637   5.921 -1.8663  0.1950 -2.1451
   89SAPE   C36 8684   6.409   5.820   5.866  0.2628  0.0520  0.9266
   89SAPE   H6X 8685   6.511   5.861   5.849 -0.1293  0.6695 -0.0328
   89SAPE   H6Y 8686   6.349   5.906   5.903 -0.0057 -0.2984  1.3122
   89SAPE   C37 8687   6.347   5.767   5.736  0.4299  0.1681 -0.5760
   89SAPE   H7X 8688   6.238   5.752   5.749 -0.3311  4.3198 -0.5658
   89SAPE   H7Y 8689   6.395   5.673   5.702 -1.6123 -0.4047 -2.0302
   89SAPE   C38 8690   6.365   5.872   5.623  0.4098 -0.6594  0.0223
   89SAPE   H8X 8691   6.475   5.887   5.616  0.6497 -0.8760  2.3576
   89SAPE   H8Y 8692   6.336   5.976   5.649  1.9382  0.8828 -3.7230
   89SAPE   C39 8693   6.295   5.831   5.489  0.2771  0.2648  0.4443
   89SAPE   H9X 8694   6.187   5.857   5.481 -0.1186 -0.9620  1.4008
   89SAPE   H9Y 8695   6.300   5.720   5.490  0.3360  0.2668  0.9016
   89SAPE  C310 8696   6.389   5.872   5.372 -0.3909 -0.3025  0.0432
   89SAPE  H10X 8697   6.483   5.818   5.399 -0.6930 -0.4526  0.8348
   89SAPE  H10Y 8698   6.410   5.981   5.376  0.1877 -0.3800 -0.7239
   89SAPE  C311 8699   6.335   5.837   5.229 -0.6723 -0.8549 -0.2269
   89SAPE  H11X 8700   6.225   5.856   5.221 -0.4350  0.2344 -1.2153
   89SAPE  H11Y 8701   6.346   5.728   5.216  0.5938 -0.8564  0.7108
   89SAPE  C312 8702   6.417   5.910   5.123 -0.1821  0.6965  0.2403
   89SAPE  H12X 8703   6.521   5.895   5.157 -0.3031 -1.9611 -0.3050
   89SAPE  H12Y 8704   6.377   6.013   5.115 -3.8441 -0.6360 -0.7904
   89SAPE  C313 8705   6.386   5.845   4.986  0.4842  0.4564 -0.7173
   89SAPE  H13X 8706   6.281   5.863   4.952  0.3255 -0.9343 -1.0441
   89SAPE  H13Y 8707   6.409   5.736   4.992  1.5140  0.6708 -0.6482
   89SAPE  C314 8708   6.478   5.895   4.875 -0.9249  0.2952 -0.5065
   89SAPE  H14X 8709   6.581   5.877   4.913 -1.1583 -0.2331 -0.1066
   89SAPE  H14Y 8710   6.472   6.002   4.848 -0.3190  0.9205  1.6308
   89SAPE  C315 8711   6.462   5.816   4.745  0.1795  0.7971  0.3866
   89SAPE  H15X 8712   6.353   5.823   4.721  0.4136  0.0761 -0.9546
   89SAPE  H15Y 8713   6.467   5.707   4.768  1.0213  0.3649 -1.6710
   89SAPE  C316 8714   6.544   5.859   4.621  0.8118  0.0704 -0.0374
   89SAPE  H16X 8715   6.494   5.951   4.587 -0.2087 -0.1661  0.7942
   89SAPE  H16Y 8716   6.532   5.775   4.549  0.6601 -0.8941  1.0767
   89SAPE  C317 8717   6.692   5.876   4.652  0.4377  0.4785 -0.2187
   89SAPE  H17X 8718   6.733   5.777   4.683  0.2339  0.0750 -1.2081
   89SAPE  H17Y 8719   6.714   5.940   4.740  1.7332 -0.5378  0.2256
   89SAPE  C318 8720   6.782   5.920   4.536 -0.4946  0.1222 -0.2553
   89SAPE  H18X 8721   6.878   5.946   4.586 -0.3407 -0.3945 -0.2733
   89SAPE  H18Y 8722   6.729   6.009   4.497  0.0376  0.6866  0.2928
   89SAPE  H18Z 8723   6.783   5.843   4.456 -0.9529  0.8881 -1.0115
   90SAPE     N 8724   4.158   4.252   6.462 -0.6619  0.2872 -0.2154
   90SAPE   HN1 8725   4.221   4.237   6.543 -2.0509 -3.1811  0.3877
   90SAPE   HN2 8726   4.097   4.332   6.488  0.7770  0.5638  2.6335
   90SAPE   HN3 8727   4.091   4.172   6.458 -1.6251  1.1074 -1.0925
   90SAPE   C12 8728   4.234   4.270   6.330 -0.1294 -0.2176  0.7663
   90SAPE  H12A 8729   4.290   4.366   6.328 -0.6098  0.0837 -1.5397
   90SAPE  H12B 8730   4.162   4.271   6.245 -2.0262 -1.3500  2.2980
   90SAPE   C11 8731   4.339   4.157   6.331  0.4815  0.1520 -0.4451
   90SAPE  H11A 8732   4.405   4.154   6.241  1.1326  0.9826 -0.0128
   90SAPE  H11B 8733   4.286   4.060   6.328  0.0840  0.3801 -1.0581
   90SAPE     P 8734   4.566   4.126   6.455 -0.4773  0.1983 -0.1529
   90SAPE   O13 8735   4.630   4.200   6.564 -0.1359 -0.0618 -0.5143
   90SAPE   O14 8736   4.595   3.978   6.444  0.5465 -0.4127 -0.1637
   90SAPE   O12 8737   4.410   4.160   6.457 -0.1152 -0.2881  0.5144
   90SAPE   O11 8738   4.615   4.196   6.326  0.0687 -0.6179  0.1304
   90SAPE    C1 8739   4.746   4.256   6.329 -0.2535  0.1823  0.8102
   90SAPE    HA 8740   4.740   4.348   6.392 -1.5119 -0.7195  2.0878
   90SAPE    HB 8741   4.819   4.187   6.376  0.2078 -0.5825 -0.9539
   90SAPE    C2 8742   4.792   4.280   6.185  0.7528  0.0868 -0.4668
   90SAPE    HS 8743   4.903   4.286   6.181  0.7941 -0.1607  0.2213
   90SAPE   O21 8744   4.733   4.401   6.152  0.1757 -0.1313  0.3697
   90SAPE   C21 8745   4.796   4.476   6.063 -0.3006  0.0751  0.0049
   90SAPE   O22 8746   4.912   4.462   6.026  0.4085 -0.3787 -0.6364
   90SAPE   C22 8747   4.710   4.592   6.027 -0.1227 -0.2914  0.3426
   90SAPE   H2R 8748   4.656   4.630   6.117 -1.8964 -1.9428  0.0452
   90SAPE   H2S 8749   4.775   4.672   5.988 -0.8452 -1.0134 -2.5829
   90SAPE    C3 8750   4.744   4.169   6.085 -0.1533  0.0899  0.9127
   90SAPE    HX 8751   4.634   4.185   6.091 -0.2530 -0.2665  0.1256
   90SAPE    HY 8752   4.759   4.065   6.123 -0.1819 -0.9205 -1.6224
   90SAPE   O31 8753   4.782   4.189   5.947 -0.1212 -0.3829  0.1927
   90SAPE   C31 8754   4.910   4.146   5.923  1.0981  0.2432 -1.0095
   90SAPE   O32 8755   4.974   4.086   6.007  0.1527  0.3479  0.2790
   90SAPE   C32 8756   4.949   4.177   5.779  0.1499  0.2876  0.5486
   90SAPE   H2X 8757   5.048   4.225   5.796  0.5728 -0.7705  1.1707
   90SAPE   H2Y 8758   4.877   4.247   5.731 -0.7547 -1.5331 -0.8752
   90SAPE   C23 8759   4.606   4.552   5.913 -0.3168  0.7789  0.6502
   90SAPE   H3R 8760   4.529   4.631   5.902 -0.8036  0.3557  0.9413
   90SAPE   H3S 8761   4.544   4.463   5.936 -2.0294  0.8261 -3.0906
   90SAPE   C24 8762   4.682   4.527   5.781 -0.1961  0.4586  0.3453
   90SAPE   H4R 8763   4.603   4.496   5.709 -1.5217 -1.1286  2.3672
   90SAPE   H4S 8764   4.739   4.432   5.790 -1.9933 -0.5917  1.2239
   90SAPE   C25 8765   4.753   4.645   5.725 -0.1580 -0.3563  0.4440
   90SAPE   H5R 8766   4.850   4.673   5.768 -0.2763 -1.2855  1.3703
   90SAPE   C26 8767   4.730   4.708   5.611 -0.1556  1.2403 -0.2214
   90SAPE   H6R 8768   4.795   4.796   5.597  2.9003 -0.6252  1.2252
   90SAPE   C27 8769   4.622   4.695   5.505 -0.3516  0.0238 -0.1601
   90SAPE   H7R 8770   4.542   4.767   5.533 -1.4631 -1.9930  2.2668
   90SAPE   H7S 8771   4.585   4.591   5.497 -0.6812 -0.0489  1.7736
   90SAPE   C28 8772   4.683   4.743   5.376 -0.2880 -0.1020  0.0553
   90SAPE   H8R 8773   4.708   4.850   5.369 -1.7956  0.2456 -0.3690
   90SAPE   C29 8774   4.710   4.673   5.265 -0.1068 -0.6168  0.3812
   90SAPE   H9R 8775   4.780   4.719   5.192  0.4120 -0.5164  0.9351
   90SAPE  C210 8776   4.674   4.529   5.239 -0.2024 -0.5070  0.2413
   90SAPE  H10R 8777   4.608   4.533   5.150 -0.3631 -1.4622  0.2978
   90SAPE  H10S 8778   4.616   4.477   5.318 -1.1012 -0.6589 -0.5027
   90SAPE  C211 8779   4.792   4.437   5.219 -0.3622 -0.0655  0.2530
   90SAPE  H11R 8780   4.866   4.439   5.300 -0.1666 -2.5165  0.2189
   90SAPE  C212 8781   4.832   4.377   5.105 -0.3410  0.1781 -1.0260
   90SAPE  H12R 8782   4.934   4.336   5.094  0.2975  1.8927 -2.0213
   90SAPE  C213 8783   4.746   4.363   4.984 -0.3163 -0.2306  0.1233
   90SAPE  H13R 8784   4.645   4.408   4.998  0.2713  1.0452  0.3988
   90SAPE  H13S 8785   4.731   4.253   4.983 -0.5376 -0.1996 -0.1849
   90SAPE  C214 8786   4.794   4.409   4.844  0.1574 -1.1008  0.8353
   90SAPE  H14R 8787   4.831   4.513   4.844 -1.0126 -0.6615 -0.4636
   90SAPE  C215 8788   4.825   4.330   4.739  0.2620 -1.0897 -0.1385
   90SAPE  H15R 8789   4.859   4.377   4.645 -0.0665 -0.7854 -0.1091
   90SAPE  C216 8790   4.789   4.193   4.713 -0.6629 -0.1188 -0.4210
   90SAPE  H16R 8791   4.756   4.141   4.805  1.7609 -0.4412  0.3103
   90SAPE  H16S 8792   4.884   4.140   4.693 -0.0582 -0.0066  1.8851
   90SAPE  C217 8793   4.694   4.176   4.590 -0.2305 -0.1434  0.3363
   90SAPE  H17R 8794   4.591   4.211   4.610 -1.1556 -1.6324 -1.5151
   90SAPE  H17S 8795   4.698   4.066   4.575  0.2876 -0.1394  0.4108
   90SAPE  C218 8796   4.738   4.235   4.455  0.0567 -0.1181 -0.2439
   90SAPE  H18R 8797   4.847   4.256   4.448  0.6390 -2.9527 -0.8308
   90SAPE  H18S 8798   4.677   4.328   4.441 -2.0900 -1.7140 -2.4822
   90SAPE  C219 8799   4.702   4.141   4.337 -0.2058  0.0479  0.1063
   90SAPE  H19R 8800   4.758   4.046   4.340 -2.0525 -1.1420 -0.9889
   90SAPE  H19S 8801   4.743   4.191   4.246  0.2420  1.2482  0.9425
   90SAPE  C220 8802   4.549   4.120   4.328  0.0158 -0.1964  0.1596
   90SAPE  H20R 8803   4.492   4.214   4.343 -1.3177 -1.0925  0.8604
   90SAPE  H20S 8804   4.521   4.045   4.405  0.3631 -0.8761 -0.3605
   90SAPE  H20T 8805   4.517   4.073   4.232  0.3756  1.2119 -0.6789
   90SAPE   C33 8806   4.961   4.049   5.696  0.7633 -0.7197  0.1619
   90SAPE   H3X 8807   4.870   3.987   5.714  1.1926 -1.2956  0.3766
   90SAPE   H3Y 8808   5.045   3.984   5.729  1.0755 -0.0108  0.7884
   90SAPE   C34 8809   4.979   4.091   5.549 -0.4805  0.4268  0.1924
   90SAPE   H4X 8810   5.074   4.148   5.535 -0.1328 -0.4875 -1.3982
   90SAPE   H4Y 8811   4.900   4.155   5.504 -0.1315  1.4219  0.9503
   90SAPE   C35 8812   4.999   3.974   5.451 -0.6087  0.3435  0.1599
   90SAPE   H5X 8813   4.917   3.902   5.469  1.4042 -1.6425  2.1178
   90SAPE   H5Y 8814   5.093   3.921   5.478 -0.7217 -0.0982 -0.2958
   90SAPE   C36 8815   5.005   4.020   5.305 -0.8696  0.1218  0.1241
   90SAPE   H6X 8816   5.091   4.090   5.306 -1.7568  1.2384  1.3098
   90SAPE   H6Y 8817   4.911   4.070   5.274 -1.0474  0.1980  0.7741
   90SAPE   C37 8818   5.042   3.894   5.222  0.2787  0.0877  0.3326
   90SAPE   H7X 8819   4.958   3.821   5.221  1.2859 -1.1028 -0.7142
   90SAPE   H7Y 8820   5.135   3.855   5.269  0.6479 -0.8225 -1.1055
   90SAPE   C38 8821   5.062   3.940   5.079 -0.1582  0.0201 -0.2180
   90SAPE   H8X 8822   5.143   4.014   5.066  1.1111 -0.3313  4.0380
   90SAPE   H8Y 8823   4.967   3.995   5.060 -1.7265 -2.3093  0.3291
   90SAPE   C39 8824   5.063   3.823   4.983 -0.0050  0.1133  0.0012
   90SAPE   H9X 8825   4.976   3.757   5.005 -0.9423  0.2664 -2.9270
   90SAPE   H9Y 8826   5.158   3.767   4.994  0.3212  0.5169 -0.7182
   90SAPE  C310 8827   5.029   3.851   4.841  0.0324  0.5277  0.5491
   90SAPE  H10X 8828   5.108   3.916   4.798 -0.4291  0.9320  0.2974
   90SAPE  H10Y 8829   4.935   3.908   4.826 -0.7907 -1.1605 -1.2198
   90SAPE  C311 8830   5.019   3.718   4.754 -0.3587 -0.3142 -0.1340
   90SAPE  H11X 8831   5.102   3.655   4.793 -0.3771  0.7077  1.6531
   90SAPE  H11Y 8832   5.029   3.746   4.646  0.7232  2.3840  0.5820
   90SAPE  C312 8833   4.884   3.646   4.769 -0.6431 -0.7733 -0.0734
   90SAPE  H12X 8834   4.848   3.648   4.873 -0.9215 -2.1125 -0.1282
   90SAPE  H12Y 8835   4.903   3.538   4.751 -0.2607 -0.7331  0.0667
   90SAPE  C313 8836   4.777   3.718   4.681  0.3409 -0.2055  0.4350
   90SAPE  H13X 8837   4.783   3.826   4.704  2.2808  0.1355 -1.2980
   90SAPE  H13Y 8838   4.674   3.687   4.706 -0.5192  2.3935  0.3189
   90SAPE  C314 8839   4.798   3.711   4.531 -0.5091  0.3349  0.3878
   90SAPE  H14X 8840   4.840   3.615   4.495 -3.0839 -1.3918  1.6535
   90SAPE  H14Y 8841   4.866   3.789   4.490 -2.4470  1.8025 -0.2100
   90SAPE  C315 8842   4.669   3.730   4.449 -0.6620 -0.6503 -0.4602
   90SAPE  H15X 8843   4.616   3.819   4.489  2.4797  0.4665  1.6325
   90SAPE  H15Y 8844   4.615   3.637   4.476 -0.3196 -0.7549 -0.1284
   90SAPE  C316 8845   4.692   3.729   4.297  0.3157  0.2192 -0.2758
   90SAPE  H16X 8846   4.740   3.630   4.277  0.9001  0.0118  1.9807
   90SAPE  H16Y 8847   4.762   3.812   4.272  0.3867 -0.5404 -2.9968
   90SAPE  C317 8848   4.573   3.745   4.208  0.1758 -0.0685 -0.3437
   90SAPE  H17X 8849   4.592   3.770   4.101  1.5719 -0.8391 -0.2922
   90SAPE  H17Y 8850   4.509   3.822   4.255 -0.4473 -1.8804  1.9848
   90SAPE  C318 8851   4.478   3.629   4.212  0.0359 -0.1290  0.8239
   90SAPE  H18X 8852   4.421   3.626   4.308  1.5011 -0.5038  1.7224
   90SAPE  H18Y 8853   4.533   3.532   4.203 -0.9780 -0.7961  1.5576
   90SAPE  H18Z 8854   4.410   3.627   4.125  0.6419 -2.6201  0.3229
   91SAPE     N 8855   5.631   0.365   6.553  0.0368 -0.4568  0.1563
   91SAPE   HN1 8856   5.576   0.330   6.472 -0.8150  0.8458  0.1450
   91SAPE   HN2 8857   5.560   0.432   6.589 -1.8393 -2.7557  0.9836
   91SAPE   HN3 8858   5.716   0.421   6.529 -1.4877  1.1011 -1.9894
   91SAPE   C12 8859   5.677   0.254   6.636 -0.0594 -0.5615  0.3462
   91SAPE  H12A 8860   5.617   0.162   6.618  0.5499 -0.7999 -0.5193
   91SAPE  H12B 8861   5.671   0.289   6.742 -1.1569  0.3406  0.0072
   91SAPE   C11 8862   5.825   0.241   6.595  0.7813  0.2735 -0.2867
   91SAPE  H11A 8863   5.828   0.213   6.487  1.5277 -0.6773 -0.0440
   91SAPE  H11B 8864   5.871   0.169   6.667 -1.1489  0.6880  1.4496
   91SAPE     P 8865   5.942   0.434   6.748  0.4274  0.0642  0.4446
   91SAPE   O13 8866   5.942   0.580   6.732  0.6807 -0.5621  0.3121
   91SAPE   O14 8867   5.867   0.379   6.860  1.0881  0.1683 -0.1175
   91SAPE   O12 8868   5.888   0.367   6.612  0.0222 -0.2672  0.1477
   91SAPE   O11 8869   6.092   0.381   6.769 -0.0847  0.4782  0.0031
   91SAPE    C1 8870   6.197   0.431   6.677  0.0146 -0.3349 -0.2863
   91SAPE    HA 8871   6.185   0.539   6.654  2.1005  0.4512  1.8316
   91SAPE    HB 8872   6.292   0.417   6.734  0.3812 -1.4087 -1.1250
   91SAPE    C2 8873   6.221   0.355   6.549  0.2916  0.4546  0.0220
   91SAPE    HS 8874   6.317   0.386   6.503  0.1810  0.8195  0.0353
   91SAPE   O21 8875   6.112   0.366   6.458 -0.3397 -0.3127  0.1590
   91SAPE   C21 8876   6.059   0.470   6.412 -0.4785 -0.3665  0.5703
   91SAPE   O22 8877   6.078   0.587   6.446  0.5050  0.4089  0.1707
   91SAPE   C22 8878   5.975   0.447   6.288  0.1604  0.4582  0.3064
   91SAPE   H2R 8879   5.906   0.363   6.310 -0.8670  1.6994  2.1263
   91SAPE   H2S 8880   5.923   0.542   6.261 -1.5006 -1.2064 -2.9716
   91SAPE    C3 8881   6.241   0.208   6.582  0.1143 -0.1914 -0.1005
   91SAPE    HX 8882   6.143   0.168   6.616  0.1045  1.4461  2.0031
   91SAPE    HY 8883   6.310   0.197   6.669  0.7531  2.3399 -0.2282
   91SAPE   O31 8884   6.284   0.131   6.465 -0.5956  0.0279 -0.7595
   91SAPE   C31 8885   6.189   0.053   6.408 -0.8731 -0.9423 -0.2081
   91SAPE   O32 8886   6.087   0.003   6.447  0.0166  0.2823 -0.0154
   91SAPE   C32 8887   6.244   0.022   6.267 -0.2049  0.1336 -0.9709
   91SAPE   H2X 8888   6.344  -0.026   6.266 -1.3192 -2.3289 -1.0423
   91SAPE   H2Y 8889   6.247   0.124   6.224 -0.8861  1.1785  1.3357
   91SAPE   C23 8890   6.050   0.394   6.163  0.0075 -0.0790  1.1261
   91SAPE   H3R 8891   6.105   0.302   6.193 -0.9095 -0.6304  1.1905
   91SAPE   H3S 8892   6.125   0.469   6.130 -0.3462 -0.3575 -0.4182
   91SAPE   C24 8893   5.967   0.350   6.039  0.7766 -0.0192  0.1387
   91SAPE   H4R 8894   6.027   0.318   5.951  0.5954 -0.9341  0.3393
   91SAPE   H4S 8895   5.921   0.446   6.007 -1.1582 -0.3464  1.7866
   91SAPE   C25 8896   5.859   0.246   6.067  0.0381 -0.1000  0.4633
   91SAPE   H5R 8897   5.893   0.152   6.113  0.3312  0.9236  2.4577
   91SAPE   C26 8898   5.731   0.249   6.034  0.2806  0.1210 -0.3276
   91SAPE   H6R 8899   5.674   0.159   6.061  1.7565 -0.6941  0.2543
   91SAPE   C27 8900   5.660   0.363   5.960  0.1801 -0.0757  0.0517
   91SAPE   H7R 8901   5.604   0.310   5.880 -1.6483 -0.7876  1.7388
   91SAPE   H7S 8902   5.732   0.427   5.905  0.7520  0.9091  1.8752
   91SAPE   C28 8903   5.575   0.455   6.048 -0.3662  0.5336  0.4451
   91SAPE   H8R 8904   5.604   0.449   6.154 -3.5124 -1.9266  1.3243
   91SAPE   C29 8905   5.472   0.534   6.012  0.0808  0.2386 -0.1976
   91SAPE   H9R 8906   5.434   0.603   6.089 -0.1250 -1.6968  1.5242
   91SAPE  C210 8907   5.421   0.568   5.875  0.4405  0.0234 -0.7056
   91SAPE  H10R 8908   5.461   0.497   5.798 -0.0926 -1.3498  0.2456
   91SAPE  H10S 8909   5.462   0.667   5.849 -0.3112  0.6305  0.3606
   91SAPE  C211 8910   5.273   0.585   5.865  0.5297  0.4236  0.7565
   91SAPE  H11R 8911   5.214   0.574   5.957 -0.2507  2.8942  0.6291
   91SAPE  C212 8912   5.200   0.595   5.751  0.0571 -0.4749  0.8032
   91SAPE  H12R 8913   5.091   0.584   5.742  0.3407 -1.9127 -1.8010
   91SAPE  C213 8914   5.260   0.609   5.612  0.8895  0.3227 -0.8823
   91SAPE  H13R 8915   5.252   0.509   5.564  1.8085  1.1691 -2.8976
   91SAPE  H13S 8916   5.369   0.627   5.610  0.8321  0.7394 -0.6077
   91SAPE  C214 8917   5.195   0.719   5.524 -0.1571  0.4963  0.0998
   91SAPE  H14R 8918   5.153   0.807   5.575  0.8164  1.4972 -0.7610
   91SAPE  C215 8919   5.185   0.733   5.389 -0.1685  0.4336  0.1535
   91SAPE  H15R 8920   5.137   0.821   5.345  2.6437  0.9736 -2.1354
   91SAPE  C216 8921   5.262   0.650   5.290  0.6697  0.0557  0.2725
   91SAPE  H16R 8922   5.315   0.567   5.340 -0.7792 -0.3165  1.2778
   91SAPE  H16S 8923   5.341   0.715   5.248  1.0388  0.3025  1.3127
   91SAPE  C217 8924   5.171   0.589   5.186 -0.3718 -0.5362  0.1912
   91SAPE  H17R 8925   5.107   0.673   5.151 -0.6096 -0.0697  1.6881
   91SAPE  H17S 8926   5.102   0.517   5.234 -0.0772 -1.4702 -0.7422
   91SAPE  C218 8927   5.247   0.507   5.083  0.3025 -0.5754  0.8093
   91SAPE  H18R 8928   5.322   0.442   5.134  2.5322  1.9885  1.0129
   91SAPE  H18S 8929   5.323   0.576   5.039  0.3223  0.2378  2.0787
   91SAPE  C219 8930   5.145   0.440   4.986 -0.5837 -0.2387 -0.4337
   91SAPE  H19R 8931   5.093   0.524   4.935 -0.3479  1.5560  2.1211
   91SAPE  H19S 8932   5.068   0.386   5.045  1.0655 -0.6563  1.4372
   91SAPE  C220 8933   5.211   0.344   4.882  0.1039  0.1778 -0.1683
   91SAPE  H20R 8934   5.300   0.385   4.830  0.6767 -0.1329  0.5612
   91SAPE  H20S 8935   5.151   0.300   4.799  1.4971 -0.2602 -0.9741
   91SAPE  H20T 8936   5.257   0.257   4.932 -1.3070 -1.3112 -1.3332
   91SAPE   C33 8937   6.146  -0.048   6.172 -0.5922  0.2411  1.0997
   91SAPE   H3X 8938   6.050   0.003   6.194  0.0599  1.3024  1.6173
   91SAPE   H3Y 8939   6.134  -0.156   6.196  0.6853 -0.7895 -2.2516
   91SAPE   C34 8940   6.184  -0.012   6.024  0.0288 -0.0736  0.0086
   91SAPE   H4X 8941   6.170   0.096   6.003  0.4026  0.0810  0.5363
   91SAPE   H4Y 8942   6.107  -0.055   5.956 -0.4612  0.2308  0.3711
   91SAPE   C35 8943   6.319  -0.059   5.974  0.0882 -0.3269  0.3188
   91SAPE   H5X 8944   6.399  -0.014   6.037 -1.4949 -0.1753  2.3292
   91SAPE   H5Y 8945   6.338  -0.016   5.874  1.3392  1.5754  1.3052
   91SAPE   C36 8946   6.337  -0.205   5.975  0.1336  1.7152 -0.0602
   91SAPE   H6X 8947   6.264  -0.263   5.913  1.3784  0.1385 -0.1279
   91SAPE   H6Y 8948   6.338  -0.248   6.077 -0.0450 -0.7404 -1.0167
   91SAPE   C37 8949   6.470  -0.246   5.913  0.0345 -0.0859  0.3267
   91SAPE   H7X 8950   6.467  -0.355   5.932  2.8209 -0.5343 -1.2281
   91SAPE   H7Y 8951   6.559  -0.210   5.969  0.7130 -0.1194 -0.7005
   91SAPE   C38 8952   6.489  -0.212   5.765  0.5813  0.3016 -0.5255
   91SAPE   H8X 8953   6.513  -0.106   5.745 -1.8148  0.8324 -0.9218
   91SAPE   H8Y 8954   6.402  -0.235   5.700  1.2308  0.4596 -1.4654
   91SAPE   C39 8955   6.602  -0.294   5.696  0.2258 -0.2801  0.2463
   91SAPE   H9X 8956   6.582  -0.396   5.736 -1.8301  0.1265  0.3452
   91SAPE   H9Y 8957   6.697  -0.250   5.735  0.8646  0.8780 -2.3616
   91SAPE  C310 8958   6.608  -0.297   5.548  0.7266 -1.0598 -0.3856
   91SAPE  H10X 8959   6.632  -0.193   5.518 -2.0416 -0.0281  0.6420
   91SAPE  H10Y 8960   6.513  -0.317   5.494 -0.7806  1.5887  1.1136
   91SAPE  C311 8961   6.725  -0.379   5.511  0.0156 -0.1243  0.2088
   91SAPE  H11X 8962   6.732  -0.476   5.564 -1.5283 -0.0389  0.6192
   91SAPE  H11Y 8963   6.819  -0.324   5.535  0.3231  0.1302 -1.4451
   91SAPE  C312 8964   6.719  -0.399   5.360 -0.6442 -0.4562 -0.5656
   91SAPE  H12X 8965   6.710  -0.299   5.312  0.4239 -1.0177 -2.0083
   91SAPE  H12Y 8966   6.624  -0.451   5.337 -0.0249 -2.0587  0.3590
   91SAPE  C313 8967   6.839  -0.472   5.314  0.3532 -0.9002  0.2083
   91SAPE  H13X 8968   6.866  -0.560   5.376  2.3076  0.3601  1.2719
   91SAPE  H13Y 8969   6.923  -0.400   5.325  0.3867 -1.1174  1.4992
   91SAPE  C314 8970   6.825  -0.508   5.160 -0.3572 -0.4167  0.3130
   91SAPE  H14X 8971   6.921  -0.552   5.125 -0.2729 -0.4553  0.5897
   91SAPE  H14Y 8972   6.798  -0.414   5.108 -1.2376  0.0017  1.4833
   91SAPE  C315 8973   6.736  -0.631   5.127  0.5323  0.2347 -0.3233
   91SAPE  H15X 8974   6.633  -0.614   5.165  1.2630  0.2302  1.7881
   91SAPE  H15Y 8975   6.774  -0.713   5.192 -2.6973  0.1720  1.7293
   91SAPE  C316 8976   6.731  -0.655   4.975 -0.6219  0.4153  0.3179
   91SAPE  H16X 8977   6.720  -0.760   4.939  3.0956  0.8306 -2.7145
   91SAPE  H16Y 8978   6.834  -0.634   4.940 -0.0953 -0.1746  1.4643
   91SAPE  C317 8979   6.628  -0.578   4.889  0.0042  0.2007 -0.0638
   91SAPE  H17X 8980   6.653  -0.472   4.908 -1.7221  0.6986 -0.4140
   91SAPE  H17Y 8981   6.528  -0.590   4.936 -0.1086  4.2840  1.0874
   91SAPE  C318 8982   6.629  -0.608   4.738  0.1574 -0.6492  0.3256
   91SAPE  H18X 8983   6.729  -0.579   4.699 -0.6701  1.4152 -0.4070
   91SAPE  H18Y 8984   6.546  -0.556   4.686  0.8066  0.1114  0.0223
   91SAPE  H18Z 8985   6.606  -0.713   4.713  1.6737 -0.0398 -4.7104
   92SAPE     N 8986   5.271   1.840   6.632 -0.4275  0.3620 -0.1248
   92SAPE   HN1 8987   5.225   1.851   6.539  0.7513 -1.1063 -0.9291
   92SAPE   HN2 8988   5.321   1.750   6.619  0.1353  0.4648  1.1719
   92SAPE   HN3 8989   5.200   1.822   6.706 -0.8347  0.9448 -0.3660
   92SAPE   C12 8990   5.360   1.952   6.675  0.0810  0.1225  0.3745
   92SAPE  H12A 8991   5.418   1.920   6.764  0.9277  0.5992  0.0141
   92SAPE  H12B 8992   5.299   2.039   6.706  1.4791  0.5302  2.1562
   92SAPE   C11 8993   5.469   1.986   6.565 -0.7433 -0.1077  0.6096
   92SAPE  H11A 8994   5.541   1.901   6.566 -0.6565 -0.0362  0.3260
   92SAPE  H11B 8995   5.514   2.083   6.594 -1.5937  1.2879 -2.3849
   92SAPE     P 8996   5.462   1.934   6.305 -0.3659  0.3256 -0.2497
   92SAPE   O13 8997   5.596   1.988   6.265 -0.1308  0.2577 -0.4636
   92SAPE   O14 8998   5.462   1.785   6.332  0.1308 -0.1275  0.4845
   92SAPE   O12 8999   5.412   2.010   6.437 -0.3641  0.6418 -0.4761
   92SAPE   O11 9000   5.356   1.975   6.201 -0.1058  0.2102  0.8810
   92SAPE    C1 9001   5.284   2.100   6.209 -0.8111 -0.5212  0.1094
   92SAPE    HA 9002   5.175   2.085   6.229 -0.5063 -1.9685  0.7831
   92SAPE    HB 9003   5.327   2.165   6.287  0.1316 -0.5153 -0.4081
   92SAPE    C2 9004   5.273   2.180   6.077  0.0291  0.3553  0.3385
   92SAPE    HS 9005   5.199   2.262   6.092 -1.0484 -0.2336 -1.4054
   92SAPE   O21 9006   5.242   2.106   5.959  0.3336  0.3955 -0.0659
   92SAPE   C21 9007   5.122   2.059   5.945  0.1928  0.6743  0.0365
   92SAPE   O22 9008   5.027   2.064   6.025 -0.3249  0.7123  0.3865
   92SAPE   C22 9009   5.115   1.974   5.820  0.2901  0.1250  0.2323
   92SAPE   H2R 9010   5.153   2.039   5.738 -0.2377 -0.6994 -0.6953
   92SAPE   H2S 9011   5.192   1.895   5.833  2.2421  2.1098  1.5066
   92SAPE    C3 9012   5.403   2.249   6.050 -0.6964  1.0917  0.4135
   92SAPE    HX 9013   5.469   2.163   6.029 -1.0573  1.3253 -2.0190
   92SAPE    HY 9014   5.451   2.287   6.143  1.4958  0.1007 -0.2465
   92SAPE   O31 9015   5.401   2.339   5.937 -0.1949  0.0427  0.8585
   92SAPE   C31 9016   5.347   2.459   5.967  0.5862 -0.2894  0.4915
   92SAPE   O32 9017   5.302   2.492   6.078 -0.2320  0.2707 -0.4100
   92SAPE   C32 9018   5.328   2.532   5.837 -0.2467 -0.0380  0.3519
   92SAPE   H2X 9019   5.407   2.501   5.766 -1.1768  1.7103 -1.5617
   92SAPE   H2Y 9020   5.356   2.639   5.851  2.1221 -0.2487 -1.9873
   92SAPE   C23 9021   4.968   1.933   5.780  0.0339  0.6528  0.1395
   92SAPE   H3R 9022   4.914   1.880   5.861  3.9429 -2.0230  1.3032
   92SAPE   H3S 9023   4.976   1.867   5.690 -0.8773  0.2380  0.3476
   92SAPE   C24 9024   4.879   2.050   5.742  0.3483 -0.2058  0.1196
   92SAPE   H4R 9025   4.945   2.104   5.670  0.3817 -0.9757 -0.4343
   92SAPE   H4S 9026   4.852   2.114   5.829 -1.4409  1.3527 -1.4812
   92SAPE   C25 9027   4.744   2.009   5.687  0.1752  0.5600  0.0719
   92SAPE   H5R 9028   4.679   1.973   5.768  2.5090 -0.9285  1.3894
   92SAPE   C26 9029   4.703   2.029   5.563 -0.4146  0.4973 -0.6430
   92SAPE   H6R 9030   4.605   1.991   5.530 -0.5156  1.0088 -0.9547
   92SAPE   C27 9031   4.783   2.066   5.439  0.5239 -0.7447  0.0017
   92SAPE   H7R 9032   4.882   2.107   5.468  0.2516 -0.6077  0.7816
   92SAPE   H7S 9033   4.733   2.150   5.386  0.6757 -0.3890  0.4078
   92SAPE   C28 9034   4.799   1.945   5.355  0.3778 -0.0547 -0.3134
   92SAPE   H8R 9035   4.885   1.886   5.390 -0.5398 -0.3237  1.5949
   92SAPE   C29 9036   4.741   1.924   5.235 -0.5312  0.8264 -0.8110
   92SAPE   H9R 9037   4.773   1.838   5.175  0.2117  1.2428 -1.0271
   92SAPE  C210 9038   4.640   2.018   5.165 -0.1019 -0.1607  0.0741
   92SAPE  H10R 9039   4.571   2.072   5.232  0.0489 -2.1720  1.9844
   92SAPE  H10S 9040   4.571   1.948   5.113 -1.6234  1.4912 -0.2025
   92SAPE  C211 9041   4.709   2.117   5.070 -0.2028  0.6871  0.3126
   92SAPE  H11R 9042   4.744   2.213   5.111 -1.2672  0.7249  1.1891
   92SAPE  C212 9043   4.748   2.091   4.945 -0.1300 -0.5459  0.7784
   92SAPE  H12R 9044   4.800   2.163   4.880 -0.9104 -0.0019  0.7524
   92SAPE  C213 9045   4.703   1.964   4.880  0.0095  0.0372  0.7173
   92SAPE  H13R 9046   4.601   1.927   4.906 -0.0343 -0.1419  0.2993
   92SAPE  H13S 9047   4.762   1.883   4.928 -0.2453 -0.4734  0.1836
   92SAPE  C214 9048   4.710   1.963   4.725 -0.4535 -0.4592 -0.2129
   92SAPE  H14R 9049   4.614   1.992   4.682 -0.7920  0.1412  0.9035
   92SAPE  C215 9050   4.825   1.973   4.653 -0.7073 -0.2497 -0.3012
   92SAPE  H15R 9051   4.829   1.969   4.543 -0.5229 -1.3022 -0.2672
   92SAPE  C216 9052   4.971   1.958   4.708  0.2823  0.3828 -0.0802
   92SAPE  H16R 9053   4.964   1.968   4.818  0.4742  0.8639 -0.1091
   92SAPE  H16S 9054   5.033   2.049   4.693 -0.0372  0.6990  0.5280
   92SAPE  C217 9055   5.044   1.827   4.668  0.2269  1.1344  0.8717
   92SAPE  H17R 9056   4.972   1.747   4.699  0.2083  0.6702 -0.3131
   92SAPE  H17S 9057   5.142   1.817   4.719  0.4283  2.1192  0.6953
   92SAPE  C218 9058   5.074   1.815   4.524  0.1235 -0.5588 -0.6273
   92SAPE  H18R 9059   5.157   1.885   4.500 -0.6452  0.1618 -1.2466
   92SAPE  H18S 9060   4.988   1.842   4.460  0.7516 -0.4097 -1.4304
   92SAPE  C219 9061   5.120   1.684   4.476  0.4035  0.9666 -0.8792
   92SAPE  H19R 9062   5.065   1.596   4.515  0.7859  0.6743 -0.9882
   92SAPE  H19S 9063   5.213   1.674   4.537 -0.0923  3.9417  0.5649
   92SAPE  C220 9064   5.145   1.674   4.329  0.3834  0.4347  0.0602
   92SAPE  H20R 9065   5.065   1.720   4.266 -0.7170  0.6281  1.5517
   92SAPE  H20S 9066   5.158   1.567   4.300  2.2760  1.4948 -3.6975
   92SAPE  H20T 9067   5.244   1.721   4.314  1.1480 -1.1380  0.0345
   92SAPE   C33 9068   5.184   2.508   5.782 -0.0919  0.3291  0.1112
   92SAPE   H3X 9069   5.162   2.598   5.720 -2.2617 -0.3305 -0.1587
   92SAPE   H3Y 9070   5.108   2.495   5.862 -0.5371  0.0336 -0.3489
   92SAPE   C34 9071   5.164   2.392   5.677  0.0514  0.2393 -0.9812
   92SAPE   H4X 9072   5.180   2.299   5.735 -0.5872  0.7045 -0.0184
   92SAPE   H4Y 9073   5.236   2.404   5.594 -1.3761 -1.9774 -2.6470
   92SAPE   C35 9074   5.021   2.400   5.626  0.2810 -0.9226  0.4152
   92SAPE   H5X 9075   4.951   2.425   5.708 -0.5980 -2.9205  0.3403
   92SAPE   H5Y 9076   5.002   2.297   5.589 -0.4005  0.5415 -3.8320
   92SAPE   C36 9077   4.987   2.500   5.502  0.1241  0.1057 -0.2908
   92SAPE   H6X 9078   5.056   2.587   5.506 -0.1167  0.3214 -0.8177
   92SAPE   H6Y 9079   4.884   2.539   5.515  0.4200  1.3882 -1.6301
   92SAPE   C37 9080   4.992   2.417   5.369  0.1527 -0.7431 -0.5375
   92SAPE   H7X 9081   4.908   2.344   5.365 -0.4818 -0.0481 -0.1884
   92SAPE   H7Y 9082   5.089   2.365   5.378  1.9607  2.3779 -0.6907
   92SAPE   C38 9083   4.992   2.513   5.246  0.0002  0.2919 -0.4538
   92SAPE   H8X 9084   5.088   2.569   5.257  0.5202 -1.0717  4.0351
   92SAPE   H8Y 9085   4.909   2.587   5.249 -0.3010 -0.0850  1.6616
   92SAPE   C39 9086   4.989   2.434   5.116  0.8960  0.0574 -0.1884
   92SAPE   H9X 9087   4.892   2.378   5.115  1.7511 -1.6722  2.3640
   92SAPE   H9Y 9088   5.075   2.364   5.122  1.0124  0.2308  0.1582
   92SAPE  C310 9089   5.019   2.513   4.987 -0.3582  0.4458  0.4378
   92SAPE  H10X 9090   5.106   2.580   5.008 -0.5463  1.3620 -1.4699
   92SAPE  H10Y 9091   4.935   2.576   4.952 -0.8302 -1.3500 -1.9080
   92SAPE  C311 9092   5.069   2.422   4.872 -0.4794 -0.5725  0.2858
   92SAPE  H11X 9093   5.012   2.326   4.866 -0.8759 -0.5817  3.0477
   92SAPE  H11Y 9094   5.172   2.388   4.898  0.4966  0.6130 -1.7651
   92SAPE  C312 9095   5.088   2.492   4.735  0.6038  0.5933  0.0992
   92SAPE  H12X 9096   5.107   2.602   4.741  1.9927  0.3208  1.0699
   92SAPE  H12Y 9097   4.989   2.495   4.685 -0.0221  2.2865  1.3482
   92SAPE  C313 9098   5.180   2.423   4.639 -0.1502  0.2039 -0.2786
   92SAPE  H13X 9099   5.154   2.315   4.646 -1.5583  0.4777 -0.8175
   92SAPE  H13Y 9100   5.287   2.434   4.666  0.4147 -2.0687 -1.3819
   92SAPE  C314 9101   5.173   2.472   4.494 -0.1488 -0.3675  0.3750
   92SAPE  H14X 9102   5.224   2.570   4.508  2.1465 -1.6504  1.6719
   92SAPE  H14Y 9103   5.071   2.498   4.458  0.3713  1.1932 -0.0480
   92SAPE  C315 9104   5.268   2.388   4.399  0.3524 -0.3626  0.0524
   92SAPE  H15X 9105   5.224   2.286   4.393 -1.0395 -0.1668  3.9001
   92SAPE  H15Y 9106   5.370   2.376   4.443  1.2911 -1.5300 -2.2790
   92SAPE  C316 9107   5.290   2.437   4.259  0.2446  0.8137  0.0101
   92SAPE  H16X 9108   5.320   2.544   4.264  1.2126  0.5387  0.2846
   92SAPE  H16Y 9109   5.191   2.431   4.209  0.2380 -2.1546  0.2191
   92SAPE  C317 9110   5.400   2.354   4.187 -0.1182  0.2262 -0.2122
   92SAPE  H17X 9111   5.365   2.252   4.159 -0.0601  0.0018  0.5092
   92SAPE  H17Y 9112   5.493   2.347   4.248  0.2407  0.7842 -0.6886
   92SAPE  C318 9113   5.437   2.431   4.063  0.3799  0.1253 -0.2718
   92SAPE  H18X 9114   5.357   2.438   3.986 -1.4303  1.0569  1.5578
   92SAPE  H18Y 9115   5.528   2.383   4.023  0.1672 -1.5143  1.1176
   92SAPE  H18Z 9116   5.463   2.532   4.101  0.8209  0.2218 -0.8219
   93SAPE     N 9117   1.151   1.393   6.747 -0.5852  0.0229 -0.0453
   93SAPE   HN1 9118   1.057   1.349   6.742 -0.4136 -0.3764  0.1451
   93SAPE   HN2 9119   1.224   1.334   6.791  1.3707  1.0283 -1.7783
   93SAPE   HN3 9120   1.136   1.475   6.808  1.5955  2.7737 -2.8732
   93SAPE   C12 9121   1.209   1.433   6.614  0.2896  0.0506  0.8071
   93SAPE  H12A 9122   1.301   1.491   6.633 -0.2093  0.6627  1.4332
   93SAPE  H12B 9123   1.137   1.504   6.569  0.7066 -1.4134 -2.4405
   93SAPE   C11 9124   1.230   1.314   6.528  0.1834 -0.5032  0.4031
   93SAPE  H11A 9125   1.260   1.345   6.425  0.8463  0.8665  0.9809
   93SAPE  H11B 9126   1.127   1.273   6.529 -1.3724  3.0413 -0.0307
   93SAPE     P 9127   1.330   1.085   6.544 -0.0075 -0.0717  0.2577
   93SAPE   O13 9128   1.438   1.010   6.617  0.2708 -1.1871 -0.1356
   93SAPE   O14 9129   1.190   1.034   6.573  0.1692  0.0826  0.0164
   93SAPE   O12 9130   1.328   1.230   6.593 -0.3329  0.2769  0.0853
   93SAPE   O11 9131   1.362   1.082   6.393 -0.2277 -0.0688  0.3062
   93SAPE    C1 9132   1.253   1.077   6.293  0.0594  0.3108  0.0403
   93SAPE    HA 9133   1.148   1.096   6.326 -1.2777 -3.0589 -1.6700
   93SAPE    HB 9134   1.284   1.146   6.212  0.7486  0.2961  0.2919
   93SAPE    C2 9135   1.247   0.938   6.225  0.4959 -0.3301 -0.4999
   93SAPE    HS 9136   1.221   0.877   6.315 -1.3275  1.9362  0.6038
   93SAPE   O21 9137   1.375   0.907   6.169 -0.1559  0.1390  0.2004
   93SAPE   C21 9138   1.405   0.774   6.158 -0.7608  0.0717 -0.7584
   93SAPE   O22 9139   1.330   0.691   6.198 -0.3658  0.7092  0.0011
   93SAPE   C22 9140   1.549   0.756   6.100 -0.1616  0.3333 -0.4468
   93SAPE   H2R 9141   1.551   0.837   6.024 -3.1828 -1.2969 -2.4698
   93SAPE   H2S 9142   1.618   0.775   6.186  0.7143 -1.2520 -0.7665
   93SAPE    C3 9143   1.129   0.917   6.125  0.7035 -0.1269  0.0660
   93SAPE    HX 9144   1.039   0.907   6.189 -0.3891 -1.6063 -1.6102
   93SAPE    HY 9145   1.143   0.820   6.072  0.6973 -0.7096  1.1014
   93SAPE   O31 9146   1.118   1.036   6.038 -0.4633  0.0068 -0.2062
   93SAPE   C31 9147   1.186   1.023   5.920 -0.0688  0.6688  0.2941
   93SAPE   O32 9148   1.264   0.934   5.890 -0.2451  0.2291  0.6709
   93SAPE   C32 9149   1.158   1.147   5.833  0.7333 -0.5897 -0.4454
   93SAPE   H2X 9150   1.251   1.195   5.795 -0.1358  0.5506 -1.2014
   93SAPE   H2Y 9151   1.114   1.219   5.905  2.9091  0.7086 -0.3223
   93SAPE   C23 9152   1.587   0.628   6.040  0.6403  0.3671 -0.3082
   93SAPE   H3R 9153   1.593   0.550   6.118 -0.6268 -0.2904 -0.8433
   93SAPE   H3S 9154   1.688   0.633   5.993  0.2634 -0.2988 -1.2389
   93SAPE   C24 9155   1.491   0.588   5.925  0.2793  0.1106 -0.3708
   93SAPE   H4R 9156   1.386   0.580   5.959  0.3967  0.7584  0.1582
   93SAPE   H4S 9157   1.523   0.486   5.892 -0.3462 -0.0813 -0.4036
   93SAPE   C25 9158   1.489   0.686   5.807  0.4223  0.6083  0.4520
   93SAPE   H5R 9159   1.470   0.791   5.833  0.3159  0.7004  0.0142
   93SAPE   C26 9160   1.516   0.650   5.679 -0.1154  0.0928  0.4837
   93SAPE   H6R 9161   1.505   0.728   5.602 -0.7318 -1.4839 -1.0851
   93SAPE   C27 9162   1.530   0.508   5.621 -0.3708 -0.5475 -0.6720
   93SAPE   H7R 9163   1.617   0.458   5.667  1.6998  2.8053 -0.6234
   93SAPE   H7S 9164   1.563   0.511   5.515  1.2709 -1.7483 -0.2244
   93SAPE   C28 9165   1.399   0.431   5.633  0.3801 -0.3663  0.2780
   93SAPE   H8R 9166   1.366   0.415   5.737  0.1289 -2.2092 -0.0568
   93SAPE   C29 9167   1.303   0.413   5.543  0.0877 -0.3525 -0.7209
   93SAPE   H9R 9168   1.206   0.377   5.579 -0.6846  1.9096 -0.3900
   93SAPE  C210 9169   1.319   0.450   5.396  0.3930  0.2311 -1.0196
   93SAPE  H10R 9170   1.227   0.407   5.351  0.2707 -2.4889  1.4495
   93SAPE  H10S 9171   1.402   0.386   5.359  2.4597  0.6068  2.5492
   93SAPE  C211 9172   1.331   0.599   5.370 -0.2530 -0.0359  0.1796
   93SAPE  H11R 9173   1.390   0.659   5.441  0.9669  1.3793 -1.9240
   93SAPE  C212 9174   1.294   0.657   5.256 -0.4111 -0.6614 -0.1822
   93SAPE  H12R 9175   1.296   0.767   5.255  1.5099 -0.6630 -0.0575
   93SAPE  C213 9176   1.226   0.590   5.140  0.5722 -0.7862  0.8656
   93SAPE  H13R 9177   1.192   0.678   5.081 -1.1700 -2.0031 -0.0426
   93SAPE  H13S 9178   1.138   0.535   5.180 -0.7689 -0.0589 -0.9569
   93SAPE  C214 9179   1.307   0.502   5.055 -0.1146 -0.8194 -0.0141
   93SAPE  H14R 9180   1.404   0.476   5.100 -0.1835 -0.4762  0.3393
   93SAPE  C215 9181   1.248   0.435   4.953 -0.4124  0.2550  0.4373
   93SAPE  H15R 9182   1.314   0.371   4.893  2.8201  2.7705  1.0125
   93SAPE  C216 9183   1.104   0.459   4.907  0.0012 -0.1007 -0.7236
   93SAPE  H16R 9184   1.071   0.564   4.918  2.8122  1.0151 -1.9933
   93SAPE  H16S 9185   1.033   0.403   4.972 -0.5007  0.3620 -0.8705
   93SAPE  C217 9186   1.066   0.419   4.764  0.4422  0.0862  0.8016
   93SAPE  H17R 9187   0.960   0.419   4.732 -0.1186  1.3678  2.4968
   93SAPE  H17S 9188   1.102   0.318   4.735  3.0174  1.2713 -0.4810
   93SAPE  C218 9189   1.126   0.507   4.646 -0.1411 -0.3432 -0.4732
   93SAPE  H18R 9190   1.103   0.615   4.657  0.3800  0.2800 -4.2272
   93SAPE  H18S 9191   1.082   0.473   4.550 -0.5213 -2.0483  0.2573
   93SAPE  C219 9192   1.280   0.493   4.627  0.1547  0.7021  0.1362
   93SAPE  H19R 9193   1.327   0.394   4.648  1.8752  0.9375 -2.0990
   93SAPE  H19S 9194   1.313   0.551   4.715 -2.0065  1.5575  0.4329
   93SAPE  C220 9195   1.318   0.536   4.486 -0.0826 -0.6793  0.6007
   93SAPE  H20R 9196   1.249   0.622   4.468  0.9768  0.7026  2.7357
   93SAPE  H20S 9197   1.308   0.446   4.422  1.5813 -0.0613 -0.5954
   93SAPE  H20T 9198   1.421   0.577   4.480 -0.2588 -0.3327 -0.2303
   93SAPE   C33 9199   1.066   1.114   5.711  0.7465 -0.4179  0.1148
   93SAPE   H3X 9200   0.973   1.075   5.758  0.4785  1.6743  1.4136
   93SAPE   H3Y 9201   1.113   1.028   5.658 -0.7471  0.7068 -3.2551
   93SAPE   C34 9202   1.043   1.238   5.616 -0.4549 -0.2378  0.4853
   93SAPE   H4X 9203   1.144   1.274   5.585 -0.0540 -1.7171 -0.0295
   93SAPE   H4Y 9204   0.995   1.318   5.676  0.2978  0.2783  0.4137
   93SAPE   C35 9205   0.964   1.218   5.485 -0.0150 -0.4320 -0.3557
   93SAPE   H5X 9206   0.862   1.179   5.504 -0.1824  0.1507 -0.0497
   93SAPE   H5Y 9207   1.018   1.138   5.429 -2.0852 -0.4034 -2.5607
   93SAPE   C36 9208   0.982   1.332   5.387 -0.1043 -0.4788 -0.3919
   93SAPE   H6X 9209   1.079   1.383   5.408 -0.9890  0.2958  2.2086
   93SAPE   H6Y 9210   0.909   1.415   5.402  0.0615 -0.8233  3.3906
   93SAPE   C37 9211   0.974   1.287   5.249  0.1331 -0.4560  0.2533
   93SAPE   H7X 9212   0.875   1.235   5.248 -0.3527  0.3522  1.8457
   93SAPE   H7Y 9213   1.046   1.206   5.226  0.1568 -0.0018 -1.3361
   93SAPE   C38 9214   0.956   1.392   5.142 -0.4197  0.0517  0.0484
   93SAPE   H8X 9215   1.041   1.463   5.134 -1.3001  1.2471  0.9484
   93SAPE   H8Y 9216   0.870   1.455   5.173 -0.6698  1.1309 -2.6353
   93SAPE   C39 9217   0.921   1.327   5.001  0.2830 -0.1179  0.2902
   93SAPE   H9X 9218   0.844   1.249   5.019  1.5547 -2.1437 -2.4159
   93SAPE   H9Y 9219   1.017   1.286   4.963  1.5217  0.9670  2.0975
   93SAPE  C310 9220   0.864   1.433   4.904 -1.0783  0.1174  0.8610
   93SAPE  H10X 9221   0.946   1.504   4.879 -0.7732 -0.4494  0.2163
   93SAPE  H10Y 9222   0.780   1.476   4.963 -1.7798  0.4591 -0.3465
   93SAPE  C311 9223   0.827   1.371   4.775  0.3629 -0.6437 -0.6655
   93SAPE  H11X 9224   0.736   1.308   4.785  0.0349 -0.0863 -0.1098
   93SAPE  H11Y 9225   0.901   1.298   4.734 -0.0340 -2.0167  0.9744
   93SAPE  C312 9226   0.801   1.479   4.659 -0.3147  0.7336 -0.3428
   93SAPE  H12X 9227   0.886   1.551   4.669 -0.0628  0.1106  3.5818
   93SAPE  H12Y 9228   0.723   1.554   4.686  0.7795  1.4254  1.0736
   93SAPE  C313 9229   0.788   1.430   4.516 -0.4389  0.9791 -0.0507
   93SAPE  H13X 9230   0.693   1.381   4.487  0.4212 -2.2472  2.0612
   93SAPE  H13Y 9231   0.861   1.346   4.516 -0.5572  0.8736  0.3886
   93SAPE  C314 9232   0.841   1.529   4.417 -0.2350 -0.2687  0.2324
   93SAPE  H14X 9233   0.866   1.465   4.329 -1.0698 -2.6374  1.6203
   93SAPE  H14Y 9234   0.929   1.585   4.456 -0.4783 -0.9711  1.8857
   93SAPE  C315 9235   0.746   1.645   4.376 -0.1891 -0.5270 -0.6711
   93SAPE  H15X 9236   0.780   1.712   4.294 -0.5943  0.8603  0.2647
   93SAPE  H15Y 9237   0.720   1.694   4.472  2.0615 -0.0128 -0.2718
   93SAPE  C316 9238   0.607   1.597   4.320 -0.0611 -0.1321 -0.2114
   93SAPE  H16X 9239   0.563   1.515   4.379  0.3042 -0.9358 -1.0352
   93SAPE  H16Y 9240   0.641   1.552   4.224  0.9778 -0.0163  0.0907
   93SAPE  C317 9241   0.500   1.707   4.296  0.2523  0.5256  0.0436
   93SAPE  H17X 9242   0.542   1.793   4.240 -1.3934  2.1018  1.1335
   93SAPE  H17Y 9243   0.456   1.736   4.393  1.8598 -1.4427  1.4540
   93SAPE  C318 9244   0.382   1.651   4.214 -0.0743 -0.6039  0.4013
   93SAPE  H18X 9245   0.408   1.648   4.106 -0.9274 -1.0024  0.1976
   93SAPE  H18Y 9246   0.305   1.730   4.213  2.3887  1.9826 -1.6625
   93SAPE  H18Z 9247   0.345   1.550   4.244 -1.4337  0.1690  1.4283
   94SAPE     N 9248   5.501   2.426   6.575  0.0603 -0.1469 -0.0520
   94SAPE   HN1 9249   5.599   2.393   6.562 -0.0587 -1.1448  1.3377
   94SAPE   HN2 9250   5.436   2.357   6.618  0.9609  0.2835  2.1471
   94SAPE   HN3 9251   5.462   2.457   6.484 -1.1651  0.2505  0.5889
   94SAPE   C12 9252   5.505   2.536   6.676  0.1778 -0.0696  0.1880
   94SAPE  H12A 9253   5.520   2.488   6.775 -2.0053  0.8089  1.0130
   94SAPE  H12B 9254   5.406   2.587   6.678  0.3533  0.3666 -1.3028
   94SAPE   C11 9255   5.624   2.631   6.651 -0.0279 -0.0591  0.1250
   94SAPE  H11A 9256   5.718   2.570   6.650  0.3636  0.5412 -0.1075
   94SAPE  H11B 9257   5.642   2.704   6.733 -1.8771  0.6639 -0.0676
   94SAPE     P 9258   5.518   2.838   6.522  0.0921 -0.2237 -0.3466
   94SAPE   O13 9259   5.405   2.828   6.428 -0.0831 -0.1623 -0.3859
   94SAPE   O14 9260   5.480   2.884   6.653  0.1034  0.2424 -0.1066
   94SAPE   O12 9261   5.599   2.702   6.530 -0.0918 -0.1376 -0.2020
   94SAPE   O11 9262   5.630   2.931   6.461  0.1476  0.5303  0.1954
   94SAPE    C1 9263   5.694   2.906   6.339 -0.0459 -0.1588 -0.5009
   94SAPE    HA 9264   5.784   2.842   6.351 -0.9615 -1.7365 -1.5311
   94SAPE    HB 9265   5.628   2.856   6.265 -0.6000  1.0095 -0.8181
   94SAPE    C2 9266   5.737   3.040   6.283 -0.4940  0.0821  0.0212
   94SAPE    HS 9267   5.756   3.107   6.369  2.6630 -1.6995  0.8310
   94SAPE   O21 9268   5.629   3.086   6.202  0.2698 -0.0775  0.6330
   94SAPE   C21 9269   5.640   3.210   6.164 -0.2523  0.5224  0.0224
   94SAPE   O22 9270   5.721   3.288   6.217  0.1340 -0.3498 -0.1940
   94SAPE   C22 9271   5.537   3.248   6.065  0.1488 -0.3628 -0.3540
   94SAPE   H2R 9272   5.485   3.155   6.034 -0.7683 -0.8887  2.4632
   94SAPE   H2S 9273   5.468   3.307   6.129 -1.9851 -2.3286 -0.7015
   94SAPE    C3 9274   5.863   3.029   6.191  0.0489 -0.2001 -0.2671
   94SAPE    HX 9275   5.945   2.991   6.255 -1.2549  2.2733  3.2020
   94SAPE    HY 9276   5.905   3.128   6.163 -0.8214  0.4123  0.5322
   94SAPE   O31 9277   5.843   2.935   6.087  0.2626  0.4077 -0.4602
   94SAPE   C31 9278   5.850   2.985   5.960  1.0412 -1.2162 -0.0700
   94SAPE   O32 9279   5.861   3.102   5.936  0.3625 -0.3761  0.0920
   94SAPE   C32 9280   5.821   2.872   5.868 -0.3586 -0.1639 -0.7443
   94SAPE   H2X 9281   5.837   2.778   5.924  2.2807  0.7011  0.1209
   94SAPE   H2Y 9282   5.907   2.873   5.798  0.4670 -0.5107  0.2308
   94SAPE   C23 9283   5.583   3.340   5.950 -0.2306  0.2653  0.4600
   94SAPE   H3R 9284   5.668   3.288   5.901 -0.0398 -0.2132  1.2782
   94SAPE   H3S 9285   5.625   3.421   6.013  0.3491  1.4428 -1.3572
   94SAPE   C24 9286   5.475   3.384   5.846 -0.4528 -0.5006 -0.3126
   94SAPE   H4R 9287   5.521   3.473   5.799  0.6309 -0.7227  0.2785
   94SAPE   H4S 9288   5.385   3.425   5.897  0.1405  0.4805 -0.0291
   94SAPE   C25 9289   5.431   3.272   5.756 -0.0966 -0.3085 -0.1861
   94SAPE   H5R 9290   5.395   3.182   5.808 -0.2212 -0.4917 -0.5802
   94SAPE   C26 9291   5.440   3.272   5.626  0.4117  0.3591  0.0538
   94SAPE   H6R 9292   5.406   3.179   5.579  1.6014  1.5189 -3.4473
   94SAPE   C27 9293   5.497   3.374   5.539  0.3304 -0.1059  0.1065
   94SAPE   H7R 9294   5.452   3.472   5.565  2.5410  1.2849 -0.9452
   94SAPE   H7S 9295   5.462   3.373   5.433 -0.8905 -1.5190  0.4973
   94SAPE   C28 9296   5.648   3.377   5.525  0.5517  0.0463 -0.1655
   94SAPE   H8R 9297   5.708   3.324   5.600  0.1998 -0.7467 -0.4311
   94SAPE   C29 9298   5.717   3.447   5.428 -0.1619 -0.1279 -0.1335
   94SAPE   H9R 9299   5.825   3.427   5.419 -0.2754 -3.1370  2.9942
   94SAPE  C210 9300   5.656   3.530   5.316 -0.4404 -0.4412 -0.0563
   94SAPE  H10R 9301   5.714   3.623   5.302  1.4265 -1.3267  1.3763
   94SAPE  H10S 9302   5.552   3.557   5.345 -0.8318 -2.1447  0.2404
   94SAPE  C211 9303   5.661   3.439   5.195 -0.1041 -0.7526 -0.2940
   94SAPE  H11R 9304   5.570   3.379   5.178 -2.2689  2.7074 -2.1044
   94SAPE  C212 9305   5.767   3.420   5.117 -0.4153  0.1819  0.5088
   94SAPE  H12R 9306   5.764   3.353   5.031  0.6715  0.5692  0.1615
   94SAPE  C213 9307   5.897   3.494   5.128 -0.2312  0.4758 -0.2670
   94SAPE  H13R 9308   5.868   3.598   5.151 -0.9781 -0.0138  1.0823
   94SAPE  H13S 9309   5.951   3.495   5.030  0.2859 -0.8092 -0.0168
   94SAPE  C214 9310   6.002   3.425   5.217  0.2947 -0.1732  0.4458
   94SAPE  H14R 9311   6.025   3.320   5.194 -1.4951 -0.8596  1.6669
   94SAPE  C215 9312   6.079   3.486   5.309  0.9905 -0.2941 -0.0025
   94SAPE  H15R 9313   6.146   3.423   5.369 -1.0363 -1.7777  0.8209
   94SAPE  C216 9314   6.070   3.628   5.340 -0.4067  0.0152  0.4598
   94SAPE  H16R 9315   6.071   3.639   5.451  1.0457 -0.2193  0.4883
   94SAPE  H16S 9316   5.980   3.681   5.302  0.9187  0.1008 -2.8534
   94SAPE  C217 9317   6.192   3.708   5.284  0.8181 -0.0483 -0.3653
   94SAPE  H17R 9318   6.187   3.708   5.173 -2.0973 -3.4040 -0.4081
   94SAPE  H17S 9319   6.292   3.666   5.310  0.4466 -0.3049  0.7280
   94SAPE  C218 9320   6.188   3.861   5.320 -1.0105  0.1273  0.0442
   94SAPE  H18R 9321   6.175   3.873   5.430  1.3883 -1.7525  0.6083
   94SAPE  H18S 9322   6.112   3.914   5.259  1.2791  1.0241 -2.2542
   94SAPE  C219 9323   6.328   3.916   5.287  0.2958 -0.4914 -0.3531
   94SAPE  H19R 9324   6.333   4.026   5.272  2.3524 -0.4960 -0.0157
   94SAPE  H19S 9325   6.357   3.879   5.187  1.7836  1.0987 -0.5599
   94SAPE  C220 9326   6.431   3.891   5.396  0.1786 -0.2692  0.3533
   94SAPE  H20R 9327   6.528   3.942   5.381 -0.3678  0.2224 -1.8434
   94SAPE  H20S 9328   6.453   3.782   5.397 -3.3345 -1.1110 -0.5613
   94SAPE  H20T 9329   6.390   3.910   5.497  0.6767 -0.2022  0.5417
   94SAPE   C33 9330   5.679   2.885   5.811  0.4745  0.0802 -0.0681
   94SAPE   H3X 9331   5.606   2.903   5.893  0.0448  0.1689 -0.4671
   94SAPE   H3Y 9332   5.646   2.789   5.767 -1.1359  0.6782 -0.2141
   94SAPE   C34 9333   5.663   2.989   5.701  0.2260  0.3239 -0.8631
   94SAPE   H4X 9334   5.704   3.089   5.728 -0.7570  0.2669  1.0423
   94SAPE   H4Y 9335   5.555   2.999   5.677 -0.6183 -1.2940  1.8053
   94SAPE   C35 9336   5.732   2.933   5.577  0.1686 -0.5006  0.3031
   94SAPE   H5X 9337   5.700   2.828   5.559  1.5044 -0.6324 -1.5745
   94SAPE   H5Y 9338   5.842   2.932   5.590  0.1392  1.3700  1.0691
   94SAPE   C36 9339   5.711   3.019   5.449  0.3754  0.9897  0.0659
   94SAPE   H6X 9340   5.769   3.113   5.459  1.9497  0.2273 -1.4215
   94SAPE   H6Y 9341   5.602   3.040   5.437 -0.2900 -2.6517 -1.6843
   94SAPE   C37 9342   5.743   2.938   5.316 -0.2245 -0.4901 -0.9729
   94SAPE   H7X 9343   5.654   2.878   5.287 -3.2887  3.2487 -0.1604
   94SAPE   H7Y 9344   5.836   2.879   5.317  1.1261  1.5153 -1.9317
   94SAPE   C38 9345   5.774   3.026   5.195  0.1567 -0.7739  0.0325
   94SAPE   H8X 9346   5.848   3.103   5.226  0.6898 -0.4827 -1.8552
   94SAPE   H8Y 9347   5.686   3.088   5.169 -0.7541 -1.4051  1.4807
   94SAPE   C39 9348   5.825   2.945   5.075  0.0730  0.3671  0.4019
   94SAPE   H9X 9349   5.740   2.878   5.053 -0.3775  0.8722  0.5917
   94SAPE   H9Y 9350   5.913   2.890   5.115 -1.8838 -2.2620  1.3617
   94SAPE  C310 9351   5.861   3.034   4.945  0.3703  0.1176 -0.7620
   94SAPE  H10X 9352   5.775   3.103   4.934 -1.1138 -1.6039 -0.3312
   94SAPE  H10Y 9353   5.865   2.970   4.855  1.4610 -1.7762  0.5712
   94SAPE  C311 9354   5.986   3.118   4.970 -0.2245  0.4544  0.4192
   94SAPE  H11X 9355   6.071   3.057   5.007 -0.1024  1.4124  1.8237
   94SAPE  H11Y 9356   5.959   3.179   5.059 -0.8834  0.1435  0.4332
   94SAPE  C312 9357   6.037   3.212   4.854  0.5898  0.5662 -0.0477
   94SAPE  H12X 9358   5.992   3.313   4.848  2.3455  1.2918 -2.5861
   94SAPE  H12Y 9359   5.987   3.160   4.769 -1.6768 -1.1810  2.1705
   94SAPE  C313 9360   6.188   3.215   4.817  0.6794 -0.1812 -0.7138
   94SAPE  H13X 9361   6.185   3.261   4.716 -0.8219  0.2380 -0.5103
   94SAPE  H13Y 9362   6.227   3.111   4.807  0.9557 -0.1918  0.3829
   94SAPE  C314 9363   6.279   3.293   4.918 -0.1838  0.6549  0.0162
   94SAPE  H14X 9364   6.250   3.247   5.015 -0.1520 -0.1746 -0.3555
   94SAPE  H14Y 9365   6.256   3.402   4.915 -0.9673  0.5005 -2.8243
   94SAPE  C315 9366   6.427   3.271   4.905  0.8731  0.3089 -0.7297
   94SAPE  H15X 9367   6.458   3.174   4.950 -1.3969  0.7293  2.0042
   94SAPE  H15Y 9368   6.464   3.345   4.979 -3.2530 -0.2530  2.2251
   94SAPE  C316 9369   6.478   3.278   4.762 -0.0969 -0.1019  0.2722
   94SAPE  H16X 9370   6.449   3.380   4.728  1.1213 -0.1374 -0.9357
   94SAPE  H16Y 9371   6.423   3.206   4.699  1.3748 -2.4838  1.5623
   94SAPE  C317 9372   6.631   3.282   4.755  0.0341  0.0129  0.9543
   94SAPE  H17X 9373   6.651   3.182   4.797 -1.7677 -1.0037 -0.4505
   94SAPE  H17Y 9374   6.675   3.357   4.824 -0.3504  0.9335  0.2329
   94SAPE  C318 9375   6.663   3.291   4.599 -0.2712 -0.6069  0.4568
   94SAPE  H18X 9376   6.610   3.207   4.549 -0.4098 -1.8476  2.5469
   94SAPE  H18Y 9377   6.771   3.274   4.575  0.1710  2.0692  0.2777
   94SAPE  H18Z 9378   6.632   3.382   4.546  1.4109 -0.0609  0.3302
   95SAPE     N 9379   6.293   1.598   6.304 -0.3361  0.4109 -0.3498
   95SAPE   HN1 9380   6.237   1.638   6.226 -0.2085 -0.2619 -0.7960
   95SAPE   HN2 9381   6.341   1.663   6.369 -2.7274 -0.0123  2.0452
   95SAPE   HN3 9382   6.361   1.530   6.264 -0.0012 -0.5796  1.7411
   95SAPE   C12 9383   6.195   1.527   6.399 -0.5804 -0.4325 -0.2450
   95SAPE  H12A 9384   6.125   1.607   6.432  2.0322  1.2022  1.7420
   95SAPE  H12B 9385   6.253   1.476   6.478 -0.0182 -0.4188 -0.6413
   95SAPE   C11 9386   6.118   1.418   6.317 -0.5711  0.4895  0.1281
   95SAPE  H11A 9387   6.082   1.336   6.383  1.4583 -0.6845 -0.1414
   95SAPE  H11B 9388   6.175   1.367   6.237 -0.2848  0.3240  0.4327
   95SAPE     P 9389   5.874   1.509   6.312  0.5884  0.1581  0.2141
   95SAPE   O13 9390   5.890   1.502   6.463 -0.1536  0.5745  0.0485
   95SAPE   O14 9391   5.835   1.644   6.263 -0.2185 -0.2615 -0.3646
   95SAPE   O12 9392   6.018   1.482   6.247  0.1337 -0.0578 -0.0874
   95SAPE   O11 9393   5.779   1.389   6.256 -0.3759  0.1162 -0.3582
   95SAPE    C1 9394   5.821   1.249   6.253  0.5929  0.0919  0.7731
   95SAPE    HA 9395   5.925   1.238   6.289  0.4536 -1.6161  0.7680
   95SAPE    HB 9396   5.755   1.180   6.311 -0.4104 -1.5349 -2.0980
   95SAPE    C2 9397   5.806   1.188   6.114 -0.1310 -0.3617  0.2954
   95SAPE    HS 9398   5.855   1.088   6.118 -2.7597 -1.7277  0.5676
   95SAPE   O21 9399   5.874   1.274   6.020  0.0995 -0.0040 -0.0857
   95SAPE   C21 9400   6.009   1.264   6.026 -0.3308  0.9252 -0.5047
   95SAPE   O22 9401   6.073   1.187   6.097  0.4339  0.6833  0.5911
   95SAPE   C22 9402   6.065   1.365   5.918  0.2283  0.0893  0.2565
   95SAPE   H2R 9403   6.002   1.454   5.935  1.1153  1.0384 -1.1829
   95SAPE   H2S 9404   6.166   1.400   5.947 -0.2865  0.3840  1.7870
   95SAPE    C3 9405   5.663   1.168   6.068  0.3196 -0.1596  0.1435
   95SAPE    HX 9406   5.617   1.266   6.046 -3.4452 -1.6738  0.5198
   95SAPE    HY 9407   5.611   1.115   6.151 -1.0141 -1.4009 -1.4142
   95SAPE   O31 9408   5.642   1.085   5.949 -0.4140 -0.2261  0.0758
   95SAPE   C31 9409   5.617   1.155   5.834  0.5525 -0.3354  0.5907
   95SAPE   O32 9410   5.624   1.276   5.827  0.2024 -0.2448 -0.0455
   95SAPE   C32 9411   5.586   1.055   5.717 -0.3599 -0.7372 -0.1313
   95SAPE   H2X 9412   5.552   0.952   5.741 -1.5255 -0.5147 -0.7706
   95SAPE   H2Y 9413   5.685   1.048   5.666  1.2181 -1.5110  2.7711
   95SAPE   C23 9414   6.083   1.291   5.782  0.4079 -0.0756  0.3172
   95SAPE   H3R 9415   6.133   1.192   5.796 -0.1832 -0.8360 -2.3573
   95SAPE   H3S 9416   6.159   1.343   5.720 -1.2601  0.7395 -1.1106
   95SAPE   C24 9417   5.951   1.291   5.703 -0.0951  0.6080 -0.3480
   95SAPE   H4R 9418   5.918   1.396   5.711 -1.7318  0.0793  0.2528
   95SAPE   H4S 9419   5.868   1.234   5.752 -0.5892  0.5902 -1.1845
   95SAPE   C25 9420   5.972   1.247   5.565 -0.3377  0.0518  0.3757
   95SAPE   H5R 9421   6.058   1.179   5.558 -1.2705 -1.1144 -0.1620
   95SAPE   C26 9422   5.916   1.294   5.451  0.5025 -0.3274 -0.9344
   95SAPE   H6R 9423   5.952   1.250   5.357  0.3398  0.9227 -1.6008
   95SAPE   C27 9424   5.803   1.396   5.444  0.4436 -0.0397  0.4185
   95SAPE   H7R 9425   5.849   1.489   5.406  0.1079 -0.0843 -0.1115
   95SAPE   H7S 9426   5.759   1.420   5.543  0.1498 -1.2830  0.6111
   95SAPE   C28 9427   5.685   1.346   5.360 -0.0400 -1.1543  0.1049
   95SAPE   H8R 9428   5.615   1.282   5.415 -2.4359 -0.4787 -2.0087
   95SAPE   C29 9429   5.650   1.382   5.230 -0.0435  0.0816 -0.3888
   95SAPE   H9R 9430   5.573   1.316   5.188  0.0372 -0.8887  0.9381
   95SAPE  C210 9431   5.727   1.461   5.124  0.3773 -0.4224 -1.0044
   95SAPE  H10R 9432   5.836   1.454   5.144  0.2130  1.9218  1.2081
   95SAPE  H10S 9433   5.710   1.570   5.140 -1.5740 -0.9532  0.9362
   95SAPE  C211 9434   5.693   1.447   4.982  0.7113  0.2716  0.4505
   95SAPE  H11R 9435   5.767   1.392   4.921 -0.4538  0.3004 -1.0316
   95SAPE  C212 9436   5.584   1.489   4.910 -0.2273 -0.0907  0.1480
   95SAPE  H12R 9437   5.570   1.447   4.809 -0.2457 -2.2235  0.9800
   95SAPE  C213 9438   5.474   1.575   4.963 -0.5685  0.1216  0.0204
   95SAPE  H13R 9439   5.461   1.648   4.880  2.6568 -1.0640 -1.7026
   95SAPE  H13S 9440   5.502   1.631   5.054  0.1070  2.2287 -1.4200
   95SAPE  C214 9441   5.346   1.498   4.986 -0.1598 -0.5427 -0.3490
   95SAPE  H14R 9442   5.339   1.472   5.093  1.6555  0.8382  0.1467
   95SAPE  C215 9443   5.259   1.457   4.903 -0.2752 -0.4196  0.4219
   95SAPE  H15R 9444   5.173   1.398   4.940 -0.3193  0.0781  1.1285
   95SAPE  C216 9445   5.247   1.465   4.755 -0.0520  0.3580  1.0916
   95SAPE  H16R 9446   5.319   1.533   4.705  0.3833  0.4199  1.7852
   95SAPE  H16S 9447   5.147   1.503   4.726  0.3207  0.4369 -0.1173
   95SAPE  C217 9448   5.257   1.326   4.695 -1.1192  0.1448 -1.0235
   95SAPE  H17R 9449   5.159   1.281   4.722 -0.3477 -0.7515  0.3987
   95SAPE  H17S 9450   5.327   1.252   4.738 -2.8496 -2.9672 -3.1722
   95SAPE  C218 9451   5.282   1.327   4.545  0.2240 -0.7513 -0.6206
   95SAPE  H18R 9452   5.199   1.388   4.503  0.2973 -0.6367 -0.6003
   95SAPE  H18S 9453   5.275   1.221   4.512  1.6893 -1.8724  2.3376
   95SAPE  C219 9454   5.427   1.352   4.503  0.1087  0.0559 -0.4925
   95SAPE  H19R 9455   5.466   1.249   4.514 -1.3534 -0.4358  0.4289
   95SAPE  H19S 9456   5.484   1.420   4.570 -0.7865  0.8476 -0.5076
   95SAPE  C220 9457   5.454   1.402   4.363  0.4802  0.0195  0.2790
   95SAPE  H20R 9458   5.407   1.503   4.358 -1.4144 -0.8087  0.6336
   95SAPE  H20S 9459   5.396   1.349   4.283 -0.7185 -1.0795  1.8185
   95SAPE  H20T 9460   5.563   1.405   4.341  1.0855 -1.5773  2.7175
   95SAPE   C33 9461   5.478   1.107   5.620  0.1840 -0.0074 -0.1037
   95SAPE   H3X 9462   5.500   1.209   5.582  0.2364 -0.0722 -0.2471
   95SAPE   H3Y 9463   5.383   1.108   5.677  0.2181  3.2976  0.1065
   95SAPE   C34 9464   5.462   1.019   5.490 -0.1197  0.4895  0.6890
   95SAPE   H4X 9465   5.439   0.912   5.505  1.8197  0.0332  0.5930
   95SAPE   H4Y 9466   5.564   1.025   5.446  0.0408  0.0665  1.0024
   95SAPE   C35 9467   5.375   1.089   5.382  0.4540 -0.5726  0.2780
   95SAPE   H5X 9468   5.384   1.199   5.393 -0.9809 -0.4653  0.6749
   95SAPE   H5Y 9469   5.272   1.061   5.413 -0.9942  2.4113 -1.3983
   95SAPE   C36 9470   5.388   1.049   5.235  0.4083  0.4567  0.3339
   95SAPE   H6X 9471   5.372   0.939   5.235  2.4021  0.1197  1.5281
   95SAPE   H6Y 9472   5.492   1.053   5.196  0.7883  0.2916  1.3028
   95SAPE   C37 9473   5.304   1.130   5.143  0.0603 -0.5583  0.4204
   95SAPE   H7X 9474   5.354   1.229   5.134 -0.9006 -0.1297 -0.4615
   95SAPE   H7Y 9475   5.217   1.173   5.196  0.3520  0.4547  0.1065
   95SAPE   C38 9476   5.269   1.071   5.005  0.1580 -0.5086  0.0352
   95SAPE   H8X 9477   5.195   1.136   4.953 -0.6890 -0.0984  1.6773
   95SAPE   H8Y 9478   5.227   0.971   5.032  0.8225 -0.5490  0.9577
   95SAPE   C39 9479   5.395   1.046   4.930  0.0461  0.0365 -0.1544
   95SAPE   H9X 9480   5.465   0.998   5.001 -0.0180 -0.0992 -0.1844
   95SAPE   H9Y 9481   5.437   1.147   4.911 -0.5746  0.5090  0.9006
   95SAPE  C310 9482   5.368   0.970   4.796  0.3412  0.2514 -0.2904
   95SAPE  H10X 9483   5.281   1.017   4.747  1.6929  1.1198 -1.9556
   95SAPE  H10Y 9484   5.341   0.865   4.821  2.7586 -0.0009  1.6629
   95SAPE  C311 9485   5.491   0.962   4.711 -0.9891 -0.0140  0.7038
   95SAPE  H11X 9486   5.578   0.917   4.765 -0.1915  1.2943  0.5600
   95SAPE  H11Y 9487   5.526   1.062   4.677 -0.7406 -0.4862 -0.4609
   95SAPE  C312 9488   5.462   0.874   4.591 -0.7655  0.5530 -1.0122
   95SAPE  H12X 9489   5.428   0.773   4.623 -0.1504  0.5145 -0.4618
   95SAPE  H12Y 9490   5.555   0.870   4.531 -1.0157  1.1085 -1.4524
   95SAPE  C313 9491   5.348   0.931   4.499  0.2977  0.4475  0.1956
   95SAPE  H13X 9492   5.385   1.031   4.466  1.1947  0.2719  0.6369
   95SAPE  H13Y 9493   5.249   0.942   4.548  0.1382 -0.5563  0.1146
   95SAPE  C314 9494   5.333   0.849   4.365  0.6449 -0.5413 -0.2710
   95SAPE  H14X 9495   5.329   0.740   4.385  1.0481 -0.5266 -0.1088
   95SAPE  H14Y 9496   5.431   0.858   4.313 -0.2424  1.6700 -1.6859
   95SAPE  C315 9497   5.222   0.903   4.276  0.2494 -0.7796  0.2832
   95SAPE  H15X 9498   5.250   1.007   4.249 -1.5327 -0.4983 -0.6434
   95SAPE  H15Y 9499   5.125   0.903   4.331  0.2840 -3.2753  0.4380
   95SAPE  C316 9500   5.190   0.819   4.147 -0.0268 -0.2950 -0.6943
   95SAPE  H16X 9501   5.159   0.718   4.184  2.2692 -0.6507  0.4994
   95SAPE  H16Y 9502   5.284   0.803   4.089 -0.2558  1.1000 -1.4717
   95SAPE  C317 9503   5.089   0.880   4.054  0.3660 -0.0874 -0.2970
   95SAPE  H17X 9504   5.122   0.981   4.023 -1.2709  0.1698 -1.3112
   95SAPE  H17Y 9505   4.994   0.891   4.111  1.3245 -1.3421  1.6568
   95SAPE  C318 9506   5.063   0.800   3.927 -0.6929 -0.1761 -0.3607
   95SAPE  H18X 9507   5.155   0.780   3.868 -0.4920  0.7838 -0.3786
   95SAPE  H18Y 9508   4.989   0.848   3.860 -1.5500 -1.0250 -0.0476
   95SAPE  H18Z 9509   5.020   0.700   3.949  0.3593 -0.5019  0.2615
   96SAPE     N 9510   5.977   2.921   6.726  0.1964  0.6569 -0.2579
   96SAPE   HN1 9511   5.964   2.892   6.825 -0.1725 -0.0057 -0.4930
   96SAPE   HN2 9512   5.913   2.998   6.700  0.1182  0.0945 -1.8386
   96SAPE   HN3 9513   5.956   2.836   6.669 -0.5723  0.9421 -0.3990
   96SAPE   C12 9514   6.121   2.968   6.699 -0.0560  0.2717  0.0397
   96SAPE  H12A 9515   6.194   2.886   6.710 -0.0753  0.0578 -1.2791
   96SAPE  H12B 9516   6.148   3.038   6.782 -2.0206  1.5987 -0.3551
   96SAPE   C11 9517   6.122   3.040   6.567  0.0741  0.3780  0.0791
   96SAPE  H11A 9518   6.107   2.962   6.490 -1.1262  1.6118 -1.0004
   96SAPE  H11B 9519   6.223   3.079   6.542  0.8257 -2.1606 -1.1758
   96SAPE     P 9520   6.025   3.280   6.586 -0.0345  0.1491  0.3936
   96SAPE   O13 9521   5.886   3.330   6.586  0.2002 -0.6609 -0.2453
   96SAPE   O14 9522   6.105   3.298   6.712  0.2456  0.3203  0.0692
   96SAPE   O12 9523   6.008   3.131   6.557 -0.4241  0.2319  0.4181
   96SAPE   O11 9524   6.112   3.327   6.457  0.1932  0.0378 -0.1852
   96SAPE    C1 9525   6.054   3.294   6.330  0.4091 -0.1518 -0.0254
   96SAPE    HA 9526   6.049   3.183   6.327  0.6872 -0.1758  0.3220
   96SAPE    HB 9527   5.947   3.327   6.327  1.1624  2.8702  1.7865
   96SAPE    C2 9528   6.152   3.338   6.225 -0.4240  0.4982 -0.1764
   96SAPE    HS 9529   6.119   3.285   6.133  0.0923  0.5146 -0.3756
   96SAPE   O21 9530   6.289   3.311   6.262 -0.4800  0.4870 -0.3543
   96SAPE   C21 9531   6.324   3.186   6.231  0.5145  0.3454 -0.6349
   96SAPE   O22 9532   6.245   3.100   6.184 -0.2846  0.3190 -0.1307
   96SAPE   C22 9533   6.474   3.154   6.253  0.0030  0.2249  0.4004
   96SAPE   H2R 9534   6.525   3.230   6.190  0.8217 -0.1184  0.6413
   96SAPE   H2S 9535   6.492   3.164   6.362 -0.9296  0.6579  0.5283
   96SAPE    C3 9536   6.134   3.491   6.189 -0.6276  0.2552  0.1764
   96SAPE    HX 9537   6.183   3.508   6.091  2.2331 -2.9385  0.8515
   96SAPE    HY 9538   6.193   3.545   6.267 -1.0242 -1.8044  1.9900
   96SAPE   O31 9539   5.998   3.529   6.182 -0.3576  0.0797  0.0550
   96SAPE   C31 9540   5.961   3.622   6.268 -0.5175  0.2762  0.0344
   96SAPE   O32 9541   6.029   3.679   6.352 -0.1466 -0.4704  0.5425
   96SAPE   C32 9542   5.810   3.646   6.231  0.8080 -0.1144 -0.5369
   96SAPE   H2X 9543   5.761   3.697   6.317  1.9101  2.7166 -1.4480
   96SAPE   H2Y 9544   5.760   3.547   6.240 -0.1468  0.4741  1.0488
   96SAPE   C23 9545   6.517   3.014   6.200  0.5433  0.6378 -0.4433
   96SAPE   H3R 9546   6.487   3.004   6.094  1.8132  1.1223 -0.8584
   96SAPE   H3S 9547   6.448   2.947   6.255 -0.5223  1.7858 -0.3302
   96SAPE   C24 9548   6.660   2.975   6.221  0.1042  0.1087  0.3453
   96SAPE   H4R 9549   6.676   2.970   6.331  3.4474 -1.1162 -0.0524
   96SAPE   H4S 9550   6.742   3.032   6.173  0.7187  0.4174  1.7200
   96SAPE   C25 9551   6.672   2.827   6.186 -0.2318  0.5357  0.8577
   96SAPE   H5R 9552   6.640   2.763   6.270  0.2409  0.1556  0.7529
   96SAPE   C26 9553   6.704   2.779   6.066 -1.1655  0.0307  0.1953
   96SAPE   H6R 9554   6.706   2.672   6.042  0.2530  0.4410 -1.6847
   96SAPE   C27 9555   6.752   2.861   5.946  0.7097  0.1044 -0.2764
   96SAPE   H7R 9556   6.810   2.947   5.986 -0.1775  0.2931  0.6391
   96SAPE   H7S 9557   6.676   2.916   5.887  0.8764  1.9967  1.1779
   96SAPE   C28 9558   6.849   2.784   5.856 -0.3044  0.3563  0.0296
   96SAPE   H8R 9559   6.953   2.821   5.853  0.2659 -1.1516  0.1489
   96SAPE   C29 9560   6.820   2.674   5.779  0.4969  0.7130  0.0266
   96SAPE   H9R 9561   6.888   2.613   5.718 -0.1983  0.1418 -0.1971
   96SAPE  C210 9562   6.682   2.612   5.766  0.4219 -0.0579  0.4242
   96SAPE  H10R 9563   6.605   2.682   5.804 -0.4951  0.2745 -1.8931
   96SAPE  H10S 9564   6.686   2.521   5.830 -0.8676  1.7030  3.2377
   96SAPE  C211 9565   6.638   2.570   5.623 -0.1291  0.4027 -0.7421
   96SAPE  H11R 9566   6.618   2.462   5.621 -0.1266  0.4077 -2.3017
   96SAPE  C212 9567   6.614   2.644   5.518  0.7678 -0.5472  0.1037
   96SAPE  H12R 9568   6.599   2.592   5.422  1.3579  0.6304 -0.6619
   96SAPE  C213 9569   6.623   2.790   5.501 -0.6513  0.1609 -0.4841
   96SAPE  H13R 9570   6.691   2.837   5.575 -0.5585  0.1595 -0.5679
   96SAPE  H13S 9571   6.520   2.830   5.500 -0.6217  0.2407 -1.0370
   96SAPE  C214 9572   6.686   2.820   5.365 -0.0498  0.3228  0.5578
   96SAPE  H14R 9573   6.729   2.734   5.312 -3.5524 -0.6352 -0.9656
   96SAPE  C215 9574   6.678   2.933   5.291 -0.0801 -0.0104  0.3019
   96SAPE  H15R 9575   6.717   2.948   5.189 -2.6281  2.1423 -0.4504
   96SAPE  C216 9576   6.617   3.060   5.340 -0.5874 -0.1328 -0.4914
   96SAPE  H16R 9577   6.698   3.132   5.363 -0.9192  0.1660 -0.2468
   96SAPE  H16S 9578   6.576   3.046   5.443  0.2357  2.5802  0.2952
   96SAPE  C217 9579   6.509   3.136   5.262 -0.5840  0.1546  0.1897
   96SAPE  H17R 9580   6.413   3.082   5.252 -0.5025  0.4173 -3.0312
   96SAPE  H17S 9581   6.568   3.152   5.169 -0.1012  1.2367  0.6628
   96SAPE  C218 9582   6.463   3.269   5.327  0.2524 -0.0911 -0.4574
   96SAPE  H18R 9583   6.410   3.242   5.421  0.0634  0.7607 -0.3041
   96SAPE  H18S 9584   6.396   3.329   5.261 -0.8241  0.3087  0.9535
   96SAPE  C219 9585   6.574   3.369   5.375  0.4867 -0.7682 -0.3180
   96SAPE  H19R 9586   6.622   3.408   5.282 -1.5625  0.8199 -0.8002
   96SAPE  H19S 9587   6.652   3.320   5.436  1.2642 -0.8561 -1.3653
   96SAPE  C220 9588   6.505   3.476   5.460  0.7277 -0.2901  0.6013
   96SAPE  H20R 9589   6.579   3.550   5.498 -0.7663  1.7492 -0.2451
   96SAPE  H20S 9590   6.465   3.435   5.555  0.2505 -1.1178  0.0562
   96SAPE  H20T 9591   6.425   3.528   5.403  1.2602  0.7214  0.7490
   96SAPE   C33 9592   5.795   3.727   6.100  0.1876 -0.8846 -0.6777
   96SAPE   H3X 9593   5.852   3.675   6.020 -0.3927 -1.6210 -0.6325
   96SAPE   H3Y 9594   5.832   3.831   6.111  1.1287 -1.3640  1.0312
   96SAPE   C34 9595   5.648   3.742   6.063  0.7541  0.0514 -0.2493
   96SAPE   H4X 9596   5.604   3.819   6.130  1.7896  0.2911  0.1853
   96SAPE   H4Y 9597   5.591   3.649   6.084  1.7163 -0.1274  1.9678
   96SAPE   C35 9598   5.626   3.777   5.917 -0.8569 -0.3528  0.2300
   96SAPE   H5X 9599   5.659   3.695   5.851  1.2460 -0.4378  1.3032
   96SAPE   H5Y 9600   5.700   3.858   5.899  0.9786 -1.9505  0.2295
   96SAPE   C36 9601   5.492   3.833   5.876  0.7120  0.8456 -0.5468
   96SAPE   H6X 9602   5.443   3.887   5.960  0.0334 -0.3029 -0.1782
   96SAPE   H6Y 9603   5.421   3.749   5.857  0.6016 -0.3396  4.0103
   96SAPE   C37 9604   5.508   3.919   5.749 -0.2042  0.0265  0.8956
   96SAPE   H7X 9605   5.572   3.864   5.676 -0.4670  1.1020 -0.1701
   96SAPE   H7Y 9606   5.567   4.008   5.779  1.3855 -0.1004 -1.5228
   96SAPE   C38 9607   5.385   3.975   5.691 -0.4819 -0.0650  0.1884
   96SAPE   H8X 9608   5.358   4.057   5.760  0.4841 -0.0337  0.5412
   96SAPE   H8Y 9609   5.310   3.894   5.703  1.7176 -2.2167 -0.0464
   96SAPE   C39 9610   5.387   4.029   5.541 -0.3183 -0.5960  0.1168
   96SAPE   H9X 9611   5.448   4.121   5.532  0.3613 -0.9046  1.3310
   96SAPE   H9Y 9612   5.286   4.059   5.506  0.0151  0.2036 -0.1760
   96SAPE  C310 9613   5.440   3.924   5.443 -0.0217  0.2226  0.3899
   96SAPE  H10X 9614   5.385   3.828   5.455  2.3503 -1.0817  1.4119
   96SAPE  H10Y 9615   5.547   3.899   5.452 -0.3781 -1.3042  0.6288
   96SAPE  C311 9616   5.411   3.972   5.304 -0.1432  0.0429 -0.6216
   96SAPE  H11X 9617   5.459   4.070   5.285  0.9377 -0.6706 -1.7509
   96SAPE  H11Y 9618   5.303   3.978   5.282 -0.5186 -2.3379  0.2443
   96SAPE  C312 9619   5.479   3.887   5.192 -0.2012  0.0040  0.3491
   96SAPE  H12X 9620   5.444   3.929   5.096  1.7544  1.7870  0.3325
   96SAPE  H12Y 9621   5.462   3.777   5.192  1.8738 -0.4086  2.4648
   96SAPE  C313 9622   5.628   3.918   5.191 -0.3724  0.4800 -0.2407
   96SAPE  H13X 9623   5.674   3.845   5.260 -2.8017 -0.4158  0.5392
   96SAPE  H13Y 9624   5.643   4.022   5.226  0.6629  0.3961 -0.4100
   96SAPE  C314 9625   5.695   3.898   5.054 -0.2424 -0.0135 -0.2146
   96SAPE  H14X 9626   5.646   3.947   4.966  1.7841 -0.1652 -1.4806
   96SAPE  H14Y 9627   5.715   3.790   5.040  1.6983  0.3985 -1.0266
   96SAPE  C315 9628   5.835   3.954   5.052 -0.8292  0.1426  0.0905
   96SAPE  H15X 9629   5.891   3.925   5.144 -0.7231  0.1431  0.0250
   96SAPE  H15Y 9630   5.834   4.065   5.051 -1.1719  0.2166  2.3428
   96SAPE  C316 9631   5.924   3.911   4.927  0.6868  0.6726 -0.4186
   96SAPE  H16X 9632   5.889   3.958   4.833  0.5996 -1.3517 -1.4414
   96SAPE  H16Y 9633   5.901   3.804   4.906 -0.1578  0.1647  2.5866
   96SAPE  C317 9634   6.068   3.918   4.961 -0.1639  0.3745 -0.6483
   96SAPE  H17X 9635   6.082   3.863   5.056 -0.3202  1.4511  0.0121
   96SAPE  H17Y 9636   6.083   4.025   4.984  1.0947 -0.1503  1.0908
   96SAPE  C318 9637   6.149   3.858   4.848  0.1379  0.3593  0.1957
   96SAPE  H18X 9638   6.255   3.859   4.881  0.3762  0.0237 -0.5518
   96SAPE  H18Y 9639   6.130   3.919   4.757  1.0875  2.0638  1.0777
   96SAPE  H18Z 9640   6.118   3.752   4.835  0.7333  0.2123 -0.0592
   97SAPE     N 9641   0.391   3.521   6.822 -0.0927 -0.5505 -0.1083
   97SAPE   HN1 9642   0.450   3.520   6.907 -0.8904  0.3526  0.4814
   97SAPE   HN2 9643   0.294   3.485   6.838 -1.0969  2.6936  1.8963
   97SAPE   HN3 9644   0.435   3.456   6.754 -2.4100 -3.5019  0.9835
   97SAPE   C12 9645   0.384   3.667   6.768 -0.2949  0.6527  0.4870
   97SAPE  H12A 9646   0.335   3.724   6.851  1.2260 -0.1879  2.0341
   97SAPE  H12B 9647   0.322   3.672   6.676  1.7564  0.9684 -0.9518
   97SAPE   C11 9648   0.527   3.714   6.740 -0.0177  0.2090  0.1195
   97SAPE  H11A 9649   0.508   3.766   6.644 -1.0675  1.6866  1.0852
   97SAPE  H11B 9650   0.598   3.631   6.718 -0.9310 -0.3621 -0.7688
   97SAPE     P 9651   0.716   3.864   6.835  0.3972 -0.1075  0.2649
   97SAPE   O13 9652   0.721   3.973   6.937  0.6780  0.2326  0.2006
   97SAPE   O14 9653   0.810   3.753   6.847 -0.4856  0.1063 -0.2272
   97SAPE   O12 9654   0.566   3.806   6.835 -0.0865  0.1522 -0.3970
   97SAPE   O11 9655   0.723   3.927   6.693 -0.6225 -0.0212 -0.4384
   97SAPE    C1 9656   0.655   4.049   6.669  0.1748  0.0449  0.5167
   97SAPE    HA 9657   0.629   4.101   6.764  2.7722  1.4175  0.5782
   97SAPE    HB 9658   0.731   4.110   6.616  2.0271 -2.4719  0.0584
   97SAPE    C2 9659   0.539   4.030   6.577 -0.3642 -0.4292  0.7016
   97SAPE    HS 9660   0.468   3.968   6.635 -1.6184  0.0716 -0.2362
   97SAPE   O21 9661   0.587   3.959   6.456 -0.0036 -0.5607 -0.4339
   97SAPE   C21 9662   0.491   3.931   6.360  0.0122 -0.5993  0.4347
   97SAPE   O22 9663   0.372   3.947   6.389  0.1066 -0.2457  0.2505
   97SAPE   C22 9664   0.553   3.900   6.222 -0.2409  0.1104  0.2522
   97SAPE   H2R 9665   0.630   3.973   6.188  1.3096 -2.1544 -1.4800
   97SAPE   H2S 9666   0.614   3.809   6.242 -1.0243 -0.3313  0.6740
   97SAPE    C3 9667   0.471   4.169   6.546  0.1850 -0.7555  0.4527
   97SAPE    HX 9668   0.416   4.193   6.639 -1.2687  0.2067 -0.6192
   97SAPE    HY 9669   0.395   4.161   6.466  2.9047 -1.4895 -2.2451
   97SAPE   O31 9670   0.574   4.266   6.511  0.2342 -0.0411 -0.1319
   97SAPE   C31 9671   0.590   4.279   6.384 -0.3735 -0.0203  0.0809
   97SAPE   O32 9672   0.515   4.243   6.294 -0.0664  0.4456  0.3100
   97SAPE   C32 9673   0.722   4.346   6.359 -0.8403 -0.3695 -0.1200
   97SAPE   H2X 9674   0.804   4.284   6.402 -0.6801  0.3305  0.6059
   97SAPE   H2Y 9675   0.721   4.440   6.420 -0.3669 -1.1181  1.0748
   97SAPE   C23 9676   0.445   3.883   6.117 -0.0656  0.3408  0.4011
   97SAPE   H3R 9677   0.385   3.974   6.096 -2.4727 -1.3116 -0.2186
   97SAPE   H3S 9678   0.366   3.814   6.152  0.6465 -0.9791 -0.5133
   97SAPE   C24 9679   0.503   3.811   5.987  0.4747  0.2164 -0.4230
   97SAPE   H4R 9680   0.514   3.703   6.013 -0.4117 -0.0415 -1.0753
   97SAPE   H4S 9681   0.600   3.862   5.965  0.0487  1.4467  0.4629
   97SAPE   C25 9682   0.397   3.823   5.878 -0.8546 -0.0378 -0.5079
   97SAPE   H5R 9683   0.302   3.862   5.917 -0.2848 -0.0089  0.9034
   97SAPE   C26 9684   0.411   3.780   5.754  0.3693 -0.2374  0.4016
   97SAPE   H6R 9685   0.326   3.795   5.687  0.0863  3.2769  1.3362
   97SAPE   C27 9686   0.527   3.719   5.692 -0.3244  0.1728  0.1188
   97SAPE   H7R 9687   0.618   3.725   5.757 -1.2224  1.8062  1.2855
   97SAPE   H7S 9688   0.536   3.771   5.595 -0.2529  1.1740  0.6539
   97SAPE   C28 9689   0.505   3.574   5.663  0.7361  0.4054  0.9604
   97SAPE   H8R 9690   0.525   3.501   5.743  0.4442 -0.0038  0.6647
   97SAPE   C29 9691   0.463   3.526   5.543  0.3649  0.1309 -0.3544
   97SAPE   H9R 9692   0.471   3.420   5.512 -0.2545  0.0309 -0.1952
   97SAPE  C210 9693   0.421   3.612   5.429 -0.1591 -0.6302  0.0140
   97SAPE  H10R 9694   0.388   3.710   5.471 -1.1133 -1.3449  0.9724
   97SAPE  H10S 9695   0.337   3.576   5.366 -0.2783 -0.2333 -0.0568
   97SAPE  C211 9696   0.543   3.639   5.340  0.5095  0.1324 -0.3008
   97SAPE  H11R 9697   0.605   3.724   5.372  0.2757  0.3100 -0.3134
   97SAPE  C212 9698   0.583   3.568   5.234 -0.0354  0.5340 -0.6650
   97SAPE  H12R 9699   0.679   3.596   5.189  0.3270  1.2681  0.5461
   97SAPE  C213 9700   0.517   3.452   5.166  1.0536  0.4042 -0.3052
   97SAPE  H13R 9701   0.456   3.402   5.244  1.3563  1.1484  0.4303
   97SAPE  H13S 9702   0.592   3.376   5.136  0.3712  0.2007 -1.5663
   97SAPE  C214 9703   0.440   3.473   5.043  0.2065 -0.0271 -0.2833
   97SAPE  H14R 9704   0.334   3.500   5.054  0.5024  0.5187  1.6107
   97SAPE  C215 9705   0.488   3.469   4.918  0.2026 -0.2521  0.1854
   97SAPE  H15R 9706   0.423   3.497   4.834 -0.5429 -0.6738  0.6134
   97SAPE  C216 9707   0.633   3.457   4.869 -0.0659  0.4508  0.5901
   97SAPE  H16R 9708   0.707   3.457   4.952 -0.1249 -3.2653  0.8132
   97SAPE  H16S 9709   0.664   3.544   4.808  2.5722 -0.9922 -0.3126
   97SAPE  C217 9710   0.669   3.328   4.789  0.3211  0.0341 -0.3416
   97SAPE  H17R 9711   0.765   3.343   4.736 -0.0994  1.7413 -0.6773
   97SAPE  H17S 9712   0.589   3.324   4.712 -1.1636  0.6276  1.1189
   97SAPE  C218 9713   0.671   3.200   4.869  0.1389 -0.6967  0.4015
   97SAPE  H18R 9714   0.596   3.210   4.950 -0.2702 -0.2222 -0.0281
   97SAPE  H18S 9715   0.772   3.195   4.915  0.6340  2.4348 -0.1436
   97SAPE  C219 9716   0.642   3.076   4.792  0.0644  0.1488  0.6223
   97SAPE  H19R 9717   0.738   3.065   4.738  0.7916  0.6068  1.7946
   97SAPE  H19S 9718   0.559   3.094   4.720  0.0373 -1.0906  0.3075
   97SAPE  C220 9719   0.627   2.941   4.876  0.1466  0.2029  0.1473
   97SAPE  H20R 9720   0.715   2.934   4.945  0.4833  2.0161 -0.0309
   97SAPE  H20S 9721   0.617   2.851   4.813 -2.3306 -0.7209  1.7293
   97SAPE  H20T 9722   0.542   2.957   4.946  1.7442  0.9993  2.0192
   97SAPE   C33 9723   0.745   4.384   6.212 -0.0618  0.1632 -0.2993
   97SAPE   H3X 9724   0.644   4.420   6.184  0.2316 -0.0612 -1.6906
   97SAPE   H3Y 9725   0.765   4.293   6.151 -0.5081 -1.4835  1.8785
   97SAPE   C34 9726   0.857   4.491   6.199  0.4496  0.2445 -0.0357
   97SAPE   H4X 9727   0.933   4.481   6.279 -1.5372  1.7744  2.2234
   97SAPE   H4Y 9728   0.806   4.587   6.223 -2.1933 -0.6672 -1.5643
   97SAPE   C35 9729   0.919   4.493   6.056 -0.2320 -0.1311 -0.6592
   97SAPE   H5X 9730   0.991   4.408   6.052  1.4525  1.2599 -2.2658
   97SAPE   H5Y 9731   0.984   4.582   6.042 -0.0708  0.1814  1.7368
   97SAPE   C36 9732   0.811   4.486   5.941 -0.6423  0.0880 -0.5061
   97SAPE   H6X 9733   0.735   4.568   5.941 -0.7859 -0.0199  0.6094
   97SAPE   H6Y 9734   0.762   4.387   5.950 -0.4020  0.0333  0.2639
   97SAPE   C37 9735   0.873   4.514   5.805 -0.1443  0.4346  0.3088
   97SAPE   H7X 9736   0.961   4.450   5.783 -1.2773 -1.0407 -0.1821
   97SAPE   H7Y 9737   0.906   4.619   5.814 -0.2437  0.6648 -1.5811
   97SAPE   C38 9738   0.775   4.520   5.693  0.4974 -0.2052  0.5878
   97SAPE   H8X 9739   0.674   4.552   5.728  0.1369 -2.8795  2.3398
   97SAPE   H8Y 9740   0.764   4.415   5.656 -0.4156 -0.3857  1.3268
   97SAPE   C39 9741   0.825   4.600   5.570 -0.5065  0.8106  0.1217
   97SAPE   H9X 9742   0.935   4.583   5.564 -0.3620  1.1002  1.4739
   97SAPE   H9Y 9743   0.827   4.709   5.591 -1.1248  0.7799  0.3735
   97SAPE  C310 9744   0.747   4.569   5.449  0.1938 -0.1196 -0.7199
   97SAPE  H10X 9745   0.639   4.590   5.468  0.0410  1.1388 -2.7099
   97SAPE  H10Y 9746   0.762   4.461   5.429  0.6869 -0.1473 -0.2187
   97SAPE  C311 9747   0.776   4.643   5.320 -0.8943 -0.4188  0.0704
   97SAPE  H11X 9748   0.883   4.617   5.303 -0.5638  0.0736  1.2617
   97SAPE  H11Y 9749   0.763   4.751   5.339 -0.1133 -0.5577  1.5189
   97SAPE  C312 9750   0.695   4.597   5.203  0.4268 -0.4025  0.2230
   97SAPE  H12X 9751   0.587   4.616   5.218  0.6137  0.1778  0.9073
   97SAPE  H12Y 9752   0.717   4.488   5.200  4.3926  0.2324  1.0917
   97SAPE  C313 9753   0.730   4.663   5.066 -0.2571  0.0905  0.1613
   97SAPE  H13X 9754   0.838   4.640   5.053  0.2016  1.2854  1.4860
   97SAPE  H13Y 9755   0.712   4.773   5.074 -1.5403 -0.2105  2.1446
   97SAPE  C314 9756   0.652   4.596   4.954  0.2703 -0.1540  0.3089
   97SAPE  H14X 9757   0.544   4.594   4.982 -0.3583 -1.2896 -1.9256
   97SAPE  H14Y 9758   0.693   4.493   4.942  0.9921 -0.0023  1.3704
   97SAPE  C315 9759   0.667   4.677   4.816 -0.3121 -0.2298 -0.2747
   97SAPE  H15X 9760   0.598   4.763   4.814 -1.4267 -1.0622  0.7209
   97SAPE  H15Y 9761   0.639   4.606   4.736 -0.3762  0.1065 -0.5506
   97SAPE  C316 9762   0.814   4.726   4.793 -0.6184 -0.1692 -0.2265
   97SAPE  H16X 9763   0.887   4.642   4.791 -1.0416 -0.6251  1.6564
   97SAPE  H16Y 9764   0.839   4.798   4.874  0.2122  0.3580 -0.9245
   97SAPE  C317 9765   0.836   4.800   4.660  0.3700 -0.7740  0.1033
   97SAPE  H17X 9766   0.941   4.794   4.624 -0.4674  0.0961 -2.8496
   97SAPE  H17Y 9767   0.819   4.910   4.662  2.2083 -0.3913 -1.7472
   97SAPE  C318 9768   0.755   4.737   4.540  0.5235  0.7407 -0.6078
   97SAPE  H18X 9769   0.789   4.770   4.440 -0.3034 -0.6722 -1.3875
   97SAPE  H18Y 9770   0.650   4.767   4.558  0.1552 -0.7424 -0.1061
   97SAPE  H18Z 9771   0.774   4.628   4.536  0.1292  0.6957 -1.6210
   98SAPE     N 9772   3.991   3.239   7.018 -0.3121  0.2675 -0.0702
   98SAPE   HN1 9773   3.901   3.187   7.026  0.5945 -1.1393  1.6201
   98SAPE   HN2 9774   4.068   3.178   7.052 -0.8946  0.8107  2.4135
   98SAPE   HN3 9775   3.997   3.326   7.076 -2.0723 -0.4533  1.2903
   98SAPE   C12 9776   4.016   3.269   6.872 -0.6404 -0.6403  0.3273
   98SAPE  H12A 9777   4.002   3.174   6.818 -0.3656  0.5575 -1.9753
   98SAPE  H12B 9778   4.123   3.299   6.861 -0.3596 -2.4378 -2.7445
   98SAPE   C11 9779   3.917   3.372   6.806 -0.2095  0.2808 -0.2886
   98SAPE  H11A 9780   3.819   3.322   6.795 -0.5654  1.1522 -1.1794
   98SAPE  H11B 9781   3.948   3.386   6.701 -0.7657 -0.6142 -0.5785
   98SAPE     P 9782   3.989   3.618   6.840 -0.3287 -0.4349 -0.0785
   98SAPE   O13 9783   3.961   3.740   6.922 -0.6847  0.2758  0.3409
   98SAPE   O14 9784   4.128   3.571   6.846 -0.1570  0.0396  0.1251
   98SAPE   O12 9785   3.900   3.493   6.881  0.3499  0.1574 -0.5682
   98SAPE   O11 9786   3.941   3.639   6.691 -0.0243  0.5675  0.2224
   98SAPE    C1 9787   4.031   3.627   6.582  0.0740 -0.2020 -0.1599
   98SAPE    HA 9788   4.128   3.580   6.607 -0.9262 -2.2773 -0.0031
   98SAPE    HB 9789   3.997   3.553   6.507  1.3533 -1.7152  0.6935
   98SAPE    C2 9790   4.053   3.767   6.508  0.2596  0.2301  0.1454
   98SAPE    HS 9791   4.071   3.843   6.587 -2.4263  2.1237 -0.9075
   98SAPE   O21 9792   3.930   3.800   6.437 -0.4782 -0.6210  0.2011
   98SAPE   C21 9793   3.909   3.923   6.401 -0.2649 -0.3080  0.1382
   98SAPE   O22 9794   3.981   4.020   6.424 -0.3408  0.2082 -0.7833
   98SAPE   C22 9795   3.781   3.927   6.317  0.3850 -1.0985  0.3444
   98SAPE   H2R 9796   3.711   3.856   6.366 -1.7414  0.2737 -0.5344
   98SAPE   H2S 9797   3.754   4.035   6.306  1.8837 -0.9008 -2.3135
   98SAPE    C3 9798   4.179   3.777   6.422  0.4459 -0.5163  0.1668
   98SAPE    HX 9799   4.264   3.746   6.487  0.1644 -1.1810  0.2223
   98SAPE    HY 9800   4.180   3.886   6.400 -1.7237 -0.2930  0.9343
   98SAPE   O31 9801   4.161   3.699   6.295  0.5452  0.1478 -0.2917
   98SAPE   C31 9802   4.258   3.724   6.206  0.8935  0.2317  0.3371
   98SAPE   O32 9803   4.335   3.819   6.215 -0.5523  0.1625 -0.1637
   98SAPE   C32 9804   4.249   3.622   6.091  0.3669 -0.0733  0.7030
   98SAPE   H2X 9805   4.142   3.626   6.065  0.3741  1.5667  0.8230
   98SAPE   H2Y 9806   4.271   3.524   6.138  1.4298  1.1451  2.9025
   98SAPE   C23 9807   3.809   3.880   6.169  0.3999  0.1997 -0.4009
   98SAPE   H3R 9808   3.711   3.855   6.121 -0.9972  0.8088  1.9822
   98SAPE   H3S 9809   3.860   3.782   6.180  1.1019  0.3901 -1.7873
   98SAPE   C24 9810   3.889   3.975   6.081  0.1181 -0.1999 -0.3266
   98SAPE   H4R 9811   3.957   4.028   6.151  1.5062 -0.3789 -1.4873
   98SAPE   H4S 9812   3.821   4.055   6.045  0.7847  0.6279  0.2076
   98SAPE   C25 9813   3.960   3.902   5.968  0.2205 -0.3676 -0.0092
   98SAPE   H5R 9814   3.884   3.840   5.918 -3.8616  3.5070  0.7103
   98SAPE   C26 9815   4.089   3.909   5.933  0.4241 -0.2309  0.4804
   98SAPE   H6R 9816   4.137   3.845   5.858  1.5151 -1.1862  1.9487
   98SAPE   C27 9817   4.183   4.002   5.994 -0.9595 -0.2322  0.2965
   98SAPE   H7R 9818   4.282   3.956   5.974 -0.4479  2.0799 -3.4713
   98SAPE   H7S 9819   4.161   4.000   6.103 -2.8379  0.6538 -0.0250
   98SAPE   C28 9820   4.173   4.143   5.945  0.0131 -0.7666  0.0189
   98SAPE   H8R 9821   4.094   4.199   5.997 -0.1862  0.1317 -1.1841
   98SAPE   C29 9822   4.231   4.201   5.838  0.5516  1.2351  0.1961
   98SAPE   H9R 9823   4.191   4.300   5.812  0.8209  1.4543  0.5947
   98SAPE  C210 9824   4.325   4.147   5.744 -0.8167 -0.6736 -0.3016
   98SAPE  H10R 9825   4.289   4.170   5.641 -1.6303  0.7849  0.2732
   98SAPE  H10S 9826   4.321   4.037   5.758  1.1378 -0.6183  0.9578
   98SAPE  C211 9827   4.474   4.188   5.767  0.4977  0.0122 -0.2162
   98SAPE  H11R 9828   4.507   4.192   5.872  0.8144  2.5530 -0.3462
   98SAPE  C212 9829   4.557   4.213   5.662  0.0585  0.1866  0.0128
   98SAPE  H12R 9830   4.665   4.223   5.677  0.0335  0.9091 -0.2582
   98SAPE  C213 9831   4.521   4.214   5.514  0.2518  0.4150  0.4054
   98SAPE  H13R 9832   4.463   4.120   5.503  1.0719 -0.0711  0.2161
   98SAPE  H13S 9833   4.614   4.201   5.455  0.4625  1.3130  0.5252
   98SAPE  C214 9834   4.445   4.335   5.469  0.0797 -0.5747  0.1969
   98SAPE  H14R 9835   4.466   4.429   5.522  1.9026  0.0889 -1.5347
   98SAPE  C215 9836   4.384   4.352   5.348 -0.3980 -0.3738 -0.7395
   98SAPE  H15R 9837   4.332   4.442   5.312 -0.3403 -0.0218  0.0419
   98SAPE  C216 9838   4.371   4.227   5.268 -0.6939 -0.4518  0.0515
   98SAPE  H16R 9839   4.276   4.174   5.293 -0.4508 -0.5086  0.8929
   98SAPE  H16S 9840   4.451   4.151   5.269 -1.6169 -1.5436  3.2065
   98SAPE  C217 9841   4.361   4.265   5.119 -0.1840  0.0772 -0.0954
   98SAPE  H17R 9842   4.449   4.329   5.096  1.6727 -1.2922  2.6198
   98SAPE  H17S 9843   4.269   4.324   5.102 -0.0549  0.0600 -0.8881
   98SAPE  C218 9844   4.359   4.139   5.036 -0.2771  0.3368  0.1256
   98SAPE  H18R 9845   4.271   4.080   5.070  0.1648  0.4908  1.6042
   98SAPE  H18S 9846   4.449   4.077   5.054 -0.7443  0.2991  2.8515
   98SAPE  C219 9847   4.357   4.162   4.882 -0.2975 -0.0702 -0.0764
   98SAPE  H19R 9848   4.461   4.181   4.848  0.5977 -1.5109  1.6366
   98SAPE  H19S 9849   4.301   4.256   4.863 -2.8497 -1.7448 -1.3735
   98SAPE  C220 9850   4.319   4.044   4.794  0.3009  0.3316  0.1450
   98SAPE  H20R 9851   4.225   4.009   4.842  1.9113  0.2268  3.4704
   98SAPE  H20S 9852   4.386   3.958   4.812 -1.8421 -1.9254 -1.9456
   98SAPE  H20T 9853   4.323   4.066   4.685 -0.5704 -1.2527 -0.2324
   98SAPE   C33 9854   4.342   3.655   5.974 -0.5564 -0.2850 -0.3617
   98SAPE   H3X 9855   4.367   3.762   5.961  1.5450 -0.6195  0.4421
   98SAPE   H3Y 9856   4.293   3.631   5.877 -1.6415  1.1537 -0.2034
   98SAPE   C34 9857   4.481   3.593   5.989 -0.2345  0.5523 -0.4818
   98SAPE   H4X 9858   4.483   3.487   6.023 -2.3913  1.3707  2.7041
   98SAPE   H4Y 9859   4.525   3.650   6.074  0.6427  0.0383 -0.5760
   98SAPE   C35 9860   4.571   3.620   5.866  0.8433  0.4429 -0.1179
   98SAPE   H5X 9861   4.528   3.553   5.788  2.2111  1.0558 -1.4467
   98SAPE   H5Y 9862   4.676   3.586   5.880  0.3564 -0.9114  0.4910
   98SAPE   C36 9863   4.572   3.763   5.807 -0.0063 -0.3841 -0.0864
   98SAPE   H6X 9864   4.586   3.840   5.885 -1.5293 -1.0517  0.8869
   98SAPE   H6Y 9865   4.473   3.779   5.760  0.6987  0.4853 -1.3702
   98SAPE   C37 9866   4.661   3.796   5.683 -0.7267 -0.3815  0.3141
   98SAPE   H7X 9867   4.767   3.803   5.716 -1.2204 -0.1780  1.9708
   98SAPE   H7Y 9868   4.622   3.891   5.641 -1.9349 -0.6817  0.7158
   98SAPE   C38 9869   4.644   3.687   5.576  0.4835 -1.1862 -0.1340
   98SAPE   H8X 9870   4.679   3.740   5.485 -0.4660 -1.0534 -0.4283
   98SAPE   H8Y 9871   4.539   3.656   5.560 -0.1818  1.5532 -1.6904
   98SAPE   C39 9872   4.730   3.573   5.595  0.3633  0.4934  0.2353
   98SAPE   H9X 9873   4.691   3.493   5.662  2.2790 -0.7240 -0.0396
   98SAPE   H9Y 9874   4.826   3.597   5.646 -0.2548 -0.7052  2.1102
   98SAPE  C310 9875   4.765   3.503   5.464  0.3568  0.1949  0.1316
   98SAPE  H10X 9876   4.857   3.440   5.467 -0.2800 -0.7954 -0.6027
   98SAPE  H10Y 9877   4.774   3.583   5.387 -1.3213  0.0015 -0.3101
   98SAPE  C311 9878   4.651   3.411   5.412  0.4624 -0.2421  0.5303
   98SAPE  H11X 9879   4.560   3.475   5.414 -0.0256 -0.9174  0.2838
   98SAPE  H11Y 9880   4.630   3.328   5.483 -3.9737  0.2260  0.0967
   98SAPE  C312 9881   4.657   3.361   5.268 -0.7940  0.8123  0.0254
   98SAPE  H12X 9882   4.672   3.444   5.196  0.6419  1.4508  1.0225
   98SAPE  H12Y 9883   4.570   3.303   5.228 -0.2165  0.1016 -0.2225
   98SAPE  C313 9884   4.777   3.267   5.248 -0.2735 -0.0541 -0.5243
   98SAPE  H13X 9885   4.767   3.188   5.325  0.9388  0.9898  0.7637
   98SAPE  H13Y 9886   4.879   3.309   5.266  0.3708 -1.5345 -0.5540
   98SAPE  C314 9887   4.783   3.212   5.107 -0.1404 -0.9859  0.4895
   98SAPE  H14X 9888   4.782   3.303   5.042  1.0114 -0.8203  0.6838
   98SAPE  H14Y 9889   4.694   3.153   5.076  1.2579 -2.1584 -1.5289
   98SAPE  C315 9890   4.897   3.132   5.064 -0.3673 -0.7348  0.7025
   98SAPE  H15X 9891   4.916   3.049   5.134  2.3447 -2.5283 -1.8963
   98SAPE  H15Y 9892   4.990   3.194   5.067 -0.4286 -0.3641 -2.2364
   98SAPE  C316 9893   4.891   3.071   4.918 -0.7494 -0.7071  0.0367
   98SAPE  H16X 9894   4.903   3.147   4.837 -3.5912 -2.1557 -1.9013
   98SAPE  H16Y 9895   4.796   3.017   4.902 -1.6059  1.0725 -1.3091
   98SAPE  C317 9896   5.000   2.968   4.894 -0.5914  0.0875  0.0908
   98SAPE  H17X 9897   4.999   2.891   4.975 -1.9451  0.8795  0.8559
   98SAPE  H17Y 9898   5.098   3.016   4.911 -0.3022 -0.0082 -1.1973
   98SAPE  C318 9899   4.987   2.899   4.756 -0.1537  0.6507  0.3492
   98SAPE  H18X 9900   4.917   2.815   4.775  0.1109  0.1913 -0.6640
   98SAPE  H18Y 9901   5.084   2.854   4.727 -0.9156 -0.5961 -0.3321
   98SAPE  H18Z 9902   4.946   2.962   4.673 -2.1288  0.5132  1.1602
   99SAPE     N 9903   5.096   4.513   6.462  0.5939 -0.0048 -0.9670
   99SAPE   HN1 9904   5.145   4.552   6.545 -1.8800  0.5409  0.3166
   99SAPE   HN2 9905   5.161   4.509   6.380 -1.4879 -3.2403 -2.6675
   99SAPE   HN3 9906   5.023   4.584   6.444  1.1728  0.6238 -0.8752
   99SAPE   C12 9907   5.046   4.375   6.487  0.1500  0.0908  0.2849
   99SAPE  H12A 9908   4.989   4.344   6.396 -1.5645 -0.8463  1.6184
   99SAPE  H12B 9909   4.968   4.383   6.565 -2.2352 -0.8899 -1.8474
   99SAPE   C11 9910   5.165   4.275   6.511 -0.0278 -0.3515 -0.1394
   99SAPE  H11A 9911   5.232   4.263   6.423  2.8342  0.9550  1.7373
   99SAPE  H11B 9912   5.115   4.176   6.516  0.2700 -0.4965 -0.0182
   99SAPE     P 9913   5.382   4.358   6.622 -0.0863  0.3086  0.1967
   99SAPE   O13 9914   5.418   4.419   6.750  0.3039 -0.5876  0.2229
   99SAPE   O14 9915   5.464   4.237   6.581  0.0783 -0.5549  0.4808
   99SAPE   O12 9916   5.233   4.307   6.632 -0.0843 -0.4156 -0.0637
   99SAPE   O11 9917   5.373   4.463   6.512 -0.1765  0.4405 -0.5872
   99SAPE    C1 9918   5.476   4.558   6.489  0.3415  0.1988 -0.2201
   99SAPE    HA 9919   5.472   4.632   6.571 -1.3416  0.5548 -0.5918
   99SAPE    HB 9920   5.572   4.502   6.490  0.3638  0.2270  0.8447
   99SAPE    C2 9921   5.457   4.626   6.353  0.2745  0.5189 -0.2473
   99SAPE    HS 9922   5.358   4.675   6.354  0.4709  0.9236  0.8359
   99SAPE   O21 9923   5.474   4.533   6.254  0.5679 -0.3054  0.6106
   99SAPE   C21 9924   5.366   4.474   6.207  0.3076 -0.8115 -0.8720
   99SAPE   O22 9925   5.251   4.488   6.250 -0.2015 -0.6208  0.2272
   99SAPE   C22 9926   5.387   4.373   6.089  0.6467 -0.5625 -0.7790
   99SAPE   H2R 9927   5.476   4.310   6.111 -0.1579 -1.4884 -0.0637
   99SAPE   H2S 9928   5.292   4.316   6.093 -0.3874  1.1490  1.4307
   99SAPE    C3 9929   5.568   4.735   6.334  0.1400 -0.6900  0.1059
   99SAPE    HX 9930   5.665   4.682   6.344  0.6475  0.6107  2.9718
   99SAPE    HY 9931   5.563   4.799   6.424 -0.3151 -0.4135 -0.1137
   99SAPE   O31 9932   5.559   4.819   6.212  0.1466 -0.2455 -0.3648
   99SAPE   C31 9933   5.645   4.917   6.197 -0.2877  0.7062  0.3531
   99SAPE   O32 9934   5.737   4.940   6.269 -0.4912 -0.0928 -0.1182
   99SAPE   C32 9935   5.609   4.993   6.065  0.3829 -0.6891 -0.7263
   99SAPE   H2X 9936   5.703   5.037   6.027  1.3610 -2.4803 -0.5035
   99SAPE   H2Y 9937   5.534   5.070   6.093  1.5935 -0.0039  0.7606
   99SAPE   C23 9938   5.397   4.456   5.968  0.1803 -0.1158 -0.5533
   99SAPE   H3R 9939   5.492   4.513   5.973  1.0535 -1.6244  2.2810
   99SAPE   H3S 9940   5.304   4.515   5.950 -0.0584  0.5406  2.4219
   99SAPE   C24 9941   5.413   4.366   5.844  0.7917  0.0218  0.4003
   99SAPE   H4R 9942   5.312   4.332   5.812  0.7671  1.9794 -1.9046
   99SAPE   H4S 9943   5.481   4.281   5.869 -0.0407 -0.0871  2.5648
   99SAPE   C25 9944   5.471   4.439   5.723  0.5214 -0.2330  0.2223
   99SAPE   H5R 9945   5.579   4.432   5.706  0.4179 -1.3428 -0.0649
   99SAPE   C26 9946   5.403   4.521   5.638 -0.2827  0.1161  0.1333
   99SAPE   H6R 9947   5.466   4.579   5.570  0.3241 -0.2426  0.3870
   99SAPE   C27 9948   5.256   4.543   5.633 -0.1217  0.0835  0.2141
   99SAPE   H7R 9949   5.233   4.602   5.724  0.2255  0.5111  0.0257
   99SAPE   H7S 9950   5.201   4.447   5.640  1.1185 -0.7024 -0.4212
   99SAPE   C28 9951   5.203   4.618   5.508 -0.8359 -0.4801 -0.8453
   99SAPE   H8R 9952   5.201   4.728   5.514  1.6651 -0.4053 -0.5417
   99SAPE   C29 9953   5.166   4.569   5.393 -0.3312  0.0758  0.0019
   99SAPE   H9R 9954   5.120   4.633   5.317 -1.0625  0.1284  0.4750
   99SAPE  C210 9955   5.165   4.419   5.363 -0.2005 -0.1884 -0.0978
   99SAPE  H10R 9956   5.057   4.393   5.358 -0.5798  1.3539 -0.4841
   99SAPE  H10S 9957   5.209   4.361   5.447  1.1260  2.2703  0.9944
   99SAPE  C211 9958   5.227   4.366   5.239  0.4289 -0.3378 -0.0755
   99SAPE  H11R 9959   5.149   4.326   5.172  0.4267 -2.0748  0.9101
   99SAPE  C212 9960   5.350   4.353   5.202  0.5832 -0.0152 -0.5327
   99SAPE  H12R 9961   5.371   4.310   5.103 -0.3174 -0.6456 -0.4587
   99SAPE  C213 9962   5.466   4.413   5.278 -0.4741  0.0578 -0.2259
   99SAPE  H13R 9963   5.446   4.446   5.382 -1.1220  0.8289 -0.5902
   99SAPE  H13S 9964   5.480   4.505   5.218  3.2058 -0.3942 -0.3385
   99SAPE  C214 9965   5.580   4.324   5.286 -0.3697 -0.2078  0.2358
   99SAPE  H14R 9966   5.585   4.254   5.371  0.1958  1.3714  1.5649
   99SAPE  C215 9967   5.682   4.302   5.197 -0.6388 -0.9808 -0.1316
   99SAPE  H15R 9968   5.761   4.227   5.215 -1.1680 -1.0433  2.3107
   99SAPE  C216 9969   5.692   4.385   5.071 -0.5480 -0.0137  0.0847
   99SAPE  H16R 9970   5.797   4.420   5.077 -1.1997  1.9866  0.3035
   99SAPE  H16S 9971   5.629   4.476   5.078 -1.1334 -0.4860  1.2325
   99SAPE  C217 9972   5.652   4.321   4.935 -0.3805  0.3067  0.3435
   99SAPE  H17R 9973   5.543   4.300   4.941 -0.3148 -0.1391 -0.0565
   99SAPE  H17S 9974   5.696   4.220   4.949 -0.0876  0.4982  0.8540
   99SAPE  C218 9975   5.690   4.394   4.806  0.3697  0.8201 -0.2450
   99SAPE  H18R 9976   5.789   4.441   4.825  0.5581  0.3053  0.0956
   99SAPE  H18S 9977   5.621   4.480   4.801 -0.5915  0.1963  1.3233
   99SAPE  C219 9978   5.680   4.301   4.682 -0.6313  0.1576 -0.0783
   99SAPE  H19R 9979   5.573   4.276   4.667 -0.4763 -0.1864 -0.6180
   99SAPE  H19S 9980   5.733   4.207   4.706  0.4174  0.5847 -0.6673
   99SAPE  C220 9981   5.746   4.358   4.559  0.3758  0.2240 -0.2276
   99SAPE  H20R 9982   5.846   4.397   4.586 -0.0348 -0.0761  1.9397
   99SAPE  H20S 9983   5.684   4.439   4.515  0.7243  0.5255 -0.1657
   99SAPE  H20T 9984   5.763   4.290   4.473 -0.2717 -0.9711  0.5549
   99SAPE   C33 9985   5.547   4.893   5.962  0.6228  0.7794 -0.1376
   99SAPE   H3X 9986   5.442   4.875   5.990  0.7368  2.4944  1.6164
   99SAPE   H3Y 9987   5.603   4.797   5.967 -2.3369 -1.0462  0.5520
   99SAPE   C34 9988   5.558   4.965   5.829  0.4919  0.8585  0.2027
   99SAPE   H4X 9989   5.659   5.011   5.825  1.0858 -0.1941  1.8312
   99SAPE   H4Y 9990   5.477   5.041   5.821  0.1397  0.6725  1.6073
   99SAPE   C35 9991   5.566   4.879   5.707  0.0774  0.4865 -0.7061
   99SAPE   H5X 9992   5.475   4.815   5.709 -0.1908  0.8379 -1.3202
   99SAPE   H5Y 9993   5.654   4.814   5.722 -0.5644 -0.5857 -1.4220
   99SAPE   C36 9994   5.573   4.963   5.577  0.0881  0.6384  0.3500
   99SAPE   H6X 9995   5.663   5.028   5.582 -0.3519  1.1965  1.3985
   99SAPE   H6Y 9996   5.478   5.020   5.577 -2.1395 -2.8080  0.3899
   99SAPE   C37 9997   5.581   4.888   5.445 -0.2653  0.7136  0.0783
   99SAPE   H7X 9998   5.492   4.821   5.439  0.7659 -0.6519 -0.4626
   99SAPE   H7Y 9999   5.662   4.814   5.427 -1.7964 -0.5677 -1.9556
   99SAPE   C3810000   5.572   4.988   5.326  0.1236  0.0081 -0.0068
   99SAPE   H8X10001   5.650   5.062   5.353  0.5176 -0.6788  0.7942
   99SAPE   H8Y10002   5.474   5.035   5.302 -0.0135  0.5088  1.4617
   99SAPE   C3910003   5.637   4.939   5.188  0.8044  0.2238 -0.0870
   99SAPE   H9X10004   5.723   4.871   5.203 -0.4128 -1.2370  0.5090
   99SAPE   H9Y10005   5.676   5.033   5.143 -1.8277  1.5736  0.2129
   99SAPE  C31010006   5.539   4.870   5.092 -0.2014 -0.1406 -0.5264
   99SAPE  H10X10007   5.481   4.951   5.041  1.0211  1.0256 -0.1129
   99SAPE  H10Y10008   5.465   4.816   5.155  0.3289  0.3382  0.5249
   99SAPE  C31110009   5.606   4.778   4.995 -0.3411  0.4856  0.3629
   99SAPE  H11X10010   5.540   4.720   4.927  1.8188 -1.0291 -0.5571
   99SAPE  H11Y10011   5.666   4.691   5.029 -0.4801  0.0267 -0.5527
   99SAPE  C31210012   5.690   4.858   4.890 -0.6604  0.6195  0.5168
   99SAPE  H12X10013   5.761   4.916   4.952  1.5327 -1.6522  0.3294
   99SAPE  H12Y10014   5.615   4.922   4.839  0.1485  1.8973  0.8973
   99SAPE  C31310015   5.760   4.755   4.795  0.9899  0.0847 -0.1149
   99SAPE  H13X10016   5.684   4.683   4.757  2.3376 -1.2963 -0.2516
   99SAPE  H13Y10017   5.836   4.701   4.854  1.0061 -0.0702 -0.2802
   99SAPE  C31410018   5.836   4.826   4.686  0.5497  0.5100  0.5089
   99SAPE  H14X10019   5.924   4.881   4.726  1.9038  1.0424 -2.8644
   99SAPE  H14Y10020   5.766   4.900   4.642  1.4528  2.4995  2.2680
   99SAPE  C31510021   5.865   4.713   4.583 -0.0313  0.2589  0.0645
   99SAPE  H15X10022   5.779   4.643   4.580  0.5700 -0.5023 -2.8837
   99SAPE  H15Y10023   5.945   4.644   4.615 -0.0496  0.2827  0.1612
   99SAPE  C31610024   5.879   4.767   4.438  0.3037 -0.2163 -0.7422
   99SAPE  H16X10025   5.978   4.814   4.423 -0.2174  0.3529 -2.6916
   99SAPE  H16Y10026   5.798   4.837   4.409 -0.0230 -0.3240 -0.1033
   99SAPE  C31710027   5.882   4.650   4.342 -0.3239  0.1662 -0.2999
   99SAPE  H17X10028   5.853   4.687   4.241  0.1064  0.6798 -0.2427
   99SAPE  H17Y10029   5.800   4.584   4.376  0.6118 -1.2911 -0.7933
   99SAPE  C31810030   6.011   4.572   4.338 -0.5237  0.1256  0.0403
   99SAPE  H18X10031   6.084   4.641   4.290 -0.7771 -1.8680 -3.6338
   99SAPE  H18Y10032   6.007   4.483   4.272 -1.5818 -0.3913  0.7735
   99SAPE  H18Z10033   6.056   4.553   4.438 -0.0340  0.7248 -0.0587
  100SAPE     N10034   2.827   2.196   6.594  0.4652  1.1646  0.1587
  100SAPE   HN110035   2.751   2.151   6.648  1.0891 -2.9333 -2.0235
  100SAPE   HN210036   2.824   2.165   6.495  1.3072 -1.5761  0.9071
  100SAPE   HN310037   2.922   2.171   6.629  0.5359  2.0493  0.6279
  100SAPE   C1210038   2.831   2.344   6.606 -0.3785 -0.6578  0.3963
  100SAPE  H12A10039   2.897   2.369   6.520  1.2961 -3.0671  0.8877
  100SAPE  H12B10040   2.876   2.366   6.705 -1.3698  0.2519  0.6707
  100SAPE   C1110041   2.700   2.426   6.594  0.3215  0.4437  0.2341
  100SAPE  H11A10042   2.652   2.400   6.497  0.6648 -2.9429  0.8381
  100SAPE  H11B10043   2.707   2.537   6.596 -0.3501  0.5275 -1.0765
  100SAPE     P10044   2.464   2.453   6.698  0.0645 -0.1330  0.0089
  100SAPE   O1310045   2.378   2.364   6.774  0.3680 -0.2519  0.0228
  100SAPE   O1410046   2.481   2.589   6.747  0.2357 -0.5531  0.4170
  100SAPE   O1210047   2.607   2.385   6.692  0.0471  0.0145 -0.5394
  100SAPE   O1110048   2.415   2.463   6.554 -0.1178 -0.0778 -0.0791
  100SAPE    C110049   2.384   2.355   6.467 -0.0470  0.1956 -0.5355
  100SAPE    HA10050   2.477   2.298   6.444  0.4516 -0.1171  1.9807
  100SAPE    HB10051   2.309   2.287   6.512 -0.4733  0.6199 -0.6023
  100SAPE    C210052   2.332   2.394   6.323 -0.5189 -0.2340 -0.2012
  100SAPE    HS10053   2.228   2.433   6.328  0.4398  2.5954 -0.5033
  100SAPE   O2110054   2.335   2.278   6.243 -0.2945  0.6947 -0.3079
  100SAPE   C2110055   2.222   2.194   6.248 -0.1050  0.1457 -0.7210
  100SAPE   O2210056   2.121   2.224   6.314 -0.1812 -0.6023  0.4022
  100SAPE   C2210057   2.236   2.078   6.158  0.6137  0.0443  0.2439
  100SAPE   H2R10058   2.327   2.086   6.096 -0.9255 -0.7810 -2.2702
  100SAPE   H2S10059   2.247   1.988   6.222  0.9288  0.0135  0.1493
  100SAPE    C310060   2.405   2.510   6.260  0.5935  0.2607 -0.5402
  100SAPE    HX10061   2.512   2.486   6.277  0.5824  2.4406  4.4899
  100SAPE    HY10062   2.392   2.597   6.329  1.7169 -1.3597  1.8717
  100SAPE   O3110063   2.374   2.539   6.121 -0.2335  0.6110 -0.1564
  100SAPE   C3110064   2.479   2.535   6.037  0.3758 -0.4198  0.0337
  100SAPE   O3210065   2.594   2.551   6.076  0.0690 -0.3281 -0.1121
  100SAPE   C3210066   2.437   2.535   5.890 -0.0923 -0.5470  0.4191
  100SAPE   H2X10067   2.426   2.634   5.841  1.2600 -1.5081 -1.9638
  100SAPE   H2Y10068   2.335   2.490   5.887 -0.7547  0.9516 -1.2955
  100SAPE   C2310069   2.122   2.067   6.059 -0.0591 -0.0553 -0.1621
  100SAPE   H3R10070   2.108   2.168   6.016  0.1296  1.2820  2.6919
  100SAPE   H3S10071   2.027   2.049   6.114  0.8431  0.2244  1.5757
  100SAPE   C2410072   2.131   1.954   5.948 -0.0872 -0.0134 -0.9616
  100SAPE   H4R10073   2.122   1.854   5.995 -2.3964  0.3540 -0.5019
  100SAPE   H4S10074   2.234   1.959   5.907 -0.2740 -0.1480 -1.4691
  100SAPE   C2510075   2.021   1.962   5.846 -0.5227 -0.3133  0.9520
  100SAPE   H5R10076   1.922   1.972   5.891 -0.4721  4.2468  0.5304
  100SAPE   C2610077   2.024   1.952   5.708 -0.0173  0.0215  0.6535
  100SAPE   H6R10078   1.928   1.956   5.654  0.3033  1.7418  0.1483
  100SAPE   C2710079   2.150   1.911   5.632  1.1428  0.0782 -0.2936
  100SAPE   H7R10080   2.136   1.804   5.605  1.9917 -0.1431  0.1102
  100SAPE   H7S10081   2.237   1.924   5.700 -0.1324 -0.9446  1.6273
  100SAPE   C2810082   2.161   1.996   5.510 -1.0253  0.6833  0.6839
  100SAPE   H8R10083   2.168   2.102   5.537  0.9612  0.7474  0.0594
  100SAPE   C2910084   2.138   1.964   5.377  0.5779  0.0885 -0.0725
  100SAPE   H9R10085   2.117   2.049   5.312 -2.6567  0.9005  1.8002
  100SAPE  C21010086   2.091   1.828   5.322  0.0897  0.0889  0.5706
  100SAPE  H10R10087   2.088   1.755   5.405 -0.4316  0.1249  0.5871
  100SAPE  H10S10088   2.168   1.794   5.250 -2.8223  0.2462 -2.8815
  100SAPE  C21110089   1.954   1.830   5.251  0.1973 -0.1855  0.8295
  100SAPE  H11R10090   1.858   1.814   5.302 -0.1233 -0.1132  0.2591
  100SAPE  C21210091   1.936   1.855   5.115 -0.7826 -0.7058 -0.1095
  100SAPE  H12R10092   1.830   1.858   5.086 -0.8094  0.9272  0.0328
  100SAPE  C21310093   2.048   1.881   5.013 -0.6916  0.6442  0.7043
  100SAPE  H13R10094   2.142   1.827   5.038 -0.1980  0.9568 -0.4111
  100SAPE  H13S10095   2.075   1.989   5.019 -0.0745  0.5747 -0.6119
  100SAPE  C21410096   2.018   1.832   4.874  0.5828  0.3171  0.0084
  100SAPE  H14R10097   1.932   1.764   4.866  0.7663 -0.1533  1.7334
  100SAPE  C21510098   2.072   1.866   4.757  0.0677  0.6285 -0.0168
  100SAPE  H15R10099   2.035   1.807   4.672  0.5810  0.0583  0.1555
  100SAPE  C21610100   2.177   1.972   4.720 -0.3957 -0.1637  0.1279
  100SAPE  H16R10101   2.262   1.970   4.791 -0.9548 -0.6444  0.7985
  100SAPE  H16S10102   2.132   2.074   4.717  0.6204  0.2684 -2.3745
  100SAPE  C21710103   2.237   1.941   4.579 -0.0403 -0.1282 -0.1549
  100SAPE  H17R10104   2.278   2.034   4.535  1.0854 -0.6496 -0.2221
  100SAPE  H17S10105   2.150   1.921   4.512 -1.4753 -0.1676  1.6269
  100SAPE  C21810106   2.333   1.820   4.568 -0.4027  0.6109 -0.3023
  100SAPE  H18R10107   2.260   1.739   4.587  0.7544 -0.2078  0.8670
  100SAPE  H18S10108   2.409   1.829   4.649 -1.7979  0.4949  1.0570
  100SAPE  C21910109   2.409   1.804   4.439  0.3734 -0.2149 -0.4963
  100SAPE  H19R10110   2.465   1.708   4.434  0.4859 -0.0762 -2.4573
  100SAPE  H19S10111   2.479   1.886   4.415  0.2726 -0.3111 -1.1229
  100SAPE  C22010112   2.325   1.803   4.309 -0.2687  0.3320 -0.8185
  100SAPE  H20R10113   2.381   1.775   4.218  0.2382  2.9589 -1.3844
  100SAPE  H20S10114   2.288   1.906   4.292  1.1359  1.4085  2.0133
  100SAPE  H20T10115   2.247   1.723   4.311  1.2004 -1.1443  1.6888
  100SAPE   C3310116   2.541   2.449   5.806  0.2814  0.8092  0.2539
  100SAPE   H3X10117   2.572   2.358   5.862 -1.2448  0.2062  0.1861
  100SAPE   H3Y10118   2.639   2.501   5.800  0.5596  0.2972  0.2629
  100SAPE   C3410119   2.488   2.421   5.659  0.6441 -0.0744  0.0535
  100SAPE   H4X10120   2.467   2.514   5.601 -2.3600 -1.3536 -1.0746
  100SAPE   H4Y10121   2.390   2.370   5.669  0.6867 -0.3026 -0.6372
  100SAPE   C3510122   2.587   2.331   5.576  0.6034  0.1575  0.0590
  100SAPE   H5X10123   2.613   2.244   5.641  0.8517  0.2040  0.0204
  100SAPE   H5Y10124   2.670   2.389   5.532  0.0992  2.5698  2.0558
  100SAPE   C3610125   2.515   2.256   5.464 -0.1015  0.2905  0.0738
  100SAPE   H6X10126   2.472   2.336   5.400  2.2532  0.3657 -1.5090
  100SAPE   H6Y10127   2.429   2.198   5.505 -0.4064 -0.0314 -0.9921
  100SAPE   C3710128   2.619   2.175   5.389 -0.5844  1.0273 -0.7034
  100SAPE   H7X10129   2.655   2.087   5.447 -1.5505 -0.2146 -1.9002
  100SAPE   H7Y10130   2.704   2.239   5.360  1.0237 -1.5601 -2.1107
  100SAPE   C3810131   2.561   2.106   5.267 -0.1466  0.2372  0.4577
  100SAPE   H8X10132   2.457   2.068   5.281 -0.3689 -0.0131 -1.5441
  100SAPE   H8Y10133   2.624   2.024   5.227 -1.2682 -0.6379  0.4493
  100SAPE   C3910134   2.552   2.208   5.148 -0.6859  0.3217  0.4582
  100SAPE   H9X10135   2.661   2.216   5.131 -0.2261 -1.3034  2.2727
  100SAPE   H9Y10136   2.518   2.310   5.179 -0.5882  0.6034 -0.3554
  100SAPE  C31010137   2.476   2.157   5.025  0.1889  0.4855 -0.2202
  100SAPE  H10X10138   2.367   2.180   5.026  0.3961  1.8493 -1.9563
  100SAPE  H10Y10139   2.484   2.048   5.007  1.0294  0.6902 -1.2501
  100SAPE  C31110140   2.526   2.224   4.897 -0.0464 -0.4169  0.5621
  100SAPE  H11X10141   2.626   2.181   4.877 -1.1884 -3.5526  1.0812
  100SAPE  H11Y10142   2.541   2.332   4.919 -0.3725 -0.1928 -0.2789
  100SAPE  C31210143   2.442   2.203   4.774 -0.8307 -0.2866 -0.0561
  100SAPE  H12X10144   2.340   2.248   4.776  0.1075  2.0597 -0.9669
  100SAPE  H12Y10145   2.430   2.093   4.767 -4.0677  0.0518 -1.9793
  100SAPE  C31310146   2.518   2.240   4.643  0.0111 -0.1349  0.5386
  100SAPE  H13X10147   2.493   2.164   4.565 -1.0570 -1.0523  1.7420
  100SAPE  H13Y10148   2.628   2.234   4.661  0.0214 -2.0732  0.0534
  100SAPE  C31410149   2.484   2.384   4.602  0.0958  0.4928 -0.0498
  100SAPE  H14X10150   2.506   2.461   4.679 -0.3021  0.6869 -0.1323
  100SAPE  H14Y10151   2.374   2.392   4.599  0.0712  0.0383 -0.5895
  100SAPE  C31510152   2.550   2.412   4.466 -0.2036  0.1876  0.3316
  100SAPE  H15X10153   2.532   2.516   4.431 -3.3187 -0.1362  0.7482
  100SAPE  H15Y10154   2.486   2.349   4.400  0.8809 -0.5092 -0.0853
  100SAPE  C31610155   2.699   2.364   4.450  0.9618 -0.5267  0.0964
  100SAPE  H16X10156   2.714   2.256   4.429  1.6423 -0.0840 -2.0029
  100SAPE  H16Y10157   2.750   2.385   4.546  0.0913 -0.4062  0.5485
  100SAPE  C31710158   2.760   2.422   4.319 -0.9175  0.4267  1.2674
  100SAPE  H17X10159   2.689   2.403   4.236 -0.3331 -1.0246  1.0759
  100SAPE  H17Y10160   2.854   2.364   4.302 -0.6957  1.1779 -0.2752
  100SAPE  C31810161   2.815   2.568   4.330  0.8985 -0.9800  0.0270
  100SAPE  H18X10162   2.825   2.613   4.228  1.3460  0.9196  0.8701
  100SAPE  H18Y10163   2.911   2.571   4.386  0.2888  1.0472  1.0490
  100SAPE  H18Z10164   2.741   2.626   4.389 -0.3175 -2.9801  0.5556
  101SAPE     N10165   2.649   6.737   6.708  0.1931 -0.4508 -0.2276
  101SAPE   HN110166   2.669   6.688   6.619 -2.1072 -0.9385 -0.5384
  101SAPE   HN210167   2.550   6.719   6.735  0.2391  0.8644  0.9551
  101SAPE   HN310168   2.640   6.840   6.695  0.8916 -0.0955  1.7412
  101SAPE   C1210169   2.745   6.727   6.820  0.2446  0.1086  0.2918
  101SAPE  H12A10170   2.817   6.644   6.802  0.5505  0.5504 -0.6166
  101SAPE  H12B10171   2.691   6.694   6.911  1.5499  0.3236  1.1732
  101SAPE   C1110172   2.812   6.856   6.851 -0.4265 -0.2664  0.7782
  101SAPE  H11A10173   2.853   6.853   6.954 -0.9574  0.3916  1.0195
  101SAPE  H11B10174   2.739   6.937   6.875  0.4618  0.2668  1.7352
  101SAPE     P10175   3.021   6.991   6.758 -0.1888 -0.2041  0.0266
  101SAPE   O1310176   2.971   7.128   6.764  0.2937 -0.1343 -0.3441
  101SAPE   O1410177   3.115   6.950   6.865  0.3864 -0.4463 -0.1290
  101SAPE   O1210178   2.907   6.887   6.745 -0.1386 -0.3644  0.0206
  101SAPE   O1110179   3.095   6.981   6.615 -0.3410  0.3780 -0.4406
  101SAPE    C110180   3.131   6.850   6.561  1.2782  0.6364 -0.6889
  101SAPE    HA10181   3.237   6.851   6.527  1.3788 -3.6158 -1.0076
  101SAPE    HB10182   3.130   6.768   6.635  1.3140  0.4942 -0.8449
  101SAPE    C210183   3.059   6.812   6.435  1.1618  0.0709  0.6476
  101SAPE    HS10184   2.953   6.787   6.452  0.5206  0.7555 -1.9091
  101SAPE   O2110185   3.137   6.715   6.358  0.0241 -0.1511  0.1501
  101SAPE   C2110186   3.161   6.596   6.411  0.0164  0.1207  0.5904
  101SAPE   O2210187   3.131   6.559   6.523 -0.4060 -0.3593 -0.1739
  101SAPE   C2210188   3.252   6.513   6.314 -0.6645  0.1797  0.4116
  101SAPE   H2R10189   3.357   6.532   6.346  0.0554 -2.2778 -0.2747
  101SAPE   H2S10190   3.234   6.408   6.344  1.6368 -0.4364 -0.1480
  101SAPE    C310191   3.051   6.942   6.343 -0.8112  0.4523 -0.3515
  101SAPE    HX10192   3.149   6.995   6.342 -0.6244  0.1590 -2.4202
  101SAPE    HY10193   2.973   7.011   6.380 -1.3686 -0.7202  0.7147
  101SAPE   O3110194   3.000   6.899   6.213  0.2273  0.6771  0.3200
  101SAPE   C3110195   3.086   6.880   6.116 -0.5691 -0.9125  0.3451
  101SAPE   O3210196   3.208   6.891   6.128  0.7255  0.5592 -0.3075
  101SAPE   C3210197   3.022   6.836   5.984 -0.1985  0.0550  0.4941
  101SAPE   H2X10198   2.969   6.929   5.953 -1.2263 -0.6975 -0.0696
  101SAPE   H2Y10199   2.957   6.748   6.006  1.3114 -0.7395  1.9443
  101SAPE   C2310200   3.204   6.529   6.165 -0.2544 -0.0352  1.0877
  101SAPE   H3R10201   3.267   6.474   6.092 -0.7128  0.7002  0.1180
  101SAPE   H3S10202   3.209   6.638   6.142 -3.5769  0.1966  0.9395
  101SAPE   C2410203   3.065   6.487   6.133  0.6094 -0.2081 -0.4068
  101SAPE   H4R10204   3.042   6.530   6.033 -0.2544 -1.1571 -0.6329
  101SAPE   H4S10205   2.983   6.514   6.203  1.1040 -0.4967  0.2972
  101SAPE   C2510206   3.056   6.343   6.118 -0.3695  0.5533  0.5687
  101SAPE   H5R10207   3.082   6.287   6.209  0.1382  0.2018  0.2093
  101SAPE   C2610208   3.024   6.272   6.008  0.3531 -0.0821  0.8375
  101SAPE   H6R10209   3.017   6.164   6.028 -0.5518 -0.1015  0.4627
  101SAPE   C2710210   2.970   6.321   5.875 -0.0701 -0.1518 -0.0805
  101SAPE   H7R10211   3.041   6.278   5.801 -0.8539 -1.3129 -0.1892
  101SAPE   H7S10212   2.983   6.430   5.856  1.3487 -0.2641  0.1274
  101SAPE   C2810213   2.831   6.269   5.849 -0.8932 -0.3255  0.2197
  101SAPE   H8R10214   2.755   6.273   5.928 -1.5235 -0.0929 -0.3915
  101SAPE   C2910215   2.790   6.202   5.744 -0.1940 -0.2974 -0.7749
  101SAPE   H9R10216   2.685   6.168   5.745 -0.5931  0.8964 -0.7824
  101SAPE  C21010217   2.866   6.175   5.618 -0.0482  0.0134 -0.0229
  101SAPE  H10R10218   2.885   6.065   5.613 -1.0515 -0.2093  0.8102
  101SAPE  H10S10219   2.972   6.209   5.624  0.3857 -1.4069  1.1597
  101SAPE  C21110220   2.790   6.223   5.498 -0.0890 -0.0648  0.1573
  101SAPE  H11R10221   2.790   6.333   5.493 -1.6897 -0.0098  0.8520
  101SAPE  C21210222   2.721   6.158   5.398  0.5058  0.6564 -0.8438
  101SAPE  H12R10223   2.675   6.217   5.317 -0.1310  2.1727  0.5697
  101SAPE  C21310224   2.704   6.008   5.384 -0.2124 -0.0663 -0.6374
  101SAPE  H13R10225   2.600   5.986   5.353 -0.9595  0.0161  1.5974
  101SAPE  H13S10226   2.721   5.965   5.485  1.7409 -0.5531 -1.1335
  101SAPE  C21410227   2.799   5.937   5.291 -0.4989  0.9629 -0.4575
  101SAPE  H14R10228   2.859   5.999   5.222  0.9918 -0.1337 -0.1946
  101SAPE  C21510229   2.839   5.809   5.300 -0.1488 -1.5068 -0.1918
  101SAPE  H15R10230   2.934   5.785   5.252  1.6136 -0.1793  2.3951
  101SAPE  C21610231   2.794   5.698   5.394 -0.6873 -0.3652  0.4229
  101SAPE  H16R10232   2.745   5.627   5.324  0.5288  0.6523 -1.5512
  101SAPE  H16S10233   2.713   5.731   5.463  0.5214  0.4419  1.5356
  101SAPE  C21710234   2.901   5.630   5.469 -0.0047  0.3262  0.7971
  101SAPE  H17R10235   2.976   5.622   5.388 -0.2999  1.0829  0.4369
  101SAPE  H17S10236   2.867   5.526   5.488 -0.9121  0.5346  0.3809
  101SAPE  C21810237   2.955   5.695   5.591 -0.7812 -0.5136 -0.2054
  101SAPE  H18R10238   2.867   5.729   5.650  1.7821  3.0637  1.9856
  101SAPE  H18S10239   3.020   5.782   5.567 -0.3760 -0.9797 -0.8296
  101SAPE  C21910240   3.029   5.586   5.670 -0.0455  0.1014  0.5376
  101SAPE  H19R10241   3.135   5.613   5.651 -0.3297  2.3997  1.8704
  101SAPE  H19S10242   2.999   5.481   5.649 -1.0771  0.2252  1.3088
  101SAPE  C22010243   3.007   5.610   5.818  0.1053  0.1535 -0.0518
  101SAPE  H20R10244   2.910   5.568   5.851  0.5983 -1.6825 -0.8189
  101SAPE  H20S10245   3.014   5.720   5.837 -2.3226  0.3100  0.2345
  101SAPE  H20T10246   3.084   5.563   5.883  2.4129  0.8455 -2.1402
  101SAPE   C3310247   3.130   6.795   5.873 -0.0836 -0.1781  0.5736
  101SAPE   H3X10248   3.188   6.711   5.918 -1.6534 -1.2053  0.7802
  101SAPE   H3Y10249   3.193   6.882   5.845  1.2568 -0.6066  2.0965
  101SAPE   C3410250   3.060   6.741   5.753  0.6062  0.5016  0.6462
  101SAPE   H4X10251   3.003   6.819   5.699  2.4750  0.6011 -1.3243
  101SAPE   H4Y10252   2.984   6.667   5.786  1.9746 -0.3832  1.9793
  101SAPE   C3510253   3.141   6.670   5.652  0.7975  0.1777  0.4380
  101SAPE   H5X10254   3.199   6.581   5.685  0.3183 -0.6182 -0.7534
  101SAPE   H5Y10255   3.204   6.747   5.602  1.6385 -0.7606 -0.0022
  101SAPE   C3610256   3.047   6.619   5.540  0.8394 -0.8417  0.0796
  101SAPE   H6X10257   2.991   6.708   5.503  1.0502 -1.0570 -0.7749
  101SAPE   H6Y10258   2.967   6.551   5.578  1.2728 -1.7302 -0.5670
  101SAPE   C3710259   3.117   6.558   5.430  0.0679  0.4063 -0.2775
  101SAPE   H7X10260   3.163   6.471   5.480  0.9860  2.0737  1.9284
  101SAPE   H7Y10261   3.197   6.616   5.380  2.6415 -2.9079 -0.3256
  101SAPE   C3810262   3.021   6.521   5.317  0.4796  0.4878 -0.0944
  101SAPE   H8X10263   2.981   6.608   5.260  0.8182  0.7111  0.0059
  101SAPE   H8Y10264   2.934   6.464   5.356  1.1035 -0.9896 -0.7985
  101SAPE   C3910265   3.085   6.440   5.205  0.8558 -0.4579 -0.5478
  101SAPE   H9X10266   3.139   6.359   5.259 -0.9354 -0.0051  2.1124
  101SAPE   H9Y10267   3.156   6.501   5.145  2.8841 -2.4998 -0.3374
  101SAPE  C31010268   2.984   6.378   5.106  0.2620  0.4205 -0.3176
  101SAPE  H10X10269   2.920   6.453   5.055  0.6001  1.2727  0.4866
  101SAPE  H10Y10270   2.910   6.320   5.165 -0.9235 -0.5313 -2.6256
  101SAPE  C31110271   3.056   6.285   5.009  0.5173 -0.5117  0.3016
  101SAPE  H11X10272   3.144   6.234   5.054  0.4328  0.6109  1.8150
  101SAPE  H11Y10273   3.093   6.341   4.920 -1.3377 -0.4165 -0.4409
  101SAPE  C31210274   2.980   6.161   4.947 -0.2037 -0.1254  0.1319
  101SAPE  H12X10275   2.880   6.200   4.918  0.8087  0.3005 -3.1219
  101SAPE  H12Y10276   2.977   6.074   5.016  1.3085 -1.6751 -1.6607
  101SAPE  C31310277   3.044   6.117   4.818 -0.0906 -0.9966 -0.0740
  101SAPE  H13X10278   3.147   6.081   4.838 -0.0709 -0.4670  0.8512
  101SAPE  H13Y10279   3.069   6.208   4.760  2.3364 -2.2700 -1.1539
  101SAPE  C31410280   2.955   6.028   4.733  0.3852 -0.4205  0.5359
  101SAPE  H14X10281   2.900   5.962   4.804 -0.1180  0.4900  1.0053
  101SAPE  H14Y10282   3.019   5.967   4.666  1.9526  1.3999  0.2745
  101SAPE  C31510283   2.864   6.114   4.638 -0.2165 -0.0914  0.3601
  101SAPE  H15X10284   2.926   6.169   4.563  0.1881  0.3101  0.9770
  101SAPE  H15Y10285   2.819   6.202   4.689  1.8565  2.0785 -1.3003
  101SAPE  C31610286   2.759   6.042   4.552  0.0684 -0.1665  0.0509
  101SAPE  H16X10287   2.683   5.991   4.616 -0.1439  0.7505  0.5517
  101SAPE  H16Y10288   2.824   5.972   4.497  0.7229  0.3856  0.1048
  101SAPE  C31710289   2.681   6.142   4.453 -0.1708 -0.6049  0.3115
  101SAPE  H17X10290   2.744   6.222   4.407 -2.1902  2.5823  2.6942
  101SAPE  H17Y10291   2.614   6.188   4.528 -1.0543 -0.5807 -0.4658
  101SAPE  C31810292   2.601   6.078   4.343  0.7186 -0.0561 -0.3465
  101SAPE  H18X10293   2.528   6.017   4.401  1.2357  0.3951  0.8203
  101SAPE  H18Y10294   2.664   6.005   4.287 -0.0958 -0.8014 -0.3036
  101SAPE  H18Z10295   2.563   6.158   4.276  2.5365  1.8279  0.7399
  102SAPE     N10296   2.466   4.301   6.711 -0.2984  0.1221  0.5083
  102SAPE   HN110297   2.522   4.214   6.724  0.2891  0.2595 -0.9574
  102SAPE   HN210298   2.478   4.372   6.787  1.0626 -1.0061  1.4127
  102SAPE   HN310299   2.365   4.286   6.692 -0.5395  1.2777  0.8300
  102SAPE   C1210300   2.535   4.341   6.575  0.0107 -0.5631 -0.8613
  102SAPE  H12A10301   2.504   4.268   6.496 -0.6694  0.0081 -1.1375
  102SAPE  H12B10302   2.644   4.334   6.593 -0.1460 -1.4144 -0.1441
  102SAPE   C1110303   2.489   4.478   6.532  0.6551  0.0480  0.0081
  102SAPE  H11A10304   2.381   4.479   6.504  0.7334 -0.3052 -0.3070
  102SAPE  H11B10305   2.534   4.507   6.435  1.9364  0.6504  0.7476
  102SAPE     P10306   2.638   4.662   6.653  0.2786 -0.1168  0.4747
  102SAPE   O1310307   2.637   4.698   6.794 -0.2411  0.6659 -0.7076
  102SAPE   O1410308   2.752   4.584   6.603  0.0751 -0.1687 -0.3044
  102SAPE   O1210309   2.517   4.574   6.636  0.1641  0.1179  0.2885
  102SAPE   O1110310   2.610   4.791   6.566  0.1070 -0.0587 -0.7699
  102SAPE    C110311   2.480   4.825   6.530  1.0597  0.1877 -0.0724
  102SAPE    HA10312   2.424   4.738   6.490  0.7442  0.3026  0.1108
  102SAPE    HB10313   2.417   4.860   6.615 -0.1862  1.2937 -1.4097
  102SAPE    C210314   2.479   4.934   6.419 -0.3497  0.3204  0.4109
  102SAPE    HS10315   2.378   4.929   6.373 -1.0363  0.8715  1.7960
  102SAPE   O2110316   2.575   4.910   6.317  0.6305  0.2962 -0.3056
  102SAPE   C2110317   2.549   4.798   6.247 -0.4811  0.0105  0.0855
  102SAPE   O2210318   2.440   4.747   6.224 -0.2821  0.0826  0.4179
  102SAPE   C2210319   2.677   4.734   6.198 -0.3926  0.2940  0.4480
  102SAPE   H2R10320   2.757   4.807   6.221  2.3389 -2.0815 -0.9287
  102SAPE   H2S10321   2.698   4.638   6.250  0.0731 -0.4449 -1.0540
  102SAPE    C310322   2.506   5.079   6.477  0.9759  0.2056 -0.3314
  102SAPE    HX10323   2.615   5.074   6.501  0.3211 -0.5595  2.9758
  102SAPE    HY10324   2.448   5.078   6.572 -0.2556 -1.5800 -1.0438
  102SAPE   O3110325   2.480   5.185   6.387  0.3090 -0.2866 -0.3565
  102SAPE   C3110326   2.343   5.213   6.382 -0.6489 -0.5182 -0.0550
  102SAPE   O3210327   2.266   5.173   6.467 -0.2026  0.1662 -0.0153
  102SAPE   C3210328   2.304   5.296   6.261 -0.1798  0.4093 -0.2593
  102SAPE   H2X10329   2.379   5.378   6.254  3.2529 -2.5995 -2.6710
  102SAPE   H2Y10330   2.201   5.333   6.278  0.3651  2.0090 -0.2820
  102SAPE   C2310331   2.673   4.685   6.052 -0.6687 -0.3383  0.8915
  102SAPE   H3R10332   2.591   4.614   6.028 -0.7414  0.8815 -3.2455
  102SAPE   H3S10333   2.765   4.627   6.029  0.1910  1.3619 -0.1289
  102SAPE   C2410334   2.661   4.802   5.942 -0.3531  0.5949 -1.1927
  102SAPE   H4R10335   2.575   4.867   5.969  0.1755  0.7054  0.3036
  102SAPE   H4S10336   2.628   4.763   5.844  0.6909  1.6268 -1.9806
  102SAPE   C2510337   2.794   4.867   5.931  0.6063 -0.4757  0.2193
  102SAPE   H5R10338   2.840   4.895   6.027  0.7922  0.2666 -0.0819
  102SAPE   C2610339   2.865   4.877   5.815 -0.1262  0.3103 -0.2353
  102SAPE   H6R10340   2.972   4.901   5.823 -0.2666  2.1106 -2.6134
  102SAPE   C2710341   2.825   4.832   5.678 -0.6144 -0.2073 -0.2357
  102SAPE   H7R10342   2.858   4.919   5.617 -0.7556 -0.0970 -0.1566
  102SAPE   H7S10343   2.714   4.827   5.672 -0.6313 -1.4917  0.7934
  102SAPE   C2810344   2.897   4.711   5.621  0.0016  0.3221 -0.7922
  102SAPE   H8R10345   2.907   4.634   5.700 -0.5977  0.0826 -0.9458
  102SAPE   C2910346   2.932   4.677   5.495  0.8260  0.0791 -0.6177
  102SAPE   H9R10347   2.979   4.580   5.473  2.2966  1.0334 -1.9755
  102SAPE  C21010348   2.908   4.767   5.376 -0.5605  0.1089  0.5373
  102SAPE  H10R10349   3.008   4.790   5.334 -0.1959 -1.1359  0.6750
  102SAPE  H10S10350   2.848   4.857   5.398 -0.9256 -0.1115  0.4488
  102SAPE  C21110351   2.822   4.694   5.282 -0.2532 -0.5328 -0.4217
  102SAPE  H11R10352   2.714   4.694   5.304 -0.3813  0.1855 -1.0202
  102SAPE  C21210353   2.862   4.646   5.163 -0.0116  0.7557 -0.2091
  102SAPE  H12R10354   2.784   4.598   5.103 -0.4210  0.2836  0.6818
  102SAPE  C21310355   3.007   4.617   5.116  0.2292 -0.5231  0.5987
  102SAPE  H13R10356   3.082   4.645   5.193 -0.3847  3.3999 -0.0221
  102SAPE  H13S10357   3.020   4.690   5.033 -0.1267  0.5260  1.4396
  102SAPE  C21410358   3.027   4.477   5.071 -0.0402 -0.0805  0.2611
  102SAPE  H14R10359   3.038   4.405   5.153  0.5712  0.8168  0.9975
  102SAPE  C21510360   3.026   4.427   4.943  0.0189 -0.4362  0.6498
  102SAPE  H15R10361   3.044   4.319   4.927  1.1289  0.2247 -3.9783
  102SAPE  C21610362   3.017   4.490   4.810  0.1637  0.6707 -0.4422
  102SAPE  H16R10363   2.985   4.595   4.827 -2.9083 -0.2129 -0.2061
  102SAPE  H16S10364   2.938   4.432   4.758 -0.5404 -0.9193  2.1962
  102SAPE  C21710365   3.147   4.492   4.742 -0.8410  0.1926 -0.0162
  102SAPE  H17R10366   3.196   4.392   4.745  0.8529  0.9510 -0.8067
  102SAPE  H17S10367   3.217   4.565   4.789 -0.2515 -0.5866  0.3388
  102SAPE  C21810368   3.131   4.524   4.595  0.3965  0.5197  0.4188
  102SAPE  H18R10369   3.045   4.587   4.567  1.5766  1.2425 -1.8902
  102SAPE  H18S10370   3.112   4.428   4.542 -0.7683  1.6588 -1.3108
  102SAPE  C21910371   3.261   4.589   4.540 -0.9993  0.7412 -0.2466
  102SAPE  H19R10372   3.351   4.536   4.579 -1.2157  0.6482  0.1225
  102SAPE  H19S10373   3.269   4.698   4.557  3.9507  0.5515  0.0922
  102SAPE  C22010374   3.273   4.570   4.390  0.2842 -0.0617  0.0689
  102SAPE  H20R10375   3.340   4.641   4.337 -1.2567  0.4704 -1.2048
  102SAPE  H20S10376   3.171   4.567   4.347  1.0097 -0.5616 -1.7073
  102SAPE  H20T10377   3.328   4.475   4.374  0.0159 -0.1461 -0.3641
  102SAPE   C3310378   2.316   5.232   6.122  0.4315  0.0398  0.1938
  102SAPE   H3X10379   2.261   5.136   6.123 -0.6246  0.6290  0.3352
  102SAPE   H3Y10380   2.420   5.198   6.103  0.0522 -0.3534 -1.2622
  102SAPE   C3410381   2.278   5.328   6.008 -0.3876  0.7202  0.6634
  102SAPE   H4X10382   2.328   5.427   6.014 -0.3008  0.7320 -0.2217
  102SAPE   H4Y10383   2.169   5.348   6.024 -0.1410  1.8268  1.0584
  102SAPE   C3510384   2.293   5.274   5.867 -0.0734  0.3680 -0.8426
  102SAPE   H5X10385   2.281   5.163   5.863 -0.2546  0.3794 -0.6537
  102SAPE   H5Y10386   2.392   5.301   5.825  0.3954 -0.7372 -0.4932
  102SAPE   C3610387   2.185   5.333   5.771 -0.2261 -0.1032  0.7291
  102SAPE   H6X10388   2.155   5.436   5.800  0.8862 -0.3662  3.0300
  102SAPE   H6Y10389   2.090   5.275   5.779 -1.4848  1.8174  0.4718
  102SAPE   C3710390   2.231   5.336   5.623 -0.0869  0.5116  0.3633
  102SAPE   H7X10391   2.303   5.414   5.594  1.0877 -0.4406  0.6285
  102SAPE   H7Y10392   2.152   5.366   5.551  0.5823 -1.4584 -1.3291
  102SAPE   C3810393   2.270   5.194   5.559  0.1636  0.2493  0.6482
  102SAPE   H8X10394   2.182   5.129   5.579  0.8998 -1.0038 -0.0478
  102SAPE   H8Y10395   2.354   5.152   5.618 -0.2301 -0.6094  0.6077
  102SAPE   C3910396   2.305   5.185   5.407 -0.0634  0.3138  0.4616
  102SAPE   H9X10397   2.334   5.087   5.363 -1.4436  0.0685  0.0585
  102SAPE   H9Y10398   2.387   5.255   5.380  1.4929 -1.8102 -0.6278
  102SAPE  C31010399   2.190   5.236   5.324  0.9202  0.2086  0.7217
  102SAPE  H10X10400   2.172   5.341   5.355  2.6361  0.2563  1.6897
  102SAPE  H10Y10401   2.096   5.182   5.346 -0.1811  1.2187 -1.1989
  102SAPE  C31110402   2.211   5.237   5.169  0.6384 -0.0750  0.2362
  102SAPE  H11X10403   2.246   5.133   5.149  2.0773  0.0152  2.0618
  102SAPE  H11Y10404   2.296   5.305   5.148  0.0209  0.6727  0.1059
  102SAPE  C31210405   2.095   5.269   5.079  0.3376  0.1439  0.5799
  102SAPE  H12X10406   2.078   5.377   5.103 -0.2260  0.1446  0.2119
  102SAPE  H12Y10407   2.002   5.211   5.101 -0.8309  1.4461 -0.6879
  102SAPE  C31310408   2.122   5.259   4.928  0.1259  0.3929 -0.4624
  102SAPE  H13X10409   2.025   5.274   4.877  0.4119  1.1357 -0.7990
  102SAPE  H13Y10410   2.153   5.154   4.904 -0.6943  0.3966 -1.5744
  102SAPE  C31410411   2.225   5.357   4.868 -0.3142 -0.4308 -0.5952
  102SAPE  H14X10412   2.326   5.336   4.911 -1.9292 -0.2953  3.7747
  102SAPE  H14Y10413   2.212   5.458   4.913 -1.8354 -0.5996 -0.6005
  102SAPE  C31510414   2.240   5.358   4.710 -0.0775  0.4050  0.1524
  102SAPE  H15X10415   2.269   5.259   4.670  0.9266  1.2690 -1.3293
  102SAPE  H15Y10416   2.326   5.427   4.693 -1.4263  2.3708  0.8259
  102SAPE  C31610417   2.118   5.419   4.630  0.0445  0.7167  0.9370
  102SAPE  H16X10418   2.036   5.344   4.638  0.2119  0.3114 -0.8314
  102SAPE  H16Y10419   2.142   5.417   4.522  0.5022 -1.6890  1.0490
  102SAPE  C31710420   2.086   5.560   4.680 -0.3258 -0.1999  0.4786
  102SAPE  H17X10421   2.180   5.617   4.666  0.8164 -1.8516  1.1925
  102SAPE  H17Y10422   2.074   5.570   4.790 -0.8220 -0.3587  0.4412
  102SAPE  C31810423   1.967   5.628   4.604  0.0551 -0.2053  0.3356
  102SAPE  H18X10424   1.988   5.650   4.498  1.8885  1.4667  0.9854
  102SAPE  H18Y10425   1.950   5.724   4.657 -1.4845 -2.1718  3.7646
  102SAPE  H18Z10426   1.882   5.559   4.623  0.6610 -0.6068  1.7320
  103SAPE     N10427   0.622   3.298   2.106  0.3160 -0.5143  0.1245
  103SAPE   HN110428   0.703   3.283   2.169  0.3158  1.5148  0.6572
  103SAPE   HN210429   0.543   3.343   2.157  0.4390 -1.0375  0.7914
  103SAPE   HN310430   0.586   3.207   2.069  1.7209 -0.5434 -1.2679
  103SAPE   C1210431   0.661   3.392   1.999  0.2909  0.0066 -0.0694
  103SAPE  H12A10432   0.567   3.408   1.942 -0.0784 -2.7326 -0.3365
  103SAPE  H12B10433   0.737   3.338   1.938 -0.1104  0.3871 -0.9290
  103SAPE   C1110434   0.699   3.534   2.049 -0.2337  0.4542  0.0334
  103SAPE  H11A10435   0.755   3.580   1.964  3.7693 -0.9804  1.6296
  103SAPE  H11B10436   0.779   3.519   2.125  1.5018  0.7370 -1.6804
  103SAPE     P10437   0.573   3.756   2.104  0.0421 -0.4047 -0.0562
  103SAPE   O1310438   0.698   3.815   2.056 -0.1065 -0.8308 -0.3403
  103SAPE   O1410439   0.449   3.788   2.027  0.2312 -0.0442 -0.2694
  103SAPE   O1210440   0.588   3.598   2.108 -0.3800 -0.2810  0.1106
  103SAPE   O1110441   0.552   3.797   2.252 -0.2288 -0.2560  0.5274
  103SAPE    C110442   0.591   3.707   2.361  0.3148  0.4014 -0.6054
  103SAPE    HA10443   0.526   3.618   2.362  1.6019 -0.5924  1.9470
  103SAPE    HB10444   0.696   3.671   2.351  0.2011 -0.4127  0.8170
  103SAPE    C210445   0.560   3.779   2.494 -0.0140  0.7178  0.2282
  103SAPE    HS10446   0.450   3.789   2.501  0.2305  2.5540  2.6735
  103SAPE   O2110447   0.623   3.910   2.490 -0.9336  0.1071 -1.4920
  103SAPE   C2110448   0.572   4.003   2.565 -0.0509 -0.3610  0.1801
  103SAPE   O2210449   0.477   3.994   2.642 -0.4263 -0.3131 -0.5031
  103SAPE   C2210450   0.667   4.122   2.549  0.2836  0.4680  0.0927
  103SAPE   H2R10451   0.767   4.082   2.521  1.3880  1.4978  2.3514
  103SAPE   H2S10452   0.630   4.184   2.464  0.2362 -1.6226 -1.5088
  103SAPE    C310453   0.606   3.686   2.613  0.1590  0.0585 -0.1800
  103SAPE    HX10454   0.713   3.655   2.614 -0.2856 -1.5532  0.8629
  103SAPE    HY10455   0.540   3.599   2.597  0.2464  0.1840 -1.3097
  103SAPE   O3110456   0.586   3.743   2.745  0.1587 -0.2542 -0.6295
  103SAPE   C3110457   0.457   3.743   2.789  0.0328 -0.5648 -0.2250
  103SAPE   O3210458   0.373   3.673   2.733  0.2615 -0.1757 -0.1111
  103SAPE   C3210459   0.444   3.824   2.913  0.0202 -0.2478  0.1314
  103SAPE   H2X10460   0.354   3.888   2.896 -1.8146 -2.7458 -0.1814
  103SAPE   H2Y10461   0.532   3.888   2.936 -0.3260  0.0559  0.6379
  103SAPE   C2310462   0.685   4.215   2.672 -0.2151  0.2764 -0.7207
  103SAPE   H3R10463   0.588   4.231   2.723 -0.5418 -2.3248 -0.4028
  103SAPE   H3S10464   0.707   4.311   2.621  1.2397  0.8931  0.9855
  103SAPE   C2410465   0.794   4.179   2.775  0.4268  0.0786 -0.3572
  103SAPE   H4R10466   0.888   4.163   2.717 -0.5041  1.8205 -2.5105
  103SAPE   H4S10467   0.773   4.079   2.818  1.7601 -0.7038 -1.4380
  103SAPE   C2510468   0.807   4.283   2.883  0.1867 -0.7563 -0.3373
  103SAPE   H5R10469   0.873   4.368   2.862  0.2089  0.7681  4.5486
  103SAPE   C2610470   0.737   4.288   2.997  0.0501  0.4582  0.1985
  103SAPE   H6R10471   0.771   4.370   3.063  3.1838 -1.9910  1.8720
  103SAPE   C2710472   0.623   4.202   3.051 -0.9374  0.4730 -0.9535
  103SAPE   H7R10473   0.579   4.136   2.973 -2.2855 -0.7217  0.7412
  103SAPE   H7S10474   0.541   4.269   3.085  0.2714  1.8855 -0.7276
  103SAPE   C2810475   0.689   4.102   3.147  0.2613 -0.5003  0.0874
  103SAPE   H8R10476   0.751   4.024   3.101 -1.6852 -2.9179  1.3513
  103SAPE   C2910477   0.653   4.090   3.273  0.7620  0.9124  0.9246
  103SAPE   H9R10478   0.689   4.003   3.330  0.6825 -1.2570 -2.0920
  103SAPE  C21010479   0.540   4.156   3.352 -0.3863 -0.4307  0.7802
  103SAPE  H10R10480   0.511   4.103   3.445 -0.4873  0.1459  1.0777
  103SAPE  H10S10481   0.448   4.158   3.291 -2.2326 -2.1385  3.3024
  103SAPE  C21110482   0.584   4.302   3.385  0.3595  0.5559  0.3360
  103SAPE  H11R10483   0.625   4.360   3.301  3.6288  2.4098  2.9450
  103SAPE  C21210484   0.600   4.351   3.505 -0.2960 -0.2408 -0.6102
  103SAPE  H12R10485   0.642   4.451   3.519  1.3396 -1.1368  1.6313
  103SAPE  C21310486   0.589   4.273   3.635  0.4740 -0.3341  0.3610
  103SAPE  H13R10487   0.671   4.198   3.635  2.1075  1.3970  0.4216
  103SAPE  H13S10488   0.495   4.215   3.651  0.0804  0.8849  3.0340
  103SAPE  C21410489   0.616   4.365   3.751  0.3272  0.6632  0.1872
  103SAPE  H14R10490   0.606   4.471   3.724  2.2195  0.3726 -1.9536
  103SAPE  C21510491   0.652   4.316   3.873 -0.6711 -0.2442  0.1547
  103SAPE  H15R10492   0.669   4.385   3.956  0.9329 -0.3692 -0.0356
  103SAPE  C21610493   0.670   4.171   3.914 -0.1211  0.1411  0.1572
  103SAPE  H16R10494   0.777   4.158   3.942  0.1996 -3.5977 -2.1217
  103SAPE  H16S10495   0.650   4.102   3.829 -0.4376  1.7261 -1.0986
  103SAPE  C21710496   0.582   4.137   4.030  0.6945 -0.2222 -0.0740
  103SAPE  H17R10497   0.476   4.164   4.007  0.9276  0.7125 -0.0988
  103SAPE  H17S10498   0.602   4.201   4.119 -0.0464 -0.3376  0.1892
  103SAPE  C21810499   0.594   3.994   4.084  0.3260 -0.1855 -0.3638
  103SAPE  H18R10500   0.692   3.978   4.133  0.2524  0.4529  0.0071
  103SAPE  H18S10501   0.594   3.915   4.006  1.5569 -2.0600  1.4280
  103SAPE  C21910502   0.482   3.951   4.181  0.3194  0.0339 -0.2651
  103SAPE  H19R10503   0.382   3.934   4.137 -0.5267  0.3786  1.4482
  103SAPE  H19S10504   0.471   4.031   4.257  1.4071  0.3187 -0.3869
  103SAPE  C22010505   0.529   3.839   4.266  0.1484  0.7549  0.1411
  103SAPE  H20R10506   0.451   3.795   4.331  0.5233 -2.3265 -1.3146
  103SAPE  H20S10507   0.625   3.860   4.319  1.2562 -1.8014 -0.6835
  103SAPE  H20T10508   0.551   3.756   4.195 -0.4402  0.7554 -0.0500
  103SAPE   C3310509   0.409   3.741   3.038  0.3892  0.3636  0.7452
  103SAPE   H3X10510   0.443   3.636   3.027 -0.4301  0.1637  0.0029
  103SAPE   H3Y10511   0.299   3.728   3.049  0.6919 -2.5844  1.1324
  103SAPE   C3410512   0.458   3.788   3.168  0.4689 -0.8516  0.7030
  103SAPE   H4X10513   0.398   3.880   3.187 -0.2032 -1.0112 -0.5400
  103SAPE   H4Y10514   0.565   3.821   3.162 -0.1515  1.1789 -0.2496
  103SAPE   C3510515   0.443   3.684   3.280  0.0766 -0.2321 -0.0724
  103SAPE   H5X10516   0.339   3.646   3.286  0.0160  0.1547  1.9194
  103SAPE   H5Y10517   0.471   3.744   3.369 -1.5359  0.8201 -0.2465
  103SAPE   C3610518   0.546   3.577   3.268  0.2987  0.4548 -0.3497
  103SAPE   H6X10519   0.646   3.627   3.266 -0.0713  1.2074 -0.5232
  103SAPE   H6Y10520   0.533   3.514   3.178  1.3999  2.2479 -1.8407
  103SAPE   C3710521   0.566   3.495   3.394  0.1873  0.0342  0.3318
  103SAPE   H7X10522   0.483   3.428   3.426  0.6962 -0.7630  0.0175
  103SAPE   H7Y10523   0.587   3.562   3.480 -1.2170  0.4374  0.3752
  103SAPE   C3810524   0.696   3.409   3.375 -0.1877 -0.5958  0.0221
  103SAPE   H8X10525   0.704   3.359   3.474 -0.2909 -0.0454  0.3091
  103SAPE   H8Y10526   0.782   3.479   3.366 -0.8536  0.4331  1.4249
  103SAPE   C3910527   0.693   3.307   3.264  0.0836 -0.5439  0.2438
  103SAPE   H9X10528   0.781   3.240   3.272  0.6479  0.0516 -0.7550
  103SAPE   H9Y10529   0.702   3.352   3.162  0.1590 -0.2256  0.3887
  103SAPE  C31010530   0.565   3.223   3.264  0.2295  0.1051 -0.0504
  103SAPE  H10X10531   0.565   3.162   3.171  0.3930  0.6201 -0.3944
  103SAPE  H10Y10532   0.478   3.291   3.263 -1.3315 -1.7973 -0.3913
  103SAPE  C31110533   0.557   3.137   3.390 -0.0271 -0.0938 -0.5632
  103SAPE  H11X10534   0.519   3.207   3.468  2.2997 -1.0111  1.5473
  103SAPE  H11Y10535   0.645   3.087   3.436 -0.7809  2.8122  4.9428
  103SAPE  C31210536   0.459   3.022   3.370 -0.4474 -0.5565 -0.3141
  103SAPE  H12X10537   0.485   2.962   3.281 -1.8787  0.8011 -1.7045
  103SAPE  H12Y10538   0.363   3.066   3.335 -0.0349  0.9067  0.2812
  103SAPE  C31310539   0.414   2.940   3.494  0.3425  0.3777  0.1758
  103SAPE  H13X10540   0.386   3.007   3.578 -1.0806 -1.7815  1.5331
  103SAPE  H13Y10541   0.500   2.879   3.530 -0.1514 -0.4639 -0.0515
  103SAPE  C31410542   0.286   2.860   3.475 -0.4304  0.2932  0.0754
  103SAPE  H14X10543   0.303   2.778   3.402  0.8131 -0.2822  0.9627
  103SAPE  H14Y10544   0.208   2.931   3.440 -0.5179 -0.9286 -2.3751
  103SAPE  C31510545   0.235   2.803   3.613 -0.2992 -0.1974  0.3087
  103SAPE  H15X10546   0.140   2.750   3.590 -0.1541 -0.0746 -0.5836
  103SAPE  H15Y10547   0.219   2.890   3.680  1.5207 -0.6600  1.4230
  103SAPE  C31610548   0.335   2.712   3.670 -0.8421  1.0943  0.2267
  103SAPE  H16X10549   0.409   2.780   3.718 -1.1348  1.2931  0.3974
  103SAPE  H16Y10550   0.395   2.660   3.592 -1.4740  2.2454 -1.0668
  103SAPE  C31710551   0.278   2.609   3.766 -0.1444  0.0508 -0.3058
  103SAPE  H17X10552   0.218   2.537   3.707  0.1608 -1.3765  1.0626
  103SAPE  H17Y10553   0.214   2.667   3.835  0.3019 -1.0291  1.0643
  103SAPE  C31810554   0.367   2.540   3.862 -0.0656  0.1579  0.3698
  103SAPE  H18X10555   0.432   2.462   3.817  1.9690  1.3111  1.1849
  103SAPE  H18Y10556   0.301   2.493   3.938 -1.5339 -1.0584 -1.5591
  103SAPE  H18Z10557   0.440   2.606   3.914  0.2053  0.1219  0.0349
  104SAPE     N10558   3.273   3.397   1.899 -0.3687  0.2155 -0.1546
  104SAPE   HN110559   3.275   3.481   1.959  0.3989  0.0441  0.0614
  104SAPE   HN210560   3.279   3.420   1.798 -0.5252 -3.3926 -1.1192
  104SAPE   HN310561   3.178   3.357   1.916 -0.0436  0.1252  1.7075
  104SAPE   C1210562   3.380   3.303   1.946 -0.4479  0.3672 -0.3407
  104SAPE  H12A10563   3.478   3.334   1.905 -1.7084  1.5918 -2.6019
  104SAPE  H12B10564   3.351   3.200   1.914  1.8089 -0.5885  0.4947
  104SAPE   C1110565   3.391   3.315   2.103 -0.2871 -0.1033 -0.0357
  104SAPE  H11A10566   3.448   3.224   2.130  2.2306  0.4073 -3.0447
  104SAPE  H11B10567   3.300   3.299   2.165  0.4207 -2.5060  0.4721
  104SAPE     P10568   3.417   3.552   2.189 -0.1358 -0.3308  0.3489
  104SAPE   O1310569   3.512   3.662   2.172  0.0496 -0.0313  0.1519
  104SAPE   O1410570   3.282   3.575   2.127 -0.1562 -0.0582  0.6089
  104SAPE   O1210571   3.481   3.418   2.133  0.5443 -0.5639 -0.7850
  104SAPE   O1110572   3.400   3.525   2.347 -1.2201  0.0605  0.4372
  104SAPE    C110573   3.496   3.437   2.413  0.5666  0.4659  0.6148
  104SAPE    HA10574   3.520   3.345   2.356  1.3890  0.9946  0.0712
  104SAPE    HB10575   3.587   3.497   2.435  0.4648  1.1769 -0.7703
  104SAPE    C210576   3.437   3.400   2.555 -0.4096 -0.6414  0.6078
  104SAPE    HS10577   3.495   3.309   2.584 -2.0371 -1.3544  1.7900
  104SAPE   O2110578   3.298   3.374   2.533  0.6393  0.2101 -0.8782
  104SAPE   C2110579   3.256   3.251   2.521  0.9774  0.3481 -0.1904
  104SAPE   O2210580   3.327   3.154   2.511  0.2672  0.4225  0.2926
  104SAPE   C2210581   3.105   3.245   2.513  0.2253 -0.1054 -0.5220
  104SAPE   H2R10582   3.066   3.315   2.591  2.4541  0.7497 -0.0689
  104SAPE   H2S10583   3.072   3.304   2.425  2.4991  1.1333 -0.6427
  104SAPE    C310584   3.456   3.504   2.670 -0.6855  0.4937  0.1423
  104SAPE    HX10585   3.426   3.607   2.638  1.5268  0.6602 -1.6719
  104SAPE    HY10586   3.563   3.507   2.699 -0.1029 -0.7334 -1.7414
  104SAPE   O3110587   3.390   3.467   2.797  0.5273 -0.2280  0.5497
  104SAPE   C3110588   3.284   3.530   2.837 -0.1245  0.5961 -0.2416
  104SAPE   O3210589   3.217   3.610   2.772 -0.3054 -0.5579 -0.4245
  104SAPE   C3210590   3.247   3.461   2.968  0.3734  0.0734  0.0907
  104SAPE   H2X10591   3.176   3.524   3.026 -0.1022  0.3340 -0.7488
  104SAPE   H2Y10592   3.336   3.428   3.025 -0.2065 -1.2206  0.2826
  104SAPE   C2310593   3.026   3.111   2.508  0.3245  0.1708  0.0784
  104SAPE   H3R10594   3.076   3.044   2.434  0.1795 -0.3732  0.4645
  104SAPE   H3S10595   2.924   3.129   2.467  0.5595  1.0702 -0.1243
  104SAPE   C2410596   3.008   3.050   2.641 -0.3655  0.4194 -0.3244
  104SAPE   H4R10597   2.977   3.123   2.718 -2.3109 -0.3984 -0.2755
  104SAPE   H4S10598   3.103   3.014   2.685 -0.7987 -1.3650 -0.7592
  104SAPE   C2510599   2.918   2.929   2.640  0.0104  0.9463 -0.0628
  104SAPE   H5R10600   2.942   2.851   2.566  0.3590  1.9475 -1.0342
  104SAPE   C2610601   2.812   2.913   2.721  0.2794 -0.3281  0.9078
  104SAPE   H6R10602   2.744   2.828   2.705  1.7792 -1.7759  1.9993
  104SAPE   C2710603   2.767   3.011   2.830  0.1789 -0.6191 -0.4842
  104SAPE   H7R10604   2.810   3.113   2.819  0.6796 -0.5698  1.5643
  104SAPE   H7S10605   2.804   2.970   2.927 -0.9623 -1.3525 -0.3446
  104SAPE   C2810606   2.619   3.021   2.831  0.3319  0.4696 -0.4444
  104SAPE   H8R10607   2.580   3.017   2.728  0.1712  2.2805 -0.4878
  104SAPE   C2910608   2.544   3.064   2.941  0.9837  0.1205  0.4273
  104SAPE   H9R10609   2.434   3.076   2.940  1.0945  1.2503  1.0735
  104SAPE  C21010610   2.601   3.087   3.077  0.6398  1.5322  0.7475
  104SAPE  H10R10611   2.653   3.185   3.078  1.1078  1.3985 -1.9027
  104SAPE  H10S10612   2.673   3.007   3.102 -0.3691  0.4700  0.3811
  104SAPE  C21110613   2.484   3.083   3.177  0.4729  0.1804 -0.0020
  104SAPE  H11R10614   2.408   3.005   3.159  1.1901 -1.3774  3.0984
  104SAPE  C21210615   2.463   3.160   3.283 -0.1796  0.2175  0.3793
  104SAPE  H12R10616   2.375   3.146   3.347 -1.3148  0.3676 -1.1034
  104SAPE  C21310617   2.544   3.279   3.314  0.3899  0.1070 -0.3267
  104SAPE  H13R10618   2.506   3.369   3.259 -0.5564 -0.9095 -1.3929
  104SAPE  H13S10619   2.647   3.265   3.275 -0.0295  0.1495 -1.4948
  104SAPE  C21410620   2.545   3.325   3.453  0.5468 -0.0169  0.6357
  104SAPE  H14R10621   2.484   3.417   3.461  2.1120  1.2083 -0.6731
  104SAPE  C21510622   2.605   3.277   3.566 -0.2000 -0.8189 -0.1332
  104SAPE  H15R10623   2.573   3.330   3.657  0.1991  2.4657 -1.7609
  104SAPE  C21610624   2.698   3.162   3.570 -0.3251 -0.8184  0.6726
  104SAPE  H16R10625   2.800   3.206   3.574 -0.5715 -0.3177  2.4794
  104SAPE  H16S10626   2.688   3.107   3.474 -0.5469  0.2574  0.0562
  104SAPE  C21710627   2.656   3.067   3.683  0.0028 -0.7195 -0.3841
  104SAPE  H17R10628   2.708   2.970   3.670 -0.5099 -0.9783 -0.5577
  104SAPE  H17S10629   2.548   3.043   3.673 -0.7428  1.9853  0.1577
  104SAPE  C21810630   2.700   3.122   3.819 -0.7858 -0.2690  0.1440
  104SAPE  H18R10631   2.655   3.223   3.832 -0.2759 -0.0380  0.1282
  104SAPE  H18S10632   2.810   3.137   3.817 -0.8604  0.3233  0.1467
  104SAPE  C21910633   2.665   3.031   3.942 -0.1171  0.6195  0.3895
  104SAPE  H19R10634   2.555   3.016   3.937  0.2651 -2.5385 -2.4892
  104SAPE  H19S10635   2.688   3.082   4.038 -0.4655  0.0721  0.7708
  104SAPE  C22010636   2.739   2.897   3.948 -0.4243  0.5839  0.2075
  104SAPE  H20R10637   2.731   2.858   4.052  2.6144 -0.7288  0.0464
  104SAPE  H20S10638   2.849   2.914   3.942  0.4370 -2.1211  4.3067
  104SAPE  H20T10639   2.710   2.816   3.878 -0.4363  2.8038 -2.5337
  104SAPE   C3310640   3.176   3.328   2.929  0.9999  0.2245  0.0549
  104SAPE   H3X10641   3.246   3.261   2.875 -0.1135 -2.0739  1.3148
  104SAPE   H3Y10642   3.086   3.358   2.870  1.0003  2.3620  1.0229
  104SAPE   C3410643   3.102   3.266   3.051 -0.4438  0.1438  0.3195
  104SAPE   H4X10644   3.017   3.207   3.011 -0.5263 -0.3614  1.1959
  104SAPE   H4Y10645   3.051   3.343   3.113 -2.0857  0.0027 -0.8128
  104SAPE   C3510646   3.175   3.175   3.142 -0.5473 -0.1890  0.6678
  104SAPE   H5X10647   3.246   3.241   3.196 -1.5596 -0.2458  2.1479
  104SAPE   H5Y10648   3.234   3.102   3.083  1.6916  2.2283 -0.2333
  104SAPE   C3610649   3.080   3.098   3.240  0.1129  0.2022 -0.4533
  104SAPE   H6X10650   3.000   3.046   3.184 -0.5115  1.4054 -0.7093
  104SAPE   H6Y10651   3.033   3.166   3.314 -0.8521 -2.0547  1.1217
  104SAPE   C3710652   3.158   2.998   3.322 -0.3812 -0.8817 -0.7191
  104SAPE   H7X10653   3.241   3.060   3.362 -1.7575  1.1804 -0.9383
  104SAPE   H7Y10654   3.197   2.918   3.255  0.7980  0.5651 -1.8113
  104SAPE   C3810655   3.083   2.943   3.450 -0.1044 -0.4725 -0.0642
  104SAPE   H8X10656   3.004   2.874   3.416  0.4842 -0.9934 -0.3956
  104SAPE   H8Y10657   3.037   3.025   3.508  1.0039 -0.0559  0.2604
  104SAPE   C3910658   3.174   2.868   3.551  0.3358 -0.0778  0.0240
  104SAPE   H9X10659   3.223   2.944   3.616  1.3056  0.4036 -1.2378
  104SAPE   H9Y10660   3.246   2.813   3.488 -0.7638 -1.1095 -0.3657
  104SAPE  C31010661   3.101   2.749   3.614  0.0935  0.3956  0.4764
  104SAPE  H10X10662   3.029   2.706   3.540  2.5986 -1.9211 -0.8116
  104SAPE  H10Y10663   3.042   2.794   3.697 -0.9744 -0.5426  0.2565
  104SAPE  C31110664   3.190   2.633   3.662 -0.0690  0.3166  0.0649
  104SAPE  H11X10665   3.273   2.662   3.731 -0.8904  3.4575 -0.0896
  104SAPE  H11Y10666   3.246   2.598   3.573  2.3831 -1.6262  2.2231
  104SAPE  C31210667   3.110   2.519   3.733 -0.0228 -0.8017 -0.4388
  104SAPE  H12X10668   3.145   2.423   3.690 -3.4631 -2.4385  0.1360
  104SAPE  H12Y10669   3.005   2.537   3.701 -0.4932 -0.8169  1.0310
  104SAPE  C31310670   3.140   2.510   3.881 -0.0823  0.0132  0.0768
  104SAPE  H13X10671   3.251   2.508   3.883  0.0741  1.7195 -2.6735
  104SAPE  H13Y10672   3.082   2.437   3.943 -0.1609  1.8282  2.2713
  104SAPE  C31410673   3.109   2.634   3.964  0.5182 -0.0808  0.0049
  104SAPE  H14X10674   2.999   2.647   3.971  0.4808  0.0499 -0.7779
  104SAPE  H14Y10675   3.154   2.718   3.907 -1.0547  1.4631  0.9213
  104SAPE  C31510676   3.163   2.620   4.104  0.1267  0.2644  0.6738
  104SAPE  H15X10677   3.273   2.599   4.105 -0.0480 -0.6891  1.4362
  104SAPE  H15Y10678   3.129   2.524   4.148 -5.0268  1.8398  0.6927
  104SAPE  C31610679   3.131   2.742   4.195  0.4845 -0.5139 -0.2701
  104SAPE  H16X10680   3.170   2.724   4.298  0.0927 -0.4368 -0.1082
  104SAPE  H16Y10681   3.023   2.759   4.212  0.2308 -1.2706 -1.1093
  104SAPE  C31710682   3.185   2.869   4.126 -0.1157 -0.9688  0.4977
  104SAPE  H17X10683   3.101   2.897   4.060 -1.1177  0.1723  2.1637
  104SAPE  H17Y10684   3.275   2.845   4.066 -2.2551 -1.6300 -2.6518
  104SAPE  C31810685   3.205   2.983   4.221 -0.4519 -0.6844 -0.4466
  104SAPE  H18X10686   3.114   2.988   4.284  0.9113 -1.7565  1.7571
  104SAPE  H18Y10687   3.236   3.082   4.181  0.1077 -1.3268 -1.6539
  104SAPE  H18Z10688   3.286   2.957   4.292 -1.7113  1.4090  1.8834
  105SAPE     N10689   5.889   1.231   1.836 -0.0089  0.2678 -0.1126
  105SAPE   HN110690   5.799   1.281   1.821  0.0333  0.1289 -0.9160
  105SAPE   HN210691   5.976   1.286   1.818  0.6109 -0.7130 -0.1619
  105SAPE   HN310692   5.898   1.149   1.772 -1.6036  0.9364 -1.2669
  105SAPE   C1210693   5.878   1.170   1.972  0.2778 -0.0314 -0.8667
  105SAPE  H12A10694   5.972   1.115   1.994  0.9902  0.9101 -1.4918
  105SAPE  H12B10695   5.792   1.100   1.968  1.1790 -1.1198 -4.6114
  105SAPE   C1110696   5.858   1.276   2.082 -0.2817 -0.1442  0.3300
  105SAPE  H11A10697   5.936   1.355   2.087 -0.4964  0.0520  0.6066
  105SAPE  H11B10698   5.869   1.236   2.185  3.1241  0.9091  0.5122
  105SAPE     P10699   5.605   1.319   2.148 -0.1302  0.1111  0.1416
  105SAPE   O1310700   5.518   1.434   2.123 -0.1114  0.1920  0.0077
  105SAPE   O1410701   5.549   1.188   2.123  0.0489  0.4283  0.0768
  105SAPE   O1210702   5.734   1.340   2.053  0.4616 -0.1870 -0.0748
  105SAPE   O1110703   5.672   1.325   2.292  0.0247 -0.4817  0.2195
  105SAPE    C110704   5.681   1.225   2.388 -0.4974 -0.1199  0.1814
  105SAPE    HA10705   5.614   1.139   2.366 -0.4230 -0.6545  1.8818
  105SAPE    HB10706   5.784   1.185   2.400 -0.2815  0.1867 -0.5820
  105SAPE    C210707   5.621   1.259   2.527  0.3959 -0.4617 -0.0117
  105SAPE    HS10708   5.566   1.171   2.566 -1.1085 -0.4505 -1.9523
  105SAPE   O2110709   5.538   1.379   2.518 -0.4302  0.2626 -0.0896
  105SAPE   C2110710   5.411   1.359   2.528  0.4022  0.2181  0.6293
  105SAPE   O2210711   5.355   1.251   2.547  0.3450  0.3321  0.4460
  105SAPE   C2210712   5.339   1.490   2.527 -0.2863 -0.5705  0.8634
  105SAPE   H2R10713   5.350   1.530   2.424 -0.9656  0.5508  1.2178
  105SAPE   H2S10714   5.233   1.460   2.533 -1.2289  0.2991 -5.0809
  105SAPE    C310715   5.736   1.305   2.627  0.3500 -0.0766 -0.0003
  105SAPE    HX10716   5.775   1.395   2.576 -2.5236  0.6737 -1.0419
  105SAPE    HY10717   5.803   1.217   2.643  0.7140  0.2705  0.4037
  105SAPE   O3110718   5.669   1.337   2.759  0.0400 -0.1824  0.0743
  105SAPE   C3110719   5.723   1.429   2.838  0.4871 -0.1639 -0.4976
  105SAPE   O3210720   5.817   1.501   2.806  0.2641  0.2196 -0.0801
  105SAPE   C3210721   5.651   1.413   2.970  0.0931 -0.2441 -0.6415
  105SAPE   H2X10722   5.543   1.412   2.941 -0.3729 -1.3197  1.0434
  105SAPE   H2Y10723   5.673   1.493   3.044  0.4459  0.0297 -1.0387
  105SAPE   C2310724   5.377   1.576   2.647 -1.0167 -0.7997  0.0388
  105SAPE   H3R10725   5.343   1.678   2.617  1.7112 -0.0875 -0.8756
  105SAPE   H3S10726   5.487   1.578   2.660 -0.8200 -0.3565 -1.5113
  105SAPE   C2410727   5.303   1.544   2.776  0.6652 -0.1479  0.1962
  105SAPE   H4R10728   5.307   1.436   2.799  0.2246 -0.0605  0.7272
  105SAPE   H4S10729   5.195   1.565   2.756  0.7665  1.1776  0.9241
  105SAPE   C2510730   5.339   1.632   2.897 -0.0764  0.4277 -0.0028
  105SAPE   H5R10731   5.448   1.633   2.913  0.0697 -1.2645 -0.7722
  105SAPE   C2610732   5.263   1.712   2.976 -0.3933 -0.3017 -0.3110
  105SAPE   H6R10733   5.314   1.746   3.068  0.6703  0.2745 -1.0771
  105SAPE   C2710734   5.116   1.735   2.975 -0.3146  0.0282 -0.1022
  105SAPE   H7R10735   5.072   1.634   2.964 -0.5132  0.0775  0.2176
  105SAPE   H7S10736   5.091   1.785   2.879 -0.8564 -1.3885 -0.7239
  105SAPE   C2810737   5.060   1.812   3.089 -0.4257 -0.5665 -0.2744
  105SAPE   H8R10738   5.055   1.921   3.077  1.5502  0.0750  3.2781
  105SAPE   C2910739   4.990   1.769   3.193  0.0478 -0.6407 -0.1933
  105SAPE   H9R10740   4.960   1.837   3.273  0.8695  1.6303 -1.7090
  105SAPE  C21010741   4.949   1.622   3.234 -0.4114 -0.1464 -0.1020
  105SAPE  H10R10742   5.038   1.576   3.282 -0.5348 -0.0376  0.2331
  105SAPE  H10S10743   4.920   1.557   3.149  0.6949 -1.4351  0.4742
  105SAPE  C21110744   4.822   1.623   3.313  0.0519 -0.0029 -0.1537
  105SAPE  H11R10745   4.736   1.667   3.261 -0.2693  0.3517  0.6578
  105SAPE  C21210746   4.811   1.599   3.443 -0.3304  0.1137 -0.0462
  105SAPE  H12R10747   4.715   1.610   3.495  0.1458  3.5690  0.3560
  105SAPE  C21310748   4.926   1.548   3.526 -0.1450  0.0308  0.5828
  105SAPE  H13R10749   4.912   1.583   3.631  1.2222  0.9820  0.4622
  105SAPE  H13S10750   5.024   1.588   3.494  0.2691 -0.7280  0.8832
  105SAPE  C21410751   4.937   1.395   3.530 -0.1311  0.3123  0.0372
  105SAPE  H14R10752   4.889   1.342   3.446 -0.2234  3.0285 -1.7203
  105SAPE  C21510753   4.985   1.327   3.640 -0.4673 -0.4123  0.2260
  105SAPE  H15R10754   4.994   1.218   3.630 -3.3538 -0.9399  2.0830
  105SAPE  C21610755   5.056   1.386   3.764  0.0418  0.5009  0.4752
  105SAPE  H16R10756   5.026   1.491   3.786 -1.2585  0.8076 -2.3296
  105SAPE  H16S10757   5.167   1.383   3.758  0.0777  0.5932  1.0195
  105SAPE  C21710758   5.000   1.300   3.886  0.1518  0.5287  0.6692
  105SAPE  H17R10759   5.015   1.193   3.862 -4.4065 -0.3225  0.5800
  105SAPE  H17S10760   4.890   1.319   3.892  0.0686  0.7313 -0.9733
  105SAPE  C21810761   5.070   1.334   4.021  0.5046  0.4295 -0.1949
  105SAPE  H18R10762   5.056   1.443   4.037  3.9877  1.2414 -1.7034
  105SAPE  H18S10763   5.180   1.318   4.020  0.3553 -0.7268 -0.6796
  105SAPE  C21910764   5.020   1.249   4.140 -0.1135 -0.1977  0.3600
  105SAPE  H19R10765   5.033   1.144   4.107 -2.1198 -0.8847  1.5881
  105SAPE  H19S10766   4.910   1.268   4.144 -0.2735 -0.0680 -2.4513
  105SAPE  C22010767   5.105   1.266   4.272 -0.4489 -0.1292  0.8053
  105SAPE  H20R10768   5.068   1.194   4.348  0.7156 -0.0188  1.5137
  105SAPE  H20S10769   5.088   1.372   4.303  2.9915  0.9555 -0.5403
  105SAPE  H20T10770   5.216   1.255   4.264 -0.5371 -1.7360  1.4382
  105SAPE   C3310771   5.693   1.281   3.039  0.4564 -0.8015 -0.6092
  105SAPE   H3X10772   5.663   1.190   2.982  1.4778 -1.4094 -0.2074
  105SAPE   H3Y10773   5.646   1.278   3.140 -2.0168  0.5167 -1.6260
  105SAPE   C3410774   5.841   1.266   3.058 -0.8394 -0.2695 -0.1892
  105SAPE   H4X10775   5.889   1.267   2.957 -0.1302  0.5405  0.1406
  105SAPE   H4Y10776   5.857   1.173   3.117 -0.3868 -0.7981 -1.1135
  105SAPE   C3510777   5.913   1.383   3.127  0.7544  0.1273  0.2056
  105SAPE   H5X10778   5.906   1.485   3.084  1.3484  0.7150  1.4618
  105SAPE   H5Y10779   6.018   1.347   3.116  0.7413  0.7057 -2.4103
  105SAPE   C3610780   5.885   1.394   3.284  0.0108  0.3161 -0.4157
  105SAPE   H6X10781   5.780   1.417   3.313  0.2406  0.8088  0.0446
  105SAPE   H6Y10782   5.927   1.492   3.312  0.4743  0.1426 -0.5057
  105SAPE   C3710783   5.961   1.278   3.349 -0.3281  0.0975  0.1220
  105SAPE   H7X10784   6.066   1.287   3.317  0.6755  0.2362  3.1084
  105SAPE   H7Y10785   5.925   1.173   3.341  1.5372 -0.6758  1.1862
  105SAPE   C3810786   5.948   1.306   3.495 -0.6578 -0.4444  0.2346
  105SAPE   H8X10787   5.851   1.349   3.529 -0.8746 -0.1949 -0.6654
  105SAPE   H8Y10788   6.029   1.379   3.515 -1.0505  0.6756 -1.9836
  105SAPE   C3910789   5.974   1.179   3.584 -0.3013  0.2393  0.5776
  105SAPE   H9X10790   6.078   1.147   3.561 -0.5516 -0.2670  0.1257
  105SAPE   H9Y10791   5.901   1.098   3.563  1.7182 -1.4104 -0.4662
  105SAPE  C31010792   5.965   1.217   3.737  0.4940  0.4403 -0.0201
  105SAPE  H10X10793   5.859   1.244   3.759  0.9951  0.7375  2.3501
  105SAPE  H10Y10794   6.029   1.305   3.760  0.5168  0.4144  0.0152
  105SAPE  C31110795   6.008   1.094   3.827  0.2396 -0.6045 -0.0481
  105SAPE  H11X10796   6.119   1.098   3.824  0.2301  0.5905  0.3328
  105SAPE  H11Y10797   5.971   1.001   3.779  0.7685 -0.8879  0.0831
  105SAPE  C31210798   5.961   1.100   3.974 -0.5654  0.0424 -0.0197
  105SAPE  H12X10799   6.012   1.023   4.034 -0.7215  1.5400  2.1809
  105SAPE  H12Y10800   5.851   1.083   3.984 -0.1841 -1.8063  1.5528
  105SAPE  C31310801   5.987   1.236   4.046  0.0316 -0.6467 -0.2874
  105SAPE  H13X10802   5.903   1.300   4.011 -0.1735 -1.8266 -2.0698
  105SAPE  H13Y10803   6.080   1.290   4.017  0.5068  1.5031  4.3572
  105SAPE  C31410804   5.985   1.206   4.195  0.0122 -0.3489 -0.2818
  105SAPE  H14X10805   6.078   1.155   4.227 -0.6346 -0.7462  1.0531
  105SAPE  H14Y10806   5.904   1.133   4.219  0.9466 -1.6462 -0.9694
  105SAPE  C31510807   5.983   1.323   4.297 -0.3778  0.2157  0.3788
  105SAPE  H15X10808   5.892   1.382   4.274 -1.1988 -0.7275  1.1280
  105SAPE  H15Y10809   6.065   1.396   4.285 -1.4615  1.2415 -1.1356
  105SAPE  C31610810   5.971   1.277   4.444 -0.3733  0.2784  0.0094
  105SAPE  H16X10811   6.060   1.215   4.466 -1.1891 -0.7098  0.6431
  105SAPE  H16Y10812   5.891   1.201   4.457  1.3016 -1.8931 -1.7183
  105SAPE  C31710813   5.959   1.397   4.538 -0.1225  0.9211 -0.7477
  105SAPE  H17X10814   5.926   1.474   4.465  1.1352  0.8090 -1.4597
  105SAPE  H17Y10815   6.063   1.424   4.568  0.7295 -2.2015 -0.4993
  105SAPE  C31810816   5.865   1.378   4.650  0.6247 -0.8266 -0.6645
  105SAPE  H18X10817   5.908   1.314   4.730  0.5106 -0.9374 -0.6908
  105SAPE  H18Y10818   5.768   1.334   4.618  0.0757 -0.0165 -0.1659
  105SAPE  H18Z10819   5.845   1.480   4.691 -2.3793 -0.8723 -1.7652
  106SAPE     N10820   5.844   0.458   1.997 -0.3562  0.3724 -0.4803
  106SAPE   HN110821   5.912   0.486   1.922  0.7649  1.0598  0.7577
  106SAPE   HN210822   5.814   0.366   1.958  2.7502 -1.6183  1.4193
  106SAPE   HN310823   5.761   0.520   2.003 -1.6256 -1.3856  2.0517
  106SAPE   C1210824   5.896   0.415   2.134  0.2019 -0.5577 -0.4916
  106SAPE  H12A10825   5.890   0.508   2.196 -0.3645 -0.1994 -1.0655
  106SAPE  H12B10826   5.992   0.365   2.113  1.2527  1.5646 -1.0104
  106SAPE   C1110827   5.796   0.325   2.211  0.3995 -0.1073 -0.1751
  106SAPE  H11A10828   5.700   0.379   2.227  0.0182 -0.6182 -0.6604
  106SAPE  H11B10829   5.838   0.310   2.313 -0.4643  3.2877  0.7990
  106SAPE     P10830   5.848   0.073   2.142 -0.0577 -0.1638 -0.2252
  106SAPE   O1310831   5.798  -0.019   2.038  0.4879  0.4685  0.0317
  106SAPE   O1410832   5.993   0.099   2.136  0.1429  0.4087 -0.4496
  106SAPE   O1210833   5.769   0.210   2.129  0.1452  0.0315 -0.1894
  106SAPE   O1110834   5.791   0.033   2.288  0.3889 -0.5447  0.2493
  106SAPE    C110835   5.662  -0.027   2.287  0.1687  0.0016  0.5191
  106SAPE    HA10836   5.590   0.055   2.268  1.5010  1.4334  1.3698
  106SAPE    HB10837   5.640  -0.107   2.213 -0.2456 -0.5068  1.1773
  106SAPE    C210838   5.621  -0.083   2.426  0.0411 -0.2171  0.7954
  106SAPE    HS10839   5.512  -0.104   2.420  0.2744 -1.0947 -1.1397
  106SAPE   O2110840   5.651   0.000   2.533  0.1636  0.1752  0.0121
  106SAPE   C2110841   5.584   0.115   2.539 -0.2052 -0.0164 -0.0861
  106SAPE   O2210842   5.514   0.171   2.458 -0.2284  0.4615 -0.7511
  106SAPE   C2210843   5.605   0.169   2.688 -0.5701 -0.3972  0.9038
  106SAPE   H2R10844   5.706   0.139   2.725  0.1160  0.9979  0.2653
  106SAPE   H2S10845   5.607   0.278   2.666  1.2923 -0.6213 -0.3030
  106SAPE    C310846   5.687  -0.218   2.452  0.6106  0.4811 -0.1094
  106SAPE    HX10847   5.796  -0.206   2.434  0.2054  3.0476 -1.2359
  106SAPE    HY10848   5.649  -0.296   2.383 -0.9508  0.3527  0.8388
  106SAPE   O3110849   5.656  -0.271   2.582 -0.4938 -0.8050 -0.1780
  106SAPE   C3110850   5.756  -0.265   2.672 -0.0670  0.2331 -0.0324
  106SAPE   O3210851   5.860  -0.199   2.649  0.0408  0.3641  0.4017
  106SAPE   C3210852   5.724  -0.348   2.790 -0.1895 -0.5209 -0.3250
  106SAPE   H2X10853   5.748  -0.457   2.782 -0.2388 -0.6855  1.3888
  106SAPE   H2Y10854   5.618  -0.345   2.824  1.3571 -0.9060  5.4860
  106SAPE   C2310855   5.503   0.120   2.785  0.3820  1.0945 -0.0500
  106SAPE   H3R10856   5.506   0.011   2.807  0.1176  1.0907 -0.0240
  106SAPE   H3S10857   5.402   0.156   2.757 -0.0673  1.5303  1.9278
  106SAPE   C2410858   5.529   0.192   2.921  0.1621  0.2993 -0.3445
  106SAPE   H4R10859   5.531   0.298   2.889 -0.3521 -0.1619 -2.0283
  106SAPE   H4S10860   5.626   0.158   2.964  0.0394  1.4646  0.9055
  106SAPE   C2510861   5.414   0.171   3.019  0.8406 -0.2088 -0.2454
  106SAPE   H5R10862   5.312   0.174   2.977  0.4379  0.4239  0.7189
  106SAPE   C2610863   5.414   0.153   3.148  0.3148  0.3778 -0.9591
  106SAPE   H6R10864   5.316   0.144   3.198  1.2595 -3.3118  0.5359
  106SAPE   C2710865   5.525   0.138   3.252  0.0549  0.7552  0.4936
  106SAPE   H7R10866   5.524   0.219   3.329  3.1842  0.6290  0.8176
  106SAPE   H7S10867   5.627   0.161   3.214 -0.2993 -0.0702 -1.0051
  106SAPE   C2810868   5.535   0.005   3.313  0.3952  0.2390 -0.6953
  106SAPE   H8R10869   5.501  -0.073   3.244 -0.9761 -0.2411  0.4633
  106SAPE   C2910870   5.577  -0.033   3.436  1.1214  0.0406  0.0422
  106SAPE   H9R10871   5.586  -0.140   3.456  2.6558 -0.0541 -0.9704
  106SAPE  C21010872   5.617   0.057   3.545  0.1969 -0.4956 -0.3083
  106SAPE  H10R10873   5.528   0.093   3.602 -0.2761 -0.2255 -1.1947
  106SAPE  H10S10874   5.649   0.150   3.493  1.2464 -0.3369  0.5884
  106SAPE  C21110875   5.724   0.005   3.625 -0.4104 -0.0415  0.1717
  106SAPE  H11R10876   5.799  -0.046   3.563 -1.7282 -1.4782 -0.2934
  106SAPE  C21210877   5.733  -0.005   3.756 -0.5024  0.8956  0.4302
  106SAPE  H12R10878   5.818  -0.059   3.802 -0.4465 -0.1140 -0.7866
  106SAPE  C21310879   5.642   0.064   3.857 -0.4187 -0.0337  1.1810
  106SAPE  H13R10880   5.552   0.108   3.810 -0.6320 -3.0548 -1.5353
  106SAPE  H13S10881   5.698   0.139   3.917 -0.9909  0.4302  1.1442
  106SAPE  C21410882   5.598  -0.042   3.953  0.5227 -0.7099  1.0237
  106SAPE  H14R10883   5.512  -0.096   3.909  1.8475 -1.3586 -0.8849
  106SAPE  C21510884   5.649  -0.072   4.065 -0.7998  0.5293  0.0210
  106SAPE  H15R10885   5.586  -0.134   4.131 -0.1508 -1.1704 -0.8935
  106SAPE  C21610886   5.767  -0.000   4.127  0.5256 -0.7744  0.2626
  106SAPE  H16R10887   5.844   0.023   4.050  1.2488  1.9598  1.6888
  106SAPE  H16S10888   5.820  -0.071   4.194  1.5718 -1.5904 -1.3707
  106SAPE  C21710889   5.741   0.131   4.207 -0.4227 -0.4279  0.0778
  106SAPE  H17R10890   5.665   0.116   4.287  0.5775 -1.8221  0.8140
  106SAPE  H17S10891   5.709   0.204   4.130  0.6826  1.6432  1.5002
  106SAPE  C21810892   5.866   0.169   4.285  0.1370  0.0874 -0.5483
  106SAPE  H18R10893   5.953   0.160   4.216 -0.8414 -2.7466 -1.5402
  106SAPE  H18S10894   5.886   0.098   4.368  0.9393  0.5634 -0.3163
  106SAPE  C21910895   5.861   0.302   4.353  0.4847 -0.1671  0.4037
  106SAPE  H19R10896   5.809   0.298   4.451  0.8645  1.6277  0.6958
  106SAPE  H19S10897   5.807   0.375   4.290  1.7739  0.3691 -0.1045
  106SAPE  C22010898   5.996   0.366   4.387  0.2489 -0.1610 -0.0507
  106SAPE  H20R10899   6.067   0.396   4.306 -0.2636 -0.8994 -0.7867
  106SAPE  H20S10900   6.049   0.294   4.453  0.7699  1.7188  1.7164
  106SAPE  H20T10901   5.986   0.446   4.463  0.6931  0.8707 -1.0428
  106SAPE   C3310902   5.809  -0.308   2.914  0.4147  0.0015  0.6234
  106SAPE   H3X10903   5.916  -0.297   2.886  0.0302  1.1071 -0.4887
  106SAPE   H3Y10904   5.794  -0.389   2.990 -2.9162  0.9083  1.0593
  106SAPE   C3410905   5.767  -0.171   2.984  0.0066 -0.5320  0.0174
  106SAPE   H4X10906   5.665  -0.184   3.025  0.0074 -1.4876 -0.2507
  106SAPE   H4Y10907   5.765  -0.090   2.908  3.5167  0.3588  0.6737
  106SAPE   C3510908   5.844  -0.135   3.104 -0.2656  0.0688  0.6861
  106SAPE   H5X10909   5.806  -0.037   3.141 -0.9182 -0.2068  0.7739
  106SAPE   H5Y10910   5.950  -0.117   3.079 -0.8582  0.9135 -1.4493
  106SAPE   C3610911   5.825  -0.239   3.216  0.0404 -0.0738  0.2401
  106SAPE   H6X10912   5.851  -0.344   3.192 -3.5628 -1.4205  1.5261
  106SAPE   H6Y10913   5.715  -0.242   3.233  0.0158 -1.9285 -0.0650
  106SAPE   C3710914   5.898  -0.208   3.350  0.3806  0.6498  0.1452
  106SAPE   H7X10915   5.869  -0.106   3.383 -0.7777  0.3396  0.1229
  106SAPE   H7Y10916   6.008  -0.213   3.333  0.9193 -0.4545  3.1853
  106SAPE   C3810917   5.871  -0.308   3.465  0.1384  0.2339 -0.9379
  106SAPE   H8X10918   5.866  -0.413   3.428 -3.0030  1.1280 -3.5956
  106SAPE   H8Y10919   5.775  -0.291   3.519 -0.7803  1.1282 -2.7437
  106SAPE   C3910920   5.977  -0.295   3.581  0.2197  0.3080 -0.3208
  106SAPE   H9X10921   5.983  -0.185   3.593  0.1370  0.3557 -0.7314
  106SAPE   H9Y10922   6.077  -0.334   3.554  1.1692  1.5546  1.1738
  106SAPE  C31010923   5.937  -0.349   3.722  0.8183 -0.3733 -1.5939
  106SAPE  H10X10924   5.958  -0.457   3.735  1.5506  0.0118  1.2681
  106SAPE  H10Y10925   5.831  -0.333   3.750  1.9036 -0.6806  3.7183
  106SAPE  C31110926   6.026  -0.289   3.844  0.2318  0.1749  0.3114
  106SAPE  H11X10927   6.015  -0.178   3.844 -0.3079  0.1294  1.2841
  106SAPE  H11Y10928   6.135  -0.310   3.838  0.2405 -0.4309  2.0760
  106SAPE  C31210929   5.977  -0.340   3.977  0.2780 -0.3216 -0.6508
  106SAPE  H12X10930   5.993  -0.450   3.976 -0.4417 -0.4308 -0.5929
  106SAPE  H12Y10931   5.868  -0.323   3.969  0.5092  0.5736 -2.1250
  106SAPE  C31310932   6.041  -0.271   4.105 -0.0310  0.0010  0.0015
  106SAPE  H13X10933   6.026  -0.162   4.117 -2.6228 -0.4160  1.2236
  106SAPE  H13Y10934   6.152  -0.279   4.114 -0.2445 -1.0012  2.4222
  106SAPE  C31410935   5.984  -0.327   4.242  0.0834  0.2649  0.1545
  106SAPE  H14X10936   5.992  -0.436   4.220 -0.0777  0.7498 -2.7354
  106SAPE  H14Y10937   5.877  -0.296   4.238  0.5794  1.9652 -2.7515
  106SAPE  C31510938   6.067  -0.293   4.370  0.3637 -0.7455  0.4985
  106SAPE  H15X10939   6.170  -0.333   4.358  1.3248  1.5707  0.4724
  106SAPE  H15Y10940   6.019  -0.350   4.452 -0.4638  0.7689  1.1095
  106SAPE  C31610941   6.075  -0.143   4.408  0.0455  0.5183  0.6271
  106SAPE  H16X10942   5.972  -0.108   4.431 -0.8896 -0.9081 -1.1506
  106SAPE  H16Y10943   6.120  -0.079   4.329  0.7295  0.7258  1.1803
  106SAPE  C31710944   6.162  -0.119   4.531  0.2219 -0.3164 -0.2721
  106SAPE  H17X10945   6.254  -0.178   4.510  0.6867  0.6288 -0.9504
  106SAPE  H17Y10946   6.104  -0.169   4.611 -0.5318  0.8074 -0.1062
  106SAPE  C31810947   6.193   0.025   4.541  0.2271 -0.4783  0.4263
  106SAPE  H18X10948   6.103   0.084   4.567  1.0451  0.9539  0.0889
  106SAPE  H18Y10949   6.226   0.065   4.444  0.3225  0.5024  0.8562
  106SAPE  H18Z10950   6.278   0.049   4.609  0.4347  0.3431 -0.1135
  107SAPE     N10951   1.508   2.311   2.038 -0.5960 -0.0070  0.6624
  107SAPE   HN110952   1.531   2.293   2.138 -3.9325 -0.6249  1.4506
  107SAPE   HN210953   1.588   2.294   1.974 -0.7456  0.1202  0.4404
  107SAPE   HN310954   1.485   2.412   2.036  3.0313  0.9200 -0.6838
  107SAPE   C1210955   1.392   2.224   2.002 -0.4411 -0.3379  0.5665
  107SAPE  H12A10956   1.423   2.124   1.966  0.2588  0.3725 -0.8569
  107SAPE  H12B10957   1.332   2.267   1.919  0.2808 -1.5089 -0.5940
  107SAPE   C1110958   1.303   2.180   2.118 -0.5898 -0.5033  0.4623
  107SAPE  H11A10959   1.217   2.124   2.074  1.7714 -1.6812 -3.1000
  107SAPE  H11B10960   1.278   2.276   2.169  2.0787  0.4288  0.1825
  107SAPE     P10961   1.372   1.948   2.209 -0.2239 -0.1700 -0.5752
  107SAPE   O1310962   1.253   1.898   2.137  0.2080  0.0447 -0.3877
  107SAPE   O1410963   1.505   1.904   2.157  0.1984 -0.0195  0.2508
  107SAPE   O1210964   1.374   2.103   2.219  0.3530 -0.7570 -0.0432
  107SAPE   O1110965   1.360   1.898   2.357  0.8772 -0.4123  0.2039
  107SAPE    C110966   1.258   1.943   2.442  0.1856 -0.7631  0.1740
  107SAPE    HA10967   1.168   1.984   2.391 -0.0562 -0.2453  1.0077
  107SAPE    HB10968   1.223   1.855   2.500 -0.9525 -0.6705 -0.3470
  107SAPE    C210969   1.320   2.047   2.542  0.9416  0.5093  0.1399
  107SAPE    HS10970   1.334   2.133   2.474  0.7353  1.0509  0.7662
  107SAPE   O2110971   1.436   1.995   2.610  0.0600 -0.1413 -0.2445
  107SAPE   C2110972   1.554   2.045   2.567 -0.5875  0.8121  0.8722
  107SAPE   O2210973   1.570   2.135   2.487  0.4069  0.0557 -0.2542
  107SAPE   C2210974   1.674   1.976   2.637 -0.1563  0.3163  0.0120
  107SAPE   H2R10975   1.713   2.036   2.723  0.6984  0.1675 -0.2643
  107SAPE   H2S10976   1.649   1.877   2.681  1.8361 -0.4233 -0.4273
  107SAPE    C310977   1.211   2.098   2.647  0.4091  0.5629 -0.1658
  107SAPE    HX10978   1.175   2.005   2.696 -2.3021 -0.6261 -3.9585
  107SAPE    HY10979   1.123   2.130   2.587 -0.6831  1.0160  1.5995
  107SAPE   O3110980   1.263   2.196   2.738  0.3971  0.6896  0.5979
  107SAPE   C3110981   1.189   2.219   2.840 -0.2327 -0.0580  0.0845
  107SAPE   O3210982   1.073   2.191   2.859 -0.3531 -0.4626  0.7953
  107SAPE   C3210983   1.279   2.283   2.947 -0.3791  0.1280 -0.4218
  107SAPE   H2X10984   1.317   2.373   2.894  0.4924 -0.4472 -0.8113
  107SAPE   H2Y10985   1.369   2.221   2.969 -0.4009  0.0282 -0.6162
  107SAPE   C2310986   1.791   1.954   2.538 -0.5031  0.5766  0.2195
  107SAPE   H3R10987   1.834   2.047   2.494 -0.3997 -0.0308 -1.0190
  107SAPE   H3S10988   1.759   1.884   2.458  0.0552  1.1713 -0.5423
  107SAPE   C2410989   1.909   1.887   2.611  0.1643 -0.4000  0.2785
  107SAPE   H4R10990   1.928   1.940   2.707  0.3738  2.7242 -1.3374
  107SAPE   H4S10991   1.997   1.897   2.544 -0.3342 -2.0674 -0.6653
  107SAPE   C2510992   1.893   1.735   2.617 -0.1879  0.0418  0.8046
  107SAPE   H5R10993   1.874   1.692   2.518 -2.3190 -0.4495  1.3866
  107SAPE   C2610994   1.885   1.655   2.727 -0.3451  0.2093  0.7482
  107SAPE   H6R10995   1.879   1.545   2.718  0.3681  0.1079  1.3231
  107SAPE   C2710996   1.887   1.702   2.865  0.2603 -0.3214  0.3080
  107SAPE   H7R10997   1.786   1.702   2.911 -0.2092 -1.5260 -0.6759
  107SAPE   H7S10998   1.929   1.805   2.869  2.5475 -1.1873 -0.0907
  107SAPE   C2810999   1.966   1.619   2.956 -0.6032  0.8508  0.7149
  107SAPE   H8R11000   2.028   1.548   2.899 -3.9892 -0.4399 -1.6978
  107SAPE   C2911001   1.987   1.628   3.086 -0.1207 -1.0659  0.4481
  107SAPE   H9R11002   2.052   1.560   3.144  2.0920  1.6790  1.4623
  107SAPE  C21011003   1.921   1.734   3.164 -0.6693 -0.4734 -0.5080
  107SAPE  H10R11004   1.813   1.741   3.137 -1.2232 -0.1116  1.5992
  107SAPE  H10S11005   1.964   1.835   3.149 -0.9528  0.3382  3.2526
  107SAPE  C21111006   1.942   1.721   3.312  0.2279  0.9016 -0.0495
  107SAPE  H11R11007   1.893   1.637   3.361  0.7325 -0.0685 -1.1528
  107SAPE  C21211008   2.043   1.781   3.382  0.8353  0.0255 -0.2469
  107SAPE  H12R11009   2.047   1.766   3.491  0.4401  0.3187 -0.1893
  107SAPE  C21311010   2.142   1.872   3.321  0.2662  0.4333 -0.4364
  107SAPE  H13R11011   2.106   1.977   3.321  1.4105  0.8325 -0.2561
  107SAPE  H13S11012   2.155   1.845   3.214 -0.9521 -2.1500 -0.0181
  107SAPE  C21411013   2.275   1.878   3.395  0.6960  0.3125 -0.3633
  107SAPE  H14R11014   2.290   1.977   3.440 -2.4505 -0.4075  2.6595
  107SAPE  C21511015   2.354   1.771   3.418 -0.0209  0.3559 -0.0201
  107SAPE  H15R11016   2.443   1.793   3.479  0.7023  2.0726 -1.5873
  107SAPE  C21611017   2.348   1.625   3.380  0.8634 -0.3375 -0.4040
  107SAPE  H16R11018   2.266   1.605   3.307 -1.9531  1.4982  1.9970
  107SAPE  H16S11019   2.314   1.571   3.471 -1.9763  0.5725 -0.8017
  107SAPE  C21711020   2.482   1.578   3.333  0.8061  0.0223 -0.7037
  107SAPE  H17R11021   2.480   1.468   3.316 -0.3432 -0.1997  0.6768
  107SAPE  H17S11022   2.554   1.588   3.417  0.5393 -0.4150 -0.4176
  107SAPE  C21811023   2.536   1.637   3.207 -0.2071  0.0193 -0.4064
  107SAPE  H18R11024   2.601   1.721   3.239  0.1983 -0.9414  1.4140
  107SAPE  H18S11025   2.450   1.683   3.153  1.4730  1.1812 -2.1846
  107SAPE  C21911026   2.624   1.549   3.122 -0.1429 -0.0608  0.1100
  107SAPE  H19R11027   2.570   1.455   3.099 -0.1640 -0.0777  0.2283
  107SAPE  H19S11028   2.723   1.517   3.161 -0.1656 -2.3299 -1.5439
  107SAPE  C22011029   2.672   1.615   2.993  0.2647  0.2601 -0.1357
  107SAPE  H20R11030   2.589   1.613   2.918  0.4298  0.2189 -0.3180
  107SAPE  H20S11031   2.753   1.550   2.954 -0.4662 -2.1265  2.0663
  107SAPE  H20T11032   2.723   1.712   3.003  1.5113 -0.5216  1.5517
  107SAPE   C3311033   1.210   2.333   3.076  0.2279 -0.3477  0.2508
  107SAPE   H3X11034   1.103   2.354   3.060  0.2196  0.4381  1.2081
  107SAPE   H3Y11035   1.256   2.430   3.107 -2.8028  1.3084 -0.1136
  107SAPE   C3411036   1.221   2.222   3.189 -0.8508  0.1042  0.2897
  107SAPE   H4X11037   1.326   2.186   3.182 -0.7132  0.8356 -2.6580
  107SAPE   H4Y11038   1.157   2.137   3.158 -0.2030 -0.2738 -0.0472
  107SAPE   C3511039   1.200   2.279   3.328  0.0342  0.1606 -0.5362
  107SAPE   H5X11040   1.093   2.282   3.357 -0.0001 -1.7697 -0.3367
  107SAPE   H5Y11041   1.243   2.381   3.325  1.2650 -0.3487 -1.5304
  107SAPE   C3611042   1.265   2.196   3.440  0.1036 -0.1150  0.1553
  107SAPE   H6X11043   1.375   2.188   3.442  0.0131 -2.0479 -0.4276
  107SAPE   H6Y11044   1.240   2.090   3.418  0.1681 -0.7659  2.8221
  107SAPE   C3711045   1.218   2.227   3.584  0.0087 -0.2679  0.0997
  107SAPE   H7X11046   1.108   2.212   3.585  0.4560 -4.9399  0.9437
  107SAPE   H7Y11047   1.265   2.321   3.620  1.1668 -1.0211  0.5882
  107SAPE   C3811048   1.280   2.119   3.677  0.3287 -0.1531  0.8891
  107SAPE   H8X11049   1.386   2.094   3.652  0.6849  1.7380  0.3746
  107SAPE   H8Y11050   1.229   2.022   3.658  0.8218 -0.7560  2.4512
  107SAPE   C3911051   1.246   2.153   3.818 -0.3446  0.2336 -0.9152
  107SAPE   H9X11052   1.141   2.189   3.822  0.8299  4.0218  0.3865
  107SAPE   H9Y11053   1.309   2.234   3.861 -1.7717  0.7936  0.2091
  107SAPE  C31011054   1.258   2.030   3.916 -0.1731 -0.2310 -0.4206
  107SAPE  H10X11055   1.194   1.947   3.881  0.6295 -0.1848 -2.1154
  107SAPE  H10Y11056   1.216   2.058   4.014  0.6544 -1.2393  0.2502
  107SAPE  C31111057   1.402   1.976   3.923  0.0634 -0.3488  0.2565
  107SAPE  H11X11058   1.471   2.059   3.946  0.5253 -0.9970  1.3048
  107SAPE  H11Y11059   1.428   1.949   3.818 -1.4368  1.9222 -0.7755
  107SAPE  C31211060   1.427   1.854   4.016  1.0242  0.3898 -0.5414
  107SAPE  H12X11061   1.537   1.837   4.022  1.2140 -0.1291 -3.7451
  107SAPE  H12Y11062   1.398   1.758   3.968  0.9843 -0.7884  1.6981
  107SAPE  C31311063   1.360   1.859   4.150 -0.0408  0.1209  0.4087
  107SAPE  H13X11064   1.342   1.959   4.195  0.2472  0.3581  0.0065
  107SAPE  H13Y11065   1.432   1.814   4.221 -1.2033 -0.6663  1.1190
  107SAPE  C31411066   1.229   1.783   4.158  0.4118  0.2012  0.3056
  107SAPE  H14X11067   1.246   1.678   4.126  0.3638 -0.4543  2.3028
  107SAPE  H14Y11068   1.154   1.829   4.090 -1.8881 -1.0474  1.8723
  107SAPE  C31511069   1.165   1.759   4.302  0.6699 -0.0647 -0.7978
  107SAPE  H15X11070   1.250   1.716   4.359  0.4746  0.4761 -0.0935
  107SAPE  H15Y11071   1.075   1.695   4.290  0.0060  0.6395  0.2523
  107SAPE  C31611072   1.135   1.900   4.367 -0.4784 -0.3876 -0.2204
  107SAPE  H16X11073   1.233   1.951   4.383 -1.6497  0.9645  3.7525
  107SAPE  H16Y11074   1.087   1.883   4.466 -0.6904 -0.2771 -0.3035
  107SAPE  C31711075   1.043   1.995   4.287 -0.4358  0.1851  0.7438
  107SAPE  H17X11076   0.951   1.947   4.247  0.3024  1.5036 -2.9733
  107SAPE  H17Y11077   1.101   2.048   4.208 -0.7650  0.0725  0.4218
  107SAPE  C31811078   0.998   2.114   4.381 -0.9350 -1.2635 -0.0724
  107SAPE  H18X11079   0.952   2.201   4.329  3.8796  2.2344  0.8286
  107SAPE  H18Y11080   1.085   2.168   4.423 -0.4193  0.2200 -2.8358
  107SAPE  H18Z11081   0.934   2.075   4.463 -0.2548 -1.5207  0.3480
  108SAPE     N11082   6.815   3.214   2.147  0.3570 -0.1907 -0.3470
  108SAPE   HN111083   6.787   3.198   2.048 -1.8171 -0.3317  0.2471
  108SAPE   HN211084   6.733   3.199   2.209  0.6592 -1.0972 -0.1586
  108SAPE   HN311085   6.835   3.315   2.159  1.1772 -0.3136 -0.5924
  108SAPE   C1211086   6.935   3.128   2.197  0.5120 -0.9030  0.2279
  108SAPE  H12A11087   6.933   3.021   2.168  1.7348 -0.6975 -0.7232
  108SAPE  H12B11088   6.934   3.141   2.307  2.3074 -1.2067  0.3123
  108SAPE   C1111089   7.071   3.187   2.147  0.9716 -0.7957 -0.2215
  108SAPE  H11A11090   7.075   3.176   2.037 -0.1721  2.3496 -0.6702
  108SAPE  H11B11091   7.159   3.135   2.191  0.8925  0.5676  1.6567
  108SAPE     P11092   7.148   3.386   2.303 -0.6864  0.3009 -0.1052
  108SAPE   O1311093   7.288   3.348   2.280 -0.5243 -0.2436 -0.1534
  108SAPE   O1411094   7.122   3.527   2.320  0.6249 -0.8020  0.9681
  108SAPE   O1211095   7.066   3.327   2.180  0.1674  0.4885 -0.3696
  108SAPE   O1111096   7.091   3.296   2.422  0.1903  0.3047  0.3776
  108SAPE    C111097   7.151   3.321   2.548 -0.3910 -0.1441  0.4572
  108SAPE    HA11098   7.262   3.331   2.549 -0.4663  0.8791  0.3733
  108SAPE    HB11099   7.125   3.423   2.586  0.5167  0.9506 -1.6887
  108SAPE    C211100   7.101   3.203   2.642  0.2783  0.2153 -0.3513
  108SAPE    HS11101   6.991   3.187   2.645  0.3808 -0.3582  1.4059
  108SAPE   O2111102   7.163   3.212   2.778  0.0744  0.0088  0.4566
  108SAPE   C2111103   7.100   3.298   2.851  0.6104 -0.4323  0.9842
  108SAPE   O2211104   6.994   3.353   2.822  0.3936  0.4254 -0.0502
  108SAPE   C2211105   7.166   3.305   2.988 -0.1606  0.0340 -0.0120
  108SAPE   H2R11106   7.151   3.210   3.043  1.4482 -1.1918 -1.5767
  108SAPE   H2S11107   7.275   3.318   2.969 -0.4933  2.3684 -0.6397
  108SAPE    C311108   7.145   3.069   2.580  0.1543 -0.4099  0.1564
  108SAPE    HX11109   7.256   3.079   2.575  0.0742  0.7061  0.4112
  108SAPE    HY11110   7.098   3.058   2.480  1.0395 -0.8431 -0.2282
  108SAPE   O3111111   7.097   2.963   2.663 -0.0390  0.1012  0.2360
  108SAPE   C3111112   7.155   2.843   2.620  0.1026 -0.3832 -0.2234
  108SAPE   O3211113   7.229   2.835   2.526  0.9785 -0.0187  0.0613
  108SAPE   C3211114   7.116   2.721   2.710 -0.3218  0.7308  0.1148
  108SAPE   H2X11115   7.207   2.701   2.770 -0.6419  0.0033  0.3593
  108SAPE   H2Y11116   7.104   2.630   2.648 -1.6866  0.5481  0.6087
  108SAPE   C2311117   7.111   3.425   3.075 -0.7599  0.5828  0.1125
  108SAPE   H3R11118   7.098   3.511   3.007  2.6032  1.1881  0.0851
  108SAPE   H3S11119   7.201   3.455   3.133 -0.0021 -0.4201 -0.4983
  108SAPE   C2411120   6.995   3.390   3.168 -0.3829  0.0528 -0.0546
  108SAPE   H4R11121   6.988   3.474   3.241 -1.9557 -0.8990  0.9405
  108SAPE   H4S11122   7.031   3.315   3.242 -0.2724  0.7895  0.6541
  108SAPE   C2511123   6.862   3.351   3.110  0.2916  0.2974 -0.1240
  108SAPE   H5R11124   6.846   3.364   3.002 -1.0426 -2.1721 -0.2965
  108SAPE   C2611125   6.760   3.292   3.179  0.1831 -0.1857 -0.2066
  108SAPE   H6R11126   6.667   3.270   3.123  0.2006 -0.8105 -0.0016
  108SAPE   C2711127   6.760   3.249   3.323  0.4134  0.2785  0.2894
  108SAPE   H7R11128   6.833   3.165   3.331 -0.3484 -0.3485  0.9180
  108SAPE   H7S11129   6.663   3.202   3.350  0.2819  0.7979  0.7390
  108SAPE   C2811130   6.795   3.361   3.425  0.5886  0.4043 -0.2200
  108SAPE   H8R11131   6.745   3.458   3.405  0.3693  0.0717 -1.3830
  108SAPE   C2911132   6.884   3.354   3.527  0.6268  0.9651  0.0890
  108SAPE   H9R11133   6.897   3.444   3.588 -1.0400  0.2286  1.6171
  108SAPE  C21011134   6.964   3.231   3.565  0.2462 -0.3647  0.4614
  108SAPE  H10R11135   7.003   3.179   3.474 -2.5004 -1.4574 -0.1802
  108SAPE  H10S11136   6.892   3.159   3.610 -2.8595  1.4832 -1.2064
  108SAPE  C21111137   7.072   3.269   3.657 -0.3079  0.9340  0.2833
  108SAPE  H11R11138   7.149   3.322   3.599 -1.7949  1.2784 -1.4489
  108SAPE  C21211139   7.071   3.270   3.797 -0.1350  0.1191 -0.0389
  108SAPE  H12R11140   7.156   3.313   3.853 -1.5354  1.0818  1.4343
  108SAPE  C21311141   6.965   3.214   3.885  0.2411  0.3434 -0.7786
  108SAPE  H13R11142   6.863   3.205   3.841  0.5351 -0.0882 -1.3867
  108SAPE  H13S11143   6.955   3.290   3.965  1.1018 -0.6638  0.3314
  108SAPE  C21411144   7.004   3.085   3.944 -0.7835 -0.4506 -0.2160
  108SAPE  H14R11145   7.030   3.014   3.864 -0.6263 -1.1187  0.4105
  108SAPE  C21511146   7.026   3.057   4.074 -0.4674  0.0858 -0.1351
  108SAPE  H15R11147   7.047   2.954   4.103  0.0591  0.2637  0.1228
  108SAPE  C21611148   7.010   3.151   4.190  0.1723 -0.5580  0.1096
  108SAPE  H16R11149   6.963   3.248   4.166  0.5945 -0.7522 -1.6865
  108SAPE  H16S11150   7.110   3.168   4.235  0.4879  3.4271 -1.7193
  108SAPE  C21711151   6.931   3.093   4.307  0.2204  0.7948  0.8649
  108SAPE  H17R11152   6.923   3.152   4.402  1.1517 -1.1936  2.2572
  108SAPE  H17S11153   6.992   3.004   4.332 -1.7123 -0.5979  0.7580
  108SAPE  C21811154   6.794   3.053   4.259  0.4203 -0.4246 -0.1771
  108SAPE  H18R11155   6.792   2.966   4.189 -0.1967 -0.4819 -0.0972
  108SAPE  H18S11156   6.745   3.143   4.218  1.5710  0.7803  0.9924
  108SAPE  C21911157   6.710   2.982   4.367  0.0735 -0.0428  0.3022
  108SAPE  H19R11158   6.731   3.042   4.459 -0.7317 -0.3295  0.6785
  108SAPE  H19S11159   6.754   2.881   4.378  0.3338 -0.0615 -0.8210
  108SAPE  C22011160   6.565   2.959   4.328  0.3822  0.7391 -0.4788
  108SAPE  H20R11161   6.501   3.045   4.359  1.5591  0.8770  1.7784
  108SAPE  H20S11162   6.529   2.878   4.394 -0.0369  1.6322  0.4257
  108SAPE  H20T11163   6.549   2.935   4.221 -0.0246 -1.7004  0.0864
  108SAPE   C3311164   6.998   2.745   2.801  0.6771 -0.0234  0.1439
  108SAPE   H3X11165   6.972   2.644   2.840  0.1265  0.8498  2.1538
  108SAPE   H3Y11166   6.908   2.778   2.745 -0.1115  1.0184  1.9483
  108SAPE   C3411167   7.007   2.848   2.914  0.3368  0.6256  0.2088
  108SAPE   H4X11168   6.994   2.951   2.876 -0.6272  0.8168  1.0232
  108SAPE   H4Y11169   7.103   2.831   2.967  0.3115 -1.1134 -0.2198
  108SAPE   C3511170   6.885   2.834   3.011 -0.4801  0.1343  0.4991
  108SAPE   H5X11171   6.786   2.853   2.962 -0.8784 -0.4511  1.0650
  108SAPE   H5Y11172   6.898   2.733   3.054  1.4853  0.0552 -0.1840
  108SAPE   C3611173   6.897   2.914   3.146 -0.3336  1.0717  0.1941
  108SAPE   H6X11174   6.870   3.019   3.118 -0.7817  0.9747  0.2531
  108SAPE   H6Y11175   6.999   2.907   3.187  0.2151 -1.2488 -1.3872
  108SAPE   C3711176   6.797   2.868   3.261  0.2217  0.0386  0.2237
  108SAPE   H7X11177   6.833   2.925   3.350  1.2711  0.7852 -0.6399
  108SAPE   H7Y11178   6.822   2.764   3.289 -0.2762 -0.0798  0.2302
  108SAPE   C3811179   6.652   2.888   3.245  1.1968  0.2681  0.8146
  108SAPE   H8X11180   6.609   2.845   3.152  2.0625  1.4632 -0.1838
  108SAPE   H8Y11181   6.627   2.996   3.234 -1.6239 -0.3257  0.8372
  108SAPE   C3911182   6.573   2.832   3.357  0.0952 -0.4145  0.0761
  108SAPE   H9X11183   6.612   2.729   3.373 -0.5257 -0.6433  0.1330
  108SAPE   H9Y11184   6.464   2.822   3.343 -0.0727 -0.0650  1.0341
  108SAPE  C31011185   6.581   2.900   3.491 -0.7472  0.0215 -0.6639
  108SAPE  H10X11186   6.680   2.950   3.501 -0.4395 -0.5688 -0.7123
  108SAPE  H10Y11187   6.572   2.839   3.583  1.0970 -0.8264 -0.9884
  108SAPE  C31111188   6.477   3.007   3.511  0.3017 -1.4663  0.2540
  108SAPE  H11X11189   6.388   2.945   3.532  0.6043 -1.0664  3.1091
  108SAPE  H11Y11190   6.460   3.064   3.417  0.0752  0.3138  1.3379
  108SAPE  C31211191   6.505   3.101   3.630 -0.1307 -0.0033  0.0977
  108SAPE  H12X11192   6.411   3.161   3.621 -1.4532 -2.0571 -0.3197
  108SAPE  H12Y11193   6.594   3.164   3.607 -0.6685  1.0279  0.7470
  108SAPE  C31311194   6.525   3.042   3.772  0.2422 -0.3225  0.1418
  108SAPE  H13X11195   6.535   3.132   3.835  1.1094  0.6126 -1.2733
  108SAPE  H13Y11196   6.616   2.978   3.774  0.3837 -0.4192 -3.1789
  108SAPE  C31411197   6.402   2.963   3.813  0.4580 -0.1951 -0.7854
  108SAPE  H14X11198   6.387   2.866   3.761 -2.6710 -0.0320 -0.3642
  108SAPE  H14Y11199   6.310   3.021   3.789  1.2413  2.4659  2.0661
  108SAPE  C31511200   6.397   2.947   3.967  0.7921 -0.0235  0.0344
  108SAPE  H15X11201   6.501   2.950   4.007 -0.0415 -0.6172  2.4751
  108SAPE  H15Y11202   6.358   2.844   3.982 -0.7594  0.2697 -1.6197
  108SAPE  C31611203   6.304   3.047   4.032 -0.6529 -0.1061 -0.3569
  108SAPE  H16X11204   6.325   3.153   4.003  0.1925 -0.2416 -0.2708
  108SAPE  H16Y11205   6.319   3.038   4.142  1.1032 -2.1133 -0.7017
  108SAPE  C31711206   6.160   3.011   3.998 -0.2008  0.0630 -0.3103
  108SAPE  H17X11207   6.131   2.920   4.056 -0.3072  0.4471  0.2499
  108SAPE  H17Y11208   6.154   2.988   3.889 -1.8155 -3.1448  0.3235
  108SAPE  C31811209   6.058   3.117   4.036  0.0056  0.2932 -0.3569
  108SAPE  H18X11210   6.055   3.119   4.147  0.8014 -0.1207 -0.3267
  108SAPE  H18Y11211   5.954   3.088   4.011 -0.6228  1.6162  0.5931
  108SAPE  H18Z11212   6.081   3.218   3.994  3.6257 -0.1178  0.3616
  109SAPE     N11213   4.345   5.026   2.086 -0.0486 -0.4454 -0.3448
  109SAPE   HN111214   4.372   5.108   2.028 -2.6427 -0.4012 -1.6574
  109SAPE   HN211215   4.351   5.054   2.185  0.6699 -0.3443 -0.4114
  109SAPE   HN311216   4.408   4.947   2.061  0.9531  0.4476 -0.7117
  109SAPE   C1211217   4.205   4.994   2.040 -0.1116  0.0746 -0.7394
  109SAPE  H12A11218   4.162   4.911   2.100  0.7694  1.7078  2.3573
  109SAPE  H12B11219   4.202   4.954   1.936  0.3709  1.1375 -1.1773
  109SAPE   C1111220   4.115   5.113   2.053  0.2883 -0.0189 -0.1951
  109SAPE  H11A11221   4.007   5.093   2.032  0.1045 -1.2648  1.6902
  109SAPE  H11B11222   4.143   5.193   1.982  2.2471  0.8630  1.4593
  109SAPE     P11223   4.001   5.162   2.299 -0.4251  0.0288 -0.0849
  109SAPE   O1311224   4.063   5.218   2.418  0.1079 -0.0242  0.0730
  109SAPE   O1411225   3.888   5.227   2.237 -0.0477 -0.1575 -0.3577
  109SAPE   O1211226   4.116   5.158   2.195 -0.3499 -0.5773  0.6561
  109SAPE   O1111227   3.973   5.008   2.323 -0.1410  0.9191  0.1348
  109SAPE    C111228   4.053   4.918   2.401  0.1952 -0.0782 -0.0231
  109SAPE    HA11229   4.113   4.855   2.331 -0.7958 -1.9356  0.7409
  109SAPE    HB11230   4.128   4.981   2.454  1.1002  0.8267 -2.2379
  109SAPE    C211231   3.969   4.823   2.478  0.5461  0.1779 -0.1638
  109SAPE    HS11232   3.909   4.770   2.402 -1.8016  1.2764  0.8049
  109SAPE   O2111233   3.884   4.888   2.575  0.8661  0.1345  0.1932
  109SAPE   C2111234   3.756   4.846   2.577  0.8214 -1.0020 -0.2216
  109SAPE   O2211235   3.713   4.746   2.527 -0.3209 -0.1264 -0.3065
  109SAPE   C2211236   3.672   4.940   2.664 -0.0305 -0.3719  0.1938
  109SAPE   H2R11237   3.738   5.006   2.723 -0.9724  0.6999  0.0708
  109SAPE   H2S11238   3.607   5.008   2.605 -0.9138  1.5148  3.1332
  109SAPE    C311239   4.061   4.728   2.558  0.1942  0.5575 -0.2420
  109SAPE    HX11240   4.132   4.772   2.631 -1.1819 -0.8384  2.0561
  109SAPE    HY11241   4.120   4.683   2.476  0.4377  0.7191 -0.1554
  109SAPE   O3111242   3.984   4.620   2.622  0.1908 -0.1134  0.9736
  109SAPE   C3111243   3.940   4.525   2.542  0.2071  0.5080 -0.4338
  109SAPE   O3211244   3.949   4.518   2.421  0.1345 -0.3286  0.4301
  109SAPE   C3211245   3.865   4.419   2.630  0.1845 -0.2048  0.3890
  109SAPE   H2X11246   3.920   4.327   2.602  2.2339  1.6265 -1.9965
  109SAPE   H2Y11247   3.761   4.398   2.595  0.3077 -0.4366  0.1547
  109SAPE   C2311248   3.582   4.871   2.772 -0.8015 -0.0594  0.3983
  109SAPE   H3R11249   3.645   4.849   2.861  1.6220  0.6299 -1.0526
  109SAPE   H3S11250   3.540   4.777   2.730  0.2338 -0.6782  0.6841
  109SAPE   C2411251   3.467   4.968   2.824 -0.4934 -0.1286 -0.4635
  109SAPE   H4R11252   3.414   4.917   2.907  1.0813 -2.5532 -0.8465
  109SAPE   H4S11253   3.401   4.981   2.736 -2.8195 -0.7127  1.0954
  109SAPE   C2511254   3.523   5.092   2.883 -0.2588  0.0423  0.2516
  109SAPE   H5R11255   3.609   5.069   2.948  1.0984 -1.3726 -1.9274
  109SAPE   C2611256   3.470   5.210   2.891 -0.5358  0.2722  0.7824
  109SAPE   H6R11257   3.521   5.290   2.947  2.0465  0.8731 -2.1861
  109SAPE   C2711258   3.334   5.241   2.835 -0.0976 -0.1595  0.6885
  109SAPE   H7R11259   3.256   5.244   2.913 -0.0820 -1.4406  0.7758
  109SAPE   H7S11260   3.304   5.161   2.764  0.3999  0.8666 -0.7197
  109SAPE   C2811261   3.354   5.367   2.751 -0.1208 -0.6239  0.0662
  109SAPE   H8R11262   3.449   5.422   2.753 -0.5497  0.1185  0.5783
  109SAPE   C2911263   3.265   5.427   2.668 -0.2856 -0.4870 -0.0820
  109SAPE   H9R11264   3.283   5.520   2.612  0.2144 -0.4993  0.0546
  109SAPE  C21011265   3.134   5.369   2.621  0.8583  1.0149  0.0192
  109SAPE  H10R11266   3.117   5.273   2.674 -2.1933  2.0759  1.1987
  109SAPE  H10S11267   3.125   5.341   2.514 -0.8358  0.2576  0.3245
  109SAPE  C21111268   3.029   5.468   2.662  0.1011 -0.2123  0.8957
  109SAPE  H11R11269   3.024   5.550   2.589 -1.6827  0.3998  1.6347
  109SAPE  C21211270   2.967   5.486   2.780  0.6192 -0.6566 -0.1579
  109SAPE  H12R11271   2.884   5.557   2.793 -1.4702 -2.8598 -0.6606
  109SAPE  C21311272   2.972   5.391   2.896 -0.4043 -0.6244 -0.5136
  109SAPE  H13R11273   3.031   5.301   2.867  1.0427  0.1887 -0.1861
  109SAPE  H13S11274   2.869   5.361   2.925  0.4140 -0.6414  2.8283
  109SAPE  C21411275   3.039   5.448   3.020  0.0775 -0.7828  0.2206
  109SAPE  H14R11276   3.058   5.556   3.018  0.1062 -0.8003 -1.0504
  109SAPE  C21511277   3.080   5.384   3.128 -0.2317  0.2996 -0.4781
  109SAPE  H15R11278   3.126   5.440   3.211  0.8494 -0.0849 -0.8003
  109SAPE  C21611279   3.064   5.236   3.150 -0.2740 -0.2653  0.2479
  109SAPE  H16R11280   3.109   5.174   3.070  0.0628 -2.0218  1.7218
  109SAPE  H16S11281   2.955   5.221   3.165 -0.5596  1.9920  0.8180
  109SAPE  C21711282   3.129   5.178   3.278  0.2575  0.4631 -0.0528
  109SAPE  H17R11283   3.238   5.201   3.275  0.3891  0.3467  2.1354
  109SAPE  H17S11284   3.118   5.067   3.273 -0.4123  0.4466  1.2487
  109SAPE  C21811285   3.076   5.239   3.409 -0.4781 -0.2866  0.5327
  109SAPE  H18R11286   2.968   5.212   3.413 -0.1898 -1.4205  3.7464
  109SAPE  H18S11287   3.085   5.349   3.415  2.0274 -0.5037  2.3092
  109SAPE  C21911288   3.148   5.173   3.525 -0.6708  0.5013 -0.0248
  109SAPE  H19R11289   3.259   5.171   3.521 -0.5832 -3.8218 -2.3319
  109SAPE  H19S11290   3.128   5.063   3.520  0.9043  0.2421 -2.5975
  109SAPE  C22011291   3.090   5.231   3.652  0.6332  0.2125 -0.5630
  109SAPE  H20R11292   3.123   5.166   3.736 -2.5918 -1.7164 -0.5991
  109SAPE  H20S11293   2.979   5.225   3.644  0.5483 -0.9869  0.9914
  109SAPE  H20T11294   3.117   5.337   3.673 -1.3093  1.2022 -2.6212
  109SAPE   C3311295   3.875   4.427   2.786  0.2741  0.0666  0.7051
  109SAPE   H3X11296   3.975   4.454   2.827 -0.2386 -0.0303  2.0859
  109SAPE   H3Y11297   3.844   4.328   2.827 -3.3724  0.0009 -1.7307
  109SAPE   C3411298   3.771   4.530   2.831  0.1193  0.8378 -0.0971
  109SAPE   H4X11299   3.668   4.499   2.803  0.0403  2.1076 -1.3594
  109SAPE   H4Y11300   3.787   4.625   2.775 -2.1117  1.9666  1.0305
  109SAPE   C3511301   3.786   4.565   2.977  0.6654 -0.0648 -0.5240
  109SAPE   H5X11302   3.725   4.655   2.997  0.6832 -0.0169 -0.6900
  109SAPE   H5Y11303   3.897   4.577   2.986  0.7934  0.1846 -2.1682
  109SAPE   C3611304   3.751   4.452   3.076  0.0101  0.0301 -0.4451
  109SAPE   H6X11305   3.828   4.374   3.059  1.6989  1.6267 -0.5067
  109SAPE   H6Y11306   3.653   4.401   3.065  0.0035  0.0508 -0.4817
  109SAPE   C3711307   3.760   4.498   3.226  0.3888  0.4446 -0.2700
  109SAPE   H7X11308   3.709   4.597   3.223 -1.2016 -0.3485 -0.8301
  109SAPE   H7Y11309   3.863   4.510   3.264 -0.1099 -3.2962  2.8500
  109SAPE   C3811310   3.690   4.402   3.323  0.0200  0.6658 -0.1675
  109SAPE   H8X11311   3.724   4.297   3.316  1.2102  1.1143 -1.5573
  109SAPE   H8Y11312   3.580   4.402   3.306 -0.0506  0.0596  0.2703
  109SAPE   C3911313   3.705   4.444   3.474  0.2669  0.0107 -0.5939
  109SAPE   H9X11314   3.622   4.394   3.530 -0.1560 -1.0855 -2.1337
  109SAPE   H9Y11315   3.692   4.552   3.492 -2.5058 -0.1451 -1.1958
  109SAPE  C31011316   3.841   4.384   3.536  0.7147  0.6154 -0.1402
  109SAPE  H10X11317   3.931   4.424   3.484  3.1945 -3.6287  0.3981
  109SAPE  H10Y11318   3.836   4.276   3.513  0.8856  0.6648 -0.4133
  109SAPE  C31111319   3.855   4.399   3.684 -0.2087 -0.4227 -0.4965
  109SAPE  H11X11320   3.873   4.506   3.706 -0.7341  0.1366 -2.5408
  109SAPE  H11Y11321   3.945   4.342   3.714 -0.3121 -0.2704  0.1197
  109SAPE  C31211322   3.733   4.338   3.764  0.1456 -0.2491 -0.5411
  109SAPE  H12X11323   3.683   4.254   3.712 -2.0191 -0.4590  1.6721
  109SAPE  H12Y11324   3.653   4.416   3.764  2.0322  1.8241  0.9703
  109SAPE  C31311325   3.754   4.296   3.913  0.1672 -0.1211 -0.1236
  109SAPE  H13X11326   3.825   4.363   3.967 -2.1819  1.1958  1.5241
  109SAPE  H13Y11327   3.795   4.193   3.915 -2.6178 -1.3214  0.8078
  109SAPE  C31411328   3.621   4.297   3.995  0.1090  0.0269  0.4344
  109SAPE  H14X11329   3.551   4.228   3.944 -0.4502  0.4288  0.6452
  109SAPE  H14Y11330   3.573   4.397   3.995 -1.5412 -0.6281  3.3585
  109SAPE  C31511331   3.651   4.255   4.143  0.5274 -0.3611 -0.9031
  109SAPE  H15X11332   3.697   4.154   4.141  2.1753  0.1354  2.8527
  109SAPE  H15Y11333   3.556   4.247   4.199  0.0754  0.2871 -1.5553
  109SAPE  C31611334   3.731   4.364   4.222  0.1852  0.7220 -0.1969
  109SAPE  H16X11335   3.677   4.460   4.218 -2.3281 -0.6397 -1.2275
  109SAPE  H16Y11336   3.825   4.386   4.166 -0.0254  1.2333 -0.3522
  109SAPE  C31711337   3.766   4.311   4.360 -0.0458 -0.2796  0.2875
  109SAPE  H17X11338   3.854   4.243   4.363  1.1663  1.2328  2.2333
  109SAPE  H17Y11339   3.674   4.263   4.400  0.1998 -0.3896  0.7266
  109SAPE  C31811340   3.799   4.440   4.444  0.4291  0.0209 -0.1073
  109SAPE  H18X11341   3.856   4.510   4.379 -2.1145  2.3555 -0.0187
  109SAPE  H18Y11342   3.849   4.396   4.532 -0.1434  1.2307  0.8575
  109SAPE  H18Z11343   3.708   4.494   4.480  0.1624 -1.8276  2.1850
  110SAPE     N11344   2.078   2.743   1.836  0.0955  0.7068  0.0198
  110SAPE   HN111345   2.053   2.806   1.757  0.4812  0.9486  0.0849
  110SAPE   HN211346   1.985   2.757   1.880 -0.6009 -3.3728  0.1656
  110SAPE   HN311347   2.152   2.785   1.897  0.3863 -1.0632  0.9651
  110SAPE   C1211348   2.099   2.605   1.790  0.5463  1.1268  1.5323
  110SAPE  H12A11349   2.172   2.594   1.707 -1.0193  1.9174  0.0016
  110SAPE  H12B11350   2.003   2.574   1.744  2.7024 -0.9865 -2.0348
  110SAPE   C1111351   2.134   2.509   1.912  0.2815  0.5101 -0.0485
  110SAPE  H11A11352   2.144   2.404   1.879 -1.5728 -0.6886  2.8881
  110SAPE  H11B11353   2.047   2.517   1.979  1.6850 -1.5557  2.1553
  110SAPE     P11354   2.259   2.647   2.101 -0.1257 -0.1410 -1.0871
  110SAPE   O1311355   2.398   2.651   2.147 -0.1263 -0.6709  0.4171
  110SAPE   O1411356   2.200   2.779   2.072  1.4128  0.6955  0.1175
  110SAPE   O1211357   2.252   2.543   1.976  0.6272 -0.0580 -0.4179
  110SAPE   O1111358   2.179   2.583   2.219  0.5767  0.5890 -0.0232
  110SAPE    C111359   2.231   2.469   2.294 -0.5551 -0.1135 -0.2942
  110SAPE    HA11360   2.298   2.403   2.236 -0.1799 -0.0508  0.0617
  110SAPE    HB11361   2.285   2.503   2.385 -1.4186 -0.7818  0.5014
  110SAPE    C211362   2.121   2.377   2.351 -0.0359  0.0467  0.1784
  110SAPE    HS11363   2.067   2.333   2.264  0.5293  1.1361 -0.7624
  110SAPE   O2111364   2.047   2.447   2.443 -0.0192 -0.1297 -0.3717
  110SAPE   C2111365   1.926   2.391   2.465 -0.1066  0.3905  0.2039
  110SAPE   O2211366   1.889   2.285   2.412  0.5956 -0.4144 -0.0559
  110SAPE   C2211367   1.852   2.486   2.560 -0.3570  0.1076 -0.9996
  110SAPE   H2R11368   1.861   2.580   2.501  1.9394  0.2176 -0.5806
  110SAPE   H2S11369   1.743   2.466   2.563 -0.4226  0.4585  1.5568
  110SAPE    C311370   2.190   2.252   2.418  0.2255 -0.5025 -0.3379
  110SAPE    HX11371   2.106   2.189   2.456 -0.4797  1.0543  0.8030
  110SAPE    HY11372   2.254   2.198   2.345 -0.0311 -0.9110 -0.2659
  110SAPE   O3111373   2.256   2.293   2.542  0.3995  0.1303 -0.3984
  110SAPE   C3111374   2.389   2.279   2.547  0.3281  0.2184 -0.3478
  110SAPE   O3211375   2.461   2.249   2.452  0.2342  0.6434 -0.3953
  110SAPE   C3211376   2.441   2.305   2.686 -0.6389  0.4583 -0.7982
  110SAPE   H2X11377   2.522   2.231   2.699  0.5483  1.8144 -0.2909
  110SAPE   H2Y11378   2.362   2.273   2.757  1.0136 -1.7747  0.1336
  110SAPE   C2311379   1.912   2.485   2.702  0.4401  0.6395 -0.2416
  110SAPE   H3R11380   1.864   2.562   2.765  0.4113 -0.4658  1.1259
  110SAPE   H3S11381   2.022   2.501   2.711  0.6555 -0.9067  0.2521
  110SAPE   C2411382   1.887   2.355   2.783 -0.5398  0.3745  0.6838
  110SAPE   H4R11383   1.931   2.380   2.882  1.0753  1.2854 -0.2209
  110SAPE   H4S11384   1.953   2.273   2.748 -1.1680 -0.4513  1.3842
  110SAPE   C2511385   1.748   2.298   2.800  0.4025  0.1868 -0.2171
  110SAPE   H5R11386   1.689   2.282   2.709 -2.2705  1.2991  1.1803
  110SAPE   C2611387   1.696   2.249   2.914 -0.0924 -0.7105  0.3797
  110SAPE   H6R11388   1.590   2.222   2.923 -0.0514 -0.9274  0.2055
  110SAPE   C2711389   1.765   2.243   3.048  1.3195  0.1785  0.3552
  110SAPE   H7R11390   1.720   2.330   3.101 -0.6656  0.2215 -1.2921
  110SAPE   H7S11391   1.872   2.266   3.030  1.1813 -0.5118 -1.6527
  110SAPE   C2811392   1.739   2.108   3.110  0.1831 -0.1209  0.0670
  110SAPE   H8R11393   1.715   2.025   3.041  0.3918 -0.4121  0.3450
  110SAPE   C2911394   1.732   2.085   3.245 -0.1228 -0.5806 -0.4134
  110SAPE   H9R11395   1.711   1.979   3.266 -2.6354  0.0289  0.5365
  110SAPE  C21011396   1.750   2.173   3.362  0.4318 -0.3625  0.1237
  110SAPE  H10R11397   1.703   2.272   3.346  1.5037  0.3796  1.4274
  110SAPE  H10S11398   1.860   2.178   3.377  0.4336 -1.5132  0.5977
  110SAPE  C21111399   1.679   2.123   3.488  0.1105 -0.0622 -0.3117
  110SAPE  H11R11400   1.580   2.079   3.469  0.4876 -0.3901 -1.6255
  110SAPE  C21211401   1.721   2.105   3.614  0.2661 -0.1129 -0.4581
  110SAPE  H12R11402   1.653   2.062   3.689  2.3409 -1.8354  0.5258
  110SAPE  C21311403   1.841   2.168   3.676 -0.4207  0.0364  0.1471
  110SAPE  H13R11404   1.800   2.224   3.763  1.8614  0.2199  1.1806
  110SAPE  H13S11405   1.884   2.237   3.599 -1.2157 -0.2116 -0.5379
  110SAPE  C21411406   1.941   2.069   3.724 -0.0907 -0.3754 -0.5452
  110SAPE  H14R11407   1.938   1.967   3.683 -0.3393 -0.4165 -0.4274
  110SAPE  C21511408   2.042   2.093   3.811  0.4109 -0.0866 -0.4864
  110SAPE  H15R11409   2.105   2.006   3.834 -0.3332 -0.2180  1.1823
  110SAPE  C21611410   2.077   2.232   3.864 -0.3548 -0.3739  0.6472
  110SAPE  H16R11411   1.985   2.292   3.877 -0.0436 -0.0876  1.6168
  110SAPE  H16S11412   2.148   2.288   3.799 -2.9578  1.6161 -0.6718
  110SAPE  C21711413   2.138   2.204   4.007 -0.2105  0.2962 -0.5182
  110SAPE  H17R11414   2.221   2.134   3.987  0.5671  0.9121  0.4397
  110SAPE  H17S11415   2.070   2.156   4.081 -0.5814  1.3812 -0.1275
  110SAPE  C21811416   2.195   2.333   4.072 -0.9052  0.0436  0.2177
  110SAPE  H18R11417   2.109   2.396   4.103 -1.8472 -0.6741 -0.8807
  110SAPE  H18S11418   2.248   2.400   4.001 -1.1211 -1.5539 -1.5062
  110SAPE  C21911419   2.287   2.304   4.200 -0.0840  0.5396 -0.0512
  110SAPE  H19R11420   2.289   2.404   4.249 -1.2034  1.1081 -1.1083
  110SAPE  H19S11421   2.391   2.275   4.175 -0.0506 -0.1399  0.8228
  110SAPE  C22011422   2.219   2.197   4.284 -0.4516  0.3697 -0.8253
  110SAPE  H20R11423   2.214   2.098   4.235 -0.2973 -1.0927  1.8911
  110SAPE  H20S11424   2.120   2.232   4.322  0.2484  2.0004 -0.3949
  110SAPE  H20T11425   2.272   2.178   4.380 -3.1148 -0.8994  0.5132
  110SAPE   C3311426   2.488   2.455   2.705  0.0418 -0.2387  0.0695
  110SAPE   H3X11427   2.532   2.498   2.613  0.5120  0.0524  0.4234
  110SAPE   H3Y11428   2.571   2.465   2.779 -1.9894  0.8195  2.3535
  110SAPE   C3411429   2.379   2.542   2.771  0.3749  0.0937 -0.2544
  110SAPE   H4X11430   2.311   2.493   2.843  3.8233 -1.3296  2.3219
  110SAPE   H4Y11431   2.313   2.574   2.687 -1.6104 -1.7256  0.5405
  110SAPE   C3511432   2.424   2.684   2.820 -0.3729  0.7432 -0.1094
  110SAPE   H5X11433   2.340   2.751   2.791 -0.6863  0.3792 -0.0576
  110SAPE   H5Y11434   2.515   2.712   2.763 -0.2644 -0.9330 -0.8170
  110SAPE   C3611435   2.447   2.702   2.970 -0.1448 -0.5377 -0.0371
  110SAPE   H6X11436   2.370   2.653   3.033 -1.0691 -0.8907 -1.4115
  110SAPE   H6Y11437   2.454   2.810   2.995  0.9928 -0.5774 -0.1406
  110SAPE   C3711438   2.589   2.649   3.023 -0.4775 -0.1878 -0.0078
  110SAPE   H7X11439   2.670   2.718   2.991 -1.0358  0.2865 -0.4056
  110SAPE   H7Y11440   2.613   2.547   2.986 -2.9552 -0.9119  0.2549
  110SAPE   C3811441   2.596   2.668   3.175 -0.4461  0.3192 -0.7488
  110SAPE   H8X11442   2.532   2.592   3.225  0.9106 -0.6449 -0.4077
  110SAPE   H8Y11443   2.563   2.770   3.204  1.3349  0.6377  0.2940
  110SAPE   C3911444   2.743   2.647   3.225  0.0314  0.1898  0.3222
  110SAPE   H9X11445   2.803   2.739   3.209  0.1395  0.3110  1.3423
  110SAPE   H9Y11446   2.795   2.564   3.171  1.5207  0.4781  1.2450
  110SAPE  C31011447   2.744   2.621   3.380  0.6970  0.0685 -0.3075
  110SAPE  H10X11448   2.845   2.623   3.426  1.2309 -2.0887 -1.2505
  110SAPE  H10Y11449   2.704   2.518   3.394 -1.1438  0.4330 -2.3738
  110SAPE  C31111450   2.644   2.712   3.467  1.1876 -0.1933  0.3341
  110SAPE  H11X11451   2.542   2.697   3.425 -0.1952  1.7889  2.6964
  110SAPE  H11Y11452   2.658   2.822   3.453 -1.0251  0.5224  2.8003
  110SAPE  C31211453   2.650   2.687   3.619  0.1983  0.0370  0.5912
  110SAPE  H12X11454   2.596   2.770   3.670 -1.6888  0.9012 -2.5530
  110SAPE  H12Y11455   2.751   2.700   3.664  1.0737  0.6007 -1.4105
  110SAPE  C31311456   2.585   2.550   3.657 -0.4719 -0.1434 -0.0511
  110SAPE  H13X11457   2.643   2.474   3.600  1.0270  0.1788  0.9755
  110SAPE  H13Y11458   2.482   2.537   3.617  0.1514  0.5299 -2.0101
  110SAPE  C31411459   2.595   2.530   3.810  0.3352 -0.0132  0.0644
  110SAPE  H14X11460   2.697   2.553   3.847  0.3327 -0.6597  0.4972
  110SAPE  H14Y11461   2.584   2.426   3.848 -0.0201 -0.3389 -0.9129
  110SAPE  C31511462   2.487   2.607   3.890  0.5343  0.1773 -0.2714
  110SAPE  H15X11463   2.388   2.572   3.855  0.6925 -1.4451  0.8007
  110SAPE  H15Y11464   2.501   2.717   3.880 -1.7155  0.8694  2.6036
  110SAPE  C31611465   2.494   2.592   4.046 -0.9415  0.4796 -0.0913
  110SAPE  H16X11466   2.596   2.628   4.072 -0.9169 -1.2001  2.5275
  110SAPE  H16Y11467   2.488   2.487   4.084 -1.0073 -0.0372 -1.4680
  110SAPE  C31711468   2.391   2.679   4.121  0.1296  0.9947  0.2872
  110SAPE  H17X11469   2.393   2.654   4.229 -1.6906 -4.1118 -0.5770
  110SAPE  H17Y11470   2.292   2.642   4.086 -0.1140  2.5343 -0.7088
  110SAPE  C31811471   2.376   2.832   4.100  0.2630  0.0626 -0.2113
  110SAPE  H18X11472   2.368   2.848   3.990 -0.2184 -3.7018 -0.8496
  110SAPE  H18Y11473   2.463   2.889   4.138 -0.4170  0.3831  0.9469
  110SAPE  H18Z11474   2.279   2.863   4.146 -0.4798 -0.6847 -1.2119
  111SAPE     N11475   1.644   0.254   1.965  0.1207 -0.3033  0.0091
  111SAPE   HN111476   1.610   0.321   1.894  1.5182 -1.4060 -1.7824
  111SAPE   HN211477   1.632   0.311   2.052 -0.1339  0.4735 -0.5267
  111SAPE   HN311478   1.747   0.241   1.962  0.1958  0.2658  0.0078
  111SAPE   C1211479   1.565   0.124   1.963  0.6583 -0.4504  0.2083
  111SAPE  H12A11480   1.589   0.077   1.865  2.6007 -0.1529  0.5159
  111SAPE  H12B11481   1.457   0.153   1.966  0.7531  0.0729 -0.9720
  111SAPE   C1111482   1.590   0.023   2.072 -0.1012 -0.8267  0.0141
  111SAPE  H11A11483   1.534   0.060   2.161 -3.3012  2.6363 -3.1165
  111SAPE  H11B11484   1.700   0.021   2.089 -0.3282  1.7567  2.6293
  111SAPE     P11485   1.412  -0.170   2.045 -0.5589  0.3122 -0.2563
  111SAPE   O1311486   1.310  -0.093   1.978  0.5073  0.1205  0.7992
  111SAPE   O1411487   1.421  -0.314   2.011 -0.0380  0.5893 -0.0929
  111SAPE   O1211488   1.556  -0.104   2.016 -0.1703  0.2830 -0.3307
  111SAPE   O1111489   1.397  -0.150   2.196 -0.0121 -0.1959 -0.2094
  111SAPE    C111490   1.494  -0.207   2.292 -0.6131 -0.3645  0.0950
  111SAPE    HA11491   1.578  -0.267   2.252  1.1667  1.3321  1.0975
  111SAPE    HB11492   1.547  -0.118   2.334  0.5325 -1.4025  0.9194
  111SAPE    C211493   1.428  -0.278   2.417  0.1345  0.7390  0.1146
  111SAPE    HS11494   1.365  -0.363   2.383  1.0821  0.2606 -0.4633
  111SAPE   O2111495   1.346  -0.177   2.482 -0.6018  0.3228 -0.3787
  111SAPE   C2111496   1.280  -0.216   2.587 -0.1448 -1.0965 -0.7156
  111SAPE   O2211497   1.241  -0.332   2.604 -0.3019  0.2185 -0.1453
  111SAPE   C2211498   1.271  -0.093   2.680  0.5628  0.6365 -0.3906
  111SAPE   H2R11499   1.377  -0.069   2.705  0.6810 -0.9566  0.8221
  111SAPE   H2S11500   1.225  -0.012   2.620  1.0844 -0.9988 -3.1822
  111SAPE    C311501   1.539  -0.345   2.503 -0.2502 -0.0851  0.4025
  111SAPE    HX11502   1.601  -0.423   2.454  0.3991  1.5067 -1.4101
  111SAPE    HY11503   1.487  -0.383   2.594  1.0104 -0.2296  1.0822
  111SAPE   O3111504   1.619  -0.237   2.549  0.3107 -0.0303  0.1588
  111SAPE   C3111505   1.735  -0.256   2.617  0.3363  0.7320 -0.0506
  111SAPE   O3211506   1.785  -0.365   2.646 -0.0646 -0.2576 -0.0079
  111SAPE   C3211507   1.779  -0.125   2.659 -0.6108  0.2429 -0.8727
  111SAPE   H2X11508   1.729  -0.046   2.599 -2.2436  0.0105  0.0979
  111SAPE   H2Y11509   1.886  -0.108   2.636  0.3867 -0.0810  2.7985
  111SAPE   C2311510   1.171  -0.121   2.798  0.3260  1.2373 -0.7471
  111SAPE   H3R11511   1.221  -0.161   2.889  0.2503  0.2391 -1.1220
  111SAPE   H3S11512   1.098  -0.201   2.771  2.1062 -0.1641 -1.6515
  111SAPE   C2411513   1.091   0.002   2.839  0.3259  0.6894 -0.0783
  111SAPE   H4R11514   1.031   0.029   2.750 -1.6459 -0.6294  0.7565
  111SAPE   H4S11515   1.158   0.081   2.877  1.3314 -0.0300 -0.3261
  111SAPE   C2511516   0.992  -0.037   2.952  0.4071  0.3813  0.5532
  111SAPE   H5R11517   0.894  -0.076   2.923  0.2853 -0.9784  2.6102
  111SAPE   C2611518   0.995  -0.013   3.083  0.1321  0.7353  0.2426
  111SAPE   H6R11519   0.906  -0.045   3.140 -1.3485  0.0248 -2.3198
  111SAPE   C2711520   1.099   0.062   3.166 -0.6335 -0.4866  0.3168
  111SAPE   H7R11521   1.061   0.164   3.184  1.1677  0.8342 -2.6839
  111SAPE   H7S11522   1.197   0.083   3.118  0.6735  1.4371  3.4798
  111SAPE   C2811523   1.125  -0.008   3.296  0.1892 -0.5137 -0.5211
  111SAPE   H8R11524   1.208  -0.078   3.275  3.1978  2.6750 -0.3510
  111SAPE   C2911525   1.057  -0.006   3.409  0.8154  0.1454  0.6382
  111SAPE   H9R11526   1.091  -0.078   3.485 -0.3537 -3.0122 -1.6117
  111SAPE  C21011527   0.935   0.076   3.440  0.9221  0.4996  0.0269
  111SAPE  H10R11528   0.877   0.085   3.346 -1.3812 -0.8058  1.2366
  111SAPE  H10S11529   0.972   0.178   3.465 -2.0467  1.7231 -0.1482
  111SAPE  C21111530   0.835   0.018   3.543  0.1648 -0.1424  0.3230
  111SAPE  H11R11531   0.746  -0.023   3.493  0.8425 -1.1661 -0.0877
  111SAPE  C21211532   0.857   0.015   3.678 -0.0020  0.2310 -0.7837
  111SAPE  H12R11533   0.783  -0.032   3.744  0.9493 -1.0718 -0.6096
  111SAPE  C21311534   0.966   0.094   3.749  0.1335 -0.2068 -0.2431
  111SAPE  H13R11535   0.909   0.156   3.821 -1.2695  0.1509 -1.6171
  111SAPE  H13S11536   1.018   0.149   3.667 -0.7372 -0.0862 -0.7249
  111SAPE  C21411537   1.066   0.006   3.819  0.2425  0.6766 -0.3595
  111SAPE  H14R11538   1.157  -0.021   3.764  0.4547 -0.9195  0.6930
  111SAPE  C21511539   1.037  -0.057   3.936 -0.7771  0.0169  0.6429
  111SAPE  H15R11540   1.110  -0.127   3.980 -0.8735 -1.4032 -1.3298
  111SAPE  C21611541   0.918  -0.034   4.020  0.5700  0.3732 -1.0230
  111SAPE  H16R11542   0.848   0.042   3.981  2.1622  2.4492 -0.0056
  111SAPE  H16S11543   0.943  -0.006   4.124 -3.4855 -0.8062  0.4929
  111SAPE  C21711544   0.835  -0.163   4.034 -0.0467 -0.4197 -0.2126
  111SAPE  H17R11545   0.908  -0.241   4.064 -0.3323 -1.4376 -2.0368
  111SAPE  H17S11546   0.784  -0.183   3.938 -0.3759  1.0031 -0.3584
  111SAPE  C21811547   0.725  -0.159   4.141 -0.5066  0.6282  0.1940
  111SAPE  H18R11548   0.649  -0.083   4.111 -0.5853  0.3379 -0.3560
  111SAPE  H18S11549   0.767  -0.144   4.243  0.7175 -0.8007 -0.0618
  111SAPE  C21911550   0.647  -0.294   4.141 -0.0337  0.9623 -0.1109
  111SAPE  H19R11551   0.712  -0.381   4.162 -1.9434 -0.4604  0.1712
  111SAPE  H19S11552   0.605  -0.309   4.039  3.3852 -0.1388 -1.5284
  111SAPE  C22011553   0.543  -0.289   4.247  0.2399  0.0923 -0.8581
  111SAPE  H20R11554   0.461  -0.214   4.233 -1.5393 -1.2952  1.4250
  111SAPE  H20S11555   0.602  -0.279   4.341 -0.7127 -0.9541 -0.1180
  111SAPE  H20T11556   0.494  -0.388   4.257  1.5687 -0.5616 -0.6847
  111SAPE   C3311557   1.755  -0.101   2.812 -0.1799  0.1301  0.4022
  111SAPE   H3X11558   1.773   0.008   2.828 -1.8331  0.4428  0.3175
  111SAPE   H3Y11559   1.825  -0.164   2.870  0.8036  1.2063  0.4186
  111SAPE   C3411560   1.612  -0.133   2.852  0.0772  0.2531  1.0007
  111SAPE   H4X11561   1.575  -0.232   2.819  1.4616 -0.2386  0.8674
  111SAPE   H4Y11562   1.546  -0.060   2.801  0.8840 -0.9662 -2.0269
  111SAPE   C3511563   1.593  -0.124   3.004  0.5285 -0.1248 -0.1380
  111SAPE   H5X11564   1.667  -0.179   3.066 -0.2478  1.0004  1.8828
  111SAPE   H5Y11565   1.492  -0.165   3.021 -0.3131  1.2372 -1.5504
  111SAPE   C3611566   1.605   0.022   3.060  0.6211  0.4562  0.2806
  111SAPE   H6X11567   1.686   0.070   3.001 -0.3189 -0.6548 -2.0399
  111SAPE   H6Y11568   1.641   0.007   3.164 -0.3658  2.3789  0.9410
  111SAPE   C3711569   1.470   0.096   3.060 -0.1972 -0.2266 -0.2481
  111SAPE   H7X11570   1.390   0.032   3.104  1.3413 -0.2778  2.7824
  111SAPE   H7Y11571   1.436   0.124   2.958 -0.3219  0.6111  0.0160
  111SAPE   C3811572   1.479   0.219   3.151 -0.2280 -0.1224 -0.3333
  111SAPE   H8X11573   1.579   0.263   3.130 -0.3052 -0.6634 -1.9785
  111SAPE   H8Y11574   1.476   0.191   3.258  0.1562 -0.8999 -0.5182
  111SAPE   C3911575   1.372   0.321   3.122 -0.1538 -0.0540 -0.0065
  111SAPE   H9X11576   1.272   0.276   3.105 -1.5868  1.3916  3.4870
  111SAPE   H9Y11577   1.383   0.367   3.021 -1.1286 -0.8383 -0.4875
  111SAPE  C31011578   1.342   0.441   3.224  1.3176  0.5922 -0.0056
  111SAPE  H10X11579   1.280   0.512   3.165  0.0673 -1.3569 -1.1716
  111SAPE  H10Y11580   1.437   0.486   3.259  1.2302 -0.3133  1.4923
  111SAPE  C31111581   1.265   0.390   3.348 -0.1568 -0.0966  0.3553
  111SAPE  H11X11582   1.341   0.325   3.397 -0.9260 -0.7737  0.6802
  111SAPE  H11Y11583   1.173   0.331   3.325 -2.5274  3.1623  0.8652
  111SAPE  C31211584   1.219   0.505   3.436  0.1420  0.1025  0.1284
  111SAPE  H12X11585   1.162   0.577   3.372  1.2226 -0.2983 -1.3611
  111SAPE  H12Y11586   1.307   0.560   3.476  0.0794 -1.3942  2.4924
  111SAPE  C31311587   1.140   0.462   3.559  0.2344 -0.2534  0.5171
  111SAPE  H13X11588   1.060   0.392   3.527 -0.4062 -0.1394  1.8216
  111SAPE  H13Y11589   1.083   0.548   3.599 -0.2760 -0.4143  0.1497
  111SAPE  C31411590   1.232   0.398   3.657 -0.1577  0.4428  0.5954
  111SAPE  H14X11591   1.315   0.346   3.604 -0.5135 -0.8097  1.2414
  111SAPE  H14Y11592   1.177   0.323   3.718  1.8590 -0.0204  1.9390
  111SAPE  C31511593   1.313   0.490   3.746 -0.5540  0.3903 -0.3095
  111SAPE  H15X11594   1.377   0.557   3.684  0.9090 -2.0670 -1.6320
  111SAPE  H15Y11595   1.382   0.420   3.800 -0.1802 -2.7578 -4.3544
  111SAPE  C31611596   1.244   0.583   3.843 -0.4451  0.3124  0.0452
  111SAPE  H16X11597   1.164   0.518   3.886 -1.0183  1.5327  0.8984
  111SAPE  H16Y11598   1.193   0.666   3.790  0.7335  1.1886  0.2463
  111SAPE  C31711599   1.336   0.641   3.947 -0.4350  0.0504 -1.0476
  111SAPE  H17X11600   1.413   0.707   3.902 -0.3520 -1.2589 -2.9312
  111SAPE  H17Y11601   1.383   0.554   3.996  1.0347  1.5228  0.2739
  111SAPE  C31811602   1.253   0.725   4.053  0.2320  0.4630  0.0196
  111SAPE  H18X11603   1.158   0.771   4.015 -0.8476 -0.6019  1.3580
  111SAPE  H18Y11604   1.316   0.807   4.094 -0.0813 -0.2578  2.0537
  111SAPE  H18Z11605   1.226   0.666   4.143 -0.1629  1.3344  0.4896
  112SAPE     N11606   5.596   5.030   2.117  0.2104  0.0086 -0.4272
  112SAPE   HN111607   5.545   5.099   2.176  0.9471 -0.2963  0.6018
  112SAPE   HN211608   5.556   4.939   2.147  0.1870 -0.9498 -3.1044
  112SAPE   HN311609   5.694   5.030   2.154 -0.2283 -1.0933  0.8497
  112SAPE   C1211610   5.576   5.061   1.972 -0.6259 -0.5587  0.3805
  112SAPE  H12A11611   5.533   5.163   1.959  1.7099  0.7915  2.4283
  112SAPE  H12B11612   5.502   4.988   1.934 -0.6104 -0.3473 -0.0668
  112SAPE   C1111613   5.706   5.051   1.895 -0.1600 -0.4037  0.2035
  112SAPE  H11A11614   5.687   5.057   1.785 -0.1740 -0.1544  0.2193
  112SAPE  H11B11615   5.744   4.948   1.909  1.4203 -0.2736 -2.4594
  112SAPE     P11616   5.937   5.113   2.012  0.2361  0.1989  0.0540
  112SAPE   O1311617   6.021   5.028   1.922 -0.4312  0.5419 -0.0423
  112SAPE   O1411618   5.996   5.236   2.072 -0.0192 -0.1505 -0.4707
  112SAPE   O1211619   5.802   5.149   1.934  0.2860 -0.4095 -0.1428
  112SAPE   O1111620   5.878   5.022   2.130 -0.1577 -0.2911  0.0962
  112SAPE    C111621   5.974   4.940   2.198  0.6458  0.3457 -0.3832
  112SAPE    HA11622   5.951   4.834   2.176  1.3089  0.1085  0.0454
  112SAPE    HB11623   6.077   4.969   2.170  0.2725  1.4583 -0.6818
  112SAPE    C211624   5.964   4.954   2.352  0.3754 -0.5096 -0.6744
  112SAPE    HS11625   5.860   4.924   2.376  0.0603 -0.0316 -1.4194
  112SAPE   O2111626   5.996   5.089   2.387 -0.7931 -0.1036 -0.4182
  112SAPE   C2111627   5.896   5.166   2.398  0.4111  0.1182 -0.1469
  112SAPE   O2211628   5.782   5.133   2.373  0.1266  0.3203 -0.0959
  112SAPE   C2211629   5.938   5.303   2.455  0.7835  0.8664  0.5152
  112SAPE   H2R11630   6.026   5.345   2.402 -0.0601  1.8375 -0.1643
  112SAPE   H2S11631   5.856   5.377   2.450  0.8960  0.9428 -0.7273
  112SAPE    C311632   6.067   4.866   2.420 -0.4227  0.2603  0.4692
  112SAPE    HX11633   6.153   4.867   2.349 -1.1911 -0.7474 -0.5198
  112SAPE    HY11634   6.030   4.761   2.424  1.0095 -0.2813  0.1796
  112SAPE   O3111635   6.129   4.918   2.540  0.3118 -0.1641  0.2478
  112SAPE   C3111636   6.055   4.908   2.654 -0.9238 -0.0047  0.0636
  112SAPE   O3211637   5.944   4.872   2.655  0.3071  0.1037  0.2558
  112SAPE   C3211638   6.138   4.942   2.767 -0.9995  0.2140 -0.2895
  112SAPE   H2X11639   6.167   5.048   2.745  1.2071 -0.3989 -0.5475
  112SAPE   H2Y11640   6.234   4.887   2.771 -0.9868  0.2599  0.0773
  112SAPE   C2311641   5.978   5.290   2.606  1.1562  0.4306  0.1830
  112SAPE   H3R11642   6.011   5.392   2.634  0.0227  1.0385 -0.6203
  112SAPE   H3S11643   6.064   5.221   2.623  0.1587 -0.9396 -0.1324
  112SAPE   C2411644   5.870   5.247   2.702 -0.0786  0.7456 -0.5739
  112SAPE   H4R11645   5.905   5.269   2.805  0.0988 -2.0131  0.0333
  112SAPE   H4S11646   5.861   5.137   2.710  0.3235  0.7484 -0.0621
  112SAPE   C2511647   5.733   5.312   2.689 -0.3946  0.5273 -0.0457
  112SAPE   H5R11648   5.724   5.396   2.618 -0.0438 -0.8411 -1.7627
  112SAPE   C2611649   5.624   5.263   2.750  0.3305  0.3147  0.5544
  112SAPE   H6R11650   5.528   5.315   2.741 -1.3621 -2.8175 -1.7184
  112SAPE   C2711651   5.617   5.155   2.853 -0.0491 -0.5351  0.3210
  112SAPE   H7R11652   5.702   5.156   2.923  1.0455 -1.1221 -0.9534
  112SAPE   H7S11653   5.624   5.055   2.805 -1.8190 -0.6386  0.1947
  112SAPE   C2811654   5.491   5.151   2.931  0.6117  0.0712  0.6755
  112SAPE   H8R11655   5.413   5.092   2.881 -1.3700  2.2667  0.9675
  112SAPE   C2911656   5.454   5.246   3.022  0.4632 -0.2599  0.7953
  112SAPE   H9R11657   5.350   5.229   3.055  0.3971 -1.8729 -0.1486
  112SAPE  C21011658   5.529   5.350   3.094 -0.5269 -0.4190  0.7151
  112SAPE  H10R11659   5.494   5.443   3.045  0.6025 -0.2523  0.1916
  112SAPE  H10S11660   5.635   5.360   3.065 -0.9777 -0.5898 -1.1182
  112SAPE  C21111661   5.502   5.354   3.245 -0.5908 -0.9088  0.2979
  112SAPE  H11R11662   5.493   5.253   3.288  0.0451 -1.3154 -0.5175
  112SAPE  C21211663   5.487   5.477   3.315 -0.3745  0.9804 -0.8210
  112SAPE  H12R11664   5.466   5.463   3.422  0.8613 -0.7975 -0.7777
  112SAPE  C21311665   5.509   5.615   3.258 -0.6387  0.2004 -0.1016
  112SAPE  H13R11666   5.570   5.613   3.165 -1.2291  2.0212 -0.5838
  112SAPE  H13S11667   5.576   5.669   3.328  0.3667 -1.5972  0.3682
  112SAPE  C21411668   5.388   5.702   3.224 -0.1572  0.2810 -0.1204
  112SAPE  H14R11669   5.378   5.727   3.117  0.1601 -0.4953 -0.3338
  112SAPE  C21511670   5.303   5.757   3.313  0.2796  0.6721  0.0740
  112SAPE  H15R11671   5.220   5.816   3.272 -1.1379 -3.0193 -2.9434
  112SAPE  C21611672   5.311   5.731   3.466 -0.1377  0.4624  0.0507
  112SAPE  H16R11673   5.373   5.642   3.487  1.2459  1.2362 -0.5969
  112SAPE  H16S11674   5.210   5.701   3.500 -1.6773  1.7218 -3.0297
  112SAPE  C21711675   5.359   5.853   3.542  0.3527 -0.6050 -0.5698
  112SAPE  H17R11676   5.284   5.935   3.529  1.7624  0.6477 -1.0598
  112SAPE  H17S11677   5.457   5.896   3.513 -0.1599  0.6372 -0.5284
  112SAPE  C21811678   5.376   5.823   3.695 -0.0516  0.2744  0.1370
  112SAPE  H18R11679   5.436   5.730   3.702 -0.0112  0.2382 -0.6424
  112SAPE  H18S11680   5.273   5.790   3.719  0.1531 -2.8520 -2.6019
  112SAPE  C21911681   5.427   5.942   3.777 -0.0186 -0.4089  0.1572
  112SAPE  H19R11682   5.348   6.020   3.773  0.2714  0.0074  1.7506
  112SAPE  H19S11683   5.510   6.000   3.732  0.3076 -0.3988  0.7600
  112SAPE  C22011684   5.464   5.898   3.918  0.5073  0.2399 -0.2066
  112SAPE  H20R11685   5.530   5.977   3.959  0.6851  1.2406 -2.2865
  112SAPE  H20S11686   5.513   5.799   3.930 -2.0869 -1.2332 -0.9439
  112SAPE  H20T11687   5.370   5.902   3.977  0.1822 -0.6515 -0.6432
  112SAPE   C3311688   6.063   4.933   2.903 -0.0126 -0.4025  0.2234
  112SAPE   H3X11689   6.041   4.825   2.921  1.8320 -1.3760 -2.6998
  112SAPE   H3Y11690   5.968   4.989   2.899 -0.2397 -0.8072 -0.1998
  112SAPE   C3411691   6.129   5.001   3.021 -0.7017 -0.5556  0.2205
  112SAPE   H4X11692   6.094   4.953   3.115  0.1675 -0.4808  0.5893
  112SAPE   H4Y11693   6.113   5.111   3.010  0.4134 -0.5584 -2.0103
  112SAPE   C3511694   6.288   4.969   3.035  0.3082 -0.2603 -0.3161
  112SAPE   H5X11695   6.339   5.042   2.969  1.0107 -1.6596 -1.3846
  112SAPE   H5Y11696   6.299   4.870   2.985  0.4841  0.6312 -2.1200
  112SAPE   C3611697   6.346   4.954   3.179  0.0953 -0.2337  0.3788
  112SAPE   H6X11698   6.457   4.951   3.181  0.2165  2.1827  2.0419
  112SAPE   H6Y11699   6.311   4.860   3.227  2.3140 -0.5387  1.5243
  112SAPE   C3711700   6.311   5.085   3.259 -0.6251  0.2469  0.0192
  112SAPE   H7X11701   6.202   5.101   3.276 -0.2592  3.1835  0.0961
  112SAPE   H7Y11702   6.334   5.173   3.196 -2.5935 -0.9601 -2.5694
  112SAPE   C3811703   6.387   5.088   3.392 -0.3380  0.0675  0.2287
  112SAPE   H8X11704   6.395   5.196   3.415  1.6038  0.0790 -0.3433
  112SAPE   H8Y11705   6.492   5.058   3.373 -0.4240 -0.6868  0.8901
  112SAPE   C3911706   6.309   5.002   3.493 -0.1324  0.6561 -0.4482
  112SAPE   H9X11707   6.346   4.898   3.510 -2.7146 -0.2822 -0.1353
  112SAPE   H9Y11708   6.206   4.996   3.452 -0.9018 -0.1862  1.4731
  112SAPE  C31011709   6.296   5.063   3.632 -0.2046  0.2458 -0.4357
  112SAPE  H10X11710   6.310   5.173   3.626  0.0465  0.1910 -0.9268
  112SAPE  H10Y11711   6.381   5.031   3.696 -1.2041 -1.8759 -0.0953
  112SAPE  C31111712   6.167   5.032   3.713 -0.0321  0.2390  0.7276
  112SAPE  H11X11713   6.182   4.928   3.749 -1.4689 -0.6014 -0.9323
  112SAPE  H11Y11714   6.085   5.029   3.638 -0.9067 -3.5394  1.6527
  112SAPE  C31211715   6.149   5.124   3.834 -0.0229 -0.1299 -0.2340
  112SAPE  H12X11716   6.061   5.090   3.894 -0.0720 -0.7453 -0.6449
  112SAPE  H12Y11717   6.137   5.224   3.787  0.3934  0.2776  0.5122
  112SAPE  C31311718   6.267   5.125   3.931 -0.0751  0.9374  0.3417
  112SAPE  H13X11719   6.227   5.179   4.020 -1.9433 -0.3341  0.3372
  112SAPE  H13Y11720   6.352   5.186   3.894 -0.7577  1.5567 -0.2442
  112SAPE  C31411721   6.314   4.988   3.977  0.2290  0.9174 -0.4282
  112SAPE  H14X11722   6.367   4.937   3.894  0.7991  1.9424 -0.7132
  112SAPE  H14Y11723   6.229   4.921   3.999  0.0994 -0.1047 -3.6531
  112SAPE  C31511724   6.404   4.994   4.095 -0.5463  0.6010 -0.1820
  112SAPE  H15X11725   6.359   5.063   4.170 -1.4449 -0.8192  0.6337
  112SAPE  H15Y11726   6.504   5.041   4.083 -0.2964  0.2286  0.3939
  112SAPE  C31611727   6.430   4.867   4.180  0.3067 -0.2032 -1.2519
  112SAPE  H16X11728   6.527   4.826   4.146  1.2115  0.3428  0.5706
  112SAPE  H16Y11729   6.362   4.781   4.162 -0.8993  0.2743  0.6868
  112SAPE  C31711730   6.466   4.899   4.327  0.3433  1.1194 -0.1550
  112SAPE  H17X11731   6.481   5.008   4.341  0.2158  1.0262  0.7958
  112SAPE  H17Y11732   6.563   4.856   4.358  0.3019  1.1672  0.0469
  112SAPE  C31811733   6.350   4.850   4.416  0.1200 -0.3897 -0.1841
  112SAPE  H18X11734   6.339   4.740   4.417  3.8887 -0.9944  3.4453
  112SAPE  H18Y11735   6.254   4.885   4.372 -1.1405 -0.9094  2.0248
  112SAPE  H18Z11736   6.357   4.887   4.520  2.4881  1.3203 -0.8690
  113SAPE     N11737   6.854   3.956   2.234  0.4461 -0.3012  0.3452
  113SAPE   HN111738   6.847   3.868   2.180  0.8068  0.5742 -1.1751
  113SAPE   HN211739   6.900   3.931   2.324  3.4776 -1.8996 -1.4968
  113SAPE   HN311740   6.756   3.983   2.255  0.6775 -0.3558  1.5862
  113SAPE   C1211741   6.926   4.060   2.160 -0.4636  0.4691  0.3095
  113SAPE  H12A11742   7.021   4.017   2.123 -1.0502 -1.5778  1.0845
  113SAPE  H12B11743   6.942   4.142   2.234 -1.1994  0.3279  0.6358
  113SAPE   C1111744   6.847   4.105   2.041  0.0826 -0.2462  0.7055
  113SAPE  H11A11745   6.852   4.021   1.968  1.4826  0.6654 -0.2994
  113SAPE  H11B11746   6.898   4.182   1.979 -1.2263 -0.9921 -1.4137
  113SAPE     P11747   6.674   4.269   2.147  0.5936 -0.4351  0.3485
  113SAPE   O1311748   6.716   4.390   2.078  0.1334  0.1998 -0.2832
  113SAPE   O1411749   6.525   4.257   2.172  0.0533 -0.3849  0.1173
  113SAPE   O1211750   6.708   4.142   2.066  0.0264 -0.1258  0.1942
  113SAPE   O1111751   6.745   4.249   2.286  0.3608 -0.0570  0.2309
  113SAPE    C111752   6.790   4.359   2.360  0.2088 -0.2617 -0.0141
  113SAPE    HA11753   6.870   4.411   2.303 -1.1927  2.0458  0.0157
  113SAPE    HB11754   6.714   4.439   2.371  1.1030  0.5888  0.1034
  113SAPE    C211755   6.846   4.331   2.503  0.3519  0.1185 -0.1999
  113SAPE    HS11756   6.911   4.241   2.494  0.2920  0.0896 -0.3428
  113SAPE   O2111757   6.734   4.309   2.592 -0.5424  0.8018  0.4429
  113SAPE   C2111758   6.746   4.204   2.673  0.0266  0.1411  0.0746
  113SAPE   O2211759   6.838   4.125   2.677  0.4371 -0.4626  0.1646
  113SAPE   C2211760   6.620   4.198   2.760  0.4103 -0.1357  0.2827
  113SAPE   H2R11761   6.529   4.237   2.710  0.2966  0.4265  0.9269
  113SAPE   H2S11762   6.602   4.091   2.787 -0.3960 -1.1637 -3.6178
  113SAPE    C311763   6.945   4.439   2.556  0.2050 -0.1279  0.3165
  113SAPE    HX11764   6.894   4.537   2.566 -0.7113 -0.7127  1.6279
  113SAPE    HY11765   7.023   4.454   2.478 -1.6573 -0.3650 -1.6714
  113SAPE   O3111766   6.989   4.400   2.688 -0.1277 -0.2144  0.5049
  113SAPE   C3111767   7.093   4.314   2.690 -0.3686 -0.0793  0.6317
  113SAPE   O3211768   7.150   4.274   2.585  0.4964  0.3546  0.0182
  113SAPE   C3211769   7.131   4.280   2.833  0.2108  0.4683 -0.5077
  113SAPE   H2X11770   7.239   4.305   2.845  0.5163 -1.2873  0.8566
  113SAPE   H2Y11771   7.116   4.172   2.855  1.3020  0.4461  0.2378
  113SAPE   C2311772   6.644   4.270   2.891  0.2795  0.1190  0.3201
  113SAPE   H3R11773   6.709   4.359   2.875 -1.8808  1.4650 -1.9279
  113SAPE   H3S11774   6.701   4.213   2.967  1.5609  1.9524  0.7923
  113SAPE   C2411775   6.513   4.321   2.961 -0.1358  0.6081 -0.2022
  113SAPE   H4R11776   6.460   4.395   2.898  0.3670  0.1503 -1.1956
  113SAPE   H4S11777   6.531   4.372   3.058 -1.6834  2.6425 -0.9162
  113SAPE   C2511778   6.427   4.199   2.989 -0.5731 -0.2227 -0.1247
  113SAPE   H5R11779   6.385   4.146   2.903 -2.6071  1.5136 -0.2625
  113SAPE   C2611780   6.391   4.156   3.112 -0.8525 -0.2719  0.0205
  113SAPE   H6R11781   6.334   4.062   3.122  2.1336 -2.1993 -0.0250
  113SAPE   C2711782   6.437   4.207   3.249 -0.5788 -0.4844  0.2375
  113SAPE   H7R11783   6.344   4.243   3.298  0.6741  3.3113  0.1497
  113SAPE   H7S11784   6.495   4.302   3.245  0.6578 -1.2360 -3.1871
  113SAPE   C2811785   6.514   4.098   3.320 -0.3347  0.2075  0.2810
  113SAPE   H8R11786   6.526   4.003   3.266  4.8742 -0.6968  2.4089
  113SAPE   C2911787   6.576   4.120   3.441 -0.0755  0.3615 -0.7318
  113SAPE   H9R11788   6.630   4.042   3.497 -0.3172  0.0291 -0.9582
  113SAPE  C21011789   6.564   4.247   3.528  0.0077  0.1018 -0.1594
  113SAPE  H10R11790   6.540   4.338   3.469 -0.2738 -0.5459 -1.0603
  113SAPE  H10S11791   6.669   4.260   3.564 -0.4406 -0.4028  1.4197
  113SAPE  C21111792   6.474   4.233   3.645  0.1585  0.5980  1.0791
  113SAPE  H11R11793   6.370   4.265   3.625  0.5424 -0.3597 -3.6887
  113SAPE  C21211794   6.496   4.197   3.774 -0.0089  0.0705  0.5740
  113SAPE  H12R11795   6.413   4.198   3.847 -0.3833 -0.5533  0.1579
  113SAPE  C21311796   6.629   4.166   3.834 -0.0669  0.1036 -0.0089
  113SAPE  H13R11797   6.638   4.194   3.941  0.2748  1.6224 -0.4188
  113SAPE  H13S11798   6.707   4.224   3.781 -0.2654 -1.1508 -1.7698
  113SAPE  C21411799   6.655   4.013   3.818 -0.2195 -0.6835  0.3237
  113SAPE  H14R11800   6.604   3.969   3.731 -0.5180  1.5928 -0.7075
  113SAPE  C21511801   6.739   3.926   3.876 -0.1566  0.2060  0.2654
  113SAPE  H15R11802   6.735   3.818   3.856 -2.1297 -0.2271  2.5180
  113SAPE  C21611803   6.825   3.977   3.983  0.2011 -0.0109  0.1676
  113SAPE  H16R11804   6.779   4.054   4.048 -0.0492  0.6293 -0.7538
  113SAPE  H16S11805   6.906   4.027   3.927 -0.3031  0.0147 -0.5544
  113SAPE  C21711806   6.898   3.864   4.068  0.0333  0.1631  0.4422
  113SAPE  H17R11807   6.966   3.927   4.129 -0.2313  0.7663  0.1298
  113SAPE  H17S11808   6.944   3.796   3.993 -1.2390 -0.5087  0.2533
  113SAPE  C21811809   6.811   3.789   4.163 -0.3161  0.0425 -0.7687
  113SAPE  H18R11810   6.726   3.745   4.107 -0.3679  0.1136 -0.7459
  113SAPE  H18S11811   6.775   3.858   4.242 -1.7865  0.8958 -2.1139
  113SAPE  C21911812   6.888   3.662   4.224 -0.0221  0.1542 -0.4942
  113SAPE  H19R11813   6.960   3.715   4.290  0.7761 -2.3382  0.7441
  113SAPE  H19S11814   6.942   3.605   4.145 -0.5895 -0.0777 -0.7195
  113SAPE  C22011815   6.802   3.563   4.304 -0.1858  0.2933 -0.4230
  113SAPE  H20R11816   6.703   3.544   4.257  0.3936  1.1862 -2.0952
  113SAPE  H20S11817   6.772   3.613   4.399 -0.6917 -0.3405 -0.2419
  113SAPE  H20T11818   6.853   3.467   4.324 -1.3139 -0.0317  1.1786
  113SAPE   C3311819   7.052   4.358   2.940  0.2261 -0.1715  0.2596
  113SAPE   H3X11820   6.943   4.338   2.936  0.2693 -1.2953  2.9214
  113SAPE   H3Y11821   7.063   4.465   2.914  1.7431 -0.5248 -0.6831
  113SAPE   C3411822   7.101   4.336   3.088  0.6944 -0.0203 -0.0072
  113SAPE   H4X11823   7.090   4.431   3.144  1.0947 -0.6651  1.2175
  113SAPE   H4Y11824   7.211   4.322   3.092  0.8182  1.0646  2.9445
  113SAPE   C3511825   7.013   4.233   3.153 -0.0313 -0.0289  0.1516
  113SAPE   H5X11826   7.087   4.171   3.209 -0.3911 -0.4833  0.1244
  113SAPE   H5Y11827   6.970   4.159   3.083  1.4484  0.2961 -1.1624
  113SAPE   C3611828   6.903   4.293   3.251 -0.7080  0.1881  0.0292
  113SAPE   H6X11829   6.823   4.221   3.276  1.0472 -1.4039  1.3098
  113SAPE   H6Y11830   6.852   4.376   3.197 -0.4842  0.2078 -0.1528
  113SAPE   C3711831   6.947   4.342   3.386 -0.8263 -0.1084 -0.6755
  113SAPE   H7X11832   6.863   4.404   3.424 -0.8309  0.0300 -0.9084
  113SAPE   H7Y11833   7.038   4.406   3.375 -0.2696 -0.2692  2.2368
  113SAPE   C3811834   6.986   4.225   3.476  0.0577 -0.0244  0.2005
  113SAPE   H8X11835   6.910   4.144   3.476  1.5895 -1.5442 -1.7219
  113SAPE   H8Y11836   7.076   4.186   3.425 -1.0426  0.0982 -1.9632
  113SAPE   C3911837   7.004   4.274   3.625 -0.2853  0.9307  0.1649
  113SAPE   H9X11838   6.905   4.302   3.669 -0.6900 -1.6758  1.0895
  113SAPE   H9Y11839   7.073   4.361   3.626  1.0399 -0.0625 -1.0709
  113SAPE  C31011840   7.060   4.156   3.703 -0.2607  0.1021 -0.2173
  113SAPE  H10X11841   7.133   4.102   3.638  1.5173 -0.3024  1.9707
  113SAPE  H10Y11842   6.978   4.082   3.712 -0.8524  0.5748 -1.4796
  113SAPE  C31111843   7.129   4.189   3.836 -0.6746 -0.1113  0.2644
  113SAPE  H11X11844   7.230   4.234   3.823 -0.4754 -0.9402 -1.1713
  113SAPE  H11Y11845   7.134   4.086   3.878 -3.5377 -0.9473 -1.1925
  113SAPE  C31211846   7.049   4.273   3.929 -0.3122  0.2853  0.4464
  113SAPE  H12X11847   6.940   4.262   3.913 -0.0509 -1.0121 -0.6439
  113SAPE  H12Y11848   7.086   4.378   3.921 -2.5003  1.0617 -0.4309
  113SAPE  C31311849   7.055   4.229   4.077 -0.9205  0.0333 -0.3139
  113SAPE  H13X11850   7.161   4.238   4.110 -0.9961 -0.0914 -0.0275
  113SAPE  H13Y11851   7.042   4.118   4.079  0.9101 -0.2416 -1.3019
  113SAPE  C31411852   6.961   4.298   4.179  0.9637  0.3080  0.6742
  113SAPE  H14X11853   6.956   4.228   4.266 -0.9677 -3.9073 -2.4902
  113SAPE  H14Y11854   6.862   4.305   4.130  1.3408 -1.0742 -0.3379
  113SAPE  C31511855   7.011   4.434   4.233 -0.4467 -0.0889 -0.5858
  113SAPE  H15X11856   7.056   4.504   4.159 -0.6657 -0.2002 -0.8228
  113SAPE  H15Y11857   7.096   4.407   4.299 -2.2453 -0.8337  1.5482
  113SAPE  C31611858   6.906   4.505   4.328  0.1906 -0.7005  0.4559
  113SAPE  H16X11859   6.910   4.445   4.421 -0.5533  1.2880  1.8345
  113SAPE  H16Y11860   6.807   4.494   4.279  0.0300 -1.1327  0.8841
  113SAPE  C31711861   6.948   4.650   4.356  0.3263 -0.5495 -0.1629
  113SAPE  H17X11862   6.943   4.709   4.263 -0.7244  2.0250  1.4279
  113SAPE  H17Y11863   7.054   4.656   4.388  0.0430  0.7495  0.5801
  113SAPE  C31811864   6.853   4.724   4.456  0.2030 -0.3474  0.0491
  113SAPE  H18X11865   6.891   4.827   4.475  1.1293 -0.4889 -0.9468
  113SAPE  H18Y11866   6.842   4.671   4.553 -0.7122  1.6906  1.1377
  113SAPE  H18Z11867   6.750   4.730   4.414 -0.7298 -1.2848  2.0518
  114SAPE     N11868   2.050   5.910   2.358 -0.1074  0.4687  0.5735
  114SAPE   HN111869   2.151   5.917   2.336 -0.5123  2.0229 -1.0152
  114SAPE   HN211870   2.023   5.992   2.416 -2.9992 -0.0690  0.1622
  114SAPE   HN311871   2.039   5.819   2.407  0.7532  0.7267  1.2781
  114SAPE   C1211872   1.970   5.928   2.231  0.0624 -0.6327 -0.3492
  114SAPE  H12A11873   2.001   6.018   2.175 -0.9174 -1.6342 -2.6005
  114SAPE  H12B11874   1.867   5.958   2.262  0.7712  1.5210  0.1044
  114SAPE   C1111875   1.975   5.803   2.144  0.2317  0.2214  0.0411
  114SAPE  H11A11876   2.082   5.774   2.130  0.3807  0.0293  1.4292
  114SAPE  H11B11877   1.943   5.811   2.038  1.8178  0.2870 -0.4670
  114SAPE     P11878   1.989   5.572   2.271  0.3238  0.3091 -0.1741
  114SAPE   O1311879   1.892   5.476   2.322 -0.3142 -0.5838 -0.2460
  114SAPE   O1411880   2.078   5.523   2.164 -0.1455  0.2959  0.8032
  114SAPE   O1211881   1.907   5.697   2.205  0.7320  0.0096 -0.6233
  114SAPE   O1111882   2.069   5.636   2.390 -0.0722  0.4703  0.5200
  114SAPE    C111883   2.070   5.603   2.524 -0.0700  0.1981 -0.4097
  114SAPE    HA11884   2.102   5.498   2.539  0.6172  0.2744 -1.2622
  114SAPE    HB11885   2.137   5.668   2.583 -0.7031  0.3070  0.2032
  114SAPE    C211886   1.930   5.628   2.586 -0.5310 -0.5191  0.0311
  114SAPE    HS11887   1.860   5.555   2.539 -0.9567 -0.6351  0.8290
  114SAPE   O2111888   1.891   5.757   2.546  0.3318 -0.4693  0.1330
  114SAPE   C2111889   1.760   5.785   2.581 -1.0998 -0.2883 -0.3215
  114SAPE   O2211890   1.681   5.706   2.625  0.2836 -0.4948  0.1496
  114SAPE   C2211891   1.737   5.929   2.551 -0.4307 -1.1367 -0.2163
  114SAPE   H2R11892   1.813   5.987   2.606  0.1848 -0.3448 -1.8257
  114SAPE   H2S11893   1.767   5.953   2.446  0.4160  0.6161  0.3915
  114SAPE    C311894   1.937   5.607   2.742 -0.6790  0.4740 -0.6620
  114SAPE    HX11895   1.967   5.500   2.738  1.9646  1.1543 -0.7543
  114SAPE    HY11896   1.840   5.607   2.796 -1.6451 -0.2334 -2.3372
  114SAPE   O3111897   2.048   5.678   2.800 -0.3302  0.4928  0.0645
  114SAPE   C3111898   2.018   5.790   2.856 -0.4378  0.0388  0.2664
  114SAPE   O3211899   1.909   5.827   2.882 -0.0668 -0.1560 -0.9816
  114SAPE   C3211900   2.148   5.853   2.908 -0.3888 -0.1853 -0.2747
  114SAPE   H2X11901   2.121   5.961   2.912  1.1517  0.1989  0.6183
  114SAPE   H2Y11902   2.225   5.849   2.829  0.6772 -0.1489  0.7379
  114SAPE   C2311903   1.600   5.984   2.592  0.4644  0.6482  0.6219
  114SAPE   H3R11904   1.566   5.947   2.691 -3.7955  0.6677 -0.6190
  114SAPE   H3S11905   1.535   5.936   2.516 -1.2263 -0.3857  2.6260
  114SAPE   C2411906   1.603   6.130   2.584 -0.1819  0.4791 -0.1656
  114SAPE   H4R11907   1.617   6.157   2.477 -1.6868 -1.4268 -0.9233
  114SAPE   H4S11908   1.691   6.186   2.622 -0.7513  2.9771 -2.2621
  114SAPE   C2511909   1.465   6.189   2.613 -0.5569 -0.4963 -0.0161
  114SAPE   H5R11910   1.397   6.156   2.534  2.1763 -1.5947 -2.0614
  114SAPE   C2611911   1.414   6.258   2.721  0.7999  0.1076  0.5005
  114SAPE   H6R11912   1.309   6.290   2.715  0.0313 -1.7679  2.7636
  114SAPE   C2711913   1.491   6.302   2.841  0.1202 -0.2021 -0.5774
  114SAPE   H7R11914   1.591   6.337   2.808  0.7360  1.8164  2.9852
  114SAPE   H7S11915   1.521   6.222   2.912  2.0083  0.4078 -0.6475
  114SAPE   C2811916   1.408   6.416   2.912 -0.2269  0.1825  0.8986
  114SAPE   H8R11917   1.361   6.487   2.843  0.6641  1.2335  1.3232
  114SAPE   C2911918   1.393   6.448   3.043 -0.5907  0.0768  0.1363
  114SAPE   H9R11919   1.337   6.538   3.070 -2.7439 -0.8700 -0.9227
  114SAPE  C21011920   1.466   6.370   3.148  0.0835 -0.4010 -0.1430
  114SAPE  H10R11921   1.557   6.324   3.102  0.8891 -0.5627  1.5290
  114SAPE  H10S11922   1.394   6.289   3.171 -0.2546 -0.0890 -0.1126
  114SAPE  C21111923   1.491   6.453   3.276 -0.4472  0.2941 -0.3737
  114SAPE  H11R11924   1.575   6.524   3.269  1.8239 -2.0510  1.0240
  114SAPE  C21211925   1.419   6.453   3.389 -0.0273 -0.4373  0.3782
  114SAPE  H12R11926   1.464   6.519   3.465 -1.6104 -0.4208  1.3505
  114SAPE  C21311927   1.304   6.374   3.442 -0.2575  0.4805 -0.3558
  114SAPE  H13R11928   1.270   6.414   3.540 -2.3784 -1.1573 -0.3469
  114SAPE  H13S11929   1.354   6.275   3.455 -0.9420  0.2953  1.0086
  114SAPE  C21411930   1.181   6.357   3.360  0.1409  0.4745  0.0908
  114SAPE  H14R11931   1.199   6.320   3.258  0.3514  2.2585 -0.5665
  114SAPE  C21511932   1.062   6.417   3.380 -0.0085  0.9936 -0.4198
  114SAPE  H15R11933   0.981   6.382   3.314  0.3437  0.2353 -0.4541
  114SAPE  C21611934   1.020   6.492   3.502  0.3295 -0.9857  0.0420
  114SAPE  H16R11935   0.937   6.561   3.478  1.1830  1.5942  3.6286
  114SAPE  H16S11936   1.099   6.564   3.531 -0.0148 -0.0713 -1.2167
  114SAPE  C21711937   0.967   6.393   3.604  0.1258 -0.0124  0.1960
  114SAPE  H17R11938   1.047   6.318   3.622  0.0016  0.1050  1.2761
  114SAPE  H17S11939   0.880   6.336   3.562  1.4703 -1.1019 -1.2358
  114SAPE  C21811940   0.927   6.453   3.747  0.0558 -0.2527  0.2784
  114SAPE  H18R11941   0.866   6.544   3.727  0.1090 -0.2818 -0.0224
  114SAPE  H18S11942   1.020   6.484   3.801  0.9585  2.0202 -2.3359
  114SAPE  C21911943   0.841   6.348   3.822 -0.0541 -0.4613  0.3088
  114SAPE  H19R11944   0.751   6.341   3.757 -0.0070 -1.4762  0.3417
  114SAPE  H19S11945   0.803   6.379   3.922  2.1542 -0.6195  1.2605
  114SAPE  C22011946   0.897   6.209   3.836  0.0669  0.2016 -0.3944
  114SAPE  H20R11947   0.870   6.153   3.744  0.8794  0.8035 -1.0149
  114SAPE  H20S11948   0.847   6.165   3.924 -0.6378 -3.3416 -2.3733
  114SAPE  H20T11949   1.006   6.199   3.858  0.0693  0.3702 -0.3246
  114SAPE   C3311950   2.194   5.794   3.039  0.3408 -0.1969 -0.1807
  114SAPE   H3X11951   2.303   5.806   3.055 -0.1663  1.3350  2.6859
  114SAPE   H3Y11952   2.168   5.686   3.041 -0.1970 -0.1196 -1.7490
  114SAPE   C3411953   2.121   5.858   3.156  0.3425 -0.5441  0.0647
  114SAPE   H4X11954   2.010   5.858   3.149  0.3604  2.6231 -2.9199
  114SAPE   H4Y11955   2.161   5.961   3.147 -0.7487 -0.1939 -1.0449
  114SAPE   C3511956   2.172   5.796   3.290  0.1442  0.3018  0.0892
  114SAPE   H5X11957   2.275   5.757   3.274 -0.1597  0.4760 -2.8797
  114SAPE   H5Y11958   2.111   5.704   3.306 -0.8279  1.1455  1.5021
  114SAPE   C3611959   2.173   5.891   3.406  0.1186  0.3811  0.3450
  114SAPE   H6X11960   2.223   5.845   3.494 -0.7232  0.9135  1.1117
  114SAPE   H6Y11961   2.074   5.926   3.442 -0.8500 -0.9696 -0.9132
  114SAPE   C3711962   2.266   6.015   3.375  0.3171  0.4105  0.2624
  114SAPE   H7X11963   2.207   6.086   3.313  1.7754  0.9263 -0.5672
  114SAPE   H7Y11964   2.344   5.991   3.300 -1.0052 -1.4334 -0.5995
  114SAPE   C3811965   2.311   6.083   3.503  0.0099 -0.3834  0.0191
  114SAPE   H8X11966   2.381   6.021   3.562 -2.0343 -0.0945  2.9790
  114SAPE   H8Y11967   2.221   6.096   3.566 -0.0704  1.5015 -0.4236
  114SAPE   C3911968   2.381   6.215   3.488  0.4596 -0.2756  1.1540
  114SAPE   H9X11969   2.298   6.287   3.472  0.9273  0.4111  1.7717
  114SAPE   H9Y11970   2.456   6.212   3.406  2.0803 -4.5435  2.4764
  114SAPE  C31011971   2.448   6.265   3.615 -0.4190 -0.0002 -0.3053
  114SAPE  H10X11972   2.523   6.341   3.587 -0.1652  1.1518  3.0714
  114SAPE  H10Y11973   2.494   6.183   3.673 -1.7028 -0.0681  0.6635
  114SAPE  C31111974   2.339   6.341   3.701  1.0464  0.3715 -0.1871
  114SAPE  H11X11975   2.259   6.265   3.713  1.4591 -0.4904 -2.3824
  114SAPE  H11Y11976   2.295   6.426   3.644  1.7364  0.7703 -0.1345
  114SAPE  C31211977   2.402   6.388   3.831  0.0684  1.0395 -0.9487
  114SAPE  H12X11978   2.443   6.295   3.876  0.8350  1.2502 -1.1906
  114SAPE  H12Y11979   2.319   6.426   3.894 -0.2723  0.4407 -1.0338
  114SAPE  C31311980   2.507   6.493   3.810 -0.2513 -0.1988 -0.4563
  114SAPE  H13X11981   2.464   6.570   3.743 -1.0634 -0.9434 -0.8143
  114SAPE  H13Y11982   2.600   6.452   3.765  0.8813  0.5386  1.0927
  114SAPE  C31411983   2.532   6.569   3.946  0.0847  0.2156  0.5035
  114SAPE  H14X11984   2.439   6.612   3.990  0.2555  0.7949  0.3028
  114SAPE  H14Y11985   2.592   6.658   3.916 -0.4968  0.9198  1.3782
  114SAPE  C31511986   2.616   6.486   4.038 -0.1418 -0.0038  0.4618
  114SAPE  H15X11987   2.695   6.424   3.992 -0.1658  0.0418  0.3589
  114SAPE  H15Y11988   2.544   6.416   4.084 -2.4432  3.1679  2.0992
  114SAPE  C31611989   2.676   6.577   4.149  0.2496  0.6085 -0.5921
  114SAPE  H16X11990   2.718   6.667   4.099  0.1739  0.9924  0.0270
  114SAPE  H16Y11991   2.758   6.515   4.191 -1.7271 -0.2342  2.2902
  114SAPE  C31711992   2.567   6.622   4.250 -0.4005 -0.0510  0.1700
  114SAPE  H17X11993   2.505   6.534   4.279 -1.8810  1.3712  1.4972
  114SAPE  H17Y11994   2.506   6.699   4.199  1.0919  1.0990  0.0837
  114SAPE  C31811995   2.642   6.688   4.372 -0.2709  0.0243 -0.4086
  114SAPE  H18X11996   2.708   6.763   4.325 -2.4752  1.3203 -1.6022
  114SAPE  H18Y11997   2.693   6.604   4.424 -0.5679  0.1283  0.0672
  114SAPE  H18Z11998   2.569   6.731   4.444  0.0461  0.1447 -0.1573
  115SAPE     N11999   0.688   0.651   1.976  0.0798 -0.2681 -0.2991
  115SAPE   HN112000   0.776   0.621   2.021 -0.2223  1.4232  1.5485
  115SAPE   HN212001   0.678   0.747   2.013 -1.1238 -1.2261  2.0830
  115SAPE   HN312002   0.602   0.600   2.006  1.3992 -3.5244 -1.5820
  115SAPE   C1212003   0.693   0.640   1.827  0.2374  0.8873  0.3919
  115SAPE  H12A12004   0.772   0.707   1.788  2.7579 -2.4859 -0.7804
  115SAPE  H12B12005   0.595   0.672   1.785  0.7667  0.4546 -1.2318
  115SAPE   C1112006   0.723   0.491   1.777 -0.0161  0.2095 -0.4520
  115SAPE  H11A12007   0.806   0.455   1.841 -0.5703  0.9081  0.6692
  115SAPE  H11B12008   0.763   0.479   1.674  1.9587  2.1677  0.0332
  115SAPE     P12009   0.557   0.329   1.918  0.2957  0.2009 -0.1682
  115SAPE   O1312010   0.427   0.253   1.892  0.0498 -0.1799  0.3617
  115SAPE   O1412011   0.673   0.242   1.944  0.2711  0.5929  0.6432
  115SAPE   O1212012   0.597   0.421   1.790 -0.1005  0.5159  0.2745
  115SAPE   O1112013   0.540   0.433   2.042  0.3171 -0.1647 -0.1361
  115SAPE    C112014   0.421   0.505   2.074  0.0321 -0.5348 -0.4818
  115SAPE    HA12015   0.415   0.602   2.020 -0.3962 -0.1972  0.1551
  115SAPE    HB12016   0.327   0.447   2.058 -1.2150  1.0317  0.7793
  115SAPE    C212017   0.419   0.556   2.225  0.0346  0.1764  0.0018
  115SAPE    HS12018   0.319   0.601   2.242  1.0221  2.3677  0.3302
  115SAPE   O2112019   0.519   0.661   2.235 -0.0669  0.0768 -0.3640
  115SAPE   C2112020   0.514   0.721   2.353 -0.5242  0.3390  0.4445
  115SAPE   O2212021   0.425   0.734   2.435  0.3022  0.4842 -0.0083
  115SAPE   C2212022   0.641   0.809   2.360 -0.0344 -0.2439 -0.2369
  115SAPE   H2R12023   0.639   0.865   2.265  1.5647 -0.4085 -0.3961
  115SAPE   H2S12024   0.612   0.882   2.438  0.9571  0.6712 -0.7060
  115SAPE    C312025   0.443   0.433   2.313  0.1858  0.0129 -0.7255
  115SAPE    HX12026   0.550   0.402   2.303  0.3036 -0.1134  0.6140
  115SAPE    HY12027   0.387   0.342   2.283  1.2281 -2.2604  3.4146
  115SAPE   O3112028   0.429   0.469   2.455  0.4373 -0.1784  0.1391
  115SAPE   C3112029   0.316   0.435   2.507  0.2447 -0.6129 -1.0751
  115SAPE   O3212030   0.228   0.368   2.462  0.1105 -0.1164  0.6524
  115SAPE   C3212031   0.319   0.483   2.652  0.5758 -0.2041 -0.0928
  115SAPE   H2X12032   0.335   0.592   2.660  0.5108 -0.2820  1.5702
  115SAPE   H2Y12033   0.396   0.422   2.705  0.6701 -1.7344 -1.8862
  115SAPE   C2312034   0.781   0.744   2.378  0.2882 -0.1788 -0.6701
  115SAPE   H3R12035   0.860   0.807   2.332  0.8171 -0.1121  0.3049
  115SAPE   H3S12036   0.789   0.640   2.341  1.1804 -1.1503  1.9931
  115SAPE   C2412037   0.832   0.754   2.530 -0.4348 -0.1841  0.2715
  115SAPE   H4R12038   0.831   0.858   2.569  1.1037 -0.3786  0.9037
  115SAPE   H4S12039   0.934   0.711   2.543 -0.7444 -1.0062  0.0790
  115SAPE   C2512040   0.745   0.659   2.608  0.3907  0.1925 -0.1406
  115SAPE   H5R12041   0.759   0.556   2.574  0.3984 -0.1568  0.8809
  115SAPE   C2612042   0.673   0.685   2.718 -0.1388  0.5549 -0.2111
  115SAPE   H6R12043   0.619   0.599   2.761 -0.2068 -0.6409 -2.5307
  115SAPE   C2712044   0.653   0.812   2.793 -1.0506 -0.7783 -0.0412
  115SAPE   H7R12045   0.733   0.886   2.773  0.6861 -2.4792  0.2500
  115SAPE   H7S12046   0.659   0.797   2.903 -0.3802  0.5926  0.1312
  115SAPE   C2812047   0.523   0.875   2.746  0.3475 -0.3871  0.6588
  115SAPE   H8R12048   0.503   0.896   2.640 -2.7325 -2.2273  0.7691
  115SAPE   C2912049   0.429   0.911   2.828  0.5579 -0.3412 -0.8222
  115SAPE   H9R12050   0.340   0.954   2.780  1.3302  0.4946 -1.5229
  115SAPE  C21012051   0.428   0.908   2.977 -0.0210  0.3095 -0.0946
  115SAPE  H10R12052   0.364   0.991   3.013  1.0713  2.0338 -1.9352
  115SAPE  H10S12053   0.521   0.956   3.013  0.3013  2.1133 -3.0224
  115SAPE  C21112054   0.400   0.777   3.048  1.3001  0.2363 -0.0492
  115SAPE  H11R12055   0.381   0.693   2.979 -1.3552 -0.7175  1.6888
  115SAPE  C21212056   0.369   0.770   3.184  0.2850  0.5881 -0.0077
  115SAPE  H12R12057   0.369   0.668   3.225  2.7310  0.3132 -0.5430
  115SAPE  C21312058   0.381   0.881   3.278 -0.3757 -1.3384 -0.3805
  115SAPE  H13R12059   0.295   0.951   3.268  0.0744 -0.6651  0.3503
  115SAPE  H13S12060   0.454   0.959   3.246 -1.0396  0.4345  2.1900
  115SAPE  C21412061   0.395   0.839   3.423 -0.2885 -0.7072 -0.2387
  115SAPE  H14R12062   0.378   0.734   3.450  0.1586 -0.6127  0.4444
  115SAPE  C21512063   0.414   0.926   3.522  0.0379 -0.4024  0.4274
  115SAPE  H15R12064   0.437   0.899   3.626  1.2406  0.7354  0.4812
  115SAPE  C21612065   0.437   1.073   3.513 -0.4954  0.0630 -0.6963
  115SAPE  H16R12066   0.417   1.114   3.411 -3.5992  1.5229  0.3779
  115SAPE  H16S12067   0.540   1.100   3.543 -0.9708  0.9906  0.1581
  115SAPE  C21712068   0.335   1.149   3.609  0.2086  0.6298 -0.1031
  115SAPE  H17R12069   0.229   1.130   3.583 -0.0015 -2.5508  2.4008
  115SAPE  H17S12070   0.358   1.258   3.604  2.8727  0.1942  0.9833
  115SAPE  C21812071   0.361   1.121   3.757  0.2867 -0.1696  0.6727
  115SAPE  H18R12072   0.342   1.013   3.778  2.4849 -0.8372 -0.5448
  115SAPE  H18S12073   0.288   1.183   3.813  0.3495 -0.8078  1.4889
  115SAPE  C21912074   0.501   1.172   3.790 -0.3034 -0.4499  0.1756
  115SAPE  H19R12075   0.521   1.269   3.741  1.4370 -0.7519  0.2177
  115SAPE  H19S12076   0.581   1.100   3.761  0.3302  0.3150 -0.0236
  115SAPE  C22012077   0.531   1.186   3.944 -0.5009  0.0172  0.4451
  115SAPE  H20R12078   0.461   1.257   3.993 -1.8395  0.9874 -2.6347
  115SAPE  H20S12079   0.638   1.209   3.957 -0.0751 -2.1087  1.1591
  115SAPE  H20T12080   0.516   1.083   3.982 -1.1019  0.7373  2.2747
  115SAPE   C3312081   0.189   0.445   2.735 -0.4230 -0.0242  0.2286
  115SAPE   H3X12082   0.227   0.457   2.839  2.1157  0.9811 -0.7184
  115SAPE   H3Y12083   0.163   0.338   2.723  0.1134 -0.3015  1.4072
  115SAPE   C3412084   0.061   0.524   2.717 -0.3621 -0.0093 -0.0145
  115SAPE   H4X12085   0.031   0.489   2.616 -0.0022  0.3917 -0.2639
  115SAPE   H4Y12086   0.094   0.630   2.713  1.5895 -0.5893 -0.4509
  115SAPE   C3512087  -0.047   0.490   2.820 -0.0117 -0.2738 -0.2070
  115SAPE   H5X12088  -0.067   0.381   2.822  0.5739 -0.4382 -1.9529
  115SAPE   H5Y12089  -0.142   0.535   2.784 -1.8409 -2.3835  1.6496
  115SAPE   C3612090  -0.008   0.537   2.961 -0.1023 -0.1835  0.5442
  115SAPE   H6X12091  -0.099   0.569   3.015 -0.0951  1.4280 -0.3238
  115SAPE   H6Y12092   0.056   0.628   2.968  1.4243 -1.2351  0.9091
  115SAPE   C3712093   0.027   0.426   3.065  0.4507  0.2438 -0.1344
  115SAPE   H7X12094   0.135   0.405   3.053  0.7675  1.8119 -0.2850
  115SAPE   H7Y12095  -0.035   0.337   3.043  1.6448 -1.6107  3.2897
  115SAPE   C3812096  -0.002   0.478   3.211 -0.2794 -0.0013 -0.1350
  115SAPE   H8X12097   0.028   0.391   3.274  3.0904  1.3329  0.2822
  115SAPE   H8Y12098  -0.108   0.497   3.240  0.0332 -0.7261  1.6586
  115SAPE   C3912099   0.084   0.599   3.256 -0.3663 -0.1557 -0.0731
  115SAPE   H9X12100   0.056   0.687   3.194 -0.0778  1.2227  1.6707
  115SAPE   H9Y12101   0.187   0.561   3.236  0.1831  1.2229  0.0603
  115SAPE  C31012102   0.078   0.641   3.403 -0.5620  0.2733  0.5243
  115SAPE  H10X12103  -0.030   0.656   3.421 -1.3411 -0.7720 -2.7027
  115SAPE  H10Y12104   0.127   0.740   3.417 -0.7494  0.2024  1.7529
  115SAPE  C31112105   0.154   0.541   3.500 -0.5501  0.7129 -0.7817
  115SAPE  H11X12106   0.257   0.523   3.460 -0.5970 -0.0175 -0.5823
  115SAPE  H11Y12107   0.097   0.446   3.496 -1.5455  1.2575  0.0394
  115SAPE  C31212108   0.171   0.589   3.647  0.3796  0.7593 -0.0729
  115SAPE  H12X12109   0.227   0.684   3.659 -0.1772  0.7373  3.6753
  115SAPE  H12Y12110   0.216   0.502   3.698 -1.5488 -0.9124 -1.0475
  115SAPE  C31312111   0.032   0.602   3.710  0.3713 -0.3758 -0.4231
  115SAPE  H13X12112  -0.017   0.503   3.718 -0.1721 -0.0658  0.1132
  115SAPE  H13Y12113  -0.041   0.668   3.660  1.5579  0.8217 -0.6256
  115SAPE  C31412114   0.059   0.647   3.858 -0.0102 -0.6376 -0.3914
  115SAPE  H14X12115  -0.042   0.656   3.904  0.4150 -2.6058  1.0498
  115SAPE  H14Y12116   0.108   0.746   3.869 -0.1504 -0.5550 -0.5008
  115SAPE  C31512117   0.134   0.539   3.939 -0.1147 -0.1754 -0.0350
  115SAPE  H15X12118   0.241   0.549   3.913  0.0548 -1.1362  0.2690
  115SAPE  H15Y12119   0.091   0.441   3.908  0.1042  0.2370 -1.7658
  115SAPE  C31612120   0.124   0.557   4.090 -0.3173  1.0948  0.4358
  115SAPE  H16X12121   0.022   0.582   4.125 -0.0159  0.4082  1.8726
  115SAPE  H16Y12122   0.193   0.639   4.118  0.5831 -0.4630  3.1063
  115SAPE  C31712123   0.161   0.426   4.172 -0.5384 -0.4681 -0.0875
  115SAPE  H17X12124   0.082   0.350   4.154 -1.5624  0.7029 -0.6792
  115SAPE  H17Y12125   0.172   0.453   4.279  0.3559 -0.6616 -0.1269
  115SAPE  C31812126   0.285   0.356   4.121 -0.5560 -0.0498 -0.8966
  115SAPE  H18X12127   0.307   0.281   4.200  0.2085 -1.1906 -2.1532
  115SAPE  H18Y12128   0.371   0.426   4.116 -1.8794  1.8287  1.0640
  115SAPE  H18Z12129   0.275   0.300   4.025  0.3409 -1.3796 -0.2511
  116SAPE     N12130   2.038   2.957   2.162 -0.0756 -0.1600  0.4094
  116SAPE   HN112131   2.089   2.875   2.125 -0.7975  0.5000 -2.2826
  116SAPE   HN212132   1.952   2.958   2.104  0.0193 -1.5332  0.2117
  116SAPE   HN312133   2.096   3.041   2.141  1.7328 -1.0220  1.7761
  116SAPE   C1212134   2.006   2.970   2.304 -0.0936 -0.4206 -0.9554
  116SAPE  H12A12135   2.104   2.968   2.358 -0.5563  3.9602  0.3693
  116SAPE  H12B12136   1.941   2.883   2.328 -0.5949  0.0684 -0.5148
  116SAPE   C1112137   1.936   3.095   2.350  0.0274 -0.2473 -0.3116
  116SAPE  H11A12138   2.002   3.184   2.347 -2.0027  1.3600  0.2387
  116SAPE  H11B12139   1.912   3.071   2.456  1.2923  2.3397  0.6409
  116SAPE     P12140   1.674   3.111   2.324  0.2578 -0.4040 -0.0861
  116SAPE   O1312141   1.592   3.110   2.198 -0.8021  0.4315  0.0363
  116SAPE   O1412142   1.664   3.002   2.424  0.4083 -0.8330  0.1520
  116SAPE   O1212143   1.821   3.109   2.265 -0.3179 -0.2371  0.6292
  116SAPE   O1112144   1.649   3.240   2.405 -0.1223 -0.2926  0.2458
  116SAPE    C112145   1.699   3.364   2.352  0.1316 -0.0544  0.0599
  116SAPE    HA12146   1.806   3.375   2.378  0.4490  1.1199 -1.6049
  116SAPE    HB12147   1.688   3.366   2.242 -0.3756 -1.9021  0.0455
  116SAPE    C212148   1.625   3.473   2.430  0.7256 -0.0703  0.1503
  116SAPE    HS12149   1.666   3.463   2.533 -0.1381 -0.7557  0.4312
  116SAPE   O2112150   1.492   3.443   2.434  0.7837 -0.3859  0.4658
  116SAPE   C2112151   1.409   3.451   2.328 -0.6752  0.5400 -0.1626
  116SAPE   O2212152   1.444   3.463   2.212 -0.1702  0.1762 -0.0984
  116SAPE   C2212153   1.266   3.424   2.366 -0.4157  0.1413 -0.3115
  116SAPE   H2R12154   1.255   3.338   2.435 -0.6934  0.2031 -0.2778
  116SAPE   H2S12155   1.242   3.519   2.419  1.4617  0.6533 -0.3079
  116SAPE    C312156   1.639   3.621   2.380  0.4715  0.0314 -0.1360
  116SAPE    HX12157   1.624   3.640   2.271 -0.2907  0.7448  0.0736
  116SAPE    HY12158   1.744   3.649   2.403  0.4953 -0.5935  0.5561
  116SAPE   O3112159   1.544   3.720   2.439  0.1105 -0.2483  0.1185
  116SAPE   C3112160   1.580   3.764   2.565  0.1735  0.3147 -0.1369
  116SAPE   O3212161   1.673   3.726   2.631 -0.0185 -0.1784  0.5135
  116SAPE   C3212162   1.469   3.861   2.621 -0.7093  0.1623  0.8794
  116SAPE   H2X12163   1.404   3.896   2.537  1.4415 -0.4774 -1.1703
  116SAPE   H2Y12164   1.524   3.950   2.659  0.3309 -0.3176  0.5423
  116SAPE   C2312165   1.167   3.401   2.247  0.1505  0.1261  0.0372
  116SAPE   H3R12166   1.182   3.304   2.195 -0.2193  0.5964 -0.9849
  116SAPE   H3S12167   1.177   3.484   2.174 -0.5674  2.1957  2.1943
  116SAPE   C2412168   1.017   3.380   2.294  0.4018 -0.3525 -0.2627
  116SAPE   H4R12169   1.013   3.296   2.366 -2.0135  2.5068  3.3218
  116SAPE   H4S12170   0.953   3.351   2.208 -1.6842 -0.2845  1.1887
  116SAPE   C2512171   0.961   3.499   2.372  0.2435 -0.4912  0.7981
  116SAPE   H5R12172   0.978   3.593   2.318  1.5307  0.6371  3.0323
  116SAPE   C2612173   0.911   3.498   2.498 -0.0526  0.3200 -0.2888
  116SAPE   H6R12174   0.877   3.591   2.547 -1.1564 -1.0967  1.8260
  116SAPE   C2712175   0.897   3.386   2.602  0.7564 -0.7187  0.3946
  116SAPE   H7R12176   0.896   3.435   2.702  0.9077 -0.3293  0.2092
  116SAPE   H7S12177   0.986   3.320   2.605 -0.7675 -2.8159  2.2700
  116SAPE   C2812178   0.779   3.309   2.563 -0.2761  0.4374 -0.2124
  116SAPE   H8R12179   0.757   3.309   2.455 -2.3351  0.2106  0.1638
  116SAPE   C2912180   0.680   3.256   2.644  0.2602 -1.1561 -0.3676
  116SAPE   H9R12181   0.597   3.203   2.595  1.3881 -2.9821 -0.4311
  116SAPE  C21012182   0.675   3.263   2.800  0.0168 -0.0909  0.1565
  116SAPE  H10R12183   0.569   3.247   2.831 -0.2356  2.2627  0.6297
  116SAPE  H10S12184   0.697   3.369   2.823 -1.1833 -0.0012  0.9741
  116SAPE  C21112185   0.773   3.177   2.873  0.2054 -0.1651 -0.0700
  116SAPE  H11R12186   0.862   3.230   2.909  0.7131  0.4005 -2.0635
  116SAPE  C21212187   0.740   3.061   2.926 -0.1385 -0.4494  0.2361
  116SAPE  H12R12188   0.813   3.000   2.982  1.6109 -1.3037 -2.7838
  116SAPE  C21312189   0.614   2.982   2.890 -0.0543  0.8816  0.4103
  116SAPE  H13R12190   0.565   3.031   2.803  2.1075  0.8300 -0.9322
  116SAPE  H13S12191   0.540   2.983   2.972  0.6687  1.4575  1.0721
  116SAPE  C21412192   0.648   2.837   2.854 -0.9498 -0.2164  0.0652
  116SAPE  H14R12193   0.699   2.809   2.761 -0.8743 -0.4471  0.1745
  116SAPE  C21512194   0.619   2.733   2.930  0.2492 -0.6241  0.5853
  116SAPE  H15R12195   0.628   2.628   2.898 -0.4812 -0.4146 -0.3488
  116SAPE  C21612196   0.547   2.734   3.065 -0.9913 -0.0031  0.5873
  116SAPE  H16R12197   0.453   2.791   3.051 -1.0494 -0.5293 -1.7232
  116SAPE  H16S12198   0.599   2.782   3.150  0.2973  1.7911 -1.1089
  116SAPE  C21712199   0.499   2.593   3.112  0.1453 -0.0872  0.6420
  116SAPE  H17R12200   0.587   2.535   3.147  1.4696  0.5922 -1.3464
  116SAPE  H17S12201   0.458   2.538   3.025  2.3843 -0.6472 -0.1420
  116SAPE  C21812202   0.393   2.604   3.219 -0.9144  0.1885 -0.0023
  116SAPE  H18R12203   0.310   2.667   3.180 -1.9957 -0.8359  0.6176
  116SAPE  H18S12204   0.432   2.656   3.310 -1.3823  1.0242 -0.2651
  116SAPE  C21912205   0.343   2.474   3.257  0.1731 -0.3122 -0.3008
  116SAPE  H19R12206   0.421   2.396   3.266  0.3618 -0.1005 -0.0666
  116SAPE  H19S12207   0.272   2.448   3.175 -1.4488  1.1927  0.5336
  116SAPE  C22012208   0.274   2.482   3.390 -0.1088 -0.2673 -0.6744
  116SAPE  H20R12209   0.349   2.468   3.471 -0.2138 -0.2697 -0.5781
  116SAPE  H20S12210   0.206   2.395   3.406 -1.3237  0.6145 -0.9234
  116SAPE  H20T12211   0.219   2.577   3.408 -1.3191 -1.0505 -0.1024
  116SAPE   C3312212   1.374   3.787   2.719 -0.0003  0.9684 -0.3884
  116SAPE   H3X12213   1.320   3.697   2.682 -3.3572  1.7177  2.1692
  116SAPE   H3Y12214   1.296   3.860   2.747 -1.0807  0.3747 -1.7128
  116SAPE   C3412215   1.434   3.741   2.848 -0.6753 -0.1064 -0.4017
  116SAPE   H4X12216   1.517   3.815   2.852 -2.6317  2.2870 -1.4473
  116SAPE   H4Y12217   1.472   3.637   2.857 -1.0426 -0.0845  2.3289
  116SAPE   C3512218   1.351   3.756   2.969 -0.3761 -0.8213 -0.4359
  116SAPE   H5X12219   1.264   3.688   2.952 -0.6969 -0.3142 -0.8817
  116SAPE   H5Y12220   1.319   3.863   2.974 -0.1948 -0.7603 -0.5719
  116SAPE   C3612221   1.420   3.717   3.102 -0.3805 -0.0693 -0.4606
  116SAPE   H6X12222   1.510   3.782   3.098  0.3535 -0.9821  0.6118
  116SAPE   H6Y12223   1.459   3.613   3.098  1.9158  0.6982  0.3550
  116SAPE   C3712224   1.341   3.723   3.239 -0.1833 -0.6675  0.2149
  116SAPE   H7X12225   1.263   3.648   3.259 -0.5536  0.1348  1.9361
  116SAPE   H7Y12226   1.304   3.828   3.240  0.1385 -0.5374 -0.4259
  116SAPE   C3812227   1.435   3.720   3.371  0.2801  0.1626 -0.5754
  116SAPE   H8X12228   1.503   3.808   3.368 -0.0826  0.6020  2.0846
  116SAPE   H8Y12229   1.498   3.632   3.349  2.6636  2.4557 -4.0777
  116SAPE   C3912230   1.346   3.710   3.502 -0.1354 -0.2467  1.2654
  116SAPE   H9X12231   1.291   3.614   3.493  0.0123 -0.3353  1.2950
  116SAPE   H9Y12232   1.266   3.786   3.496  0.7620  0.7135  1.1913
  116SAPE  C31012233   1.437   3.726   3.624  0.6566 -0.6074  0.0931
  116SAPE  H10X12234   1.476   3.828   3.605 -0.8964  0.0762  0.4286
  116SAPE  H10Y12235   1.523   3.656   3.614  0.8197 -0.2164 -1.5384
  116SAPE  C31112236   1.352   3.714   3.753 -0.9424 -0.0936 -0.2333
  116SAPE  H11X12237   1.275   3.634   3.742  1.0276 -2.0470 -0.3828
  116SAPE  H11Y12238   1.302   3.811   3.775  0.7765  0.0918  3.8869
  116SAPE  C31212239   1.437   3.681   3.879 -0.6509  0.0228  0.8232
  116SAPE  H12X12240   1.501   3.769   3.902 -1.2557  0.2873  1.5175
  116SAPE  H12Y12241   1.503   3.594   3.856 -1.4486 -0.8387  1.6938
  116SAPE  C31312242   1.344   3.641   3.995 -0.0125 -0.0121 -0.5455
  116SAPE  H13X12243   1.270   3.566   3.958 -1.4124  1.8108 -1.6010
  116SAPE  H13Y12244   1.283   3.728   4.027  0.2599 -0.2455  0.6764
  116SAPE  C31412245   1.424   3.585   4.106 -1.0504  0.3460 -0.3423
  116SAPE  H14X12246   1.483   3.662   4.161  0.7673 -0.4375 -1.1172
  116SAPE  H14Y12247   1.492   3.508   4.063 -1.0441  0.8217 -1.2126
  116SAPE  C31512248   1.327   3.520   4.205  0.0225 -0.3567 -0.0050
  116SAPE  H15X12249   1.260   3.457   4.142 -4.7144  3.3835  0.7276
  116SAPE  H15Y12250   1.262   3.604   4.237  0.2705  1.3539 -3.4725
  116SAPE  C31612251   1.398   3.453   4.317  0.1396  0.2077 -0.4253
  116SAPE  H16X12252   1.468   3.533   4.352  1.1266 -0.1340 -1.5484
  116SAPE  H16Y12253   1.461   3.370   4.279  1.2859  0.5654  0.6161
  116SAPE  C31712254   1.315   3.415   4.436 -0.0772  0.0125 -0.2155
  116SAPE  H17X12255   1.223   3.364   4.401 -0.1925  0.2123 -0.2102
  116SAPE  H17Y12256   1.307   3.505   4.501  1.4609  0.1188 -0.1424
  116SAPE  C31812257   1.391   3.313   4.523 -0.5308 -0.1551 -1.2514
  116SAPE  H18X12258   1.344   3.284   4.618  2.8439  0.0632  0.6564
  116SAPE  H18Y12259   1.485   3.363   4.556 -1.1576  0.2393 -0.0166
  116SAPE  H18Z12260   1.424   3.221   4.470 -1.2626  0.2754 -2.5077
  117SOPE     N12261   6.333   4.900   6.702  0.4905  0.3551 -0.1983
  117SOPE   HN112262   6.275   4.845   6.636  0.4384  0.2479 -0.0625
  117SOPE   HN212263   6.404   4.840   6.748 -0.0488 -1.4253 -1.5737
  117SOPE   HN312264   6.257   4.937   6.761 -0.5999 -0.1919 -1.2278
  117SOPE   C1212265   6.403   5.021   6.641  0.4267 -0.8382 -0.0983
  117SOPE  H12A12266   6.456   5.001   6.545 -0.1928  0.3140 -0.6967
  117SOPE  H12B12267   6.476   5.052   6.720  0.4805  4.5743 -1.8460
  117SOPE   C1112268   6.302   5.143   6.632  0.6773  0.0609  0.3865
  117SOPE  H11A12269   6.337   5.219   6.559 -1.8281 -0.3695 -1.3897
  117SOPE  H11B12270   6.313   5.183   6.734  0.8414 -3.9916  2.1724
  117SOPE     P12271   6.098   5.101   6.470  0.0820 -0.1123  0.2098
  117SOPE   O1312272   6.124   5.227   6.394 -0.3725  0.3132 -0.7342
  117SOPE   O1412273   5.956   5.065   6.486  0.2093 -0.9795 -0.3135
  117SOPE   O1212274   6.166   5.107   6.614 -0.6208 -0.6092  0.3329
  117SOPE   O1112275   6.185   4.978   6.418  0.0705 -0.2637  0.6256
  117SOPE    C112276   6.273   4.996   6.308 -0.8027  0.5006 -0.1393
  117SOPE    HA12277   6.375   5.029   6.336  0.2467 -1.5534 -1.2750
  117SOPE    HB12278   6.244   5.072   6.232  1.0949 -0.8874 -2.4096
  117SOPE    C212279   6.295   4.846   6.252 -0.4546 -0.5090  0.5178
  117SOPE    HS12280   6.321   4.865   6.146 -2.1885  0.9772  0.3059
  117SOPE   O2112281   6.177   4.765   6.277 -0.3651  0.3860  0.3785
  117SOPE   C2112282   6.077   4.788   6.194  0.4771  0.9050 -0.5621
  117SOPE   O2212283   6.073   4.876   6.116 -0.0705  0.4622  0.4180
  117SOPE   C2212284   5.957   4.694   6.225  0.7435 -0.1667  0.6895
  117SOPE   H2R12285   5.892   4.743   6.299  0.3001  1.9170 -0.9920
  117SOPE   H2S12286   5.992   4.598   6.269 -3.0620 -2.9673 -1.6937
  117SOPE    C312287   6.416   4.785   6.335 -0.1849 -0.7858 -0.3996
  117SOPE    HX12288   6.417   4.674   6.342 -1.2404 -0.7573  0.4958
  117SOPE    HY12289   6.406   4.815   6.441 -1.9788 -2.0669 -0.1706
  117SOPE   O3112290   6.547   4.844   6.292 -0.6300  0.2127  0.3821
  117SOPE   C3112291   6.590   4.822   6.166 -1.0180  0.1366 -0.7111
  117SOPE   O3212292   6.533   4.746   6.086  0.0890 -0.6232 -0.5370
  117SOPE   C3212293   6.727   4.881   6.142  0.6298 -0.4738  0.2448
  117SOPE   H2X12294   6.802   4.801   6.162  1.4722  0.5718  1.4245
  117SOPE   H2Y12295   6.754   4.958   6.217 -0.2696  1.9470 -1.7666
  117SOPE   C2312296   5.886   4.657   6.093  0.2296 -0.8831  0.0581
  117SOPE   H3R12297   5.855   4.751   6.044  0.2452 -1.1609 -0.4890
  117SOPE   H3S12298   5.790   4.611   6.126  0.2924 -1.0166  0.0548
  117SOPE   C2412299   5.957   4.552   6.014  0.3644 -0.7423  0.4378
  117SOPE   H4R12300   6.063   4.581   5.997 -0.0406  2.1396  2.1455
  117SOPE   H4S12301   5.968   4.456   6.069  2.1883 -1.0023 -0.2978
  117SOPE   C2512302   5.884   4.526   5.878 -0.0595 -0.1995 -0.2546
  117SOPE   H5R12303   5.877   4.417   5.858 -0.5802 -0.1390 -0.4304
  117SOPE   H5S12304   5.780   4.557   5.903  1.2078  2.5884  2.1680
  117SOPE   C2612305   5.936   4.617   5.760  0.3391  0.2307 -0.2316
  117SOPE   H6R12306   5.940   4.725   5.789 -0.1418  1.1253 -3.1593
  117SOPE   H6S12307   6.042   4.587   5.747  0.4868 -0.1551  1.5748
  117SOPE   C2712308   5.848   4.593   5.631  0.0305  0.3719 -0.4568
  117SOPE   H7R12309   5.875   4.487   5.613 -1.7027 -0.3243  0.7845
  117SOPE   H7S12310   5.738   4.604   5.648 -0.0783 -1.7947  0.6098
  117SOPE   C2812311   5.885   4.689   5.508 -0.1859  0.2311  0.3594
  117SOPE   H8R12312   5.850   4.793   5.522  3.6307  1.8357 -0.5769
  117SOPE   H8S12313   5.989   4.716   5.536 -0.6023  1.9727  0.3256
  117SOPE   C2912314   5.876   4.651   5.361  0.0213 -0.0079  0.2001
  117SOPE   H9112315   5.797   4.575   5.347  0.3196 -0.3684  0.4493
  117SOPE  C21012316   5.941   4.694   5.250 -0.3200  0.2803 -0.1644
  117SOPE  H10112317   5.917   4.652   5.151 -2.5039  0.5514  0.1902
  117SOPE  C21112318   6.047   4.805   5.253  0.1478 -1.0917 -0.5418
  117SOPE  H11R12319   6.137   4.770   5.308 -1.3255 -2.1876  1.3317
  117SOPE  H11S12320   6.006   4.884   5.320 -1.9475 -0.5151 -2.3961
  117SOPE  C21212321   6.082   4.877   5.115  0.0744 -0.2325  0.0404
  117SOPE  H12R12322   6.023   4.971   5.119  1.4817  0.7487 -1.3668
  117SOPE  H12S12323   6.054   4.813   5.028 -0.2978 -1.2969  0.9110
  117SOPE  C21312324   6.227   4.914   5.093 -0.4361  0.2099  0.0201
  117SOPE  H13R12325   6.290   4.825   5.074  0.2516  0.8580 -0.8239
  117SOPE  H13S12326   6.272   4.977   5.172  2.1718 -2.3483  0.7194
  117SOPE  C21412327   6.243   4.987   4.960  0.0275 -0.7790  0.3629
  117SOPE  H14R12328   6.182   5.079   4.973  0.1205 -0.5146 -0.9295
  117SOPE  H14S12329   6.195   4.937   4.874 -0.3116  1.2413 -0.6973
  117SOPE  C21512330   6.388   5.020   4.915  0.2459 -0.0492  0.0236
  117SOPE  H15R12331   6.383   5.066   4.815  0.8418 -1.1898 -0.5534
  117SOPE  H15S12332   6.442   4.924   4.900 -0.9219 -0.3823 -2.4974
  117SOPE  C21612333   6.470   5.111   5.011  0.6838  0.2486  0.0023
  117SOPE  H16R12334   6.576   5.125   4.978  0.2326  0.3300 -1.4944
  117SOPE  H16S12335   6.481   5.059   5.108 -0.3646  1.0003  0.5345
  117SOPE  C21712336   6.395   5.241   5.032 -0.5475  0.2339 -0.6688
  117SOPE  H17R12337   6.432   5.280   5.129 -1.4509 -0.2619 -0.1191
  117SOPE  H17S12338   6.287   5.219   5.040 -0.1887 -1.0785  1.0228
  117SOPE  C21812339   6.418   5.340   4.912 -0.0153  0.1077  0.6267
  117SOPE  H18R12340   6.525   5.334   4.881 -0.3515  1.2485 -0.8401
  117SOPE  H18S12341   6.392   5.446   4.934 -0.5324 -0.3524  2.4711
  117SOPE  H18T12342   6.359   5.303   4.826  0.9194 -2.5935  1.0342
  117SOPE   C3312343   6.731   4.951   6.007  0.1263 -0.7581  0.3235
  117SOPE   H3X12344   6.681   5.049   5.995  0.4420 -0.8768 -2.6051
  117SOPE   H3Y12345   6.696   4.880   5.930  1.1170 -1.4298  0.4767
  117SOPE   C3412346   6.881   4.983   5.972 -0.3172 -0.4517 -0.2679
  117SOPE   H4X12347   6.929   4.884   5.954 -1.5696 -1.4400  1.4840
  117SOPE   H4Y12348   6.938   5.041   6.048  2.0959  0.1689 -2.4016
  117SOPE   C3512349   6.891   5.074   5.850 -0.2250  0.2637 -0.1746
  117SOPE   H5X12350   6.998   5.098   5.838 -0.1052  0.0829  0.4748
  117SOPE   H5Y12351   6.838   5.171   5.864  1.1460  0.5589  5.1689
  117SOPE   C3612352   6.850   5.002   5.717 -0.2805 -0.4037  0.0637
  117SOPE   H6X12353   6.740   4.994   5.706 -0.2639 -0.1124 -0.3453
  117SOPE   H6Y12354   6.890   4.899   5.734 -2.4991 -1.2809  0.2803
  117SOPE   C3712355   6.902   5.064   5.593  0.0892 -0.7012 -0.2567
  117SOPE   H7X12356   7.013   5.074   5.598  0.0249 -0.1975  0.3047
  117SOPE   H7Y12357   6.849   5.162   5.597  0.4384 -0.5086 -0.3117
  117SOPE   C3812358   6.859   5.002   5.464 -0.2328  0.1285  0.5163
  117SOPE   H8X12359   6.749   5.007   5.448 -0.3445 -1.9500  0.2779
  117SOPE   H8Y12360   6.884   4.894   5.469  0.7640  0.3123 -0.2789
  117SOPE   C3912361   6.929   5.050   5.334 -0.1036 -0.4448  0.7249
  117SOPE   H9X12362   7.036   5.026   5.352  0.0621 -0.5564 -0.3424
  117SOPE   H9Y12363   6.925   5.161   5.324  1.3544 -0.5063 -1.1767
  117SOPE  C31012364   6.877   4.973   5.207  0.0368 -0.0861 -0.5955
  117SOPE  H10X12365   6.767   4.983   5.208 -0.3555 -2.2780  3.5448
  117SOPE  H10Y12366   6.894   4.864   5.223  2.4453  0.5944  2.3985
  117SOPE  C31112367   6.923   5.027   5.070  0.1745  0.2131  0.1120
  117SOPE  H11X12368   6.890   5.130   5.045 -0.9988  0.4208  2.3144
  117SOPE  H11Y12369   6.878   4.964   4.990  1.3279 -0.1183 -0.3018
  117SOPE  C31212370   7.081   5.027   5.059  1.0744  0.3533 -0.4520
  117SOPE  H12X12371   7.117   4.922   5.060  0.0132 -0.0409 -1.4918
  117SOPE  H12Y12372   7.117   5.070   5.155 -0.9568 -1.6330  1.3037
  117SOPE  C31312373   7.128   5.100   4.935  0.6409  0.0288  1.0784
  117SOPE  H13X12374   7.157   5.205   4.953  0.0401  0.3614  0.1915
  117SOPE  H13Y12375   7.053   5.098   4.853  1.0947  0.9008  0.6284
  117SOPE  C31412376   7.254   5.023   4.886 -0.8658  0.0324  0.1060
  117SOPE  H14X12377   7.218   4.926   4.845  1.0347 -0.9852  0.7114
  117SOPE  H14Y12378   7.319   5.003   4.974  0.3574 -1.7306 -1.1283
  117SOPE  C31512379   7.338   5.083   4.766 -0.1979  1.0042 -1.0448
  117SOPE  H15X12380   7.444   5.052   4.774  0.0225  2.0615  0.5287
  117SOPE  H15Y12381   7.333   5.190   4.794  1.6572  0.7912  0.2776
  117SOPE  C31612382   7.273   5.063   4.634 -0.6835 -0.1795  0.6822
  117SOPE  H16X12383   7.166   5.091   4.641 -0.0834  2.8889 -0.6274
  117SOPE  H16Y12384   7.285   4.968   4.578  1.7203  0.6438 -0.3450
  117SOPE  C31712385   7.322   5.170   4.538  0.1722 -0.4559 -0.8088
  117SOPE  H17X12386   7.293   5.274   4.566  1.0473 -0.7746  1.5309
  117SOPE  H17Y12387   7.272   5.147   4.442  0.0959  0.2561 -0.9467
  117SOPE  C31812388   7.470   5.158   4.516  0.0715  0.5007 -0.5981
  117SOPE  H18X12389   7.490   5.054   4.483 -4.1476 -0.8497  0.5473
  117SOPE  H18Y12390   7.527   5.186   4.607 -0.5922 -1.3665  0.4508
  117SOPE  H18Z12391   7.504   5.220   4.430  0.9501 -1.3133 -1.6250
  118SOPE     N12392   0.715   6.809   6.599 -0.2934 -0.1253 -0.2996
  118SOPE   HN112393   0.683   6.824   6.697 -0.5950 -3.6939  0.2893
  118SOPE   HN212394   0.691   6.888   6.535 -1.8818 -0.9716 -0.8118
  118SOPE   HN312395   0.681   6.719   6.558 -1.1792 -0.1234  0.3988
  118SOPE   C1212396   0.864   6.798   6.608  0.0037 -0.1061 -0.2281
  118SOPE  H12A12397   0.895   6.851   6.700  0.3642  1.2672 -1.1036
  118SOPE  H12B12398   0.909   6.857   6.525 -0.1758  1.3191  0.6364
  118SOPE   C1112399   0.896   6.649   6.612 -0.0267 -0.0470  0.2811
  118SOPE  H11A12400   0.833   6.615   6.697 -0.4333  0.2488  0.0958
  118SOPE  H11B12401   1.003   6.638   6.642  0.2764  2.3926  0.3177
  118SOPE     P12402   0.935   6.543   6.381 -0.2182  0.0634  0.1499
  118SOPE   O1312403   0.856   6.471   6.276 -0.0512 -0.0120  0.4285
  118SOPE   O1412404   1.056   6.471   6.435  0.2692 -0.1314  0.4164
  118SOPE   O1212405   0.843   6.580   6.500 -0.1512 -0.5063 -0.0145
  118SOPE   O1112406   0.990   6.684   6.323 -0.4450  0.5615 -0.1000
  118SOPE    C112407   0.905   6.771   6.248 -0.2534  0.8322 -0.2657
  118SOPE    HA12408   0.877   6.860   6.308 -3.1650 -1.0775  1.4924
  118SOPE    HB12409   0.807   6.722   6.228 -0.4129  0.3749  1.4489
  118SOPE    C212410   0.956   6.792   6.103  0.2978 -0.5936  0.0261
  118SOPE    HS12411   1.044   6.858   6.097 -1.4366  1.7087 -1.8335
  118SOPE   O2112412   0.846   6.850   6.020  0.2696  0.4708  0.1333
  118SOPE   C2112413   0.825   6.975   6.042 -0.4903  0.5660 -0.4139
  118SOPE   O2212414   0.893   7.048   6.118  0.1559  0.0623  0.4209
  118SOPE   C2212415   0.689   7.022   5.988  0.0287  0.3456 -0.3337
  118SOPE   H2R12416   0.628   7.057   6.073  0.8680 -0.5407  0.6546
  118SOPE   H2S12417   0.637   6.934   5.944 -0.0449  0.8025 -1.1832
  118SOPE    C312418   0.995   6.656   6.036 -0.4245  0.6020  0.5251
  118SOPE    HX12419   0.913   6.585   6.060 -1.1635  2.1309  2.8615
  118SOPE    HY12420   1.086   6.604   6.073 -0.4959  0.1969  0.1460
  118SOPE   O3112421   1.010   6.661   5.890  0.0533 -0.5242  0.3428
  118SOPE   C3112422   1.122   6.728   5.862 -0.0584 -0.0020 -0.5678
  118SOPE   O3212423   1.212   6.758   5.941 -0.5802 -0.1349 -0.0080
  118SOPE   C3212424   1.142   6.747   5.704 -0.1038 -0.5630 -0.2445
  118SOPE   H2X12425   1.044   6.728   5.656  0.2158 -0.0341 -1.1392
  118SOPE   H2Y12426   1.217   6.669   5.676  0.8699 -1.3397  3.9248
  118SOPE   C2312427   0.708   7.139   5.891  0.0502  0.1350 -0.3806
  118SOPE   H3R12428   0.785   7.209   5.930 -0.1498 -0.0925  0.4278
  118SOPE   H3S12429   0.617   7.201   5.881  0.0524 -0.1186 -2.4006
  118SOPE   C2412430   0.757   7.096   5.747  0.7983  0.2150  0.6506
  118SOPE   H4R12431   0.859   7.052   5.745  1.3755  1.4175 -2.3320
  118SOPE   H4S12432   0.696   7.013   5.705  1.3764  1.2219 -2.4675
  118SOPE   C2512433   0.756   7.212   5.642  0.2484  0.6688  0.4724
  118SOPE   H5R12434   0.652   7.250   5.637 -0.5020 -0.8844  2.6746
  118SOPE   H5S12435   0.821   7.298   5.670  1.9382 -0.8989  1.5770
  118SOPE   C2612436   0.813   7.176   5.504  0.3203  0.1008  0.1905
  118SOPE   H6R12437   0.917   7.138   5.500  0.6350  0.8758  0.6869
  118SOPE   H6S12438   0.752   7.090   5.470 -2.4159  1.0545  2.3076
  118SOPE   C2712439   0.810   7.292   5.411 -0.4590 -0.0608  0.0173
  118SOPE   H7R12440   0.719   7.354   5.427 -0.3853 -0.2409  1.1928
  118SOPE   H7S12441   0.904   7.348   5.430 -0.5382  0.2867 -0.5854
  118SOPE   C2812442   0.811   7.253   5.255 -0.4701 -0.1610 -0.1153
  118SOPE   H8R12443   0.897   7.183   5.244  0.1917  0.3975  1.2784
  118SOPE   H8S12444   0.714   7.202   5.239 -1.1342  0.9569  0.2422
  118SOPE   C2912445   0.813   7.372   5.162 -0.1605  0.9034  0.8034
  118SOPE   H9112446   0.905   7.432   5.161  0.5846 -0.2169 -0.1362
  118SOPE  C21012447   0.714   7.413   5.085  0.1101 -0.7183  0.6158
  118SOPE  H10112448   0.732   7.505   5.027  1.9493 -0.9306  0.7840
  118SOPE  C21112449   0.581   7.343   5.072  0.2953  0.2083 -0.8110
  118SOPE  H11R12450   0.512   7.382   5.150  0.6223 -0.6314 -0.0800
  118SOPE  H11S12451   0.591   7.235   5.095 -1.0675 -0.2970 -2.4158
  118SOPE  C21212452   0.516   7.350   4.939  0.1575 -0.4140 -0.0460
  118SOPE  H12R12453   0.499   7.459   4.922  1.7994 -0.3631 -1.6959
  118SOPE  H12S12454   0.413   7.312   4.951  0.3684 -0.9437  0.1144
  118SOPE  C21312455   0.587   7.292   4.822 -0.8050 -0.8940  0.4138
  118SOPE  H13R12456   0.507   7.252   4.756 -2.6037  1.9292  0.7421
  118SOPE  H13S12457   0.650   7.204   4.847 -0.3041 -0.9727 -1.0545
  118SOPE  C21412458   0.679   7.384   4.734  0.7312  0.0956 -0.0147
  118SOPE  H14R12459   0.720   7.314   4.657  0.0450 -1.3677  0.9061
  118SOPE  H14S12460   0.762   7.414   4.801  1.9338 -0.9954 -0.9540
  118SOPE  C21512461   0.616   7.508   4.670  0.4080 -0.7016  0.4090
  118SOPE  H15R12462   0.685   7.574   4.614 -1.3798  2.2482  1.4311
  118SOPE  H15S12463   0.573   7.577   4.746  0.7285 -0.6533  0.5480
  118SOPE  C21612464   0.512   7.469   4.567  0.1904  0.0429  0.3877
  118SOPE  H16R12465   0.431   7.410   4.616  0.6666 -0.1217  0.9848
  118SOPE  H16S12466   0.560   7.403   4.492 -0.0112 -0.9208  1.0894
  118SOPE  C21712467   0.439   7.578   4.492  0.4901 -0.7490 -0.0145
  118SOPE  H17R12468   0.514   7.628   4.426  0.1829  1.6852  1.3250
  118SOPE  H17S12469   0.408   7.653   4.569 -2.1332 -2.1702  0.4166
  118SOPE  C21812470   0.321   7.517   4.411  0.8496  0.5273 -0.4620
  118SOPE  H18R12471   0.364   7.464   4.323 -0.5816 -0.8929 -0.3406
  118SOPE  H18S12472   0.259   7.601   4.374 -0.0107  1.1323  2.1362
  118SOPE  H18T12473   0.262   7.453   4.480 -1.5482  3.0107 -0.0426
  118SOPE   C3312474   1.192   6.894   5.674  0.1106 -0.2152  0.3040
  118SOPE   H3X12475   1.276   6.936   5.734 -1.4513  2.7117  0.6099
  118SOPE   H3Y12476   1.112   6.967   5.695  0.7056  0.4176  0.4297
  118SOPE   C3412477   1.228   6.905   5.522 -0.4054 -0.3200  0.5724
  118SOPE   H4X12478   1.306   6.829   5.503 -1.5183 -0.8202 -2.7019
  118SOPE   H4Y12479   1.261   7.009   5.502 -0.7469 -0.5641 -1.5479
  118SOPE   C3512480   1.119   6.883   5.414 -0.5109 -0.4292  0.1819
  118SOPE   H5X12481   1.043   6.960   5.435  2.1367  1.5975  3.4016
  118SOPE   H5Y12482   1.074   6.782   5.420 -1.1941 -0.4206 -3.0791
  118SOPE   C3612483   1.185   6.889   5.278 -0.3011 -0.0285  0.7879
  118SOPE   H6X12484   1.261   6.808   5.270  1.8630  2.0600 -1.4230
  118SOPE   H6Y12485   1.247   6.981   5.280 -1.0490  0.6059  4.9961
  118SOPE   C3712486   1.095   6.886   5.160 -0.1623 -0.1723  0.6776
  118SOPE   H7X12487   1.020   6.967   5.170  0.7801  1.1061 -1.7556
  118SOPE   H7Y12488   1.038   6.791   5.162 -0.0834 -0.2211  0.5912
  118SOPE   C3812489   1.165   6.900   5.022 -0.2019 -0.1247 -0.6413
  118SOPE   H8X12490   1.264   6.851   5.027  0.5717  1.5033  1.7478
  118SOPE   H8Y12491   1.188   7.009   5.020  1.1522 -0.3349  1.2175
  118SOPE   C3912492   1.086   6.853   4.906  0.1933 -0.3972  0.9198
  118SOPE   H9X12493   1.015   6.934   4.878 -0.5076 -0.7693  1.5835
  118SOPE   H9Y12494   1.047   6.750   4.923 -0.4399 -0.7240 -1.9477
  118SOPE  C31012495   1.176   6.828   4.779  0.2466 -0.3123  0.7662
  118SOPE  H10X12496   1.266   6.765   4.796  0.4143  0.0359  1.1898
  118SOPE  H10Y12497   1.217   6.928   4.752 -0.4293 -0.4988 -1.0597
  118SOPE  C31112498   1.097   6.763   4.661 -0.3515 -0.4111  0.3293
  118SOPE  H11X12499   1.020   6.838   4.635 -0.4990 -0.8264 -0.4468
  118SOPE  H11Y12500   1.055   6.674   4.714  1.8870 -0.8190  1.5510
  118SOPE  C31212501   1.192   6.733   4.540 -0.3790 -0.3289  0.0968
  118SOPE  H12X12502   1.160   6.635   4.499  1.4110 -0.3205 -1.4652
  118SOPE  H12Y12503   1.299   6.718   4.567 -0.4312 -1.5743 -0.2883
  118SOPE  C31312504   1.162   6.835   4.433 -0.0145  0.3915  0.7004
  118SOPE  H13X12505   1.132   6.935   4.470 -1.6742  0.2757 -0.2338
  118SOPE  H13Y12506   1.071   6.804   4.377  0.2877  1.2705 -0.3248
  118SOPE  C31412507   1.277   6.866   4.334 -0.0142  0.2299 -0.0667
  118SOPE  H14X12508   1.273   6.781   4.263 -0.5718 -0.2500  0.5240
  118SOPE  H14Y12509   1.368   6.861   4.396  1.0511  1.9735 -1.3803
  118SOPE  C31512510   1.280   6.997   4.249 -0.6099  0.0554 -0.0857
  118SOPE  H15X12511   1.283   7.088   4.314 -0.6976 -0.6528  0.9349
  118SOPE  H15Y12512   1.189   7.012   4.187 -0.3045 -1.2407 -0.8644
  118SOPE  C31612513   1.410   7.020   4.162 -0.6020  0.1674 -0.4704
  118SOPE  H16X12514   1.410   6.942   4.083 -1.2520  0.7478 -1.0627
  118SOPE  H16Y12515   1.500   6.997   4.222 -0.8369 -1.4522 -0.6967
  118SOPE  C31712516   1.443   7.164   4.119 -0.0988  0.5699 -0.3101
  118SOPE  H17X12517   1.469   7.224   4.209 -0.5371  1.3189 -0.6764
  118SOPE  H17Y12518   1.344   7.199   4.084 -1.4656 -1.1011  1.6662
  118SOPE  C31812519   1.547   7.178   4.002 -0.4466  0.0933 -0.7591
  118SOPE  H18X12520   1.545   7.282   3.964 -0.5746  0.0799 -0.7905
  118SOPE  H18Y12521   1.521   7.107   3.920  0.4729 -0.8890 -0.2297
  118SOPE  H18Z12522   1.653   7.171   4.035 -0.4542  2.4914 -0.0569
  119SOPE     N12523   2.045   1.593   6.668  0.0083 -0.1433  0.2874
  119SOPE   HN112524   2.089   1.622   6.758  0.4525 -0.3356  0.1315
  119SOPE   HN212525   2.112   1.587   6.589 -2.3703 -0.6569 -1.7861
  119SOPE   HN312526   1.983   1.674   6.647  0.2067 -0.0330  0.1279
  119SOPE   C1212527   1.977   1.458   6.659  0.0688  0.4979 -0.6373
  119SOPE  H12A12528   1.947   1.444   6.552  0.6001  1.4026 -0.9167
  119SOPE  H12B12529   1.897   1.461   6.736 -0.0930  0.7947 -0.8151
  119SOPE   C1112530   2.081   1.346   6.699 -0.6544  0.1740 -1.1412
  119SOPE  H11A12531   2.022   1.255   6.677 -1.0179 -0.4483  1.8908
  119SOPE  H11B12532   2.096   1.356   6.809 -2.4506 -0.6975 -0.7867
  119SOPE     P12533   2.312   1.244   6.631  0.3176 -0.0860 -0.1301
  119SOPE   O1312534   2.253   1.119   6.696 -0.4593 -0.3193  0.2601
  119SOPE   O1412535   2.442   1.295   6.691  0.1508 -0.2811  0.6134
  119SOPE   O1212536   2.204   1.356   6.636 -0.2011 -0.0091 -0.1099
  119SOPE   O1112537   2.333   1.208   6.477 -0.1531  0.0856 -0.4498
  119SOPE    C112538   2.347   1.313   6.377  0.2095  0.5460 -0.8588
  119SOPE    HA12539   2.427   1.290   6.302 -0.1497  1.6701 -1.6122
  119SOPE    HB12540   2.373   1.411   6.423  1.8606  0.6509 -1.9225
  119SOPE    C212541   2.221   1.331   6.289 -0.1133  0.2328  0.1646
  119SOPE    HS12542   2.141   1.388   6.342  1.4710  2.1973  0.5699
  119SOPE   O2112543   2.180   1.202   6.234  0.1961 -0.4920 -0.0972
  119SOPE   C2112544   2.045   1.185   6.225  0.5376 -0.3655 -0.4908
  119SOPE   O2212545   1.963   1.268   6.261  0.5231  0.2464  0.3975
  119SOPE   C2212546   2.016   1.048   6.166 -0.2512  0.4555  0.0767
  119SOPE   H2R12547   2.011   0.972   6.246  1.5720 -0.6585 -0.8199
  119SOPE   H2S12548   2.101   1.014   6.103  0.9083  0.6416  1.5132
  119SOPE    C312549   2.248   1.438   6.177  0.0236  0.0890 -0.6649
  119SOPE    HX12550   2.342   1.394   6.137 -0.1829 -1.5684  0.5420
  119SOPE    HY12551   2.262   1.535   6.229 -1.0645  0.9284 -1.8897
  119SOPE   O3112552   2.151   1.450   6.071 -0.0578  0.1850 -0.3590
  119SOPE   C3112553   2.050   1.533   6.089  0.4041  0.1020 -0.1741
  119SOPE   O3212554   2.036   1.609   6.182  0.3095 -0.6401 -0.2289
  119SOPE   C3212555   1.957   1.529   5.972 -0.2124 -0.0510  0.1784
  119SOPE   H2X12556   1.922   1.631   5.945 -0.2679 -0.0577  0.2242
  119SOPE   H2Y12557   1.865   1.482   6.014 -0.2120  0.2834  0.5689
  119SOPE   C2312558   1.878   1.038   6.102 -0.4401  0.5908  0.1084
  119SOPE   H3R12559   1.797   1.102   6.143 -1.7011  0.0473 -1.4480
  119SOPE   H3S12560   1.842   0.933   6.103 -0.4169  0.3911 -3.7074
  119SOPE   C2412561   1.879   1.083   5.955  0.4367  0.0367  0.4137
  119SOPE   H4R12562   1.890   1.193   5.965  1.9583 -0.0462 -0.1213
  119SOPE   H4S12563   1.968   1.060   5.891  1.0751  1.6650  0.6642
  119SOPE   C2512564   1.750   1.050   5.884  0.1830  0.8468 -0.2733
  119SOPE   H5R12565   1.731   0.944   5.910 -1.3165  0.0507 -4.0795
  119SOPE   H5S12566   1.676   1.120   5.928  0.2867  0.4740  0.5159
  119SOPE   C2612567   1.767   1.061   5.733  1.5505 -0.6638  0.9077
  119SOPE   H6R12568   1.786   1.168   5.709  1.1692 -0.5824  0.9611
  119SOPE   H6S12569   1.856   1.006   5.695  1.0700  1.2953 -3.7888
  119SOPE   C2712570   1.649   0.996   5.656 -0.4451  0.6037 -0.6764
  119SOPE   H7R12571   1.679   0.999   5.549 -0.6254 -2.4374 -0.9095
  119SOPE   H7S12572   1.645   0.890   5.688  0.0565  0.8784  0.3447
  119SOPE   C2812573   1.510   1.069   5.671 -0.5923 -0.4233  0.6574
  119SOPE   H8R12574   1.426   1.016   5.622  0.1146  0.8151 -2.0677
  119SOPE   H8S12575   1.493   1.071   5.781 -0.7929  1.7026  0.6329
  119SOPE   C2912576   1.511   1.217   5.623 -0.3354  0.7029 -0.2611
  119SOPE   H9112577   1.573   1.290   5.677 -0.2828  1.0174 -0.7471
  119SOPE  C21012578   1.465   1.261   5.506  0.4741 -0.3349  0.1913
  119SOPE  H10112579   1.502   1.361   5.481  2.1250 -0.9840 -0.0860
  119SOPE  C21112580   1.381   1.185   5.408  0.5376 -0.1318  0.5551
  119SOPE  H11R12581   1.276   1.219   5.426  0.2128 -0.8331  0.0234
  119SOPE  H11S12582   1.390   1.076   5.423 -1.9278 -0.5125 -0.1470
  119SOPE  C21212583   1.402   1.218   5.259  0.2578  0.0376 -0.7648
  119SOPE  H12R12584   1.366   1.141   5.188  1.5557 -0.0727 -1.3508
  119SOPE  H12S12585   1.510   1.228   5.232  0.8239  1.0551  1.5800
  119SOPE  C21312586   1.343   1.360   5.220  0.4733  0.3357  0.1104
  119SOPE  H13R12587   1.391   1.446   5.270  0.7074 -0.4690  1.3099
  119SOPE  H13S12588   1.233   1.371   5.227  0.1976 -1.9322  0.1471
  119SOPE  C21412589   1.360   1.372   5.059  0.3539  0.4559  0.0136
  119SOPE  H14R12590   1.302   1.289   5.012  0.3628  0.3988  0.1017
  119SOPE  H14S12591   1.464   1.338   5.041  1.3670  1.9633  2.4890
  119SOPE  C21512592   1.328   1.512   5.006  0.1508  0.1846 -0.6303
  119SOPE  H15R12593   1.364   1.588   5.078 -1.1917  0.5044 -0.2589
  119SOPE  H15S12594   1.217   1.507   5.009  0.1414 -0.4499 -1.6115
  119SOPE  C21612595   1.368   1.557   4.866  0.1860  0.1523 -0.3162
  119SOPE  H16R12596   1.372   1.465   4.803 -1.9442  0.0611 -0.3870
  119SOPE  H16S12597   1.473   1.591   4.879  0.6642 -1.9845  2.2761
  119SOPE  C21712598   1.266   1.657   4.807 -0.1752 -0.3549 -0.3682
  119SOPE  H17R12599   1.262   1.743   4.877 -0.6089 -0.0816 -0.7269
  119SOPE  H17S12600   1.164   1.612   4.808 -0.3677  0.0823 -0.0042
  119SOPE  C21812601   1.308   1.712   4.671  0.3996 -0.2380 -0.5686
  119SOPE  H18R12602   1.282   1.820   4.663  1.2055  0.0274  0.1642
  119SOPE  H18S12603   1.268   1.671   4.577  1.3469 -0.2162 -0.9969
  119SOPE  H18T12604   1.418   1.711   4.657  0.3925  3.2382 -1.9334
  119SOPE   C3312605   2.021   1.487   5.835 -0.2750  0.7442 -0.0978
  119SOPE   H3X12606   2.051   1.380   5.842 -1.3915  0.4598  0.5352
  119SOPE   H3Y12607   2.110   1.549   5.809 -0.2945  1.6419  1.7843
  119SOPE   C3412608   1.918   1.502   5.723 -0.0803 -0.2686 -0.0417
  119SOPE   H4X12609   1.886   1.608   5.725  0.5208 -0.0478 -1.0860
  119SOPE   H4Y12610   1.821   1.452   5.745 -0.6005 -0.6621 -2.9287
  119SOPE   C3512611   1.968   1.442   5.592  0.3083  0.6530  0.7861
  119SOPE   H5X12612   1.958   1.333   5.607  1.5171  0.3865 -0.1225
  119SOPE   H5Y12613   2.076   1.469   5.600  0.0972  2.2361 -1.0510
  119SOPE   C3612614   1.899   1.497   5.472 -0.6288  0.0522  0.2992
  119SOPE   H6X12615   1.956   1.469   5.380  1.2178  0.7292  1.1965
  119SOPE   H6Y12616   1.901   1.607   5.481  1.4327  0.2480 -1.5189
  119SOPE   C3712617   1.757   1.445   5.441  0.4634 -0.3825 -0.0318
  119SOPE   H7X12618   1.683   1.468   5.520 -1.7179 -1.5806 -1.6184
  119SOPE   H7Y12619   1.771   1.335   5.435  1.0967 -0.3079 -0.0370
  119SOPE   C3812620   1.705   1.495   5.308 -0.2348 -0.3056 -0.6731
  119SOPE   H8X12621   1.671   1.601   5.316 -0.5956 -0.5009  0.5355
  119SOPE   H8Y12622   1.612   1.438   5.289 -1.9130  2.3011 -0.8086
  119SOPE   C3912623   1.789   1.473   5.174 -0.1175 -0.2246 -0.1396
  119SOPE   H9X12624   1.798   1.367   5.143  2.0866 -0.1694  0.1166
  119SOPE   H9Y12625   1.889   1.522   5.170 -0.9355  1.5015 -0.5417
  119SOPE  C31012626   1.716   1.533   5.058  0.4213 -0.2483  0.7547
  119SOPE  H10X12627   1.685   1.636   5.089 -0.4030 -0.6757  1.3979
  119SOPE  H10Y12628   1.614   1.494   5.036  0.3849 -0.0808  0.6199
  119SOPE  C31112629   1.800   1.549   4.930  0.4978 -1.0102  0.8839
  119SOPE  H11X12630   1.900   1.581   4.966  0.5242  0.2689 -0.2422
  119SOPE  H11Y12631   1.754   1.623   4.861  2.4175  0.6037  1.2335
  119SOPE  C31212632   1.817   1.416   4.856  0.5961  0.7513  0.1142
  119SOPE  H12X12633   1.725   1.361   4.827  0.8258 -1.4248  3.1438
  119SOPE  H12Y12634   1.874   1.349   4.924 -1.2236 -0.5659  0.4014
  119SOPE  C31312635   1.900   1.450   4.734  0.1024  0.1800 -0.1935
  119SOPE  H13X12636   1.927   1.349   4.695  0.0959 -0.7656  2.0366
  119SOPE  H13Y12637   1.994   1.509   4.745 -0.6651  1.7299 -1.5630
  119SOPE  C31412638   1.831   1.529   4.618  0.5822 -0.0515 -0.1793
  119SOPE  H14X12639   1.894   1.513   4.528  1.1730  0.8065  0.0716
  119SOPE  H14Y12640   1.840   1.639   4.628 -0.2405 -0.0849  1.2061
  119SOPE  C31512641   1.686   1.488   4.603 -0.5739  0.2079 -0.1441
  119SOPE  H15X12642   1.623   1.521   4.688 -0.2061  2.0003 -0.5329
  119SOPE  H15Y12643   1.681   1.378   4.587 -0.1295  0.1943 -0.1967
  119SOPE  C31612644   1.618   1.561   4.487 -0.2026 -0.1972 -0.4419
  119SOPE  H16X12645   1.616   1.670   4.512 -1.4734 -0.1974 -0.4523
  119SOPE  H16Y12646   1.511   1.534   4.473 -0.2926  0.8435 -2.0912
  119SOPE  C31712647   1.675   1.526   4.349 -0.2906 -0.7343 -0.2285
  119SOPE  H17X12648   1.636   1.427   4.318  0.6297 -1.5438  1.1023
  119SOPE  H17Y12649   1.786   1.518   4.339 -0.3855 -2.0722 -0.3258
  119SOPE  C31812650   1.623   1.624   4.239  0.7077  0.4460  0.3106
  119SOPE  H18X12651   1.675   1.607   4.142 -0.7415  1.6611 -0.7304
  119SOPE  H18Y12652   1.633   1.732   4.261 -1.4431  0.8090 -0.2000
  119SOPE  H18Z12653   1.518   1.589   4.226  1.8609 -3.6800  0.8745
  120SOPE     N12654   1.039   3.685   6.740  0.3259 -0.6108 -0.1327
  120SOPE   HN112655   1.023   3.597   6.793 -2.4016  0.6599  1.3845
  120SOPE   HN212656   0.960   3.746   6.768  1.0177  1.2622 -2.0034
  120SOPE   HN312657   1.023   3.668   6.638 -1.2257  0.0473 -0.0239
  120SOPE   C1212658   1.164   3.737   6.789 -0.2200 -0.0850  0.5043
  120SOPE  H12A12659   1.165   3.771   6.895  1.9403  1.5911  0.0065
  120SOPE  H12B12660   1.191   3.829   6.733  0.1568 -0.5542 -0.1026
  120SOPE   C1112661   1.277   3.642   6.783 -0.1899 -0.0459  0.2097
  120SOPE  H11A12662   1.276   3.560   6.858 -1.0837  0.7684  1.1177
  120SOPE  H11B12663   1.370   3.698   6.807 -0.2500 -0.3017  1.0625
  120SOPE     P12664   1.419   3.550   6.578 -0.2755  0.2046  0.2735
  120SOPE   O1312665   1.475   3.437   6.647  0.5539  0.5719 -0.4410
  120SOPE   O1412666   1.502   3.671   6.569  0.2403  0.3413  0.4314
  120SOPE   O1212667   1.281   3.586   6.652  0.2920  0.1352 -0.0190
  120SOPE   O1112668   1.385   3.504   6.431 -0.5822  0.3659  0.3493
  120SOPE    C112669   1.322   3.601   6.349  0.4073  0.4515  0.2958
  120SOPE    HA12670   1.362   3.703   6.371 -4.0196  2.2992  0.8158
  120SOPE    HB12671   1.214   3.593   6.374  0.2589  0.7946 -0.2134
  120SOPE    C212672   1.351   3.581   6.190  0.7533 -0.5052 -0.3591
  120SOPE    HS12673   1.297   3.665   6.140 -2.5394 -0.1842  3.2656
  120SOPE   O2112674   1.315   3.449   6.139  0.6224 -0.1120 -0.4905
  120SOPE   C2112675   1.184   3.420   6.154 -0.8970 -0.2977  0.7395
  120SOPE   O2212676   1.103   3.504   6.183  0.8134  0.3508  0.1889
  120SOPE   C2212677   1.154   3.273   6.130 -0.5656  0.8595  0.3867
  120SOPE   H2R12678   1.044   3.265   6.118 -0.5726  0.5434  0.6431
  120SOPE   H2S12679   1.184   3.218   6.222  1.4781 -0.3552 -0.9166
  120SOPE    C312680   1.500   3.619   6.156  0.1529  0.9393 -0.1049
  120SOPE    HX12681   1.571   3.553   6.210  0.1340  0.2902 -0.8471
  120SOPE    HY12682   1.521   3.723   6.187 -1.2212  0.9761  0.8144
  120SOPE   O3112683   1.521   3.610   6.011  0.1887 -0.1454 -0.0305
  120SOPE   C3112684   1.639   3.603   5.973  0.7965 -0.4954  0.6958
  120SOPE   O3212685   1.739   3.600   6.041  0.4150 -0.3341 -0.2187
  120SOPE   C3212686   1.632   3.603   5.816 -0.3585 -0.2286  0.3962
  120SOPE   H2X12687   1.549   3.673   5.796  0.7516  0.6416 -1.3690
  120SOPE   H2Y12688   1.591   3.506   5.782  2.3292 -1.1931 -0.3793
  120SOPE   C2312689   1.244   3.211   6.022  0.2168 -0.2555 -0.3737
  120SOPE   H3R12690   1.208   3.106   6.019 -1.7537  0.3843 -0.7718
  120SOPE   H3S12691   1.350   3.207   6.054 -0.2422 -2.7297  1.1110
  120SOPE   C2412692   1.233   3.279   5.883 -0.0720  0.1379 -0.4567
  120SOPE   H4R12693   1.130   3.318   5.866 -1.5596 -0.8354  4.5947
  120SOPE   H4S12694   1.300   3.367   5.879 -2.1882  1.8117 -0.9231
  120SOPE   C2512695   1.277   3.184   5.769  0.0790 -0.2810  0.8460
  120SOPE   H5R12696   1.370   3.129   5.794  0.6479  0.5835  0.7100
  120SOPE   H5S12697   1.187   3.122   5.749  0.5052 -0.5793 -0.2039
  120SOPE   C2612698   1.305   3.258   5.637 -0.4496 -0.0675  0.5584
  120SOPE   H6R12699   1.209   3.295   5.595  0.2811  0.2417 -0.9191
  120SOPE   H6S12700   1.376   3.341   5.657  1.0315 -0.9830 -0.6938
  120SOPE   C2712701   1.363   3.174   5.517 -0.3134  0.4068 -0.0384
  120SOPE   H7R12702   1.463   3.141   5.552 -1.2661 -2.7332 -0.0088
  120SOPE   H7S12703   1.310   3.080   5.491  0.9644 -0.1300 -0.8019
  120SOPE   C2812704   1.386   3.246   5.384 -0.2715 -0.5895 -0.2715
  120SOPE   H8R12705   1.425   3.174   5.309 -0.4462 -1.2350  0.2501
  120SOPE   H8S12706   1.289   3.289   5.351 -0.4155 -0.0241  0.8602
  120SOPE   C2912707   1.484   3.360   5.392  0.2242  0.9465 -0.1907
  120SOPE   H9112708   1.463   3.432   5.473  1.7704  1.1383  0.0637
  120SOPE  C21012709   1.588   3.391   5.313 -0.1761 -0.1036  0.3615
  120SOPE  H10112710   1.651   3.479   5.328 -3.7808  2.3695  2.5436
  120SOPE  C21112711   1.629   3.307   5.191 -0.6095 -0.3035 -0.0343
  120SOPE  H11R12712   1.605   3.200   5.209 -2.7668  0.1817  0.2360
  120SOPE  H11S12713   1.740   3.305   5.189 -0.5785  0.2944  0.9546
  120SOPE  C21212714   1.567   3.354   5.055 -0.4566  0.2369  0.1835
  120SOPE  H12R12715   1.461   3.379   5.079 -0.9162 -2.0008  0.8234
  120SOPE  H12S12716   1.564   3.271   4.980 -0.9653 -0.6082  1.1016
  120SOPE  C21312717   1.642   3.474   4.993 -0.0718  0.3536  0.4644
  120SOPE  H13R12718   1.751   3.451   4.993 -0.0895  0.2567  1.1141
  120SOPE  H13S12719   1.626   3.564   5.056  0.9935  1.3341 -0.6092
  120SOPE  C21412720   1.582   3.517   4.855 -0.1230 -0.0104 -0.1377
  120SOPE  H14R12721   1.478   3.554   4.868 -0.1391  0.3588 -1.1741
  120SOPE  H14S12722   1.581   3.438   4.777 -2.5551 -0.4922  0.3146
  120SOPE  C21512723   1.656   3.630   4.795  0.0040  0.5296  0.7495
  120SOPE  H15R12724   1.761   3.592   4.795 -0.5498 -1.1279  2.2718
  120SOPE  H15S12725   1.652   3.725   4.852 -1.8894  0.8051  0.2255
  120SOPE  C21612726   1.618   3.671   4.647  0.1474  0.6915 -0.3784
  120SOPE  H16R12727   1.618   3.573   4.595  1.3347  1.0482 -1.0933
  120SOPE  H16S12728   1.694   3.738   4.602  0.1929  1.5187  0.9052
  120SOPE  C21712729   1.483   3.740   4.641  0.7815 -0.3359  0.5641
  120SOPE  H17R12730   1.485   3.828   4.709  0.8203  0.5251 -0.5220
  120SOPE  H17S12731   1.419   3.663   4.687  0.6166 -0.4970  0.0677
  120SOPE  C21812732   1.437   3.786   4.495 -0.7841 -1.0467 -0.3638
  120SOPE  H18R12733   1.509   3.769   4.412  2.2933 -1.9808  2.2838
  120SOPE  H18S12734   1.423   3.896   4.509  0.1160 -0.5620 -2.6680
  120SOPE  H18T12735   1.347   3.730   4.462 -0.8985 -1.5797  0.8165
  120SOPE   C3312736   1.760   3.638   5.747 -0.3367  0.2067 -0.8370
  120SOPE   H3X12737   1.830   3.556   5.771 -0.3719  0.2762 -0.4942
  120SOPE   H3Y12738   1.804   3.736   5.773  1.5150 -0.8695  0.2571
  120SOPE   C3412739   1.726   3.637   5.596  0.3215 -0.4567 -0.6733
  120SOPE   H4X12740   1.647   3.712   5.576  0.3497 -0.4534 -0.7728
  120SOPE   H4Y12741   1.681   3.538   5.577 -1.4717  0.2150 -0.1328
  120SOPE   C3512742   1.850   3.662   5.514 -0.8066 -0.0355  0.3450
  120SOPE   H5X12743   1.942   3.606   5.541 -0.9112 -0.3176  0.1282
  120SOPE   H5Y12744   1.872   3.770   5.529  0.0005 -0.4071  2.0615
  120SOPE   C3612745   1.834   3.654   5.365 -0.6148  1.0525 -0.0796
  120SOPE   H6X12746   1.736   3.695   5.332 -1.5604  1.0510  2.5320
  120SOPE   H6Y12747   1.841   3.544   5.349  2.4982  0.8628  1.8935
  120SOPE   C3712748   1.948   3.722   5.291 -0.1609 -0.0992  0.4660
  120SOPE   H7X12749   2.008   3.774   5.368 -2.5669  1.5020  1.3653
  120SOPE   H7Y12750   1.908   3.798   5.221 -1.5084  0.5263  1.8523
  120SOPE   C3812751   2.049   3.626   5.215  0.1694  0.6858  0.9729
  120SOPE   H8X12752   2.107   3.563   5.285 -1.1978 -0.8138  0.8173
  120SOPE   H8Y12753   2.128   3.693   5.177  1.2913 -2.5140 -2.9989
  120SOPE   C3912754   1.985   3.550   5.101 -0.1150  0.3460  0.5112
  120SOPE   H9X12755   1.922   3.616   5.037 -1.5653  0.3010  1.8461
  120SOPE   H9Y12756   1.913   3.475   5.139  0.3982 -1.3014 -1.5897
  120SOPE  C31012757   2.085   3.466   5.023  0.3829 -0.6364 -0.4306
  120SOPE  H10X12758   2.136   3.403   5.099 -0.7761  2.0619  2.8686
  120SOPE  H10Y12759   2.161   3.533   4.977 -1.0819 -0.1327 -2.2718
  120SOPE  C31112760   2.019   3.391   4.909  0.3102  0.0881 -0.4281
  120SOPE  H11X12761   1.965   3.462   4.843 -2.7270 -1.3577  0.3276
  120SOPE  H11Y12762   1.958   3.308   4.949 -1.0364  0.8588 -0.8250
  120SOPE  C31212763   2.128   3.342   4.811 -0.1897 -0.1658  0.6228
  120SOPE  H12X12764   2.193   3.261   4.852  1.1685  0.9421  0.7062
  120SOPE  H12Y12765   2.201   3.419   4.778  1.1076 -1.2284  0.9422
  120SOPE  C31312766   2.066   3.263   4.687 -0.5786 -0.6469 -0.4467
  120SOPE  H13X12767   1.982   3.320   4.643 -0.6296 -1.1130 -0.9576
  120SOPE  H13Y12768   2.022   3.167   4.720 -0.9655  0.5398  2.8974
  120SOPE  C31412769   2.164   3.235   4.578  0.1669  0.2605 -0.1581
  120SOPE  H14X12770   2.241   3.313   4.564  0.3797 -0.2675 -2.2722
  120SOPE  H14Y12771   2.119   3.239   4.476  4.4291 -1.5744 -2.3663
  120SOPE  C31512772   2.210   3.087   4.577  0.3646  0.5623  0.9028
  120SOPE  H15X12773   2.119   3.026   4.558 -0.1353  2.1394 -2.3398
  120SOPE  H15Y12774   2.248   3.066   4.680 -1.0647 -0.1299  1.3129
  120SOPE  C31612775   2.314   3.046   4.471 -0.4852  0.3017 -0.0480
  120SOPE  H16X12776   2.394   3.122   4.463  1.2710 -1.1345  2.5342
  120SOPE  H16Y12777   2.255   3.054   4.376 -2.2908 -0.2122  0.9785
  120SOPE  C31712778   2.381   2.911   4.487 -0.2188  0.1391  0.0041
  120SOPE  H17X12779   2.429   2.913   4.587  1.7267  1.4981 -0.8952
  120SOPE  H17Y12780   2.450   2.883   4.404  0.6755  1.5017  0.2484
  120SOPE  C31812781   2.272   2.801   4.496  0.1706  0.0837  0.3376
  120SOPE  H18X12782   2.317   2.700   4.502 -0.4548 -0.1778  0.6808
  120SOPE  H18Y12783   2.210   2.823   4.407  0.9293  0.5506 -0.0925
  120SOPE  H18Z12784   2.201   2.803   4.581 -1.4503  1.3512 -0.9902
  121SOPE     N12785   5.848   1.910   6.312 -0.2321 -0.1760  0.4910
  121SOPE   HN112786   5.756   1.949   6.282  1.0295  0.9127 -2.2145
  121SOPE   HN212787   5.919   1.970   6.267 -1.9206  2.1044  0.7189
  121SOPE   HN312788   5.845   1.812   6.278 -1.6955  0.0813 -0.1894
  121SOPE   C1212789   5.843   1.907   6.459 -0.4231  0.4139  0.5477
  121SOPE  H12A12790   5.948   1.896   6.494  0.0172  1.3118 -0.4710
  121SOPE  H12B12791   5.784   1.818   6.491  1.4146 -1.3727 -0.6895
  121SOPE   C1112792   5.803   2.036   6.529 -0.5819 -0.2711  0.0784
  121SOPE  H11A12793   5.799   2.017   6.638 -1.3420  2.0180  0.4970
  121SOPE  H11B12794   5.701   2.061   6.493 -0.6935 -2.0499 -0.9537
  121SOPE     P12795   5.851   2.296   6.506  0.1618  0.2652  0.1721
  121SOPE   O1312796   5.965   2.374   6.548 -0.8622  0.5937  0.1587
  121SOPE   O1412797   5.730   2.312   6.587 -0.1233  1.1086 -0.7067
  121SOPE   O1212798   5.890   2.143   6.493 -0.3391 -0.1323 -0.3669
  121SOPE   O1112799   5.818   2.350   6.361 -0.4522  0.7442 -0.0765
  121SOPE    C112800   5.753   2.473   6.334  0.2422  0.0958 -0.3909
  121SOPE    HA12801   5.741   2.532   6.427  2.8508 -0.2547  0.2447
  121SOPE    HB12802   5.654   2.464   6.285 -1.3237 -1.1944  2.7660
  121SOPE    C212803   5.844   2.548   6.224 -0.0354 -0.2140 -0.3876
  121SOPE    HS12804   5.806   2.650   6.198  1.9918  1.0275  1.2055
  121SOPE   O2112805   5.862   2.466   6.103  0.4574  0.2759 -0.8794
  121SOPE   C2112806   5.757   2.483   6.020  0.8034  0.0640 -0.0015
  121SOPE   O2212807   5.659   2.550   6.041 -0.1772  0.5156  0.0809
  121SOPE   C2212808   5.790   2.410   5.886  0.1567  0.1812 -0.1845
  121SOPE   H2R12809   5.769   2.305   5.913  0.3427  0.2230  0.1319
  121SOPE   H2S12810   5.899   2.413   5.870  0.0335 -0.7118 -1.2899
  121SOPE    C312811   5.984   2.577   6.286 -0.3856 -0.1745  0.2789
  121SOPE    HX12812   6.032   2.481   6.314  1.3848  0.1613 -1.3832
  121SOPE    HY12813   5.964   2.636   6.378 -0.2118  0.7338 -0.2434
  121SOPE   O3112814   6.065   2.659   6.190  0.1370  0.4387 -0.0427
  121SOPE   C3112815   6.183   2.605   6.142  0.6578  0.8559 -0.5771
  121SOPE   O3212816   6.222   2.490   6.160  0.8347  0.0392  0.4722
  121SOPE   C3212817   6.266   2.704   6.061  0.2499 -0.4864 -0.3857
  121SOPE   H2X12818   6.339   2.736   6.139 -1.3071 -1.0980  1.4205
  121SOPE   H2Y12819   6.209   2.793   6.027 -1.2275 -1.1325  0.2928
  121SOPE   C2312820   5.720   2.456   5.756  0.2140 -0.2671 -0.5131
  121SOPE   H3R12821   5.714   2.567   5.765 -2.5180 -0.1163 -2.7673
  121SOPE   H3S12822   5.619   2.411   5.749 -0.5003  1.3204 -0.7727
  121SOPE   C2412823   5.804   2.433   5.623  0.4779 -0.3586  0.2650
  121SOPE   H4R12824   5.894   2.499   5.628  2.4298 -2.9081  0.8184
  121SOPE   H4S12825   5.838   2.328   5.617 -0.5129 -0.7923  1.7225
  121SOPE   C2512826   5.728   2.456   5.489 -0.0318 -0.6313  0.6248
  121SOPE   H5R12827   5.653   2.374   5.493  0.0887 -0.7596  0.2788
  121SOPE   H5S12828   5.666   2.548   5.478 -2.6207 -1.9855  2.7193
  121SOPE   C2612829   5.814   2.436   5.360 -0.4059 -0.8989  0.1902
  121SOPE   H6R12830   5.876   2.528   5.352 -1.9847  0.1305 -0.9222
  121SOPE   H6S12831   5.869   2.340   5.359 -2.7532 -2.3679 -1.4862
  121SOPE   C2712832   5.726   2.435   5.226  0.5503  0.1887  0.8660
  121SOPE   H7R12833   5.665   2.342   5.234  0.6243 -0.0733 -1.1480
  121SOPE   H7S12834   5.665   2.528   5.226  0.9971  0.5472 -1.4332
  121SOPE   C2812835   5.809   2.436   5.099 -0.2889 -0.2230 -0.1318
  121SOPE   H8R12836   5.728   2.429   5.024 -0.8436  1.0160  0.3197
  121SOPE   H8S12837   5.849   2.538   5.080  0.8125 -0.2163  1.9258
  121SOPE   C2912838   5.916   2.330   5.059 -0.0201 -0.2035  0.0913
  121SOPE   H9112839   5.933   2.242   5.123 -0.0912  0.4523  1.0318
  121SOPE  C21012840   5.988   2.341   4.946  0.9562 -0.5491 -0.0889
  121SOPE  H10112841   6.060   2.262   4.921  1.1559 -0.0975 -0.9907
  121SOPE  C21112842   5.962   2.448   4.837 -0.2615  0.2300 -0.0611
  121SOPE  H11R12843   6.059   2.501   4.838  0.1004 -0.4183 -0.0670
  121SOPE  H11S12844   5.892   2.526   4.873 -0.4689  0.6606 -1.3631
  121SOPE  C21212845   5.925   2.412   4.694  0.4500  0.2558  0.5851
  121SOPE  H12R12846   5.899   2.511   4.651  2.2007  0.9231  1.0045
  121SOPE  H12S12847   5.830   2.353   4.693  0.5060 -0.2980 -5.1392
  121SOPE  C21312848   6.041   2.341   4.619 -0.0810  0.2363 -0.3264
  121SOPE  H13R12849   6.100   2.266   4.675 -0.5889 -1.0655 -1.4523
  121SOPE  H13S12850   6.114   2.423   4.603  1.0098 -0.6124  0.1706
  121SOPE  C21412851   5.998   2.273   4.487 -0.7214 -0.7186  0.1506
  121SOPE  H14R12852   5.971   2.351   4.412  2.1014 -1.2362 -1.5484
  121SOPE  H14S12853   5.922   2.194   4.506 -2.1154 -0.3093 -3.0983
  121SOPE  C21512854   6.116   2.194   4.417 -0.1390 -0.7560 -0.2660
  121SOPE  H15R12855   6.168   2.127   4.488  2.1563 -1.5471 -2.5444
  121SOPE  H15S12856   6.197   2.268   4.400  0.4717 -1.0197  1.3250
  121SOPE  C21612857   6.075   2.111   4.294 -0.5953  0.6778 -0.1070
  121SOPE  H16R12858   6.051   2.178   4.208  1.6681  0.8286 -0.6929
  121SOPE  H16S12859   5.989   2.048   4.325  1.2274 -1.7975  0.2280
  121SOPE  C21712860   6.175   2.006   4.238  0.6705 -0.3305 -0.2465
  121SOPE  H17R12861   6.220   1.943   4.317 -0.0250  3.1758  3.3073
  121SOPE  H17S12862   6.260   2.062   4.195  1.0412 -0.3862  0.4098
  121SOPE  C21812863   6.106   1.921   4.130 -0.0259  0.6948  0.3755
  121SOPE  H18R12864   6.037   1.982   4.068 -2.5089 -0.2895  1.9706
  121SOPE  H18S12865   6.042   1.837   4.165  2.8878 -2.0519 -0.4896
  121SOPE  H18T12866   6.180   1.880   4.059 -0.6782 -0.2975  0.2488
  121SOPE   C3312867   6.325   2.636   5.939 -0.2452  0.7812  0.2272
  121SOPE   H3X12868   6.386   2.554   5.983  0.6450  1.2038 -0.1860
  121SOPE   H3Y12869   6.400   2.709   5.900 -0.4590  1.1236  0.4540
  121SOPE   C3412870   6.220   2.596   5.831 -0.8051 -0.1958 -0.3403
  121SOPE   H4X12871   6.135   2.666   5.818  0.7845  1.3165 -3.6418
  121SOPE   H4Y12872   6.185   2.492   5.852 -0.6781 -0.2269 -0.2818
  121SOPE   C3512873   6.295   2.586   5.704 -0.3653 -0.0622  0.2847
  121SOPE   H5X12874   6.370   2.505   5.713 -0.5797 -0.5700 -1.9771
  121SOPE   H5Y12875   6.338   2.683   5.672  0.8554 -0.9252 -0.7677
  121SOPE   C3612876   6.208   2.551   5.584 -0.0493 -0.1533  0.1359
  121SOPE   H6X12877   6.146   2.638   5.553 -0.1553 -0.4131 -0.3994
  121SOPE   H6Y12878   6.147   2.458   5.594 -2.3989  1.4889  2.3054
  121SOPE   C3712879   6.288   2.519   5.465 -0.5171 -0.7116  0.0659
  121SOPE   H7X12880   6.363   2.438   5.477 -0.6991 -0.5847  2.4204
  121SOPE   H7Y12881   6.349   2.609   5.439 -0.0136 -1.8214 -2.9844
  121SOPE   C3812882   6.211   2.481   5.337 -0.3173  0.6918 -0.3580
  121SOPE   H8X12883   6.128   2.553   5.317 -0.4057  1.2098  1.6857
  121SOPE   H8Y12884   6.165   2.382   5.357  0.8763  0.1211 -0.4032
  121SOPE   C3912885   6.306   2.450   5.214 -0.7248 -0.4357 -0.0468
  121SOPE   H9X12886   6.236   2.434   5.129  0.3671  1.7689 -1.4582
  121SOPE   H9Y12887   6.378   2.366   5.223 -1.5161 -1.0785  0.5687
  121SOPE  C31012888   6.385   2.578   5.167 -0.2471 -0.2493  0.2929
  121SOPE  H10X12889   6.443   2.548   5.078  1.0630  1.1871  0.6092
  121SOPE  H10Y12890   6.453   2.617   5.246  2.7400 -0.1769 -2.1667
  121SOPE  C31112891   6.281   2.692   5.135 -0.7585  0.6541  0.2425
  121SOPE  H11X12892   6.222   2.726   5.222 -0.3115  0.5756  0.5782
  121SOPE  H11Y12893   6.212   2.652   5.057 -0.1799 -1.7651  0.8689
  121SOPE  C31212894   6.350   2.829   5.079  0.3545  0.6066  0.6905
  121SOPE  H12X12895   6.438   2.852   5.143  1.5272 -1.0233 -0.2616
  121SOPE  H12Y12896   6.270   2.906   5.074 -1.7151 -1.5138 -1.9826
  121SOPE  C31312897   6.413   2.818   4.941  0.0846 -0.3089  0.2477
  121SOPE  H13X12898   6.509   2.761   4.939  0.2793  0.0019  0.6846
  121SOPE  H13Y12899   6.454   2.917   4.912 -2.9821  0.4944 -1.8442
  121SOPE  C31412900   6.309   2.802   4.829  0.1601 -0.1494 -0.0887
  121SOPE  H14X12901   6.213   2.846   4.863 -0.7970 -0.8067 -1.7724
  121SOPE  H14Y12902   6.295   2.693   4.811 -0.3622 -0.0577 -0.2600
  121SOPE  C31512903   6.352   2.864   4.694  0.4582 -0.2802 -0.2067
  121SOPE  H15X12904   6.437   2.805   4.654  1.1124  0.0985  0.5918
  121SOPE  H15Y12905   6.366   2.974   4.709 -2.8090  0.1916  0.0609
  121SOPE  C31612906   6.249   2.851   4.579 -0.1877 -0.1402 -0.0765
  121SOPE  H16X12907   6.214   2.746   4.575 -0.2042 -0.0887 -2.1128
  121SOPE  H16Y12908   6.298   2.865   4.480  2.0004 -0.1515  0.9519
  121SOPE  C31712909   6.125   2.949   4.579  0.8433 -0.4924 -0.0323
  121SOPE  H17X12910   6.155   3.056   4.581 -1.4337  0.3475 -2.9363
  121SOPE  H17Y12911   6.079   2.923   4.676 -1.4140 -0.8137 -1.1198
  121SOPE  C31812912   6.029   2.942   4.460 -0.1418  0.5472  0.1076
  121SOPE  H18X12913   6.075   2.990   4.371  2.3298  1.5140  1.8172
  121SOPE  H18Y12914   5.930   2.986   4.485  0.1854  0.8733  0.8282
  121SOPE  H18Z12915   5.998   2.839   4.432 -0.4036  1.0195 -1.4434
  122SOPE     N12916   1.514   5.250   6.642 -0.5934  0.6475  0.1284
  122SOPE   HN112917   1.467   5.248   6.549 -0.5536  1.3195  0.0882
  122SOPE   HN212918   1.591   5.320   6.637 -0.4806  0.6227  1.2761
  122SOPE   HN312919   1.545   5.151   6.651 -0.9831  0.3298 -1.5373
  122SOPE   C1212920   1.426   5.279   6.753  0.6421 -0.7267  0.1814
  122SOPE  H12A12921   1.414   5.389   6.766 -0.7373 -0.7005 -1.0998
  122SOPE  H12B12922   1.457   5.239   6.852 -1.6498 -2.2522  0.3647
  122SOPE   C1112923   1.284   5.212   6.731 -0.0703 -0.2410  0.3358
  122SOPE  H11A12924   1.233   5.213   6.830  0.5933 -2.9483  0.7835
  122SOPE  H11B12925   1.307   5.107   6.702  0.4679 -0.0583  0.0914
  122SOPE     P12926   1.171   5.225   6.499 -0.1945 -0.3733  0.5854
  122SOPE   O1312927   1.104   5.323   6.410 -0.5511 -0.1288 -0.1937
  122SOPE   O1412928   1.110   5.089   6.517  1.0641  0.1839 -0.0250
  122SOPE   O1212929   1.204   5.285   6.634  0.5675  0.2592  0.1873
  122SOPE   O1112930   1.318   5.198   6.451  0.4036  0.0376  0.5980
  122SOPE    C112931   1.346   5.083   6.376 -0.3219 -0.0876  0.8574
  122SOPE    HA12932   1.259   5.020   6.348 -1.4836  1.2317  1.3438
  122SOPE    HB12933   1.395   5.008   6.441  0.4672 -0.1966  0.1589
  122SOPE    C212934   1.425   5.118   6.247 -0.6744  0.1180  0.4323
  122SOPE    HS12935   1.428   5.034   6.174 -1.3251  1.1000 -0.7586
  122SOPE   O2112936   1.557   5.173   6.273  0.0403 -0.0324 -0.1199
  122SOPE   C2112937   1.651   5.088   6.299  0.3798 -0.8054  0.5745
  122SOPE   O2212938   1.630   4.968   6.305  0.6700  0.2054  0.2373
  122SOPE   C2212939   1.780   5.170   6.321  0.8676  0.5573  0.1297
  122SOPE   H2R12940   1.776   5.207   6.426 -0.2406  1.7833 -0.3206
  122SOPE   H2S12941   1.784   5.259   6.255  0.1494 -0.3428 -1.1506
  122SOPE    C312942   1.349   5.233   6.171 -0.6284 -0.8603  0.3006
  122SOPE    HX12943   1.366   5.319   6.239  1.5854 -1.3886  0.4776
  122SOPE    HY12944   1.241   5.206   6.175 -1.4164  2.0580  0.9796
  122SOPE   O3112945   1.398   5.244   6.033  0.5417 -0.5864 -0.0147
  122SOPE   C3112946   1.467   5.355   6.017 -0.4578  0.0079  0.6311
  122SOPE   O3212947   1.481   5.442   6.096  0.2964 -0.3120  0.3670
  122SOPE   C3212948   1.529   5.361   5.880  0.5617 -0.2614 -0.5981
  122SOPE   H2X12949   1.475   5.443   5.827  2.0273  1.0971 -0.0648
  122SOPE   H2Y12950   1.494   5.272   5.824 -2.2866 -0.2051  0.9004
  122SOPE   C2312951   1.896   5.076   6.318  0.0869  0.0300  0.0693
  122SOPE   H3R12952   1.881   4.997   6.394 -1.7913  0.3592  0.0685
  122SOPE   H3S12953   1.998   5.120   6.330  0.0273 -0.2541  1.9644
  122SOPE   C2412954   1.903   4.992   6.184 -0.1034 -0.6514 -0.7319
  122SOPE   H4R12955   1.978   4.913   6.207  0.3667  0.5126  2.1948
  122SOPE   H4S12956   1.815   4.928   6.159 -1.0004  0.1095  0.3696
  122SOPE   C2512957   1.938   5.076   6.071  0.0540 -0.0978  0.0172
  122SOPE   H5R12958   1.863   5.156   6.054  1.7010  1.4695 -0.0907
  122SOPE   H5S12959   2.034   5.126   6.096 -0.4331 -0.6537  3.4265
  122SOPE   C2612960   1.968   5.008   5.929 -0.3596  1.0084 -0.3155
  122SOPE   H6R12961   1.883   4.945   5.896 -1.8768  2.5197  0.5788
  122SOPE   H6S12962   1.989   5.088   5.854  1.0260  2.0171  1.0738
  122SOPE   C2712963   2.091   4.916   5.934  0.0350  0.6154 -0.2407
  122SOPE   H7R12964   2.179   4.976   5.967  0.0103  0.7161 -0.3566
  122SOPE   H7S12965   2.067   4.836   6.007 -0.7928  0.6981 -0.4068
  122SOPE   C2812966   2.114   4.856   5.793  0.3245  0.0087 -0.4402
  122SOPE   H8R12967   2.012   4.820   5.767  1.2085 -2.1656 -1.1592
  122SOPE   H8S12968   2.145   4.950   5.741  3.6008 -0.8744 -0.3153
  122SOPE   C2912969   2.212   4.749   5.787 -0.3532 -1.0067  0.3796
  122SOPE   H9112970   2.174   4.659   5.837  0.1713 -1.3981  0.0874
  122SOPE  C21012971   2.338   4.752   5.733 -0.7677  0.0305  1.0458
  122SOPE  H10112972   2.406   4.667   5.747  2.4722  2.4433  1.1398
  122SOPE  C21112973   2.409   4.864   5.655 -0.0723  0.4484 -0.7919
  122SOPE  H11R12974   2.504   4.888   5.706 -0.1540 -0.1299 -0.3549
  122SOPE  H11S12975   2.339   4.950   5.654 -0.1903  0.3550 -2.2246
  122SOPE  C21212976   2.438   4.832   5.509 -0.2599  0.2325 -0.2407
  122SOPE  H12R12977   2.512   4.751   5.493  0.5957  0.8642  0.3931
  122SOPE  H12S12978   2.491   4.919   5.464 -0.6669  0.3694 -0.4595
  122SOPE  C21312979   2.315   4.791   5.432  0.0767  0.3305 -0.4209
  122SOPE  H13R12980   2.231   4.859   5.455 -2.1578 -1.5704 -2.4106
  122SOPE  H13S12981   2.283   4.687   5.455 -0.2302  0.6624  0.7425
  122SOPE  C21412982   2.338   4.788   5.287 -0.3432 -0.7974 -0.2482
  122SOPE  H14R12983   2.420   4.720   5.256 -1.1334 -1.0678 -1.8434
  122SOPE  H14S12984   2.377   4.885   5.250  0.2051 -1.1326 -0.5580
  122SOPE  C21512985   2.223   4.738   5.195 -0.0853  0.5158  0.1046
  122SOPE  H15R12986   2.134   4.800   5.218  0.0359 -0.3756  3.4989
  122SOPE  H15S12987   2.198   4.634   5.226 -0.2200 -0.9429 -4.2398
  122SOPE  C21612988   2.257   4.732   5.047 -0.1282  0.0693 -0.1320
  122SOPE  H16R12989   2.180   4.676   4.989  1.7057 -1.5881 -1.0497
  122SOPE  H16S12990   2.355   4.682   5.035 -0.9150 -1.3942 -0.6812
  122SOPE  C21712991   2.249   4.872   4.992 -0.4779 -0.3982  0.1991
  122SOPE  H17R12992   2.330   4.942   5.021 -0.8642  0.9427 -1.7545
  122SOPE  H17S12993   2.162   4.923   5.039 -0.0659  0.2219  0.3038
  122SOPE  C21812994   2.239   4.878   4.837 -0.3830  0.0053  0.3384
  122SOPE  H18R12995   2.302   4.803   4.785 -0.7078 -0.0468  0.0186
  122SOPE  H18S12996   2.282   4.977   4.808 -2.6037  0.8221 -0.3705
  122SOPE  H18T12997   2.138   4.864   4.794 -0.8396  2.6219  0.3692
  122SOPE   C3312998   1.672   5.388   5.880 -0.7615  0.5599 -0.1643
  122SOPE   H3X12999   1.722   5.315   5.948 -1.9611 -0.2234 -0.0733
  122SOPE   H3Y13000   1.690   5.490   5.918 -1.9367  0.7476 -0.0526
  122SOPE   C3413001   1.754   5.365   5.749  0.6705 -0.5405 -0.0806
  122SOPE   H4X13002   1.861   5.369   5.778  0.5960 -2.0324  0.5340
  122SOPE   H4Y13003   1.725   5.443   5.676 -1.7521 -2.8287 -1.8106
  122SOPE   C3513004   1.728   5.228   5.677 -0.3174 -0.1169 -0.8045
  122SOPE   H5X13005   1.617   5.232   5.665 -0.5747  3.2133  1.3476
  122SOPE   H5Y13006   1.747   5.143   5.745 -1.6595  0.6105  0.5546
  122SOPE   C3613007   1.802   5.215   5.548  0.0589  0.0648  0.0679
  122SOPE   H6X13008   1.910   5.193   5.564  0.0713 -0.8469 -1.1370
  122SOPE   H6Y13009   1.779   5.312   5.499 -3.0591 -0.3873  0.4050
  122SOPE   C3713010   1.747   5.098   5.466  0.0117 -1.3018 -0.0855
  122SOPE   H7X13011   1.638   5.101   5.489  0.5187  1.9387  2.8218
  122SOPE   H7Y13012   1.773   5.003   5.519 -2.3121 -0.4986  2.7568
  122SOPE   C3813013   1.774   5.122   5.317  0.1112  0.1074  0.4905
  122SOPE   H8X13014   1.880   5.103   5.291 -0.4948 -1.0015 -1.3446
  122SOPE   H8Y13015   1.750   5.227   5.292  0.5448  0.3222  0.9513
  122SOPE   C3913016   1.695   5.023   5.234 -0.0615 -0.3731  0.5938
  122SOPE   H9X13017   1.589   5.021   5.269 -0.4347  2.0488 -0.2194
  122SOPE   H9Y13018   1.732   4.924   5.269  1.8298  0.5604  1.3492
  122SOPE  C31013019   1.699   5.043   5.086 -0.7489 -0.3171  0.0098
  122SOPE  H10X13020   1.806   5.038   5.058 -0.0984 -2.8870  2.4924
  122SOPE  H10Y13021   1.651   5.142   5.070 -1.4459 -0.2289  2.2543
  122SOPE  C31113022   1.620   4.939   4.999  0.2178  0.4581  0.3602
  122SOPE  H11X13023   1.512   4.959   5.016  0.5679  0.9054  2.3449
  122SOPE  H11Y13024   1.637   4.833   5.026  0.5899  0.1631 -0.9763
  122SOPE  C31213025   1.663   4.950   4.851 -0.0739 -0.2547  0.3296
  122SOPE  H12X13026   1.765   4.908   4.848  0.1305 -0.0421  2.4685
  122SOPE  H12Y13027   1.670   5.056   4.818 -2.3785 -0.1366  0.0059
  122SOPE  C31313028   1.571   4.872   4.750  0.5196 -0.5383 -0.5120
  122SOPE  H13X13029   1.566   4.763   4.769 -0.3727 -0.6236 -1.1753
  122SOPE  H13Y13030   1.621   4.873   4.651  0.5473 -0.5355 -0.4979
  122SOPE  C31413031   1.431   4.934   4.748 -0.1024  0.6382  0.0588
  122SOPE  H14X13032   1.442   5.037   4.791  1.7746  1.1941 -1.6117
  122SOPE  H14Y13033   1.359   4.887   4.819 -1.1792 -0.0811 -1.4569
  122SOPE  C31513034   1.365   4.948   4.604 -0.8950 -0.8403 -0.6603
  122SOPE  H15X13035   1.264   4.981   4.634  0.2951  1.4546  1.2094
  122SOPE  H15Y13036   1.365   4.848   4.556  0.9317 -1.8780  1.2967
  122SOPE  C31613037   1.435   5.043   4.511  0.3724  0.2519 -0.0875
  122SOPE  H16X13038   1.537   5.004   4.492 -0.6763 -3.3455  0.9099
  122SOPE  H16Y13039   1.442   5.146   4.555 -0.7334  0.6840 -0.8862
  122SOPE  C31713040   1.363   5.057   4.375 -0.1336 -0.2845 -0.3158
  122SOPE  H17X13041   1.337   4.961   4.326  0.1624 -0.1351 -0.7734
  122SOPE  H17Y13042   1.433   5.108   4.305 -0.3258 -2.6477 -2.3812
  122SOPE  C31813043   1.231   5.128   4.383  0.2764 -0.0484  0.8395
  122SOPE  H18X13044   1.253   5.222   4.438  1.5712  0.8011 -1.0170
  122SOPE  H18Y13045   1.159   5.061   4.433  0.2246 -0.5286  0.1325
  122SOPE  H18Z13046   1.197   5.162   4.283  0.2473 -0.4007  0.7284
  123SOPE     N13047   2.387   5.404   2.162 -0.0770 -0.0011  0.2906
  123SOPE   HN113048   2.392   5.508   2.163 -2.5509  0.1770  1.3757
  123SOPE   HN213049   2.349   5.372   2.071  0.5786 -2.1772  0.7080
  123SOPE   HN313050   2.315   5.377   2.232 -1.9106  3.6657  0.0189
  123SOPE   C1213051   2.523   5.336   2.172 -0.5026 -0.1387  0.2982
  123SOPE  H12A13052   2.592   5.407   2.221  0.8845 -0.2850 -1.3378
  123SOPE  H12B13053   2.552   5.321   2.065 -2.9816 -2.7715 -0.1381
  123SOPE   C1113054   2.518   5.201   2.250  0.3986 -0.0916 -0.7301
  123SOPE  H11A13055   2.523   5.222   2.359  1.0759  1.3565 -1.0093
  123SOPE  H11B13056   2.611   5.142   2.243 -0.5721 -1.5807 -1.5872
  123SOPE     P13057   2.424   4.978   2.151 -0.0468 -0.1460 -0.3935
  123SOPE   O1313058   2.494   5.010   2.035 -0.0761  0.0789  0.3262
  123SOPE   O1413059   2.298   4.914   2.133 -0.3636 -0.2586 -0.3798
  123SOPE   O1213060   2.399   5.121   2.225  0.0532  0.3422  0.5929
  123SOPE   O1113061   2.514   4.888   2.249 -0.3191  0.0932 -0.2678
  123SOPE    C113062   2.496   4.877   2.397  0.8748 -0.1817  0.4794
  123SOPE    HA13063   2.482   4.975   2.447  0.2999 -0.1426  0.2537
  123SOPE    HB13064   2.588   4.824   2.430 -0.2098 -3.4095 -1.1787
  123SOPE    C213065   2.371   4.794   2.440 -1.2063 -0.2393  0.3503
  123SOPE    HS13066   2.285   4.860   2.415 -0.8353  0.6906  1.3895
  123SOPE   O2113067   2.371   4.773   2.579  0.0831  0.3357 -0.0876
  123SOPE   C2113068   2.346   4.867   2.662  0.3437  0.2532 -0.2941
  123SOPE   O2213069   2.308   4.979   2.640 -0.1595  0.7233 -0.1156
  123SOPE   C2213070   2.361   4.809   2.796 -0.5473  0.0190  0.0140
  123SOPE   H2R13071   2.352   4.891   2.870 -0.3658 -1.9518  2.3162
  123SOPE   H2S13072   2.463   4.764   2.791 -0.7405 -0.3480 -0.9410
  123SOPE    C313073   2.375   4.668   2.360  0.3079 -0.0662 -0.3263
  123SOPE    HX13074   2.364   4.695   2.253 -2.6016  0.5786  0.0425
  123SOPE    HY13075   2.277   4.619   2.380  0.1153  0.2739 -0.4205
  123SOPE   O3113076   2.497   4.589   2.372 -0.5999 -0.6944 -0.2025
  123SOPE   C3113077   2.486   4.503   2.473 -0.3290 -0.0824 -0.2226
  123SOPE   O3213078   2.386   4.488   2.545  0.7168  0.2261 -0.5597
  123SOPE   C3213079   2.623   4.425   2.488  0.0706 -0.0508 -0.3784
  123SOPE   H2X13080   2.626   4.338   2.418 -1.6449 -0.0751 -0.4673
  123SOPE   H2Y13081   2.622   4.373   2.587 -0.2488 -0.9218 -0.8277
  123SOPE   C2313082   2.257   4.698   2.830  0.1881 -0.2729 -0.1754
  123SOPE   H3R13083   2.268   4.614   2.758  1.9746 -0.6829  0.5047
  123SOPE   H3S13084   2.156   4.744   2.825  0.5807  0.9696  1.7780
  123SOPE   C2413085   2.261   4.645   2.979 -0.5809 -0.0029 -0.1352
  123SOPE   H4R13086   2.236   4.726   3.051  1.7460 -1.0856  2.0369
  123SOPE   H4S13087   2.178   4.574   2.996  0.5878 -1.1895  0.8084
  123SOPE   C2513088   2.397   4.574   3.007 -0.1408 -1.0609  0.0282
  123SOPE   H5R13089   2.414   4.494   2.932  0.5895  0.5059 -1.5531
  123SOPE   H5S13090   2.479   4.646   2.985 -1.3786 -0.1287 -1.8484
  123SOPE   C2613091   2.394   4.519   3.154  0.4231 -0.0929  0.0854
  123SOPE   H6R13092   2.292   4.499   3.194 -0.9877  1.8178 -2.2616
  123SOPE   H6S13093   2.450   4.423   3.144 -0.4243 -0.4422 -1.7044
  123SOPE   C2713094   2.473   4.609   3.245  0.7809  0.6042  0.5704
  123SOPE   H7R13095   2.571   4.609   3.192  0.5984 -1.2981  0.1562
  123SOPE   H7S13096   2.422   4.708   3.247 -0.7819 -0.0981 -1.4769
  123SOPE   C2813097   2.496   4.547   3.383 -0.5500 -0.3667 -0.3539
  123SOPE   H8R13098   2.405   4.519   3.441  0.2526 -1.9998  0.1902
  123SOPE   H8S13099   2.539   4.449   3.352  2.1905  1.0978 -1.4454
  123SOPE   C2913100   2.590   4.621   3.478 -0.0372  0.3921  0.3790
  123SOPE   H9113101   2.666   4.671   3.417  0.3437 -1.2602 -0.5646
  123SOPE  C21013102   2.592   4.628   3.616 -0.6181  0.0466 -0.5288
  123SOPE  H10113103   2.663   4.696   3.663 -0.3814  0.7810 -1.8891
  123SOPE  C21113104   2.502   4.558   3.717 -0.0437 -0.2194  0.1526
  123SOPE  H11R13105   2.499   4.450   3.690  1.4498 -0.7197  1.8125
  123SOPE  H11S13106   2.401   4.601   3.701 -0.7603  0.0495  4.2717
  123SOPE  C21213107   2.544   4.556   3.862 -0.6589 -0.6762  0.1526
  123SOPE  H12R13108   2.652   4.539   3.878 -0.1990  0.4591 -1.5226
  123SOPE  H12S13109   2.496   4.471   3.915  1.2599 -1.7317  0.2713
  123SOPE  C21313110   2.500   4.686   3.933 -0.5868  0.7046  0.4475
  123SOPE  H13R13111   2.394   4.716   3.914 -1.1027  1.2766  3.6603
  123SOPE  H13S13112   2.573   4.760   3.893 -0.8944 -0.0734 -1.6907
  123SOPE  C21413113   2.517   4.688   4.085  0.0935  0.5142 -1.3854
  123SOPE  H14R13114   2.615   4.654   4.124 -0.3504  1.0026  0.2518
  123SOPE  H14S13115   2.440   4.617   4.123  0.5953  0.0437 -1.2439
  123SOPE  C21513116   2.480   4.823   4.152  0.3993  0.4746  0.6909
  123SOPE  H15R13117   2.387   4.849   4.097  1.2838  2.1806 -0.0778
  123SOPE  H15S13118   2.561   4.888   4.113  0.2001  0.4440  0.2120
  123SOPE  C21613119   2.467   4.824   4.302  0.2490 -0.4278 -0.2776
  123SOPE  H16R13120   2.567   4.793   4.339 -0.5888 -0.7208  1.8504
  123SOPE  H16S13121   2.392   4.748   4.333 -0.5746  0.7440  0.6813
  123SOPE  C21713122   2.431   4.965   4.355  0.6271  0.8712 -0.3453
  123SOPE  H17R13123   2.328   4.991   4.324 -0.3414 -1.1626  0.9175
  123SOPE  H17S13124   2.489   5.048   4.311 -1.0911  1.3357 -1.8547
  123SOPE  C21813125   2.426   4.987   4.504  0.3234  0.3393  0.0700
  123SOPE  H18R13126   2.527   4.989   4.550  0.0746 -2.5755  0.9733
  123SOPE  H18S13127   2.381   4.897   4.550  1.0235  1.1140  2.4319
  123SOPE  H18T13128   2.364   5.075   4.533  0.3361  0.3225  0.1471
  123SOPE   C3313129   2.750   4.521   2.472  0.3198  0.2972 -0.1238
  123SOPE   H3X13130   2.746   4.576   2.376 -1.6413  1.0356  0.3394
  123SOPE   H3Y13131   2.840   4.456   2.468  1.1101  1.3765 -0.2772
  123SOPE   C3413132   2.780   4.617   2.585 -0.4843  0.0053 -0.4070
  123SOPE   H4X13133   2.707   4.700   2.592  0.1008  0.4572  0.3802
  123SOPE   H4Y13134   2.876   4.658   2.548 -0.1648 -1.7575 -1.6620
  123SOPE   C3513135   2.794   4.555   2.719  0.1975 -0.2692  0.0972
  123SOPE   H5X13136   2.854   4.462   2.720 -1.1970 -1.4431 -3.9687
  123SOPE   H5Y13137   2.694   4.520   2.754 -0.3645  1.2459  0.0972
  123SOPE   C3613138   2.847   4.655   2.824  0.5239 -0.4106  1.0866
  123SOPE   H6X13139   2.817   4.757   2.792 -2.2518 -2.1810 -2.7744
  123SOPE   H6Y13140   2.956   4.659   2.800 -0.3864  2.1639 -4.1685
  123SOPE   C3713141   2.830   4.616   2.967  0.8108 -0.1195 -0.6493
  123SOPE   H7X13142   2.860   4.509   2.977  0.3438 -0.3464 -1.6046
  123SOPE   H7Y13143   2.723   4.622   2.997  0.6825 -2.2394 -0.4758
  123SOPE   C3813144   2.915   4.707   3.064 -0.1350  0.1361 -0.4425
  123SOPE   H8X13145   2.881   4.811   3.047 -1.1836 -0.1598 -0.2733
  123SOPE   H8Y13146   3.019   4.699   3.027  0.0546  1.5996 -0.2813
  123SOPE   C3913147   2.892   4.673   3.210  0.1652  0.2484  0.5299
  123SOPE   H9X13148   2.912   4.564   3.219  0.9293  0.2062 -1.3210
  123SOPE   H9Y13149   2.784   4.685   3.234 -0.7564 -1.3537 -2.2999
  123SOPE  C31013150   2.977   4.760   3.306 -0.3937  0.0692  0.6757
  123SOPE  H10X13151   2.934   4.863   3.305 -0.8237 -0.1109 -0.0192
  123SOPE  H10Y13152   3.084   4.755   3.276  0.0656  4.1542  0.9998
  123SOPE  C31113153   2.965   4.695   3.441  0.3441 -0.4989 -0.4743
  123SOPE  H11X13154   3.018   4.597   3.437 -1.1224 -1.3374 -0.0403
  123SOPE  H11Y13155   2.861   4.657   3.450  0.9930 -2.8334 -1.7936
  123SOPE  C31213156   3.015   4.782   3.555 -0.2411  0.2740 -0.0065
  123SOPE  H12X13157   3.108   4.839   3.534 -0.6110  1.0148  0.3171
  123SOPE  H12Y13158   3.042   4.716   3.641  0.1461 -1.7845 -1.6485
  123SOPE  C31313159   2.919   4.885   3.624 -1.0918  0.5862  0.7074
  123SOPE  H13X13160   2.816   4.844   3.622 -0.5770 -0.7527  0.9517
  123SOPE  H13Y13161   2.915   4.976   3.560 -2.6448 -0.2290 -0.4293
  123SOPE  C31413162   2.971   4.911   3.764  0.5525  0.2239 -0.2153
  123SOPE  H14X13163   3.074   4.951   3.758  0.7716 -0.4423 -1.3192
  123SOPE  H14Y13164   2.959   4.819   3.826 -1.7503 -0.1974 -1.1559
  123SOPE  C31513165   2.881   5.011   3.837  0.3403  0.5682 -0.0450
  123SOPE  H15X13166   2.784   4.961   3.858  0.4386  0.3671 -0.0678
  123SOPE  H15Y13167   2.859   5.098   3.771 -1.7425 -0.5080 -0.8602
  123SOPE  C31613168   2.929   5.047   3.976 -0.0292  0.0239 -0.1717
  123SOPE  H16X13169   2.841   5.101   4.018 -0.1373  0.2453 -0.6802
  123SOPE  H16Y13170   3.018   5.114   3.970 -1.1915  1.6122 -0.5508
  123SOPE  C31713171   2.970   4.938   4.075 -0.0875 -0.2800 -0.2596
  123SOPE  H17X13172   3.005   4.985   4.169  2.1444 -1.6355 -0.3356
  123SOPE  H17Y13173   3.063   4.893   4.033 -0.4902 -1.5566  0.1808
  123SOPE  C31813174   2.861   4.829   4.114 -0.2186 -0.7596 -0.2658
  123SOPE  H18X13175   2.834   4.775   4.021  2.8596 -0.1988 -1.6141
  123SOPE  H18Y13176   2.769   4.884   4.147 -0.9474 -0.4650 -2.6061
  123SOPE  H18Z13177   2.889   4.759   4.196 -0.4934  1.1222  1.5534
  124SOPE     N13178   5.830   3.545   2.620 -0.6814  0.0724 -0.2443
  124SOPE   HN113179   5.918   3.581   2.663 -1.2598  1.8824 -0.4760
  124SOPE   HN213180   5.797   3.463   2.673  0.6227  0.7690  1.7653
  124SOPE   HN313181   5.845   3.526   2.519  0.3401  0.5559 -0.1972
  124SOPE   C1213182   5.739   3.658   2.634  0.1262 -0.2758  0.3379
  124SOPE  H12A13183   5.770   3.732   2.557  0.3644 -0.8469 -0.1192
  124SOPE  H12B13184   5.757   3.702   2.735  0.7621 -0.1504  0.1715
  124SOPE   C1113185   5.596   3.618   2.594 -0.5446  0.0342  0.3426
  124SOPE  H11A13186   5.549   3.561   2.677 -0.7497  1.8992  1.5768
  124SOPE  H11B13187   5.606   3.555   2.504  0.3687 -0.9008  1.0760
  124SOPE     P13188   5.392   3.746   2.474  0.1509  0.6646  0.9604
  124SOPE   O1313189   5.441   3.711   2.339 -0.2960  0.8087 -0.1753
  124SOPE   O1413190   5.342   3.884   2.494  0.2976 -0.3488  0.0740
  124SOPE   O1213191   5.517   3.736   2.569 -0.1491 -0.2267  0.1974
  124SOPE   O1113192   5.293   3.642   2.544  0.3293 -0.5546 -0.2580
  124SOPE    C113193   5.209   3.692   2.656  0.5714 -0.0396 -0.4715
  124SOPE    HA13194   5.126   3.620   2.673  2.4994 -2.3233 -0.1778
  124SOPE    HB13195   5.162   3.788   2.626 -0.0701 -0.9129 -2.4315
  124SOPE    C213196   5.283   3.691   2.790  1.2866  0.8294  0.1968
  124SOPE    HS13197   5.364   3.767   2.784  0.2106  2.1119  1.2472
  124SOPE   O2113198   5.330   3.560   2.822  0.4273 -0.6243 -0.6381
  124SOPE   C2113199   5.403   3.567   2.935 -0.3065  0.7968  0.7252
  124SOPE   O2213200   5.472   3.655   2.975 -0.2917  0.8473  0.5452
  124SOPE   C2213201   5.389   3.429   3.002  0.1918  0.6521  0.3435
  124SOPE   H2R13202   5.486   3.409   3.052  0.7736 -0.0427 -1.0378
  124SOPE   H2S13203   5.362   3.350   2.929  0.8325  1.0656 -0.3467
  124SOPE    C313204   5.182   3.762   2.893 -0.7483  0.4755  0.1300
  124SOPE    HX13205   5.106   3.685   2.918 -0.0198  0.7936  4.0838
  124SOPE    HY13206   5.128   3.850   2.851 -3.7679 -0.7682  1.1079
  124SOPE   O3113207   5.237   3.794   3.028  0.1122 -0.2084 -0.4328
  124SOPE   C3113208   5.312   3.906   3.018  0.0664 -0.2152  0.2165
  124SOPE   O3213209   5.311   3.983   2.925  0.8398 -0.1690 -0.6250
  124SOPE   C3213210   5.369   3.921   3.165  0.3769  0.1439 -0.0532
  124SOPE   H2X13211   5.414   3.826   3.201  0.4250  0.3886  0.5470
  124SOPE   H2Y13212   5.288   3.947   3.236  0.0547 -0.6018 -0.1422
  124SOPE   C2313213   5.279   3.432   3.111 -0.4909  0.3822 -1.1640
  124SOPE   H3R13214   5.248   3.326   3.125  0.3537  0.3419  0.8926
  124SOPE   H3S13215   5.184   3.474   3.072 -3.8368 -5.0070  0.1142
  124SOPE   C2413216   5.319   3.479   3.253 -0.2549  0.6220  0.4400
  124SOPE   H4R13217   5.414   3.431   3.287 -1.4230 -1.7615  0.5782
  124SOPE   H4S13218   5.332   3.588   3.241 -2.5116  0.8781 -0.0123
  124SOPE   C2513219   5.205   3.454   3.354  0.3757  0.1513 -0.8821
  124SOPE   H5R13220   5.119   3.513   3.314  1.5740  2.1033 -0.6950
  124SOPE   H5S13221   5.164   3.356   3.383  0.1690  1.0145  2.0112
  124SOPE   C2613222   5.247   3.518   3.482 -0.5405 -0.4912  0.0344
  124SOPE   H6R13223   5.330   3.452   3.516  0.4922 -0.1576 -1.7498
  124SOPE   H6S13224   5.296   3.616   3.466  0.2943 -0.9946 -0.5941
  124SOPE   C2713225   5.136   3.526   3.585  0.2204 -0.4420  0.6437
  124SOPE   H7R13226   5.055   3.594   3.551 -0.9566 -1.3701  1.5064
  124SOPE   H7S13227   5.096   3.422   3.587  1.3743 -0.8900  1.5387
  124SOPE   C2813228   5.176   3.566   3.733  0.2061 -0.0000  0.1759
  124SOPE   H8R13229   5.090   3.586   3.800  0.9622  1.4990  0.7556
  124SOPE   H8S13230   5.240   3.488   3.780 -0.2072 -1.5291 -1.6542
  124SOPE   C2913231   5.263   3.696   3.738 -0.1477 -0.3586  0.7406
  124SOPE   H9113232   5.320   3.727   3.649 -0.4225  0.4802  0.8536
  124SOPE  C21013233   5.285   3.779   3.843 -0.9272 -0.2449 -0.7803
  124SOPE  H10113234   5.358   3.860   3.827  0.5625 -1.2113  0.7864
  124SOPE  C21113235   5.237   3.764   3.987 -0.4576 -0.1715 -0.0469
  124SOPE  H11R13236   5.147   3.699   3.997 -1.1088  0.7294  0.0681
  124SOPE  H11S13237   5.206   3.862   4.029  1.4006 -0.2816  1.7749
  124SOPE  C21213238   5.349   3.710   4.083  0.4033  0.5147  0.0814
  124SOPE  H12R13239   5.452   3.734   4.050  0.5581 -0.7414 -0.3894
  124SOPE  H12S13240   5.337   3.600   4.090  4.1585 -0.1695 -2.0202
  124SOPE  C21313241   5.328   3.761   4.229 -0.4714  0.4600  0.4844
  124SOPE  H13R13242   5.219   3.743   4.242 -0.6862  1.6893  0.4840
  124SOPE  H13S13243   5.340   3.868   4.255  0.0252  0.3312  0.7967
  124SOPE  C21413244   5.403   3.677   4.333  0.2635  0.8488 -0.5531
  124SOPE  H14R13245   5.509   3.695   4.306 -0.1545  0.3148 -2.7771
  124SOPE  H14S13246   5.381   3.570   4.314 -0.1241  0.9836 -0.8785
  124SOPE  C21513247   5.375   3.711   4.487  0.5065 -0.0282 -0.4142
  124SOPE  H15R13248   5.440   3.646   4.549 -0.8858 -0.3888  0.7342
  124SOPE  H15S13249   5.266   3.696   4.507 -0.0371  1.8160 -1.7801
  124SOPE  C21613250   5.411   3.854   4.531  0.1326  0.0620 -0.4918
  124SOPE  H16R13251   5.349   3.924   4.471  1.7395  2.3259  0.3284
  124SOPE  H16S13252   5.514   3.863   4.490  0.0842  3.8159 -0.1923
  124SOPE  C21713253   5.402   3.868   4.683  0.3026  0.8394 -0.3325
  124SOPE  H17R13254   5.474   3.799   4.733  1.4893  2.4249  0.2233
  124SOPE  H17S13255   5.305   3.825   4.716  0.5047 -1.1818 -2.1409
  124SOPE  C21813256   5.425   4.012   4.742 -0.0103 -0.0710 -0.0360
  124SOPE  H18R13257   5.347   4.080   4.702 -2.4355 -2.4753  0.3094
  124SOPE  H18S13258   5.525   4.051   4.714  0.6552 -0.6759  1.4324
  124SOPE  H18T13259   5.433   4.001   4.852 -1.1033  0.0324  0.0677
  124SOPE   C3313260   5.474   4.029   3.187 -0.3142 -0.1355  0.7994
  124SOPE   H3X13261   5.428   4.130   3.183  0.8244  0.3595 -1.0860
  124SOPE   H3Y13262   5.557   4.015   3.114 -0.6834 -1.3949  0.6057
  124SOPE   C3413263   5.559   4.003   3.305  0.2451 -0.4310 -0.1038
  124SOPE   H4X13264   5.643   4.075   3.298 -0.2161  0.1277  0.0263
  124SOPE   H4Y13265   5.612   3.906   3.302  1.9058  0.4418 -0.3183
  124SOPE   C3513266   5.478   4.033   3.438 -0.0759  0.0644 -0.1403
  124SOPE   H5X13267   5.390   3.966   3.453 -0.2601  0.8141  2.9516
  124SOPE   H5Y13268   5.440   4.137   3.430  0.1991  0.2094  0.3423
  124SOPE   C3613269   5.558   4.023   3.568 -0.2541 -0.1065 -0.2573
  124SOPE   H6X13270   5.660   4.063   3.548 -0.4481 -0.6564 -2.6408
  124SOPE   H6Y13271   5.568   3.915   3.591  0.1905 -0.0274 -0.0550
  124SOPE   C3713272   5.482   4.097   3.682 -0.4987  0.6259 -0.9493
  124SOPE   H7X13273   5.408   4.028   3.728 -0.9267  0.5710 -1.6971
  124SOPE   H7Y13274   5.427   4.184   3.639 -3.2512  0.0375  1.1033
  124SOPE   C3813275   5.565   4.158   3.796  0.4505 -0.0109 -1.0577
  124SOPE   H8X13276   5.496   4.217   3.860  0.1557 -1.1862 -0.2533
  124SOPE   H8Y13277   5.648   4.216   3.751  0.7055  0.0819 -0.4692
  124SOPE   C3913278   5.628   4.053   3.888 -0.3811 -0.6905  0.4254
  124SOPE   H9X13279   5.707   3.986   3.846  0.0650  1.2962 -2.2217
  124SOPE   H9Y13280   5.546   3.979   3.901  0.5774 -2.9057 -4.1122
  124SOPE  C31013281   5.681   4.112   4.015  0.2217  0.3838  0.0492
  124SOPE  H10X13282   5.614   4.188   4.061  0.7822 -0.0935  1.7432
  124SOPE  H10Y13283   5.777   4.162   3.992  0.0964 -0.0098 -1.4200
  124SOPE  C31113284   5.705   3.996   4.117  0.0140  0.8300  0.5344
  124SOPE  H11X13285   5.770   3.916   4.075 -2.4014 -1.0078  0.0027
  124SOPE  H11Y13286   5.611   3.941   4.142 -0.3243  0.3996 -1.5253
  124SOPE  C31213287   5.785   4.033   4.246 -0.7293  0.5722 -0.1620
  124SOPE  H12X13288   5.722   4.101   4.308 -0.7379 -0.2717  0.7785
  124SOPE  H12Y13289   5.877   4.090   4.221  1.6613 -3.5671 -1.8081
  124SOPE  C31313290   5.803   3.911   4.333  0.2993 -0.0820  0.8342
  124SOPE  H13X13291   5.862   3.835   4.278  0.8641  0.4944  0.6294
  124SOPE  H13Y13292   5.706   3.865   4.361 -0.3377  1.3916  1.1743
  124SOPE  C31413293   5.869   3.930   4.469 -0.1441  0.2196  0.0368
  124SOPE  H14X13294   5.803   3.990   4.534  2.5432  2.5578  0.8355
  124SOPE  H14Y13295   5.961   3.989   4.448 -0.5346  0.2932 -1.6592
  124SOPE  C31513296   5.922   3.791   4.528 -0.2410  0.6754  0.6565
  124SOPE  H15X13297   5.974   3.819   4.623 -0.7502 -2.5694  2.0298
  124SOPE  H15Y13298   5.991   3.746   4.453  1.4473  2.5889  0.9501
  124SOPE  C31613299   5.799   3.715   4.581  0.2454  0.4508  0.3791
  124SOPE  H16X13300   5.753   3.675   4.488  1.5246  1.1657 -0.5943
  124SOPE  H16Y13301   5.723   3.780   4.629 -2.3158 -2.2270  0.2560
  124SOPE  C31713302   5.833   3.592   4.673  0.1509  0.3618 -0.2725
  124SOPE  H17X13303   5.878   3.631   4.767 -1.7155 -0.6593  1.1109
  124SOPE  H17Y13304   5.912   3.531   4.623  0.0696  0.0460 -0.0195
  124SOPE  C31813305   5.701   3.519   4.710 -0.8734  0.2045  0.2640
  124SOPE  H18X13306   5.723   3.431   4.774 -1.0394 -1.1161 -1.4099
  124SOPE  H18Y13307   5.657   3.469   4.621  1.4257  0.5923 -1.1785
  124SOPE  H18Z13308   5.630   3.586   4.763  0.4775  1.6056  0.3658
  125SOPE     N13309   3.695   2.785   2.100 -0.1886 -0.4617 -0.3782
  125SOPE   HN113310   3.691   2.725   2.185  0.4773  2.7735  2.1059
  125SOPE   HN213311   3.782   2.840   2.096 -0.8384  0.5358 -1.6620
  125SOPE   HN313312   3.616   2.851   2.086  0.4382  0.0866 -1.5078
  125SOPE   C1213313   3.707   2.704   1.980 -0.5324  0.1837 -0.4177
  125SOPE  H12A13314   3.814   2.673   1.972 -0.3860  0.4028  0.5366
  125SOPE  H12B13315   3.675   2.764   1.892 -2.2070 -0.7099 -0.4486
  125SOPE   C1113316   3.621   2.574   1.982  0.1366 -0.1626 -0.6017
  125SOPE  H11A13317   3.647   2.515   1.892 -1.6161  1.2273 -2.0743
  125SOPE  H11B13318   3.518   2.612   2.000  0.0834 -1.2732  1.8354
  125SOPE     P13319   3.581   2.365   2.126 -0.2079 -0.0898  0.1785
  125SOPE   O1313320   3.686   2.286   2.193 -0.2235  0.6213  0.0105
  125SOPE   O1413321   3.536   2.312   1.995 -0.6548 -0.5695 -0.2778
  125SOPE   O1213322   3.646   2.496   2.102  0.2881 -0.3000 -0.3327
  125SOPE   O1113323   3.451   2.397   2.218 -0.6072 -0.2880 -0.0016
  125SOPE    C113324   3.461   2.499   2.321 -0.5808  0.1550  0.6248
  125SOPE    HA13325   3.472   2.599   2.272 -0.9422  0.4295  1.1017
  125SOPE    HB13326   3.546   2.473   2.388 -0.6138 -3.2301 -0.4674
  125SOPE    C213327   3.344   2.504   2.423  0.0810  0.6729  0.1173
  125SOPE    HS13328   3.266   2.552   2.361  0.3812  0.0529 -0.7656
  125SOPE   O2113329   3.378   2.577   2.539 -0.1806 -0.2968 -0.1456
  125SOPE   C2113330   3.333   2.693   2.565 -0.1141 -0.2826  0.3548
  125SOPE   O2213331   3.248   2.752   2.498  0.1850 -0.3084 -0.2784
  125SOPE   C2213332   3.400   2.751   2.683 -0.2630 -0.2207 -0.3732
  125SOPE   H2R13333   3.449   2.667   2.737  1.5218 -0.4234 -2.1701
  125SOPE   H2S13334   3.324   2.798   2.749 -0.4861 -0.1093 -0.7031
  125SOPE    C313335   3.275   2.368   2.459 -0.2333  0.6202  0.7359
  125SOPE    HX13336   3.350   2.305   2.510 -1.2312 -1.1938  0.0402
  125SOPE    HY13337   3.246   2.325   2.361 -0.9141  0.4278  1.0106
  125SOPE   O3113338   3.159   2.388   2.533  0.0540 -0.3074 -0.4752
  125SOPE   C3113339   3.170   2.396   2.669  0.2276 -0.4946  0.1292
  125SOPE   O3213340   3.273   2.383   2.730 -0.0802 -0.1414  0.2685
  125SOPE   C3213341   3.026   2.434   2.721  0.6457 -0.1395  0.3011
  125SOPE   H2X13342   2.968   2.341   2.742 -2.2164  2.0462  3.1356
  125SOPE   H2Y13343   2.960   2.487   2.648  1.6952 -1.4981 -1.7420
  125SOPE   C2313344   3.497   2.865   2.649 -0.0133  0.3906  0.1960
  125SOPE   H3R13345   3.443   2.947   2.598 -0.8523 -0.1833  0.1488
  125SOPE   H3S13346   3.581   2.828   2.586  0.5807  1.4387  0.3505
  125SOPE   C2413347   3.557   2.932   2.781 -0.0696 -0.0926  0.3713
  125SOPE   H4R13348   3.468   2.945   2.846 -0.5733 -1.0073 -0.1157
  125SOPE   H4S13349   3.629   2.856   2.818  0.0579 -0.0483  0.2198
  125SOPE   C2513350   3.624   3.068   2.751  0.6429  0.0550 -0.5200
  125SOPE   H5R13351   3.707   3.053   2.679  3.0609  1.2162  1.8765
  125SOPE   H5S13352   3.551   3.143   2.713 -0.0319 -0.5205 -0.3863
  125SOPE   C2613353   3.708   3.120   2.870  0.0622 -0.6899  0.4974
  125SOPE   H6R13354   3.770   3.038   2.913  1.5754 -0.0772 -0.4132
  125SOPE   H6S13355   3.778   3.194   2.825 -0.8142 -1.1682 -1.7865
  125SOPE   C2713356   3.626   3.194   2.978 -0.4136  0.5012 -0.4018
  125SOPE   H7R13357   3.706   3.229   3.046  1.6641  0.4479 -2.6544
  125SOPE   H7S13358   3.576   3.278   2.925  1.6249  0.6788 -2.2003
  125SOPE   C2813359   3.521   3.118   3.067 -0.6428  0.0304 -0.5140
  125SOPE   H8R13360   3.486   3.199   3.134  1.3834  1.3983 -1.0215
  125SOPE   H8S13361   3.432   3.088   3.008  1.2360 -1.3194 -2.8382
  125SOPE   C2913362   3.574   2.999   3.136 -0.5737 -0.2341  0.4338
  125SOPE   H9113363   3.574   2.906   3.077  1.6967 -0.5044  0.7798
  125SOPE  C21013364   3.639   2.985   3.258 -0.0798 -0.7034 -0.0509
  125SOPE  H10113365   3.659   2.881   3.286  1.1190 -0.6923 -0.8043
  125SOPE  C21113366   3.668   3.090   3.356  0.6911  0.3083 -0.2438
  125SOPE  H11R13367   3.655   3.192   3.313  1.0266 -0.1421 -1.4410
  125SOPE  H11S13368   3.774   3.086   3.389  1.5982 -1.7141 -3.0407
  125SOPE  C21213369   3.585   3.076   3.486 -0.1325  0.0529 -0.2161
  125SOPE  H12R13370   3.476   3.065   3.465  0.3549 -3.2000 -1.7921
  125SOPE  H12S13371   3.608   3.165   3.548 -1.6740  1.5881 -1.7312
  125SOPE  C21313372   3.624   2.950   3.566  0.2309  0.8196 -0.9739
  125SOPE  H13R13373   3.731   2.958   3.597 -0.6706  3.2842  1.9619
  125SOPE  H13S13374   3.607   2.846   3.532  2.5180 -0.7379  2.0840
  125SOPE  C21413375   3.550   2.940   3.704 -0.3400  0.1808  0.3969
  125SOPE  H14R13376   3.442   2.927   3.680  0.0878 -1.9061 -0.6532
  125SOPE  H14S13377   3.565   3.044   3.739  2.8332 -0.9247  2.7340
  125SOPE  C21513378   3.597   2.824   3.798 -0.3513 -0.6540  0.2268
  125SOPE  H15R13379   3.707   2.836   3.784 -0.3165 -1.6339 -0.4229
  125SOPE  H15S13380   3.574   2.729   3.746 -0.5935 -1.4446  1.7244
  125SOPE  C21613381   3.532   2.826   3.940 -0.2979  0.9264  0.2312
  125SOPE  H16R13382   3.429   2.784   3.940  0.7064 -1.6861  0.5992
  125SOPE  H16S13383   3.520   2.928   3.982 -2.3787  0.1879  1.5451
  125SOPE  C21713384   3.616   2.742   4.034  0.4357  0.0151 -1.3512
  125SOPE  H17R13385   3.723   2.769   4.047  0.7353 -1.1948 -1.2234
  125SOPE  H17S13386   3.614   2.638   3.997  0.2328 -0.9008  1.0652
  125SOPE  C21813387   3.547   2.732   4.173 -0.2492 -0.4847  0.5181
  125SOPE  H18R13388   3.440   2.702   4.166 -0.8533  1.8317 -1.5506
  125SOPE  H18S13389   3.551   2.829   4.227 -1.9552  0.7798 -1.4633
  125SOPE  H18T13390   3.597   2.650   4.229 -0.7262 -2.0338 -1.2374
  125SOPE   C3313391   3.013   2.517   2.855 -0.1354  0.9646  0.0334
  125SOPE   H3X13392   3.061   2.462   2.938 -0.3831  2.3089  1.0961
  125SOPE   H3Y13393   2.914   2.531   2.902  0.3543  0.4396  1.2667
  125SOPE   C3413394   3.067   2.658   2.840  0.5382  0.1663 -0.1782
  125SOPE   H4X13395   3.009   2.723   2.772 -0.8861  0.1254  0.9444
  125SOPE   H4Y13396   3.169   2.660   2.797 -0.1643 -0.5967 -1.9970
  125SOPE   C3513397   3.063   2.746   2.969  0.2718 -0.3315 -0.6147
  125SOPE   H5X13398   2.958   2.746   3.006  0.4698 -0.3599 -0.0516
  125SOPE   H5Y13399   3.088   2.853   2.954  0.9958 -0.4232 -0.0861
  125SOPE   C3613400   3.139   2.689   3.092 -0.2603  0.0256 -1.1502
  125SOPE   H6X13401   3.099   2.587   3.114  0.9462 -0.4090 -0.8807
  125SOPE   H6Y13402   3.110   2.740   3.186 -1.4234 -1.1102 -0.8657
  125SOPE   C3713403   3.288   2.677   3.085  0.3644  0.0675 -0.6590
  125SOPE   H7X13404   3.335   2.775   3.063  0.2651  0.2007 -0.2761
  125SOPE   H7Y13405   3.321   2.601   3.011 -2.4001  0.1424 -2.1047
  125SOPE   C3813406   3.337   2.624   3.217  0.2446  0.0721  0.3831
  125SOPE   H8X13407   3.287   2.538   3.265  1.3524  0.3998  2.2026
  125SOPE   H8Y13408   3.333   2.702   3.296  2.0923  1.6167 -0.9318
  125SOPE   C3913409   3.486   2.588   3.201 -0.8015 -0.0435 -0.5835
  125SOPE   H9X13410   3.522   2.680   3.150  0.3003  1.5910  2.8332
  125SOPE   H9Y13411   3.490   2.497   3.137 -1.4611 -0.7792  0.3959
  125SOPE  C31013412   3.565   2.560   3.330  0.4302 -0.4080  0.0576
  125SOPE  H10X13413   3.541   2.647   3.395  2.2127  1.4658 -1.5980
  125SOPE  H10Y13414   3.673   2.560   3.304 -0.0111 -1.9294 -2.1024
  125SOPE  C31113415   3.532   2.429   3.398 -0.2032 -0.3211  0.0753
  125SOPE  H11X13416   3.578   2.343   3.343 -0.6372 -1.2423  1.1287
  125SOPE  H11Y13417   3.423   2.412   3.401 -0.3534 -0.0627 -2.1720
  125SOPE  C31213418   3.586   2.421   3.548  0.0011 -0.4722 -0.7834
  125SOPE  H12X13419   3.571   2.515   3.604 -0.6738 -0.6103 -0.7234
  125SOPE  H12Y13420   3.697   2.414   3.548 -0.0339 -3.2353  2.1182
  125SOPE  C31313421   3.529   2.313   3.633 -0.8717  0.2134 -0.4353
  125SOPE  H13X13422   3.529   2.214   3.583  2.3243  0.6211 -1.4830
  125SOPE  H13Y13423   3.427   2.345   3.664 -0.5471  0.7705  0.0913
  125SOPE  C31413424   3.588   2.294   3.774  0.2978 -0.3763 -0.7655
  125SOPE  H14X13425   3.660   2.374   3.801  0.4024 -1.2593  1.8674
  125SOPE  H14Y13426   3.642   2.197   3.772 -1.8864 -1.6465 -1.6180
  125SOPE  C31513427   3.481   2.286   3.886  0.3051  0.3423  0.7857
  125SOPE  H15X13428   3.407   2.207   3.861 -0.5524  1.8165 -1.7532
  125SOPE  H15Y13429   3.425   2.381   3.899 -3.4486 -1.6444  0.5670
  125SOPE  C31613430   3.545   2.257   4.024  0.2895  0.0598  0.8847
  125SOPE  H16X13431   3.608   2.347   4.040  2.2298 -0.7425 -1.6387
  125SOPE  H16Y13432   3.604   2.165   4.007  1.3707  0.8953 -0.1159
  125SOPE  C31713433   3.437   2.238   4.136  0.2437 -0.1767 -0.8274
  125SOPE  H17X13434   3.398   2.135   4.126  0.3799 -0.6211  2.2132
  125SOPE  H17Y13435   3.358   2.314   4.117  1.7728  1.8071  0.2573
  125SOPE  C31813436   3.485   2.255   4.288  0.2439  0.0187 -0.0742
  125SOPE  H18X13437   3.553   2.338   4.318 -0.4601  0.5899 -0.0133
  125SOPE  H18Y13438   3.543   2.165   4.314  1.2575  0.9756  1.0846
  125SOPE  H18Z13439   3.394   2.277   4.348  2.1396 -0.5848  3.1944
  126SOPE     N13440   3.470   6.824   1.816 -0.0830  0.6865 -0.0780
  126SOPE   HN113441   3.560   6.775   1.837  0.3769  1.2082 -0.7716
  126SOPE   HN213442   3.387   6.766   1.838 -1.0505  2.0054 -0.1519
  126SOPE   HN313443   3.466   6.848   1.715  0.4933 -0.5000 -0.3967
  126SOPE   C1213444   3.458   6.953   1.891  0.0124 -0.6579 -0.5445
  126SOPE  H12A13445   3.369   7.014   1.866  1.6296  0.9485 -2.8055
  126SOPE  H12B13446   3.544   7.017   1.860 -3.1731  3.4977 -1.7363
  126SOPE   C1113447   3.467   6.922   2.040  0.6447  0.0376 -0.2734
  126SOPE  H11A13448   3.503   7.011   2.097 -1.7228 -0.5671  2.3469
  126SOPE  H11B13449   3.553   6.853   2.055  1.2696  0.6340 -0.9565
  126SOPE     P13450   3.219   6.928   2.147  0.2219  0.7303 -0.3463
  126SOPE   O1313451   3.147   6.813   2.206 -0.0888  0.0393  0.2893
  126SOPE   O1413452   3.153   7.000   2.038  0.0159 -0.0203 -0.1252
  126SOPE   O1213453   3.353   6.866   2.098 -0.0836 -0.1462 -0.5165
  126SOPE   O1113454   3.247   7.027   2.268 -0.2072  0.3117 -0.5496
  126SOPE    C113455   3.326   6.988   2.384  0.1757  0.7841  0.0953
  126SOPE    HA13456   3.432   7.008   2.359  0.4106 -1.1230 -0.6483
  126SOPE    HB13457   3.313   6.882   2.417 -1.3837  0.8205 -0.2918
  126SOPE    C213458   3.298   7.069   2.509 -0.2973 -0.1509 -0.7043
  126SOPE    HS13459   3.378   7.040   2.582 -0.4266  1.9917  0.3680
  126SOPE   O2113460   3.162   7.040   2.551 -0.1190  0.0080  0.3042
  126SOPE   C2113461   3.138   7.058   2.676  0.4904  0.1610  0.3101
  126SOPE   O2213462   3.222   7.077   2.762  0.4455  0.0205  0.6129
  126SOPE   C2213463   2.988   7.042   2.707 -0.4987  0.1996 -0.7316
  126SOPE   H2R13464   2.948   6.949   2.660 -2.3365  1.2770 -1.3724
  126SOPE   H2S13465   2.945   7.124   2.645  0.1351  2.1799  1.3389
  126SOPE    C313466   3.322   7.222   2.477  0.3715  0.4419 -0.8431
  126SOPE    HX13467   3.231   7.261   2.426 -1.1931 -1.1749  0.5719
  126SOPE    HY13468   3.412   7.225   2.412  0.7748 -2.2420 -0.5137
  126SOPE   O3113469   3.349   7.294   2.605  0.5949  0.2903  0.1450
  126SOPE   C3113470   3.250   7.365   2.657 -0.2412  0.0652 -0.3249
  126SOPE   O3213471   3.137   7.372   2.612  0.2797  0.2286 -0.4699
  126SOPE   C3213472   3.313   7.452   2.771  0.2369 -0.2329  0.2347
  126SOPE   H2X13473   3.341   7.548   2.723  2.6901 -0.0145  1.9413
  126SOPE   H2Y13474   3.408   7.402   2.799  0.0807 -0.2501  0.7319
  126SOPE   C2313475   2.944   7.056   2.855 -0.5881 -0.4969 -0.2772
  126SOPE   H3R13476   2.834   7.074   2.856 -0.3819  0.8637 -0.1768
  126SOPE   H3S13477   2.990   7.145   2.902  0.5911 -1.8219  1.1581
  126SOPE   C2413478   2.978   6.933   2.940  0.6444  0.2451  0.6915
  126SOPE   H4R13479   2.948   6.847   2.875  4.1125 -0.0535 -0.7425
  126SOPE   H4S13480   3.089   6.935   2.944  0.7393 -1.3008 -0.2859
  126SOPE   C2513481   2.918   6.922   3.074  0.4401  0.2530 -0.1763
  126SOPE   H5R13482   2.957   6.999   3.144  1.0938  0.2412 -0.5165
  126SOPE   H5S13483   2.810   6.942   3.058  0.6001  0.5286 -0.9603
  126SOPE   C2613484   2.956   6.784   3.135 -0.3653 -1.1120 -0.3801
  126SOPE   H6R13485   2.882   6.709   3.099 -0.8437 -1.3010  0.9415
  126SOPE   H6S13486   3.063   6.761   3.113  0.3737  2.2776 -0.7731
  126SOPE   C2713487   2.960   6.779   3.282  0.0234 -0.3720  0.0545
  126SOPE   H7R13488   3.014   6.858   3.338  0.1146  2.1157 -3.2249
  126SOPE   H7S13489   2.854   6.802   3.307  0.2598  0.4237  0.3331
  126SOPE   C2813490   2.992   6.633   3.342  0.6787  0.0828 -0.4586
  126SOPE   H8R13491   3.102   6.642   3.353  0.5105 -0.3971  2.5457
  126SOPE   H8S13492   2.951   6.621   3.445 -1.0091  1.0700 -0.9582
  126SOPE   C2913493   2.962   6.519   3.251  0.1282  0.1212 -0.0026
  126SOPE   H9113494   3.015   6.523   3.154 -2.1761 -0.3684 -1.3636
  126SOPE  C21013495   2.881   6.412   3.266  0.5769 -0.0783  0.1468
  126SOPE  H10113496   2.867   6.342   3.183 -1.6100 -0.5767  0.8604
  126SOPE  C21113497   2.810   6.376   3.397  0.0538  0.1253  0.2272
  126SOPE  H11R13498   2.729   6.304   3.376 -0.2532  0.9262 -1.4776
  126SOPE  H11S13499   2.762   6.468   3.436  0.4657 -0.1729  1.4891
  126SOPE  C21213500   2.911   6.323   3.501  0.3062  0.3871 -0.0204
  126SOPE  H12R13501   3.006   6.380   3.499  1.1999 -1.0682 -1.2522
  126SOPE  H12S13502   2.956   6.224   3.482 -0.1111 -0.0887  1.3661
  126SOPE  C21313503   2.846   6.314   3.635 -0.4058 -0.5166 -0.2996
  126SOPE  H13R13504   2.762   6.241   3.636  0.4512 -1.5440 -0.4477
  126SOPE  H13S13505   2.803   6.410   3.669 -1.8398 -1.8980  2.1031
  126SOPE  C21413506   2.948   6.276   3.745 -0.1998  0.2452 -0.3005
  126SOPE  H14R13507   2.996   6.367   3.786  0.1306  0.9013 -2.0745
  126SOPE  H14S13508   3.028   6.211   3.704  0.1850  0.6842 -0.2531
  126SOPE  C21513509   2.885   6.195   3.857  0.1351  0.6070 -0.0538
  126SOPE  H15R13510   2.834   6.109   3.807 -0.4404  0.9830 -0.1208
  126SOPE  H15S13511   2.791   6.243   3.891  0.8725  0.4478  2.3422
  126SOPE  C21613512   2.976   6.146   3.962  0.2227  0.3196 -0.1674
  126SOPE  H16R13513   3.023   6.232   4.014  1.3841  0.1175 -0.8607
  126SOPE  H16S13514   3.052   6.077   3.919  0.0908 -0.5145  0.8798
  126SOPE  C21713515   2.895   6.074   4.073  0.6249 -0.8452  0.3801
  126SOPE  H17R13516   2.827   5.994   4.035 -0.5438 -0.6512  1.9778
  126SOPE  H17S13517   2.837   6.146   4.133 -0.5528  0.3304 -2.0061
  126SOPE  C21813518   2.994   6.003   4.164 -0.0854  0.5012  0.3060
  126SOPE  H18R13519   2.946   5.945   4.245  0.3010 -0.5682 -0.2223
  126SOPE  H18S13520   3.076   6.064   4.209 -0.4704  0.5024  1.0270
  126SOPE  H18T13521   3.036   5.929   4.092 -1.1323  1.6209 -1.5394
  126SOPE   C3313522   3.205   7.471   2.884  0.2330 -0.7036  0.3463
  126SOPE   H3X13523   3.107   7.495   2.840  0.3572 -1.4182 -0.3409
  126SOPE   H3Y13524   3.250   7.559   2.935  0.1105 -1.2929  1.5131
  126SOPE   C3413525   3.196   7.358   2.985  0.2863 -0.3883 -0.3873
  126SOPE   H4X13526   3.284   7.360   3.052 -1.2011  2.6004  1.6797
  126SOPE   H4Y13527   3.185   7.255   2.944  1.6100  0.2264 -2.4269
  126SOPE   C3513528   3.074   7.393   3.074  0.4589 -0.3207 -0.2506
  126SOPE   H5X13529   2.978   7.406   3.019  0.1107  0.8000  0.5657
  126SOPE   H5Y13530   3.096   7.492   3.121  1.9669 -0.4572 -0.6328
  126SOPE   C3613531   3.050   7.301   3.192 -0.0622 -0.0322  0.0084
  126SOPE   H6X13532   3.048   7.195   3.159  0.4805 -0.1502  0.3413
  126SOPE   H6Y13533   2.946   7.314   3.228 -0.2514 -1.1192 -0.1033
  126SOPE   C3713534   3.144   7.304   3.313 -0.4547  0.8692  0.5011
  126SOPE   H7X13535   3.157   7.408   3.348  1.3802  1.2055 -1.0037
  126SOPE   H7Y13536   3.246   7.271   3.285 -0.4200 -1.0740  2.6538
  126SOPE   C3813537   3.084   7.206   3.416  0.2997  0.4683 -0.0457
  126SOPE   H8X13538   3.064   7.104   3.376 -1.1793  0.4814  0.6180
  126SOPE   H8Y13539   2.987   7.257   3.433 -0.1161 -0.1046 -0.6549
  126SOPE   C3913540   3.158   7.201   3.552 -0.5026  0.1739  0.0116
  126SOPE   H9X13541   3.074   7.168   3.617  0.8676 -0.6310  1.4360
  126SOPE   H9Y13542   3.180   7.308   3.575 -1.9078  0.1530  1.6459
  126SOPE  C31013543   3.275   7.098   3.551  0.0817  0.7043 -0.5838
  126SOPE  H10X13544   3.340   7.106   3.641  1.7083 -2.0368 -1.3922
  126SOPE  H10Y13545   3.343   7.119   3.466 -1.4448 -1.0305 -2.3216
  126SOPE  C31113546   3.233   6.949   3.551  0.3602 -0.2190  0.9044
  126SOPE  H11X13547   3.322   6.882   3.554  1.7331  1.4218 -0.6351
  126SOPE  H11Y13548   3.201   6.935   3.446 -1.8153 -0.7724  1.5977
  126SOPE  C31213549   3.116   6.908   3.636 -0.0840  0.5229 -0.3098
  126SOPE  H12X13550   3.025   6.942   3.582  0.2738  1.1492 -0.5341
  126SOPE  H12Y13551   3.114   6.974   3.725 -2.1945  1.5592 -1.0539
  126SOPE  C31313552   3.108   6.761   3.680  0.5619  0.8581 -0.8126
  126SOPE  H13X13553   3.156   6.711   3.593 -0.4709 -0.1599 -0.8157
  126SOPE  H13Y13554   3.003   6.728   3.689  0.7751  0.5845  0.8722
  126SOPE  C31413555   3.205   6.715   3.795  0.3242 -0.2777 -0.2037
  126SOPE  H14X13556   3.298   6.775   3.784 -1.1803  2.3065  0.3661
  126SOPE  H14Y13557   3.230   6.607   3.783  1.4138 -0.1083  0.4218
  126SOPE  C31513558   3.144   6.743   3.932 -0.3552  0.5753 -0.3837
  126SOPE  H15X13559   3.043   6.697   3.938 -0.0727 -0.5728 -2.9460
  126SOPE  H15Y13560   3.132   6.854   3.939 -0.0479  0.6065 -0.3337
  126SOPE  C31613561   3.223   6.697   4.055  0.4980  0.3358  0.1430
  126SOPE  H16X13562   3.321   6.750   4.059 -0.5209  2.3792 -0.7096
  126SOPE  H16Y13563   3.238   6.587   4.065  1.4596  0.3455 -0.9527
  126SOPE  C31713564   3.150   6.741   4.192 -0.4144  0.1526  1.1652
  126SOPE  H17X13565   3.188   6.662   4.260 -2.0707 -1.4135  0.3441
  126SOPE  H17Y13566   3.042   6.729   4.170 -0.7981  1.3485  2.2453
  126SOPE  C31813567   3.169   6.885   4.233  0.1705  0.8818 -0.5643
  126SOPE  H18X13568   3.084   6.926   4.292  0.4253 -0.8026  1.0664
  126SOPE  H18Y13569   3.165   6.955   4.147  0.8620  0.3999 -0.9936
  126SOPE  H18Z13570   3.260   6.904   4.294 -1.3749  1.0899  1.8038
  127SOPE     N13571   4.105   1.040   2.268  0.2993 -0.0488  0.2190
  127SOPE   HN113572   4.032   1.052   2.342 -0.4875 -0.0624 -0.5461
  127SOPE   HN213573   4.188   1.099   2.290 -1.0412  1.3600  1.7722
  127SOPE   HN313574   4.059   1.056   2.177 -2.2813 -0.8085  1.2867
  127SOPE   C1213575   4.144   0.890   2.270 -0.5856  0.0504  0.3075
  127SOPE  H12A13576   4.247   0.883   2.229 -0.2301  1.2658  0.9388
  127SOPE  H12B13577   4.085   0.834   2.195  1.8910 -1.5224 -0.5909
  127SOPE   C1113578   4.125   0.827   2.405  0.9611  0.2512  0.4105
  127SOPE  H11A13579   4.176   0.883   2.486 -0.6197 -0.5948  2.0687
  127SOPE  H11B13580   4.166   0.724   2.394 -0.9946 -0.2626 -4.7456
  127SOPE     P13581   3.891   0.908   2.496  0.2350  0.0689  0.3258
  127SOPE   O1313582   3.761   0.889   2.434  0.1640  0.4501  0.1401
  127SOPE   O1413583   3.956   1.045   2.488  0.3972 -0.1960 -0.0370
  127SOPE   O1213584   3.985   0.808   2.426 -0.5416  0.1230  0.4646
  127SOPE   O1113585   3.881   0.866   2.647 -0.5342  0.2284  0.0581
  127SOPE    C113586   3.981   0.795   2.713  0.4964 -0.1383  0.2085
  127SOPE    HA13587   3.969   0.798   2.824  1.4810 -1.6124  0.3797
  127SOPE    HB13588   4.087   0.827   2.705  1.0434 -1.6682  0.8339
  127SOPE    C213589   3.976   0.641   2.691  0.1518  0.6832  0.3753
  127SOPE    HS13590   3.981   0.630   2.581  3.2539  0.2870  0.4675
  127SOPE   O2113591   3.856   0.574   2.747  0.2436  0.1805 -0.0133
  127SOPE   C2113592   3.806   0.473   2.673 -0.8871  0.4827  0.1712
  127SOPE   O2213593   3.857   0.421   2.575 -0.0551  0.4857  0.7246
  127SOPE   C2213594   3.664   0.442   2.731  0.0606  0.1065 -0.2101
  127SOPE   H2R13595   3.591   0.475   2.653 -2.0589  0.3448  1.7731
  127SOPE   H2S13596   3.646   0.502   2.823 -0.6849  0.2370 -0.4341
  127SOPE    C313597   4.106   0.563   2.739  0.5513  0.3950  0.3259
  127SOPE    HX13598   4.195   0.609   2.691 -0.7048 -0.9165 -3.6858
  127SOPE    HY13599   4.096   0.460   2.697 -0.9574  0.1928  1.1088
  127SOPE   O3113600   4.107   0.561   2.883  0.1230  0.2884  0.0522
  127SOPE   C3113601   4.090   0.446   2.945  0.6027  1.2190  0.3244
  127SOPE   O3213602   4.089   0.334   2.893  0.2431 -0.3198  0.0139
  127SOPE   C3213603   4.084   0.474   3.098  0.3806  0.4681  0.1077
  127SOPE   H2X13604   4.109   0.581   3.114 -0.0513  0.6085 -0.1478
  127SOPE   H2Y13605   4.145   0.399   3.154  0.2493 -1.2179 -1.8527
  127SOPE   C2313606   3.648   0.292   2.767  0.2623  0.7958  0.2080
  127SOPE   H3R13607   3.675   0.223   2.685 -1.0229 -0.5571  0.8771
  127SOPE   H3S13608   3.540   0.271   2.780  0.5964 -0.5981  0.9438
  127SOPE   C2413609   3.732   0.257   2.895 -0.3041 -0.9629  0.1494
  127SOPE   H4R13610   3.843   0.256   2.892 -0.3060 -0.7002 -2.1710
  127SOPE   H4S13611   3.697   0.316   2.983 -0.7160 -0.0898 -0.5720
  127SOPE   C2513612   3.710   0.107   2.937 -0.1245 -0.5129 -0.1835
  127SOPE   H5R13613   3.743   0.045   2.851  0.3705  2.0892 -1.9680
  127SOPE   H5S13614   3.781   0.082   3.018  1.2381  0.7163 -0.9604
  127SOPE   C2613615   3.555   0.080   2.969 -0.1848 -0.7654  0.4867
  127SOPE   H6R13616   3.495   0.052   2.880 -0.3991 -2.0992  1.0333
  127SOPE   H6S13617   3.553  -0.008   3.036 -0.2408 -1.8341 -0.8816
  127SOPE   C2713618   3.464   0.186   3.049  0.2819  0.3051 -0.0321
  127SOPE   H7R13619   3.491   0.283   3.002  3.6917 -0.3058  0.4295
  127SOPE   H7S13620   3.354   0.182   3.033  0.0885  0.2703  1.1855
  127SOPE   C2813621   3.485   0.206   3.203  0.3783  0.1543  0.5740
  127SOPE   H8R13622   3.585   0.249   3.226  0.2114  1.3664 -0.8360
  127SOPE   H8S13623   3.417   0.290   3.229  0.4400  0.7319 -1.0245
  127SOPE   C2913624   3.450   0.087   3.283 -0.0760 -0.8126 -0.3172
  127SOPE   H9113625   3.350   0.041   3.277  0.5565 -2.2549 -0.3733
  127SOPE  C21013626   3.537   0.026   3.372 -0.5405 -1.0244  0.0454
  127SOPE  H10113627   3.510  -0.063   3.431 -0.3582 -0.1283  1.5291
  127SOPE  C21113628   3.673   0.078   3.390  0.4295 -0.4411 -0.2950
  127SOPE  H11R13629   3.677   0.188   3.392  1.3217 -0.4788  0.4923
  127SOPE  H11S13630   3.746   0.041   3.315  2.0434  0.6601  0.6755
  127SOPE  C21213631   3.740   0.035   3.524  0.1304 -0.3011  0.1967
  127SOPE  H12R13632   3.838   0.085   3.541  0.0119 -0.2434  0.7415
  127SOPE  H12S13633   3.763  -0.073   3.514 -3.7556 -1.1852 -0.6020
  127SOPE  C21313634   3.645   0.055   3.648  0.2894 -0.3337  0.5569
  127SOPE  H13R13635   3.581  -0.036   3.637 -0.1981  0.2329 -1.9873
  127SOPE  H13S13636   3.567   0.132   3.629  0.0954  0.2323  3.2627
  127SOPE  C21413637   3.702   0.077   3.782  0.3497  0.4640 -0.0649
  127SOPE  H14R13638   3.759   0.172   3.797  2.2004 -0.8424  1.5893
  127SOPE  H14S13639   3.788   0.006   3.784  1.6017  1.7152 -2.9088
  127SOPE  C21513640   3.607   0.044   3.899 -0.2514 -0.6386 -0.5003
  127SOPE  H15R13641   3.544  -0.040   3.865 -0.1775  0.1696 -2.8285
  127SOPE  H15S13642   3.547   0.134   3.923  1.3834 -0.0774  1.7780
  127SOPE  C21613643   3.688   0.005   4.026  0.9019  0.1035  0.0215
  127SOPE  H16R13644   3.731   0.101   4.063  0.1880  1.3210 -2.1594
  127SOPE  H16S13645   3.771  -0.056   3.985 -1.2738 -1.9684 -1.5687
  127SOPE  C21713646   3.606  -0.057   4.138  0.3256  0.3148  0.0338
  127SOPE  H17R13647   3.555  -0.148   4.100 -0.7428  1.3334 -1.0813
  127SOPE  H17S13648   3.526   0.013   4.171  1.1812  1.0438  0.6096
  127SOPE  C21813649   3.694  -0.073   4.262  0.5356  0.2814  0.0579
  127SOPE  H18R13650   3.737   0.023   4.298 -1.0977  0.0039  3.1423
  127SOPE  H18S13651   3.774  -0.149   4.268 -0.5933 -0.8406  1.9507
  127SOPE  H18T13652   3.628  -0.100   4.347  1.3937  0.7915  0.9086
  127SOPE   C3313653   3.937   0.454   3.145  0.3532  0.2680 -0.6227
  127SOPE   H3X13654   3.921   0.347   3.170 -0.9217  0.0503 -2.1958
  127SOPE   H3Y13655   3.862   0.492   3.072  1.5882 -3.1767 -4.0649
  127SOPE   C3413656   3.908   0.520   3.290  0.4079 -0.6230  0.2038
  127SOPE   H4X13657   3.798   0.511   3.305  0.6804 -1.6562  1.8878
  127SOPE   H4Y13658   3.943   0.625   3.282  0.0985 -0.5054  0.3764
  127SOPE   C3513659   3.974   0.446   3.406 -0.2820  0.4021 -0.2655
  127SOPE   H5X13660   4.082   0.466   3.390  0.2911 -0.3148  2.2063
  127SOPE   H5Y13661   3.969   0.336   3.387  0.3488  0.1405  0.9965
  127SOPE   C3613662   3.908   0.485   3.542  0.5000 -0.4056 -0.1758
  127SOPE   H6X13663   3.798   0.477   3.528  0.0776 -0.6133  2.5751
  127SOPE   H6Y13664   3.937   0.591   3.562 -4.2403  1.0883  0.0907
  127SOPE   C3713665   3.940   0.389   3.655  0.4339 -0.0903 -0.8419
  127SOPE   H7X13666   4.050   0.377   3.662  0.6723  1.8087 -0.9894
  127SOPE   H7Y13667   3.906   0.289   3.620 -0.2109  0.4546 -1.7914
  127SOPE   C3813668   3.874   0.433   3.798 -0.1977 -0.1260  0.2422
  127SOPE   H8X13669   3.769   0.396   3.802 -0.9158  1.5978 -1.2080
  127SOPE   H8Y13670   3.878   0.544   3.810 -1.8195 -0.1234  1.1518
  127SOPE   C3913671   3.978   0.373   3.898  0.3399  0.3000 -0.0061
  127SOPE   H9X13672   4.078   0.411   3.870  0.4151  0.3475  0.3169
  127SOPE   H9Y13673   3.973   0.263   3.882 -0.4624  0.5482 -1.6822
  127SOPE  C31013674   3.952   0.411   4.049  0.5136 -0.6788 -0.2136
  127SOPE  H10X13675   3.959   0.324   4.119  0.2065  0.2352  0.9799
  127SOPE  H10Y13676   3.856   0.467   4.047  0.4013 -0.7101  1.8709
  127SOPE  C31113677   4.062   0.495   4.107  0.0339  0.3910 -0.4845
  127SOPE  H11X13678   4.094   0.579   4.041 -0.7770  1.3583  0.3183
  127SOPE  H11Y13679   4.149   0.428   4.119 -0.3856 -0.2199 -0.7879
  127SOPE  C31213680   4.030   0.559   4.241  0.0874  0.6823  0.7033
  127SOPE  H12X13681   3.998   0.477   4.309  2.2112  0.2167  1.2017
  127SOPE  H12Y13682   3.944   0.629   4.234  0.1130  0.5836 -0.8302
  127SOPE  C31313683   4.142   0.627   4.306 -0.1630  0.9939 -0.4488
  127SOPE  H13X13684   4.189   0.699   4.235  1.1784 -0.0995 -0.7066
  127SOPE  H13Y13685   4.222   0.554   4.332 -0.7203  0.4651 -0.2142
  127SOPE  C31413686   4.087   0.695   4.434 -0.6606  0.3338 -0.0125
  127SOPE  H14X13687   4.056   0.617   4.507  1.2065 -0.2868  0.1729
  127SOPE  H14Y13688   3.996   0.750   4.401 -0.5404  0.3623 -0.2950
  127SOPE  C31513689   4.195   0.772   4.505 -0.2696 -0.2799 -0.1037
  127SOPE  H15X13690   4.245   0.827   4.422 -0.7658 -1.5723 -1.3004
  127SOPE  H15Y13691   4.271   0.717   4.565  1.0717  0.3217 -1.1980
  127SOPE  C31613692   4.126   0.886   4.593 -0.7219 -0.4798 -0.0895
  127SOPE  H16X13693   4.031   0.906   4.539 -0.7859 -1.0404 -0.1923
  127SOPE  H16Y13694   4.188   0.978   4.595 -2.9281  1.1210  2.0371
  127SOPE  C31713695   4.100   0.842   4.730  0.1309 -0.1123 -0.0529
  127SOPE  H17X13696   4.183   0.783   4.776 -0.1762 -0.4183  0.1134
  127SOPE  H17Y13697   4.016   0.769   4.732  1.2291 -1.4261 -0.1929
  127SOPE  C31813698   4.061   0.970   4.804 -0.0442  0.4375 -0.4924
  127SOPE  H18X13699   4.044   0.941   4.909 -0.0776 -1.4125 -0.9787
  127SOPE  H18Y13700   3.962   1.002   4.766 -1.1237 -1.6985  0.3343
  127SOPE  H18Z13701   4.140   1.049   4.801  0.0202  0.4968  1.5313
  128SOPE     N13702   0.471   1.611   2.638  0.1639 -0.0967 -0.2168
  128SOPE   HN113703   0.390   1.594   2.575 -2.0515  1.5597  1.9769
  128SOPE   HN213704   0.486   1.539   2.712 -0.8075 -0.1484 -0.0597
  128SOPE   HN313705   0.458   1.701   2.689  0.5380 -0.2720  0.1972
  128SOPE   C1213706   0.603   1.600   2.556  0.7109 -0.1407 -0.3088
  128SOPE  H12A13707   0.603   1.501   2.507  1.4278 -0.9406  1.2323
  128SOPE  H12B13708   0.691   1.595   2.624 -0.2831 -0.1559  1.0259
  128SOPE   C1113709   0.631   1.719   2.461  0.3805 -0.1674  0.6958
  128SOPE  H11A13710   0.539   1.755   2.409  0.0236 -2.4168 -0.3441
  128SOPE  H11B13711   0.703   1.674   2.389  1.4571  1.2018  0.8876
  128SOPE     P13712   0.828   1.893   2.498  0.2374 -0.1771 -0.3886
  128SOPE   O1313713   0.807   2.007   2.403  0.1767 -0.3257  0.3793
  128SOPE   O1413714   0.930   1.794   2.457 -0.2524 -0.3375 -1.0192
  128SOPE   O1213715   0.689   1.825   2.540 -0.2022  0.1424  0.1757
  128SOPE   O1113716   0.880   1.963   2.629  0.3334  0.8425  0.1415
  128SOPE    C113717   0.898   1.903   2.754  0.1095 -0.0878  0.6697
  128SOPE    HA13718   0.992   1.945   2.797  0.8291  1.4816 -2.1940
  128SOPE    HB13719   0.907   1.793   2.742  0.7568  0.2253 -2.8046
  128SOPE    C213720   0.776   1.914   2.852  0.1854 -0.0671  0.1182
  128SOPE    HS13721   0.688   1.888   2.789 -0.5765 -0.1239  1.1813
  128SOPE   O2113722   0.774   2.043   2.910  0.3264  0.2512 -0.2286
  128SOPE   C2113723   0.653   2.091   2.928 -1.1924 -0.0785 -0.4716
  128SOPE   O2213724   0.552   2.046   2.874  0.4041  0.4677 -0.7014
  128SOPE   C2213725   0.661   2.228   3.004  0.1631  0.5252 -0.2570
  128SOPE   H2R13726   0.572   2.232   3.071  0.7127 -0.3486  0.5514
  128SOPE   H2S13727   0.660   2.323   2.948 -0.7471 -0.0003 -1.1728
  128SOPE    C313728   0.775   1.803   2.960  0.2032  0.1136 -0.1212
  128SOPE    HX13729   0.861   1.815   3.029 -0.1643 -1.4067  0.6672
  128SOPE    HY13730   0.763   1.706   2.906  1.7990  1.7677 -3.7394
  128SOPE   O3113731   0.658   1.823   3.046  0.1155  0.0478 -0.3082
  128SOPE   C3113732   0.540   1.780   2.992  0.1524  0.0091  0.4741
  128SOPE   O3213733   0.538   1.706   2.895 -0.0227  0.1681  0.3952
  128SOPE   C3213734   0.429   1.822   3.083  0.3235 -0.5092 -0.3886
  128SOPE   H2X13735   0.376   1.728   3.110 -1.0133  0.5014  0.6710
  128SOPE   H2Y13736   0.359   1.891   3.031 -1.8932 -2.4842 -0.1691
  128SOPE   C2313737   0.788   2.234   3.098 -0.3891  0.2188 -0.0263
  128SOPE   H3R13738   0.791   2.329   3.155  0.4512  0.4296 -0.3996
  128SOPE   H3S13739   0.876   2.238   3.029 -0.5108 -0.2297 -0.2074
  128SOPE   C2413740   0.792   2.116   3.198 -0.9662 -0.2614  0.2872
  128SOPE   H4R13741   0.684   2.114   3.225 -1.7879 -0.2383 -2.6584
  128SOPE   H4S13742   0.817   2.021   3.145  1.5506  0.7908 -0.5534
  128SOPE   C2513743   0.871   2.129   3.324 -0.3174 -0.6651 -0.4493
  128SOPE   H5R13744   0.977   2.144   3.298 -1.2443  0.6043 -4.1242
  128SOPE   H5S13745   0.847   2.222   3.381  0.3888 -0.9998  0.4176
  128SOPE   C2613746   0.864   2.010   3.420 -0.4110 -1.0865  0.2857
  128SOPE   H6R13747   0.896   2.061   3.513 -0.1626 -1.0094  0.1588
  128SOPE   H6S13748   0.762   1.966   3.416 -0.0683 -2.2501  2.7395
  128SOPE   C2713749   0.968   1.906   3.383  0.5843 -0.6474  0.8291
  128SOPE   H7R13750   0.944   1.880   3.278  0.8175  0.4296  0.4938
  128SOPE   H7S13751   1.066   1.958   3.376 -0.0884  0.3740 -2.9679
  128SOPE   C2813752   0.981   1.794   3.489 -0.1259 -0.5909 -0.5425
  128SOPE   H8R13753   1.073   1.737   3.466 -0.0920 -0.8278  0.1526
  128SOPE   H8S13754   1.001   1.840   3.588  0.7230 -1.5651 -0.2420
  128SOPE   C2913755   0.865   1.698   3.521  0.1061 -0.3435 -0.0370
  128SOPE   H9113756   0.842   1.690   3.629 -0.5151  1.2457 -0.0277
  128SOPE  C21013757   0.791   1.612   3.439  0.8651  0.1737  0.1862
  128SOPE  H10113758   0.715   1.545   3.481  2.4009 -2.9274 -1.5826
  128SOPE  C21113759   0.809   1.589   3.291  0.2663  0.4905  0.3587
  128SOPE  H11R13760   0.893   1.654   3.258 -0.3794  0.8063 -0.7037
  128SOPE  H11S13761   0.718   1.620   3.236 -0.4549  1.1820  1.8858
  128SOPE  C21213762   0.835   1.446   3.260  0.0569 -0.3889  0.4308
  128SOPE  H12R13763   0.765   1.384   3.320 -0.9562  0.6711  0.3759
  128SOPE  H12S13764   0.934   1.420   3.304 -0.2407 -2.7755 -0.2095
  128SOPE  C21313765   0.826   1.420   3.110  0.0140  0.1183 -0.7344
  128SOPE  H13R13766   0.897   1.491   3.062  3.1013 -2.2746 -0.0600
  128SOPE  H13S13767   0.723   1.439   3.073 -1.6336 -2.2554  2.1610
  128SOPE  C21413768   0.871   1.271   3.077 -0.2729  0.3996  0.5513
  128SOPE  H14R13769   0.797   1.197   3.114  0.0299 -0.5319 -0.6437
  128SOPE  H14S13770   0.969   1.246   3.123 -0.8824 -1.5566  0.8756
  128SOPE  C21513771   0.889   1.252   2.927 -0.2745 -0.0346 -0.5458
  128SOPE  H15R13772   0.935   1.154   2.903 -1.5099 -1.0728  1.1508
  128SOPE  H15S13773   0.962   1.326   2.887  2.1677 -0.2229  3.1004
  128SOPE  C21613774   0.756   1.241   2.853 -0.3781  0.4193  0.5949
  128SOPE  H16R13775   0.717   1.344   2.842 -1.8043 -0.2452 -0.8692
  128SOPE  H16S13776   0.684   1.178   2.910 -0.6721 -0.0512 -0.2922
  128SOPE  C21713777   0.779   1.193   2.712 -0.1496 -0.7447  0.2835
  128SOPE  H17R13778   0.801   1.084   2.715  0.9620 -0.5642 -0.5015
  128SOPE  H17S13779   0.874   1.240   2.677 -0.5979 -1.2178 -1.6966
  128SOPE  C21813780   0.679   1.224   2.606  0.5377 -0.6950 -0.0862
  128SOPE  H18R13781   0.579   1.197   2.648 -0.3582  2.7072  0.2904
  128SOPE  H18S13782   0.693   1.153   2.522  1.0419 -1.3986  0.5804
  128SOPE  H18T13783   0.682   1.324   2.559 -0.1540 -1.1399 -1.1237
  128SOPE   C3313784   0.468   1.895   3.212 -0.6145 -0.4508 -0.0552
  128SOPE   H3X13785   0.511   1.993   3.182 -1.7554  1.1973  3.2109
  128SOPE   H3Y13786   0.541   1.827   3.262  0.7564  0.9029 -0.1618
  128SOPE   C3413787   0.354   1.931   3.305 -0.2475  0.3311  0.1275
  128SOPE   H4X13788   0.306   1.835   3.335  0.6986 -0.2717 -0.2424
  128SOPE   H4Y13789   0.271   1.992   3.262  0.5633  2.5532  1.5219
  128SOPE   C3513790   0.395   2.009   3.425 -0.5584 -0.1701 -0.4974
  128SOPE   H5X13791   0.460   2.094   3.396 -0.4435 -0.6797 -1.7794
  128SOPE   H5Y13792   0.461   1.944   3.487 -1.8773  0.0599  1.2207
  128SOPE   C3613793   0.273   2.041   3.516  0.1598 -0.0130 -0.3124
  128SOPE   H6X13794   0.226   1.943   3.535 -1.8907  0.6809 -1.5022
  128SOPE   H6Y13795   0.204   2.099   3.451 -1.3474 -0.1762  1.0887
  128SOPE   C3713796   0.313   2.117   3.643  0.2126 -0.7244 -0.5006
  128SOPE   H7X13797   0.382   2.201   3.624  0.4699 -0.8052  0.0579
  128SOPE   H7Y13798   0.370   2.054   3.714 -2.2577 -1.4114  0.9946
  128SOPE   C3813799   0.192   2.176   3.722  0.9721 -0.5402  0.4355
  128SOPE   H8X13800   0.128   2.223   3.643  0.5178  0.0919  1.1717
  128SOPE   H8Y13801   0.229   2.244   3.800  2.5550  0.9195 -1.4926
  128SOPE   C3913802   0.096   2.074   3.792  0.0548 -0.0885 -0.2708
  128SOPE   H9X13803   0.058   1.999   3.719 -1.4082 -0.0085  0.3764
  128SOPE   H9Y13804   0.011   2.131   3.836 -1.0089 -2.1394  0.4435
  128SOPE  C31013805   0.168   1.995   3.901  0.3348 -0.0634  0.2041
  128SOPE  H10X13806   0.239   1.920   3.860  1.8540  1.4465 -0.0090
  128SOPE  H10Y13807   0.083   1.948   3.955  1.5382 -0.0760  2.1897
  128SOPE  C31113808   0.252   2.080   4.003 -0.8535  0.4290  0.2608
  128SOPE  H11X13809   0.181   2.162   4.024 -0.9555 -0.1509  2.4281
  128SOPE  H11Y13810   0.342   2.123   3.954  0.6407 -1.2858  1.3882
  128SOPE  C31213811   0.300   2.010   4.131  0.0941 -0.1900 -0.0140
  128SOPE  H12X13812   0.374   1.935   4.096 -1.4394 -1.8959  0.2024
  128SOPE  H12Y13813   0.222   1.944   4.175  2.4316 -2.4814  0.9606
  128SOPE  C31313814   0.366   2.102   4.227  0.0056  0.5261  0.2871
  128SOPE  H13X13815   0.367   2.048   4.325 -2.2156  1.4201  0.8692
  128SOPE  H13Y13816   0.295   2.184   4.250 -0.5085 -0.3489  2.0676
  128SOPE  C31413817   0.508   2.146   4.180 -0.3646 -0.3311 -0.2454
  128SOPE  H14X13818   0.503   2.224   4.100  1.2853  1.7786  1.5701
  128SOPE  H14Y13819   0.582   2.073   4.142 -1.8767 -1.7698 -0.4997
  128SOPE  C31513820   0.580   2.207   4.305  0.4237  0.2523 -0.5238
  128SOPE  H15X13821   0.684   2.175   4.284  0.0724 -0.3241 -1.4267
  128SOPE  H15Y13822   0.544   2.155   4.397  0.2159 -0.5861 -1.0695
  128SOPE  C31613823   0.557   2.355   4.323  0.4030 -0.2393 -0.3574
  128SOPE  H16X13824   0.449   2.380   4.310  0.4874  0.5846  0.3901
  128SOPE  H16Y13825   0.604   2.413   4.240  2.1948 -0.0111  0.7573
  128SOPE  C31713826   0.618   2.417   4.450  0.4811  0.1774  0.7516
  128SOPE  H17X13827   0.725   2.387   4.448  0.7097  0.8173 -2.5186
  128SOPE  H17Y13828   0.571   2.360   4.533 -0.0889 -2.7434 -1.4264
  128SOPE  C31813829   0.599   2.566   4.461  0.2810 -0.0354  0.2298
  128SOPE  H18X13830   0.682   2.611   4.519  0.0099 -0.3016  0.8236
  128SOPE  H18Y13831   0.506   2.591   4.516 -1.0952 -0.7033 -1.6640
  128SOPE  H18Z13832   0.587   2.609   4.359 -1.1012 -0.1964  0.3132
  129OSM      N13833   6.478   1.160   7.001 -0.2143 -0.4376  0.0446
  129OSM    C1513834   6.462   1.271   7.105 -0.9102  0.7026 -0.7136
  129OSM   H15A13835   6.496   1.362   7.057  1.5842 -0.8293 -2.0801
  129OSM   H15B13836   6.526   1.246   7.189 -1.9613  0.6152  0.0788
  129OSM   H15C13837   6.361   1.272   7.142 -0.3284  0.5221  0.9950
  129OSM    C1413838   6.620   1.113   6.995  0.5840 -0.0901  0.0831
  129OSM   H14A13839   6.683   1.200   6.986 -0.1228  0.2403 -2.3802
  129OSM   H14B13840   6.635   1.053   6.907  0.3972 -2.1149  1.3602
  129OSM   H14C13841   6.665   1.061   7.079 -0.0231 -0.6578  0.0708
  129OSM    C1313842   6.392   1.041   7.028 -0.2140  0.1989  0.4060
  129OSM   H13A13843   6.290   1.071   7.046 -0.3214 -0.3459  0.7207
  129OSM   H13B13844   6.448   0.980   7.097  3.3237  0.7445 -1.7634
  129OSM   H13C13845   6.379   0.975   6.943  0.6139 -0.1594  0.5539
  129OSM    C1213846   6.441   1.217   6.864 -0.2102 -0.2862  0.3075
  129OSM   H12A13847   6.522   1.284   6.839 -0.1619  0.1811  1.6391
  129OSM   H12B13848   6.346   1.269   6.860  0.7566  1.5407 -0.1344
  129OSM    C1113849   6.447   1.123   6.741  0.0984 -0.1085 -0.0605
  129OSM   H11A13850   6.356   1.060   6.742  0.7795 -1.1590 -1.2090
  129OSM   H11B13851   6.535   1.055   6.737 -0.0617 -0.2940 -0.5727
  129OSM      P13852   6.581   1.264   6.571 -0.2928 -0.1901 -0.0739
  129OSM    O1313853   6.538   1.385   6.491 -0.4666 -0.0065 -0.0531
  129OSM    O1413854   6.677   1.275   6.683 -0.2360 -0.3133  0.1872
  129OSM    O1113855   6.624   1.152   6.467  0.2649  0.3690  0.0310
  129OSM    O1213856   6.448   1.197   6.627  0.4906 -0.4942  0.1172
  129OSM    C1S13857   6.529   1.109   6.365 -0.4943 -0.8741  0.0723
  129OSM    H1S13858   6.481   1.198   6.319 -0.4956  0.1560  1.9835
  129OSM    H1T13859   6.450   1.042   6.404 -1.2137  1.8671  3.8664
  129OSM     NF13860   6.515   1.031   6.123  0.3040  0.2045  0.4243
  129OSM    HNF13861   6.469   0.943   6.113  1.6303 -0.6348  1.4841
  129OSM    C2S13862   6.605   1.052   6.236  0.5093 -0.5453  0.3642
  129OSM    H2S13863   6.676   1.134   6.212 -0.4268  0.1929  0.0686
  129OSM    C3S13864   6.690   0.929   6.267 -0.8144  0.3949 -0.2123
  129OSM    H3S13865   6.621   0.851   6.306 -1.2735  0.8338 -0.1438
  129OSM     O313866   6.773   0.936   6.380 -0.3805  1.1310  0.3353
  129OSM    HO313867   6.733   1.015   6.417 -1.6259 -0.3257  2.2780
  129OSM    C4S13868   6.771   0.879   6.150  0.8722  0.0712 -0.9878
  129OSM    H4S13869   6.716   0.806   6.090  0.9709 -0.9632  0.1368
  129OSM    C5S13870   6.886   0.934   6.105 -0.0663  0.7862 -0.5394
  129OSM    H5S13871   6.931   1.019   6.158  1.2693 -0.1863 -0.0686
  129OSM    C6S13872   6.956   0.892   5.980  0.6141  0.0269  0.2101
  129OSM    H6S13873   6.962   0.783   5.964 -0.2982 -0.1132  0.7580
  129OSM    H6T13874   7.056   0.938   5.968  1.3715 -1.5859  0.1741
  129OSM    C7S13875   6.861   0.933   5.858  0.4966  0.3083 -0.1127
  129OSM    H7S13876   6.818   1.035   5.874 -2.0069 -0.2914 -2.3137
  129OSM    H7T13877   6.776   0.862   5.865 -0.1575  1.1312  0.5720
  129OSM    C8S13878   6.934   0.930   5.730  0.2402 -0.4968  0.1207
  129OSM    H8S13879   6.969   0.829   5.701  2.0481  0.3168 -0.6831
  129OSM    H8T13880   7.024   0.993   5.746 -0.8041  0.3095  3.5637
  129OSM    C9S13881   6.845   0.989   5.615  0.0787  0.0657  0.4609
  129OSM    H9S13882   6.790   1.084   5.637  2.6410  2.0809 -1.2079
  129OSM    H9T13883   6.771   0.914   5.581 -1.0772  0.6447  1.5718
  129OSM   C10S13884   6.941   1.031   5.500 -0.2389 -0.4150 -0.2762
  129OSM   H10S13885   7.024   0.957   5.499 -0.4340 -0.6752 -2.6130
  129OSM   H10T13886   6.996   1.123   5.533 -2.7727  0.9297  0.4252
  129OSM   C11S13887   6.877   1.039   5.363 -0.1828  0.0536  0.1710
  129OSM   H11S13888   6.814   1.131   5.367  0.8490  0.7730  0.2761
  129OSM   H11T13889   6.820   0.945   5.352  0.1001 -0.1998  0.7915
  129OSM   C12S13890   6.978   1.047   5.248  0.0125  0.5734  0.6217
  129OSM   H12S13891   7.047   0.959   5.251 -0.2147  0.4142  1.4071
  129OSM   H12T13892   7.041   1.139   5.260  3.2962 -0.9914 -2.5609
  129OSM   C13S13893   6.902   1.048   5.109  0.1247  0.0172 -0.3588
  129OSM   H13S13894   6.835   1.137   5.116 -0.7605 -0.5495 -1.2423
  129OSM   H13T13895   6.840   0.957   5.094 -0.3435 -0.3834  3.1527
  129OSM   C14S13896   6.991   1.089   4.989  0.2099  0.0914  0.5999
  129OSM   H14S13897   7.032   0.994   4.948  0.3901 -0.1451  1.3206
  129OSM   H14T13898   7.072   1.156   5.024  0.2026  1.3813 -1.6614
  129OSM   C15S13899   6.929   1.176   4.875  0.8159  0.3867  0.5721
  129OSM   H15S13900   7.001   1.218   4.801 -1.2881  2.4049 -0.4758
  129OSM   H15T13901   6.892   1.268   4.925  1.1903  0.5160  0.6126
  129OSM   C16S13902   6.809   1.112   4.797  0.0427 -0.0795  0.3199
  129OSM   H16S13903   6.771   1.199   4.739 -1.4808 -0.5767  0.5135
  129OSM   H16T13904   6.726   1.084   4.865  0.4951 -3.7726 -0.4476
  129OSM   C17S13905   6.830   0.982   4.722  0.2595 -0.4152  0.4926
  129OSM   H17S13906   6.743   0.980   4.654  1.2178 -1.2294 -0.7633
  129OSM   H17T13907   6.836   0.890   4.784  3.5587 -0.4548  0.3022
  129OSM   C18S13908   6.954   0.984   4.634 -0.1268 -0.0425 -0.0786
  129OSM   H18S13909   6.959   1.072   4.566 -0.2654  0.4557  0.5438
  129OSM   H18T13910   6.953   0.907   4.554 -0.2647 -0.1025 -0.0186
  129OSM   H18U13911   7.047   0.987   4.694 -1.0559  4.9596  1.5823
  129OSM    C1F13912   6.488   1.132   6.045 -0.0701  0.0042 -0.3798
  129OSM     OF13913   6.531   1.244   6.075  0.7017  0.0790  0.0519
  129OSM    C2F13914   6.412   1.101   5.916  0.1707 -0.1784 -0.6516
  129OSM    H2F13915   6.304   1.127   5.922  0.4331  0.7997  0.1201
  129OSM    H2G13916   6.433   0.994   5.893  0.6358 -0.4241  0.8069
  129OSM    C3F13917   6.462   1.186   5.798 -0.8311  0.3750  0.6416
  129OSM    H3F13918   6.570   1.207   5.811 -0.7280  1.5899 -1.6330
  129OSM    H3G13919   6.411   1.285   5.791  0.6760  1.1028 -0.5800
  129OSM    C4F13920   6.447   1.095   5.672  0.0266  0.0376 -0.0417
  129OSM    H4F13921   6.371   1.015   5.688  0.3309 -0.2555 -0.0424
  129OSM    H4G13922   6.534   1.034   5.639 -0.4749 -0.0893 -1.1748
  129OSM    C5F13923   6.409   1.178   5.552 -0.3366 -0.0625  1.5312
  129OSM    H5F13924   6.476   1.266   5.547 -1.6954  0.9027 -1.4274
  129OSM    H5G13925   6.304   1.202   5.580 -0.3129 -1.7832  3.3410
  129OSM    C6F13926   6.420   1.103   5.415  0.7277 -0.2110  0.2239
  129OSM    H6F13927   6.398   0.994   5.408  0.3176 -0.1048 -0.2552
  129OSM    H6G13928   6.521   1.131   5.378 -0.3600  4.7473  0.3422
  129OSM    C7F13929   6.321   1.178   5.314  0.0423  0.8102  0.3405
  129OSM    H7F13930   6.371   1.275   5.291  1.0920  0.5201  1.3023
  129OSM    H7G13931   6.223   1.201   5.362 -1.6727 -2.3540 -1.2882
  129OSM    C8F13932   6.290   1.106   5.187  0.1431  0.2583  0.2305
  129OSM    H8F13933   6.213   1.163   5.131  0.6802  2.2279  1.3985
  129OSM    H8G13934   6.240   1.012   5.221 -1.6308  2.0413  3.0091
  129OSM    C9F13935   6.413   1.079   5.105  0.4850  0.8198 -0.6568
  129OSM    H9F13936   6.484   1.162   5.095 -0.4180  1.9814  1.7987
  129OSM   C10F13937   6.453   0.954   5.071 -0.5077 -0.1085 -0.1567
  129OSM   H10F13938   6.550   0.952   5.019  0.1921 -0.1440  1.1171
  129OSM   C11F13939   6.380   0.818   5.073  0.0848  0.0141 -0.1861
  129OSM   H11F13940   6.278   0.832   5.114  0.0870  2.3087 -0.8363
  129OSM   H11G13941   6.437   0.757   5.146  0.4389  1.5018  0.8297
  129OSM   C12F13942   6.381   0.745   4.939 -0.5259  0.1716  0.1243
  129OSM   H12F13943   6.486   0.733   4.905 -1.1300 -0.9230 -1.5007
  129OSM   H12G13944   6.347   0.814   4.859 -0.2599 -0.2624 -0.3689
  129OSM   C13F13945   6.298   0.619   4.932  0.3930  0.0281 -0.7610
  129OSM   H13F13946   6.210   0.627   5.000  1.0153 -1.3151  0.2391
  129OSM   H13G13947   6.367   0.544   4.977  1.7392  0.7087 -1.6147
  129OSM   C14F13948   6.269   0.582   4.789  0.2719  0.0041  0.4209
  129OSM   H14F13949   6.366   0.571   4.736  0.1708  0.8089  0.0566
  129OSM   H14G13950   6.221   0.669   4.740 -2.0254 -1.2367  0.3048
  129OSM   C15F13951   6.175   0.466   4.767 -0.8143 -0.3438  0.3243
  129OSM   H15F13952   6.157   0.441   4.660  0.7874  0.5804 -0.1870
  129OSM   H15G13953   6.071   0.488   4.800 -0.9556 -0.2672 -0.1490
  129OSM   C16F13954   6.220   0.324   4.819 -0.9378 -0.6535  0.0013
  129OSM   H16F13955   6.263   0.357   4.916 -3.1905  3.9765 -0.3047
  129OSM   H16G13956   6.296   0.281   4.751 -0.8592 -1.2701  0.4693
  129OSM   C17F13957   6.098   0.233   4.846 -0.5478 -0.9700 -0.5734
  129OSM   H17F13958   6.042   0.228   4.751 -2.3920 -0.2610  0.4333
  129OSM   H17G13959   6.020   0.267   4.917 -0.0527 -1.1853  0.0915
  129OSM   C18F13960   6.132   0.096   4.908  0.0905  0.2169  0.2570
  129OSM   H18F13961   6.163   0.110   5.014  0.3444 -1.4564  0.4313
  129OSM   H18G13962   6.220   0.054   4.855 -1.1365 -1.1736 -0.7469
  129OSM   H18H13963   6.048   0.024   4.915  0.6963 -0.7656 -1.7537
  130OSM      N13964   4.661   2.443   6.435  0.2633  0.4232 -0.3909
  130OSM    C1513965   4.744   2.555   6.386 -0.2079 -0.1477  0.0827
  130OSM   H15A13966   4.778   2.611   6.472 -2.0736  0.7218  0.3083
  130OSM   H15B13967   4.683   2.618   6.323 -3.1737 -1.6193  1.2641
  130OSM   H15C13968   4.836   2.522   6.339  0.0173 -0.3687  0.6703
  130OSM    C1413969   4.629   2.356   6.314  0.1891 -0.5808  0.1440
  130OSM   H14A13970   4.574   2.268   6.344 -1.1531 -0.2651 -1.2732
  130OSM   H14B13971   4.719   2.331   6.261  0.8984  1.5240  0.2573
  130OSM   H14C13972   4.558   2.413   6.256  0.5827  1.0792  1.1997
  130OSM    C1313973   4.736   2.360   6.534  0.0946 -0.2342  0.2209
  130OSM   H13A13974   4.757   2.423   6.619  3.6011 -1.1814  0.2232
  130OSM   H13B13975   4.829   2.318   6.498 -0.8475 -2.4771  0.2603
  130OSM   H13C13976   4.674   2.284   6.580  0.3193  0.8150  2.4216
  130OSM    C1213977   4.525   2.488   6.490  0.2266 -0.0681 -0.1462
  130OSM   H12A13978   4.547   2.562   6.566 -0.7706 -0.3424  0.4345
  130OSM   H12B13979   4.469   2.404   6.528 -0.0041  0.1042 -0.0996
  130OSM    C1113980   4.422   2.562   6.398  0.5498 -0.2294 -0.8298
  130OSM   H11A13981   4.343   2.603   6.464  1.7853 -0.7090  1.0358
  130OSM   H11B13982   4.368   2.491   6.331 -1.7489  1.0128 -0.3956
  130OSM      P13983   4.479   2.821   6.377  0.1989 -0.0056  0.2617
  130OSM    O1313984   4.350   2.848   6.452 -0.0129  0.5391 -0.0270
  130OSM    O1413985   4.609   2.861   6.446  0.2163  0.2491 -0.1435
  130OSM    O1113986   4.470   2.892   6.240 -0.3208  0.9084 -0.0382
  130OSM    O1213987   4.482   2.669   6.323  0.0814 -0.2681 -0.0118
  130OSM    C1S13988   4.579   2.900   6.146 -0.1263 -0.0504 -0.2533
  130OSM    H1S13989   4.631   2.806   6.120 -0.4977 -0.5244  0.6537
  130OSM    H1T13990   4.659   2.971   6.174  0.6316 -0.4611 -1.3148
  130OSM     NF13991   4.598   2.938   5.898 -0.4671  0.4587 -0.4697
  130OSM    HNF13992   4.657   3.008   5.858 -3.4483  3.4138 -0.2213
  130OSM    C2S13993   4.523   2.969   6.014  0.3993 -0.2400  0.1521
  130OSM    H2S13994   4.422   2.928   5.993  0.7786 -1.0991 -0.0371
  130OSM    C3S13995   4.499   3.114   6.042 -0.4081  0.3444  0.0931
  130OSM    H3S13996   4.596   3.158   6.075  0.3001  0.3366 -1.8174
  130OSM     O313997   4.419   3.152   6.147  0.1849  0.1492  0.5170
  130OSM    HO313998   4.403   3.065   6.184  0.8917 -0.4188 -0.4482
  130OSM    C4S13999   4.455   3.194   5.915  0.0332  0.0967  0.5498
  130OSM    H4S14000   4.536   3.246   5.863  0.6284 -0.5598  0.8012
  130OSM    C5S14001   4.329   3.216   5.886  0.1437  0.0777  0.4421
  130OSM    H5S14002   4.247   3.166   5.940  0.3889 -0.0598  0.6922
  130OSM    C6S14003   4.291   3.301   5.766  0.4374  0.1150  0.4444
  130OSM    H6S14004   4.342   3.400   5.773  0.7086  0.0846 -0.7435
  130OSM    H6T14005   4.180   3.304   5.756  0.1988 -0.2280  2.6400
  130OSM    C7S14006   4.339   3.234   5.636  0.1820  1.0143 -0.1661
  130OSM    H7S14007   4.290   3.134   5.629  1.6157 -0.0426  3.1552
  130OSM    H7T14008   4.450   3.230   5.637  0.1577 -0.6786  0.0890
  130OSM    C8S14009   4.289   3.315   5.515  0.0923  0.0227  0.1046
  130OSM    H8S14010   4.352   3.403   5.490  0.9938 -0.3538  0.9767
  130OSM    H8T14011   4.186   3.350   5.539 -1.2727 -4.0618  0.8855
  130OSM    C9S14012   4.272   3.232   5.383 -0.1421 -0.7846 -0.3416
  130OSM    H9S14013   4.178   3.174   5.388 -0.7527  0.2840  1.7454
  130OSM    H9T14014   4.358   3.164   5.362  0.9936  0.6642 -0.5810
  130OSM   C10S14015   4.284   3.331   5.266  0.1560  0.8126  0.0407
  130OSM   H10S14016   4.384   3.379   5.255  0.8017 -0.0253  1.8321
  130OSM   H10T14017   4.197   3.400   5.273 -1.2183 -0.7204 -1.0966
  130OSM   C11S14018   4.258   3.250   5.130  0.3480  0.0038  0.2267
  130OSM   H11S14019   4.162   3.195   5.139  0.0163  0.4457 -0.5089
  130OSM   H11T14020   4.333   3.170   5.116  2.1163  1.4281  1.1065
  130OSM   C12S14021   4.258   3.344   5.010 -0.8172 -1.0553  0.5399
  130OSM   H12S14022   4.225   3.447   5.036  1.4045  0.4038 -1.8674
  130OSM   H12T14023   4.191   3.306   4.930 -0.1987 -0.1638 -0.4257
  130OSM   C13S14024   4.399   3.369   4.951  0.2446  0.5371  0.2489
  130OSM   H13S14025   4.473   3.389   5.032  1.3816 -2.4205  0.0515
  130OSM   H13T14026   4.404   3.456   4.883  3.8842 -0.1440 -0.5486
  130OSM   C14S14027   4.458   3.258   4.859 -0.4657  0.6026 -0.4054
  130OSM   H14S14028   4.376   3.214   4.799  0.8476  0.7882 -2.4037
  130OSM   H14T14029   4.499   3.184   4.931  0.5714 -0.5687 -2.1532
  130OSM   C15S14030   4.571   3.305   4.777 -0.7342 -0.4271  0.5477
  130OSM   H15S14031   4.652   3.342   4.844 -0.8637  0.7245  0.0897
  130OSM   H15T14032   4.542   3.396   4.721  2.5553 -0.1575 -0.9680
  130OSM   C16S14033   4.629   3.209   4.673 -0.5762  0.1531  0.5756
  130OSM   H16S14034   4.539   3.170   4.622  1.7283 -1.3745 -2.6302
  130OSM   H16T14035   4.696   3.137   4.724  0.6519  2.2924  2.1534
  130OSM   C17S14036   4.716   3.289   4.575  0.5829 -0.3443  0.7111
  130OSM   H17S14037   4.812   3.324   4.619 -0.0196  0.6378  1.2922
  130OSM   H17T14038   4.651   3.373   4.543 -2.4861 -1.1537  4.1911
  130OSM   C18S14039   4.729   3.195   4.448  0.7215  0.1207 -0.5037
  130OSM   H18S14040   4.794   3.112   4.482  1.2513  0.9461  0.5712
  130OSM   H18T14041   4.775   3.254   4.366  0.4666  1.0710  0.0131
  130OSM   H18U14042   4.631   3.153   4.417  0.1524  1.3804 -0.4681
  130OSM    C1F14043   4.604   2.810   5.852 -0.0436 -0.0030  0.3171
  130OSM     OF14044   4.523   2.734   5.892 -0.2570  0.4570 -0.5215
  130OSM    C2F14045   4.699   2.779   5.743  0.6980  0.7950 -0.0868
  130OSM    H2F14046   4.763   2.691   5.769  0.4598  0.7557  0.3788
  130OSM    H2G14047   4.765   2.867   5.727 -1.1673  2.1432 -0.7582
  130OSM    C3F14048   4.630   2.744   5.607  0.8437 -0.2279 -0.0026
  130OSM    H3F14049   4.564   2.655   5.615  0.7096 -0.0748  0.6238
  130OSM    H3G14050   4.705   2.712   5.531  1.0545  0.8487 -0.2641
  130OSM    C4F14051   4.554   2.865   5.549 -0.5471  0.1825  0.3654
  130OSM    H4F14052   4.634   2.941   5.541 -0.4696 -0.0603 -1.4826
  130OSM    H4G14053   4.462   2.891   5.606 -1.3099  0.0838 -0.7779
  130OSM    C5F14054   4.483   2.839   5.414  0.5036 -0.0120  0.6112
  130OSM    H5F14055   4.416   2.925   5.392 -0.0109 -0.7610 -0.8602
  130OSM    H5G14056   4.416   2.753   5.434 -2.2983  1.6517 -1.0149
  130OSM    C6F14057   4.577   2.810   5.300  0.4224 -0.1713  0.3691
  130OSM    H6F14058   4.619   2.707   5.291  1.4318  0.3657 -1.9493
  130OSM    H6G14059   4.658   2.886   5.301  0.0189  0.2502  1.3787
  130OSM    C7F14060   4.499   2.837   5.168 -0.1799  0.5022  0.3765
  130OSM    H7F14061   4.451   2.937   5.177  0.6835  1.3618 -3.0026
  130OSM    H7G14062   4.421   2.760   5.148  0.3211  0.5930 -2.3216
  130OSM    C8F14063   4.575   2.833   5.038  0.2470 -0.0633 -0.4492
  130OSM    H8F14064   4.634   2.925   5.019 -2.4032  1.8802  0.2681
  130OSM    H8G14065   4.507   2.833   4.950  1.3567 -1.0172 -1.3609
  130OSM    C9F14066   4.660   2.705   5.026  0.7922 -0.0360 -0.1813
  130OSM    H9F14067   4.754   2.710   5.084  0.0977  0.1546  0.9711
  130OSM   C10F14068   4.640   2.594   4.961 -0.4380  0.2864  0.1249
  130OSM   H10F14069   4.707   2.507   4.971 -1.2712 -0.3919 -0.0407
  130OSM   C11F14070   4.531   2.568   4.863 -0.1525  0.5214  1.1940
  130OSM   H11F14071   4.451   2.644   4.860 -0.9287  0.0264  4.8883
  130OSM   H11G14072   4.486   2.469   4.890 -1.1579  0.1784 -1.4175
  130OSM   C12F14073   4.586   2.567   4.722 -0.1631  0.7687  0.1771
  130OSM   H12F14074   4.502   2.529   4.659  0.8561 -0.1413 -0.6807
  130OSM   H12G14075   4.666   2.491   4.710 -0.0816  0.8896 -0.0583
  130OSM   C13F14076   4.655   2.705   4.679 -0.0925  0.5205 -0.0201
  130OSM   H13F14077   4.739   2.725   4.749  2.5642 -0.5847 -2.6732
  130OSM   H13G14078   4.583   2.789   4.692  0.6529  1.2863 -0.7168
  130OSM   C14F14079   4.696   2.687   4.535  0.6069  0.0014 -0.1189
  130OSM   H14F14080   4.641   2.603   4.488  0.0526  1.0430 -1.4238
  130OSM   H14G14081   4.798   2.641   4.534  0.7550  0.2547  1.5899
  130OSM   C15F14082   4.679   2.812   4.454 -0.3080  0.1277 -0.2182
  130OSM   H15F14083   4.735   2.891   4.509  2.4768 -1.1496 -1.0331
  130OSM   H15G14084   4.572   2.840   4.446  0.1861  1.6644 -2.2117
  130OSM   C16F14085   4.739   2.799   4.311 -0.0864  1.0653 -0.2925
  130OSM   H16F14086   4.691   2.711   4.265  0.2324 -0.3585  1.9310
  130OSM   H16G14087   4.850   2.803   4.307 -0.0841  0.7492 -0.5179
  130OSM   C17F14088   4.689   2.930   4.232  0.4128  0.8906  0.1787
  130OSM   H17F14089   4.748   3.018   4.266  1.5025  0.9319 -1.6416
  130OSM   H17G14090   4.581   2.943   4.254 -0.0622 -3.2484  1.1143
  130OSM   C18F14091   4.709   2.927   4.083  0.1321 -1.2227 -0.3788
  130OSM   H18F14092   4.807   2.879   4.065  0.4941 -0.9859  0.8828
  130OSM   H18G14093   4.728   3.027   4.038  0.2587 -0.5493  1.0870
  130OSM   H18H14094   4.630   2.866   4.035 -0.6326  1.2807 -2.5363
  131OSM      N14095   0.401   4.462   7.067 -0.1566  0.5248  0.1707
  131OSM    C1514096   0.263   4.519   7.075 -0.3364  0.2684  0.6568
  131OSM   H15A14097   0.270   4.624   7.051 -1.2103  0.6907  2.1504
  131OSM   H15B14098   0.228   4.495   7.175 -1.5201  0.1640  0.2335
  131OSM   H15C14099   0.193   4.482   7.001 -1.4995  0.0774  1.8184
  131OSM    C1414100   0.478   4.523   7.182 -0.1287 -0.1750  0.3559
  131OSM   H14A14101   0.480   4.630   7.173 -0.6689 -0.2526 -0.9849
  131OSM   H14B14102   0.584   4.506   7.194 -0.0277  1.9182  3.5414
  131OSM   H14C14103   0.421   4.499   7.271 -1.7163 -1.6905 -0.9877
  131OSM    C1314104   0.390   4.315   7.085 -0.4289 -0.2046 -0.3383
  131OSM   H13A14105   0.351   4.280   7.180  0.4077 -0.4750 -0.0890
  131OSM   H13B14106   0.485   4.266   7.076 -1.3052 -1.8595 -0.9679
  131OSM   H13C14107   0.332   4.276   7.003  0.7497  0.9510 -1.7892
  131OSM    C1214108   0.470   4.495   6.941  0.8291  0.0450 -0.0245
  131OSM   H12A14109   0.567   4.449   6.941  0.7418 -0.1752 -1.0543
  131OSM   H12B14110   0.481   4.603   6.943  0.9595  0.1022 -1.8475
  131OSM    C1114111   0.398   4.450   6.809 -1.0360 -0.1044 -0.1082
  131OSM   H11A14112   0.368   4.343   6.806 -1.4401 -0.0462  1.0688
  131OSM   H11B14113   0.474   4.453   6.729 -0.3885  0.6757  0.5191
  131OSM      P14114   0.285   4.673   6.737 -0.4283  0.6261  0.0659
  131OSM    O1314115   0.156   4.736   6.739  0.2480 -0.3002  0.1260
  131OSM    O1414116   0.395   4.748   6.809 -0.3846 -0.0418 -0.6140
  131OSM    O1114117   0.331   4.661   6.589  0.2501 -0.0069 -0.5441
  131OSM    O1214118   0.286   4.527   6.786  0.8134 -0.1578 -0.8640
  131OSM    C1S14119   0.258   4.587   6.491  0.2976  0.5356 -0.5354
  131OSM    H1S14120   0.148   4.589   6.505  0.0931 -0.4188 -1.7818
  131OSM    H1T14121   0.280   4.480   6.514  1.1221  0.8208  0.0251
  131OSM     NF14122   0.225   4.527   6.257 -0.2360 -0.7177  0.7712
  131OSM    HNF14123   0.284   4.474   6.196 -0.1526  0.2982 -0.0465
  131OSM    C2S14124   0.286   4.620   6.340 -0.1695  0.5471 -0.5281
  131OSM    H2S14125   0.245   4.723   6.335 -0.1351  0.8120  2.4037
  131OSM    C3S14126   0.439   4.641   6.313  0.1875 -0.5203 -0.0769
  131OSM    H3S14127   0.499   4.548   6.325 -0.7396 -1.1119  0.1045
  131OSM     O314128   0.493   4.747   6.399 -0.4539  1.1808  0.0074
  131OSM    HO314129   0.447   4.729   6.482  0.7826 -0.2194  0.4140
  131OSM    C4S14130   0.457   4.682   6.172  0.0151  0.7245 -1.0229
  131OSM    H4S14131   0.447   4.590   6.112  0.8334 -1.8171  2.4035
  131OSM    C5S14132   0.465   4.804   6.109 -0.0071  0.1558  0.4423
  131OSM    H5S14133   0.465   4.889   6.179 -1.0228  0.0537  0.5820
  131OSM    C6S14134   0.477   4.829   5.958  0.6275  0.4775  0.4702
  131OSM    H6S14135   0.587   4.817   5.947  0.4256 -0.4668 -0.8110
  131OSM    H6T14136   0.444   4.930   5.928 -1.1673 -0.6986 -1.8568
  131OSM    C7S14137   0.406   4.716   5.879 -0.0878  0.0923  0.4139
  131OSM    H7S14138   0.315   4.692   5.937 -2.0362  2.0675 -1.6242
  131OSM    H7T14139   0.465   4.624   5.857 -0.5828 -0.0807 -0.2332
  131OSM    C8S14140   0.345   4.771   5.749 -0.1787 -0.0836  0.7679
  131OSM    H8S14141   0.284   4.863   5.758  0.4405  0.9401 -3.4386
  131OSM    H8T14142   0.277   4.697   5.702 -1.2133  2.1408 -1.4420
  131OSM    C9S14143   0.454   4.801   5.647  0.6229 -0.0272 -0.2354
  131OSM    H9S14144   0.534   4.724   5.649  0.5637 -0.1400 -1.5371
  131OSM    H9T14145   0.496   4.902   5.667  1.4380 -0.0964 -1.5264
  131OSM   C10S14146   0.406   4.795   5.503  0.5936  0.3018 -0.2425
  131OSM   H10S14147   0.298   4.821   5.501  0.9607  1.9660  0.2232
  131OSM   H10T14148   0.400   4.688   5.474 -0.6233  0.6001 -1.1610
  131OSM   C11S14149   0.469   4.882   5.394  0.8764 -0.2873 -0.4913
  131OSM   H11S14150   0.390   4.880   5.316  1.0801 -0.6046 -0.6916
  131OSM   H11T14151   0.554   4.828   5.348  0.8198 -1.1003  0.3397
  131OSM   C12S14152   0.498   5.023   5.439 -0.4038 -0.5542 -0.2415
  131OSM   H12S14153   0.574   5.012   5.520  0.2923 -1.3711 -0.9910
  131OSM   H12T14154   0.408   5.075   5.478  0.4830  1.3072 -0.5508
  131OSM   C13S14155   0.563   5.118   5.332 -0.1727 -0.2328 -0.5311
  131OSM   H13S14156   0.609   5.197   5.394  0.4328 -2.3657  1.9090
  131OSM   H13T14157   0.476   5.159   5.275 -1.3697  0.8313  1.9125
  131OSM   C14S14158   0.664   5.045   5.244 -0.2748  0.1310 -0.4307
  131OSM   H14S14159   0.626   4.956   5.189 -0.3950 -0.0384 -0.0818
  131OSM   H14T14160   0.741   5.010   5.317  0.4758 -2.0095 -2.1475
  131OSM   C15S14161   0.727   5.139   5.144 -0.2561  0.3683  0.3950
  131OSM   H15S14162   0.748   5.244   5.173 -1.6361  0.5414  0.8260
  131OSM   H15T14163   0.654   5.137   5.061  0.1312 -4.2370 -0.1038
  131OSM   C16S14164   0.863   5.089   5.106  0.0626  0.4336 -0.0162
  131OSM   H16S14165   0.855   4.981   5.083  0.6644  0.3861 -0.0322
  131OSM   H16T14166   0.938   5.104   5.186 -1.1579  0.0006  1.2463
  131OSM   C17S14167   0.927   5.146   4.982  0.1319 -0.1591 -0.0185
  131OSM   H17S14168   1.026   5.095   4.975 -0.8027 -1.9799 -0.5544
  131OSM   H17T14169   0.938   5.255   4.998 -0.1113 -0.0627 -0.4919
  131OSM   C18S14170   0.846   5.130   4.862  0.1155 -0.5239 -0.4597
  131OSM   H18S14171   0.893   5.189   4.781  1.6246 -1.1310 -0.0534
  131OSM   H18T14172   0.740   5.161   4.873 -0.7635 -3.0180 -1.1899
  131OSM   H18U14173   0.839   5.026   4.823  0.9811  0.3340 -3.0721
  131OSM    C1F14174   0.094   4.516   6.253  0.1470 -0.1058 -0.5837
  131OSM     OF14175   0.023   4.593   6.318 -0.5558 -0.0499  0.1385
  131OSM    C2F14176   0.020   4.398   6.180  0.3576 -0.1324 -0.8260
  131OSM    H2F14177  -0.006   4.334   6.267  1.2973  1.9191  1.0746
  131OSM    H2G14178   0.098   4.338   6.127  0.1264 -1.3206  0.1390
  131OSM    C3F14179  -0.096   4.445   6.089  0.5237  0.2422  0.3202
  131OSM    H3F14180  -0.168   4.511   6.142 -1.2243  0.2668 -1.9392
  131OSM    H3G14181  -0.159   4.357   6.065  0.1613  0.7355 -0.6018
  131OSM    C4F14182  -0.040   4.504   5.963  0.2356 -0.3196  0.3551
  131OSM    H4F14183   0.005   4.421   5.905  0.8976 -0.8069  1.5527
  131OSM    H4G14184   0.036   4.584   5.978  0.8445 -0.1136 -3.0558
  131OSM    C5F14185  -0.140   4.565   5.862  0.3674  0.2980 -0.5204
  131OSM    H5F14186  -0.186   4.646   5.924 -0.1541 -1.3993  1.4450
  131OSM    H5G14187  -0.223   4.504   5.820  0.9757  0.3897 -1.8924
  131OSM    C6F14188  -0.080   4.621   5.739 -0.0848 -0.8937  0.1224
  131OSM    H6F14189   0.024   4.648   5.769 -1.2011  0.4020  3.3188
  131OSM    H6G14190  -0.136   4.707   5.698 -0.2192 -0.1453  1.7783
  131OSM    C7F14191  -0.061   4.521   5.622  0.6195 -0.0437 -0.8997
  131OSM    H7F14192  -0.162   4.489   5.589  1.0052 -0.4198 -1.7460
  131OSM    H7G14193  -0.007   4.432   5.659  1.1214  1.3054  1.8423
  131OSM    C8F14194   0.017   4.587   5.518  0.5509  0.3568  0.1211
  131OSM    H8F14195   0.125   4.596   5.542  0.9762  0.0431 -1.5060
  131OSM    H8G14196  -0.034   4.681   5.488 -2.4459 -0.9611  0.6981
  131OSM    C9F14197   0.009   4.501   5.392 -0.5754 -0.2174 -0.6014
  131OSM    H9F14198  -0.087   4.446   5.384 -0.2062 -0.7817 -1.3337
  131OSM   C10F14199   0.105   4.481   5.296 -0.2453  0.0504 -0.3905
  131OSM   H10F14200   0.077   4.417   5.211 -0.3507 -0.5474  0.0810
  131OSM   C11F14201   0.246   4.540   5.280  0.8912 -0.2932  0.2006
  131OSM   H11F14202   0.326   4.463   5.286 -0.5200 -1.9017 -0.8641
  131OSM   H11G14203   0.252   4.621   5.356  0.2525 -0.1121  0.0617
  131OSM   C12F14204   0.253   4.609   5.142 -0.7180  0.1489  0.8296
  131OSM   H12F14205   0.345   4.672   5.142  0.0733 -0.8386 -1.8831
  131OSM   H12G14206   0.162   4.672   5.139 -0.3130  0.6901 -0.6754
  131OSM   C13F14207   0.257   4.516   5.019  0.5410 -0.3573 -0.0391
  131OSM   H13F14208   0.168   4.451   5.023 -0.5991  1.1007 -0.7042
  131OSM   H13G14209   0.347   4.451   5.026  0.1709 -1.0444 -1.3308
  131OSM   C14F14210   0.254   4.583   4.884  0.3267 -0.0060 -0.5627
  131OSM   H14F14211   0.318   4.674   4.893  0.9543 -0.6321  1.9237
  131OSM   H14G14212   0.149   4.613   4.863  0.2830  0.3520  0.1374
  131OSM   C15F14213   0.299   4.502   4.757 -0.3224  0.3089  0.3536
  131OSM   H15F14214   0.406   4.476   4.778  0.4039  1.2044 -1.9220
  131OSM   H15G14215   0.304   4.570   4.670  1.7289  0.4871  0.5526
  131OSM   C16F14216   0.223   4.377   4.723 -0.1808  0.6888  0.7299
  131OSM   H16F14217   0.250   4.296   4.794 -1.9873 -0.0247  0.6461
  131OSM   H16G14218   0.273   4.335   4.634  3.1691 -1.5897  3.3917
  131OSM   C17F14219   0.076   4.383   4.707  0.0220  0.6512  0.5963
  131OSM   H17F14220   0.061   4.449   4.619  0.8987 -0.2699 -0.2795
  131OSM   H17G14221   0.034   4.438   4.793  2.0197  0.9591  1.4333
  131OSM   C18F14222   0.033   4.236   4.681  0.8743 -0.3363  0.2097
  131OSM   H18F14223   0.038   4.181   4.777 -4.3269 -1.7779 -0.0676
  131OSM   H18G14224   0.096   4.196   4.598  0.3735 -0.8414  0.0644
  131OSM   H18H14225  -0.076   4.241   4.658  0.5014 -2.7667  1.1740
  132OSM      N14226   6.329   1.979   6.953 -0.2193  0.1474 -0.9321
  132OSM    C1514227   6.203   2.037   7.010 -0.8164  0.3727  0.0151
  132OSM   H15A14228   6.218   2.141   7.033  0.7837  0.1445  0.1653
  132OSM   H15B14229   6.171   1.976   7.093 -1.0044 -0.2254 -0.4865
  132OSM   H15C14230   6.120   2.032   6.941  0.3059 -0.2942 -1.3466
  132OSM    C1414231   6.438   1.992   7.058 -0.8177 -0.0541  0.3295
  132OSM   H14A14232   6.527   1.948   7.016  0.0298  1.0016  0.9705
  132OSM   H14B14233   6.395   1.947   7.146 -3.0995  0.9543 -0.2010
  132OSM   H14C14234   6.448   2.096   7.088 -0.9657  0.5989 -1.7378
  132OSM    C1314235   6.299   1.834   6.926 -0.3643  0.0441  0.5209
  132OSM   H13A14236   6.387   1.793   6.879 -1.1351 -0.1844 -0.7828
  132OSM   H13B14237   6.231   1.827   6.842  2.3369 -0.1408 -1.8196
  132OSM   H13C14238   6.263   1.778   7.011  1.9581  0.1912  1.6718
  132OSM    C1214239   6.371   2.062   6.826 -0.3684 -0.2417 -0.6754
  132OSM   H12A14240   6.386   2.163   6.862 -0.9017 -1.1623  2.4474
  132OSM   H12B14241   6.295   2.061   6.749  0.1101 -2.7931 -1.2258
  132OSM    C1114242   6.496   2.003   6.761 -0.3355 -0.5790  0.6375
  132OSM   H11A14243   6.571   2.003   6.843 -0.7925  0.3600  1.0732
  132OSM   H11B14244   6.530   2.075   6.683 -2.3970 -0.6730 -0.3984
  132OSM      P14245   6.370   1.869   6.576 -0.0176 -0.5286  0.3240
  132OSM    O1314246   6.403   1.750   6.493  0.3049 -0.0966 -0.2398
  132OSM    O1414247   6.234   1.868   6.630 -0.1454  0.6525  0.1637
  132OSM    O1114248   6.396   1.997   6.499 -0.3214 -0.1249 -0.0717
  132OSM    O1214249   6.477   1.877   6.694  0.7313 -0.4826  0.5179
  132OSM    C1S14250   6.331   2.034   6.377 -0.1071 -0.4529  0.4234
  132OSM    H1S14251   6.271   1.953   6.329  1.2524 -1.9808  1.2046
  132OSM    H1T14252   6.418   2.051   6.311 -0.7084 -1.0016 -0.5262
  132OSM     NF14253   6.190   2.205   6.270  0.5518 -0.2238  0.6243
  132OSM    HNF14254   6.218   2.300   6.253 -3.3950  0.7607 -1.3503
  132OSM    C2S14255   6.239   2.161   6.399  0.0161  0.3787  0.6559
  132OSM    H2S14256   6.156   2.124   6.462 -0.8759  2.4047  0.7410
  132OSM    C3S14257   6.315   2.273   6.483 -0.0517  0.4221  0.1099
  132OSM    H3S14258   6.336   2.227   6.582 -0.3014  0.4654  0.1834
  132OSM     O314259   6.243   2.393   6.504 -0.2631 -0.2307  0.1832
  132OSM    HO314260   6.154   2.359   6.487  0.4291 -1.4836 -1.1521
  132OSM    C4S14261   6.448   2.298   6.410  0.3812  0.0762  0.1854
  132OSM    H4S14262   6.539   2.253   6.453  0.2320 -0.0881  0.3327
  132OSM    C5S14263   6.474   2.401   6.329  0.1818  0.5222 -0.5096
  132OSM    H5S14264   6.391   2.467   6.298 -0.7867 -0.4367 -0.0322
  132OSM    C6S14265   6.605   2.441   6.276  0.9276 -0.2904 -1.0894
  132OSM    H6S14266   6.683   2.438   6.355 -3.4141 -1.2027  3.7359
  132OSM    H6T14267   6.600   2.542   6.229 -0.3812  0.0027 -0.3756
  132OSM    C7S14268   6.647   2.345   6.162  0.2958  0.1485 -0.3385
  132OSM    H7S14269   6.664   2.247   6.212 -1.6021  0.7114  1.5241
  132OSM    H7T14270   6.750   2.367   6.127  0.5296 -2.3704 -1.4926
  132OSM    C8S14271   6.553   2.311   6.050 -0.4039 -0.4820 -0.2316
  132OSM    H8S14272   6.531   2.404   5.993 -1.8266 -0.0714  0.9513
  132OSM    H8T14273   6.462   2.254   6.079  1.0470 -1.6348  2.3596
  132OSM    C9S14274   6.633   2.214   5.955  0.1984  0.1938 -0.2090
  132OSM    H9S14275   6.647   2.112   5.996 -0.7880 -0.0436 -0.4442
  132OSM    H9T14276   6.731   2.257   5.925 -1.5711  2.1247 -4.0286
  132OSM   C10S14277   6.572   2.196   5.815 -0.0639  0.1418  0.2303
  132OSM   H10S14278   6.545   2.294   5.770  1.4137  0.7370  0.5671
  132OSM   H10T14279   6.477   2.139   5.817 -0.4541  0.6641 -1.3486
  132OSM   C11S14280   6.666   2.105   5.737 -0.1990  0.3564 -0.7122
  132OSM   H11S14281   6.713   2.030   5.804  0.3257  0.8114 -0.5620
  132OSM   H11T14282   6.747   2.157   5.682 -0.0764  0.8312 -0.0918
  132OSM   C12S14283   6.601   2.013   5.635 -0.7517 -0.3985  0.3176
  132OSM   H12S14284   6.520   1.961   5.691 -0.6215 -1.1924 -0.2103
  132OSM   H12T14285   6.680   1.942   5.603  2.0186  2.3503  0.5695
  132OSM   C13S14286   6.553   2.098   5.515  0.4658  0.0496  0.2833
  132OSM   H13S14287   6.633   2.153   5.461 -0.3655 -0.5903 -1.7004
  132OSM   H13T14288   6.476   2.171   5.549  1.8106  1.4379  0.4306
  132OSM   C14S14289   6.499   2.019   5.399 -0.5611  0.1949  0.0826
  132OSM   H14S14290   6.428   1.947   5.445 -0.2470  0.4756  1.0393
  132OSM   H14T14291   6.573   1.949   5.355 -0.9513 -0.2469  0.1199
  132OSM   C15S14292   6.436   2.102   5.288  0.0108 -0.3858 -0.2387
  132OSM   H15S14293   6.501   2.175   5.236 -3.0833 -0.2535 -4.4629
  132OSM   H15T14294   6.351   2.166   5.321  0.4015 -0.0975  0.2236
  132OSM   C16S14295   6.382   2.008   5.175 -0.2308  0.0771  0.3394
  132OSM   H16S14296   6.300   1.947   5.220 -0.9818 -0.1315 -1.2489
  132OSM   H16T14297   6.453   1.929   5.145 -1.3339 -0.5685 -0.6841
  132OSM   C17S14298   6.327   2.078   5.049  0.7328  0.1944  0.6096
  132OSM   H17S14299   6.410   2.131   4.997 -0.2586 -1.2657 -2.7261
  132OSM   H17T14300   6.254   2.153   5.084  0.3167 -0.4694  1.1836
  132OSM   C18S14301   6.265   1.984   4.950 -0.3572  0.2840  0.0052
  132OSM   H18S14302   6.240   2.051   4.865 -1.2054  0.0711  0.0757
  132OSM   H18T14303   6.179   1.919   4.976 -0.8331  1.0469  0.4072
  132OSM   H18U14304   6.344   1.913   4.919 -0.6190  0.1389 -0.3289
  132OSM    C1F14305   6.118   2.137   6.184 -0.1862  0.4533  0.5146
  132OSM     OF14306   6.058   2.033   6.220  0.2743 -0.2274 -0.3208
  132OSM    C2F14307   6.100   2.207   6.055  0.9587  0.1150 -0.0802
  132OSM    H2F14308   6.191   2.270   6.049  2.6552 -2.2083 -0.2831
  132OSM    H2G14309   6.015   2.279   6.066  1.7016  1.1254 -0.7859
  132OSM    C3F14310   6.098   2.109   5.933 -0.1058  0.2781  0.1726
  132OSM    H3F14311   6.007   2.045   5.940 -0.1442  0.0638 -1.8284
  132OSM    H3G14312   6.194   2.055   5.938  0.2659  1.0040  1.2550
  132OSM    C4F14313   6.093   2.180   5.796 -0.0485 -0.2083 -1.1469
  132OSM    H4F14314   6.172   2.255   5.775  0.5784 -0.4652  0.2013
  132OSM    H4G14315   5.999   2.239   5.796 -0.3647 -0.7006 -0.9895
  132OSM    C5F14316   6.098   2.082   5.675 -0.3996 -0.1873  0.2088
  132OSM    H5F14317   6.010   2.014   5.682  1.0914 -2.2891 -0.2979
  132OSM    H5G14318   6.180   2.009   5.695 -0.6194 -0.0248  1.8263
  132OSM    C6F14319   6.113   2.162   5.540  0.3177 -0.6133 -1.0588
  132OSM    H6F14320   6.211   2.213   5.535  0.0636 -0.2103 -2.6968
  132OSM    H6G14321   6.032   2.238   5.544  1.8410  1.0432 -0.0310
  132OSM    C7F14322   6.122   2.075   5.406 -0.4276 -0.4061  0.0573
  132OSM    H7F14323   6.223   2.028   5.396 -0.4749 -0.6949  0.8677
  132OSM    H7G14324   6.120   2.155   5.329 -0.6161 -0.4004  0.0676
  132OSM    C8F14325   6.023   1.965   5.374  1.1092 -0.3907 -0.1895
  132OSM    H8F14326   6.032   1.881   5.446 -1.3479  0.8186  1.6915
  132OSM    H8G14327   6.051   1.934   5.271 -1.0664 -2.3499 -0.2536
  132OSM    C9F14328   5.883   2.018   5.367 -0.2296  0.2410 -0.2271
  132OSM    H9F14329   5.856   2.098   5.438 -3.0867 -0.6902 -0.1441
  132OSM   C10F14330   5.792   1.971   5.277  0.2197 -0.0230  0.0850
  132OSM   H10F14331   5.687   2.004   5.276  0.2234  0.1012  1.7774
  132OSM   C11F14332   5.808   1.856   5.173 -0.5478 -0.7031 -0.8367
  132OSM   H11F14333   5.717   1.792   5.174 -0.5054 -0.7663  1.1034
  132OSM   H11G14334   5.900   1.796   5.187 -0.4986 -0.5324 -0.4173
  132OSM   C12F14335   5.808   1.931   5.034 -0.0151 -0.5274 -0.7723
  132OSM   H12F14336   5.904   1.983   5.016  1.2728 -2.6039 -0.2534
  132OSM   H12G14337   5.729   2.009   5.038 -0.0217 -0.4856  4.1679
  132OSM   C13F14338   5.811   1.834   4.921  0.3884  1.1139  0.7084
  132OSM   H13F14339   5.711   1.785   4.915  1.7215 -1.8404  0.8268
  132OSM   H13G14340   5.877   1.747   4.942  1.4808  2.0189  1.0691
  132OSM   C14F14341   5.860   1.880   4.781 -0.4918 -1.3676  0.3742
  132OSM   H14F14342   5.963   1.916   4.797 -1.2185  1.1211 -0.1431
  132OSM   H14G14343   5.800   1.968   4.749  1.7577 -0.5108 -1.7684
  132OSM   C15F14344   5.821   1.787   4.660  0.4979  0.0053 -0.1952
  132OSM   H15F14345   5.714   1.760   4.669  0.6174 -0.1812  0.7948
  132OSM   H15G14346   5.885   1.696   4.661 -0.0228 -0.3691 -0.6014
  132OSM   C16F14347   5.841   1.856   4.527  0.0492  0.5782 -0.1498
  132OSM   H16F14348   5.950   1.874   4.515  0.4698 -0.1294  2.1962
  132OSM   H16G14349   5.798   1.957   4.510  0.9136  0.9598 -0.1081
  132OSM   C17F14350   5.804   1.758   4.411  0.0435 -0.5742  0.0716
  132OSM   H17F14351   5.842   1.654   4.423 -2.0208 -1.1910  2.2139
  132OSM   H17G14352   5.846   1.795   4.316 -1.8610  1.4069 -0.0838
  132OSM   C18F14353   5.656   1.738   4.385 -0.0334 -0.1407  0.1851
  132OSM   H18F14354   5.602   1.710   4.479  0.4579  1.0194  0.8319
  132OSM   H18G14355   5.635   1.660   4.309  0.7501  1.3428 -1.6251
  132OSM   H18H14356   5.602   1.826   4.345  0.8345  1.6087  2.6007
  133OSM      N14357   4.053   1.518   6.759  0.5508  0.2316  0.3903
  133OSM    C1514358   4.010   1.626   6.848  0.0134  0.0128  0.5179
  133OSM   H15A14359   4.093   1.665   6.906 -0.6464 -2.8269  3.6994
  133OSM   H15B14360   3.945   1.583   6.923 -0.2207 -1.8696 -0.6852
  133OSM   H15C14361   3.966   1.706   6.791 -1.3945  0.8432  2.6162
  133OSM    C1414362   4.188   1.556   6.699 -0.2221 -0.0521 -0.2028
  133OSM   H14A14363   4.264   1.569   6.775 -0.1591  1.1469 -0.4497
  133OSM   H14B14364   4.187   1.643   6.636 -0.3681 -0.0865 -0.2473
  133OSM   H14C14365   4.217   1.476   6.633  0.9711 -1.3098  1.7411
  133OSM    C1314366   4.075   1.392   6.846  0.1895 -0.2524 -0.0630
  133OSM   H13A14367   4.144   1.418   6.926 -0.1771  2.3856 -0.4950
  133OSM   H13B14368   4.123   1.318   6.784 -0.4375  0.8437 -1.9208
  133OSM   H13C14369   3.987   1.346   6.887 -0.6716  2.1544  1.0106
  133OSM    C1214370   3.958   1.495   6.650 -0.0362  0.1580 -0.1832
  133OSM   H12A14371   3.858   1.488   6.691  0.3569  0.0378  0.7858
  133OSM   H12B14372   3.980   1.399   6.607 -0.5443 -0.3102  0.5788
  133OSM    C1114373   3.953   1.598   6.529 -0.1508 -0.2312  0.3548
  133OSM   H11A14374   3.893   1.560   6.444  1.4808 -1.1530 -0.4299
  133OSM   H11B14375   4.053   1.598   6.480 -0.4156 -0.0301 -0.2016
  133OSM      P14376   3.761   1.767   6.575  0.1003 -0.0619 -0.2821
  133OSM    O1314377   3.686   1.667   6.662 -0.4054 -0.4218 -0.0441
  133OSM    O1414378   3.751   1.905   6.618  0.0962 -0.1795  0.4806
  133OSM    O1114379   3.707   1.763   6.421  0.2308 -0.2777 -0.0730
  133OSM    O1214380   3.916   1.730   6.574 -0.2576  0.3694  0.2965
  133OSM    C1S14381   3.792   1.828   6.325 -0.3232 -0.1585 -0.4867
  133OSM    H1S14382   3.888   1.772   6.323 -1.0413 -1.5315  1.5026
  133OSM    H1T14383   3.805   1.937   6.344 -0.2186  0.3706 -3.0962
  133OSM     NF14384   3.829   1.887   6.092  0.3252  0.0779 -0.0461
  133OSM    HNF14385   3.804   1.979   6.062  2.6543 -0.0428 -2.8386
  133OSM    C2S14386   3.731   1.826   6.184  0.1215 -0.4413  0.1017
  133OSM    H2S14387   3.718   1.724   6.142 -1.2783  0.4624 -1.8614
  133OSM    C3S14388   3.594   1.886   6.189  0.6416 -0.8614 -0.4746
  133OSM    H3S14389   3.600   1.994   6.215  0.0893 -0.5549 -1.5779
  133OSM     O314390   3.503   1.819   6.271  0.3911  0.7390  0.1814
  133OSM    HO314391   3.557   1.782   6.341  0.8214  1.1538  0.0733
  133OSM    C4S14392   3.544   1.878   6.052  0.0293  0.6871 -0.3394
  133OSM    H4S14393   3.566   1.789   5.991 -0.1160  0.4817 -0.0974
  133OSM    C5S14394   3.461   1.961   5.987  0.3048 -0.0868  0.0916
  133OSM    H5S14395   3.402   2.038   6.038  1.2334  1.5747 -1.2474
  133OSM    C6S14396   3.410   1.956   5.843 -1.2109  0.2931 -0.1908
  133OSM    H6S14397   3.436   2.052   5.794 -0.3564 -0.5147 -1.3814
  133OSM    H6T14398   3.301   1.935   5.840 -1.1657 -0.5817  2.3453
  133OSM    C7S14399   3.468   1.846   5.745  0.5374  0.2360 -0.7721
  133OSM    H7S14400   3.438   1.749   5.791  1.7079  0.0896 -0.2834
  133OSM    H7T14401   3.578   1.856   5.734  0.3929  0.6082 -1.9633
  133OSM    C8S14402   3.391   1.860   5.615 -0.4011  0.4958  0.5279
  133OSM    H8S14403   3.404   1.964   5.576  1.7288  0.9097  2.1687
  133OSM    H8T14404   3.282   1.838   5.623 -0.2949  0.0588  0.7692
  133OSM    C9S14405   3.458   1.779   5.496 -0.1145 -0.2231  0.1428
  133OSM    H9S14406   3.431   1.672   5.505 -2.5704  0.3405  0.1193
  133OSM    H9T14407   3.568   1.785   5.510 -0.3100  1.4408  1.2008
  133OSM   C10S14408   3.417   1.835   5.359 -0.3317  1.0036 -0.4641
  133OSM   H10S14409   3.458   1.938   5.348  1.4011  0.2584 -1.4040
  133OSM   H10T14410   3.306   1.827   5.362 -0.3148  1.0727  0.9130
  133OSM   C11S14411   3.466   1.747   5.247 -0.2655 -0.0320 -0.4673
  133OSM   H11S14412   3.450   1.641   5.277 -0.2169  0.1145  0.0893
  133OSM   H11T14413   3.576   1.760   5.235 -0.2543 -0.1628 -0.5126
  133OSM   C12S14414   3.394   1.778   5.114 -0.4744 -0.1618  0.1518
  133OSM   H12S14415   3.391   1.886   5.089 -0.9162 -0.8169 -3.0673
  133OSM   H12T14416   3.291   1.738   5.114 -0.4848 -0.1875  1.8931
  133OSM   C13S14417   3.481   1.713   5.009  0.1831 -0.2634 -0.0841
  133OSM   H13S14418   3.488   1.608   5.046  2.0558  0.3980  1.5934
  133OSM   H13T14419   3.584   1.754   5.006  1.0139 -1.7021  3.4959
  133OSM   C14S14420   3.407   1.736   4.871  0.3042 -0.5220 -0.0816
  133OSM   H14S14421   3.429   1.838   4.832 -1.2576  0.2608  0.9801
  133OSM   H14T14422   3.299   1.735   4.896  0.3902 -0.2693  0.3090
  133OSM   C15S14423   3.452   1.637   4.766 -0.0816 -0.3543  0.5809
  133OSM   H15S14424   3.438   1.541   4.820 -0.3174  0.0948  1.3258
  133OSM   H15T14425   3.560   1.648   4.741  0.0441 -1.8449  0.3912
  133OSM   C16S14426   3.367   1.637   4.640  0.1384 -0.2891  0.2936
  133OSM   H16S14427   3.266   1.606   4.672 -0.8534  1.2779 -1.1580
  133OSM   H16T14428   3.394   1.562   4.563 -0.8803  1.1417 -1.5335
  133OSM   C17S14429   3.348   1.770   4.578  0.6118  0.0472  0.0803
  133OSM   H17S14430   3.439   1.833   4.571  0.2022  0.5966 -0.4733
  133OSM   H17T14431   3.294   1.833   4.652 -0.4855  0.6172 -1.1681
  133OSM   C18S14432   3.260   1.775   4.449  0.0265  0.0391  0.0725
  133OSM   H18S14433   3.258   1.879   4.411 -0.4384  0.2646  0.6806
  133OSM   H18T14434   3.155   1.744   4.470  0.4257 -0.5933  1.2271
  133OSM   H18U14435   3.300   1.703   4.374 -0.3922 -1.1874  0.9803
  133OSM    C1F14436   3.942   1.833   6.048  0.6005 -0.3930  0.0165
  133OSM     OF14437   3.973   1.719   6.062 -0.1973 -0.1200 -0.9061
  133OSM    C2F14438   4.035   1.928   5.983  0.2392  1.0211 -0.6590
  133OSM    H2F14439   4.139   1.887   5.980 -0.2789 -0.3183 -2.5092
  133OSM    H2G14440   4.030   2.021   6.042 -1.8519  0.9771 -0.6992
  133OSM    C3F14441   3.989   1.961   5.837  0.3374  0.0159 -0.4979
  133OSM    H3F14442   3.995   1.865   5.781 -0.0938 -2.0395  2.7189
  133OSM    H3G14443   4.066   2.035   5.807  0.6375 -0.0580  0.0862
  133OSM    C4F14444   3.840   2.004   5.819  1.1052 -0.7385  0.0128
  133OSM    H4F14445   3.825   2.084   5.895 -0.0414 -0.1165 -0.8382
  133OSM    H4G14446   3.767   1.922   5.834  2.3719 -2.2489 -1.7125
  133OSM    C5F14447   3.804   2.064   5.679 -0.2921 -0.0777 -0.0711
  133OSM    H5F14448   3.861   2.157   5.659 -3.2925  1.8955 -0.1462
  133OSM    H5G14449   3.703   2.110   5.675 -0.4014 -0.3163 -0.0982
  133OSM    C6F14450   3.828   1.967   5.559  0.1130  0.1725 -0.6785
  133OSM    H6F14451   3.770   1.875   5.580 -1.8213  2.1043  3.8126
  133OSM    H6G14452   3.932   1.927   5.561 -0.8304 -2.4992  2.0902
  133OSM    C7F14453   3.792   2.029   5.428 -0.1314  0.7086  0.6520
  133OSM    H7F14454   3.858   2.117   5.415  1.9173 -0.9812 -1.0961
  133OSM    H7G14455   3.683   2.054   5.426 -0.2505  0.1807  0.4375
  133OSM    C8F14456   3.826   1.929   5.314  0.2440 -0.6456  0.6783
  133OSM    H8F14457   3.800   1.824   5.338 -1.1885 -0.4670 -0.0289
  133OSM    H8G14458   3.937   1.925   5.304  0.5271  0.8257  2.7031
  133OSM    C9F14459   3.767   1.967   5.180  0.1804 -0.3408 -0.8091
  133OSM    H9F14460   3.658   1.956   5.179  0.2786 -1.4836 -0.3368
  133OSM   C10F14461   3.832   2.008   5.076  0.2669  0.4696  1.0853
  133OSM   H10F14462   3.771   2.008   4.985 -0.1009  1.4707  1.3125
  133OSM   C11F14463   3.979   2.024   5.050 -0.1597  0.2912 -0.2355
  133OSM   H11F14464   4.009   1.940   4.983 -1.3143 -1.7027  1.6153
  133OSM   H11G14465   4.041   2.014   5.141 -0.9826  3.2555  0.7711
  133OSM   C12F14466   4.008   2.166   4.990 -0.3064  0.2605  0.1257
  133OSM   H12F14467   4.001   2.235   5.077  2.4882  2.0420 -0.9120
  133OSM   H12G14468   3.934   2.193   4.913 -1.2874 -2.0322  0.1668
  133OSM   C13F14469   4.151   2.174   4.943  0.0755 -0.4836 -0.1424
  133OSM   H13F14470   4.211   2.156   5.035 -0.3854 -2.2683 -0.1518
  133OSM   H13G14471   4.178   2.271   4.896 -0.4726 -0.1057  0.3120
  133OSM   C14F14472   4.202   2.064   4.851  0.0390 -0.0274 -0.5691
  133OSM   H14F14473   4.132   2.062   4.764  0.7958 -2.1851 -1.1944
  133OSM   H14G14474   4.189   1.966   4.901 -0.2054 -0.2571 -1.0745
  133OSM   C15F14475   4.336   2.090   4.787  0.0437  0.2399 -0.6058
  133OSM   H15F14476   4.352   2.001   4.723 -1.1865 -1.4223  1.2715
  133OSM   H15G14477   4.413   2.085   4.867  0.9916  1.0676 -1.4424
  133OSM   C16F14478   4.361   2.227   4.717 -0.2516 -0.5267  0.1108
  133OSM   H16F14479   4.464   2.229   4.676 -0.2854 -0.5457  0.0248
  133OSM   H16G14480   4.355   2.319   4.779  1.2654  0.7065 -1.4789
  133OSM   C17F14481   4.273   2.268   4.598  0.1652  0.2463  0.4673
  133OSM   H17F14482   4.319   2.363   4.563  2.9209 -0.5313  1.7214
  133OSM   H17G14483   4.172   2.303   4.629 -0.5976  1.2297 -2.7003
  133OSM   C18F14484   4.260   2.166   4.478 -0.0905 -0.2639 -0.3087
  133OSM   H18F14485   4.361   2.146   4.436 -0.0506  0.3395 -0.5156
  133OSM   H18G14486   4.196   2.202   4.394  0.1408 -1.7401 -1.1632
  133OSM   H18H14487   4.229   2.068   4.520 -0.9344 -0.4546 -1.3384
  134OSM      N14488   4.876   0.020   6.996 -0.1188  0.1573  0.3310
  134OSM    C1514489   4.812  -0.107   7.030 -0.7611 -0.6544  0.1645
  134OSM   H15A14490   4.853  -0.176   6.958 -0.3158  0.2198 -0.4382
  134OSM   H15B14491   4.704  -0.103   7.022 -0.7239 -0.5412 -0.3389
  134OSM   H15C14492   4.828  -0.138   7.132 -0.9519 -1.3965 -0.0237
  134OSM    C1414493   4.833   0.136   7.080 -0.9048 -0.1914  0.0207
  134OSM   H14A14494   4.862   0.118   7.182 -0.8264  1.2456  0.2669
  134OSM   H14B14495   4.725   0.138   7.080 -0.9191  0.1671  1.5706
  134OSM   H14C14496   4.876   0.227   7.040  0.2221  0.0114  1.5667
  134OSM    C1314497   5.025   0.005   7.032 -0.1893  0.0323  0.4681
  134OSM   H13A14498   5.040   0.036   7.135 -1.1034 -0.1137  0.6534
  134OSM   H13B14499   5.081   0.069   6.967 -1.1778 -0.6058 -1.0655
  134OSM   H13C14500   5.064  -0.095   7.019  1.4467  0.7339 -0.2365
  134OSM    C1214501   4.858   0.043   6.849 -0.0952  0.2166 -0.0244
  134OSM   H12A14502   4.752   0.046   6.831 -0.1439 -0.7552  0.0488
  134OSM   H12B14503   4.912  -0.030   6.791  0.9391 -0.3741  1.5861
  134OSM    C1114504   4.924   0.179   6.802  0.3691  0.0808  0.1267
  134OSM   H11A14505   4.929   0.173   6.691 -1.4300 -0.0579  0.0214
  134OSM   H11B14506   5.032   0.179   6.828  0.9711  1.4233 -2.1096
  134OSM      P14507   4.762   0.389   6.774  0.4902 -0.3415  0.4452
  134OSM    O1314508   4.652   0.416   6.865  0.1849  0.0594 -0.4339
  134OSM    O1414509   4.822   0.508   6.712  0.2913  0.3890  0.5201
  134OSM    O1114510   4.719   0.301   6.656  0.3006  0.0986 -0.6605
  134OSM    O1214511   4.871   0.302   6.850 -0.7444 -0.1026  0.0489
  134OSM    C1S14512   4.579   0.294   6.628  0.1052 -0.8009 -0.2211
  134OSM    H1S14513   4.512   0.377   6.659 -1.0685 -0.7181 -2.7726
  134OSM    H1T14514   4.539   0.201   6.674 -1.8206 -0.0829 -0.3534
  134OSM     NF14515   4.422   0.306   6.442 -0.0066  0.1428 -0.5125
  134OSM    HNF14516   4.363   0.226   6.447 -0.3770  0.4470  0.1972
  134OSM    C2S14517   4.559   0.281   6.478  0.2790 -0.2864  0.6609
  134OSM    H2S14518   4.620   0.361   6.429  0.7399 -0.2947  1.2077
  134OSM    C3S14519   4.613   0.142   6.441  0.3120 -0.2481 -0.1710
  134OSM    H3S14520   4.557   0.063   6.497  0.0212 -1.2732 -1.8381
  134OSM     O314521   4.741   0.126   6.477 -0.3244  0.5341 -0.0150
  134OSM    HO314522   4.747   0.192   6.547 -0.7760  0.6959 -0.1274
  134OSM    C4S14523   4.592   0.101   6.303 -0.2700 -0.4348 -0.2565
  134OSM    H4S14524   4.685   0.120   6.246 -0.5488  2.5861  0.1408
  134OSM    C5S14525   4.485   0.032   6.256  0.0516 -0.2972  0.6015
  134OSM    H5S14526   4.400   0.012   6.323  0.6544 -1.5922  0.9942
  134OSM    C6S14527   4.472  -0.018   6.115  0.2175 -0.1928 -0.9058
  134OSM    H6S14528   4.386   0.032   6.065 -1.5039  0.2557  2.2772
  134OSM    H6T14529   4.448  -0.126   6.121  0.9328 -0.3048 -0.0047
  134OSM    C7S14530   4.600  -0.001   6.033  0.2547 -0.0911  0.5147
  134OSM    H7S14531   4.680  -0.059   6.085  0.3218 -1.1876 -0.7571
  134OSM    H7T14532   4.626   0.107   6.028  0.7320 -0.2184  0.1181
  134OSM    C8S14533   4.569  -0.066   5.896 -0.5967 -0.0036 -0.4599
  134OSM    H8S14534   4.487  -0.020   5.836  0.9668  0.4501 -2.3312
  134OSM    H8T14535   4.532  -0.168   5.922  0.7681 -0.6093 -0.8081
  134OSM    C9S14536   4.687  -0.086   5.794 -1.0388  0.3904 -0.3108
  134OSM    H9S14537   4.771  -0.131   5.850 -1.1470  1.2797  0.6030
  134OSM    H9T14538   4.722   0.013   5.758 -2.2382  0.9652  0.0375
  134OSM   C10S14539   4.661  -0.173   5.667  0.3721 -0.2992 -0.4380
  134OSM   H10S14540   4.564  -0.146   5.619  0.6271  0.0353 -0.7755
  134OSM   H10T14541   4.655  -0.276   5.708  0.8800 -0.0127  0.3789
  134OSM   C11S14542   4.772  -0.157   5.567  0.6640 -0.5593 -1.3064
  134OSM   H11S14543   4.873  -0.144   5.612 -0.1096  0.9296  0.1062
  134OSM   H11T14544   4.755  -0.072   5.497  0.9882 -0.0765 -0.8042
  134OSM   C12S14545   4.773  -0.273   5.462 -0.0347  0.3196  0.4213
  134OSM   H12S14546   4.670  -0.295   5.427  0.3820 -1.1328  0.0225
  134OSM   H12T14547   4.803  -0.358   5.527 -0.3166  1.9028  2.7440
  134OSM   C13S14548   4.878  -0.265   5.349  0.0433 -0.1341  0.2560
  134OSM   H13S14549   4.979  -0.272   5.395 -0.8576  0.9236  2.5252
  134OSM   H13T14550   4.874  -0.163   5.306 -0.3171  0.2532  1.1953
  134OSM   C14S14551   4.872  -0.372   5.239 -0.0994  0.5828  0.5703
  134OSM   H14S14552   4.835  -0.460   5.296 -0.8338  1.5081  1.5741
  134OSM   H14T14553   4.977  -0.385   5.207 -0.2756 -4.1497  1.2821
  134OSM   C15S14554   4.780  -0.338   5.124  0.2804  0.0019 -0.1431
  134OSM   H15S14555   4.793  -0.236   5.082 -0.7370 -0.0568 -0.6446
  134OSM   H15T14556   4.674  -0.336   5.158  0.0031 -0.5249 -0.9498
  134OSM   C16S14557   4.792  -0.440   5.005  0.7713  0.2272  0.7198
  134OSM   H16S14558   4.778  -0.543   5.044 -0.4863 -1.6047 -3.8991
  134OSM   H16T14559   4.891  -0.430   4.955  0.0662  2.5889 -0.3740
  134OSM   C17S14560   4.687  -0.422   4.897 -0.0591 -0.3474 -0.3834
  134OSM   H17S14561   4.587  -0.427   4.943 -0.0488  1.2122 -0.1156
  134OSM   H17T14562   4.713  -0.504   4.826  0.6099 -0.0572 -0.4803
  134OSM   C18S14563   4.699  -0.295   4.817  0.2023  0.3476  0.4409
  134OSM   H18S14564   4.800  -0.262   4.784 -0.5604  3.8242  1.1766
  134OSM   H18T14565   4.672  -0.206   4.879 -1.2394  0.5925 -0.5011
  134OSM   H18U14566   4.633  -0.306   4.729 -1.5511  2.8879  1.3102
  134OSM    C1F14567   4.380   0.428   6.440  0.7494 -0.3521  0.5470
  134OSM     OF14568   4.449   0.523   6.478  0.4551 -0.0929 -0.3380
  134OSM    C2F14569   4.232   0.449   6.389  0.4195 -0.0364  0.2172
  134OSM    H2F14570   4.196   0.543   6.436 -0.3215  0.5907 -1.5165
  134OSM    H2G14571   4.174   0.360   6.422  2.3120 -0.7391  1.8334
  134OSM    C3F14572   4.226   0.461   6.236  0.1626  0.5690  0.3182
  134OSM    H3F14573   4.278   0.554   6.205  0.5303 -0.3816 -2.1044
  134OSM    H3G14574   4.122   0.468   6.199  0.0695  0.0061  0.4639
  134OSM    C4F14575   4.296   0.349   6.147  0.1642  0.2385  0.0396
  134OSM    H4F14576   4.242   0.255   6.168 -2.5988  1.3705 -1.4173
  134OSM    H4G14577   4.404   0.338   6.169  0.8819  2.7343 -1.7456
  134OSM    C5F14578   4.283   0.377   5.997  0.2475 -0.2055  0.0119
  134OSM    H5F14579   4.335   0.474   5.983  3.9439 -1.9974  0.1620
  134OSM    H5G14580   4.174   0.383   5.976 -0.9861 -2.7129  4.2713
  134OSM    C6F14581   4.358   0.279   5.902 -0.6174 -0.3023  0.4225
  134OSM    H6F14582   4.292   0.191   5.915 -3.0211  0.9482 -2.2432
  134OSM    H6G14583   4.458   0.259   5.947 -1.6474 -2.6517  1.8454
  134OSM    C7F14584   4.370   0.307   5.750  0.3374  0.6155 -0.0894
  134OSM    H7F14585   4.446   0.388   5.738  0.4816  0.2479 -2.1717
  134OSM    H7G14586   4.268   0.342   5.722  0.2053  1.1412  1.0241
  134OSM    C8F14587   4.420   0.191   5.670 -0.3489 -0.4040  0.3374
  134OSM    H8F14588   4.358   0.105   5.704 -3.3690  1.9776  1.3664
  134OSM    H8G14589   4.528   0.174   5.689 -0.7698 -1.4427  2.0189
  134OSM    C9F14590   4.377   0.227   5.527 -0.4735 -0.0569  0.1002
  134OSM    H9F14591   4.274   0.265   5.520 -0.4429 -0.1156 -0.8286
  134OSM   C10F14592   4.437   0.202   5.410 -1.0774  0.5148  0.4087
  134OSM   H10F14593   4.378   0.223   5.319  0.6276  0.8225 -0.6822
  134OSM   C11F14594   4.570   0.129   5.388  0.6674 -0.7321 -0.1876
  134OSM   H11F14595   4.582   0.053   5.469 -2.1852 -2.6613 -1.3961
  134OSM   H11G14596   4.655   0.200   5.386  0.1819  0.0162  2.3099
  134OSM   C12F14597   4.578   0.058   5.250 -0.4662  0.3736  0.5086
  134OSM   H12F14598   4.487   0.000   5.226 -0.3157 -0.5255  1.9769
  134OSM   H12G14599   4.668  -0.008   5.246 -0.1275  0.8658 -0.1292
  134OSM   C13F14600   4.600   0.158   5.137  0.0164  0.2404  0.2432
  134OSM   H13F14601   4.700   0.206   5.132 -0.3851  1.3166  1.8786
  134OSM   H13G14602   4.534   0.245   5.157  0.9548  0.5967  1.9823
  134OSM   C14F14603   4.567   0.102   4.992 -0.5713  0.3497 -0.4201
  134OSM   H14F14604   4.458   0.082   4.984 -0.4502  0.3332 -3.0519
  134OSM   H14G14605   4.607  -0.001   4.976 -1.6215  0.1862 -2.2227
  134OSM   C15F14606   4.618   0.196   4.884  0.1202  0.1495  0.8953
  134OSM   H15F14607   4.728   0.214   4.888  0.4628 -1.5162  0.0389
  134OSM   H15G14608   4.575   0.297   4.900 -0.1337  0.2239 -0.1714
  134OSM   C16F14609   4.570   0.141   4.747 -0.9457  0.2358 -0.1801
  134OSM   H16F14610   4.460   0.120   4.750 -0.3436 -3.5396  1.8398
  134OSM   H16G14611   4.621   0.044   4.729 -2.8490 -0.8480 -0.0045
  134OSM   C17F14612   4.601   0.238   4.634 -0.7458  0.1023 -0.4773
  134OSM   H17F14613   4.538   0.327   4.653  0.5855  0.6077  1.9954
  134OSM   H17G14614   4.570   0.207   4.532 -0.1294  0.9833 -0.9427
  134OSM   C18F14615   4.745   0.285   4.639 -0.4658  0.2231 -0.6827
  134OSM   H18F14616   4.773   0.348   4.551  1.5287 -0.1037 -0.3295
  134OSM   H18G14617   4.808   0.194   4.652 -2.2438 -0.8605  0.7480
  134OSM   H18H14618   4.769   0.338   4.734  0.1683  0.1869 -0.8151
  135OSM      N14619   6.375   5.612   6.942  0.4465 -0.9311 -0.1228
  135OSM    C1514620   6.380   5.613   7.088  0.1704  0.4047 -0.1669
  135OSM   H15A14621   6.468   5.564   7.127 -0.5281 -0.5514  0.2724
  135OSM   H15B14622   6.297   5.560   7.133 -0.4053  0.7019 -0.8543
  135OSM   H15C14623   6.393   5.714   7.124  0.4063  1.2270 -2.3900
  135OSM    C1414624   6.405   5.472   6.881 -0.2024 -1.3006 -0.4556
  135OSM   H14A14625   6.329   5.401   6.913 -2.2647  0.6126 -0.8483
  135OSM   H14B14626   6.505   5.446   6.913  0.5903  1.6363 -0.2588
  135OSM   H14C14627   6.388   5.487   6.776 -0.4636 -0.0007 -0.2392
  135OSM    C1314628   6.240   5.649   6.894  0.7473 -0.1528 -0.1681
  135OSM   H13A14629   6.201   5.746   6.918  2.5680  0.5612  0.1011
  135OSM   H13B14630   6.177   5.568   6.929  0.9806 -0.8239 -1.2735
  135OSM   H13C14631   6.229   5.645   6.787 -1.2275  0.8242 -0.0289
  135OSM    C1214632   6.465   5.720   6.890 -0.1943 -0.2271 -0.6289
  135OSM   H12A14633   6.447   5.814   6.939  0.1824 -1.2426  1.5552
  135OSM   H12B14634   6.455   5.723   6.782 -0.1859  1.2046 -0.5988
  135OSM    C1114635   6.612   5.696   6.920 -0.0037  0.0234 -0.2422
  135OSM   H11A14636   6.622   5.683   7.030  0.8032  4.2367  0.3684
  135OSM   H11B14637   6.659   5.794   6.895 -1.3447  0.5752 -0.6507
  135OSM      P14638   6.798   5.522   6.887  0.0040  0.1938 -0.4891
  135OSM    O1314639   6.889   5.620   6.953  0.6101  0.3025 -0.4705
  135OSM    O1414640   6.756   5.410   6.971 -0.1005  0.1412  0.6505
  135OSM    O1114641   6.877   5.479   6.758  0.2907 -0.2853  0.2086
  135OSM    O1214642   6.665   5.593   6.841 -0.1097 -0.1508 -0.8831
  135OSM    C1S14643   6.823   5.381   6.671  0.5004 -0.1849 -0.7737
  135OSM    H1S14644   6.715   5.403   6.653  0.8783  0.0315 -3.1511
  135OSM    H1T14645   6.832   5.279   6.712 -0.9007  0.4934  1.3994
  135OSM     NF14646   6.825   5.313   6.434  0.2578 -0.0036  0.2568
  135OSM    HNF14647   6.864   5.228   6.400 -2.8197 -0.8647 -1.5438
  135OSM    C2S14648   6.895   5.380   6.538 -0.3451  0.0189 -0.4042
  135OSM    H2S14649   6.917   5.485   6.509  0.3828  0.3710  1.2902
  135OSM    C3S14650   7.050   5.335   6.548 -0.5174 -0.1978  0.3418
  135OSM    H3S14651   7.042   5.230   6.585 -1.2660 -0.5850 -0.8572
  135OSM     O314652   7.117   5.395   6.660 -0.1735 -0.2498  0.1987
  135OSM    HO314653   7.045   5.442   6.703 -2.0133 -1.1464 -1.7104
  135OSM    C4S14654   7.125   5.347   6.417  0.1762  0.6779 -0.2905
  135OSM    H4S14655   7.117   5.257   6.352 -5.1036  2.4111 -2.6437
  135OSM    C5S14656   7.201   5.439   6.360 -0.1219 -0.2713  0.0746
  135OSM    H5S14657   7.209   5.533   6.416 -0.3174 -0.1868 -0.0382
  135OSM    C6S14658   7.281   5.429   6.226  0.6996  0.2244 -0.7979
  135OSM    H6S14659   7.387   5.432   6.258  0.6882 -2.0720 -0.4369
  135OSM    H6T14660   7.252   5.519   6.167  0.1377  1.3835  1.1212
  135OSM    C7S14661   7.265   5.293   6.150  0.5058 -0.0216  0.1516
  135OSM    H7S14662   7.172   5.291   6.089  1.7115 -0.6761 -1.7717
  135OSM    H7T14663   7.258   5.217   6.231 -1.6699  1.2969  1.2811
  135OSM    C8S14664   7.377   5.278   6.050 -0.3160  0.1363  0.6274
  135OSM    H8S14665   7.347   5.195   5.981 -1.2752  0.4687  0.6246
  135OSM    H8T14666   7.475   5.261   6.098  0.2200 -1.4176 -0.9098
  135OSM    C9S14667   7.409   5.392   5.944 -0.4295 -0.0878 -0.2546
  135OSM    H9S14668   7.461   5.475   5.996 -0.5695 -1.1543  1.7088
  135OSM    H9T14669   7.314   5.440   5.914 -1.8471 -2.9124 -0.6083
  135OSM   C10S14670   7.476   5.341   5.827 -0.0850 -0.1629  0.4322
  135OSM   H10S14671   7.411   5.270   5.770 -0.7274 -0.6162  1.6989
  135OSM   H10T14672   7.573   5.290   5.843  0.5728 -0.6313 -3.8544
  135OSM   C11S14673   7.494   5.460   5.729  0.9056 -0.6010  0.8280
  135OSM   H11S14674   7.534   5.551   5.778 -1.1558  0.5142  0.5733
  135OSM   H11T14675   7.398   5.490   5.681  1.1501  0.1476  0.8097
  135OSM   C12S14676   7.589   5.429   5.609  0.1951  0.0164 -0.0533
  135OSM   H12S14677   7.540   5.350   5.549  0.2922 -0.5458  0.5950
  135OSM   H12T14678   7.690   5.399   5.644  0.3434 -1.2714 -1.4869
  135OSM   C13S14679   7.594   5.550   5.525 -0.2728  0.3840 -0.2445
  135OSM   H13S14680   7.645   5.634   5.577 -1.3210  1.4771 -0.9481
  135OSM   H13T14681   7.494   5.588   5.496 -1.2050 -0.4380  1.7363
  135OSM   C14S14682   7.667   5.524   5.396 -0.0473  0.4456  0.2595
  135OSM   H14S14683   7.597   5.466   5.331  0.1300  0.8208 -0.2653
  135OSM   H14T14684   7.756   5.464   5.424 -0.6397 -0.8505 -0.5101
  135OSM   C15S14685   7.710   5.655   5.337  0.3575  0.1485 -0.4847
  135OSM   H15S14686   7.774   5.700   5.416  1.1046 -0.2976 -0.8243
  135OSM   H15T14687   7.613   5.710   5.333  1.6521  2.7945  1.5959
  135OSM   C16S14688   7.785   5.664   5.204 -0.1142  0.4041  0.1926
  135OSM   H16S14689   7.719   5.625   5.124 -1.2355  1.2993  0.6623
  135OSM   H16T14690   7.878   5.603   5.210  0.4396  0.8937 -2.5297
  135OSM   C17S14691   7.826   5.801   5.176 -0.0666 -0.6663  0.4066
  135OSM   H17S14692   7.899   5.835   5.252 -0.1558 -0.3177  0.3376
  135OSM   H17T14693   7.741   5.872   5.183  2.0400  2.0324  0.3422
  135OSM   C18S14694   7.896   5.822   5.049 -1.0752  0.0471 -0.4371
  135OSM   H18S14695   7.827   5.824   4.961  0.8695 -1.1939 -2.1021
  135OSM   H18T14696   7.976   5.745   5.038 -1.0203  0.0597 -0.1101
  135OSM   H18U14697   7.951   5.918   5.053 -1.3108  0.1800 -0.3872
  135OSM    C1F14698   6.710   5.350   6.379 -0.5851  0.1554 -0.2410
  135OSM     OF14699   6.655   5.455   6.409  0.3688  0.2855  0.1321
  135OSM    C2F14700   6.649   5.256   6.273  0.2450  0.4256 -0.5206
  135OSM    H2F14701   6.622   5.156   6.312 -0.9790 -0.2230 -2.8442
  135OSM    H2G14702   6.722   5.239   6.191  1.0088 -4.7772  0.8327
  135OSM    C3F14703   6.505   5.297   6.214 -0.1913  0.3207 -0.0983
  135OSM    H3F14704   6.515   5.407   6.197  0.0581  0.3874  0.4629
  135OSM    H3G14705   6.432   5.287   6.297 -0.4072 -1.3733 -0.4650
  135OSM    C4F14706   6.441   5.205   6.100  0.2600 -0.1851 -1.1802
  135OSM    H4F14707   6.466   5.097   6.111 -2.3133 -0.7455  0.0512
  135OSM    H4G14708   6.331   5.219   6.111  0.5420  0.1034  3.1515
  135OSM    C5F14709   6.458   5.235   5.945  1.0840  0.5361 -0.0216
  135OSM    H5F14710   6.565   5.223   5.919  0.2611 -1.1208 -3.2809
  135OSM    H5G14711   6.426   5.341   5.933  0.0222  0.3341  0.8363
  135OSM    C6F14712   6.374   5.137   5.861 -0.0962 -0.1281  0.4398
  135OSM    H6F14713   6.354   5.177   5.760 -2.2968  0.4487  1.0608
  135OSM    H6G14714   6.273   5.112   5.899  0.6199 -1.6985  1.4363
  135OSM    C7F14715   6.451   5.009   5.846 -0.6148  0.3212 -0.7661
  135OSM    H7F14716   6.494   4.977   5.943 -0.0628  0.5401 -0.9330
  135OSM    H7G14717   6.533   5.028   5.774  1.1670  1.1351  1.3421
  135OSM    C8F14718   6.376   4.891   5.794 -0.2789 -0.6091  0.4469
  135OSM    H8F14719   6.295   4.876   5.869 -0.5180  1.4188  0.6653
  135OSM    H8G14720   6.451   4.811   5.810 -0.3439 -0.2883  2.7146
  135OSM    C9F14721   6.324   4.915   5.657  0.6793  0.0015 -0.5291
  135OSM    H9F14722   6.238   4.983   5.651 -1.9135 -3.0498 -0.6155
  135OSM   C10F14723   6.356   4.839   5.554  0.2026 -0.4417 -0.2349
  135OSM   H10F14724   6.294   4.836   5.463  1.1225 -0.0543 -0.8794
  135OSM   C11F14725   6.455   4.732   5.564 -0.2512 -0.4469  0.0398
  135OSM   H11F14726   6.441   4.668   5.654 -1.7646 -2.0728 -1.2730
  135OSM   H11G14727   6.558   4.771   5.549 -0.4777 -0.5009 -1.8372
  135OSM   C12F14728   6.443   4.624   5.456 -0.0316  0.0581  0.3448
  135OSM   H12F14729   6.334   4.607   5.438 -0.1564  1.9244 -0.9802
  135OSM   H12G14730   6.482   4.530   5.501  1.9135  0.9717  0.6348
  135OSM   C13F14731   6.514   4.661   5.324  0.2021  0.2055  0.8722
  135OSM   H13F14732   6.624   4.645   5.328  0.4091  1.6353  1.9217
  135OSM   H13G14733   6.483   4.766   5.307 -2.3952 -0.4070  1.3844
  135OSM   C14F14734   6.455   4.581   5.202 -0.2620  0.2137  0.8514
  135OSM   H14F14735   6.347   4.604   5.211 -0.2450 -0.0131  1.6664
  135OSM   H14G14736   6.467   4.471   5.209  0.6933 -0.0801 -3.0001
  135OSM   C15F14737   6.507   4.635   5.061 -0.0575 -0.5757 -0.4325
  135OSM   H15F14738   6.510   4.745   5.073  1.3399 -0.4665 -1.5232
  135OSM   H15G14739   6.450   4.608   4.969  2.4113 -0.4255 -2.1013
  135OSM   C16F14740   6.654   4.612   5.037  0.7249  0.0641  0.0966
  135OSM   H16F14741   6.664   4.520   4.977  1.1018 -1.7520  2.7730
  135OSM   H16G14742   6.710   4.578   5.127  1.2164 -2.0864 -0.9677
  135OSM   C17F14743   6.721   4.728   4.959  0.8688  0.0512  0.6874
  135OSM   H17F14744   6.832   4.716   4.967  0.9730 -0.2781 -0.9060
  135OSM   H17G14745   6.688   4.824   5.004  1.3089 -0.7897  2.9419
  135OSM   C18F14746   6.690   4.718   4.810  0.3643  0.3373 -0.4961
  135OSM   H18F14747   6.739   4.625   4.774  2.6858  0.6664  1.5381
  135OSM   H18G14748   6.729   4.803   4.750 -0.3790  0.2072 -1.1781
  135OSM   H18H14749   6.579   4.718   4.802  0.1537  0.6126  1.8782
  136OSM      N14750   0.784   5.184   6.646 -0.2458 -0.2652  0.1143
  136OSM    C1514751   0.884   5.240   6.744  0.3258 -0.1175 -0.5371
  136OSM   H15A14752   0.848   5.341   6.756 -0.3530 -0.3650 -0.4032
  136OSM   H15B14753   0.986   5.237   6.710  0.4408  1.7305 -0.4556
  136OSM   H15C14754   0.876   5.190   6.839 -0.3146 -0.7274 -0.9020
  136OSM    C1414755   0.823   5.038   6.638 -0.3142 -0.1962 -0.1611
  136OSM   H14A14756   0.916   5.024   6.585 -0.3704  0.4215 -0.4374
  136OSM   H14B14757   0.746   4.983   6.587  1.4207 -1.5827 -1.3947
  136OSM   H14C14758   0.839   4.996   6.736  1.6629 -1.2276 -0.8661
  136OSM    C1314759   0.644   5.191   6.701 -0.4002  0.5627 -0.2106
  136OSM   H13A14760   0.610   5.293   6.711 -0.6589  0.6136 -1.4644
  136OSM   H13B14761   0.624   5.145   6.797 -1.4180  3.3827  1.0554
  136OSM   H13C14762   0.574   5.146   6.633 -0.4757  0.8835 -0.3469
  136OSM    C1214763   0.782   5.257   6.512 -0.3183  0.2344 -0.0871
  136OSM   H12A14764   0.725   5.200   6.440 -0.4684 -0.3797  0.5064
  136OSM   H12B14765   0.886   5.265   6.482 -0.5370  1.3132 -0.5931
  136OSM    C1114766   0.724   5.396   6.511 -0.4745 -0.0372 -0.2827
  136OSM   H11A14767   0.620   5.384   6.546 -0.3674  0.7886  0.3587
  136OSM   H11B14768   0.732   5.439   6.408  0.2024  2.5249  0.7630
  136OSM      P14769   0.721   5.615   6.663  0.1024  0.6633 -0.1794
  136OSM    O1314770   0.611   5.566   6.754 -0.3600 -0.2846 -0.1208
  136OSM    O1414771   0.815   5.702   6.732  0.0584 -0.2566 -0.5299
  136OSM    O1114772   0.669   5.699   6.541  0.1448  0.1140 -0.4554
  136OSM    O1214773   0.797   5.489   6.597  0.1192 -0.5541 -0.5361
  136OSM    C1S14774   0.750   5.734   6.431 -0.8427 -0.4069  0.0601
  136OSM    H1S14775   0.840   5.670   6.417  0.1580  0.0940  3.3444
  136OSM    H1T14776   0.783   5.838   6.447  0.0547 -0.7129  0.2624
  136OSM     NF14777   0.761   5.754   6.186 -0.0097 -0.6987  0.8030
  136OSM    HNF14778   0.782   5.843   6.148 -0.9505 -0.9520 -0.4042
  136OSM    C2S14779   0.673   5.745   6.293  0.1460 -0.1605  0.3171
  136OSM    H2S14780   0.626   5.651   6.255  1.3504 -0.2008 -1.1715
  136OSM    C3S14781   0.572   5.861   6.297  0.1436 -0.2293  0.0162
  136OSM    H3S14782   0.634   5.952   6.287  1.0847 -0.7125  1.2092
  136OSM     O314783   0.520   5.879   6.423  0.4390  0.5666 -0.4667
  136OSM    HO314784   0.563   5.810   6.474 -2.6332 -1.3253 -0.1751
  136OSM    C4S14785   0.475   5.860   6.183 -0.8115 -0.3460 -0.2928
  136OSM    H4S14786   0.378   5.811   6.200 -1.0428 -0.6280 -2.2403
  136OSM    C5S14787   0.497   5.922   6.064  0.1824  0.2794  0.3476
  136OSM    H5S14788   0.590   5.968   6.031 -0.6185  2.7691  1.3284
  136OSM    C6S14789   0.405   5.901   5.945 -0.7772 -1.2409 -0.0873
  136OSM    H6S14790   0.417   5.986   5.874  1.6283 -2.3355 -1.1210
  136OSM    H6T14791   0.301   5.907   5.984 -0.1580  2.5913  1.3561
  136OSM    C7S14792   0.434   5.760   5.875  0.4683  0.0097 -0.9457
  136OSM    H7S14793   0.390   5.672   5.927  1.4396 -0.1044 -0.2898
  136OSM    H7T14794   0.543   5.742   5.873  0.8935  1.8718  1.2528
  136OSM    C8S14795   0.379   5.755   5.735 -0.7486  0.0438  0.9168
  136OSM    H8S14796   0.270   5.774   5.743 -0.7139  0.7029 -0.0340
  136OSM    H8T14797   0.400   5.652   5.698  0.6472  0.2858  0.9737
  136OSM    C9S14798   0.460   5.859   5.650 -0.0840 -0.6175 -0.2106
  136OSM    H9S14799   0.570   5.857   5.667 -0.1386 -0.0423  0.2210
  136OSM    H9T14800   0.427   5.962   5.674  3.8862  0.6496  0.6209
  136OSM   C10S14801   0.449   5.835   5.501  0.3431  0.4580  0.2085
  136OSM   H10S14802   0.345   5.817   5.467 -0.1236  1.1077  1.2390
  136OSM   H10T14803   0.491   5.735   5.477 -0.6242  0.3199 -1.0216
  136OSM   C11S14804   0.534   5.927   5.416 -0.6174 -0.0427 -0.0465
  136OSM   H11S14805   0.643   5.914   5.433 -0.0126  0.9646 -2.7033
  136OSM   H11T14806   0.515   6.034   5.442  2.3487  0.5974 -0.1593
  136OSM   C12S14807   0.511   5.897   5.267  0.2152 -0.2404 -0.0988
  136OSM   H12S14808   0.406   5.925   5.245  0.2562 -0.6815 -0.9198
  136OSM   H12T14809   0.535   5.791   5.242 -3.7793 -1.5236  0.8587
  136OSM   C13S14810   0.604   5.981   5.187  0.1337  0.1638  0.5831
  136OSM   H13S14811   0.707   5.994   5.226  0.8808 -3.2305  0.0869
  136OSM   H13T14812   0.573   6.086   5.204  1.0925  0.4265  0.7222
  136OSM   C14S14813   0.592   5.936   5.039  0.1136 -0.1114 -0.5302
  136OSM   H14S14814   0.484   5.938   5.012 -0.5729 -1.5003  1.7960
  136OSM   H14T14815   0.628   5.831   5.047 -1.6117 -0.8410 -1.7134
  136OSM   C15S14816   0.685   6.018   4.949  0.0284 -0.0745  1.0867
  136OSM   H15S14817   0.780   6.048   4.998  1.5307 -2.7539  0.0583
  136OSM   H15T14818   0.633   6.114   4.928  0.8017 -0.0483 -0.9148
  136OSM   C16S14819   0.717   5.930   4.819  0.7156 -0.0490 -0.4456
  136OSM   H16S14820   0.625   5.927   4.756 -1.0670 -0.2591  2.0225
  136OSM   H16T14821   0.750   5.826   4.839  0.8866  0.0989  0.0400
  136OSM   C17S14822   0.835   6.004   4.746  0.7528 -0.0419  0.3632
  136OSM   H17S14823   0.917   5.994   4.819  0.7394 -1.4632  0.2137
  136OSM   H17T14824   0.802   6.109   4.729  0.2356 -0.6601 -3.4966
  136OSM   C18S14825   0.880   5.942   4.608  0.4923  0.1811  0.1811
  136OSM   H18S14826   0.787   5.943   4.548  0.0321 -0.1276  0.8701
  136OSM   H18T14827   0.917   5.837   4.615  1.9599  0.5533 -1.3234
  136OSM   H18U14828   0.953   6.013   4.564  0.9918  0.0702  0.8082
  136OSM    C1F14829   0.827   5.646   6.128  0.2953 -0.4216  1.1963
  136OSM     OF14830   0.812   5.530   6.161 -0.2678 -0.3253  0.1280
  136OSM    C2F14831   0.925   5.663   6.009  0.1709  0.3686 -0.8832
  136OSM    H2F14832   0.977   5.761   6.019 -2.4048  1.8400 -1.1038
  136OSM    H2G14833   0.859   5.660   5.920  1.5088  0.1060 -1.9031
  136OSM    C3F14834   1.038   5.551   6.000  0.9985  0.3350  0.2765
  136OSM    H3F14835   0.982   5.455   6.000  0.1709  0.8041  0.8640
  136OSM    H3G14836   1.088   5.547   6.099  1.5781  3.2613  0.1902
  136OSM    C4F14837   1.124   5.574   5.878  0.1974  0.1291 -0.8270
  136OSM    H4F14838   1.215   5.513   5.898  0.6710  1.3481  1.0177
  136OSM    H4G14839   1.165   5.677   5.878 -0.1066  0.4211 -5.1678
  136OSM    C5F14840   1.062   5.534   5.743 -0.1779 -0.2728 -0.0289
  136OSM    H5F14841   0.992   5.615   5.715 -0.8712 -0.2983  1.5461
  136OSM    H5G14842   1.015   5.434   5.749  2.0205 -1.4384 -1.0009
  136OSM    C6F14843   1.162   5.534   5.627  0.0715  0.2031 -0.3475
  136OSM    H6F14844   1.122   5.474   5.543  2.2546 -2.6530  0.4641
  136OSM    H6G14845   1.252   5.479   5.662  0.6415  0.2592 -1.6890
  136OSM    C7F14846   1.198   5.674   5.577  0.0363  0.4982 -0.4058
  136OSM    H7F14847   1.251   5.724   5.661 -1.8823  1.4466  0.3129
  136OSM    H7G14848   1.106   5.737   5.569 -1.3930 -1.4051  0.3168
  136OSM    C8F14849   1.266   5.676   5.443  0.8379 -0.6557 -0.3475
  136OSM    H8F14850   1.287   5.775   5.398 -2.8650  0.3600 -0.1080
  136OSM    H8G14851   1.210   5.620   5.365 -1.7199  0.6687  0.4429
  136OSM    C9F14852   1.403   5.624   5.445  0.1796  0.3395  0.1320
  136OSM    H9F14853   1.475   5.689   5.497  2.6155 -3.5514  2.0770
  136OSM   C10F14854   1.446   5.499   5.415 -0.8368 -0.0913  0.5935
  136OSM   H10F14855   1.553   5.475   5.416 -0.3604  1.6127 -1.5927
  136OSM   C11F14856   1.355   5.385   5.362  0.0068 -0.3355  0.3246
  136OSM   H11F14857   1.247   5.408   5.352 -0.4067 -1.9623  0.8235
  136OSM   H11G14858   1.358   5.308   5.442 -1.5011 -0.7831 -0.0177
  136OSM   C12F14859   1.407   5.333   5.229  0.2370 -0.2737 -0.4306
  136OSM   H12F14860   1.339   5.247   5.211 -1.2859  1.0543 -1.1471
  136OSM   H12G14861   1.514   5.303   5.231  0.7243  1.1564 -2.6120
  136OSM   C13F14862   1.393   5.441   5.120 -0.3533  0.0876 -0.7118
  136OSM   H13F14863   1.458   5.403   5.039 -0.6276 -0.4736 -0.6742
  136OSM   H13G14864   1.412   5.549   5.140  2.4288 -0.2204 -1.2016
  136OSM   C14F14865   1.256   5.441   5.065  0.3546  0.1736  0.2620
  136OSM   H14F14866   1.191   5.498   5.135  0.0250 -2.2933  2.1347
  136OSM   H14G14867   1.202   5.344   5.056 -0.9778  0.8562  0.5631
  136OSM   C15F14868   1.240   5.503   4.924  0.0882 -0.3860  0.0063
  136OSM   H15F14869   1.290   5.602   4.912  0.3052 -0.1606  2.2707
  136OSM   H15G14870   1.131   5.510   4.905  0.1571  1.6173  0.0905
  136OSM   C16F14871   1.285   5.397   4.820 -0.2615  0.0372  0.6289
  136OSM   H16F14872   1.214   5.311   4.819 -0.5647  0.2603 -1.1312
  136OSM   H16G14873   1.390   5.372   4.846 -0.6696 -2.8692 -0.1633
  136OSM   C17F14874   1.290   5.463   4.682 -0.1318  0.3486  0.0647
  136OSM   H17F14875   1.317   5.398   4.596 -0.5129  0.8232 -0.4243
  136OSM   H17G14876   1.371   5.539   4.679  0.1150  0.0784 -2.3642
  136OSM   C18F14877   1.157   5.525   4.635  0.1486 -0.1033 -0.0109
  136OSM   H18F14878   1.093   5.585   4.704 -1.7994 -0.1296 -1.7046
  136OSM   H18G14879   1.101   5.435   4.601 -0.0671 -0.3773  1.0387
  136OSM   H18H14880   1.166   5.592   4.547  2.3837  1.1266  1.0938
  137OSM      N14881   2.454   6.123   7.002 -0.0722  0.5683 -0.3182
  137OSM    C1514882   2.308   6.127   6.998  0.7613  0.0553 -0.4214
  137OSM   H15A14883   2.274   6.199   6.925  0.4405  0.1290 -0.2042
  137OSM   H15B14884   2.271   6.156   7.095  0.2440  0.8874 -0.8580
  137OSM   H15C14885   2.260   6.037   6.963  1.9642 -0.3175 -1.1745
  137OSM    C1414886   2.509   6.142   6.864 -0.5688 -0.0123  0.1896
  137OSM   H14A14887   2.464   6.233   6.826 -1.5362 -0.3018  0.6255
  137OSM   H14B14888   2.487   6.056   6.803 -0.4055 -0.3917  0.6648
  137OSM   H14C14889   2.615   6.156   6.881 -0.6698 -0.6333  1.4261
  137OSM    C1314890   2.493   6.235   7.097  0.5917  0.2581 -0.7707
  137OSM   H13A14891   2.600   6.238   7.109  0.4259 -0.1815  1.0098
  137OSM   H13B14892   2.435   6.234   7.188 -1.1573  0.9116 -1.8303
  137OSM   H13C14893   2.448   6.325   7.059  0.5620 -0.1754 -1.7963
  137OSM    C1214894   2.497   5.998   7.068  0.0317 -0.0913 -0.1370
  137OSM   H12A14895   2.468   5.916   7.004 -1.7967  1.1222 -0.9583
  137OSM   H12B14896   2.444   5.983   7.161 -0.4827  1.1208 -0.2174
  137OSM    C1114897   2.648   5.989   7.105 -0.5028 -0.0333 -0.0129
  137OSM   H11A14898   2.649   5.894   7.162 -2.8367  0.8921  1.7499
  137OSM   H11B14899   2.677   6.074   7.171 -0.3921  0.9677 -1.3034
  137OSM      P14900   2.874   6.045   6.991 -0.2634 -0.0865 -0.2431
  137OSM    O1314901   2.866   6.180   7.044  0.5876  0.1604 -0.1248
  137OSM    O1414902   2.961   5.947   7.064 -0.2682 -0.7155 -0.1103
  137OSM    O1114903   2.918   6.059   6.834  0.1086  0.3774 -0.6271
  137OSM    O1214904   2.728   5.987   6.985  0.3970 -0.4518 -0.0793
  137OSM    C1S14905   2.848   6.012   6.723  0.3567 -0.7151 -0.8500
  137OSM    H1S14906   2.762   6.079   6.704 -0.8077 -2.5279 -2.4553
  137OSM    H1T14907   2.795   5.916   6.741 -0.8547  0.0247 -0.3469
  137OSM     NF14908   2.860   5.995   6.476 -0.0649 -0.3227 -0.2632
  137OSM    HNF14909   2.844   5.899   6.456 -0.2105 -0.9504  2.4277
  137OSM    C2S14910   2.940   6.019   6.597  0.0817 -0.5862  0.1927
  137OSM    H2S14911   2.983   6.121   6.601  1.0286 -0.9907  2.9157
  137OSM    C3S14912   3.058   5.921   6.613  0.0788 -0.1235 -0.0034
  137OSM    H3S14913   3.025   5.816   6.607 -1.3754  0.3563 -1.0346
  137OSM     O314914   3.127   5.936   6.735  0.1901  0.4081 -0.8214
  137OSM    HO314915   3.062   5.981   6.789  0.2607  0.5281 -0.8362
  137OSM    C4S14916   3.147   5.952   6.494  0.2845 -0.9257  0.1466
  137OSM    H4S14917   3.196   6.049   6.506 -1.3691  0.1391 -1.1464
  137OSM    C5S14918   3.167   5.867   6.384 -0.0265 -0.1687 -0.1289
  137OSM    H5S14919   3.126   5.768   6.363  1.1665 -0.7665  0.2777
  137OSM    C6S14920   3.262   5.917   6.279 -0.4279 -0.6301 -0.7083
  137OSM    H6S14921   3.357   5.859   6.278 -0.7032 -1.0815 -1.1069
  137OSM    H6T14922   3.287   6.022   6.307  0.5156 -1.4849  1.9827
  137OSM    C7S14923   3.197   5.897   6.146  0.3694  0.1942  0.3553
  137OSM    H7S14924   3.115   5.972   6.133  1.2337  0.7433 -2.6406
  137OSM    H7T14925   3.154   5.796   6.127  0.5683  0.1748 -0.0001
  137OSM    C8S14926   3.292   5.925   6.028 -0.3201  0.4319 -0.2344
  137OSM    H8S14927   3.358   5.837   6.021  0.3712  0.9947 -1.0853
  137OSM    H8T14928   3.353   6.013   6.058 -0.2673  0.1744  0.4376
  137OSM    C9S14929   3.216   5.951   5.895 -0.3235 -0.0975  0.0079
  137OSM    H9S14930   3.171   6.052   5.906 -0.1737 -0.0811  0.4957
  137OSM    H9T14931   3.138   5.872   5.888  0.4323 -0.8218 -0.4105
  137OSM   C10S14932   3.318   5.939   5.780 -0.1544  0.0823 -0.0909
  137OSM   H10S14933   3.356   5.834   5.781 -1.1120 -0.2745  1.4431
  137OSM   H10T14934   3.404   6.004   5.804  0.9231 -0.7336 -1.5434
  137OSM   C11S14935   3.254   5.979   5.647 -0.3394  0.2907  0.3809
  137OSM   H11S14936   3.243   6.089   5.648  1.1600  0.4573  1.3050
  137OSM   H11T14937   3.158   5.924   5.637  1.0606 -2.2538  0.0929
  137OSM   C12S14938   3.349   5.938   5.532  0.0833 -0.4686 -0.0834
  137OSM   H12S14939   3.363   5.828   5.524 -1.5637 -0.5922 -2.5278
  137OSM   H12T14940   3.443   5.987   5.567  0.1015  0.3786 -1.2575
  137OSM   C13S14941   3.293   5.994   5.401  0.0864  0.7534  0.7488
  137OSM   H13S14942   3.283   6.104   5.407  3.1526  1.1383  0.3315
  137OSM   H13T14943   3.195   5.942   5.397  0.9826 -1.1659  1.8161
  137OSM   C14S14944   3.385   5.962   5.280 -0.8556 -0.0186 -0.5100
  137OSM   H14S14945   3.485   5.958   5.328 -0.1205 -2.9578 -2.0059
  137OSM   H14T14946   3.383   6.047   5.209 -1.1503  1.6362  1.3964
  137OSM   C15S14947   3.361   5.829   5.214 -0.6323 -0.0387  0.3246
  137OSM   H15S14948   3.360   5.744   5.287 -2.7287 -0.4626 -0.1308
  137OSM   H15T14949   3.443   5.799   5.145 -2.0928 -1.1355 -1.0119
  137OSM   C16S14950   3.219   5.834   5.150  0.2617  0.0174 -0.4341
  137OSM   H16S14951   3.216   5.918   5.077 -0.4178  0.6704  0.3182
  137OSM   H16T14952   3.134   5.854   5.220 -1.3960 -0.1697 -2.3030
  137OSM   C17S14953   3.181   5.702   5.075 -0.3466 -0.8156 -0.4917
  137OSM   H17S14954   3.135   5.628   5.143 -0.5080  0.3623  0.7173
  137OSM   H17T14955   3.274   5.671   5.022 -1.3117 -0.2639 -2.6203
  137OSM   C18S14956   3.081   5.725   4.958 -0.2333  0.0417 -0.1397
  137OSM   H18S14957   3.105   5.813   4.894 -2.4885  1.1562  0.4458
  137OSM   H18T14958   2.983   5.748   5.004  1.7295  2.2453  3.5166
  137OSM   H18U14959   3.072   5.634   4.896 -3.4574 -0.8450  1.3983
  137OSM    C1F14960   2.770   6.090   6.428  0.2809  0.4337  0.2884
  137OSM     OF14961   2.744   6.192   6.489  0.5506 -0.1321 -0.7399
  137OSM    C2F14962   2.684   6.052   6.309 -0.1120  0.4575  0.2492
  137OSM    H2F14963   2.616   6.137   6.288 -0.5474  0.5123  1.8221
  137OSM    H2G14964   2.625   5.961   6.335  1.0700 -0.4814 -0.2104
  137OSM    C3F14965   2.779   6.023   6.191 -0.3286 -0.0118 -0.1436
  137OSM    H3F14966   2.845   5.934   6.193  1.9653  1.4918 -2.1284
  137OSM    H3G14967   2.858   6.101   6.177  1.5649 -1.8662 -0.3188
  137OSM    C4F14968   2.707   5.992   6.055  0.3961 -0.7845 -0.2431
  137OSM    H4F14969   2.774   5.989   5.966  1.2101 -0.1947  0.3347
  137OSM    H4G14970   2.643   6.081   6.036 -0.0797 -1.6061 -3.0419
  137OSM    C5F14971   2.620   5.867   6.044  0.2536 -0.2398 -0.3283
  137OSM    H5F14972   2.530   5.879   6.109  1.0483  0.3879  0.6908
  137OSM    H5G14973   2.680   5.791   6.097 -1.7355 -0.8846  1.1310
  137OSM    C6F14974   2.591   5.825   5.904  0.4668  0.2409 -0.0887
  137OSM    H6F14975   2.681   5.816   5.839  0.1978 -0.2169 -0.4087
  137OSM    H6G14976   2.527   5.901   5.854  0.6713  1.3013  1.2119
  137OSM    C7F14977   2.513   5.689   5.899 -0.2201 -0.1178  0.3634
  137OSM    H7F14978   2.437   5.686   5.981 -1.0655  0.8423 -0.3611
  137OSM    H7G14979   2.591   5.619   5.935 -0.2070 -1.1580 -1.5542
  137OSM    C8F14980   2.461   5.650   5.757  0.0374  0.4893 -0.6535
  137OSM    H8F14981   2.431   5.543   5.763  1.9588 -0.0658 -0.0113
  137OSM    H8G14982   2.557   5.661   5.701  0.9292  0.5133  0.8066
  137OSM    C9F14983   2.342   5.721   5.702  0.2567  0.5419 -0.4206
  137OSM    H9F14984   2.261   5.733   5.775  0.3114  0.8846 -0.4175
  137OSM   C10F14985   2.338   5.774   5.575  0.7048  0.6520  0.2447
  137OSM   H10F14986   2.241   5.814   5.543 -0.5025  0.1615  3.0190
  137OSM   C11F14987   2.430   5.742   5.466 -0.3441 -0.0245  0.3055
  137OSM   H11F14988   2.495   5.654   5.487  0.1253  0.5964  1.5996
  137OSM   H11G14989   2.501   5.826   5.449  0.6473 -0.7627  0.6921
  137OSM   C12F14990   2.360   5.720   5.336  0.0597 -0.1676  1.0705
  137OSM   H12F14991   2.264   5.775   5.321  0.9349  0.6549 -2.8524
  137OSM   H12G14992   2.328   5.614   5.337  2.2438 -0.8695  0.9638
  137OSM   C13F14993   2.445   5.730   5.202  0.1532  0.6277  0.5932
  137OSM   H13F14994   2.500   5.634   5.192  1.5250  1.4213  0.1540
  137OSM   H13G14995   2.524   5.807   5.220  0.6289  0.3228 -0.1570
  137OSM   C14F14996   2.363   5.761   5.076  0.0988  0.1061 -0.2970
  137OSM   H14F14997   2.323   5.864   5.093 -0.4333 -0.5661  3.4362
  137OSM   H14G14998   2.278   5.689   5.073  0.3336 -0.2375  0.7386
  137OSM   C15F14999   2.453   5.749   4.953 -0.7073 -0.1728  0.5829
  137OSM   H15F15000   2.518   5.660   4.963  1.8747  1.5546 -0.0837
  137OSM   H15G15001   2.528   5.831   4.951 -1.7027  0.7561 -0.8000
  137OSM   C16F15002   2.372   5.761   4.818 -0.0194 -0.7346  0.1457
  137OSM   H16F15003   2.279   5.701   4.820 -0.1997 -0.5197 -1.0693
  137OSM   H16G15004   2.439   5.735   4.734 -0.4077 -1.5092  0.0682
  137OSM   C17F15005   2.337   5.910   4.787 -1.0220 -0.8453  0.8606
  137OSM   H17F15006   2.440   5.948   4.803 -1.3748  0.4268  0.2355
  137OSM   H17G15007   2.270   5.956   4.864 -0.8879  1.0002 -0.0713
  137OSM   C18F15008   2.279   5.935   4.648 -0.1586 -0.0247  0.6269
  137OSM   H18F15009   2.180   5.892   4.620 -0.2746 -0.4473  1.6357
  137OSM   H18G15010   2.355   5.901   4.575 -0.1983  1.4252 -0.1218
  137OSM   H18H15011   2.289   6.044   4.633 -0.5895  0.2222  1.9954
  138OSM      N15012   4.841   4.898   6.751 -0.3204 -0.0702 -1.0272
  138OSM    C1515013   4.701   4.909   6.804  0.2362 -0.5333 -0.2869
  138OSM   H15A15014   4.687   4.991   6.872 -0.7643 -0.8770 -0.0597
  138OSM   H15B15015   4.681   4.824   6.867 -1.6408  0.0348 -0.0664
  138OSM   H15C15016   4.631   4.903   6.722 -0.2418 -0.5536  0.1218
  138OSM    C1415017   4.877   4.753   6.749  0.0327  0.2970  0.6898
  138OSM   H14A15018   4.808   4.708   6.679 -1.3002  1.6588  1.0824
  138OSM   H14B15019   4.851   4.711   6.845 -3.4852 -0.6877 -0.5257
  138OSM   H14C15020   4.982   4.736   6.731  0.1804  1.3500  0.4708
  138OSM    C1315021   4.843   4.954   6.609 -0.4571 -0.6153 -0.8190
  138OSM   H13A15022   4.940   4.991   6.578 -0.2309 -0.6119 -0.1273
  138OSM   H13B15023   4.771   5.035   6.616  0.3158 -0.0262  1.5013
  138OSM   H13C15024   4.797   4.888   6.538 -2.7870  1.9508 -1.8964
  138OSM    C1215025   4.938   4.989   6.831  0.6507  0.5737 -0.6508
  138OSM   H12A15026   4.908   4.992   6.935  0.6691  2.7018 -0.6478
  138OSM   H12B15027   4.935   5.092   6.798 -1.9846  1.0093  0.6761
  138OSM    C1115028   5.089   4.953   6.831 -1.5237  0.1188 -0.0398
  138OSM   H11A15029   5.107   4.868   6.899 -3.6765 -1.9654 -1.8752
  138OSM   H11B15030   5.144   5.039   6.875  0.4842 -1.3355  0.4446
  138OSM      P15031   5.233   4.822   6.653 -0.5555  0.0066  0.4361
  138OSM    O1315032   5.344   4.843   6.744 -0.4421 -0.4876 -0.6665
  138OSM    O1415033   5.175   4.691   6.644  0.5089  0.5614 -0.3551
  138OSM    O1115034   5.277   4.878   6.506  0.8245  0.3027 -0.0740
  138OSM    O1215035   5.125   4.925   6.693  0.5059 -0.6703  0.1654
  138OSM    C1S15036   5.258   5.019   6.480  0.1741  0.0723 -0.6906
  138OSM    H1S15037   5.347   5.074   6.519 -0.7338  0.8263  0.3958
  138OSM    H1T15038   5.164   5.063   6.521  0.8840 -0.0453  1.1998
  138OSM     NF15039   5.300   5.174   6.291 -0.1771  0.2326  0.4011
  138OSM    HNF15040   5.224   5.236   6.273 -0.2047  0.0454 -0.1390
  138OSM    C2S15041   5.254   5.041   6.328 -1.0771  0.2842  0.2367
  138OSM    H2S15042   5.332   4.973   6.288 -0.4426  0.6614  0.8136
  138OSM    C3S15043   5.126   4.996   6.262 -0.0922 -0.0768  0.4208
  138OSM    H3S15044   5.053   5.077   6.281 -0.4338 -0.1198 -0.6227
  138OSM     O315045   5.057   4.885   6.324  0.0837  0.1275  0.2300
  138OSM    HO315046   5.105   4.863   6.405  0.9226 -0.1750 -0.3372
  138OSM    C4S15047   5.129   4.985   6.114 -0.5874  0.3467  0.2451
  138OSM    H4S15048   5.100   5.081   6.069 -0.9954 -0.4243 -1.1948
  138OSM    C5S15049   5.145   4.879   6.033  0.3184  0.3681 -0.1563
  138OSM    H5S15050   5.147   4.790   6.097  0.1213  0.8292  0.5001
  138OSM    C6S15051   5.135   4.850   5.889 -0.7895 -0.2502 -0.4311
  138OSM    H6S15052   5.075   4.757   5.878  1.5559 -1.9179 -0.1236
  138OSM    H6T15053   5.239   4.830   5.855  0.7206  0.4643  3.2661
  138OSM    C7S15054   5.074   4.969   5.819  0.1806  0.9960  0.1982
  138OSM    H7S15055   5.128   5.064   5.844  1.7327  0.3727 -0.6371
  138OSM    H7T15056   4.965   4.976   5.841  0.0904  2.1217 -0.4924
  138OSM    C8S15057   5.079   4.963   5.665 -0.4260 -0.6760  0.6961
  138OSM    H8S15058   5.009   5.037   5.620  1.4150  0.8605  0.1942
  138OSM    H8T15059   5.061   4.860   5.629  0.0386 -0.3720 -0.4508
  138OSM    C9S15060   5.217   4.999   5.602 -0.1814 -0.2764  0.2318
  138OSM    H9S15061   5.284   4.912   5.619 -0.1259 -0.6749 -1.7946
  138OSM    H9T15062   5.261   5.085   5.658 -0.5214 -0.5302  0.9018
  138OSM   C10S15063   5.204   5.040   5.451  0.0483  0.1736  0.5702
  138OSM   H10S15064   5.298   5.088   5.414 -1.2055  1.9777 -0.4645
  138OSM   H10T15065   5.135   5.127   5.444 -0.3222 -0.0689  1.1739
  138OSM   C11S15066   5.168   4.929   5.351  0.3217  0.1025 -0.0719
  138OSM   H11S15067   5.088   4.869   5.401  1.5440  0.7816  2.9022
  138OSM   H11T15068   5.260   4.868   5.344  0.2426 -0.0294  0.0233
  138OSM   C12S15069   5.112   4.990   5.219 -0.8119  0.1672  0.4667
  138OSM   H12S15070   5.193   5.051   5.173 -1.8830  0.6437 -0.8503
  138OSM   H12T15071   5.026   5.047   5.258  0.8109  1.7753  1.9054
  138OSM   C13S15072   5.064   4.891   5.110  0.2497 -0.2446  0.0819
  138OSM   H13S15073   5.047   4.963   5.027 -0.4005  0.2253  0.6171
  138OSM   H13T15074   4.969   4.845   5.144  0.9644 -2.5122 -0.8301
  138OSM   C14S15075   5.179   4.793   5.067  0.2405 -0.3293 -0.1432
  138OSM   H14S15076   5.210   4.730   5.153  0.6772 -0.0031 -0.0581
  138OSM   H14T15077   5.270   4.843   5.029  0.4112 -0.9050 -0.4995
  138OSM   C15S15078   5.134   4.697   4.948 -0.1020 -0.2751  0.0889
  138OSM   H15S15079   5.114   4.765   4.863  2.1112  2.9921  1.9776
  138OSM   H15T15080   5.045   4.636   4.975  0.3271 -0.5166  1.0088
  138OSM   C16S15081   5.248   4.602   4.900  0.0683  0.6490  0.3762
  138OSM   H16S15082   5.281   4.546   4.990  1.3321  1.1738  0.2486
  138OSM   H16T15083   5.333   4.668   4.876  0.0638  0.3897 -0.3581
  138OSM   C17S15084   5.204   4.500   4.789 -0.5283 -0.4835 -0.7241
  138OSM   H17S15085   5.180   4.563   4.700  0.9035  2.0006  0.5459
  138OSM   H17T15086   5.108   4.455   4.822 -0.8296  1.9057  2.0709
  138OSM   C18S15087   5.317   4.403   4.744  0.9801 -0.0829  0.3633
  138OSM   H18S15088   5.281   4.315   4.688  2.6683 -1.1101  0.8169
  138OSM   H18T15089   5.372   4.369   4.835 -0.0983  0.1581  1.1276
  138OSM   H18U15090   5.384   4.467   4.683  3.0802 -2.0590  0.4721
  138OSM    C1F15091   5.427   5.213   6.306  0.2547 -0.4687 -0.4296
  138OSM     OF15092   5.513   5.135   6.344  0.2951  0.3613 -0.3316
  138OSM    C2F15093   5.455   5.359   6.268  0.4138 -0.3188  0.5407
  138OSM    H2F15094   5.521   5.399   6.347  1.4912 -2.1474  0.6234
  138OSM    H2G15095   5.362   5.419   6.276 -0.2616 -1.3958  0.9636
  138OSM    C3F15096   5.513   5.375   6.128 -0.0626 -0.0812 -0.4256
  138OSM    H3F15097   5.592   5.297   6.121  0.3128  0.1591  0.8667
  138OSM    H3G15098   5.566   5.472   6.124  0.5518 -0.3181  1.1568
  138OSM    C4F15099   5.429   5.361   6.005 -0.1367  0.2179  0.3690
  138OSM    H4F15100   5.370   5.455   6.007 -0.6600 -0.1095  1.7427
  138OSM    H4G15101   5.364   5.272   6.013 -1.7420  1.3017 -0.1494
  138OSM    C5F15102   5.505   5.350   5.875 -0.1286  0.2985  0.4304
  138OSM    H5F15103   5.559   5.253   5.883  1.0158  0.8331 -0.7021
  138OSM    H5G15104   5.581   5.430   5.882 -0.7108  0.7697  1.6943
  138OSM    C6F15105   5.423   5.375   5.745 -0.7441 -0.3895  0.0893
  138OSM    H6F15106   5.378   5.477   5.746 -2.5132 -1.0888  2.7746
  138OSM    H6G15107   5.342   5.298   5.741 -0.6458 -0.4224 -2.0176
  138OSM    C7F15108   5.509   5.377   5.624 -0.3603  0.7235 -0.5446
  138OSM    H7F15109   5.564   5.282   5.609  0.6332  1.2996 -0.6653
  138OSM    H7G15110   5.595   5.446   5.639 -0.4001  0.6918 -0.1698
  138OSM    C8F15111   5.431   5.411   5.499 -0.1835  0.3366 -0.5041
  138OSM    H8F15112   5.393   5.514   5.516  0.3276  0.8201 -2.0992
  138OSM    H8G15113   5.343   5.348   5.472 -0.1038  0.5358 -1.2494
  138OSM    C9F15114   5.523   5.399   5.380 -0.7917  0.1407  0.4528
  138OSM    H9F15115   5.570   5.301   5.367 -1.5039 -0.0431 -0.9375
  138OSM   C10F15116   5.545   5.492   5.285 -0.3663  0.2250  0.3082
  138OSM   H10F15117   5.608   5.477   5.196  0.2840 -1.1284  0.9630
  138OSM   C11F15118   5.478   5.627   5.282 -0.1565  0.4967  0.2715
  138OSM   H11F15119   5.475   5.672   5.383 -1.3849 -1.1616  1.0072
  138OSM   H11G15120   5.371   5.619   5.252 -0.1573 -2.1616  0.7707
  138OSM   C12F15121   5.535   5.738   5.189 -0.3246  0.5180  0.3515
  138OSM   H12F15122   5.644   5.752   5.204  0.5489 -1.4892 -3.0289
  138OSM   H12G15123   5.474   5.828   5.210  0.4846  1.4991 -1.3200
  138OSM   C13F15124   5.524   5.706   5.037  0.4638 -0.3307  0.2373
  138OSM   H13F15125   5.425   5.657   5.024 -0.2909  0.5381  2.2376
  138OSM   H13G15126   5.597   5.631   5.000 -2.3292 -1.0747 -4.5458
  138OSM   C14F15127   5.525   5.829   4.945 -0.1132 -0.5197  0.7988
  138OSM   H14F15128   5.627   5.865   4.971 -1.2146  0.9636  3.4679
  138OSM   H14G15129   5.449   5.904   4.977  1.9885  1.5195  1.3004
  138OSM   C15F15130   5.500   5.797   4.799 -0.2659  0.0631  0.2904
  138OSM   H15F15131   5.402   5.746   4.792 -0.6975  1.0325 -1.0718
  138OSM   H15G15132   5.580   5.731   4.760 -0.4452 -0.4116  0.7063
  138OSM   C16F15133   5.487   5.932   4.716 -0.4751  0.4679  0.9988
  138OSM   H16F15134   5.580   5.990   4.735 -0.0505  0.2435 -0.2783
  138OSM   H16G15135   5.399   5.988   4.752 -1.0691 -0.3606  0.8582
  138OSM   C17F15136   5.464   5.915   4.561  0.5983 -0.4948  0.2138
  138OSM   H17F15137   5.389   5.994   4.540  0.1276 -1.5004 -2.3541
  138OSM   H17G15138   5.419   5.815   4.540  1.6712 -0.6057 -1.8896
  138OSM   C18F15139   5.580   5.947   4.463 -0.7726  0.3191 -0.1687
  138OSM   H18F15140   5.662   5.872   4.468 -0.7928 -0.0334 -3.2877
  138OSM   H18G15141   5.619   6.049   4.483  0.3782 -0.1328  0.0010
  138OSM   H18H15142   5.542   5.946   4.359 -1.2297 -1.7330 -0.0406
  139OSM      N15143   0.369   1.670   6.992 -0.5240  0.7275  0.2032
  139OSM    C1515144   0.420   1.791   6.918 -0.9258 -0.7510  0.1509
  139OSM   H15A15145   0.374   1.821   6.825  0.3457  0.2519 -0.1911
  139OSM   H15B15146   0.520   1.775   6.879 -1.0521  0.8689 -0.9488
  139OSM   H15C15147   0.428   1.876   6.983 -1.6170 -0.2291 -0.4266
  139OSM    C1415148   0.479   1.608   7.077 -0.1936  0.1385 -0.3385
  139OSM   H14A15149   0.575   1.608   7.027  0.2871  1.7483  0.5220
  139OSM   H14B15150   0.461   1.505   7.102  0.4843  0.5130  1.8668
  139OSM   H14C15151   0.488   1.651   7.175 -0.8487  0.5475 -0.4502
  139OSM    C1315152   0.248   1.709   7.081  0.0054 -0.4263  0.3226
  139OSM   H13A15153   0.172   1.746   7.014  0.6716 -1.0863 -0.8288
  139OSM   H13B15154   0.269   1.789   7.152 -1.0442 -1.5546  1.9842
  139OSM   H13C15155   0.214   1.618   7.128  0.0914 -0.1039  1.0285
  139OSM    C1215156   0.319   1.560   6.903 -0.0084 -0.5423  0.3647
  139OSM   H12A15157   0.291   1.473   6.960  1.9805 -1.3790  0.1636
  139OSM   H12B15158   0.395   1.528   6.833 -0.9772 -1.1541 -0.4327
  139OSM    C1115159   0.202   1.596   6.803 -0.7542 -0.2642 -0.8201
  139OSM   H11A15160   0.228   1.672   6.726 -0.9348 -0.6806 -1.2969
  139OSM   H11B15161   0.111   1.633   6.855 -1.7541 -0.8137 -2.1306
  139OSM      P15162   0.261   1.398   6.636  0.0896 -0.0761 -0.4806
  139OSM    O1315163   0.405   1.448   6.642 -0.4234  0.2035  0.7934
  139OSM    O1415164   0.245   1.256   6.662  0.2264  0.3483 -0.1492
  139OSM    O1115165   0.190   1.436   6.506 -0.3279 -0.1133  0.5630
  139OSM    O1215166   0.157   1.478   6.742 -0.6896  0.2213 -0.1891
  139OSM    C1S15167   0.061   1.485   6.484 -0.4405 -0.1517  0.4890
  139OSM    H1S15168   0.045   1.586   6.529 -0.8915 -0.4722  1.0601
  139OSM    H1T15169  -0.010   1.411   6.527 -0.2466 -1.1764 -0.9053
  139OSM     NF15170  -0.105   1.573   6.312 -0.2365  0.4457 -0.5653
  139OSM    HNF15171  -0.183   1.532   6.265  1.1336 -2.4134 -0.5093
  139OSM    C2S15172   0.015   1.489   6.338  0.5950 -0.9045  0.4431
  139OSM    H2S15173   0.094   1.541   6.279 -1.2672 -1.6360 -2.9172
  139OSM    C3S15174  -0.005   1.346   6.288  0.1906 -0.6897  0.4468
  139OSM    H3S15175  -0.098   1.305   6.334  0.4250 -1.2535  0.4310
  139OSM     O315176   0.083   1.236   6.326  0.4534  0.2039 -0.4251
  139OSM    HO315177   0.137   1.279   6.393  0.1913 -0.6265  0.3413
  139OSM    C4S15178  -0.029   1.360   6.132 -0.0904  0.5080  0.7488
  139OSM    H4S15179  -0.131   1.371   6.093 -0.8685 -0.1724  2.4689
  139OSM    C5S15180   0.073   1.335   6.045 -0.1806  0.1332 -0.3841
  139OSM    H5S15181   0.164   1.289   6.087  0.7094  0.6683 -1.6772
  139OSM    C6S15182   0.062   1.331   5.896 -0.2628  0.4293  0.6063
  139OSM    H6S15183   0.069   1.227   5.860  2.9365  0.8747 -0.3599
  139OSM    H6T15184   0.157   1.376   5.859 -2.1836  3.4001 -1.1680
  139OSM    C7S15185  -0.046   1.411   5.830 -0.3982 -0.1136 -0.5310
  139OSM    H7S15186  -0.038   1.521   5.846  1.9720  0.0279 -2.2361
  139OSM    H7T15187  -0.146   1.378   5.868 -0.6655  1.3672  0.1376
  139OSM    C8S15188  -0.049   1.384   5.673  0.2004 -0.0328  0.2262
  139OSM    H8S15189  -0.075   1.278   5.653  0.6638 -0.3149  1.0754
  139OSM    H8T15190   0.052   1.405   5.634 -0.9403  1.9818 -1.9119
  139OSM    C9S15191  -0.140   1.482   5.585 -0.3698 -0.2544 -0.0365
  139OSM    H9S15192  -0.127   1.590   5.605 -1.2473  0.3461 -2.3588
  139OSM    H9T15193  -0.243   1.443   5.598 -1.7461  3.0557 -0.1727
  139OSM   C10S15194  -0.127   1.455   5.436 -0.3234  0.2174  0.4693
  139OSM   H10S15195  -0.141   1.346   5.419  2.4366  0.0849 -1.5256
  139OSM   H10T15196  -0.022   1.477   5.407  0.6895 -1.7922  2.2836
  139OSM   C11S15197  -0.221   1.523   5.332 -0.4566  0.0191 -0.1024
  139OSM   H11S15198  -0.237   1.629   5.362  0.9336  0.6162 -1.3637
  139OSM   H11T15199  -0.322   1.477   5.334 -1.1428  1.4447 -0.6407
  139OSM   C12S15200  -0.157   1.494   5.193 -0.6616  0.6530 -0.1844
  139OSM   H12S15201  -0.123   1.389   5.185 -1.3250  0.4703 -0.6454
  139OSM   H12T15202  -0.062   1.553   5.189  1.3088 -2.3212 -0.8115
  139OSM   C13S15203  -0.246   1.535   5.081 -0.0681  0.5914 -0.1793
  139OSM   H13S15204  -0.308   1.622   5.111 -0.1224  0.9201 -1.2106
  139OSM   H13T15205  -0.323   1.456   5.065 -1.0982  1.4175  0.5057
  139OSM   C14S15206  -0.164   1.560   4.951 -0.0962 -0.3408  0.3169
  139OSM   H14S15207  -0.080   1.488   4.940 -2.3792 -3.1057 -0.2399
  139OSM   H14T15208  -0.126   1.664   4.965 -1.6474  0.2806  0.0830
  139OSM   C15S15209  -0.250   1.544   4.825  0.0719 -0.0215 -0.6250
  139OSM   H15S15210  -0.336   1.606   4.855  1.3240  0.8480  1.3304
  139OSM   H15T15211  -0.292   1.442   4.816  2.3671 -1.1234  0.3144
  139OSM   C16S15212  -0.176   1.585   4.691 -0.3560 -0.3891 -0.2035
  139OSM   H16S15213  -0.112   1.673   4.709  2.6153 -2.2349 -1.0886
  139OSM   H16T15214  -0.261   1.628   4.633 -2.2842 -2.5624  0.8166
  139OSM   C17S15215  -0.090   1.476   4.633 -0.2711  0.7470  0.2852
  139OSM   H17S15216  -0.152   1.384   4.635  1.2740 -0.4940 -2.3476
  139OSM   H17T15217  -0.004   1.452   4.700 -0.6002 -1.2255  0.0632
  139OSM   C18S15218  -0.048   1.507   4.490  0.3414  1.1744 -0.4922
  139OSM   H18S15219   0.001   1.607   4.484  0.0749  1.4823  1.5856
  139OSM   H18T15220  -0.140   1.517   4.430 -0.7519  0.3234  0.9775
  139OSM   H18U15221   0.010   1.419   4.454  1.5819  1.7845 -0.0697
  139OSM    C1F15222  -0.094   1.705   6.331 -0.4190 -0.6409 -0.0280
  139OSM     OF15223   0.017   1.755   6.365  0.3219 -0.1858  0.7812
  139OSM    C2F15224  -0.214   1.795   6.316  0.0605  0.1777  0.1637
  139OSM    H2F15225  -0.218   1.866   6.402 -1.1167  0.0822  0.1967
  139OSM    H2G15226  -0.301   1.726   6.310  0.4096 -0.6122  2.6771
  139OSM    C3F15227  -0.191   1.879   6.185  0.5913  0.0400 -0.2726
  139OSM    H3F15228  -0.122   1.963   6.208 -0.6905  0.6629  1.5016
  139OSM    H3G15229  -0.291   1.924   6.165 -0.5699 -2.1711  0.1633
  139OSM    C4F15230  -0.154   1.794   6.063 -0.0443 -0.1898  0.2894
  139OSM    H4F15231  -0.058   1.740   6.079  0.6647  0.3619 -1.7595
  139OSM    H4G15232  -0.116   1.864   5.985  0.0347  1.4085  1.6986
  139OSM    C5F15233  -0.275   1.716   6.017 -0.5624  0.0694  0.0791
  139OSM    H5F15234  -0.320   1.658   6.100 -0.6369  0.6762  0.4706
  139OSM    H5G15235  -0.239   1.634   5.950  1.6561 -1.2761  2.7227
  139OSM    C6F15236  -0.374   1.799   5.942  0.4491  0.3445  0.5981
  139OSM    H6F15237  -0.332   1.866   5.864 -1.0116  2.5706  1.6352
  139OSM    H6G15238  -0.438   1.858   6.011 -2.2230 -0.2979 -1.1894
  139OSM    C7F15239  -0.472   1.703   5.869 -0.7531  0.0185 -0.7563
  139OSM    H7F15240  -0.525   1.640   5.944  0.7071 -1.4019 -0.8523
  139OSM    H7G15241  -0.414   1.629   5.811 -1.4124 -1.0471 -0.0954
  139OSM    C8F15242  -0.588   1.775   5.796 -0.6853  0.0678 -0.1032
  139OSM    H8F15243  -0.541   1.832   5.713  0.7253 -0.2938  0.4220
  139OSM    H8G15244  -0.638   1.845   5.866 -1.0298 -1.5684  1.3593
  139OSM    C9F15245  -0.692   1.684   5.741  0.9552  0.1673  0.5260
  139OSM    H9F15246  -0.792   1.698   5.785  0.6528  0.1837 -0.1468
  139OSM   C10F15247  -0.689   1.595   5.633 -0.6006 -0.3696 -0.0377
  139OSM   H10F15248  -0.779   1.537   5.607 -1.1081  1.4030 -2.6335
  139OSM   C11F15249  -0.553   1.560   5.556  0.9671  0.1195 -0.6119
  139OSM   H11F15250  -0.556   1.450   5.541 -1.2738 -0.1487  1.2171
  139OSM   H11G15251  -0.467   1.579   5.624  0.8137  0.0016 -0.3857
  139OSM   C12F15252  -0.547   1.625   5.418  1.2918 -0.3026  0.4829
  139OSM   H12F15253  -0.444   1.643   5.380  0.4530  2.2873 -0.8100
  139OSM   H12G15254  -0.593   1.725   5.425  0.6424 -0.7132  2.9359
  139OSM   C13F15255  -0.630   1.549   5.309  0.2791  0.1696 -0.6885
  139OSM   H13F15256  -0.727   1.538   5.362  0.1400  1.6773 -0.5641
  139OSM   H13G15257  -0.574   1.454   5.299 -0.5954 -0.2791 -1.3757
  139OSM   C14F15258  -0.638   1.634   5.180  0.1364  0.3354 -0.0569
  139OSM   H14F15259  -0.546   1.625   5.119  0.5393 -1.6510  0.7836
  139OSM   H14G15260  -0.658   1.737   5.217  0.5439 -0.3547  2.2690
  139OSM   C15F15261  -0.759   1.602   5.085  0.2420 -0.2185 -0.1752
  139OSM   H15F15262  -0.813   1.693   5.053  1.4785  0.4940 -0.3069
  139OSM   H15G15263  -0.836   1.540   5.136 -1.7449  2.3651  0.1263
  139OSM   C16F15264  -0.716   1.545   4.944 -0.7943  0.5934  0.2881
  139OSM   H16F15265  -0.629   1.602   4.903 -0.2728 -0.8805 -0.7198
  139OSM   H16G15266  -0.796   1.557   4.869  0.1369 -0.3096 -0.8824
  139OSM   C17F15267  -0.670   1.398   4.967 -0.4220 -0.2641  0.7159
  139OSM   H17F15268  -0.750   1.349   5.026  0.3965  0.9568  2.9419
  139OSM   H17G15269  -0.576   1.406   5.026  0.9778 -0.4188 -1.3945
  139OSM   C18F15270  -0.639   1.318   4.836 -0.4999  0.4730 -0.3710
  139OSM   H18F15271  -0.565   1.371   4.771  0.3872  1.6768  1.5289
  139OSM   H18G15272  -0.738   1.312   4.786 -1.2580 -1.1240  1.2381
  139OSM   H18H15273  -0.610   1.214   4.862 -1.2560  0.6779  1.3646
  140OSM      N15274   3.391   6.539   6.878  0.2435  0.3847 -0.0091
  140OSM    C1515275   3.415   6.651   6.973 -0.1297  0.6057 -0.1584
  140OSM   H15A15276   3.321   6.703   6.981  0.3035  1.6614 -1.6156
  140OSM   H15B15277   3.473   6.733   6.935 -1.7947  1.0119 -1.9495
  140OSM   H15C15278   3.448   6.614   7.069 -1.3761 -2.2162 -0.7085
  140OSM    C1415279   3.516   6.460   6.862 -0.1920 -0.6954 -1.0424
  140OSM   H14A15280   3.494   6.370   6.806  3.4965 -0.9913 -2.3637
  140OSM   H14B15281   3.562   6.429   6.955  1.5814  2.4724 -0.7132
  140OSM   H14C15282   3.580   6.521   6.799  0.0806  1.3312  1.0625
  140OSM    C1315283   3.288   6.449   6.935  0.2176  0.0697 -0.0366
  140OSM   H13A15284   3.310   6.405   7.032  0.3704  2.9857  1.3631
  140OSM   H13B15285   3.269   6.375   6.859 -0.4068  2.0380 -1.8861
  140OSM   H13C15286   3.193   6.499   6.947 -1.5880 -3.1418  0.2540
  140OSM    C1215287   3.347   6.581   6.739 -0.8038 -0.4530  0.0710
  140OSM   H12A15288   3.262   6.645   6.760 -1.6995 -1.3990 -0.5838
  140OSM   H12B15289   3.311   6.498   6.680  0.4316 -0.3087 -0.9213
  140OSM    C1115290   3.441   6.665   6.652  0.0912  0.2559 -0.3798
  140OSM   H11A15291   3.385   6.703   6.564  1.4966  0.2863 -1.2959
  140OSM   H11B15292   3.508   6.586   6.612  1.1236  0.2912  1.1936
  140OSM      P15293   3.636   6.831   6.683 -0.2611 -0.0732 -0.1713
  140OSM    O1315294   3.639   6.973   6.724  0.0208 -0.6238  0.9758
  140OSM    O1415295   3.748   6.742   6.713 -0.5786 -0.7097  0.0813
  140OSM    O1115296   3.610   6.816   6.530 -0.6386 -0.8022  0.1207
  140OSM    O1215297   3.503   6.773   6.733  0.3848 -0.3824 -0.1549
  140OSM    C1S15298   3.537   6.916   6.455  0.0409 -0.7220 -0.6932
  140OSM    H1S15299   3.576   7.019   6.476  0.5897 -0.8835 -0.8881
  140OSM    H1T15300   3.432   6.921   6.490  1.1587  1.1315  2.8569
  140OSM     NF15301   3.479   7.013   6.237  0.4513  0.5297  0.3658
  140OSM    HNF15302   3.396   6.989   6.187  1.9223  0.5007 -2.2120
  140OSM    C2S15303   3.548   6.900   6.302  0.2851 -0.7124 -0.0944
  140OSM    H2S15304   3.657   6.913   6.285  0.8460 -0.9999  2.8070
  140OSM    C3S15305   3.507   6.767   6.240 -0.8630  0.0881 -0.6100
  140OSM    H3S15306   3.398   6.756   6.257 -0.7634  1.6781  1.4141
  140OSM     O315307   3.558   6.650   6.305 -0.1514 -0.7780 -0.7291
  140OSM    HO315308   3.591   6.695   6.383 -3.4985  2.3101 -0.7750
  140OSM    C4S15309   3.527   6.762   6.096  0.9829 -0.6984  0.3321
  140OSM    H4S15310   3.426   6.765   6.050  0.4077 -1.4686  1.4968
  140OSM    C5S15311   3.632   6.722   6.024  0.6076 -0.0401 -0.3329
  140OSM    H5S15312   3.724   6.683   6.071  1.4382  0.3958 -1.5564
  140OSM    C6S15313   3.641   6.719   5.874  0.4070 -0.0886  0.0435
  140OSM    H6S15314   3.544   6.706   5.822  0.0517  0.8299  0.4470
  140OSM    H6T15315   3.692   6.624   5.849  1.3313  0.5113 -0.4040
  140OSM    C7S15316   3.711   6.852   5.826  0.0303  0.4334  0.2280
  140OSM    H7S15317   3.814   6.855   5.867  1.7369 -0.5950 -3.5552
  140OSM    H7T15318   3.651   6.941   5.855 -0.0732  0.3750  0.1911
  140OSM    C8S15319   3.735   6.856   5.671  0.0647  0.0761  0.4019
  140OSM    H8S15320   3.801   6.943   5.653 -0.1748  0.5990  1.9652
  140OSM    H8T15321   3.634   6.876   5.629 -1.1569 -2.8817  1.6221
  140OSM    C9S15322   3.803   6.727   5.616  0.2842 -0.0717  0.3419
  140OSM    H9S15323   3.728   6.645   5.607 -1.0469  1.0849  0.6760
  140OSM    H9T15324   3.875   6.697   5.695  1.3073 -0.8405 -0.8351
  140OSM   C10S15325   3.870   6.754   5.482 -0.5461 -0.1263 -0.1435
  140OSM   H10S15326   3.814   6.839   5.437  0.5492  0.5486 -0.2833
  140OSM   H10T15327   3.856   6.670   5.412 -1.1211 -1.0503  1.0428
  140OSM   C11S15328   4.020   6.792   5.493  0.2264  0.4216 -0.4556
  140OSM   H11S15329   4.071   6.693   5.484 -1.0817 -0.2749 -0.5644
  140OSM   H11T15330   4.048   6.851   5.582 -0.6199  1.0062 -0.5677
  140OSM   C12S15331   4.058   6.873   5.372  0.4236 -0.3580 -0.4202
  140OSM   H12S15332   4.161   6.915   5.375  1.2887 -2.4511  0.8357
  140OSM   H12T15333   3.987   6.959   5.373 -2.2923 -2.4905  0.6489
  140OSM   C13S15334   4.053   6.798   5.236 -0.2418  0.9496 -0.1230
  140OSM   H13S15335   3.951   6.760   5.214  0.6451 -2.2799  0.7872
  140OSM   H13T15336   4.125   6.716   5.219  3.2169  3.3784  1.6431
  140OSM   C14S15337   4.097   6.896   5.129  0.7110  0.9080  0.9396
  140OSM   H14S15338   4.206   6.915   5.137  1.1691 -1.9483  2.8254
  140OSM   H14T15339   4.051   6.997   5.141 -0.8232  0.4938 -1.0173
  140OSM   C15S15340   4.069   6.836   4.990  0.1898 -0.2470  0.0579
  140OSM   H15S15341   4.092   6.911   4.912  0.5691  2.0205  2.2416
  140OSM   H15T15342   3.962   6.811   4.975  0.6429 -1.8972 -0.7027
  140OSM   C16S15343   4.168   6.727   4.955  0.7178 -0.4501  0.3284
  140OSM   H16S15344   4.161   6.632   5.012  3.2185 -0.9505 -0.0792
  140OSM   H16T15345   4.260   6.779   4.992  0.4880 -0.2645  0.6434
  140OSM   C17S15346   4.169   6.677   4.805  0.3513  0.2214 -0.3862
  140OSM   H17S15347   4.212   6.763   4.750  0.3003  0.9857  0.7366
  140OSM   H17T15348   4.067   6.644   4.775  1.2830 -3.6519  0.2320
  140OSM   C18S15349   4.264   6.560   4.781 -0.0273 -0.0868  0.2544
  140OSM   H18S15350   4.258   6.527   4.675 -0.7494 -2.0184  0.8424
  140OSM   H18T15351   4.245   6.471   4.846 -0.9563  2.6487  4.0645
  140OSM   H18U15352   4.366   6.595   4.808  0.7879  1.1398 -3.7650
  140OSM    C1F15353   3.514   7.138   6.244 -0.4356  0.1694  0.0017
  140OSM     OF15354   3.612   7.171   6.310 -0.6768 -0.1419 -0.0554
  140OSM    C2F15355   3.430   7.243   6.178 -0.4804 -0.2626 -0.2127
  140OSM    H2F15356   3.497   7.331   6.168  0.2176 -0.5672  1.3862
  140OSM    H2G15357   3.359   7.270   6.259  0.1317  0.1431  0.2069
  140OSM    C3F15358   3.357   7.213   6.055  0.0578  0.0409  0.3640
  140OSM    H3F15359   3.303   7.307   6.030 -2.2453 -1.8616 -2.4087
  140OSM    H3G15360   3.274   7.145   6.084 -1.7711  0.8761 -2.5345
  140OSM    C4F15361   3.444   7.174   5.934  0.5246  0.1492 -0.1042
  140OSM    H4F15362   3.506   7.081   5.938 -0.7987 -0.7809 -0.6611
  140OSM    H4G15363   3.518   7.255   5.917 -0.3492  0.8393 -0.6814
  140OSM    C5F15364   3.360   7.161   5.812  0.3549  0.3303  0.0193
  140OSM    H5F15365   3.291   7.247   5.804 -1.2070 -0.8201  0.4893
  140OSM    H5G15366   3.282   7.082   5.815 -0.9175  1.5104 -0.7755
  140OSM    C6F15367   3.444   7.158   5.685  0.5688 -0.0010  0.1962
  140OSM    H6F15368   3.499   7.062   5.683 -2.1526 -1.7273  1.7347
  140OSM    H6G15369   3.499   7.255   5.683 -2.9794  2.1687 -0.8890
  140OSM    C7F15370   3.346   7.175   5.564  0.5615  0.5703 -0.7985
  140OSM    H7F15371   3.275   7.256   5.591  0.8536  0.4841  0.2801
  140OSM    H7G15372   3.291   7.079   5.555 -0.4981  0.8889  1.5343
  140OSM    C8F15373   3.431   7.203   5.440 -0.6323  0.2930  0.5640
  140OSM    H8F15374   3.489   7.297   5.445 -1.5411  0.8264  3.9706
  140OSM    H8G15375   3.363   7.213   5.352  0.3248 -1.1359 -0.3769
  140OSM    C9F15376   3.533   7.098   5.423  0.2193 -0.2561 -0.0984
  140OSM    H9F15377   3.629   7.122   5.472 -0.4234  3.1036 -0.2913
  140OSM   C10F15378   3.520   6.979   5.372 -0.3749  0.8397  0.0498
  140OSM   H10F15379   3.602   6.906   5.369 -1.1041 -0.0143  0.4450
  140OSM   C11F15380   3.389   6.925   5.325 -0.2151  0.2394 -0.2987
  140OSM   H11F15381   3.314   7.005   5.310  1.3988  2.2376  1.7267
  140OSM   H11G15382   3.338   6.850   5.390 -0.7243  0.3659 -0.5501
  140OSM   C12F15383   3.422   6.861   5.186  0.2501 -0.0936  0.1805
  140OSM   H12F15384   3.500   6.782   5.189  1.2689  0.8250 -1.2900
  140OSM   H12G15385   3.460   6.930   5.108  1.0433 -3.1864 -2.3927
  140OSM   C13F15386   3.309   6.777   5.124  0.3816  0.2217  0.3291
  140OSM   H13F15387   3.218   6.840   5.115 -0.1739 -0.6051  0.1571
  140OSM   H13G15388   3.284   6.688   5.185 -3.0262  1.0789  0.3773
  140OSM   C14F15389   3.339   6.729   4.983  0.3964 -0.3840 -0.0529
  140OSM   H14F15390   3.258   6.665   4.942  1.9227 -1.5144 -1.4125
  140OSM   H14G15391   3.429   6.666   4.992  1.1017  0.6600  0.4762
  140OSM   C15F15392   3.370   6.844   4.886 -1.2749  0.0302  0.1105
  140OSM   H15F15393   3.478   6.863   4.902 -1.5340  1.3014  0.4676
  140OSM   H15G15394   3.304   6.930   4.912 -0.1089  1.2993 -0.9702
  140OSM   C16F15395   3.342   6.801   4.741 -0.1302 -0.0755  0.2317
  140OSM   H16F15396   3.387   6.881   4.679  0.2220  0.0489  0.6424
  140OSM   H16G15397   3.234   6.805   4.717  0.1487 -1.0203 -1.2895
  140OSM   C17F15398   3.399   6.671   4.700 -0.1725 -0.1498 -0.3411
  140OSM   H17F15399   3.344   6.584   4.742  0.2356 -0.4039 -0.3200
  140OSM   H17G15400   3.507   6.655   4.722 -0.0774 -1.1686 -1.4118
  140OSM   C18F15401   3.392   6.654   4.543 -0.6654  0.0696 -0.8052
  140OSM   H18F15402   3.396   6.544   4.528 -1.5500 -0.3188  1.4320
  140OSM   H18G15403   3.475   6.703   4.489  0.0974 -2.6214 -2.2773
  140OSM   H18H15404   3.296   6.690   4.500 -1.7488  1.7070  2.6698
  141OSM      N15405   2.016   5.502   6.619  0.0408  0.2371 -0.3956
  141OSM    C1515406   1.944   5.414   6.522  0.1310  0.1499  1.4812
  141OSM   H15A15407   2.000   5.391   6.432 -2.5877 -0.4656 -0.1484
  141OSM   H15B15408   1.852   5.453   6.483  0.8971 -0.5637 -1.3084
  141OSM   H15C15409   1.923   5.314   6.558  1.1619 -0.5371  0.2955
  141OSM    C1415410   1.918   5.551   6.715 -0.0411  0.2755 -0.9000
  141OSM   H14A15411   1.835   5.605   6.673 -0.4377  1.4586  1.2587
  141OSM   H14B15412   1.959   5.615   6.791  0.9040 -3.0455  1.5859
  141OSM   H14C15413   1.884   5.464   6.769  2.4895  0.4208  1.0666
  141OSM    C1315414   2.125   5.418   6.687 -0.5559  0.5811 -0.2156
  141OSM   H13A15415   2.206   5.384   6.625  1.7499  0.4855  2.6037
  141OSM   H13B15416   2.087   5.323   6.722 -0.3515  1.0877  1.4957
  141OSM   H13C15417   2.171   5.464   6.773 -1.6218  0.4933  0.4232
  141OSM    C1215418   2.080   5.609   6.541  0.0633 -0.5193  0.4061
  141OSM   H12A15419   2.011   5.680   6.498  0.3850 -0.0812  0.6090
  141OSM   H12B15420   2.137   5.570   6.458 -0.7594 -0.6344 -0.1199
  141OSM    C1115421   2.192   5.694   6.614 -0.4709  0.6192 -0.4424
  141OSM   H11A15422   2.236   5.758   6.534 -0.4479  0.9735 -0.1525
  141OSM   H11B15423   2.273   5.626   6.649 -0.7998  1.1462  1.4274
  141OSM      P15424   2.063   5.909   6.697 -0.1829  0.2049 -0.3502
  141OSM    O1315425   1.947   5.912   6.787  0.6777  0.0904  0.3177
  141OSM    O1415426   2.158   6.020   6.729 -0.2198  0.0515  0.3693
  141OSM    O1115427   2.015   5.910   6.550  0.3692 -0.3928  0.3051
  141OSM    O1215428   2.132   5.767   6.717 -0.1278  0.4213  0.1029
  141OSM    C1S15429   2.093   5.991   6.456  0.0403 -0.3791  0.0284
  141OSM    H1S15430   2.194   5.949   6.438 -0.0273 -0.1449 -0.9269
  141OSM    H1T15431   2.101   6.093   6.499  0.5953 -0.3324 -0.1780
  141OSM     NF15432   2.115   6.084   6.232  0.4588 -0.3309  0.1117
  141OSM    HNF15433   2.115   6.183   6.220  4.6343 -0.0979  0.5045
  141OSM    C2S15434   2.023   6.014   6.321 -0.0271 -0.4379 -0.6669
  141OSM    H2S15435   2.018   5.911   6.280  0.6286 -0.9240  0.4490
  141OSM    C3S15436   1.881   6.082   6.339  0.4429  0.2832 -0.1425
  141OSM    H3S15437   1.890   6.181   6.389 -3.2454  0.6305  0.1205
  141OSM     O315438   1.795   6.012   6.423 -0.0476 -0.1675  0.1771
  141OSM    HO315439   1.860   5.971   6.481  2.5465  0.2100 -2.2542
  141OSM    C4S15440   1.825   6.103   6.203 -0.8984 -0.5059  0.3740
  141OSM    H4S15441   1.870   6.188   6.150 -2.8792  1.2383  1.3725
  141OSM    C5S15442   1.730   6.043   6.134  0.1884  0.5874  0.6765
  141OSM    H5S15443   1.676   5.959   6.180  0.5997  0.4885  0.9798
  141OSM    C6S15444   1.693   6.075   5.986 -0.7039  0.1736  0.0392
  141OSM    H6S15445   1.596   6.127   5.993  0.3242  2.0312  1.2897
  141OSM    H6T15446   1.677   5.980   5.930 -0.8544 -1.7576  3.0500
  141OSM    C7S15447   1.797   6.159   5.909  0.3190 -0.0600  0.3779
  141OSM    H7S15448   1.896   6.110   5.917 -0.1269 -0.8602  1.3882
  141OSM    H7T15449   1.798   6.259   5.958  1.6521 -1.2861  3.0643
  141OSM    C8S15450   1.756   6.171   5.766  0.2583 -0.7534 -0.1137
  141OSM    H8S15451   1.650   6.203   5.769  0.6238  0.4649  0.1126
  141OSM    H8T15452   1.758   6.076   5.707 -0.7934 -0.2805 -0.9397
  141OSM    C9S15453   1.838   6.273   5.690 -0.3061  0.3857  0.2034
  141OSM    H9S15454   1.942   6.233   5.699 -1.0899 -1.3897  2.5770
  141OSM    H9T15455   1.837   6.369   5.745  0.9661  0.0578  0.8601
  141OSM   C10S15456   1.786   6.287   5.541  0.0206  0.7265 -0.2633
  141OSM   H10S15457   1.834   6.378   5.500 -0.5880  1.7211  1.1607
  141OSM   H10T15458   1.676   6.303   5.533 -0.1836  0.6367  1.8426
  141OSM   C11S15459   1.833   6.175   5.455 -0.5470  0.6543  0.4530
  141OSM   H11S15460   1.768   6.085   5.465  1.7319 -1.0863  0.4500
  141OSM   H11T15461   1.927   6.132   5.497 -1.9765 -1.2466  1.9028
  141OSM   C12S15462   1.852   6.221   5.309  0.2459 -0.0689  0.3480
  141OSM   H12S15463   1.939   6.290   5.302 -1.1676  1.9766  1.7518
  141OSM   H12T15464   1.761   6.277   5.278  0.0522 -1.6745 -2.3445
  141OSM   C13S15465   1.862   6.098   5.209 -0.5459 -0.3068  0.1743
  141OSM   H13S15466   1.779   6.027   5.231 -0.3995 -0.3299  0.6550
  141OSM   H13T15467   1.962   6.053   5.227 -0.1865 -0.9436 -2.8427
  141OSM   C14S15468   1.848   6.149   5.058 -0.3093  0.1905 -0.8112
  141OSM   H14S15469   1.904   6.245   5.051 -0.9103  0.6600  0.5916
  141OSM   H14T15470   1.741   6.169   5.038 -0.8686 -0.6115  1.1730
  141OSM   C15S15471   1.883   6.048   4.946  0.0670  0.4486  0.4280
  141OSM   H15S15472   1.815   5.961   4.937 -0.6114  1.0752 -0.8539
  141OSM   H15T15473   1.988   6.019   4.967 -0.5322 -0.9842  1.5501
  141OSM   C16S15474   1.885   6.121   4.811 -0.3065  0.2829 -0.1825
  141OSM   H16S15475   1.957   6.205   4.821  0.1061 -0.2009  1.2584
  141OSM   H16T15476   1.788   6.174   4.805 -0.5184  0.3319  2.3462
  141OSM   C17S15477   1.923   6.034   4.688  0.2990 -0.1135  0.6704
  141OSM   H17S15478   2.001   5.965   4.729 -0.9031 -0.9580  1.5974
  141OSM   H17T15479   1.982   6.080   4.606  0.6283 -1.0498  0.3675
  141OSM   C18S15480   1.808   5.962   4.624 -0.8820 -0.3294 -0.5726
  141OSM   H18S15481   1.844   5.895   4.543 -0.1021 -0.9971  0.3142
  141OSM   H18T15482   1.734   6.033   4.583  0.1214  1.8036  1.1111
  141OSM   H18U15483   1.767   5.894   4.702 -1.2137 -0.4192 -0.8209
  141OSM    C1F15484   2.229   6.024   6.191 -0.6706  0.0886 -0.7006
  141OSM     OF15485   2.256   5.906   6.209 -0.4485 -0.1462  0.1248
  141OSM    C2F15486   2.317   6.121   6.130  0.0421 -0.1183  0.3056
  141OSM    H2F15487   2.422   6.093   6.152  0.0186 -1.0097 -0.6210
  141OSM    H2G15488   2.315   6.225   6.169  3.1514 -0.0763  0.5916
  141OSM    C3F15489   2.299   6.114   5.977 -0.5775 -0.5288  0.1945
  141OSM    H3F15490   2.194   6.130   5.946 -0.5538 -0.8704 -0.0662
  141OSM    H3G15491   2.327   6.012   5.941  0.7892  1.0009 -3.5666
  141OSM    C4F15492   2.385   6.216   5.911 -0.1802 -0.3815 -0.0938
  141OSM    H4F15493   2.490   6.205   5.946 -0.1680  2.4925  1.0407
  141OSM    H4G15494   2.347   6.310   5.957 -1.6547 -1.5748  1.2524
  141OSM    C5F15495   2.380   6.211   5.757  0.2915 -0.5862  0.0631
  141OSM    H5F15496   2.424   6.120   5.710  0.5344  1.2217 -3.6060
  141OSM    H5G15497   2.424   6.302   5.711 -1.3986  0.1224 -0.2371
  141OSM    C6F15498   2.243   6.220   5.706 -0.2823 -0.2823  0.1809
  141OSM    H6F15499   2.171   6.267   5.776 -1.8576  0.2458 -1.7287
  141OSM    H6G15500   2.194   6.124   5.678 -0.3743  0.1286 -1.1526
  141OSM    C7F15501   2.234   6.317   5.583 -0.3912 -0.0751  0.1685
  141OSM    H7F15502   2.263   6.418   5.621  3.0607 -0.4794 -1.0919
  141OSM    H7G15503   2.127   6.310   5.554 -0.0025 -2.6245 -0.9411
  141OSM    C8F15504   2.310   6.268   5.451 -0.7639  0.0751  1.4151
  141OSM    H8F15505   2.418   6.278   5.472 -0.0679  0.0177 -1.6556
  141OSM    H8G15506   2.285   6.351   5.382  3.0088 -0.9160 -1.4421
  141OSM    C9F15507   2.285   6.130   5.388  0.6325  0.2635 -0.0717
  141OSM    H9F15508   2.283   6.051   5.465  3.0977 -0.0439 -0.2395
  141OSM   C10F15509   2.239   6.091   5.264 -0.0377 -0.7035 -0.4368
  141OSM   H10F15510   2.224   5.986   5.235 -1.4505 -1.6031  3.0706
  141OSM   C11F15511   2.216   6.196   5.155  0.1091  0.6517 -0.0999
  141OSM   H11F15512   2.159   6.283   5.194  3.3582  3.0116 -0.2292
  141OSM   H11G15513   2.157   6.157   5.068  1.0031  3.1406 -1.9448
  141OSM   C12F15514   2.352   6.254   5.097  0.7883  0.1629  0.1370
  141OSM   H12F15515   2.419   6.297   5.175  1.1343 -0.7000  0.3305
  141OSM   H12G15516   2.326   6.335   5.026  0.7518  0.7937  0.8548
  141OSM   C13F15517   2.440   6.146   5.027 -0.5636  0.1830 -0.3553
  141OSM   H13F15518   2.383   6.100   4.944  1.5354  0.3723 -1.9695
  141OSM   H13G15519   2.464   6.079   5.113  2.2581  0.2711 -0.9711
  141OSM   C14F15520   2.576   6.198   4.974 -0.0320 -0.4763 -0.0107
  141OSM   H14F15521   2.642   6.109   4.962 -1.9729 -2.0801  0.6334
  141OSM   H14G15522   2.629   6.263   5.047  3.5774 -3.0913 -0.0352
  141OSM   C15F15523   2.563   6.271   4.845  0.2435  0.4093  0.0279
  141OSM   H15F15524   2.469   6.249   4.790  0.5391 -3.9212  0.8877
  141OSM   H15G15525   2.643   6.236   4.776 -0.5744 -2.9599  0.6016
  141OSM   C16F15526   2.569   6.421   4.853 -0.0988 -0.3466  0.1036
  141OSM   H16F15527   2.663   6.461   4.898  1.5919 -2.6371 -1.1904
  141OSM   H16G15528   2.479   6.461   4.904  0.4038  1.7185 -0.5261
  141OSM   C17F15529   2.581   6.490   4.712  0.7494 -0.4086 -0.3687
  141OSM   H17F15530   2.668   6.440   4.663 -0.0834 -0.1748 -2.1625
  141OSM   H17G15531   2.610   6.595   4.734 -5.2825  1.9381 -1.7807
  141OSM   C18F15532   2.457   6.469   4.630 -0.1714  0.0379 -0.1885
  141OSM   H18F15533   2.372   6.477   4.702 -0.8506  1.0127 -1.0661
  141OSM   H18G15534   2.452   6.363   4.597  0.0236 -0.5812  1.6698
  141OSM   H18H15535   2.431   6.542   4.550 -1.9538 -0.9188 -0.5279
  142OSM      N15536   1.454   6.135   6.541 -0.2284 -0.1340  0.3461
  142OSM    C1515537   1.339   6.218   6.582  0.2647 -0.6361 -0.6818
  142OSM   H15A15538   1.250   6.191   6.526  1.5135  0.1604 -3.1986
  142OSM   H15B15539   1.352   6.323   6.560 -2.3817 -0.3470 -1.3047
  142OSM   H15C15540   1.323   6.208   6.689 -1.1408  0.8653 -0.6997
  142OSM    C1415541   1.478   6.161   6.397 -0.3161 -0.3315  0.1308
  142OSM   H14A15542   1.571   6.128   6.354 -0.4123 -0.0626 -0.2857
  142OSM   H14B15543   1.470   6.266   6.374  1.2726 -0.0953  0.4955
  142OSM   H14C15544   1.400   6.117   6.338 -0.1075  0.0858 -0.4637
  142OSM    C1315545   1.580   6.179   6.613  0.7479  0.3697  0.0273
  142OSM   H13A15546   1.585   6.287   6.606 -1.0938  0.4450 -0.6245
  142OSM   H13B15547   1.670   6.136   6.572 -0.6749 -1.7783 -1.0210
  142OSM   H13C15548   1.577   6.143   6.714  0.4797 -1.9163 -0.7220
  142OSM    C1215549   1.423   5.987   6.564 -0.0879  0.1918  0.7981
  142OSM   H12A15550   1.516   5.940   6.535 -0.1672  0.4913  0.0221
  142OSM   H12B15551   1.355   5.947   6.490  0.5965  0.8756 -0.2418
  142OSM    C1115552   1.386   5.941   6.705  0.5891  0.5189  0.0753
  142OSM   H11A15553   1.304   5.997   6.755  0.7566  1.2004 -0.3939
  142OSM   H11B15554   1.472   5.962   6.772 -0.4171  1.9476  0.9620
  142OSM      P15555   1.423   5.675   6.755 -0.1913 -0.1751  0.2422
  142OSM    O1315556   1.560   5.714   6.800 -0.7469 -0.5718 -0.1559
  142OSM    O1415557   1.333   5.608   6.854 -0.4687  0.7578 -0.1978
  142OSM    O1115558   1.438   5.580   6.636  0.8631 -0.1071 -0.7766
  142OSM    O1215559   1.350   5.803   6.698 -0.6721 -0.2578  0.4544
  142OSM    C1S15560   1.385   5.612   6.506 -0.0678  0.0295  0.4510
  142OSM    H1S15561   1.313   5.697   6.504  0.9364  0.8920 -0.1761
  142OSM    H1T15562   1.334   5.525   6.460 -2.9414  1.7013  0.2188
  142OSM     NF15563   1.448   5.660   6.271  0.4033 -0.1566  0.4042
  142OSM    HNF15564   1.473   5.591   6.204  1.9919  0.6618  0.1121
  142OSM    C2S15565   1.500   5.648   6.405  0.0881  0.2134 -0.1624
  142OSM    H2S15566   1.543   5.747   6.429  1.7339 -0.3710 -0.5637
  142OSM    C3S15567   1.613   5.539   6.404 -1.1796 -0.2472 -0.2669
  142OSM    H3S15568   1.581   5.461   6.332 -0.6419 -0.7015 -0.0164
  142OSM     O315569   1.650   5.478   6.532  0.0582 -0.3291  0.1380
  142OSM    HO315570   1.590   5.526   6.588  1.4459 -0.7434  2.0895
  142OSM    C4S15571   1.738   5.608   6.338  0.3209 -0.8132 -0.5880
  142OSM    H4S15572   1.738   5.716   6.359 -0.4243 -0.9252  0.0617
  142OSM    C5S15573   1.815   5.555   6.241  0.2782  0.5422 -0.8349
  142OSM    H5S15574   1.795   5.450   6.213  0.1698  0.6114 -1.0178
  142OSM    C6S15575   1.926   5.630   6.181 -0.2032 -0.2292 -0.6606
  142OSM    H6S15576   2.013   5.563   6.167  2.1998  2.5444 -0.0452
  142OSM    H6T15577   1.976   5.707   6.244  0.6137 -1.5839  0.3868
  142OSM    C7S15578   1.899   5.691   6.044  0.4267 -0.4070 -0.2736
  142OSM    H7S15579   1.818   5.767   6.044  0.6007 -0.2037  0.5710
  142OSM    H7T15580   1.866   5.607   5.979 -2.7678  1.5476 -1.3844
  142OSM    C8S15581   2.019   5.759   5.978 -0.4144  0.2751 -0.8140
  142OSM    H8S15582   2.101   5.685   5.967 -0.3003 -0.1235  1.9497
  142OSM    H8T15583   2.063   5.828   6.054  1.2499 -2.3479  0.7597
  142OSM    C9S15584   1.991   5.833   5.850 -0.1112 -0.3810 -0.1847
  142OSM    H9S15585   2.081   5.894   5.825 -0.0714  0.8184  2.5540
  142OSM    H9T15586   1.897   5.892   5.861  0.2528  0.3289 -0.7549
  142OSM   C10S15587   1.973   5.733   5.740  0.0237 -0.0373 -0.2186
  142OSM   H10S15588   1.911   5.650   5.781  0.7293 -0.9017 -0.8675
  142OSM   H10T15589   2.061   5.670   5.715 -1.2857 -2.9401  1.9800
  142OSM   C11S15590   1.907   5.791   5.618 -0.1152 -0.7361 -0.2400
  142OSM   H11S15591   1.953   5.891   5.602  0.1866 -0.4681  2.0731
  142OSM   H11T15592   1.798   5.803   5.636  0.4065  0.9871  2.2520
  142OSM   C12S15593   1.931   5.703   5.495  0.7114  0.3987  0.0066
  142OSM   H12S15594   1.897   5.599   5.516  1.3761 -0.1728 -1.6342
  142OSM   H12T15595   2.040   5.694   5.477  0.6129  0.3925 -0.5894
  142OSM   C13S15596   1.866   5.759   5.370 -0.1801 -0.3710 -0.5578
  142OSM   H13S15597   1.904   5.860   5.344 -0.3231  0.2276  1.4213
  142OSM   H13T15598   1.755   5.773   5.376 -0.1852  1.4323 -3.2313
  142OSM   C14S15599   1.881   5.662   5.250  0.1199  0.1462  0.6134
  142OSM   H14S15600   1.823   5.570   5.269 -0.1921  0.2300  0.0747
  142OSM   H14T15601   1.990   5.639   5.243 -0.0627 -0.4804 -0.2639
  142OSM   C15S15602   1.834   5.728   5.117  0.0361  0.0620 -0.6532
  142OSM   H15S15603   1.914   5.805   5.114  0.2401 -0.0670  0.7177
  142OSM   H15T15604   1.733   5.773   5.120  0.4553  1.0442  2.8949
  142OSM   C16S15605   1.850   5.632   4.999  0.1270 -0.2040 -0.7575
  142OSM   H16S15606   1.954   5.595   4.985  0.6963  1.3780 -0.9518
  142OSM   H16T15607   1.834   5.697   4.910  0.3365  1.6902  0.5315
  142OSM   C17S15608   1.746   5.525   5.003  0.3474  0.1966 -0.0634
  142OSM   H17S15609   1.649   5.571   4.975 -0.2782 -1.3237 -0.4504
  142OSM   H17T15610   1.725   5.492   5.107 -2.6304 -0.1027 -0.6700
  142OSM   C18S15611   1.768   5.400   4.919  0.8425 -0.6082  0.3502
  142OSM   H18S15612   1.696   5.321   4.950 -0.8707  0.3481 -1.0020
  142OSM   H18T15613   1.872   5.372   4.946  1.6811  2.4082  0.5903
  142OSM   H18U15614   1.765   5.422   4.810  2.0524 -2.2844 -0.0634
  142OSM    C1F15615   1.373   5.761   6.235 -0.3816 -0.2219 -0.6872
  142OSM     OF15616   1.332   5.846   6.314  0.2046  0.3368 -0.1220
  142OSM    C2F15617   1.324   5.770   6.098 -0.4148  1.1937  0.1783
  142OSM    H2F15618   1.213   5.762   6.100 -0.3568 -0.2883 -0.6795
  142OSM    H2G15619   1.359   5.675   6.052 -0.0991  1.0707  0.6598
  142OSM    C3F15620   1.392   5.886   6.016  0.4976 -1.0834 -0.0857
  142OSM    H3F15621   1.503   5.882   6.018  0.5014 -0.8350  0.2570
  142OSM    H3G15622   1.368   5.978   6.073 -0.2076 -0.0527 -1.9664
  142OSM    C4F15623   1.329   5.896   5.877  0.3670  0.8573 -0.3512
  142OSM    H4F15624   1.218   5.908   5.876  0.0972 -1.1817 -2.2009
  142OSM    H4G15625   1.348   5.805   5.818 -1.4253  0.3856 -0.2781
  142OSM    C5F15626   1.385   6.014   5.800 -0.2187 -1.1347 -0.2399
  142OSM    H5F15627   1.495   6.017   5.812 -0.0537  1.1179 -1.6469
  142OSM    H5G15628   1.344   6.110   5.840  1.1914  0.1513 -1.7247
  142OSM    C6F15629   1.361   6.006   5.651  0.3259 -0.6192  0.5197
  142OSM    H6F15630   1.252   5.993   5.632 -0.1402 -1.9722  3.5947
  142OSM    H6G15631   1.417   5.917   5.617  0.6524 -0.1199 -0.3051
  142OSM    C7F15632   1.414   6.133   5.573 -0.2284 -0.0189 -0.4479
  142OSM    H7F15633   1.517   6.152   5.611 -0.9628  1.0120  1.1307
  142OSM    H7G15634   1.361   6.220   5.616  0.9050 -0.2267  1.5124
  142OSM    C8F15635   1.399   6.131   5.423 -0.3805 -0.1494  0.0583
  142OSM    H8F15636   1.425   6.227   5.373 -1.9552 -0.2590 -1.0556
  142OSM    H8G15637   1.289   6.121   5.410 -0.2892 -1.8448  0.3918
  142OSM    C9F15638   1.480   6.021   5.358 -0.0241  0.7446  0.3159
  142OSM    H9F15639   1.554   5.988   5.433 -0.8190  0.8605  1.1737
  142OSM   C10F15640   1.474   5.958   5.240 -0.3716 -0.2393  0.5303
  142OSM   H10F15641   1.546   5.885   5.201  0.6269  0.4723  1.0049
  142OSM   C11F15642   1.368   5.989   5.143 -0.3845 -0.8978  0.5275
  142OSM   H11F15643   1.297   6.062   5.187 -1.4229 -1.4968 -0.1370
  142OSM   H11G15644   1.306   5.901   5.114 -0.4128 -0.2500 -1.5462
  142OSM   C12F15645   1.430   6.067   5.019 -0.0322  0.3064 -0.2676
  142OSM   H12F15646   1.498   6.148   5.053  0.3750 -0.5197  0.9590
  142OSM   H12G15647   1.350   6.117   4.960 -0.9268 -2.2652 -1.3871
  142OSM   C13F15648   1.514   5.973   4.926  0.5881  0.8140  0.3157
  142OSM   H13F15649   1.586   5.918   4.990 -0.9873 -0.8827  0.6880
  142OSM   H13G15650   1.562   6.048   4.859 -0.2528  0.9956 -0.0935
  142OSM   C14F15651   1.438   5.859   4.854  0.1765 -0.0794 -0.1422
  142OSM   H14F15652   1.385   5.799   4.931  2.3601  0.8981  2.2554
  142OSM   H14G15653   1.508   5.783   4.813  0.7926  0.9614 -1.0676
  142OSM   C15F15654   1.343   5.901   4.739 -0.6536  0.0496  0.1995
  142OSM   H15F15655   1.279   5.971   4.796  0.1258  1.1971 -0.3013
  142OSM   H15G15656   1.270   5.830   4.694  0.7708 -0.2256 -1.8134
  142OSM   C16F15657   1.429   5.950   4.621 -0.0957 -0.3844 -0.0151
  142OSM   H16F15658   1.498   5.872   4.581  0.8941 -1.8166  4.0079
  142OSM   H16G15659   1.488   6.039   4.650 -1.7516  1.0804 -0.9898
  142OSM   C17F15660   1.334   5.973   4.501 -0.6502  0.0515 -0.4927
  142OSM   H17F15661   1.254   6.043   4.532  2.0404  3.2368 -0.2427
  142OSM   H17G15662   1.306   5.870   4.469  2.1251 -0.6029 -1.0547
  142OSM   C18F15663   1.416   6.035   4.378 -0.7705 -0.7257  0.3770
  142OSM   H18F15664   1.417   6.146   4.385  1.7449 -0.7774  4.6962
  142OSM   H18G15665   1.359   5.996   4.291 -0.5071 -1.7251  0.6347
  142OSM   H18H15666   1.521   5.997   4.374  0.2864  2.0330 -0.5034
  143OSM      N15667   2.740   2.689   7.018  0.5815 -0.3121  0.0908
  143OSM    C1515668   2.745   2.831   7.057  0.2905  0.7577 -0.4105
  143OSM   H15A15669   2.829   2.878   7.007  0.7722  0.8489  0.4684
  143OSM   H15B15670   2.750   2.843   7.164  1.0373 -2.1707 -0.0340
  143OSM   H15C15671   2.653   2.872   7.017  0.1268 -1.5318 -2.6339
  143OSM    C1415672   2.853   2.614   7.077  0.3297  0.2524 -0.3020
  143OSM   H14A15673   2.947   2.654   7.042  0.7659 -0.0508  0.4937
  143OSM   H14B15674   2.854   2.508   7.059  1.8678  0.3479 -0.9846
  143OSM   H14C15675   2.862   2.612   7.185  1.0951 -1.7973 -0.3599
  143OSM    C1315676   2.611   2.633   7.067  0.4023  0.7831 -0.2625
  143OSM   H13A15677   2.604   2.526   7.051 -0.8737  1.0413 -1.6879
  143OSM   H13B15678   2.528   2.682   7.018  0.0475  0.3791 -0.0762
  143OSM   H13C15679   2.599   2.653   7.173 -2.5403  0.7953 -0.5090
  143OSM    C1215680   2.752   2.673   6.864  0.8978 -0.9841 -0.4092
  143OSM   H12A15681   2.664   2.722   6.825 -0.8739 -1.1737  2.9816
  143OSM   H12B15682   2.744   2.569   6.838  0.5855 -0.7175 -1.4269
  143OSM    C1115683   2.879   2.726   6.799  0.6329  0.5295 -0.3331
  143OSM   H11A15684   2.896   2.665   6.708  0.5285  0.1653 -0.1135
  143OSM   H11B15685   2.973   2.711   6.858 -0.4104 -1.8331  0.8609
  143OSM      P15686   2.775   2.923   6.673  0.0489 -0.1166 -0.0565
  143OSM    O1315687   2.642   2.951   6.735 -0.6474 -0.1268 -0.1755
  143OSM    O1415688   2.844   3.044   6.613 -0.2525 -0.4517 -0.2309
  143OSM    O1115689   2.771   2.827   6.553 -0.3970  0.8507  0.2206
  143OSM    O1215690   2.870   2.865   6.777 -0.0892  0.2230 -0.2729
  143OSM    C1S15691   2.664   2.817   6.456  0.5499  0.0626 -0.4071
  143OSM    H1S15692   2.592   2.901   6.459  1.4555  0.9353 -2.1038
  143OSM    H1T15693   2.615   2.722   6.488  3.4203 -0.3791  3.5433
  143OSM     NF15694   2.642   2.813   6.217  0.2973  0.4588 -0.8961
  143OSM    HNF15695   2.621   2.728   6.168 -0.5711  0.4737 -0.5632
  143OSM    C2S15696   2.740   2.809   6.321 -0.2681 -0.5556  0.3072
  143OSM    H2S15697   2.800   2.900   6.302 -2.7452  0.5151 -3.6270
  143OSM    C3S15698   2.835   2.686   6.321 -0.1664 -0.0795  0.0285
  143OSM    H3S15699   2.783   2.589   6.336 -0.0913 -0.5379 -2.3775
  143OSM     O315700   2.942   2.686   6.409  0.0514  0.1260 -0.0538
  143OSM    HO315701   2.919   2.770   6.448  1.4905  1.2402 -1.4795
  143OSM    C4S15702   2.893   2.675   6.181  0.4003 -0.7346 -0.6071
  143OSM    H4S15703   2.850   2.600   6.113  0.6548 -2.5211  1.1260
  143OSM    C5S15704   3.007   2.738   6.132 -0.5201 -0.1045  0.6360
  143OSM    H5S15705   3.055   2.812   6.198 -0.8026  1.0983 -0.4809
  143OSM    C6S15706   3.061   2.725   5.989  0.5596  0.0279 -0.5776
  143OSM    H6S15707   3.172   2.720   5.982  0.5900 -0.8016  0.3554
  143OSM    H6T15708   3.049   2.823   5.938  1.5176 -0.0494 -0.9784
  143OSM    C7S15709   2.983   2.628   5.894 -0.4799  0.0539 -0.3422
  143OSM    H7S15710   2.876   2.657   5.903 -0.3824  0.1708  0.4575
  143OSM    H7T15711   3.007   2.524   5.923 -1.6822  0.6574  3.3710
  143OSM    C8S15712   3.026   2.651   5.746  0.2155 -0.0613 -0.0845
  143OSM    H8S15713   3.123   2.706   5.753 -0.2996  1.2635 -2.4077
  143OSM    H8T15714   2.946   2.709   5.696 -0.5115 -0.7410  0.2739
  143OSM    C9S15715   3.048   2.518   5.676 -0.4274 -0.6488 -0.7791
  143OSM    H9S15716   2.955   2.460   5.692 -0.8145  0.1168 -0.1652
  143OSM    H9T15717   3.134   2.462   5.718 -1.0579 -1.5268 -0.6365
  143OSM   C10S15718   3.066   2.537   5.521  0.0801  0.4590 -0.4552
  143OSM   H10S15719   3.136   2.461   5.479 -1.1412  0.2510 -2.2237
  143OSM   H10T15720   3.113   2.635   5.496  1.4650  0.2630  1.2620
  143OSM   C11S15721   2.934   2.518   5.440 -0.1862  0.6665  0.2140
  143OSM   H11S15722   2.847   2.560   5.496 -1.0813 -1.8891  0.8867
  143OSM   H11T15723   2.921   2.410   5.416 -1.4360  0.2338  2.4953
  143OSM   C12S15724   2.949   2.578   5.302  0.0667  0.7158 -0.4415
  143OSM   H12S15725   2.985   2.682   5.317  2.6409 -0.2928  1.2629
  143OSM   H12T15726   2.848   2.594   5.260 -0.1086 -2.2407 -1.3790
  143OSM   C13S15727   3.023   2.497   5.202 -0.1430 -0.2570 -0.6351
  143OSM   H13S15728   2.976   2.396   5.199 -0.1161 -0.2615 -0.9417
  143OSM   H13T15729   3.125   2.474   5.238 -0.7713 -1.7499  0.3158
  143OSM   C14S15730   3.043   2.565   5.067 -0.4634 -0.1022  0.5686
  143OSM   H14S15731   3.090   2.664   5.088 -0.6330 -0.0032  0.4887
  143OSM   H14T15732   2.942   2.581   5.024 -1.4707 -1.7429  2.2145
  143OSM   C15S15733   3.122   2.477   4.965  0.5921 -0.5698 -0.2498
  143OSM   H15S15734   3.059   2.388   4.940  0.0037 -0.4967  0.8825
  143OSM   H15T15735   3.220   2.454   5.011  0.2331 -1.4604  0.1077
  143OSM   C16S15736   3.154   2.552   4.829 -0.4541 -0.3388 -0.4115
  143OSM   H16S15737   3.204   2.647   4.856  0.3206 -0.5320 -1.1103
  143OSM   H16T15738   3.055   2.556   4.779 -0.4180  0.3865 -0.4253
  143OSM   C17S15739   3.246   2.479   4.732  0.0129  0.1366  0.4136
  143OSM   H17S15740   3.224   2.371   4.733  1.2321 -0.1833 -1.3932
  143OSM   H17T15741   3.349   2.490   4.772  1.0643 -3.4294 -0.9480
  143OSM   C18S15742   3.238   2.537   4.590  0.5737  0.4371 -0.8108
  143OSM   H18S15743   3.295   2.478   4.515  1.8268 -0.6553  0.9238
  143OSM   H18T15744   3.268   2.643   4.583  0.2037  0.5133 -1.2889
  143OSM   H18U15745   3.130   2.531   4.565 -0.4251  0.9691  2.8862
  143OSM    C1F15746   2.560   2.917   6.210 -0.2134 -0.0882 -0.2831
  143OSM     OF15747   2.591   3.029   6.250  0.5643  0.0015 -0.5863
  143OSM    C2F15748   2.414   2.890   6.178  0.4694  0.8179 -0.0447
  143OSM    H2F15749   2.367   2.873   6.277  2.3398 -0.7275  0.6461
  143OSM    H2G15750   2.406   2.795   6.120  1.7225  1.6819 -1.7190
  143OSM    C3F15751   2.352   3.018   6.109  0.7382 -0.2646  0.6029
  143OSM    H3F15752   2.415   3.066   6.030 -0.7966 -1.1336 -1.2521
  143OSM    H3G15753   2.357   3.092   6.191  0.2373  0.3300  0.1098
  143OSM    C4F15754   2.215   3.000   6.051 -0.3526  0.2306  0.4247
  143OSM    H4F15755   2.178   3.100   6.018 -3.0263 -0.4316  1.1912
  143OSM    H4G15756   2.143   2.968   6.130 -0.1063 -0.3128  0.4320
  143OSM    C5F15757   2.198   2.903   5.931 -0.6118 -0.2592  0.6769
  143OSM    H5F15758   2.090   2.881   5.918 -0.5886  0.2889 -0.5636
  143OSM    H5G15759   2.242   2.805   5.961  0.0727 -0.3457 -0.5569
  143OSM    C6F15760   2.274   2.967   5.815  0.5613 -0.2915  0.1138
  143OSM    H6F15761   2.383   2.983   5.831  0.5031  0.4195 -0.1621
  143OSM    H6G15762   2.234   3.070   5.801  0.8571  0.1978  2.4756
  143OSM    C7F15763   2.269   2.876   5.689  0.3006 -0.5794  0.6916
  143OSM    H7F15764   2.160   2.862   5.670  0.2867 -1.4112  1.3353
  143OSM    H7G15765   2.306   2.774   5.714 -0.7032 -0.8047  1.3328
  143OSM    C8F15766   2.341   2.947   5.573 -0.7466 -0.5855  0.6828
  143OSM    H8F15767   2.451   2.935   5.586 -0.7567  0.6287  2.1554
  143OSM    H8G15768   2.325   3.056   5.587  0.7664 -0.6210  3.4610
  143OSM    C9F15769   2.285   2.914   5.433 -0.8151  0.4394 -0.5512
  143OSM    H9F15770   2.180   2.945   5.427 -0.7019  1.4890  1.9318
  143OSM   C10F15771   2.346   2.858   5.335 -0.1571  0.3454 -0.0458
  143OSM   H10F15772   2.296   2.844   5.239 -1.0848 -1.8919  0.6825
  143OSM   C11F15773   2.491   2.817   5.327  0.4537  0.0326  0.3040
  143OSM   H11F15774   2.547   2.836   5.421 -0.8147  1.2383  0.8453
  143OSM   H11G15775   2.545   2.890   5.262 -0.1004 -0.6042 -0.9127
  143OSM   C12F15776   2.514   2.666   5.301  0.2181  0.6897 -0.2987
  143OSM   H12F15777   2.473   2.594   5.374 -2.2999  0.1737 -2.0493
  143OSM   H12G15778   2.623   2.650   5.289  0.2700  1.0067 -0.2607
  143OSM   C13F15779   2.475   2.633   5.157  0.1974 -0.3209  0.2257
  143OSM   H13F15780   2.368   2.660   5.149  0.4278  0.6926  0.4155
  143OSM   H13G15781   2.482   2.524   5.140  0.4448 -0.5712  1.7516
  143OSM   C14F15782   2.563   2.701   5.052 -0.6547  0.4825  0.1142
  143OSM   H14F15783   2.670   2.687   5.079 -0.8003 -1.1113 -0.0031
  143OSM   H14G15784   2.551   2.810   5.065 -1.7316  0.2736  0.9866
  143OSM   C15F15785   2.537   2.653   4.910 -0.5338  0.1476 -1.0474
  143OSM   H15F15786   2.427   2.651   4.895 -0.8788 -1.2251  1.2153
  143OSM   H15G15787   2.572   2.549   4.893 -0.7889 -0.0966 -0.0856
  143OSM   C16F15788   2.599   2.744   4.802  1.1796 -0.0440  0.4443
  143OSM   H16F15789   2.607   2.849   4.838  1.1017 -0.3432  1.3588
  143OSM   H16G15790   2.526   2.744   4.718 -0.4092 -0.1817  1.7690
  143OSM   C17F15791   2.737   2.694   4.768 -0.3650  0.5443 -0.0547
  143OSM   H17F15792   2.719   2.623   4.684 -1.2113  0.3279  0.2971
  143OSM   H17G15793   2.786   2.642   4.853 -0.8189 -1.9812 -1.2367
  143OSM   C18F15794   2.837   2.799   4.718  0.0706  0.1368  0.3076
  143OSM   H18F15795   2.791   2.843   4.627 -2.4942  0.6274  1.7376
  143OSM   H18G15796   2.938   2.755   4.712 -0.1582 -0.6005  1.4977
  143OSM   H18H15797   2.840   2.888   4.784  1.2736  1.4640 -1.4452
  144OSM      N15798   3.750   0.510   6.581 -0.3217 -0.6160 -0.3521
  144OSM    C1515799   3.857   0.419   6.553 -0.3837  0.2407 -0.2787
  144OSM   H15A15800   3.857   0.389   6.450 -0.7991 -0.7308 -0.0051
  144OSM   H15B15801   3.854   0.330   6.614  0.7841  0.2350 -0.2112
  144OSM   H15C15802   3.955   0.460   6.573 -0.1538 -0.4901  0.1191
  144OSM    C1415803   3.622   0.431   6.608  0.3559 -0.1555 -0.3182
  144OSM   H14A15804   3.605   0.366   6.523  0.3773 -0.7470  0.1243
  144OSM   H14B15805   3.541   0.497   6.631  0.3100  0.1702 -1.3503
  144OSM   H14C15806   3.637   0.360   6.688  0.7857 -0.5797 -0.7644
  144OSM    C1315807   3.792   0.588   6.704 -0.1184  0.1484  0.3839
  144OSM   H13A15808   3.881   0.645   6.684  0.6490 -0.4477  1.8863
  144OSM   H13B15809   3.800   0.529   6.794 -1.7562 -1.7595 -0.6222
  144OSM   H13C15810   3.715   0.664   6.714 -0.3044  0.0332 -0.1627
  144OSM    C1215811   3.732   0.593   6.456 -0.4371 -0.1480 -0.5611
  144OSM   H12A15812   3.663   0.673   6.480 -0.5511 -0.2356 -0.5947
  144OSM   H12B15813   3.691   0.530   6.378 -0.0269 -1.5742  0.3417
  144OSM    C1115814   3.856   0.676   6.401  0.9918  0.3705 -0.1995
  144OSM   H11A15815   3.828   0.694   6.295 -0.3887  1.9076  0.3902
  144OSM   H11B15816   3.944   0.608   6.395  0.5376 -0.2790  0.3261
  144OSM      P15817   3.800   0.917   6.506 -0.0531 -0.5310  0.0964
  144OSM    O1315818   3.745   0.918   6.639  1.1275  0.0082 -0.5936
  144OSM    O1415819   3.873   1.040   6.454  0.1395  0.2976 -0.1390
  144OSM    O1115820   3.672   0.887   6.407  0.1556  0.3763  0.1001
  144OSM    O1215821   3.887   0.786   6.488  0.7081  0.3760  0.7231
  144OSM    C1S15822   3.601   0.998   6.352 -0.6079  0.1408 -0.6557
  144OSM    H1S15823   3.666   1.085   6.330  1.2708 -0.4838  1.8996
  144OSM    H1T15824   3.519   1.025   6.421  0.4533  1.4603  0.1536
  144OSM     NF15825   3.453   1.065   6.170 -0.8544 -0.1840  0.6236
  144OSM    HNF15826   3.355   1.052   6.156 -0.5918 -0.8500 -0.7573
  144OSM    C2S15827   3.538   0.958   6.215  0.0649  0.0007 -0.2365
  144OSM    H2S15828   3.616   0.950   6.137 -0.5534  2.4011 -1.1869
  144OSM    C3S15829   3.463   0.821   6.227 -0.3479 -0.2585  0.0314
  144OSM    H3S15830   3.388   0.834   6.308  0.6805 -1.9876  1.3338
  144OSM     O315831   3.540   0.709   6.267 -0.4188  0.9835 -0.2821
  144OSM    HO315832   3.615   0.747   6.314 -1.3130  0.3389  1.7849
  144OSM    C4S15833   3.387   0.793   6.106  0.9213 -0.2379  0.2285
  144OSM    H4S15834   3.281   0.818   6.115  1.0051 -0.2864  1.5139
  144OSM    C5S15835   3.426   0.732   5.989  0.2251 -0.0447 -0.4444
  144OSM    H5S15836   3.523   0.680   5.984  1.0139  1.4385 -4.3484
  144OSM    C6S15837   3.348   0.728   5.863  0.4599  0.8341  0.0621
  144OSM    H6S15838   3.241   0.749   5.882  0.2273 -0.6827  0.5351
  144OSM    H6T15839   3.364   0.630   5.813  0.0032  1.7169 -1.9028
  144OSM    C7S15840   3.397   0.831   5.764  0.5935 -0.1856  0.1510
  144OSM    H7S15841   3.499   0.796   5.735  1.4144  1.6779  0.6499
  144OSM    H7T15842   3.416   0.923   5.824 -0.6255 -1.5695  2.8808
  144OSM    C8S15843   3.296   0.854   5.657 -0.4956 -0.4812 -0.1213
  144OSM    H8S15844   3.329   0.941   5.597 -2.4667  0.2011 -0.3177
  144OSM    H8T15845   3.197   0.894   5.690 -0.8550 -1.3113 -0.1718
  144OSM    C9S15846   3.287   0.724   5.576 -0.2001 -0.3463 -0.4514
  144OSM    H9S15847   3.253   0.639   5.640  0.7307  0.1639  0.7657
  144OSM    H9T15848   3.389   0.702   5.537 -1.1057 -2.2464 -1.9045
  144OSM   C10S15849   3.215   0.748   5.444 -0.4780  0.2422  0.5720
  144OSM   H10S15850   3.261   0.824   5.379 -0.0486 -1.3907 -1.1200
  144OSM   H10T15851   3.112   0.781   5.469  0.2554  0.5298  3.5989
  144OSM   C11S15852   3.217   0.622   5.352 -0.0751 -0.3217  0.7297
  144OSM   H11S15853   3.120   0.572   5.376 -1.4956  2.8998  2.2791
  144OSM   H11T15854   3.308   0.565   5.378 -0.6383 -0.0142  3.7487
  144OSM   C12S15855   3.214   0.658   5.205 -0.6039 -0.4496  0.0653
  144OSM   H12S15856   3.294   0.734   5.187 -2.1657  1.2147 -0.1394
  144OSM   H12T15857   3.124   0.717   5.176  0.5480  1.5181  0.2502
  144OSM   C13S15858   3.211   0.528   5.119 -0.0121  0.5420  0.6055
  144OSM   H13S15859   3.124   0.464   5.142  2.1813 -2.5311  1.0646
  144OSM   H13T15860   3.298   0.468   5.152  1.7706  2.8437  0.3992
  144OSM   C14S15861   3.231   0.556   4.967  0.6201  0.1715 -0.1091
  144OSM   H14S15862   3.322   0.619   4.956 -0.2174  1.1462 -1.8930
  144OSM   H14T15863   3.152   0.623   4.927  0.2701 -0.2583 -0.1516
  144OSM   C15S15864   3.236   0.432   4.878  0.6378  0.0129  0.0458
  144OSM   H15S15865   3.136   0.388   4.857  0.8839  0.4491 -2.3544
  144OSM   H15T15866   3.303   0.359   4.929  1.4772  0.1543 -0.8260
  144OSM   C16S15867   3.289   0.455   4.742 -0.2521 -0.1654  0.1014
  144OSM   H16S15868   3.390   0.501   4.750 -0.3918  0.2292 -0.3550
  144OSM   H16T15869   3.221   0.525   4.689  2.6035  1.3377 -1.8416
  144OSM   C17S15870   3.299   0.335   4.650 -0.3932  0.1984 -0.3991
  144OSM   H17S15871   3.196   0.302   4.623 -0.7347  1.1527 -0.3148
  144OSM   H17T15872   3.351   0.256   4.708  0.5496  1.6755  0.8543
  144OSM   C18S15873   3.390   0.351   4.521  0.3463 -0.2045 -0.0191
  144OSM   H18S15874   3.350   0.436   4.461  0.5439  0.0094  0.1504
  144OSM   H18T15875   3.394   0.254   4.467  0.8311 -0.2534  0.1041
  144OSM   H18U15876   3.492   0.384   4.549  0.6606 -0.5419 -0.7364
  144OSM    C1F15877   3.486   1.193   6.148 -1.0024 -0.1169 -0.0664
  144OSM     OF15878   3.606   1.227   6.124  0.0401 -0.0097 -0.5347
  144OSM    C2F15879   3.380   1.296   6.154  0.8923  0.4063 -0.8692
  144OSM    H2F15880   3.396   1.353   6.248  0.8406 -3.2740  1.6133
  144OSM    H2G15881   3.281   1.247   6.169  0.6446  1.1720  0.0504
  144OSM    C3F15882   3.375   1.379   6.025  0.0355  0.0447  0.5373
  144OSM    H3F15883   3.470   1.436   6.016  0.7983 -0.9724  1.7461
  144OSM    H3G15884   3.293   1.453   6.035 -1.2760 -1.3770  0.6959
  144OSM    C4F15885   3.349   1.298   5.897  0.2445  0.0724 -0.2868
  144OSM    H4F15886   3.240   1.274   5.893  0.4113 -0.7449 -0.0663
  144OSM    H4G15887   3.405   1.202   5.896  0.7687  0.3781 -1.3115
  144OSM    C5F15888   3.395   1.367   5.761 -1.1899 -0.1309 -0.0102
  144OSM    H5F15889   3.505   1.381   5.757 -1.2866  1.2269  1.0194
  144OSM    H5G15890   3.347   1.465   5.743  0.9609  1.4680  2.1947
  144OSM    C6F15891   3.367   1.266   5.647 -0.1354  0.0998 -0.6366
  144OSM    H6F15892   3.259   1.237   5.644 -0.4958  0.8074  2.4389
  144OSM    H6G15893   3.420   1.171   5.671  1.4187  0.7034 -1.5527
  144OSM    C7F15894   3.406   1.330   5.513 -0.2334 -0.2328 -0.1002
  144OSM    H7F15895   3.517   1.334   5.503  0.1389 -1.0251  2.7673
  144OSM    H7G15896   3.373   1.434   5.495 -0.9694 -0.6221 -1.0829
  144OSM    C8F15897   3.350   1.251   5.384 -0.4907  0.0933 -0.1206
  144OSM    H8F15898   3.239   1.257   5.389 -0.4100  1.2563  0.6763
  144OSM    H8G15899   3.383   1.146   5.397 -2.1596 -0.4512 -0.0384
  144OSM    C9F15900   3.394   1.307   5.248 -0.5426  0.8606 -0.2099
  144OSM    H9F15901   3.441   1.406   5.254 -0.7774  0.9212  0.8628
  144OSM   C10F15902   3.381   1.246   5.131 -0.3569  0.3988  0.0864
  144OSM   H10F15903   3.430   1.292   5.044 -2.0703 -0.2120 -1.2774
  144OSM   C11F15904   3.304   1.117   5.107 -0.1599  0.0791  1.2981
  144OSM   H11F15905   3.209   1.136   5.054  0.7463 -1.4469 -1.0421
  144OSM   H11G15906   3.297   1.055   5.198  2.6836 -0.1034  1.4914
  144OSM   C12F15907   3.377   1.028   5.001 -0.3456 -0.2661 -0.2787
  144OSM   H12F15908   3.321   0.933   4.992 -1.0318  0.3447 -4.4338
  144OSM   H12G15909   3.480   1.014   5.042 -0.8565 -1.1181  0.7584
  144OSM   C13F15910   3.382   1.072   4.856 -0.2405 -0.2319 -0.0695
  144OSM   H13F15911   3.413   1.179   4.848 -1.0448 -0.0435 -0.7848
  144OSM   H13G15912   3.280   1.058   4.815 -1.9842  0.1133  3.7315
  144OSM   C14F15913   3.493   0.992   4.773 -0.2523 -0.3023 -0.0233
  144OSM   H14F15914   3.595   1.005   4.814 -0.7104  0.7497  0.8484
  144OSM   H14G15915   3.505   1.023   4.667  1.3427 -0.1614  0.1681
  144OSM   C15F15916   3.458   0.840   4.781 -0.0914 -0.2526 -0.0625
  144OSM   H15F15917   3.354   0.825   4.744  0.4188 -3.0939 -0.5111
  144OSM   H15G15918   3.475   0.800   4.883 -1.7096  0.6318  0.6023
  144OSM   C16F15919   3.544   0.765   4.672  0.4769 -0.5158 -0.2226
  144OSM   H16F15920   3.526   0.818   4.575 -2.1225 -0.7980  0.0268
  144OSM   H16G15921   3.500   0.663   4.666  0.6924 -0.6811  0.9235
  144OSM   C17F15922   3.691   0.766   4.709 -0.1594 -0.3634 -0.8090
  144OSM   H17F15923   3.707   0.741   4.817  3.0147  2.1970 -0.5493
  144OSM   H17G15924   3.737   0.866   4.698  1.0266 -0.8960 -0.8784
  144OSM   C18F15925   3.766   0.668   4.621  0.1207 -0.1372  0.9662
  144OSM   H18F15926   3.869   0.660   4.662 -0.5048  0.1306  2.6797
  144OSM   H18G15927   3.771   0.690   4.512 -1.6454 -1.7962  0.4883
  144OSM   H18H15928   3.713   0.571   4.631  0.8371 -0.6042  0.2823
  145OSM      N15929   2.474   3.282   6.498  0.0127 -0.0154 -0.2390
  145OSM    C1515930   2.502   3.354   6.369 -0.3839  0.6032  0.3488
  145OSM   H15A15931   2.408   3.383   6.325 -0.1716  2.0932  0.8408
  145OSM   H15B15932   2.557   3.284   6.307  1.5376  0.5811  1.9856
  145OSM   H15C15933   2.563   3.442   6.381  1.0036  0.1144 -2.3951
  145OSM    C1415934   2.411   3.152   6.458 -0.1482 -0.7203  0.1856
  145OSM   H14A15935   2.402   3.087   6.544  1.4549 -0.0004  0.9239
  145OSM   H14B15936   2.480   3.098   6.394  0.4355 -2.1565  1.9382
  145OSM   H14C15937   2.311   3.164   6.420  0.3608  0.0061 -0.9664
  145OSM    C1315938   2.609   3.258   6.569 -0.3745 -0.0232 -0.0211
  145OSM   H13A15939   2.589   3.186   6.646 -3.6622 -0.9705 -1.5879
  145OSM   H13B15940   2.648   3.354   6.601  0.2049 -1.0281  2.5613
  145OSM   H13C15941   2.683   3.214   6.503 -0.4892  0.2382 -0.3235
  145OSM    C1215942   2.378   3.356   6.582  0.5592 -0.7285  0.3397
  145OSM   H12A15943   2.342   3.306   6.670  0.8765 -1.5787 -0.0080
  145OSM   H12B15944   2.289   3.372   6.524  0.5794  1.2984  0.7727
  145OSM    C1115945   2.430   3.497   6.633 -0.2218 -0.0228 -0.1448
  145OSM   H11A15946   2.522   3.479   6.692  1.5140  1.9583 -2.0410
  145OSM   H11B15947   2.347   3.534   6.697 -0.2322  2.0155 -1.2434
  145OSM      P15948   2.363   3.694   6.472 -0.4077 -0.2357 -0.0587
  145OSM    O1315949   2.308   3.783   6.574  0.3576  0.6957  0.1651
  145OSM    O1415950   2.433   3.762   6.359  0.0335  0.1394 -0.0264
  145OSM    O1115951   2.245   3.609   6.424 -0.2196  0.2549 -0.4458
  145OSM    O1215952   2.462   3.600   6.538 -0.1502  0.7471  0.0530
  145OSM    C1S15953   2.124   3.668   6.385  0.1872  1.0797  0.2414
  145OSM    H1S15954   2.123   3.778   6.401  2.0878  1.0870  0.5820
  145OSM    H1T15955   2.042   3.624   6.445 -1.2583  1.2828 -1.4814
  145OSM     NF15956   1.975   3.726   6.195 -0.1243 -0.4331 -0.2979
  145OSM    HNF15957   1.891   3.676   6.177 -1.7372  1.9652  0.1381
  145OSM    C2S15958   2.097   3.650   6.227 -0.4186  0.3904 -0.1480
  145OSM    H2S15959   2.184   3.696   6.175 -1.0802  0.1956 -1.4689
  145OSM    C3S15960   2.088   3.505   6.181  0.3919  0.2541  0.2718
  145OSM    H3S15961   2.004   3.459   6.236  0.1611 -0.3046 -0.5331
  145OSM     O315962   2.191   3.424   6.243  0.3208 -1.0414 -0.0789
  145OSM    HO315963   2.230   3.481   6.311 -2.1751  0.4798  0.2218
  145OSM    C4S15964   2.080   3.490   6.029  0.5095 -0.6184  0.0766
  145OSM    H4S15965   1.978   3.475   5.989 -0.3560  2.5258  0.8629
  145OSM    C5S15966   2.180   3.468   5.946 -0.0946 -0.2447 -0.3593
  145OSM    H5S15967   2.283   3.456   5.981  0.6543  1.5445 -1.7941
  145OSM    C6S15968   2.148   3.429   5.803 -0.8270  0.1031 -0.3195
  145OSM    H6S15969   2.039   3.432   5.782 -0.5185 -2.0191 -2.5304
  145OSM    H6T15970   2.176   3.323   5.790 -0.0195  0.4306 -1.3192
  145OSM    C7S15971   2.222   3.526   5.713 -0.1719  0.2019  0.4454
  145OSM    H7S15972   2.330   3.526   5.741 -0.1431 -1.1722  0.4025
  145OSM    H7T15973   2.199   3.635   5.720  1.6298  0.8543 -2.0741
  145OSM    C8S15974   2.196   3.491   5.564 -0.1278 -0.1193  0.0312
  145OSM    H8S15975   2.206   3.584   5.505 -1.1514 -0.1177 -0.1564
  145OSM    H8T15976   2.090   3.460   5.555 -0.2259  0.4712 -1.0668
  145OSM    C9S15977   2.303   3.389   5.517  0.0340 -0.7785  0.4431
  145OSM    H9S15978   2.286   3.297   5.577 -0.7136  0.1017  1.6214
  145OSM    H9T15979   2.401   3.439   5.526  0.5274 -1.6465  0.0133
  145OSM   C10S15980   2.297   3.363   5.365 -0.0487  0.6360 -0.6190
  145OSM   H10S15981   2.333   3.459   5.322 -0.5284  1.3659  0.5536
  145OSM   H10T15982   2.194   3.345   5.327 -0.9507 -0.6736  2.2526
  145OSM   C11S15983   2.394   3.259   5.308  0.2149 -0.5181 -0.3696
  145OSM   H11S15984   2.382   3.157   5.349  1.7775 -0.8031 -0.5473
  145OSM   H11T15985   2.498   3.289   5.335 -0.0986  2.8455 -2.2923
  145OSM   C12S15986   2.378   3.250   5.158 -0.9359  0.0758  0.2293
  145OSM   H12S15987   2.349   3.348   5.114  1.2025  0.9322  0.6104
  145OSM   H12T15988   2.303   3.172   5.132  1.7997 -2.6309 -0.1499
  145OSM   C13S15989   2.506   3.212   5.076 -0.4684  0.0804 -0.3589
  145OSM   H13S15990   2.561   3.124   5.116  0.2472  0.5074 -0.3789
  145OSM   H13T15991   2.574   3.297   5.101  1.6647 -2.4418  3.5804
  145OSM   C14S15992   2.489   3.190   4.930 -0.5132  0.3947 -0.0735
  145OSM   H14S15993   2.427   3.268   4.880  0.7521  2.3930  1.3354
  145OSM   H14T15994   2.434   3.094   4.913 -0.3819  0.3945 -0.5115
  145OSM   C15S15995   2.622   3.170   4.854  0.0346 -0.1039  0.8277
  145OSM   H15S15996   2.670   3.078   4.893 -0.1585 -0.0477  1.1975
  145OSM   H15T15997   2.689   3.249   4.895  0.9212 -1.5358  2.2401
  145OSM   C16S15998   2.610   3.171   4.698 -0.5333 -0.1643  0.5956
  145OSM   H16S15999   2.555   3.263   4.667 -0.4653 -0.0358  0.8488
  145OSM   H16T16000   2.567   3.078   4.657  0.3859 -0.2833 -0.1493
  145OSM   C17S16001   2.756   3.169   4.640  0.1766  0.3949 -0.4131
  145OSM   H17S16002   2.739   3.144   4.533  0.1876 -1.0084 -0.1024
  145OSM   H17T16003   2.825   3.095   4.686  1.2927  1.9853  0.5782
  145OSM   C18S16004   2.819   3.306   4.657  0.6649 -0.3232 -0.3082
  145OSM   H18S16005   2.753   3.385   4.616 -0.3866  0.3961  2.5456
  145OSM   H18T16006   2.921   3.303   4.612  1.2562 -0.7559  0.9806
  145OSM   H18U16007   2.842   3.319   4.765  1.4308 -0.4866 -0.4420
  145OSM    C1F16008   1.966   3.858   6.192  0.8601 -0.4211 -0.1860
  145OSM     OF16009   2.062   3.933   6.197  0.6062 -0.4999  0.0846
  145OSM    C2F16010   1.827   3.916   6.168 -0.3284 -0.0207 -0.1063
  145OSM    H2F16011   1.790   3.974   6.256 -1.4526  0.0574 -0.6150
  145OSM    H2G16012   1.755   3.832   6.167 -0.0877 -0.2630  1.2020
  145OSM    C3F16013   1.819   4.010   6.042  0.2249  0.0271 -0.4282
  145OSM    H3F16014   1.860   3.956   5.954  1.5293  0.1154  0.1033
  145OSM    H3G16015   1.902   4.080   6.065  1.0711 -0.6236 -1.4660
  145OSM    C4F16016   1.685   4.069   6.012  0.2412  0.3074 -0.6400
  145OSM    H4F16017   1.635   4.126   6.093  1.3383  0.6482 -0.1928
  145OSM    H4G16018   1.615   3.983   6.001 -1.9731  1.4670  2.8768
  145OSM    C5F16019   1.677   4.158   5.888 -0.3456  0.8486  0.8597
  145OSM    H5F16020   1.758   4.234   5.889 -0.6137  1.1407  0.4896
  145OSM    H5G16021   1.585   4.220   5.890 -0.4305  0.7109  1.2270
  145OSM    C6F16022   1.678   4.076   5.757 -0.5121  0.7259 -0.0423
  145OSM    H6F16023   1.571   4.047   5.749 -0.6825  1.4637 -0.5864
  145OSM    H6G16024   1.744   3.988   5.771 -0.1053  0.8687 -0.9809
  145OSM    C7F16025   1.735   4.157   5.646 -1.1585  0.1326  0.9366
  145OSM    H7F16026   1.842   4.183   5.665 -1.0387  0.5185 -0.1763
  145OSM    H7G16027   1.677   4.251   5.633 -1.0466  0.1667  0.6573
  145OSM    C8F16028   1.729   4.075   5.509  0.1358 -0.6627 -0.0823
  145OSM    H8F16029   1.788   3.982   5.524 -1.2572 -1.7167 -0.8957
  145OSM    H8G16030   1.787   4.137   5.438  0.4287 -0.0395  0.6830
  145OSM    C9F16031   1.590   4.053   5.460  0.0510  0.1309 -0.3035
  145OSM    H9F16032   1.531   3.979   5.516  0.6303  0.5279  0.8595
  145OSM   C10F16033   1.528   4.127   5.370 -0.3517 -0.9143  0.2810
  145OSM   H10F16034   1.425   4.108   5.338 -0.0309 -2.2649 -0.0382
  145OSM   C11F16035   1.574   4.243   5.285  0.2429 -0.5367  0.5899
  145OSM   H11F16036   1.674   4.284   5.310  0.7074  0.2125 -2.1824
  145OSM   H11G16037   1.502   4.328   5.285 -2.2100 -2.4869  1.9808
  145OSM   C12F16038   1.582   4.193   5.139 -0.1364  0.2584  0.3798
  145OSM   H12F16039   1.605   4.277   5.071 -2.7129  0.5593 -0.2107
  145OSM   H12G16040   1.484   4.154   5.105  0.4582 -0.7837 -0.1883
  145OSM   C13F16041   1.692   4.087   5.111  0.4369 -0.0346  0.2535
  145OSM   H13F16042   1.677   3.997   5.176 -0.9943 -1.9174 -2.5062
  145OSM   H13G16043   1.792   4.123   5.144  1.0462 -1.3318 -0.0829
  145OSM   C14F16044   1.705   4.044   4.964  0.3009 -0.1805  0.2982
  145OSM   H14F16045   1.604   4.004   4.938 -0.8061  2.9636 -0.8008
  145OSM   H14G16046   1.779   3.962   4.968 -0.8462 -1.4643 -2.3879
  145OSM   C15F16047   1.755   4.164   4.874 -0.4695  0.3637 -0.3579
  145OSM   H15F16048   1.845   4.220   4.909 -0.3437 -0.8205  1.2846
  145OSM   H15G16049   1.671   4.236   4.883  0.1613  0.8118  3.1774
  145OSM   C16F16050   1.779   4.128   4.729 -0.4310  0.6352  0.5820
  145OSM   H16F16051   1.773   4.211   4.655  0.8404  0.5841  0.3977
  145OSM   H16G16052   1.703   4.051   4.706 -0.5978  0.4082  1.8065
  145OSM   C17F16053   1.920   4.070   4.712  0.0662 -0.4551 -0.3897
  145OSM   H17F16054   1.924   3.990   4.788  0.0893  0.8227  1.0092
  145OSM   H17G16055   2.001   4.142   4.739 -0.1169 -0.5043  0.3005
  145OSM   C18F16056   1.952   4.017   4.574 -0.3031 -0.3302 -0.3678
  145OSM   H18F16057   1.945   4.108   4.511  1.0346 -0.1094 -0.2202
  145OSM   H18G16058   1.877   3.940   4.547 -0.7812  0.3606 -1.0281
  145OSM   H18H16059   2.055   3.977   4.581  0.0639  0.0759 -2.6675
  146OSM      N16060   1.692   6.847   6.816 -0.0532  0.5146 -0.5064
  146OSM    C1516061   1.551   6.877   6.771 -0.6008 -0.5569  0.6030
  146OSM   H15A16062   1.505   6.794   6.718 -2.4164  2.4448 -3.0090
  146OSM   H15B16063   1.541   6.959   6.701  1.8389 -2.9502 -2.9718
  146OSM   H15C16064   1.488   6.899   6.855 -0.8760 -0.9024  0.4905
  146OSM    C1416065   1.745   6.967   6.899 -0.4912  0.0190  0.2910
  146OSM   H14A16066   1.735   7.062   6.850 -2.0680  1.3014  2.8961
  146OSM   H14B16067   1.846   6.959   6.935 -0.7104 -0.2189  0.8676
  146OSM   H14C16068   1.689   6.971   6.991 -0.8869  0.8017  0.0243
  146OSM    C1316069   1.676   6.726   6.904  0.5193 -0.5697  0.6353
  146OSM   H13A16070   1.628   6.649   6.846  0.6537  0.8501 -1.4504
  146OSM   H13B16071   1.616   6.742   6.992  1.9070 -2.9463  2.1320
  146OSM   H13C16072   1.771   6.692   6.943  0.8894 -0.5763 -0.2493
  146OSM    C1216073   1.781   6.821   6.691 -0.8628 -0.2364 -1.1032
  146OSM   H12A16074   1.786   6.915   6.638 -0.8409 -0.2357 -1.0997
  146OSM   H12B16075   1.723   6.745   6.640  1.0895 -1.8840 -1.0023
  146OSM    C1116076   1.921   6.756   6.712  0.0130 -0.1177 -0.2507
  146OSM   H11A16077   1.975   6.818   6.786 -1.1800 -0.4096  0.9160
  146OSM   H11B16078   1.974   6.755   6.614  1.4524 -1.7774  0.4806
  146OSM      P16079   1.843   6.510   6.663 -0.1638 -0.1791 -0.2373
  146OSM    O1316080   1.953   6.424   6.626  0.2292  0.4826  0.0413
  146OSM    O1416081   1.725   6.448   6.737  0.3987  0.8059  0.5841
  146OSM    O1116082   1.789   6.582   6.539  0.3359 -0.2773  0.4586
  146OSM    O1216083   1.914   6.623   6.759  0.5105  0.1483 -0.0683
  146OSM    C1S16084   1.859   6.600   6.411 -1.0514  0.0931  1.0587
  146OSM    H1S16085   1.960   6.558   6.425 -1.0741 -0.5765 -0.5602
  146OSM    H1T16086   1.862   6.709   6.390  1.3492 -0.0472  0.4043
  146OSM     NF16087   1.864   6.528   6.174 -0.0402  0.1360  0.8221
  146OSM    HNF16088   1.827   6.601   6.118  1.3615 -0.6595 -1.2416
  146OSM    C2S16089   1.793   6.517   6.299  0.0569  0.1453 -0.1537
  146OSM    H2S16090   1.805   6.409   6.324  1.0368  0.2765 -0.0136
  146OSM    C3S16091   1.641   6.555   6.292 -0.0384  0.1738 -0.0430
  146OSM    H3S16092   1.630   6.664   6.273 -1.3224  0.7137  3.1874
  146OSM     O316093   1.563   6.523   6.398  0.3701  0.3427 -0.4004
  146OSM    HO316094   1.619   6.544   6.473  1.4193  1.9564 -1.5543
  146OSM    C4S16095   1.590   6.492   6.161 -0.3713 -0.1112 -0.5156
  146OSM    H4S16096   1.623   6.387   6.154 -0.3596 -0.1783  0.3515
  146OSM    C5S16097   1.527   6.553   6.062 -0.1850  0.1102  0.2106
  146OSM    H5S16098   1.493   6.652   6.097 -1.9062 -0.7237  1.0446
  146OSM    C6S16099   1.487   6.488   5.929  0.8859  0.3858 -0.2348
  146OSM    H6S16100   1.377   6.480   5.916  1.0273 -0.7262 -0.8555
  146OSM    H6T16101   1.522   6.383   5.928  0.7659  0.3495 -0.8821
  146OSM    C7S16102   1.526   6.562   5.796  0.5753  0.2621  0.4828
  146OSM    H7S16103   1.636   6.571   5.802  0.6597 -0.5726  0.2978
  146OSM    H7T16104   1.477   6.660   5.813  1.8555  1.0596 -0.3407
  146OSM    C8S16105   1.485   6.487   5.666 -0.6710  0.2290 -0.2361
  146OSM    H8S16106   1.377   6.465   5.653 -0.5417 -1.7005  1.4519
  146OSM    H8T16107   1.524   6.386   5.689 -2.1068 -0.1494  0.7025
  146OSM    C9S16108   1.545   6.551   5.545 -0.6378  0.3033 -0.4234
  146OSM    H9S16109   1.656   6.552   5.548 -0.5701  3.8454 -0.7566
  146OSM    H9T16110   1.500   6.652   5.543 -1.7059 -0.1371  0.1953
  146OSM   C10S16111   1.493   6.484   5.418 -0.5417 -0.7886  0.4065
  146OSM   H10S16112   1.384   6.465   5.428 -0.2375 -1.8274  2.2208
  146OSM   H10T16113   1.548   6.389   5.400  1.1331  0.1866  0.1372
  146OSM   C11S16114   1.517   6.555   5.284 -0.5040 -0.0619 -1.0001
  146OSM   H11S16115   1.610   6.615   5.281 -1.1948  1.0333 -1.1940
  146OSM   H11T16116   1.438   6.629   5.258 -0.2574 -0.0207 -1.6415
  146OSM   C12S16117   1.519   6.458   5.161 -0.3617  0.0665  0.2453
  146OSM   H12S16118   1.445   6.377   5.181  2.5317 -2.7542  0.4352
  146OSM   H12T16119   1.615   6.403   5.165 -0.1122  0.3226 -1.5791
  146OSM   C13S16120   1.494   6.530   5.029  0.7218  0.5726  0.5823
  146OSM   H13S16121   1.561   6.617   5.017  2.6003 -0.7180  1.3227
  146OSM   H13T16122   1.390   6.569   5.038  0.0765 -1.3125  2.1040
  146OSM   C14S16123   1.492   6.443   4.898 -0.7563 -0.2382 -0.7295
  146OSM   H14S16124   1.442   6.351   4.935  0.7451 -0.7949  0.0088
  146OSM   H14T16125   1.591   6.410   4.861 -1.1773 -1.6898 -0.6325
  146OSM   C15S16126   1.420   6.516   4.785 -0.0806  0.0036  1.1040
  146OSM   H15S16127   1.469   6.612   4.761  0.8769 -0.0486  2.7582
  146OSM   H15T16128   1.319   6.543   4.821  0.9832  0.6437  3.8237
  146OSM   C16S16129   1.416   6.434   4.650 -0.2795  0.2231 -0.5091
  146OSM   H16S16130   1.339   6.482   4.586  0.3142  0.0701 -1.3476
  146OSM   H16T16131   1.384   6.329   4.669 -0.4948  0.5123  0.8565
  146OSM   C17S16132   1.552   6.451   4.575  0.3762  0.0119  0.2782
  146OSM   H17S16133   1.635   6.402   4.630  0.6130 -0.5324 -0.5458
  146OSM   H17T16134   1.568   6.560   4.561  0.2811 -0.1242 -0.9892
  146OSM   C18S16135   1.557   6.393   4.432  0.0941 -0.2599  0.0425
  146OSM   H18S16136   1.550   6.282   4.433 -3.2865 -0.1810 -1.3221
  146OSM   H18T16137   1.657   6.403   4.384  1.6657 -0.6063  3.0406
  146OSM   H18U16138   1.472   6.434   4.372 -1.3516 -2.7732  0.2333
  146OSM    C1F16139   1.986   6.483   6.147 -0.1605  0.0965 -0.6930
  146OSM     OF16140   2.038   6.385   6.201  0.1096  0.0911  0.3768
  146OSM    C2F16141   2.056   6.552   6.040 -0.3429 -0.8192 -0.8274
  146OSM    H2F16142   2.156   6.505   6.025  0.8916  0.0109  3.5629
  146OSM    H2G16143   2.073   6.653   6.080 -0.8097 -0.5689 -1.2391
  146OSM    C3F16144   1.971   6.570   5.912  0.1024  0.6462  0.2340
  146OSM    H3F16145   1.876   6.623   5.936 -0.7040 -1.1563  1.2204
  146OSM    H3G16146   1.939   6.471   5.872 -0.3510  0.9846 -0.2438
  146OSM    C4F16147   2.060   6.628   5.800 -0.3423 -0.0219 -0.5258
  146OSM    H4F16148   2.150   6.563   5.802 -0.4091 -0.1199 -0.8115
  146OSM    H4G16149   2.085   6.735   5.818  0.2135 -0.2971  0.4047
  146OSM    C5F16150   1.989   6.611   5.662 -0.4984 -0.0397 -0.3276
  146OSM    H5F16151   1.890   6.660   5.670 -0.7743 -0.6142 -0.1398
  146OSM    H5G16152   1.957   6.506   5.648 -2.0293  0.3171  0.2420
  146OSM    C6F16153   2.063   6.658   5.542  0.1254  0.1040 -0.4880
  146OSM    H6F16154   2.161   6.606   5.529  0.7988  1.1909  0.0471
  146OSM    H6G16155   2.097   6.762   5.566 -0.5393  0.2619 -0.2315
  146OSM    C7F16156   1.978   6.646   5.418 -0.0842  0.0696 -0.1566
  146OSM    H7F16157   1.878   6.690   5.439  0.0149 -0.1731  0.9166
  146OSM    H7G16158   1.964   6.538   5.396  2.3929 -0.3051 -0.1633
  146OSM    C8F16159   2.032   6.716   5.292 -0.1934  0.0310 -0.2899
  146OSM    H8F16160   2.129   6.673   5.259 -0.6713 -0.5084 -0.9958
  146OSM    H8G16161   2.056   6.821   5.322 -1.2292  0.5102 -1.0750
  146OSM    C9F16162   1.929   6.715   5.180  0.1986  0.0300 -0.1564
  146OSM    H9F16163   1.846   6.783   5.204 -0.9177 -0.8819 -1.2170
  146OSM   C10F16164   1.931   6.643   5.067  0.3568 -0.3616  0.0772
  146OSM   H10F16165   1.859   6.674   4.991  3.3413 -1.4938 -3.4953
  146OSM   C11F16166   2.039   6.544   5.034  0.8313  0.6912 -0.3510
  146OSM   H11F16167   2.033   6.459   5.105 -1.1852 -0.7546 -2.1381
  146OSM   H11G16168   2.136   6.599   5.025  0.2129  1.6034 -1.9496
  146OSM   C12F16169   2.007   6.473   4.896 -0.3074 -0.4447  0.0503
  146OSM   H12F16170   1.908   6.424   4.905  0.1535 -1.1214  1.9842
  146OSM   H12G16171   2.072   6.384   4.892 -0.8801 -0.8914  0.4354
  146OSM   C13F16172   2.010   6.564   4.768  0.0088  0.0171 -0.0334
  146OSM   H13F16173   2.101   6.625   4.784 -0.4089  0.5150  0.5192
  146OSM   H13G16174   1.922   6.632   4.767  0.7219  1.0079  1.6172
  146OSM   C14F16175   2.026   6.481   4.639  0.8361 -0.0687  0.1213
  146OSM   H14F16176   2.123   6.429   4.635  0.7301 -0.3377  0.9836
  146OSM   H14G16177   1.944   6.405   4.642 -0.7565  1.5632 -0.1193
  146OSM   C15F16178   2.005   6.562   4.511  0.0255 -0.0381 -0.0180
  146OSM   H15F16179   2.085   6.640   4.510 -2.0018  2.1447 -0.6061
  146OSM   H15G16180   1.907   6.614   4.512 -1.0367 -1.9371  0.9002
  146OSM   C16F16181   2.018   6.483   4.386  0.4202 -0.2759 -0.9810
  146OSM   H16F16182   1.999   6.542   4.293 -0.8246  0.2162 -0.4321
  146OSM   H16G16183   1.943   6.401   4.376  0.3675 -0.5039  0.9664
  146OSM   C17F16184   2.161   6.438   4.370 -0.2354  0.5382 -0.2029
  146OSM   H17F16185   2.190   6.362   4.445  3.7372  0.9830 -1.0318
  146OSM   H17G16186   2.227   6.526   4.390  0.2948 -0.6569  4.2863
  146OSM   C18F16187   2.205   6.391   4.228  0.7194  1.1407 -0.0480
  146OSM   H18F16188   2.177   6.473   4.158 -1.3796 -0.2851 -0.9663
  146OSM   H18G16189   2.163   6.292   4.203 -2.0244  2.5399 -1.4465
  146OSM   H18H16190   2.315   6.376   4.226  0.4959 -0.9422  0.8557
  147OSM      N16191   3.137   0.894   1.709  0.4031  0.0080  0.5132
  147OSM    C1516192   3.155   0.940   1.565 -0.5187 -0.0908  0.7107
  147OSM   H15A16193   3.220   1.026   1.571 -0.9918  0.2461  1.1611
  147OSM   H15B16194   3.060   0.982   1.535 -0.1701  1.1798  1.3212
  147OSM   H15C16195   3.174   0.860   1.495 -3.3664 -0.5093  0.2657
  147OSM    C1416196   3.093   0.756   1.702  0.1153 -0.1288  0.1853
  147OSM   H14A16197   3.157   0.692   1.643 -0.2134 -0.2879 -0.0045
  147OSM   H14B16198   2.997   0.771   1.655  0.8056  2.5342 -0.5713
  147OSM   H14C16199   3.091   0.714   1.802  0.3189  1.3817  0.8571
  147OSM    C1316200   3.266   0.897   1.778 -0.5877 -0.4566  0.0034
  147OSM   H13A16201   3.263   0.847   1.874  0.0574  0.6977  0.6509
  147OSM   H13B16202   3.310   0.995   1.787 -1.4128 -0.0410 -0.4077
  147OSM   H13C16203   3.334   0.836   1.720 -2.3109 -0.3821 -2.2404
  147OSM    C1216204   3.053   1.002   1.777 -0.2160 -0.3102  0.0392
  147OSM   H12A16205   2.967   1.028   1.718 -1.1181  0.0500  1.4422
  147OSM   H12B16206   3.118   1.089   1.772  2.2766 -1.8340  2.4531
  147OSM    C1116207   3.017   0.981   1.929  0.0364  0.0863  0.1318
  147OSM   H11A16208   2.966   1.071   1.969 -0.5403  0.1602 -0.7468
  147OSM   H11B16209   3.113   0.973   1.984  0.8661  0.3127 -1.2257
  147OSM      P16210   2.797   0.865   1.917 -0.1391  0.2532 -0.4121
  147OSM    O1316211   2.769   0.971   1.815 -0.4529 -0.3265 -0.0774
  147OSM    O1416212   2.749   0.725   1.902 -0.0317 -0.2162  0.8715
  147OSM    O1116213   2.734   0.917   2.047 -0.1295 -0.0780 -0.6262
  147OSM    O1216214   2.951   0.856   1.951 -0.0673 -0.0023 -0.0767
  147OSM    C1S16215   2.807   0.886   2.165 -0.2248  0.2638  0.6221
  147OSM    H1S16216   2.902   0.943   2.159  0.6624 -1.2101  0.0116
  147OSM    H1T16217   2.822   0.776   2.174  1.2492  0.3377 -0.5588
  147OSM     NF16218   2.829   0.884   2.419 -0.3869  0.9119  0.2984
  147OSM    HNF16219   2.804   0.793   2.450 -0.0225 -0.1917 -2.3552
  147OSM    C2S16220   2.743   0.920   2.300  0.6297  0.1641 -0.1175
  147OSM    H2S16221   2.713   1.027   2.302 -0.7128 -0.2018  0.0949
  147OSM    C3S16222   2.604   0.845   2.311 -0.0568 -0.6618  0.4897
  147OSM    H3S16223   2.636   0.740   2.323 -0.1892 -0.6834  0.6575
  147OSM     O316224   2.520   0.856   2.195  0.1971  0.3130 -0.0297
  147OSM    HO316225   2.581   0.892   2.130 -0.1651  1.4256  0.2397
  147OSM    C4S16226   2.534   0.890   2.440  0.4589  0.2909  0.2003
  147OSM    H4S16227   2.547   0.995   2.466 -0.3136  0.7265 -1.0561
  147OSM    C5S16228   2.483   0.798   2.526 -0.5011  0.3564 -0.4466
  147OSM    H5S16229   2.496   0.692   2.501  0.4271 -0.0728  1.6554
  147OSM    C6S16230   2.415   0.802   2.659 -0.3840 -0.0014 -0.3419
  147OSM    H6S16231   2.408   0.908   2.690  0.5560  0.2853 -1.0342
  147OSM    H6T16232   2.477   0.744   2.731 -0.3561  1.8154  1.1594
  147OSM    C7S16233   2.276   0.752   2.671  0.1554 -0.3399  0.1295
  147OSM    H7S16234   2.273   0.640   2.671  1.3521 -0.4440 -2.2967
  147OSM    H7T16235   2.224   0.786   2.578  3.0338 -0.8938 -1.8214
  147OSM    C8S16236   2.195   0.801   2.790  0.0782 -0.4532  0.1504
  147OSM    H8S16237   2.091   0.763   2.781 -0.2604  0.5268 -0.1839
  147OSM    H8T16238   2.195   0.912   2.785 -1.2482 -0.3043  2.4679
  147OSM    C9S16239   2.253   0.740   2.919 -0.4680  0.3122 -0.4905
  147OSM    H9S16240   2.361   0.759   2.932 -0.6676  1.2946 -0.1435
  147OSM    H9T16241   2.240   0.630   2.915 -4.1623  0.6223 -1.5695
  147OSM   C10S16242   2.180   0.808   3.034 -0.0682  0.2805 -1.0087
  147OSM   H10S16243   2.073   0.804   3.005  0.0718 -0.8156 -1.4243
  147OSM   H10T16244   2.202   0.917   3.033 -1.1211  0.4979 -1.9842
  147OSM   C11S16245   2.198   0.737   3.173 -0.3196  0.3439  0.6052
  147OSM   H11S16246   2.305   0.735   3.204  0.6324  0.4202 -2.3653
  147OSM   H11T16247   2.187   0.628   3.157  1.8366  0.3738 -1.7119
  147OSM   C12S16248   2.105   0.788   3.278  1.0071 -0.4063 -0.2817
  147OSM   H12S16249   2.000   0.758   3.257 -0.1864  3.2066 -0.1154
  147OSM   H12T16250   2.097   0.898   3.281 -3.9446 -0.4504 -2.5510
  147OSM   C13S16251   2.145   0.729   3.411  0.2034  0.2961  0.8864
  147OSM   H13S16252   2.256   0.734   3.414  0.4068 -2.6008  0.8113
  147OSM   H13T16253   2.120   0.621   3.413 -0.1986  0.3573 -0.1987
  147OSM   C14S16254   2.090   0.805   3.539  0.8546 -0.6508 -0.0040
  147OSM   H14S16255   1.980   0.821   3.533  1.1097  0.9731 -1.1627
  147OSM   H14T16256   2.134   0.906   3.525 -0.4832 -0.0701 -0.1695
  147OSM   C15S16257   2.132   0.742   3.676  0.1777 -0.2500  0.2200
  147OSM   H15S16258   2.219   0.676   3.660  1.5157  1.9303 -2.3756
  147OSM   H15T16259   2.048   0.680   3.715  0.7506 -1.1852 -0.0095
  147OSM   C16S16260   2.175   0.849   3.785  0.1697  0.6248  0.5695
  147OSM   H16S16261   2.107   0.937   3.784  1.8207  1.9701  0.8755
  147OSM   H16T16262   2.276   0.888   3.760  0.9560 -2.0750 -0.8197
  147OSM   C17S16263   2.182   0.783   3.922  0.7041 -0.3199  0.2338
  147OSM   H17S16264   2.257   0.702   3.924 -1.1533 -2.1159  2.0634
  147OSM   H17T16265   2.079   0.742   3.926  0.1067  1.1897  1.7218
  147OSM   C18S16266   2.226   0.878   4.030  0.8525  0.3141  0.5160
  147OSM   H18S16267   2.141   0.947   4.050 -0.3221 -0.4107 -1.6285
  147OSM   H18T16268   2.304   0.950   3.998 -1.2022  2.0595 -0.9079
  147OSM   H18U16269   2.262   0.830   4.123  0.4987  0.3896  0.6958
  147OSM    C1F16270   2.933   0.959   2.449 -0.5131 -0.6299  0.1067
  147OSM     OF16271   2.947   1.064   2.385 -0.6575 -0.9677 -0.1330
  147OSM    C2F16272   3.038   0.914   2.548 -0.2570 -0.5077 -0.4125
  147OSM    H2F16273   3.113   0.845   2.504  1.1173  0.8238 -0.2499
  147OSM    H2G16274   2.982   0.865   2.630 -1.7232  0.6253 -0.6884
  147OSM    C3F16275   3.127   1.024   2.606 -0.3649  0.1279  0.2820
  147OSM    H3F16276   3.193   1.070   2.529  0.1851  0.3197  0.8694
  147OSM    H3G16277   3.185   0.980   2.689  0.1183  1.5478  0.7171
  147OSM    C4F16278   3.058   1.131   2.682  0.7154  0.5832  0.0981
  147OSM    H4F16279   2.981   1.082   2.745 -0.1393  0.4961 -0.9962
  147OSM    H4G16280   3.013   1.201   2.609  1.4041  1.4601  0.4904
  147OSM    C5F16281   3.150   1.219   2.766  0.7669 -0.8847  0.2441
  147OSM    H5F16282   3.074   1.283   2.816  0.2495 -2.4059  1.5087
  147OSM    H5G16283   3.222   1.280   2.708  1.3241 -1.8597 -0.1192
  147OSM    C6F16284   3.216   1.141   2.879 -0.4639  0.2340 -0.7231
  147OSM    H6F16285   3.252   1.219   2.950  1.3995 -2.5529  1.6529
  147OSM    H6G16286   3.300   1.078   2.846  1.4942  0.9672  2.4513
  147OSM    C7F16287   3.116   1.047   2.946 -0.0776  0.1235 -0.7928
  147OSM    H7F16288   3.100   0.957   2.884  1.5888 -1.4306  0.8924
  147OSM    H7G16289   3.020   1.099   2.968  0.2622 -0.0286  1.2915
  147OSM    C8F16290   3.158   1.010   3.090  0.1552  0.3315  0.3004
  147OSM    H8F16291   3.202   1.102   3.135  0.2584  0.1872  0.4973
  147OSM    H8G16292   3.240   0.936   3.077 -1.1990 -1.1234 -0.1944
  147OSM    C9F16293   3.055   0.945   3.182  0.2030 -0.0119  0.0031
  147OSM    H9F16294   2.955   0.953   3.137  1.9688  2.0608 -3.9805
  147OSM   C10F16295   3.076   0.897   3.306 -1.2877 -0.2486 -0.7355
  147OSM   H10F16296   2.997   0.840   3.358 -1.4343  2.2986  2.1281
  147OSM   C11F16297   3.210   0.882   3.374 -0.2778 -0.3864  0.6346
  147OSM   H11F16298   3.283   0.943   3.316 -1.9659  1.2734  0.1219
  147OSM   H11G16299   3.245   0.778   3.355  0.0908 -0.3325  1.0034
  147OSM   C12F16300   3.234   0.905   3.530 -0.1810  0.0580 -0.3671
  147OSM   H12F16301   3.243   1.012   3.557  1.0270 -0.5050  1.7547
  147OSM   H12G16302   3.334   0.862   3.551 -0.5369 -0.4721  0.3122
  147OSM   C13F16303   3.136   0.831   3.618  0.6791  0.5939 -0.2401
  147OSM   H13F16304   3.120   0.724   3.592 -1.6965  0.3897  1.7522
  147OSM   H13G16305   3.036   0.880   3.618 -0.0146 -0.7803 -0.2218
  147OSM   C14F16306   3.168   0.827   3.764  0.0869 -0.5791 -0.6513
  147OSM   H14F16307   3.172   0.931   3.803 -1.2792 -0.0121 -1.9062
  147OSM   H14G16308   3.265   0.774   3.772 -1.0322 -2.6512  0.2250
  147OSM   C15F16309   3.072   0.739   3.848  0.4018 -0.6264 -0.2550
  147OSM   H15F16310   2.967   0.775   3.837  0.2713  0.1123  2.7087
  147OSM   H15G16311   3.098   0.757   3.954 -1.9961 -0.2603  0.3308
  147OSM   C16F16312   3.089   0.590   3.820  0.2776  0.3697  0.1865
  147OSM   H16F16313   3.194   0.556   3.822  0.2838 -0.0965 -2.9600
  147OSM   H16G16314   3.049   0.561   3.720 -2.0292 -1.2945  1.4952
  147OSM   C17F16315   3.002   0.504   3.915  1.1263 -0.1852  0.0035
  147OSM   H17F16316   2.998   0.401   3.872  0.7262 -0.3689  0.4635
  147OSM   H17G16317   2.896   0.539   3.917  1.6765  1.5852  2.2962
  147OSM   C18F16318   3.060   0.506   4.056  0.3381 -0.5477  0.5521
  147OSM   H18F16319   3.045   0.610   4.093 -1.5590  0.3244 -2.3342
  147OSM   H18G16320   3.167   0.481   4.043  0.7629  1.9558 -1.5820
  147OSM   H18H16321   3.000   0.446   4.127  0.5389 -1.3168  0.0836
  148OSM      N16322   4.446   2.931   2.057  0.0742  0.1781 -0.1430
  148OSM    C1516323   4.552   2.822   2.041 -0.4470  0.8661 -0.3132
  148OSM   H15A16324   4.641   2.870   2.079 -0.6337  0.3011  0.9006
  148OSM   H15B16325   4.566   2.794   1.938  1.3162  0.9389 -0.1231
  148OSM   H15C16326   4.516   2.743   2.105 -1.7111  1.9474  0.3545
  148OSM    C1416327   4.422   2.949   2.204  0.0875  0.1303  0.6142
  148OSM   H14A16328   4.392   2.858   2.254 -2.3483  0.1967 -0.5982
  148OSM   H14B16329   4.339   3.016   2.218 -0.8434 -0.8778  0.0937
  148OSM   H14C16330   4.518   2.975   2.245  0.1475  2.0049 -0.6014
  148OSM    C1316331   4.496   3.060   1.998 -0.4357  0.7221 -0.2591
  148OSM   H13A16332   4.424   3.140   2.009 -0.1963  0.8413  0.5067
  148OSM   H13B16333   4.523   3.050   1.894 -1.1711  2.9185 -0.7243
  148OSM   H13C16334   4.585   3.094   2.049 -1.1223  0.8803  0.8851
  148OSM    C1216335   4.316   2.884   1.988  0.0256 -0.1507 -0.1635
  148OSM   H12A16336   4.284   2.788   2.028 -1.4780  0.5309  0.3237
  148OSM   H12B16337   4.333   2.874   1.882 -2.8816 -0.9810 -0.6310
  148OSM    C1116338   4.197   2.984   1.983 -0.2040  0.0267  0.0640
  148OSM   H11A16339   4.127   2.950   1.904 -0.2745 -1.7347  0.8512
  148OSM   H11B16340   4.236   3.085   1.955 -0.4583 -0.1452 -0.9683
  148OSM      P16341   4.049   2.876   2.153 -0.0387 -0.0634  0.0939
  148OSM    O1316342   3.925   2.893   2.075  0.8599  0.0577 -0.2992
  148OSM    O1416343   4.123   2.750   2.136  0.2364  0.3298 -0.4462
  148OSM    O1116344   4.017   2.895   2.306 -0.5477  0.4037  0.2157
  148OSM    O1216345   4.133   3.001   2.114 -0.0459 -0.1489 -0.0396
  148OSM    C1S16346   4.052   3.011   2.380  0.1131 -0.5710 -0.3694
  148OSM    H1S16347   4.026   3.108   2.332  2.8201  0.0927 -0.6483
  148OSM    H1T16348   4.162   3.020   2.386  0.4268 -2.7410 -1.7885
  148OSM     NF16349   3.989   3.132   2.585  0.2974 -0.2035  0.3860
  148OSM    HNF16350   4.056   3.151   2.655  0.9401 -0.6048 -0.1008
  148OSM    C2S16351   3.979   3.007   2.521 -0.5775  1.0194 -0.1720
  148OSM    H2S16352   3.873   2.976   2.506 -0.5341  0.5023  0.5428
  148OSM    C3S16353   4.042   2.888   2.602  0.5241  0.1193 -0.3763
  148OSM    H3S16354   4.151   2.910   2.606  0.8940 -1.7150  0.3931
  148OSM     O316355   4.044   2.759   2.536  0.0248 -0.2624  0.1710
  148OSM    HO316356   4.005   2.791   2.454 -0.9161  0.9221  1.0324
  148OSM    C4S16357   3.996   2.876   2.749 -0.3445  1.3733 -0.4403
  148OSM    H4S16358   4.062   2.933   2.816 -1.5914  0.0726  2.0576
  148OSM    C5S16359   3.913   2.790   2.823  0.2288 -0.2923  0.0987
  148OSM    H5S16360   3.873   2.703   2.768 -0.4671  0.6149 -0.8756
  148OSM    C6S16361   3.880   2.786   2.965  0.0462 -0.0118  0.2542
  148OSM    H6S16362   3.772   2.771   2.986  0.5100 -2.4657  1.2823
  148OSM    H6T16363   3.901   2.880   3.020  4.0108  0.6010 -1.8950
  148OSM    C7S16364   3.953   2.666   3.035 -0.5934 -0.8674  0.4363
  148OSM    H7S16365   4.059   2.696   3.024 -0.9441 -0.3399 -2.3429
  148OSM    H7T16366   3.924   2.571   2.985 -0.8166 -0.7996  0.4338
  148OSM    C8S16367   3.920   2.647   3.189 -0.2603 -0.3530 -0.9020
  148OSM    H8S16368   3.948   2.540   3.203  1.4574  0.3996  2.2568
  148OSM    H8T16369   3.809   2.655   3.193 -0.1900 -0.0056  1.4554
  148OSM    C9S16370   4.003   2.731   3.290  0.3247 -0.5459 -0.3009
  148OSM    H9S16371   4.013   2.834   3.249  3.0809 -0.9060 -0.7461
  148OSM    H9T16372   4.108   2.698   3.301  0.2981 -0.8297 -0.8793
  148OSM   C10S16373   3.945   2.730   3.432  0.2617 -0.3787 -0.6305
  148OSM   H10S16374   3.834   2.731   3.426  0.0332 -0.5851  2.4188
  148OSM   H10T16375   3.988   2.814   3.488 -0.2353 -1.8552  2.1258
  148OSM   C11S16376   3.989   2.619   3.520 -0.9075 -0.1627  0.4957
  148OSM   H11S16377   4.099   2.601   3.512 -0.6372  0.9970  1.2053
  148OSM   H11T16378   3.937   2.529   3.480 -0.9197  0.2656 -0.4990
  148OSM   C12S16379   3.963   2.625   3.676  0.2639  0.3768  0.1791
  148OSM   H12S16380   3.876   2.693   3.689  1.0877  1.5459 -0.2421
  148OSM   H12T16381   4.050   2.678   3.720 -0.7165  0.9662  1.4824
  148OSM   C13S16382   3.964   2.490   3.753 -0.0339  0.0483  0.4334
  148OSM   H13S16383   4.064   2.442   3.740  0.4237  1.3786 -1.5360
  148OSM   H13T16384   3.897   2.422   3.696  0.3619  1.4331 -1.8348
  148OSM   C14S16385   3.928   2.499   3.896 -0.6089  0.0749 -0.1453
  148OSM   H14S16386   3.835   2.557   3.913  0.7144  1.9945  0.9786
  148OSM   H14T16387   4.009   2.554   3.949  0.0815 -1.8085  0.8801
  148OSM   C15S16388   3.920   2.365   3.966 -0.4883  0.2420  0.5272
  148OSM   H15S16389   4.015   2.308   3.954 -2.5585 -3.5761  0.7194
  148OSM   H15T16390   3.840   2.306   3.917 -0.9752  0.5202  0.9799
  148OSM   C16S16391   3.882   2.386   4.116  0.0714  0.0822  0.3751
  148OSM   H16S16392   3.806   2.467   4.122 -0.2336 -0.2050  0.4010
  148OSM   H16T16393   3.962   2.450   4.160 -1.0148  1.5204  0.3554
  148OSM   C17S16394   3.845   2.264   4.204 -0.7232 -0.2033  0.3898
  148OSM   H17S16395   3.767   2.209   4.148 -0.2737  1.2621 -1.8413
  148OSM   H17T16396   3.793   2.293   4.297 -2.3456  2.4920 -1.2279
  148OSM   C18S16397   3.966   2.177   4.235 -0.4942 -0.2091 -0.5114
  148OSM   H18S16398   4.052   2.245   4.253 -1.2475  0.4220  0.7994
  148OSM   H18T16399   3.975   2.101   4.154  0.2316 -1.3912  0.6520
  148OSM   H18U16400   3.952   2.114   4.325  3.3241 -0.4537  0.0500
  148OSM    C1F16401   3.915   3.237   2.547  0.2268 -0.0675  0.3694
  148OSM     OF16402   3.829   3.220   2.466  0.1275 -0.1850 -0.0302
  148OSM    C2F16403   3.954   3.365   2.604  0.4236  0.2842  0.4151
  148OSM    H2F16404   4.010   3.407   2.518 -0.6123 -3.0987 -2.1365
  148OSM    H2G16405   4.025   3.351   2.689 -0.0922 -0.0070  0.8016
  148OSM    C3F16406   3.836   3.460   2.644 -0.6714 -0.2924  0.7295
  148OSM    H3F16407   3.773   3.407   2.719 -0.2899  0.0984  1.3298
  148OSM    H3G16408   3.764   3.480   2.562  2.3698  2.1509 -1.5746
  148OSM    C4F16409   3.875   3.600   2.699  0.4920  0.3313  0.4496
  148OSM    H4F16410   3.906   3.655   2.608  0.8697 -1.0636 -0.2907
  148OSM    H4G16411   3.972   3.601   2.754  0.0748  0.9952  1.2018
  148OSM    C5F16412   3.777   3.683   2.783 -0.4883  0.3853  1.1637
  148OSM    H5F16413   3.674   3.689   2.743 -0.0515  2.0039  0.1554
  148OSM    H5G16414   3.817   3.787   2.782 -0.6683  0.4689  2.0404
  148OSM    C6F16415   3.765   3.638   2.925  0.0072  0.9091 -0.2183
  148OSM    H6F16416   3.855   3.637   2.990 -0.2687 -0.0763  0.1684
  148OSM    H6G16417   3.732   3.532   2.928 -2.6080  1.5616 -2.0534
  148OSM    C7F16418   3.657   3.722   2.999  0.0706  0.1180  0.6323
  148OSM    H7F16419   3.557   3.719   2.952 -0.3209 -1.4179  1.4925
  148OSM    H7G16420   3.682   3.830   3.003  3.1495 -0.4086 -1.0053
  148OSM    C8F16421   3.639   3.678   3.148 -0.1538  0.0269 -0.0372
  148OSM    H8F16422   3.574   3.754   3.196  0.2794  0.4120 -0.0613
  148OSM    H8G16423   3.737   3.693   3.198 -0.1872 -0.2556  0.1164
  148OSM    C9F16424   3.589   3.537   3.173 -0.1060  0.5732  0.4726
  148OSM    H9F16425   3.639   3.459   3.114 -1.3319 -0.7448  1.1469
  148OSM   C10F16426   3.491   3.497   3.262 -1.0575 -0.5494  0.2902
  148OSM   H10F16427   3.464   3.390   3.266 -1.1621 -0.5625 -0.5447
  148OSM   C11F16428   3.404   3.583   3.357 -0.1430  0.2013  0.3179
  148OSM   H11F16429   3.322   3.628   3.297  0.7395  2.6656  0.8573
  148OSM   H11G16430   3.470   3.669   3.382  1.1303 -0.1899 -1.4960
  148OSM   C12F16431   3.365   3.524   3.491 -0.5207  0.6225 -0.2868
  148OSM   H12F16432   3.461   3.494   3.538  0.3012  3.1616 -0.2024
  148OSM   H12G16433   3.308   3.429   3.477  1.1451 -1.0294  3.0396
  148OSM   C13F16434   3.285   3.617   3.581 -0.0810 -0.3451  0.0773
  148OSM   H13F16435   3.191   3.639   3.526  1.6646  0.5994 -2.6741
  148OSM   H13G16436   3.338   3.713   3.599  0.2893 -0.4341 -0.5352
  148OSM   C14F16437   3.258   3.563   3.719  0.0562  0.7242  0.4265
  148OSM   H14F16438   3.181   3.627   3.767 -1.6019  0.1510 -1.2976
  148OSM   H14G16439   3.350   3.568   3.780  1.4127 -0.4512 -1.3974
  148OSM   C15F16440   3.203   3.423   3.719 -0.2024  0.0302 -0.0574
  148OSM   H15F16441   3.274   3.340   3.698  1.3155  0.9132  1.2605
  148OSM   H15G16442   3.131   3.427   3.635 -0.1759  1.1345 -0.0502
  148OSM   C16F16443   3.148   3.384   3.853  0.0734  0.3203 -0.3873
  148OSM   H16F16444   3.097   3.473   3.896  2.6438  1.5794  0.1910
  148OSM   H16G16445   3.239   3.359   3.912  1.4070  1.4075 -1.9066
  148OSM   C17F16446   3.065   3.258   3.847  0.4999 -0.3402 -0.5070
  148OSM   H17F16447   2.974   3.287   3.791  1.4551  2.4529 -0.7784
  148OSM   H17G16448   3.037   3.242   3.954 -0.0081  2.2269 -0.1880
  148OSM   C18F16449   3.139   3.135   3.792 -0.3361  0.6594  0.6098
  148OSM   H18F16450   3.082   3.043   3.818 -0.1478  0.0725 -0.9410
  148OSM   H18G16451   3.248   3.138   3.812 -0.4657  1.7762  1.2135
  148OSM   H18H16452   3.120   3.136   3.682 -1.3151  0.5181  0.7660
  149OSM      N16453   3.324   5.567   2.209 -0.4115  0.3397 -0.7175
  149OSM    C1516454   3.368   5.712   2.228  0.1311  0.0063 -0.0570
  149OSM   H15A16455   3.292   5.764   2.284 -0.4552 -0.7125 -0.1706
  149OSM   H15B16456   3.347   5.762   2.135 -0.1866  2.2338  1.1240
  149OSM   H15C16457   3.464   5.729   2.275  0.5099 -0.4706 -0.6511
  149OSM    C1416458   3.408   5.504   2.102  1.1486 -0.1590 -0.3890
  149OSM   H14A16459   3.368   5.410   2.067 -1.5858  1.1626 -1.0726
  149OSM   H14B16460   3.515   5.509   2.116  0.9497  0.8548  0.9428
  149OSM   H14C16461   3.400   5.568   2.015  0.5229 -0.3030 -0.4407
  149OSM    C1316462   3.339   5.489   2.338 -0.1895  0.5573  0.0916
  149OSM   H13A16463   3.312   5.387   2.316  2.4880  0.2472 -2.4607
  149OSM   H13B16464   3.279   5.539   2.413  2.4686  0.0358  2.7341
  149OSM   H13C16465   3.438   5.491   2.380 -0.5178 -0.5779  0.9557
  149OSM    C1216466   3.176   5.564   2.177  0.1213  0.1112  0.2377
  149OSM   H12A16467   3.144   5.461   2.177  1.7182 -0.4213  1.8394
  149OSM   H12B16468   3.160   5.614   2.082  0.3387 -0.1047  0.0853
  149OSM    C1116469   3.090   5.637   2.289 -0.0537  0.4245  0.1272
  149OSM   H11A16470   3.136   5.629   2.390  0.8739  0.2819 -0.2995
  149OSM   H11B16471   3.000   5.573   2.289  0.3715 -0.1851 -1.0534
  149OSM      P16472   3.043   5.886   2.363  0.2253  0.7680 -0.3526
  149OSM    O1316473   3.015   6.020   2.306 -0.4168 -0.4833  0.1805
  149OSM    O1416474   2.945   5.831   2.460  1.1946 -0.0629 -0.4366
  149OSM    O1116475   3.187   5.887   2.421  0.2092  0.8083 -0.4484
  149OSM    O1216476   3.064   5.771   2.245  0.3295 -0.5525  0.5456
  149OSM    C1S16477   3.233   5.998   2.506 -0.0152  0.3793 -1.1732
  149OSM    H1S16478   3.156   6.077   2.514 -1.3392 -0.9231 -0.4768
  149OSM    H1T16479   3.332   6.035   2.474  1.9810 -2.0280  1.6472
  149OSM     NF16480   3.250   6.051   2.745  0.6726  0.6991 -0.3231
  149OSM    HNF16481   3.331   6.080   2.796  0.7979  0.6351 -0.4833
  149OSM    C2S16482   3.256   5.945   2.649  0.3656 -0.1608  0.3205
  149OSM    H2S16483   3.177   5.885   2.698  1.0235 -0.3296  1.2002
  149OSM    C3S16484   3.380   5.851   2.653 -0.0621  0.0204 -0.1329
  149OSM    H3S16485   3.468   5.908   2.615  2.3616 -3.2571  0.0708
  149OSM     O316486   3.369   5.747   2.556 -0.0893 -0.3694  0.4261
  149OSM    HO316487   3.316   5.786   2.486  0.7487 -0.2223 -0.1347
  149OSM    C4S16488   3.398   5.807   2.797 -0.6462  0.3974 -0.1798
  149OSM    H4S16489   3.493   5.843   2.838 -0.5057  0.2275 -0.3578
  149OSM    C5S16490   3.322   5.717   2.867 -0.0541 -0.2246  0.2063
  149OSM    H5S16491   3.246   5.655   2.818  0.7962 -1.0492 -0.0981
  149OSM    C6S16492   3.352   5.669   3.002  0.3489  0.5898  0.2998
  149OSM    H6S16493   3.454   5.627   2.997  0.3649  0.4879  1.2993
  149OSM    H6T16494   3.287   5.580   3.019 -0.0768  0.4131 -1.8706
  149OSM    C7S16495   3.352   5.767   3.108  0.3876 -0.2343  0.2399
  149OSM    H7S16496   3.255   5.816   3.128  0.7151  1.3435 -1.7462
  149OSM    H7T16497   3.424   5.848   3.084  0.3865 -0.3948 -0.3081
  149OSM    C8S16498   3.407   5.691   3.231 -0.0600  0.2638  1.1741
  149OSM    H8S16499   3.508   5.659   3.196 -1.1165 -2.2493  0.2548
  149OSM    H8T16500   3.343   5.602   3.245 -2.0965  1.5430  0.4074
  149OSM    C9S16501   3.405   5.774   3.359 -0.2663  0.4998 -0.2989
  149OSM    H9S16502   3.299   5.802   3.376  0.2496  1.7095  1.0484
  149OSM    H9T16503   3.470   5.864   3.354  1.7642 -0.8504  0.3759
  149OSM   C10S16504   3.459   5.699   3.481  0.1348  0.3668  0.1338
  149OSM   H10S16505   3.550   5.643   3.449 -0.3200 -0.3242  0.0331
  149OSM   H10T16506   3.387   5.628   3.526  1.9874  0.2412  3.2282
  149OSM   C11S16507   3.486   5.783   3.595 -0.5167  0.1527 -0.0217
  149OSM   H11S16508   3.393   5.836   3.622 -0.9357  0.3837 -1.7552
  149OSM   H11T16509   3.568   5.853   3.570  0.4442 -0.7751  0.4221
  149OSM   C12S16510   3.531   5.705   3.720  0.0322  0.5504 -0.2975
  149OSM   H12S16511   3.613   5.640   3.682 -0.9725  0.2167 -2.0238
  149OSM   H12T16512   3.454   5.632   3.753  1.3165 -1.3141 -1.2855
  149OSM   C13S16513   3.580   5.795   3.836 -0.1838  0.5285  0.2916
  149OSM   H13S16514   3.524   5.890   3.845 -0.2068  0.6889 -1.2309
  149OSM   H13T16515   3.686   5.821   3.817 -1.0217  3.3024 -1.1675
  149OSM   C14S16516   3.580   5.729   3.975 -0.1496  0.3614 -0.2482
  149OSM   H14S16517   3.654   5.646   3.980  0.0829  0.6363  1.2746
  149OSM   H14T16518   3.474   5.698   3.987  0.0909 -0.3428  0.1264
  149OSM   C15S16519   3.632   5.820   4.087 -0.3769  0.1733  0.4239
  149OSM   H15S16520   3.583   5.917   4.063 -2.3038 -0.8152  0.2127
  149OSM   H15T16521   3.743   5.814   4.087 -0.3714  0.1342  1.4462
  149OSM   C16S16522   3.587   5.767   4.224 -0.1558 -0.5557  0.7236
  149OSM   H16S16523   3.599   5.656   4.227  1.3812 -0.5349 -1.9806
  149OSM   H16T16524   3.477   5.783   4.221  0.0543  1.0156  0.4735
  149OSM   C17S16525   3.665   5.836   4.344 -0.1130 -0.5776  0.4529
  149OSM   H17S16526   3.607   5.825   4.438  0.6013 -1.7494  0.7710
  149OSM   H17T16527   3.672   5.946   4.327  0.7793 -0.6808  0.1148
  149OSM   C18S16528   3.808   5.793   4.380 -1.1236 -0.1087  0.2648
  149OSM   H18S16529   3.807   5.694   4.430  2.0052  0.4899  1.7596
  149OSM   H18T16530   3.857   5.864   4.450 -2.9326  1.4942 -0.0238
  149OSM   H18U16531   3.879   5.796   4.294  0.1276  0.0274  1.2622
  149OSM    C1F16532   3.137   6.125   2.755  0.6342 -0.5575  0.0167
  149OSM     OF16533   3.025   6.090   2.714  0.2375  0.2409 -0.2159
  149OSM    C2F16534   3.155   6.261   2.815  0.1109  0.5026  0.7819
  149OSM    H2F16535   3.130   6.341   2.741  0.9643  1.8092  1.8661
  149OSM    H2G16536   3.257   6.277   2.854  1.1883 -1.8223 -0.8709
  149OSM    C3F16537   3.061   6.279   2.937 -0.0408  0.3063  0.0327
  149OSM    H3F16538   2.957   6.287   2.899  0.9048 -0.4591 -3.0222
  149OSM    H3G16539   3.092   6.377   2.982  2.6144 -1.3205  2.0877
  149OSM    C4F16540   3.085   6.174   3.049  0.4413  0.2738 -0.1467
  149OSM    H4F16541   3.108   6.071   3.014  1.6296  0.3313  0.4117
  149OSM    H4G16542   2.987   6.175   3.103  0.6301  0.8561  0.1973
  149OSM    C5F16543   3.191   6.225   3.147 -0.7850 -0.4487 -0.1409
  149OSM    H5F16544   3.176   6.332   3.169  0.9904 -0.2885  0.4369
  149OSM    H5G16545   3.291   6.221   3.100 -0.7715  1.4118 -0.3338
  149OSM    C6F16546   3.198   6.129   3.269  0.2367 -0.0894 -0.1660
  149OSM    H6F16547   3.204   6.023   3.236 -0.8983 -0.2632  0.1461
  149OSM    H6G16548   3.099   6.141   3.318 -0.5113 -0.0596 -1.6414
  149OSM    C7F16549   3.325   6.155   3.348 -0.3605 -0.5589 -0.4747
  149OSM    H7F16550   3.345   6.264   3.356  0.3682 -0.7475  0.5165
  149OSM    H7G16551   3.405   6.106   3.288 -2.2032 -1.1146 -2.5801
  149OSM    C8F16552   3.315   6.108   3.497  0.4134 -0.6701 -0.1790
  149OSM    H8F16553   3.305   5.997   3.496  2.7158 -0.9576  0.9529
  149OSM    H8G16554   3.217   6.153   3.524  1.6214  1.4714  0.9433
  149OSM    C9F16555   3.437   6.149   3.581  0.3349 -0.7145  0.1461
  149OSM    H9F16556   3.538   6.150   3.537  0.9523  2.4284  1.3720
  149OSM   C10F16557   3.442   6.197   3.703  0.0992 -0.7771 -0.2317
  149OSM   H10F16558   3.538   6.226   3.748 -0.0655  1.3518 -1.1413
  149OSM   C11F16559   3.317   6.197   3.790 -0.0853  0.1664 -0.7070
  149OSM   H11F16560   3.329   6.124   3.873 -1.4792 -0.4658 -1.0240
  149OSM   H11G16561   3.227   6.161   3.735 -0.7031  0.6584 -0.0508
  149OSM   C12F16562   3.282   6.322   3.872 -0.5718  0.3850 -0.2237
  149OSM   H12F16563   3.202   6.322   3.949  2.2355  0.0338  2.9281
  149OSM   H12G16564   3.246   6.407   3.810 -0.9147  0.9043  0.6579
  149OSM   C13F16565   3.412   6.368   3.948 -0.6051 -0.0912  0.3305
  149OSM   H13F16566   3.388   6.456   4.011  0.3488  2.9197 -3.1634
  149OSM   H13G16567   3.494   6.419   3.893 -3.3730  2.5285 -1.6886
  149OSM   C14F16568   3.473   6.261   4.041  0.4536 -0.0546  0.4805
  149OSM   H14F16569   3.559   6.309   4.093  1.6910 -1.5604 -0.1197
  149OSM   H14G16570   3.528   6.175   3.997 -1.1874 -0.3661 -1.0601
  149OSM   C15F16571   3.374   6.205   4.144  0.6555  0.0696  0.4225
  149OSM   H15F16572   3.307   6.129   4.100  1.1599 -1.7853  2.6671
  149OSM   H15G16573   3.313   6.289   4.184  3.4365  1.3459  2.3117
  149OSM   C16F16574   3.442   6.139   4.266 -0.2808 -0.1006 -0.0568
  149OSM   H16F16575   3.525   6.201   4.307 -0.2966  1.1856 -1.8863
  149OSM   H16G16576   3.487   6.041   4.238  0.0391 -0.0201  0.1542
  149OSM   C17F16577   3.346   6.100   4.373  0.8569  0.2288  0.0374
  149OSM   H17F16578   3.392   6.019   4.435 -0.6796  0.0416  0.9743
  149OSM   H17G16579   3.254   6.052   4.334 -0.1085 -0.0330  2.5054
  149OSM   C18F16580   3.305   6.209   4.474  0.5379 -0.6853 -0.5561
  149OSM   H18F16581   3.253   6.159   4.558  0.6097  1.5642  0.9226
  149OSM   H18G16582   3.244   6.294   4.437  1.5495  0.0114 -0.6725
  149OSM   H18H16583   3.399   6.247   4.519  1.2866 -2.7187 -0.3085
  150OSM      N16584   6.531   4.816   2.442  0.5098  0.1143  0.4242
  150OSM    C1516585   6.652   4.895   2.425  0.2087 -0.0075 -0.1712
  150OSM   H15A16586   6.710   4.888   2.516 -0.2125  1.1755  0.2031
  150OSM   H15B16587   6.645   5.001   2.406  2.4560  0.1915 -0.1419
  150OSM   H15C16588   6.711   4.858   2.343  1.8552 -0.3473  1.1004
  150OSM    C1416589   6.465   4.877   2.564 -0.3838  0.4023 -0.0494
  150OSM   H14A16590   6.445   4.983   2.560  0.7192  0.6076 -0.4767
  150OSM   H14B16591   6.532   4.869   2.649  1.4865  1.3933 -1.3417
  150OSM   H14C16592   6.376   4.826   2.597 -0.2696  2.2931  3.8350
  150OSM    C1316593   6.440   4.834   2.321 -0.3286 -0.1082 -0.2664
  150OSM   H13A16594   6.354   4.772   2.339  0.2297 -0.9431 -0.4428
  150OSM   H13B16595   6.480   4.801   2.227 -1.6829  1.1886 -1.3592
  150OSM   H13C16596   6.417   4.940   2.319  3.3509  0.8373  0.6503
  150OSM    C1216597   6.566   4.672   2.462  0.4230 -0.3182 -0.0527
  150OSM   H12A16598   6.633   4.671   2.547 -0.9457  2.5262  1.2312
  150OSM   H12B16599   6.623   4.643   2.375 -0.0533 -0.9312 -0.1705
  150OSM    C1116600   6.443   4.582   2.507 -0.4066 -0.0658 -0.5763
  150OSM   H11A16601   6.403   4.614   2.605 -0.1312  2.2547 -1.1665
  150OSM   H11B16602   6.484   4.480   2.522 -0.0388  0.0456 -0.8010
  150OSM      P16603   6.200   4.511   2.417 -0.0524  0.1031  0.3515
  150OSM    O1316604   6.107   4.552   2.306 -0.2624  0.4375  0.0422
  150OSM    O1416605   6.229   4.368   2.440 -0.6576 -0.2480  0.0603
  150OSM    O1116606   6.145   4.569   2.551  0.5582  0.5981  0.1923
  150OSM    O1216607   6.337   4.587   2.403  0.0937 -0.2769  0.3543
  150OSM    C1S16608   6.037   4.500   2.611  0.9505 -0.2072 -0.0916
  150OSM    H1S16609   6.000   4.418   2.545  2.3099 -0.6823 -0.2919
  150OSM    H1T16610   5.957   4.574   2.632  0.7380  0.1664 -2.0267
  150OSM     NF16611   5.960   4.356   2.797 -0.0914 -0.6774  0.2865
  150OSM    HNF16612   5.903   4.383   2.874  1.3434 -0.8134  1.4371
  150OSM    C2S16613   6.074   4.435   2.746  0.3969  0.4208 -0.2428
  150OSM    H2S16614   6.168   4.378   2.731 -0.6802 -1.8966  1.2156
  150OSM    C3S16615   6.109   4.550   2.847  0.1559 -0.0581  0.9874
  150OSM    H3S16616   6.035   4.633   2.845  0.5538  0.3013  0.8638
  150OSM     O316617   6.224   4.624   2.796  0.3216  0.1018  0.3022
  150OSM    HO316618   6.219   4.610   2.701 -1.6621 -1.5677  0.5804
  150OSM    C4S16619   6.146   4.519   2.983 -0.7938  0.0565  0.7442
  150OSM    H4S16620   6.235   4.455   2.983  0.7412  1.9179 -2.6921
  150OSM    C5S16621   6.094   4.561   3.094  0.1994  0.6928  0.0624
  150OSM    H5S16622   6.010   4.632   3.098  0.3007  0.7791  0.9018
  150OSM    C6S16623   6.125   4.515   3.234 -0.0515  0.5013 -0.4291
  150OSM    H6S16624   6.235   4.502   3.239 -0.0098  0.8696 -0.3526
  150OSM    H6T16625   6.082   4.416   3.258  0.2342  0.9502  2.2666
  150OSM    C7S16626   6.092   4.617   3.348  0.5104  1.1780 -0.1169
  150OSM    H7S16627   5.982   4.631   3.343  0.3399 -0.4275 -1.7877
  150OSM    H7T16628   6.156   4.705   3.326  1.4548  0.1175 -1.8059
  150OSM    C8S16629   6.109   4.558   3.487 -0.0271 -1.0737  0.0830
  150OSM    H8S16630   6.211   4.515   3.497  0.6234 -0.0482 -1.6554
  150OSM    H8T16631   6.041   4.472   3.506  0.5236 -1.1336  1.9728
  150OSM    C9S16632   6.103   4.656   3.602  0.5603  0.1417  0.6275
  150OSM    H9S16633   6.003   4.703   3.609  0.5662 -0.0804  3.2423
  150OSM    H9T16634   6.179   4.734   3.583 -0.6953  1.1207 -0.5863
  150OSM   C10S16635   6.140   4.585   3.733  0.6975  0.2342  0.2502
  150OSM   H10S16636   6.247   4.559   3.719  0.6327  0.8870 -1.7487
  150OSM   H10T16637   6.096   4.483   3.736 -2.3804  1.4503 -0.2081
  150OSM   C11S16638   6.123   4.672   3.857  0.6098  0.3356  0.2221
  150OSM   H11S16639   6.022   4.717   3.873  0.3897  0.4687 -1.3683
  150OSM   H11T16640   6.194   4.756   3.854 -0.7250  1.4807 -0.5966
  150OSM   C12S16641   6.161   4.598   3.989 -0.4485  0.8214 -0.2322
  150OSM   H12S16642   6.086   4.520   4.012  0.4446 -0.7244 -2.2550
  150OSM   H12T16643   6.153   4.664   4.079 -2.0699 -0.3927  0.5616
  150OSM   C13S16644   6.299   4.525   3.981 -0.0128 -0.3875  0.1383
  150OSM   H13S16645   6.376   4.598   3.949  1.7281 -2.7888 -1.4827
  150OSM   H13T16646   6.300   4.443   3.906  0.2347  0.1786 -0.4856
  150OSM   C14S16647   6.336   4.481   4.116  0.4599  0.1305 -0.0822
  150OSM   H14S16648   6.250   4.424   4.157 -0.5906  1.1207 -0.8354
  150OSM   H14T16649   6.362   4.563   4.185  0.4373 -0.2387  0.3674
  150OSM   C15S16650   6.455   4.379   4.119  0.7691 -0.4988 -0.5454
  150OSM   H15S16651   6.538   4.423   4.059 -0.4427  1.5704 -0.7913
  150OSM   H15T16652   6.438   4.277   4.077  0.0260 -0.0857 -1.2728
  150OSM   C16S16653   6.497   4.360   4.270  0.3911  0.1308  0.0313
  150OSM   H16S16654   6.409   4.344   4.335  0.8692 -1.4536  0.3359
  150OSM   H16T16655   6.548   4.456   4.293 -1.6983  1.6195 -1.1340
  150OSM   C17S16656   6.597   4.243   4.296 -0.4818  0.5138  0.9131
  150OSM   H17S16657   6.700   4.263   4.260  0.6891 -2.8711  1.9310
  150OSM   H17T16658   6.572   4.156   4.231 -1.6115  2.1389 -0.9135
  150OSM   C18S16659   6.605   4.218   4.448  0.3681  0.0444 -0.0747
  150OSM   H18S16660   6.653   4.309   4.489  0.8281 -0.0972 -0.2858
  150OSM   H18T16661   6.670   4.129   4.464  1.5068  0.5164 -1.7463
  150OSM   H18U16662   6.503   4.198   4.486  0.8927 -0.5130  1.1059
  150OSM    C1F16663   5.936   4.235   2.751 -0.2274  0.6436  0.3936
  150OSM     OF16664   5.999   4.192   2.660 -0.3672  0.3023  0.0911
  150OSM    C2F16665   5.824   4.155   2.820  0.8777  0.0283 -0.2270
  150OSM    H2F16666   5.751   4.132   2.740  0.4468  0.1391  0.1285
  150OSM    H2G16667   5.784   4.213   2.906  0.7332 -0.7337  0.2278
  150OSM    C3F16668   5.871   4.012   2.872  0.2974 -0.4076  0.4805
  150OSM    H3F16669   5.916   3.955   2.788 -2.5379  1.1632 -2.3631
  150OSM    H3G16670   5.786   3.955   2.915 -1.3687  1.2227 -0.4937
  150OSM    C4F16671   5.964   4.022   2.989 -0.3919 -0.1630 -0.8554
  150OSM    H4F16672   6.070   4.040   2.959  0.0183 -1.8081 -0.4970
  150OSM    H4G16673   5.973   3.920   3.032  0.4535  0.3039  0.1363
  150OSM    C5F16674   5.917   4.117   3.107  0.2240 -0.3436 -0.3280
  150OSM    H5F16675   5.808   4.105   3.125  0.1530 -0.9963 -1.1663
  150OSM    H5G16676   5.935   4.225   3.086 -1.0183 -0.0687 -0.0543
  150OSM    C6F16677   5.973   4.067   3.242  0.2923  0.1854  0.4027
  150OSM    H6F16678   6.081   4.090   3.252  0.7890 -1.8196  0.2043
  150OSM    H6G16679   5.969   3.956   3.254  2.1603  0.2482  2.1970
  150OSM    C7F16680   5.910   4.126   3.365  0.3305  0.6674  0.5571
  150OSM    H7F16681   5.813   4.072   3.372  0.3133  0.0233 -2.9911
  150OSM    H7G16682   5.890   4.234   3.349 -1.3109  0.4337  0.8839
  150OSM    C8F16683   5.998   4.120   3.494 -0.0595 -0.2360  0.3698
  150OSM    H8F16684   6.095   4.168   3.468 -1.7339  2.2125 -2.0823
  150OSM    H8G16685   6.024   4.013   3.509 -0.7349 -0.1936  2.0876
  150OSM    C9F16686   5.944   4.181   3.619  0.0288 -0.2088  0.1825
  150OSM    H9F16687   5.891   4.276   3.604  0.1987  0.0333  1.0384
  150OSM   C10F16688   5.967   4.136   3.747 -0.0873 -0.1026  0.4829
  150OSM   H10F16689   5.922   4.192   3.831  0.4240 -0.6476  1.1376
  150OSM   C11F16690   6.035   4.003   3.788  0.1603 -0.2393 -0.6671
  150OSM   H11F16691   6.129   3.977   3.735  0.7245 -0.8894  0.5970
  150OSM   H11G16692   5.967   3.917   3.765  0.6694 -1.0770  0.8119
  150OSM   C12F16693   6.067   3.992   3.941  0.8771  0.2848 -0.2315
  150OSM   H12F16694   6.124   3.897   3.950  0.2183 -0.5687 -3.6625
  150OSM   H12G16695   5.976   4.002   4.004  1.2287  0.0664  0.3191
  150OSM   C13F16696   6.165   4.104   3.982 -0.3141  0.2903 -0.0370
  150OSM   H13F16697   6.115   4.203   3.980  1.5738  1.3280  0.9959
  150OSM   H13G16698   6.256   4.118   3.919  0.6495  0.1709  1.2769
  150OSM   C14F16699   6.201   4.078   4.131  0.4896  0.0330 -0.6753
  150OSM   H14F16700   6.111   4.045   4.187  0.4532 -1.1859 -1.4194
  150OSM   H14G16701   6.244   4.170   4.178  2.9786 -1.0725 -0.6046
  150OSM   C15F16702   6.306   3.970   4.150 -0.4272 -0.4071 -0.6531
  150OSM   H15F16703   6.398   4.013   4.104  0.2872 -1.6250 -0.4101
  150OSM   H15G16704   6.273   3.882   4.090 -0.4153 -0.2835 -0.8408
  150OSM   C16F16705   6.332   3.956   4.301 -0.7244  0.4885  0.1731
  150OSM   H16F16706   6.235   3.938   4.352 -1.1886  2.0945 -0.0811
  150OSM   H16G16707   6.374   4.044   4.355 -1.6853  0.3953  1.1011
  150OSM   C17F16708   6.429   3.837   4.328 -0.2056  0.2266 -0.3452
  150OSM   H17F16709   6.528   3.850   4.279 -0.9177  0.8123 -1.6554
  150OSM   H17G16710   6.382   3.748   4.282  1.2836 -0.6451 -0.2479
  150OSM   C18F16711   6.451   3.814   4.482  0.0718  0.1308 -0.3340
  150OSM   H18F16712   6.515   3.725   4.499 -1.7804 -1.6425 -2.1161
  150OSM   H18G16713   6.360   3.793   4.541 -0.3257 -3.9982 -2.1209
  150OSM   H18H16714   6.507   3.902   4.522  0.7509 -0.0616 -0.8420
  151OSM      N16715   6.278   3.626   2.228  0.7834 -0.3179  0.0780
  151OSM    C1516716   6.361   3.752   2.221 -0.5402 -0.8158  0.9794
  151OSM   H15A16717   6.437   3.770   2.295 -0.2615  1.6927  0.1774
  151OSM   H15B16718   6.309   3.845   2.236  1.7930  1.0226 -1.2775
  151OSM   H15C16719   6.405   3.758   2.122 -0.0976 -1.0803  1.1571
  151OSM    C1416720   6.208   3.640   2.360  0.2069  0.5067  1.1505
  151OSM   H14A16721   6.272   3.626   2.446  0.4902  0.9332  1.0147
  151OSM   H14B16722   6.120   3.579   2.365  0.8488 -0.7186 -0.9872
  151OSM   H14C16723   6.163   3.737   2.369 -0.5182  0.2909  0.0506
  151OSM    C1316724   6.179   3.630   2.117 -0.7927  0.1020  0.9933
  151OSM   H13A16725   6.231   3.642   2.022 -1.6849 -0.3802  0.4275
  151OSM   H13B16726   6.105   3.708   2.120  0.7141  1.8749 -2.2881
  151OSM   H13C16727   6.131   3.534   2.110  0.1856 -0.3582  0.3670
  151OSM    C1216728   6.367   3.500   2.223 -0.1726 -0.3014  0.0154
  151OSM   H12A16729   6.299   3.416   2.227 -4.0620  2.3979 -2.1042
  151OSM   H12B16730   6.434   3.511   2.307  0.7084  0.9219 -0.8107
  151OSM    C1116731   6.461   3.486   2.097  0.6404  0.6760  0.8203
  151OSM   H11A16732   6.395   3.486   2.008  3.3679 -3.0338 -1.4860
  151OSM   H11B16733   6.508   3.386   2.097 -2.2234 -0.7872  1.0223
  151OSM      P16734   6.692   3.594   2.151 -0.2220 -0.6143  0.1005
  151OSM    O1316735   6.769   3.473   2.104 -0.1577  0.2079  0.2858
  151OSM    O1416736   6.748   3.732   2.145  0.3428  0.0399 -0.3918
  151OSM    O1116737   6.634   3.560   2.299 -0.2780 -0.1171 -0.1968
  151OSM    O1216738   6.552   3.593   2.073 -0.4142 -0.0412  0.5996
  151OSM    C1S16739   6.721   3.571   2.417  0.2719 -0.8920  0.5819
  151OSM    H1S16740   6.718   3.673   2.461  0.9680 -0.9837  0.8663
  151OSM    H1T16741   6.829   3.554   2.398  0.4016  0.6569 -0.1816
  151OSM     NF16742   6.753   3.510   2.651 -0.3707  0.2870 -0.6150
  151OSM    HNF16743   6.833   3.457   2.676  0.2069 -0.1997 -3.2869
  151OSM    C2S16744   6.680   3.478   2.533  0.7419  0.2647  0.5563
  151OSM    H2S16745   6.573   3.498   2.552  0.8751  0.7027  0.8594
  151OSM    C3S16746   6.686   3.327   2.489  0.0878 -0.3696  0.0365
  151OSM    H3S16747   6.794   3.304   2.480  0.0918  0.2024 -1.8554
  151OSM     O316748   6.641   3.292   2.360  0.0348 -0.0800  0.2155
  151OSM    HO316749   6.608   3.372   2.319  0.8330  0.7872  1.1940
  151OSM    C4S16750   6.635   3.246   2.605 -0.0985 -0.0543  0.2827
  151OSM    H4S16751   6.547   3.291   2.654 -0.3065  1.5637 -1.4231
  151OSM    C5S16752   6.689   3.134   2.652  0.2991  0.5065 -0.1682
  151OSM    H5S16753   6.781   3.103   2.599 -0.4605  1.1780 -1.9375
  151OSM    C6S16754   6.640   3.067   2.775 -0.1676 -0.4459 -1.0196
  151OSM    H6S16755   6.708   3.097   2.858 -0.7204  0.2428 -0.8039
  151OSM    H6T16756   6.655   2.958   2.763  2.7435 -0.1819 -0.4768
  151OSM    C7S16757   6.496   3.100   2.825  0.1315 -0.8083 -0.2706
  151OSM    H7S16758   6.416   3.068   2.754 -0.8131  1.5093 -0.3091
  151OSM    H7T16759   6.498   3.210   2.839 -1.5742 -0.8785  0.7222
  151OSM    C8S16760   6.463   3.033   2.956 -0.5170 -0.0829 -0.5491
  151OSM    H8S16761   6.534   3.058   3.038 -2.5738  0.4203  1.1748
  151OSM    H8T16762   6.482   2.924   2.949  1.9341  0.0017  2.2887
  151OSM    C9S16763   6.319   3.048   2.992 -0.1656  0.2176  0.3914
  151OSM    H9S16764   6.253   3.008   2.912  1.0086  0.9531 -0.9639
  151OSM    H9T16765   6.295   3.156   3.000  2.6435  1.1354 -2.1040
  151OSM   C10S16766   6.287   2.985   3.125 -0.5154  0.1158  0.3788
  151OSM   H10S16767   6.356   3.035   3.195 -0.5898 -0.5834  0.9582
  151OSM   H10T16768   6.301   2.875   3.127 -0.3619  0.1153 -0.4285
  151OSM   C11S16769   6.144   3.024   3.166 -0.3688 -0.2240 -0.4344
  151OSM   H11S16770   6.078   2.983   3.087  0.4708 -0.7323 -0.8924
  151OSM   H11T16771   6.152   3.134   3.157 -0.4570 -0.3497 -2.7204
  151OSM   C12S16772   6.118   2.967   3.310 -0.4082  0.7112  0.2641
  151OSM   H12S16773   6.199   3.014   3.370  3.5068 -1.0576 -3.1210
  151OSM   H12T16774   6.121   2.856   3.304 -1.2162  0.7378 -1.2796
  151OSM   C13S16775   5.984   3.008   3.369 -1.0140  0.4679 -0.0624
  151OSM   H13S16776   5.915   2.997   3.282 -0.1224 -1.6742 -0.5477
  151OSM   H13T16777   5.983   3.115   3.399  1.1980  0.2864  0.8661
  151OSM   C14S16778   5.937   2.926   3.489  0.1454  0.0469  0.4848
  151OSM   H14S16779   5.977   2.823   3.478  0.4371  0.3273 -1.5780
  151OSM   H14T16780   5.827   2.926   3.474  0.0942  1.1974  0.8007
  151OSM   C15S16781   5.957   2.996   3.625 -0.3357 -0.3149 -0.5436
  151OSM   H15S16782   5.907   3.094   3.642  0.3606  0.1195 -0.9213
  151OSM   H15T16783   6.065   3.022   3.626  0.2948 -2.6788  1.2854
  151OSM   C16S16784   5.922   2.911   3.742 -0.1600  0.5533  0.8239
  151OSM   H16S16785   5.942   2.962   3.839 -1.7712 -0.6581  1.8673
  151OSM   H16T16786   5.992   2.825   3.737 -1.0619 -0.1405 -0.4203
  151OSM   C17S16787   5.779   2.864   3.748  0.7071  0.2413  0.2573
  151OSM   H17S16788   5.747   2.790   3.672  1.0702  0.7358 -0.3830
  151OSM   H17T16789   5.706   2.948   3.738  0.3407 -0.1394 -0.3345
  151OSM   C18S16790   5.747   2.803   3.890 -0.0106  0.4752  0.1311
  151OSM   H18S16791   5.817   2.727   3.931 -1.4619 -0.5691  0.7546
  151OSM   H18T16792   5.649   2.752   3.896  1.1904 -1.8362  2.0514
  151OSM   H18U16793   5.750   2.885   3.965  0.1334  1.6149 -1.0839
  151OSM    C1F16794   6.726   3.629   2.717 -0.3495  0.8161 -0.3975
  151OSM     OF16795   6.627   3.695   2.691  0.1226  0.4718  0.2350
  151OSM    C2F16796   6.815   3.673   2.826 -0.3237 -0.6307  0.1119
  151OSM    H2F16797   6.923   3.661   2.806 -0.2659 -1.7150  0.9594
  151OSM    H2G16798   6.791   3.609   2.914 -0.4876 -1.2545 -0.3843
  151OSM    C3F16799   6.790   3.822   2.873  0.9954  0.3054  0.5667
  151OSM    H3F16800   6.685   3.836   2.908 -0.0224  0.1939 -2.1780
  151OSM    H3G16801   6.816   3.889   2.789  1.1454  1.7816  1.7655
  151OSM    C4F16802   6.880   3.871   2.984 -0.7649  0.5231 -0.6792
  151OSM    H4F16803   6.873   3.982   2.998  2.5041  0.7508 -0.1031
  151OSM    H4G16804   6.985   3.844   2.961 -0.1314  1.1042  1.2653
  151OSM    C5F16805   6.840   3.821   3.127  0.1089 -0.1481  0.3646
  151OSM    H5F16806   6.852   3.710   3.127  2.0210  0.0257  0.2879
  151OSM    H5G16807   6.732   3.840   3.141 -0.2373  0.6766 -2.6833
  151OSM    C6F16808   6.918   3.890   3.240  0.1319 -0.6826 -0.3558
  151OSM    H6F16809   6.909   4.001   3.239  1.5716 -0.5402 -2.1222
  151OSM    H6G16810   7.024   3.860   3.229  0.7982  0.7721  1.5152
  151OSM    C7F16811   6.879   3.834   3.381  0.1745 -0.5506 -0.0906
  151OSM    H7F16812   6.855   3.728   3.354 -0.6172 -0.3371 -0.2461
  151OSM    H7G16813   6.783   3.879   3.413  0.5417  1.0005 -1.0649
  151OSM    C8F16814   6.994   3.848   3.481  0.4340 -0.0261 -0.1089
  151OSM    H8F16815   7.011   3.949   3.523 -0.7654  0.0572  0.2022
  151OSM    H8G16816   7.092   3.810   3.444  1.2335 -0.7965  2.5980
  151OSM    C9F16817   6.965   3.765   3.600 -0.4366  0.9643 -0.3602
  151OSM    H9F16818   6.862   3.726   3.605 -0.7055  1.7745  2.6645
  151OSM   C10F16819   7.047   3.753   3.711 -0.1394 -0.3082  0.3239
  151OSM   H10F16820   7.017   3.687   3.794 -1.0391  0.7520  0.8627
  151OSM   C11F16821   7.184   3.825   3.721 -0.3504  0.6574 -0.3810
  151OSM   H11F16822   7.182   3.882   3.816  1.1399  0.3514 -0.1481
  151OSM   H11G16823   7.218   3.895   3.642 -2.8811  0.3174 -1.8621
  151OSM   C12F16824   7.300   3.730   3.745  0.3677 -0.1153 -0.3878
  151OSM   H12F16825   7.391   3.790   3.726 -0.3507  1.2321  0.2423
  151OSM   H12G16826   7.295   3.651   3.667 -0.9887 -0.7002  0.2393
  151OSM   C13F16827   7.292   3.655   3.878  0.0059  0.5318 -0.4299
  151OSM   H13F16828   7.193   3.610   3.901  0.5679 -0.3036  0.4078
  151OSM   H13G16829   7.315   3.733   3.953  1.0387 -0.4193  0.2833
  151OSM   C14F16830   7.397   3.544   3.884  0.0201  0.2068 -0.0764
  151OSM   H14F16831   7.494   3.571   3.837  0.4098 -1.3165 -0.2063
  151OSM   H14G16832   7.365   3.453   3.830 -0.1191  1.2515 -1.8493
  151OSM   C15F16833   7.425   3.495   4.029 -0.3404 -0.0249  0.2953
  151OSM   H15F16834   7.474   3.577   4.086  0.0199 -0.5309  0.7355
  151OSM   H15G16835   7.495   3.409   4.041  1.0837  0.8565 -1.3117
  151OSM   C16F16836   7.311   3.494   4.127  0.8700  0.2571 -0.3748
  151OSM   H16F16837   7.230   3.436   4.078 -0.1503  0.3458  1.1287
  151OSM   H16G16838   7.247   3.582   4.147 -2.9621 -2.9829  3.5352
  151OSM   C17F16839   7.349   3.434   4.268 -0.2278 -0.4349 -0.3386
  151OSM   H17F16840   7.445   3.484   4.291  0.2853 -1.2427 -0.6521
  151OSM   H17G16841   7.364   3.323   4.269 -0.7642 -0.5107  0.5902
  151OSM   C18F16842   7.237   3.465   4.375  0.1409 -0.1530 -0.0545
  151OSM   H18F16843   7.223   3.575   4.382 -0.8708 -0.3474  1.3049
  151OSM   H18G16844   7.270   3.422   4.472 -0.5100  0.1270  0.2991
  151OSM   H18H16845   7.139   3.424   4.342  0.9219  0.1026 -2.9474
  152OSM      N16846   0.618   5.953   2.222  0.2709  0.2245 -0.0133
  152OSM    C1516847   0.598   5.829   2.146  0.0365 -0.4925 -1.3584
  152OSM   H15A16848   0.603   5.839   2.038 -1.1315  0.8492 -1.3153
  152OSM   H15B16849   0.503   5.786   2.173  0.2204  0.3884  0.8747
  152OSM   H15C16850   0.670   5.753   2.173  0.1157 -0.0598 -0.3388
  152OSM    C1416851   0.738   6.017   2.160 -0.1930  0.0992  0.8383
  152OSM   H14A16852   0.724   6.026   2.053 -3.5128  0.1955  1.1752
  152OSM   H14B16853   0.824   5.952   2.170  1.6546  2.1882 -0.3569
  152OSM   H14C16854   0.766   6.115   2.195  3.8502  0.0856 -1.6957
  152OSM    C1316855   0.504   6.049   2.214 -0.5490 -0.1964 -0.3657
  152OSM   H13A16856   0.480   6.060   2.109 -1.3281 -0.1632 -0.1931
  152OSM   H13B16857   0.524   6.146   2.256  1.6802 -0.4801 -0.6745
  152OSM   H13C16858   0.418   6.001   2.260 -0.9693 -1.3766 -2.2434
  152OSM    C1216859   0.636   5.922   2.366  1.0473  1.1409 -0.1307
  152OSM   H12A16860   0.545   5.877   2.401 -0.0364  1.2634 -2.6357
  152OSM   H12B16861   0.634   6.012   2.426 -1.1119  3.2465 -3.1178
  152OSM    C1116862   0.757   5.840   2.403  0.2669  0.2049  0.4017
  152OSM   H11A16863   0.741   5.818   2.510 -2.1927 -0.2774  0.0026
  152OSM   H11B16864   0.849   5.899   2.384  0.0298  0.1159 -1.1781
  152OSM      P16865   0.717   5.582   2.373 -0.0713 -0.4888 -0.1902
  152OSM    O1316866   0.582   5.604   2.434 -0.1336  0.1495  0.7118
  152OSM    O1416867   0.719   5.483   2.267  0.1591  0.1247  0.6274
  152OSM    O1116868   0.813   5.535   2.492  0.7606 -0.2594  0.4211
  152OSM    O1216869   0.772   5.721   2.322  0.0579 -0.7124 -0.3928
  152OSM    C1S16870   0.946   5.577   2.507  0.1669  0.2747  0.4725
  152OSM    H1S16871   0.976   5.673   2.461 -1.0537  0.7410  0.6261
  152OSM    H1T16872   1.016   5.496   2.474 -1.5321 -1.9847  2.0989
  152OSM     NF16873   1.125   5.641   2.675 -0.2034 -0.1430 -0.1154
  152OSM    HNF16874   1.190   5.567   2.688  0.3474  0.3370 -0.0880
  152OSM    C2S16875   0.981   5.596   2.660 -0.4685 -0.6795  0.0251
  152OSM    H2S16876   0.920   5.683   2.692  1.2608  0.7389 -0.4002
  152OSM    C3S16877   0.941   5.464   2.735  0.4905  0.5552  0.1892
  152OSM    H3S16878   1.009   5.382   2.705  0.4144  0.5282  0.0879
  152OSM     O316879   0.802   5.418   2.718 -0.9194  0.1519  0.4869
  152OSM    HO316880   0.771   5.471   2.645 -2.8942 -0.6683  0.6703
  152OSM    C4S16881   0.978   5.479   2.886  0.0871 -0.0824 -1.0889
  152OSM    H4S16882   0.956   5.577   2.931 -2.5536 -1.2023  0.2649
  152OSM    C5S16883   1.055   5.389   2.956  0.0338  0.0778 -0.2389
  152OSM    H5S16884   1.098   5.307   2.896 -1.0509  0.2981 -1.3400
  152OSM    C6S16885   1.120   5.398   3.091  0.0706 -0.6141 -0.7463
  152OSM    H6S16886   1.231   5.404   3.084 -0.0251 -0.0788 -2.0696
  152OSM    H6T16887   1.099   5.311   3.156  2.1709 -1.1233 -0.6686
  152OSM    C7S16888   1.091   5.540   3.158 -0.5693  1.3784  0.4866
  152OSM    H7S16889   0.987   5.539   3.196 -0.5514  1.6381  0.5409
  152OSM    H7T16890   1.104   5.629   3.093 -1.1514  2.0516  1.2764
  152OSM    C8S16891   1.180   5.548   3.284 -0.7903  0.5035 -0.3765
  152OSM    H8S16892   1.162   5.648   3.329 -2.3700 -0.2841  0.8272
  152OSM    H8T16893   1.290   5.551   3.271 -0.5192  2.7695  1.6478
  152OSM    C9S16894   1.151   5.443   3.386 -0.0277 -0.0918 -0.1622
  152OSM    H9S16895   1.186   5.338   3.376  3.8673  0.9178  1.2081
  152OSM    H9T16896   1.041   5.438   3.401  0.0728  0.0746  0.6707
  152OSM   C10S16897   1.209   5.478   3.525  0.2500 -0.5025 -0.0731
  152OSM   H10S16898   1.153   5.412   3.594  1.3462 -1.8763 -0.4549
  152OSM   H10T16899   1.191   5.583   3.557 -0.1226 -0.6537  0.2104
  152OSM   C11S16900   1.350   5.441   3.556 -0.0550 -0.2886  0.2255
  152OSM   H11S16901   1.409   5.481   3.471 -1.6767  1.3132 -0.2213
  152OSM   H11T16902   1.357   5.331   3.568 -1.5755 -0.2343  2.1609
  152OSM   C12S16903   1.411   5.502   3.689  0.1363  0.4753 -0.0476
  152OSM   H12S16904   1.421   5.612   3.682 -1.8806  0.6235 -1.3636
  152OSM   H12T16905   1.510   5.458   3.713 -0.2527 -0.2297  0.3227
  152OSM   C13S16906   1.328   5.485   3.824 -0.2907 -0.3529 -0.0301
  152OSM   H13S16907   1.305   5.380   3.851 -1.4418 -0.3433 -0.8961
  152OSM   H13T16908   1.236   5.540   3.796  0.9315  1.7796 -0.0927
  152OSM   C14S16909   1.401   5.565   3.934 -0.5400 -0.4506 -0.0571
  152OSM   H14S16910   1.380   5.673   3.919  1.5477  0.3729  2.2287
  152OSM   H14T16911   1.512   5.561   3.934 -0.3739  1.9778 -0.9192
  152OSM   C15S16912   1.345   5.528   4.073 -0.0210 -0.3030 -0.2324
  152OSM   H15S16913   1.352   5.419   4.091 -2.8168 -0.5691 -0.2441
  152OSM   H15T16914   1.237   5.553   4.061  0.0082  0.1755  0.4371
  152OSM   C16S16915   1.406   5.595   4.199 -0.1702 -0.5796 -0.0957
  152OSM   H16S16916   1.327   5.621   4.274 -1.5889  0.0801 -1.7446
  152OSM   H16T16917   1.440   5.701   4.189 -0.9906 -0.1420  1.3302
  152OSM   C17S16918   1.522   5.523   4.270  0.3596  0.3816  0.6519
  152OSM   H17S16919   1.611   5.523   4.204  0.7501 -1.9134  1.1087
  152OSM   H17T16920   1.489   5.417   4.274 -1.8330  1.0360  1.1921
  152OSM   C18S16921   1.553   5.576   4.410  0.0380 -0.2189  0.1389
  152OSM   H18S16922   1.585   5.682   4.407 -0.8141  0.0316 -0.1346
  152OSM   H18T16923   1.642   5.515   4.438  0.0468 -1.7241 -2.7884
  152OSM   H18U16924   1.468   5.550   4.477  0.1983 -0.3574  0.2895
  152OSM    C1F16925   1.167   5.764   2.643  0.2725 -0.6034 -0.3231
  152OSM     OF16926   1.086   5.861   2.627 -0.7092 -0.5066  0.0814
  152OSM    C2F16927   1.309   5.795   2.651  0.3249  0.2807  0.8225
  152OSM    H2F16928   1.329   5.898   2.614 -2.3272  1.3370  2.0742
  152OSM    H2G16929   1.356   5.720   2.585 -0.6990  0.8703 -0.6309
  152OSM    C3F16930   1.359   5.780   2.795  0.1593  0.4207 -0.6623
  152OSM    H3F16931   1.469   5.800   2.794  0.0100  1.7194  1.8686
  152OSM    H3G16932   1.336   5.678   2.831  1.6012  0.0250 -0.7795
  152OSM    C4F16933   1.306   5.888   2.896 -0.1784  0.2919  0.1459
  152OSM    H4F16934   1.198   5.873   2.919 -0.7022 -1.1303 -2.7592
  152OSM    H4G16935   1.321   5.986   2.846  3.7337 -0.4915 -0.5080
  152OSM    C5F16936   1.384   5.895   3.031  0.6395  0.1408  0.5800
  152OSM    H5F16937   1.493   5.909   3.017  0.7139  0.7403  1.6483
  152OSM    H5G16938   1.369   5.793   3.074  0.4673  1.3628  3.6474
  152OSM    C6F16939   1.327   5.988   3.133  0.7202 -0.4044  0.5190
  152OSM    H6F16940   1.225   5.953   3.161  1.4821 -2.7201  0.6160
  152OSM    H6G16941   1.309   6.085   3.083 -0.3639 -0.8830 -0.0659
  152OSM    C7F16942   1.409   6.015   3.258 -0.7844 -0.5831 -0.9473
  152OSM    H7F16943   1.390   6.118   3.293  0.0551 -0.5229 -0.6517
  152OSM    H7G16944   1.512   6.018   3.215 -0.5940  0.7336 -0.4338
  152OSM    C8F16945   1.402   5.905   3.364  0.1795  0.4479  0.2281
  152OSM    H8F16946   1.490   5.904   3.433 -0.0796  0.9781  0.5724
  152OSM    H8G16947   1.402   5.812   3.303 -2.0960 -0.3118  1.2695
  152OSM    C9F16948   1.274   5.923   3.444 -0.6661 -0.2836  0.2860
  152OSM    H9F16949   1.185   5.946   3.384  0.2704  0.5006 -0.8581
  152OSM   C10F16950   1.264   5.929   3.574  0.6157 -0.5114  1.2446
  152OSM   H10F16951   1.164   5.934   3.619  0.4278  0.5072  0.7290
  152OSM   C11F16952   1.374   5.930   3.679  0.2752 -0.8705  0.2203
  152OSM   H11F16953   1.457   5.860   3.654 -0.0781 -1.8784  1.7271
  152OSM   H11G16954   1.322   5.882   3.764  0.0123  1.4140  1.4370
  152OSM   C12F16955   1.441   6.060   3.715 -0.4354 -0.3200 -0.0680
  152OSM   H12F16956   1.494   6.101   3.626 -0.7957 -0.2874 -0.2669
  152OSM   H12G16957   1.522   6.051   3.791 -2.0048  1.5025  1.9464
  152OSM   C13F16958   1.341   6.162   3.782 -0.3928  0.4740 -0.2632
  152OSM   H13F16959   1.297   6.104   3.866  2.2691 -1.1435  0.1124
  152OSM   H13G16960   1.260   6.194   3.712 -0.7753 -0.8520 -0.4634
  152OSM   C14F16961   1.421   6.280   3.834  0.1724 -0.6347  1.0544
  152OSM   H14F16962   1.467   6.332   3.747 -0.6755 -0.2126  0.8446
  152OSM   H14G16963   1.492   6.245   3.912 -0.0343 -3.1421  0.1985
  152OSM   C15F16964   1.339   6.394   3.897  0.2811  0.3198 -0.0580
  152OSM   H15F16965   1.272   6.446   3.826 -0.1798 -1.0072 -0.6244
  152OSM   H15G16966   1.411   6.463   3.947  0.8670 -0.9701  0.9383
  152OSM   C16F16967   1.238   6.349   4.007  0.5226  0.6767  0.4674
  152OSM   H16F16968   1.266   6.249   4.046 -1.7084  0.1762  0.9204
  152OSM   H16G16969   1.134   6.336   3.972  0.7188 -1.1168  0.4663
  152OSM   C17F16970   1.239   6.446   4.120  0.1426 -0.4233 -0.2196
  152OSM   H17F16971   1.201   6.546   4.089 -0.2733 -0.1563  1.0891
  152OSM   H17G16972   1.347   6.455   4.144  0.2208  2.3299 -1.2765
  152OSM   C18F16973   1.155   6.388   4.231 -0.0438  0.2719 -0.8500
  152OSM   H18F16974   1.185   6.285   4.257 -0.1574  0.5796  0.5676
  152OSM   H18G16975   1.047   6.396   4.206  0.0524  1.9096 -0.8859
  152OSM   H18H16976   1.182   6.442   4.324  2.6201 -1.4258 -0.5312
  153OSM      N16977   1.059   4.786   2.244  0.4999  0.3504 -0.4232
  153OSM    C1516978   0.978   4.711   2.344  0.7087 -0.1693 -0.0940
  153OSM   H15A16979   1.035   4.637   2.397 -0.9055 -2.1061 -0.9327
  153OSM   H15B16980   0.901   4.651   2.299  1.3957 -1.3434  0.2571
  153OSM   H15C16981   0.920   4.768   2.415  1.1421  0.0324  0.1002
  153OSM    C1416982   1.098   4.679   2.148 -0.0486  0.4939  0.0777
  153OSM   H14A16983   1.182   4.707   2.087 -1.2758  0.9454 -1.4697
  153OSM   H14B16984   1.011   4.650   2.091 -0.8781 -2.5999  2.5746
  153OSM   H14C16985   1.121   4.586   2.199 -3.6654 -1.0358 -0.7217
  153OSM    C1316986   0.979   4.892   2.184 -0.1985 -1.0244 -0.5397
  153OSM   H13A16987   1.032   4.956   2.115 -2.7728  0.3465 -1.3761
  153OSM   H13B16988   0.954   4.965   2.260  0.7503 -1.6180  0.3616
  153OSM   H13C16989   0.895   4.852   2.129  0.0105 -1.2079 -0.7271
  153OSM    C1216990   1.185   4.850   2.303  0.9129  0.2352 -0.0044
  153OSM   H12A16991   1.240   4.768   2.347  0.4157  1.1851  2.5498
  153OSM   H12B16992   1.156   4.916   2.383  0.5980 -1.9171  1.7605
  153OSM    C1116993   1.282   4.919   2.208 -0.0827 -1.1397  0.4961
  153OSM   H11A16994   1.306   4.842   2.130  0.7973 -0.4838  0.1093
  153OSM   H11B16995   1.380   4.938   2.256 -0.8615 -1.7143  2.3771
  153OSM      P16996   1.200   5.173   2.216 -0.1226 -0.0715 -0.0907
  153OSM    O1316997   1.310   5.270   2.206  0.2168 -0.0436  0.8610
  153OSM    O1416998   1.067   5.211   2.169 -0.5061  0.3498 -0.1900
  153OSM    O1116999   1.180   5.131   2.365 -0.0830 -0.0506  0.4790
  153OSM    O1217000   1.238   5.039   2.138 -0.0022  0.0097 -0.3924
  153OSM    C1S17001   1.271   5.149   2.469 -0.2203 -0.2105  0.4766
  153OSM    H1S17002   1.319   5.249   2.457 -0.3999 -0.2022 -0.1976
  153OSM    H1T17003   1.349   5.070   2.460 -1.0253 -0.8645 -1.0053
  153OSM     NF17004   1.305   5.173   2.710 -0.0622 -0.2883 -0.9466
  153OSM    HNF17005   1.331   5.088   2.756 -0.0383  0.1266 -0.1850
  153OSM    C2S17006   1.203   5.152   2.610  0.1387  0.6661  0.1902
  153OSM    H2S17007   1.138   5.242   2.617 -2.0727 -0.9142  1.2203
  153OSM    C3S17008   1.118   5.026   2.633  0.4004 -0.0217  0.0820
  153OSM    H3S17009   1.201   4.953   2.641 -0.5430 -1.1602 -0.3301
  153OSM     O317010   1.035   4.988   2.526  0.2169 -0.3515  0.5568
  153OSM    HO317011   1.063   5.053   2.461  0.5339 -0.4113  0.6289
  153OSM    C4S17012   1.023   5.036   2.762 -0.2715 -0.6821  0.1372
  153OSM    H4S17013   1.070   4.979   2.844 -0.2516 -3.3848 -1.6403
  153OSM    C5S17014   0.903   5.087   2.782 -0.8627 -0.2857 -0.1965
  153OSM    H5S17015   0.856   5.142   2.699 -0.5604 -1.3747 -1.1016
  153OSM    C6S17016   0.820   5.083   2.918  0.2479  0.0339  0.1239
  153OSM    H6S17017   0.744   5.004   2.899 -1.0719  1.6881 -1.9610
  153OSM    H6T17018   0.768   5.179   2.936 -1.2108 -0.5831 -0.6402
  153OSM    C7S17019   0.893   5.037   3.049 -0.1450 -0.4434 -0.4229
  153OSM    H7S17020   0.978   5.107   3.060 -1.6213  1.6785 -1.6207
  153OSM    H7T17021   0.909   4.927   3.041  0.2649 -0.3501 -0.8989
  153OSM    C8S17022   0.797   5.065   3.173  0.4967  0.6115 -0.3140
  153OSM    H8S17023   0.701   5.010   3.169  0.0479  0.9385  3.0997
  153OSM    H8T17024   0.763   5.171   3.168 -2.1984 -0.2455 -2.7785
  153OSM    C9S17025   0.854   5.040   3.315 -0.3183 -0.3417  1.0880
  153OSM    H9S17026   0.953   5.089   3.329  0.0159 -1.0732  1.2895
  153OSM    H9T17027   0.877   4.933   3.332  0.0738 -0.9753 -2.6348
  153OSM   C10S17028   0.769   5.107   3.423  0.0677  0.7667  0.1933
  153OSM   H10S17029   0.669   5.059   3.431  1.2763 -1.7593  1.2155
  153OSM   H10T17030   0.750   5.213   3.397 -0.3351  0.4780 -0.7256
  153OSM   C11S17031   0.829   5.084   3.562  0.0443  0.8863 -0.2518
  153OSM   H11S17032   0.929   5.119   3.595  0.3339  0.0380 -0.2026
  153OSM   H11T17033   0.842   4.978   3.593 -0.4218  1.1161  0.7774
  153OSM   C12S17034   0.735   5.161   3.658  0.2933 -0.1575 -0.0244
  153OSM   H12S17035   0.634   5.114   3.653 -0.2937  0.6053  2.7643
  153OSM   H12T17036   0.729   5.268   3.630 -1.5311  0.6767  3.1102
  153OSM   C13S17037   0.790   5.155   3.804 -0.0753 -0.3873  0.4773
  153OSM   H13S17038   0.803   5.053   3.845  3.1986 -0.6529 -0.9404
  153OSM   H13T17039   0.703   5.195   3.860 -0.8342  0.0380 -0.9412
  153OSM   C14S17040   0.924   5.234   3.826 -0.4116  0.6727  0.5229
  153OSM   H14S17041   0.944   5.328   3.770 -0.6858  0.4625  0.0625
  153OSM   H14T17042   1.008   5.174   3.784 -0.2974  0.4379  1.0744
  153OSM   C15S17043   0.953   5.248   3.968  0.1520  0.9183 -0.1944
  153OSM   H15S17044   1.055   5.290   3.975 -0.4831  2.2836  2.3160
  153OSM   H15T17045   0.967   5.154   4.025  0.6217 -0.2605 -2.1803
  153OSM   C16S17046   0.865   5.355   4.034  0.4819  0.1925  0.0041
  153OSM   H16S17047   0.761   5.322   4.054  0.2680  1.0733  0.4080
  153OSM   H16T17048   0.861   5.435   3.957  1.8327  1.2727  1.0067
  153OSM   C17S17049   0.919   5.411   4.173 -0.0183  1.1776  0.3408
  153OSM   H17S17050   1.013   5.467   4.153  1.4535 -0.3431  2.5260
  153OSM   H17T17051   0.958   5.327   4.234 -0.5027  1.2517  0.7582
  153OSM   C18S17052   0.825   5.504   4.246 -0.2024 -0.8092 -0.3179
  153OSM   H18S17053   0.825   5.605   4.200 -0.2446 -1.0621 -0.8926
  153OSM   H18T17054   0.868   5.503   4.348 -1.8509  1.9134  0.5043
  153OSM   H18U17055   0.720   5.472   4.264 -0.8780  2.0718  1.4269
  153OSM    C1F17056   1.368   5.284   2.726  0.1570 -0.2552  0.1571
  153OSM     OF17057   1.349   5.378   2.655  0.1089  0.4590 -0.1945
  153OSM    C2F17058   1.479   5.289   2.827  0.0071  0.5188 -0.6619
  153OSM    H2F17059   1.574   5.254   2.781 -0.2227 -0.7889 -0.1951
  153OSM    H2G17060   1.450   5.228   2.915 -1.8941 -0.3076 -1.7815
  153OSM    C3F17061   1.484   5.430   2.893 -0.0671  0.2636  0.1790
  153OSM    H3F17062   1.384   5.473   2.915 -0.6259 -1.0949  0.3698
  153OSM    H3G17063   1.540   5.497   2.824 -0.5810 -1.1655 -1.7261
  153OSM    C4F17064   1.584   5.432   3.020  0.3831 -1.6542  0.7445
  153OSM    H4F17065   1.679   5.382   2.991  0.0941 -2.4458  1.1389
  153OSM    H4G17066   1.539   5.366   3.097 -1.3702 -0.7169  0.5615
  153OSM    C5F17067   1.613   5.571   3.078 -0.4294  0.4685 -0.2787
  153OSM    H5F17068   1.518   5.628   3.084  0.8880  2.8171 -0.4048
  153OSM    H5G17069   1.685   5.616   3.007 -0.4255 -0.1384 -0.6666
  153OSM    C6F17070   1.686   5.571   3.222  0.2281  0.1819  0.8013
  153OSM    H6F17071   1.769   5.498   3.212  0.0748  0.0415  0.5504
  153OSM    H6G17072   1.619   5.551   3.308 -0.8716 -0.7192 -0.2417
  153OSM    C7F17073   1.737   5.711   3.249 -1.1748 -0.3300  0.2598
  153OSM    H7F17074   1.655   5.783   3.229 -0.5816  0.3511  0.2221
  153OSM    H7G17075   1.823   5.729   3.180 -1.6228 -0.9950 -0.4894
  153OSM    C8F17076   1.795   5.733   3.394 -0.5061 -0.5334 -0.5465
  153OSM    H8F17077   1.705   5.732   3.460  1.0138 -0.9101  1.5991
  153OSM    H8G17078   1.826   5.839   3.405 -0.1359 -0.8663  2.0762
  153OSM    C9F17079   1.889   5.631   3.448 -0.0732 -0.2406  0.1823
  153OSM    H9F17080   1.947   5.582   3.368 -0.5189  0.0318 -0.3206
  153OSM   C10F17081   1.929   5.618   3.574  0.6347 -0.3387  0.8741
  153OSM   H10F17082   2.000   5.537   3.598  1.5110  0.6468  1.7309
  153OSM   C11F17083   1.875   5.696   3.696  0.0350  0.3230  0.1273
  153OSM   H11F17084   1.774   5.736   3.669  0.0721  1.2698  1.3137
  153OSM   H11G17085   1.953   5.773   3.714 -0.4527  1.2480 -1.4309
  153OSM   C12F17086   1.863   5.610   3.824  0.5753 -0.0009  0.0062
  153OSM   H12F17087   1.945   5.536   3.828 -0.9306 -1.6846  2.9267
  153OSM   H12G17088   1.777   5.539   3.821  1.7556 -1.4641  0.0582
  153OSM   C13F17089   1.855   5.694   3.955 -0.6500 -0.1875 -0.3309
  153OSM   H13F17090   1.942   5.763   3.961  0.0487 -1.0691 -0.1587
  153OSM   H13G17091   1.869   5.617   4.033 -1.1427 -1.3555 -1.3617
  153OSM   C14F17092   1.730   5.776   3.978  0.5894 -0.1680  0.0107
  153OSM   H14F17093   1.650   5.698   3.977  1.1413 -0.7332 -1.1448
  153OSM   H14G17094   1.713   5.851   3.898  1.0235  0.6372  0.6655
  153OSM   C15F17095   1.717   5.845   4.115  0.1243  0.2721  0.2151
  153OSM   H15F17096   1.715   5.774   4.201  2.1825  3.2120  2.9267
  153OSM   H15G17097   1.619   5.896   4.106 -0.1962 -0.5782 -1.4263
  153OSM   C16F17098   1.827   5.939   4.148 -0.0547 -0.0339  0.1864
  153OSM   H16F17099   1.840   5.995   4.053  3.4628 -1.0993 -0.0777
  153OSM   H16G17100   1.927   5.894   4.165  0.0584  0.8294  2.0288
  153OSM   C17F17101   1.781   6.026   4.262 -0.3697  0.3261 -0.3536
  153OSM   H17F17102   1.767   5.961   4.351 -2.6831  0.1471 -0.7890
  153OSM   H17G17103   1.683   6.069   4.232 -0.0650  2.3562  1.3531
  153OSM   C18F17104   1.865   6.156   4.289  0.3815  0.1499 -0.5182
  153OSM   H18F17105   1.967   6.124   4.258  0.5253  1.0928 -1.0202
  153OSM   H18G17106   1.849   6.191   4.393 -0.9573 -0.9328 -0.3186
  153OSM   H18H17107   1.844   6.243   4.224 -2.6385 -0.2709 -0.2365
  154OSM      N17108   6.560   1.622   2.381  0.0335  0.3172 -0.0970
  154OSM    C1517109   6.685   1.539   2.368 -0.2100  0.4002  0.0345
  154OSM   H15A17110   6.673   1.466   2.289 -0.4085  0.1531  0.2915
  154OSM   H15B17111   6.710   1.482   2.456  1.5016 -2.3597 -2.0559
  154OSM   H15C17112   6.772   1.601   2.354 -0.0369  0.6871  2.0839
  154OSM    C1417113   6.588   1.730   2.482 -0.1275  0.4319  0.2788
  154OSM   H14A17114   6.627   1.679   2.570 -0.3288 -2.3420 -1.1094
  154OSM   H14B17115   6.501   1.792   2.492 -0.3839  0.3929 -1.4719
  154OSM   H14C17116   6.663   1.794   2.438  0.5090  0.0131  0.7207
  154OSM    C1317117   6.522   1.671   2.243 -0.1196 -0.5269  0.2486
  154OSM   H13A17118   6.578   1.757   2.211  0.5654 -0.7621  0.7980
  154OSM   H13B17119   6.416   1.692   2.245  0.0365  0.3280  2.9095
  154OSM   H13C17120   6.539   1.584   2.181 -1.1426 -0.5931  0.0443
  154OSM    C1217121   6.452   1.529   2.431 -0.5565  0.2966 -0.0641
  154OSM   H12A17122   6.358   1.581   2.435  0.0947  1.4080  2.1325
  154OSM   H12B17123   6.459   1.511   2.537 -0.8686  0.5877  0.0080
  154OSM    C1117124   6.424   1.398   2.358 -0.2614  0.2793 -0.2960
  154OSM   H11A17125   6.367   1.335   2.429 -0.2587  1.7409  1.0648
  154OSM   H11B17126   6.511   1.339   2.324 -1.3385 -1.4939 -0.0850
  154OSM      P17127   6.215   1.374   2.206  0.0871  0.3623 -0.0538
  154OSM    O1317128   6.191   1.412   2.063  0.6767 -0.0438  0.1315
  154OSM    O1417129   6.230   1.234   2.242  0.2594 -0.0774  0.1110
  154OSM    O1117130   6.097   1.450   2.290 -0.3939  0.1234  0.4130
  154OSM    O1217131   6.349   1.446   2.249 -0.3254  0.0225  0.0243
  154OSM    C1S17132   6.069   1.437   2.425 -0.3013 -0.7638 -0.0594
  154OSM    H1S17133   6.161   1.416   2.484 -0.2311  0.3571  0.2601
  154OSM    H1T17134   5.988   1.364   2.447 -1.7506  1.1876  1.3212
  154OSM     NF17135   6.024   1.581   2.620  0.1065  0.8159  0.5408
  154OSM    HNF17136   5.938   1.607   2.663  0.4038  2.8719 -0.0192
  154OSM    C2S17137   6.021   1.574   2.472 -0.6785 -0.6893 -0.0433
  154OSM    H2S17138   6.092   1.652   2.437 -0.8347 -1.2119 -1.5667
  154OSM    C3S17139   5.889   1.616   2.408 -0.6606 -0.3396  0.1358
  154OSM    H3S17140   5.805   1.546   2.422 -0.1350 -0.6990  1.6559
  154OSM     O317141   5.904   1.636   2.265  0.0457  0.4238 -0.1929
  154OSM    HO317142   5.980   1.594   2.224 -1.2415 -0.0064 -2.2784
  154OSM    C4S17143   5.842   1.758   2.450 -0.2721  1.0132 -0.1369
  154OSM    H4S17144   5.902   1.829   2.392  1.1351 -1.3457 -1.7539
  154OSM    C5S17145   5.743   1.790   2.531 -0.8714 -0.3132  0.3740
  154OSM    H5S17146   5.685   1.706   2.572  1.0356 -1.7377  0.2998
  154OSM    C6S17147   5.702   1.932   2.560  1.2296  0.1509 -0.1728
  154OSM    H6S17148   5.596   1.955   2.537  1.3681  0.6476 -0.3272
  154OSM    H6T17149   5.766   2.003   2.503  0.6410  0.4364 -0.4856
  154OSM    C7S17150   5.704   1.961   2.713 -0.0628  0.0212 -0.1430
  154OSM    H7S17151   5.676   2.068   2.723  1.1660  0.9555 -4.3697
  154OSM    H7T17152   5.805   1.958   2.761 -0.2178  1.7646  0.3825
  154OSM    C8S17153   5.616   1.866   2.792 -0.2507  0.0599  0.0283
  154OSM    H8S17154   5.630   1.760   2.762  1.2620 -0.6755  2.9073
  154OSM    H8T17155   5.507   1.884   2.778 -0.8140 -1.3845  2.0716
  154OSM    C9S17156   5.652   1.867   2.942  0.2878  0.1616 -0.0896
  154OSM    H9S17157   5.571   1.816   2.997 -0.8975 -0.7559 -2.5348
  154OSM    H9T17158   5.667   1.966   2.989  0.0916  0.0848  0.1373
  154OSM   C10S17159   5.785   1.793   2.977  0.0311  0.3735  0.0922
  154OSM   H10S17160   5.861   1.807   2.897  1.0069  3.2704  1.3508
  154OSM   H10T17161   5.765   1.684   2.967  0.7198  0.1233  1.1436
  154OSM   C11S17162   5.847   1.828   3.113  0.2484  0.1321 -0.4338
  154OSM   H11S17163   5.868   1.936   3.125  0.8147 -0.0076 -0.1079
  154OSM   H11T17164   5.943   1.772   3.123  0.7170 -0.2407 -5.1185
  154OSM   C12S17165   5.767   1.771   3.231 -0.2639 -0.2444  0.2907
  154OSM   H12S17166   5.743   1.665   3.212 -2.4120  0.4476 -1.3403
  154OSM   H12T17167   5.663   1.809   3.232 -0.8582 -1.7648 -0.6289
  154OSM   C13S17168   5.848   1.786   3.359 -0.0403  0.6371 -0.1528
  154OSM   H13S17169   5.855   1.896   3.370 -0.1640  0.4929  1.6065
  154OSM   H13T17170   5.952   1.751   3.341 -0.2709  0.1108 -0.5126
  154OSM   C14S17171   5.772   1.726   3.475  0.0768  0.3676 -0.2192
  154OSM   H14S17172   5.740   1.621   3.463 -1.2227  0.1589  3.7223
  154OSM   H14T17173   5.680   1.786   3.488 -0.4462 -0.1939 -1.2732
  154OSM   C15S17174   5.846   1.731   3.613 -0.4268  0.0178 -0.2501
  154OSM   H15S17175   5.827   1.833   3.654 -0.0506  0.7512 -1.8354
  154OSM   H15T17176   5.955   1.711   3.604 -0.9335 -3.2720 -0.3542
  154OSM   C16S17177   5.791   1.610   3.696 -0.4415  0.0195  0.4914
  154OSM   H16S17178   5.828   1.513   3.655 -0.1873  0.0062  0.7435
  154OSM   H16T17179   5.681   1.616   3.684 -0.8301  0.4563  3.4785
  154OSM   C17S17180   5.835   1.610   3.839 -0.3041  0.1258 -0.1427
  154OSM   H17S17181   5.780   1.532   3.897  0.5666 -1.3050 -1.1741
  154OSM   H17T17182   5.797   1.704   3.884  1.0659  0.4250  0.4429
  154OSM   C18S17183   5.982   1.584   3.852 -0.5996  0.0315 -0.1726
  154OSM   H18S17184   6.016   1.578   3.958 -3.1120 -0.9035  0.6616
  154OSM   H18T17185   6.037   1.661   3.795 -0.9407 -1.5821 -2.8501
  154OSM   H18U17186   6.011   1.488   3.805 -0.4483 -0.7439  1.4257
  154OSM    C1F17187   6.138   1.572   2.687 -0.4069  0.1820 -0.4990
  154OSM     OF17188   6.247   1.573   2.628 -0.5870  0.0915  0.6131
  154OSM    C2F17189   6.123   1.553   2.832 -0.1306  0.6104 -0.3713
  154OSM    H2F17190   6.096   1.447   2.852 -3.3110  1.3376 -0.3484
  154OSM    H2G17191   6.029   1.595   2.873  0.0678 -0.2931  1.0695
  154OSM    C3F17192   6.247   1.606   2.914 -0.2594  0.5933  0.4233
  154OSM    H3F17193   6.279   1.704   2.871  1.2816 -0.5654 -1.1846
  154OSM    H3G17194   6.337   1.543   2.900  0.5838  1.4926  1.5825
  154OSM    C4F17195   6.207   1.612   3.061  0.3610  0.5150 -0.2763
  154OSM    H4F17196   6.168   1.513   3.093 -0.5062  0.8662 -0.2070
  154OSM    H4G17197   6.132   1.693   3.077  0.3491  0.9843 -2.4725
  154OSM    C5F17198   6.320   1.644   3.165  0.8082 -0.3785  0.7161
  154OSM    H5F17199   6.347   1.750   3.148  1.0247 -0.5265  0.1356
  154OSM    H5G17200   6.400   1.571   3.140  2.1517  0.8190  1.3495
  154OSM    C6F17201   6.274   1.611   3.303  0.5078 -0.0041  0.8540
  154OSM    H6F17202   6.222   1.514   3.292  0.7925 -0.0170 -0.5831
  154OSM    H6G17203   6.205   1.680   3.355  1.3518  0.5023  1.3288
  154OSM    C7F17204   6.396   1.596   3.399 -0.4673 -0.9157  0.5811
  154OSM    H7F17205   6.442   1.697   3.404  0.9772 -1.4375 -1.0651
  154OSM    H7G17206   6.467   1.529   3.346 -0.6720  0.5675 -1.7024
  154OSM    C8F17207   6.359   1.558   3.544 -0.2132  0.1691 -0.0813
  154OSM    H8F17208   6.270   1.616   3.576  0.2234  0.4117  0.6916
  154OSM    H8G17209   6.435   1.593   3.616 -1.4802  2.2101  0.3450
  154OSM    C9F17210   6.307   1.413   3.553  0.1061 -0.5982 -0.5647
  154OSM    H9F17211   6.258   1.379   3.461 -1.8764  1.1556 -0.2253
  154OSM   C10F17212   6.322   1.335   3.656 -0.1769  0.0376  1.3151
  154OSM   H10F17213   6.262   1.242   3.659 -2.4172  1.4302  1.5701
  154OSM   C11F17214   6.392   1.372   3.786  0.3907  0.3263  0.5658
  154OSM   H11F17215   6.409   1.482   3.792  3.2403  0.1167 -1.5585
  154OSM   H11G17216   6.495   1.333   3.778  0.5478  0.7318  0.6047
  154OSM   C12F17217   6.328   1.320   3.921 -0.3425 -0.2199  0.0750
  154OSM   H12F17218   6.285   1.220   3.899  0.9437 -0.6455 -0.6219
  154OSM   H12G17219   6.243   1.387   3.944  0.6539  1.0214  0.2086
  154OSM   C13F17220   6.429   1.313   4.036  0.4829  0.1957  0.3957
  154OSM   H13F17221   6.449   1.415   4.075 -2.1303  1.1327 -0.5048
  154OSM   H13G17222   6.521   1.260   4.003  1.2474  0.8963  1.3398
  154OSM   C14F17223   6.369   1.252   4.158 -0.1297  0.2572  0.4164
  154OSM   H14F17224   6.313   1.164   4.119 -1.1492  1.4549 -0.9582
  154OSM   H14G17225   6.291   1.315   4.207  0.3487  1.4106 -0.2719
  154OSM   C15F17226   6.472   1.230   4.271  0.4974 -0.4087 -0.1817
  154OSM   H15F17227   6.536   1.321   4.280  0.2683 -0.2163 -0.4735
  154OSM   H15G17228   6.537   1.142   4.256  4.4801  2.3309 -0.6616
  154OSM   C16F17229   6.404   1.240   4.408 -0.5117  0.1733 -0.7631
  154OSM   H16F17230   6.297   1.213   4.398 -1.3114  2.0619  1.6590
  154OSM   H16G17231   6.397   1.345   4.444 -4.1697  0.0755 -0.8495
  154OSM   C17F17232   6.473   1.155   4.521  0.2366  0.1345  0.1394
  154OSM   H17F17233   6.427   1.164   4.621  0.5821  1.2449  0.2099
  154OSM   H17G17234   6.580   1.184   4.516  0.3313 -0.3577 -1.7413
  154OSM   C18F17235   6.492   1.002   4.484  0.9709 -0.1856  0.4165
  154OSM   H18F17236   6.561   0.979   4.400 -0.2091 -1.1791 -0.3105
  154OSM   H18G17237   6.396   0.955   4.455  1.2446 -0.3899 -0.1734
  154OSM   H18H17238   6.517   0.941   4.573 -3.8513 -2.8826  0.2736
  155OSM      N17239   2.667   5.950   1.907 -0.1954  0.2662  0.2789
  155OSM    C1517240   2.525   5.962   1.905 -0.1312  0.1855  0.7186
  155OSM   H15A17241   2.472   5.953   1.812 -0.8065  3.6286  0.6228
  155OSM   H15B17242   2.501   6.061   1.939  0.3808  0.7729 -0.5530
  155OSM   H15C17243   2.477   5.897   1.977 -0.9474 -1.2731 -1.0729
  155OSM    C1417244   2.703   5.822   1.833  0.2807 -1.0044 -0.0288
  155OSM   H14A17245   2.630   5.798   1.756  0.9326 -2.3656 -0.2353
  155OSM   H14B17246   2.716   5.750   1.912  0.7427  1.3653  2.1760
  155OSM   H14C17247   2.800   5.846   1.792  0.5673 -2.1563 -0.0532
  155OSM    C1317248   2.712   6.069   1.837  0.9493 -0.1577  0.1149
  155OSM   H13A17249   2.818   6.081   1.816  0.3500  1.9005 -2.2441
  155OSM   H13B17250   2.694   6.155   1.900 -0.3351 -0.4715  0.1925
  155OSM   H13C17251   2.652   6.081   1.749  1.5927 -1.2293 -0.4858
  155OSM    C1217252   2.721   5.935   2.044 -0.1968  0.3021 -0.0575
  155OSM   H12A17253   2.719   6.030   2.096  0.4043 -0.1866  0.8771
  155OSM   H12B17254   2.826   5.915   2.031 -0.4874 -1.8832  0.5163
  155OSM    C1117255   2.661   5.840   2.143 -0.4826 -0.5701 -0.1626
  155OSM   H11A17256   2.738   5.829   2.222  2.3708  2.4067 -2.2408
  155OSM   H11B17257   2.655   5.735   2.106 -0.2746 -0.9691  0.9233
  155OSM      P17258   2.429   5.797   2.261 -0.0015  0.1474 -0.1243
  155OSM    O1317259   2.319   5.881   2.306  0.2142  0.0707  0.1222
  155OSM    O1417260   2.390   5.678   2.184  0.6935  0.0433 -0.5504
  155OSM    O1117261   2.505   5.741   2.385 -0.2937  0.2578 -0.1446
  155OSM    O1217262   2.536   5.896   2.190  0.6902 -0.1613  0.4124
  155OSM    C1S17263   2.545   5.815   2.499  0.3737  0.2895  0.9186
  155OSM    H1S17264   2.520   5.923   2.493 -0.0102  0.1970  0.8508
  155OSM    H1T17265   2.655   5.807   2.511  0.5317  2.5941  1.4221
  155OSM     NF17266   2.506   5.847   2.743  0.3587  0.3800  0.3908
  155OSM    HNF17267   2.568   5.795   2.802  0.5448  0.2744  0.1067
  155OSM    C2S17268   2.473   5.767   2.631 -0.3032  0.7955  0.5465
  155OSM    H2S17269   2.365   5.782   2.606 -0.2847  0.1797  0.0656
  155OSM    C3S17270   2.490   5.607   2.659 -0.8552  0.6289 -0.2634
  155OSM    H3S17271   2.596   5.592   2.687 -1.2602  2.2423  2.4501
  155OSM     O317272   2.470   5.524   2.546  0.0715 -0.1663  0.0071
  155OSM    HO317273   2.492   5.579   2.470 -1.9611  0.5054 -0.1716
  155OSM    C4S17274   2.405   5.550   2.772  0.0893 -0.2646  1.2067
  155OSM    H4S17275   2.308   5.601   2.769  0.5675  0.6775 -1.6127
  155OSM    C5S17276   2.434   5.446   2.851  0.4096 -0.1776 -0.0182
  155OSM    H5S17277   2.521   5.383   2.825  0.3398 -0.8318  1.2664
  155OSM    C6S17278   2.335   5.389   2.954 -0.3762  0.4810  0.4154
  155OSM    H6S17279   2.319   5.280   2.935  0.5570  0.7258 -2.2136
  155OSM    H6T17280   2.242   5.450   2.955 -0.2605  0.6907  2.0448
  155OSM    C7S17281   2.395   5.413   3.090  0.1552  0.2223 -0.1797
  155OSM    H7S17282   2.443   5.511   3.108 -0.1691 -0.2087  3.9026
  155OSM    H7T17283   2.485   5.349   3.106  0.0131  0.4481  1.6764
  155OSM    C8S17284   2.290   5.408   3.197 -0.4949 -0.2361  0.5273
  155OSM    H8S17285   2.230   5.316   3.181 -0.2750 -0.3645  0.4413
  155OSM    H8T17286   2.216   5.490   3.187 -0.7799 -0.6133 -0.6313
  155OSM    C9S17287   2.342   5.407   3.342 -0.7960 -0.1430  1.0244
  155OSM    H9S17288   2.410   5.493   3.352 -1.9026  0.5970  2.5268
  155OSM    H9T17289   2.385   5.306   3.359 -3.3096 -1.2577  1.2977
  155OSM   C10S17290   2.237   5.415   3.456 -0.2496 -0.1538 -0.5958
  155OSM   H10S17291   2.181   5.319   3.450 -0.7355  0.1093 -0.2737
  155OSM   H10T17292   2.172   5.505   3.447 -0.9915 -0.6853 -0.6748
  155OSM   C11S17293   2.320   5.425   3.595 -0.4366  0.3499  0.5847
  155OSM   H11S17294   2.430   5.410   3.586 -0.0207  3.1732  0.0106
  155OSM   H11T17295   2.289   5.354   3.674  1.7924  0.9777  2.1259
  155OSM   C12S17296   2.299   5.559   3.661  0.1932 -0.6589 -0.1494
  155OSM   H12S17297   2.210   5.540   3.724  0.4570 -0.6278  0.2350
  155OSM   H12T17298   2.294   5.627   3.573 -1.3466 -2.8474 -1.8821
  155OSM   C13S17299   2.411   5.595   3.759  0.3905 -1.0167  0.2169
  155OSM   H13S17300   2.497   5.635   3.701  0.9608 -0.9466  1.0795
  155OSM   H13T17301   2.433   5.494   3.800  0.1505 -2.0376 -2.0109
  155OSM   C14S17302   2.384   5.705   3.858  0.5728  0.2855 -0.0993
  155OSM   H14S17303   2.360   5.798   3.802  0.4898 -0.9752 -2.2860
  155OSM   H14T17304   2.472   5.710   3.926 -1.0755  2.2531  2.0098
  155OSM   C15S17305   2.259   5.680   3.941  0.0244 -0.3432 -0.6561
  155OSM   H15S17306   2.252   5.584   3.995 -2.1086  1.4318  2.5318
  155OSM   H15T17307   2.170   5.683   3.874  0.6886 -1.8738 -1.6609
  155OSM   C16S17308   2.240   5.792   4.053 -0.4670  1.2249 -0.0344
  155OSM   H16S17309   2.325   5.790   4.125 -1.0388 -1.6432  0.7147
  155OSM   H16T17310   2.162   5.759   4.125  1.5265 -0.8198  1.3335
  155OSM   C17S17311   2.219   5.934   4.004  0.0207  0.1281 -0.6959
  155OSM   H17S17312   2.131   5.974   4.058 -0.3636  0.6782 -1.7094
  155OSM   H17T17313   2.178   5.924   3.901 -2.5306 -0.9037  0.3415
  155OSM   C18S17314   2.346   6.016   4.032  0.2506  0.2483 -0.3014
  155OSM   H18S17315   2.437   5.955   4.015 -0.5860 -1.3316  0.6341
  155OSM   H18T17316   2.367   6.047   4.137  1.3674  1.3317 -0.8185
  155OSM   H18U17317   2.336   6.107   3.970  3.4186  1.2870  0.5059
  155OSM    C1F17318   2.471   5.976   2.752  0.8472 -0.3352 -0.6435
  155OSM     OF17319   2.394   6.034   2.676 -0.2345  0.1452  0.0223
  155OSM    C2F17320   2.513   6.049   2.880 -0.0639 -0.3002 -0.6970
  155OSM    H2F17321   2.593   5.990   2.930  0.3810  0.7554 -0.1153
  155OSM    H2G17322   2.419   6.050   2.939 -0.8482 -2.0183 -1.8306
  155OSM    C3F17323   2.569   6.189   2.848  0.3535 -0.4409  0.3025
  155OSM    H3F17324   2.504   6.252   2.783  0.9996 -0.5497 -0.4703
  155OSM    H3G17325   2.650   6.161   2.778 -1.5096 -1.0997 -1.7006
  155OSM    C4F17326   2.626   6.266   2.966  0.6721  0.2362 -0.2383
  155OSM    H4F17327   2.696   6.335   2.915 -0.4531  2.2162  0.8011
  155OSM    H4G17328   2.695   6.198   3.021  0.9721  1.3934  0.8465
  155OSM    C5F17329   2.519   6.338   3.043 -0.8438 -0.4743 -0.3537
  155OSM    H5F17330   2.576   6.373   3.131 -0.0928  1.5398 -1.5856
  155OSM    H5G17331   2.439   6.268   3.075 -1.0636 -1.2505 -2.4257
  155OSM    C6F17332   2.455   6.460   2.979 -0.6469 -0.4373 -0.1113
  155OSM    H6F17333   2.374   6.495   3.047  1.1275 -0.2818  2.0242
  155OSM    H6G17334   2.403   6.420   2.890  2.5879 -2.5101 -1.2033
  155OSM    C7F17335   2.556   6.567   2.929  0.7974  0.0427  0.4549
  155OSM    H7F17336   2.491   6.636   2.871 -1.0554 -1.1946  0.9827
  155OSM    H7G17337   2.638   6.520   2.871  0.6252 -0.9034  0.9623
  155OSM    C8F17338   2.609   6.646   3.046 -1.1526  0.2312 -0.0957
  155OSM    H8F17339   2.699   6.701   3.011 -1.1925  0.7239  0.5467
  155OSM    H8G17340   2.647   6.573   3.121 -1.3342 -0.8153 -0.9953
  155OSM    C9F17341   2.513   6.753   3.091 -0.6084  0.3964 -0.1246
  155OSM    H9F17342   2.494   6.823   3.009 -0.0346  1.4555  0.6289
  155OSM   C10F17343   2.455   6.755   3.221  0.2732 -0.1586  0.6448
  155OSM   H10F17344   2.400   6.845   3.251  0.2545  0.4153 -0.9904
  155OSM   C11F17345   2.475   6.655   3.336 -0.0402 -0.7884  0.1837
  155OSM   H11F17346   2.502   6.558   3.290  1.5061 -0.9614  1.3769
  155OSM   H11G17347   2.387   6.664   3.404 -1.5975  0.6283 -1.9056
  155OSM   C12F17348   2.596   6.698   3.417 -0.2008 -0.1172 -0.1818
  155OSM   H12F17349   2.689   6.690   3.357 -1.0023  0.4729 -1.5634
  155OSM   H12G17350   2.601   6.628   3.503 -0.0652  1.5840  1.2642
  155OSM   C13F17351   2.592   6.836   3.482  0.0721  0.6227  0.7418
  155OSM   H13F17352   2.493   6.848   3.530  0.0864 -0.5517  1.0956
  155OSM   H13G17353   2.598   6.915   3.404 -1.8578 -0.2245 -0.3340
  155OSM   C14F17354   2.700   6.869   3.586  0.1959 -0.0611  0.2356
  155OSM   H14F17355   2.796   6.862   3.532  0.9327 -0.1052  1.5118
  155OSM   H14G17356   2.708   6.784   3.657 -0.3727 -1.1154 -0.9300
  155OSM   C15F17357   2.668   7.006   3.656 -0.2198  0.5133 -0.1837
  155OSM   H15F17358   2.566   7.006   3.701  0.0120  0.1293  0.3574
  155OSM   H15G17359   2.674   7.079   3.573 -0.2551 -0.9201 -1.4868
  155OSM   C16F17360   2.767   7.044   3.766 -0.9511 -0.2253  0.1085
  155OSM   H16F17361   2.759   7.152   3.791 -1.0247 -0.6773  2.1845
  155OSM   H16G17362   2.869   7.037   3.723 -0.3709  0.6861  1.2750
  155OSM   C17F17363   2.757   6.953   3.894  0.4783 -0.2772  0.5414
  155OSM   H17F17364   2.757   6.846   3.864 -0.8546 -0.6763  1.8025
  155OSM   H17G17365   2.660   6.967   3.947  0.2260 -0.7118  0.1993
  155OSM   C18F17366   2.873   6.975   3.995  0.8257 -0.0324 -0.2196
  155OSM   H18F17367   2.970   6.983   3.942  1.4956  1.0148  1.1033
  155OSM   H18G17368   2.868   6.893   4.069 -1.4071 -0.6782 -0.9842
  155OSM   H18H17369   2.860   7.066   4.056  1.3005 -0.3558  0.3622
  156OSM      N17370   4.737   4.176   2.039 -0.1235  0.2297 -1.0143
  156OSM    C1517371   4.657   4.212   1.924  0.5934  0.4151  0.1897
  156OSM   H15A17372   4.594   4.133   1.887  1.4257 -0.9663  1.6029
  156OSM   H15B17373   4.708   4.267   1.846 -0.8937  0.2384 -0.9503
  156OSM   H15C17374   4.580   4.281   1.954  0.5605  1.5329 -2.2054
  156OSM    C1417375   4.658   4.142   2.161  0.2580 -0.1637  0.9812
  156OSM   H14A17376   4.624   4.232   2.209  2.1716  0.0133  2.1097
  156OSM   H14B17377   4.727   4.109   2.238 -0.7688 -3.4483  0.6831
  156OSM   H14C17378   4.583   4.066   2.144  0.1862  0.1011  0.0435
  156OSM    C1317379   4.813   4.051   2.006  0.3854  0.6296  0.2507
  156OSM   H13A17380   4.884   4.073   1.928 -0.7699  0.5690 -0.8545
  156OSM   H13B17381   4.742   3.976   1.975  1.1003  0.2209 -0.4226
  156OSM   H13C17382   4.869   4.013   2.090 -0.3427 -0.7765  0.1207
  156OSM    C1217383   4.834   4.286   2.077 -0.6555  0.4228 -0.6735
  156OSM   H12A17384   4.781   4.380   2.084  0.4283  1.0121 -0.0279
  156OSM   H12B17385   4.906   4.308   1.999  0.4094 -0.8908 -0.0895
  156OSM    C1117386   4.928   4.269   2.193 -0.3395 -0.1322 -0.2914
  156OSM   H11A17387   4.987   4.177   2.169  1.1324  1.3599 -2.8985
  156OSM   H11B17388   4.868   4.246   2.284  1.6376 -0.7359  0.9352
  156OSM      P17389   5.121   4.401   2.321 -0.1791  0.2367  0.1039
  156OSM    O1317390   5.236   4.305   2.304 -0.6157 -0.0627  0.1794
  156OSM    O1417391   5.164   4.545   2.318 -0.3334 -0.0660 -0.0464
  156OSM    O1117392   5.051   4.368   2.458  0.3887  0.6020  0.4373
  156OSM    O1217393   5.007   4.387   2.211  0.7290  0.1202 -0.5778
  156OSM    C1S17394   4.980   4.472   2.529  0.4740 -0.0183  0.5081
  156OSM    H1S17395   4.878   4.473   2.487  0.4530 -1.1885  0.5036
  156OSM    H1T17396   5.027   4.573   2.518  1.9408 -0.4728  2.1037
  156OSM     NF17397   4.912   4.538   2.775  0.0924 -0.3441  0.3073
  156OSM    HNF17398   4.962   4.587   2.846  1.3602 -1.0345 -0.0746
  156OSM    C2S17399   4.984   4.448   2.688  1.4152 -0.6722  0.6384
  156OSM    H2S17400   4.924   4.354   2.684 -0.7048  0.6662 -1.5804
  156OSM    C3S17401   5.128   4.407   2.745  0.3183  0.3419  0.2937
  156OSM    H3S17402   5.201   4.486   2.718 -1.5968  2.5996  1.3663
  156OSM     O317403   5.180   4.286   2.687 -0.0385 -0.2579  0.5955
  156OSM    HO317404   5.145   4.282   2.598  2.9253  0.2190 -0.6869
  156OSM    C4S17405   5.119   4.390   2.895 -0.0666 -0.0920 -0.3530
  156OSM    H4S17406   5.152   4.477   2.954  1.3571 -1.8472  1.5757
  156OSM    C5S17407   5.096   4.275   2.962 -0.6967  0.3989  0.3288
  156OSM    H5S17408   5.074   4.182   2.906 -1.6283  2.2454 -2.5754
  156OSM    C6S17409   5.092   4.246   3.109  0.7383 -0.1001  0.0761
  156OSM    H6S17410   5.144   4.149   3.128 -0.4542 -1.0823 -1.4224
  156OSM    H6T17411   4.986   4.224   3.134 -0.7268  2.0570 -3.4871
  156OSM    C7S17412   5.156   4.354   3.197 -0.7970 -0.1107  0.4696
  156OSM    H7S17413   5.109   4.453   3.177  0.1233  0.1246 -0.6414
  156OSM    H7T17414   5.263   4.372   3.178 -1.1113  1.2893 -0.1185
  156OSM    C8S17415   5.135   4.327   3.346  0.1178  0.6481  0.5909
  156OSM    H8S17416   5.206   4.245   3.371 -0.2753  0.2063  0.2863
  156OSM    H8T17417   5.035   4.280   3.358  0.4307 -0.8858 -2.0396
  156OSM    C9S17418   5.153   4.446   3.433 -0.0645 -0.2141  0.2283
  156OSM    H9S17419   5.095   4.536   3.400 -2.4064 -1.4822  0.6729
  156OSM    H9T17420   5.260   4.475   3.440 -0.0137 -0.7502  1.8982
  156OSM   C10S17421   5.104   4.401   3.568  0.7687  0.1683 -0.3027
  156OSM   H10S17422   5.177   4.327   3.606  4.2395  2.8452 -1.2237
  156OSM   H10T17423   5.006   4.350   3.564 -1.2259  3.6333 -0.2434
  156OSM   C11S17424   5.095   4.519   3.661  0.2973 -0.4485  0.1549
  156OSM   H11S17425   5.050   4.607   3.610 -2.1728 -1.9647 -0.4795
  156OSM   H11T17426   5.199   4.543   3.692  0.1298  0.9128 -0.2528
  156OSM   C12S17427   5.014   4.501   3.789 -0.0957  0.3191  0.0001
  156OSM   H12S17428   5.038   4.403   3.836 -2.6506 -1.1181 -1.4369
  156OSM   H12T17429   4.905   4.500   3.768 -0.0157 -0.3535 -0.4239
  156OSM   C13S17430   5.044   4.602   3.897 -0.4270 -0.2239  0.0906
  156OSM   H13S17431   5.016   4.706   3.869  0.9123  0.6990  1.8893
  156OSM   H13T17432   5.154   4.600   3.915 -0.0749  1.6322 -1.5522
  156OSM   C14S17433   4.969   4.562   4.025  0.7468 -0.1562  0.8357
  156OSM   H14S17434   4.993   4.463   4.069 -0.0380  0.1491  2.0079
  156OSM   H14T17435   4.861   4.570   3.997  1.2987 -0.0850 -1.4453
  156OSM   C15S17436   4.985   4.654   4.143  0.0298  0.1075  0.3679
  156OSM   H15S17437   5.006   4.759   4.115  0.1586 -0.1566 -0.5551
  156OSM   H15T17438   5.078   4.616   4.191  0.3740  1.0989  0.5044
  156OSM   C16S17439   4.875   4.640   4.244  0.5447 -0.6515 -0.8739
  156OSM   H16S17440   4.851   4.533   4.261 -2.1492  0.1783  1.2355
  156OSM   H16T17441   4.785   4.699   4.216  0.6457 -0.9303 -1.8208
  156OSM   C17S17442   4.937   4.687   4.377  0.2311  0.2316 -0.4080
  156OSM   H17S17443   4.956   4.797   4.383  0.1100  0.2065  0.5685
  156OSM   H17T17444   5.039   4.648   4.396 -0.7700 -1.7220  1.2881
  156OSM   C18S17445   4.839   4.650   4.495 -0.4629  1.1401 -0.1569
  156OSM   H18S17446   4.822   4.540   4.501  0.5309  0.9409 -0.8749
  156OSM   H18T17447   4.748   4.712   4.482 -0.2743  1.3600 -0.4292
  156OSM   H18U17448   4.884   4.686   4.591 -1.3686 -1.1294  1.2043
  156OSM    C1F17449   4.782   4.560   2.774  0.0776 -0.4142 -0.0613
  156OSM     OF17450   4.712   4.535   2.675  0.4996 -0.4615  0.1774
  156OSM    C2F17451   4.716   4.627   2.891  0.2040  0.4730  0.8278
  156OSM    H2F17452   4.609   4.626   2.862  0.5509 -0.2898 -0.5162
  156OSM    H2G17453   4.746   4.734   2.898  1.5807  0.2624 -1.1831
  156OSM    C3F17454   4.753   4.564   3.029 -0.2180  0.4999  0.3591
  156OSM    H3F17455   4.863   4.574   3.041 -0.0563  0.1253 -0.7377
  156OSM    H3G17456   4.736   4.455   3.037 -1.2855  0.4124 -2.2517
  156OSM    C4F17457   4.686   4.625   3.151 -0.2995  0.2435  0.1022
  156OSM    H4F17458   4.583   4.644   3.114 -0.6614 -3.5139 -1.3416
  156OSM    H4G17459   4.742   4.716   3.181 -2.5262  1.3806  1.0345
  156OSM    C5F17460   4.684   4.532   3.272 -0.1052  1.3629 -0.1667
  156OSM    H5F17461   4.776   4.470   3.276 -1.7847 -1.2482  0.2614
  156OSM    H5G17462   4.610   4.455   3.240 -0.2079  0.9103  1.0971
  156OSM    C6F17463   4.653   4.608   3.406 -0.2386  0.0222  0.6901
  156OSM    H6F17464   4.558   4.666   3.395 -0.0860 -0.0355 -1.3196
  156OSM    H6G17465   4.727   4.686   3.433 -0.0665 -0.9926  3.4686
  156OSM    C7F17466   4.659   4.515   3.532 -0.2333  0.3831 -0.2621
  156OSM    H7F17467   4.764   4.479   3.527 -0.5287 -0.5487  0.0664
  156OSM    H7G17468   4.600   4.424   3.509 -0.2558 -0.1097  1.6234
  156OSM    C8F17469   4.628   4.562   3.672  0.4574 -0.1606  0.6416
  156OSM    H8F17470   4.698   4.640   3.710  1.1456 -1.6603  2.6321
  156OSM    H8G17471   4.654   4.474   3.736  1.3650 -0.6360 -0.3350
  156OSM    C9F17472   4.486   4.605   3.684  0.1888  0.4694 -0.1651
  156OSM    H9F17473   4.449   4.667   3.601  2.9310  0.5772 -1.4068
  156OSM   C10F17474   4.414   4.594   3.803  0.1346  0.9353  0.2690
  156OSM   H10F17475   4.308   4.622   3.791  0.6250  1.7650 -2.8823
  156OSM   C11F17476   4.462   4.527   3.932 -0.2263  0.0031  0.2594
  156OSM   H11F17477   4.566   4.563   3.951 -0.0540  0.0797 -0.7305
  156OSM   H11G17478   4.457   4.417   3.914 -0.0340  0.2095 -1.2750
  156OSM   C12F17479   4.382   4.569   4.055  0.6068  0.6955 -0.3726
  156OSM   H12F17480   4.293   4.504   4.070  2.5094 -1.2979  4.2406
  156OSM   H12G17481   4.353   4.673   4.031 -1.2274 -0.2254 -2.4898
  156OSM   C13F17482   4.455   4.566   4.193 -0.1923 -0.3336  0.3571
  156OSM   H13F17483   4.527   4.650   4.197 -2.4515  2.2131 -4.3034
  156OSM   H13G17484   4.500   4.465   4.200  0.4205 -0.0446  0.6351
  156OSM   C14F17485   4.363   4.573   4.319 -0.1736  0.0323  0.0838
  156OSM   H14F17486   4.293   4.487   4.328 -0.7575  0.3849 -0.8609
  156OSM   H14G17487   4.306   4.668   4.314 -0.9912 -0.3777  1.1913
  156OSM   C15F17488   4.451   4.580   4.445  0.1321  0.0354 -0.6055
  156OSM   H15F17489   4.503   4.678   4.439 -1.2372  0.8467  0.2519
  156OSM   H15G17490   4.523   4.497   4.459  2.1211  1.4406 -1.9366
  156OSM   C16F17491   4.362   4.597   4.573  0.1739  0.4270  0.0081
  156OSM   H16F17492   4.278   4.525   4.566 -0.0916  0.8423 -1.4539
  156OSM   H16G17493   4.319   4.699   4.573  0.0713  0.3938  1.0741
  156OSM   C17F17494   4.436   4.564   4.703 -0.8064 -0.7825  0.0949
  156OSM   H17F17495   4.463   4.456   4.704 -0.3878 -0.6840 -0.5964
  156OSM   H17G17496   4.371   4.587   4.790  0.4913  0.3010  0.8015
  156OSM   C18F17497   4.566   4.640   4.710 -0.4926 -0.1267  0.4047
  156OSM   H18F17498   4.617   4.630   4.808  0.2274 -0.6062 -0.0078
  156OSM   H18G17499   4.550   4.748   4.693  0.1413 -0.0394  0.3159
  156OSM   H18H17500   4.632   4.616   4.624  0.4800  0.2547  1.0300
  157OSM      N17501   6.383   0.974   2.038 -0.1105  0.0847  0.2486
  157OSM    C1517502   6.319   1.079   1.947  0.1739  0.5266 -0.3344
  157OSM   H15A17503   6.330   1.175   1.995 -0.9585  0.0571  0.9233
  157OSM   H15B17504   6.213   1.056   1.942 -0.0119  0.7211  1.8948
  157OSM   H15C17505   6.364   1.071   1.849  2.3401 -0.2765  0.6655
  157OSM    C1417506   6.385   0.851   1.948  0.9351 -0.3562  0.2238
  157OSM   H14A17507   6.410   0.757   1.995  0.9294 -0.6434 -0.3311
  157OSM   H14B17508   6.460   0.864   1.871 -0.6614  1.5744 -1.0943
  157OSM   H14C17509   6.287   0.836   1.904  0.6564  1.3685  0.2016
  157OSM    C1317510   6.516   1.008   2.080  0.4301  0.1058 -0.2151
  157OSM   H13A17511   6.515   1.089   2.151  0.0633  0.3019 -0.4459
  157OSM   H13B17512   6.584   1.040   2.002 -0.3045  0.3548 -0.7590
  157OSM   H13C17513   6.564   0.923   2.127  1.2749 -1.5980 -3.8206
  157OSM    C1217514   6.294   0.947   2.159 -0.4280 -0.2093  0.0391
  157OSM   H12A17515   6.190   0.945   2.129 -0.2321 -0.9524 -0.6289
  157OSM   H12B17516   6.295   1.034   2.223 -1.5293  0.2147 -0.4836
  157OSM    C1117517   6.327   0.831   2.253 -0.6057 -0.4780 -0.0033
  157OSM   H11A17518   6.258   0.847   2.340 -2.1278  2.9445 -1.6416
  157OSM   H11B17519   6.433   0.834   2.286 -0.6413  1.6660  0.0168
  157OSM      P17520   6.172   0.641   2.161 -0.1456  0.1104 -0.0459
  157OSM    O1317521   6.084   0.742   2.105  0.9134 -0.2053  0.4253
  157OSM    O1417522   6.191   0.522   2.075 -0.0942  0.4633  0.2325
  157OSM    O1117523   6.120   0.609   2.306 -0.2730 -0.6808  0.3139
  157OSM    O1217524   6.315   0.709   2.186 -0.0804 -0.2778  0.4544
  157OSM    C1S17525   6.202   0.508   2.368 -0.1081  0.5201 -0.3398
  157OSM    H1S17526   6.309   0.538   2.373  0.8839 -2.7260  0.2804
  157OSM    H1T17527   6.204   0.414   2.308 -0.6814  0.4817 -0.3053
  157OSM     NF17528   6.250   0.382   2.567 -0.0655  0.1830 -0.7415
  157OSM    HNF17529   6.237   0.283   2.565  1.7585 -0.1462  1.0187
  157OSM    C2S17530   6.155   0.469   2.510 -0.1762  0.5169 -0.2881
  157OSM    H2S17531   6.156   0.565   2.567  1.3002  0.3729 -0.0203
  157OSM    C3S17532   6.012   0.408   2.517  0.1218 -0.1693  0.0683
  157OSM    H3S17533   6.014   0.316   2.454 -0.3423  1.5610 -2.6266
  157OSM     O317534   5.915   0.492   2.446  0.1886  0.5095 -0.2633
  157OSM    HO317535   5.958   0.565   2.399  1.9164 -0.7116 -0.6736
  157OSM    C4S17536   5.966   0.357   2.654  1.2241  0.1155 -0.6681
  157OSM    H4S17537   5.967   0.247   2.660  0.3190  0.1368  0.0218
  157OSM    C5S17538   5.921   0.427   2.765  0.1556  0.0675  0.6864
  157OSM    H5S17539   5.905   0.535   2.757  0.0149 -0.0355 -0.5019
  157OSM    C6S17540   5.888   0.364   2.899 -0.4315  0.7577 -0.0869
  157OSM    H6S17541   5.777   0.359   2.909 -0.2278 -0.8254  2.2387
  157OSM    H6T17542   5.915   0.437   2.978  1.4790 -0.1829  0.1843
  157OSM    C7S17543   5.946   0.227   2.918 -0.0995 -0.1646 -0.6713
  157OSM    H7S17544   6.057   0.225   2.914  0.0077 -0.6965  1.4662
  157OSM    H7T17545   5.907   0.143   2.856  0.8031 -0.5122 -0.7788
  157OSM    C8S17546   5.923   0.186   3.068 -0.4494 -0.3992 -0.9429
  157OSM    H8S17547   5.979   0.092   3.085 -3.6205 -2.1198  0.9002
  157OSM    H8T17548   5.815   0.172   3.087 -0.4409  0.3263 -0.3570
  157OSM    C9S17549   5.961   0.290   3.175  0.5278  0.2472 -0.2685
  157OSM    H9S17550   5.879   0.364   3.189 -0.9677 -0.9672 -2.1518
  157OSM    H9T17551   6.059   0.335   3.148  0.8161 -1.6023 -2.6178
  157OSM   C10S17552   5.982   0.223   3.312 -0.6430 -0.4135 -0.3438
  157OSM   H10S17553   6.075   0.163   3.312 -0.9998 -1.0031  0.7323
  157OSM   H10T17554   5.907   0.141   3.321  0.5070 -1.5741 -1.0610
  157OSM   C11S17555   5.988   0.327   3.424  0.6143 -0.0606 -0.6766
  157OSM   H11S17556   5.893   0.384   3.419 -0.1256 -1.3353 -2.0091
  157OSM   H11T17557   6.074   0.392   3.394  0.1328  0.1358 -1.6763
  157OSM   C12S17558   6.018   0.273   3.570 -0.2528  0.5252  0.5107
  157OSM   H12S17559   6.098   0.195   3.568 -1.1973 -0.4839 -2.4701
  157OSM   H12T17560   5.930   0.210   3.595 -0.8556  0.0211 -2.5638
  157OSM   C13S17561   6.050   0.382   3.670  0.2421  0.4083  0.2539
  157OSM   H13S17562   6.136   0.449   3.649  0.0055  0.4456 -0.6325
  157OSM   H13T17563   6.086   0.333   3.763 -0.9509  0.2466  0.6486
  157OSM   C14S17564   5.935   0.459   3.721  0.4142 -0.0651  0.1815
  157OSM   H14S17565   5.840   0.402   3.737 -0.4156  1.4227  0.8105
  157OSM   H14T17566   5.912   0.536   3.644 -1.8986 -1.1644 -0.3199
  157OSM   C15S17567   5.968   0.551   3.838  0.8292  0.0686  0.2935
  157OSM   H15S17568   6.036   0.632   3.803  0.2466  0.8353  0.9113
  157OSM   H15T17569   6.020   0.498   3.921 -1.3108 -1.1915  0.8942
  157OSM   C16S17570   5.855   0.635   3.892 -0.0965  0.1550  0.3915
  157OSM   H16S17571   5.766   0.570   3.906 -1.1040  1.0745 -1.2840
  157OSM   H16T17572   5.822   0.702   3.809 -1.1825 -1.1050 -0.2408
  157OSM   C17S17573   5.894   0.695   4.026 -0.6242  0.4943 -0.4422
  157OSM   H17S17574   5.983   0.756   3.999 -1.4464  0.4555 -3.6678
  157OSM   H17T17575   5.912   0.617   4.102 -1.1007  0.2312 -0.5929
  157OSM   C18S17576   5.777   0.774   4.083  0.6158  0.3243 -0.6592
  157OSM   H18S17577   5.687   0.711   4.100  0.5006  0.3536 -1.1443
  157OSM   H18T17578   5.728   0.850   4.018  0.5915  1.4584  0.6308
  157OSM   H18U17579   5.801   0.821   4.181  2.8927 -0.6966 -0.6658
  157OSM    C1F17580   6.368   0.430   2.601  0.5819  0.0807 -0.3348
  157OSM     OF17581   6.393   0.554   2.596  0.6092  0.0633  0.2565
  157OSM    C2F17582   6.469   0.329   2.649  0.0909  0.9259  0.6941
  157OSM    H2F17583   6.558   0.391   2.674  0.3179  0.6472  0.5846
  157OSM    H2G17584   6.503   0.251   2.578 -1.2354 -0.7095  1.7828
  157OSM    C3F17585   6.420   0.271   2.786  0.4232 -0.1628  0.7263
  157OSM    H3F17586   6.504   0.217   2.835  1.8683 -1.4623 -2.8786
  157OSM    H3G17587   6.335   0.205   2.757 -1.4494  2.6768 -0.7336
  157OSM    C4F17588   6.363   0.378   2.882  0.4239  0.1061 -0.0016
  157OSM    H4F17589   6.263   0.405   2.840  1.0287  0.1652 -1.4421
  157OSM    H4G17590   6.431   0.466   2.878  2.1860 -1.2490 -1.4583
  157OSM    C5F17591   6.342   0.332   3.023  0.0149  0.5191  0.3163
  157OSM    H5F17592   6.278   0.242   3.037  0.7615 -0.2710 -1.0360
  157OSM    H5G17593   6.296   0.412   3.084 -0.9673 -0.6938  1.2196
  157OSM    C6F17594   6.472   0.310   3.097 -0.3800 -0.3850 -0.6506
  157OSM    H6F17595   6.510   0.414   3.105 -0.3091 -0.3416 -1.5137
  157OSM    H6G17596   6.533   0.237   3.041 -0.3462  0.1697 -1.3504
  157OSM    C7F17597   6.447   0.262   3.246  0.3764  0.1258 -0.8007
  157OSM    H7F17598   6.547   0.241   3.290 -0.1129  1.7311  1.2200
  157OSM    H7G17599   6.379   0.176   3.227  0.3069  0.6425 -3.1766
  157OSM    C8F17600   6.383   0.374   3.333  0.7600  0.1836 -0.5270
  157OSM    H8F17601   6.340   0.346   3.432  2.5878 -0.2531  0.1943
  157OSM    H8G17602   6.291   0.410   3.283  1.1838  2.1128  0.0199
  157OSM    C9F17603   6.460   0.502   3.341  0.1748 -0.0849  0.0501
  157OSM    H9F17604   6.440   0.581   3.266  0.8738  0.2533  0.2151
  157OSM   C10F17605   6.541   0.527   3.440 -0.2458 -0.4132 -1.0104
  157OSM   H10F17606   6.597   0.621   3.439  0.9969 -1.1328 -0.5712
  157OSM   C11F17607   6.574   0.432   3.555  0.5900  0.1885 -0.0015
  157OSM   H11F17608   6.661   0.481   3.604 -1.5087  2.2365  1.9067
  157OSM   H11G17609   6.608   0.335   3.513 -1.0838  0.4635 -2.1457
  157OSM   C12F17610   6.468   0.415   3.668  0.3814 -0.1508 -0.4916
  157OSM   H12F17611   6.377   0.359   3.636  0.5909 -0.7418 -0.0650
  157OSM   H12G17612   6.432   0.518   3.690  0.9748 -0.4178  1.9998
  157OSM   C13F17613   6.511   0.347   3.796 -0.4163 -0.4149  0.0398
  157OSM   H13F17614   6.425   0.322   3.862 -1.9324 -1.2736 -2.1623
  157OSM   H13G17615   6.571   0.425   3.848  1.1517  0.6403 -3.1045
  157OSM   C14F17616   6.599   0.219   3.776  0.1017 -0.6376 -0.0364
  157OSM   H14F17617   6.677   0.227   3.697 -0.5503 -0.3615 -0.6680
  157OSM   H14G17618   6.536   0.132   3.747  0.6376 -1.0400  0.0072
  157OSM   C15F17619   6.680   0.199   3.898 -0.4901  0.4533 -0.4354
  157OSM   H15F17620   6.625   0.172   3.991  2.3283  0.7102  1.4188
  157OSM   H15G17621   6.727   0.294   3.931 -1.8103  0.9128  0.2122
  157OSM   C16F17622   6.795   0.100   3.878  0.6521 -0.0662 -0.5828
  157OSM   H16F17623   6.833   0.139   3.781 -1.2675  3.0549 -0.1980
  157OSM   H16G17624   6.737   0.007   3.858 -0.6462  0.4033  0.8392
  157OSM   C17F17625   6.886   0.092   3.996 -0.4236 -0.6539 -0.0524
  157OSM   H17F17626   6.932   0.193   4.004 -1.5510  0.0334 -1.7160
  157OSM   H17G17627   6.965   0.021   3.964 -0.2375 -0.1869 -0.6444
  157OSM   C18F17628   6.818   0.056   4.129  0.3238 -0.4585  0.5317
  157OSM   H18F17629   6.769   0.139   4.186  2.3490  0.7685  0.5632
  157OSM   H18G17630   6.894   0.014   4.198  1.8988  1.5872  0.1503
  157OSM   H18H17631   6.748  -0.024   4.097  0.4992  0.2368 -1.7700
  158OSM      N17632   0.261   5.111   2.038  0.0063 -0.4480  0.2961
  158OSM    C1517633   0.152   5.126   2.146  0.6842  0.0539 -0.0090
  158OSM   H15A17634   0.125   5.228   2.169  1.7758 -0.2335  3.0186
  158OSM   H15B17635   0.178   5.076   2.239  1.8143  1.2315  0.3338
  158OSM   H15C17636   0.068   5.069   2.110  1.2612 -1.2880  0.6879
  158OSM    C1417637   0.219   5.204   1.924 -0.7433 -0.3128 -0.6889
  158OSM   H14A17638   0.301   5.196   1.854  0.9007  3.1991  0.5940
  158OSM   H14B17639   0.206   5.309   1.945  1.7221  0.0796 -0.7502
  158OSM   H14C17640   0.125   5.169   1.884 -1.7499 -0.8539  1.9265
  158OSM    C1317641   0.383   5.169   2.093  0.3818  0.1409 -0.3804
  158OSM   H13A17642   0.359   5.265   2.137 -3.3757 -1.3695  1.3062
  158OSM   H13B17643   0.449   5.186   2.009  0.4521 -0.1295 -0.3788
  158OSM   H13C17644   0.430   5.108   2.169 -0.5181  1.6283  1.4735
  158OSM    C1217645   0.270   4.972   1.983 -0.2627  0.2990  0.1881
  158OSM   H12A17646   0.349   4.963   1.910 -0.3737 -1.8077  0.2606
  158OSM   H12B17647   0.176   4.952   1.934 -1.0781  0.2786  1.6914
  158OSM    C1117648   0.290   4.858   2.088 -0.6937  0.9703 -0.5506
  158OSM   H11A17649   0.385   4.860   2.145 -2.0655  0.4920  1.8982
  158OSM   H11B17650   0.302   4.769   2.022 -1.2933 -0.3468  1.0289
  158OSM      P17651   0.155   4.712   2.267 -0.4565 -0.0265 -0.4034
  158OSM    O1317652   0.011   4.695   2.307  0.2464 -0.5198  0.3894
  158OSM    O1417653   0.226   4.596   2.198  0.0237  0.5857 -0.4681
  158OSM    O1117654   0.243   4.762   2.386  0.5445  0.2240  0.4534
  158OSM    O1217655   0.172   4.832   2.163 -0.0473  0.2099 -0.5084
  158OSM    C1S17656   0.215   4.878   2.461  0.7651 -1.1867  0.1770
  158OSM    H1S17657   0.110   4.910   2.439  1.1784 -0.2516 -0.4740
  158OSM    H1T17658   0.281   4.962   2.432 -0.2666 -1.1189 -2.2882
  158OSM     NF17659   0.188   4.971   2.682  0.5789  0.4038 -0.4378
  158OSM    HNF17660   0.257   5.031   2.720 -0.3351  1.2398 -0.0515
  158OSM    C2S17661   0.231   4.854   2.608 -0.7909 -0.1857 -0.6284
  158OSM    H2S17662   0.174   4.764   2.639 -0.2963 -0.2334  0.1686
  158OSM    C3S17663   0.383   4.828   2.638  0.0550 -0.2471 -0.5192
  158OSM    H3S17664   0.446   4.917   2.615 -0.6619  1.0471  2.1899
  158OSM     O317665   0.443   4.728   2.559  0.1122  0.3145 -0.0241
  158OSM    HO317666   0.390   4.728   2.478 -0.3179 -0.0945  0.2546
  158OSM    C4S17667   0.405   4.812   2.786 -0.3977 -0.5948  0.3565
  158OSM    H4S17668   0.382   4.902   2.845  0.4805  1.5708 -2.3949
  158OSM    C5S17669   0.398   4.694   2.843 -0.7523  0.2548 -0.1726
  158OSM    H5S17670   0.365   4.606   2.785  0.8714 -0.0100 -0.7473
  158OSM    C6S17671   0.399   4.666   2.989 -0.9920  0.0786 -0.2918
  158OSM    H6S17672   0.482   4.594   2.998 -0.1690  0.9377 -0.8781
  158OSM    H6T17673   0.314   4.604   3.026 -1.3503  1.3509  1.1372
  158OSM    C7S17674   0.421   4.775   3.095  0.4869  0.8892 -0.1622
  158OSM    H7S17675   0.339   4.851   3.094  0.1295  0.5052 -0.1720
  158OSM    H7T17676   0.517   4.821   3.065  0.5362  0.5602 -0.5089
  158OSM    C8S17677   0.434   4.707   3.235 -0.5081  0.0692 -0.1581
  158OSM    H8S17678   0.520   4.637   3.239 -0.1298  0.5385 -0.1314
  158OSM    H8T17679   0.342   4.654   3.268  0.1173 -0.6580  0.4703
  158OSM    C9S17680   0.460   4.801   3.349  0.7383 -0.0902  0.6468
  158OSM    H9S17681   0.369   4.862   3.371 -0.3868 -0.6397 -2.0712
  158OSM    H9T17682   0.537   4.876   3.320  0.9680  0.5542  2.7885
  158OSM   C10S17683   0.503   4.729   3.482 -0.0320 -0.2744  0.1388
  158OSM   H10S17684   0.596   4.675   3.455 -0.6212 -0.3941 -1.8172
  158OSM   H10T17685   0.423   4.657   3.511  0.0687 -0.8475 -0.9534
  158OSM   C11S17686   0.531   4.825   3.599  0.1427  0.6779  0.0508
  158OSM   H11S17687   0.583   4.911   3.553 -0.4800  0.4836 -1.0565
  158OSM   H11T17688   0.612   4.779   3.661  0.0031  0.0128 -0.2471
  158OSM   C12S17689   0.417   4.855   3.685  1.0789  0.1523 -0.2464
  158OSM   H12S17690   0.334   4.897   3.624 -0.9251  0.4990  2.5093
  158OSM   H12T17691   0.446   4.934   3.757  2.6734 -0.4720 -0.1572
  158OSM   C13S17692   0.370   4.739   3.779 -0.9072  0.7131  0.7489
  158OSM   H13S17693   0.348   4.649   3.718  3.1596 -0.8084  1.1657
  158OSM   H13T17694   0.279   4.760   3.838 -0.2835  1.1315  1.5886
  158OSM   C14S17695   0.478   4.693   3.870  0.0583 -0.4955  0.9639
  158OSM   H14S17696   0.574   4.671   3.818  0.0742  3.3928 -1.0277
  158OSM   H14T17697   0.452   4.606   3.935  1.0115 -0.3746  1.5168
  158OSM   C15S17698   0.531   4.803   3.970  0.9786  0.3449 -0.1408
  158OSM   H15S17699   0.588   4.881   3.916  0.7958  0.0551 -0.7651
  158OSM   H15T17700   0.602   4.748   4.035  1.2424  1.7328  0.8045
  158OSM   C16S17701   0.415   4.871   4.049  0.4038  0.0393 -0.4607
  158OSM   H16S17702   0.325   4.806   4.052 -0.0632  0.6861  1.7061
  158OSM   H16T17703   0.385   4.965   3.997 -0.1868  0.6320  0.8870
  158OSM   C17S17704   0.449   4.900   4.197  0.1586  0.9486  0.2311
  158OSM   H17S17705   0.371   4.959   4.249 -0.8161 -0.0072 -0.1075
  158OSM   H17T17706   0.536   4.969   4.191 -0.2337  1.4911  0.6998
  158OSM   C18S17707   0.468   4.770   4.275 -0.3568  0.2208  0.4106
  158OSM   H18S17708   0.557   4.713   4.239  0.1409  0.6778  0.9015
  158OSM   H18T17709   0.379   4.704   4.272 -0.3483  0.1517  1.3148
  158OSM   H18U17710   0.483   4.797   4.382 -1.1165 -0.2296  0.6355
  158OSM    C1F17711   0.065   5.010   2.685 -0.5704 -0.2322  0.3065
  158OSM     OF17712  -0.023   4.928   2.670 -0.1650  0.5717  0.4292
  158OSM    C2F17713   0.038   5.156   2.733 -0.1532  0.3674  0.6272
  158OSM    H2F17714   0.093   5.227   2.667  1.4084 -1.6850 -0.3998
  158OSM    H2G17715   0.089   5.173   2.830  1.1731  3.4207 -0.4958
  158OSM    C3F17716  -0.104   5.192   2.730  0.7401 -0.6772 -0.2136
  158OSM    H3F17717  -0.162   5.158   2.641  0.5551 -0.7012 -0.0849
  158OSM    H3G17718  -0.109   5.303   2.729  1.1085 -0.6343  1.0703
  158OSM    C4F17719  -0.189   5.168   2.856 -0.2832  0.2633  0.1228
  158OSM    H4F17720  -0.152   5.073   2.902  0.3741  0.2275 -0.4607
  158OSM    H4G17721  -0.299   5.167   2.838 -0.6267  1.7659  1.8439
  158OSM    C5F17722  -0.162   5.266   2.981 -0.2557  0.6740 -0.0095
  158OSM    H5F17723  -0.134   5.364   2.938 -0.8705  0.1842 -1.5940
  158OSM    H5G17724  -0.076   5.232   3.042 -1.1013 -1.3837  0.1214
  158OSM    C6F17725  -0.281   5.280   3.074  0.5092  0.0649 -0.3570
  158OSM    H6F17726  -0.318   5.179   3.102  1.4704 -0.3784 -0.6354
  158OSM    H6G17727  -0.367   5.333   3.028  0.6783  1.2166  0.6028
  158OSM    C7F17728  -0.250   5.369   3.197 -0.2210 -0.5562 -0.0137
  158OSM    H7F17729  -0.347   5.391   3.247 -0.4644  1.0844 -1.1256
  158OSM    H7G17730  -0.221   5.473   3.171  0.1891  0.6231  4.3645
  158OSM    C8F17731  -0.156   5.309   3.301 -0.1180 -0.8918  0.3889
  158OSM    H8F17732  -0.067   5.280   3.242  0.1868  0.5260  0.1254
  158OSM    H8G17733  -0.197   5.217   3.347  0.8551 -0.9429  1.1837
  158OSM    C9F17734  -0.116   5.409   3.409  0.4118  0.0215  0.1451
  158OSM    H9F17735  -0.061   5.498   3.373  1.6014 -1.5853 -2.2845
  158OSM   C10F17736  -0.139   5.384   3.544  0.7483 -1.1503 -0.1646
  158OSM   H10F17737  -0.116   5.470   3.610  0.8554 -0.7323 -0.7377
  158OSM   C11F17738  -0.202   5.269   3.612  0.1529  0.2860 -0.3861
  158OSM   H11F17739  -0.163   5.171   3.576 -0.8544  0.0276 -0.8184
  158OSM   H11G17740  -0.305   5.267   3.570  0.8215  0.5821 -2.1249
  158OSM   C12F17741  -0.216   5.268   3.770  1.4199 -0.0466 -0.4156
  158OSM   H12F17742  -0.117   5.287   3.817  0.7262  2.3881  0.1662
  158OSM   H12G17743  -0.247   5.163   3.791  0.9235  0.2847  0.5479
  158OSM   C13F17744  -0.309   5.369   3.831  0.3797  0.3256  0.1566
  158OSM   H13F17745  -0.414   5.362   3.795  0.4637 -0.9348  0.1285
  158OSM   H13G17746  -0.278   5.471   3.800  1.7845 -0.4412 -1.0593
  158OSM   C14F17747  -0.322   5.356   3.987  0.0970  0.4403 -0.0289
  158OSM   H14F17748  -0.225   5.364   4.040  0.8455 -2.7806 -0.6451
  158OSM   H14G17749  -0.351   5.253   4.019 -0.0718  0.6808  0.6093
  158OSM   C15F17750  -0.419   5.456   4.050 -0.1457 -0.1561 -0.4450
  158OSM   H15F17751  -0.428   5.430   4.158 -1.2218  1.0512 -0.2235
  158OSM   H15G17752  -0.525   5.443   4.019 -0.4069 -1.1377  0.7487
  158OSM   C16F17753  -0.362   5.595   4.055 -0.9053  0.3728 -0.5796
  158OSM   H16F17754  -0.378   5.645   3.956 -0.5446  0.2477 -0.7030
  158OSM   H16G17755  -0.252   5.585   4.059 -1.0702 -2.3608 -1.3984
  158OSM   C17F17756  -0.392   5.679   4.175  0.0509 -0.3154  0.2286
  158OSM   H17F17757  -0.324   5.768   4.173 -0.3639  0.0367  1.0865
  158OSM   H17G17758  -0.390   5.615   4.265 -0.5246 -0.4820  0.1276
  158OSM   C18F17759  -0.533   5.740   4.165  0.3224 -0.0752 -0.0253
  158OSM   H18F17760  -0.544   5.816   4.246 -1.1087 -0.7750  0.4666
  158OSM   H18G17761  -0.612   5.665   4.186  1.7250 -0.9166  2.8187
  158OSM   H18H17762  -0.547   5.787   4.066 -1.3833 -0.6408 -0.0780
  159OSM      N17763   4.933   5.237   1.952  0.1477  0.5133 -0.6440
  159OSM    C1517764   5.014   5.313   1.851 -0.6704 -0.1389 -0.1177
  159OSM   H15A17765   5.119   5.302   1.876 -1.0508  1.2754  2.3620
  159OSM   H15B17766   4.996   5.418   1.864  0.7230  0.1063 -0.0174
  159OSM   H15C17767   4.983   5.285   1.751 -0.1997  2.0970 -0.9466
  159OSM    C1417768   4.937   5.300   2.089 -0.2666 -0.0735 -0.0793
  159OSM   H14A17769   5.038   5.289   2.124  0.0993  0.5382 -0.8944
  159OSM   H14B17770   4.869   5.241   2.148 -1.5947 -1.1756 -2.5324
  159OSM   H14C17771   4.911   5.405   2.091 -1.2050 -0.1750 -2.5885
  159OSM    C1317772   4.792   5.233   1.904  0.1525 -0.3804 -1.1808
  159OSM   H13A17773   4.760   5.336   1.896  1.0703  0.2851  2.1293
  159OSM   H13B17774   4.736   5.187   1.984 -0.1697  1.6359 -0.1789
  159OSM   H13C17775   4.784   5.194   1.804 -1.6693  0.2834 -1.3513
  159OSM    C1217776   4.978   5.092   1.956 -0.3211 -0.1706  0.4026
  159OSM   H12A17777   5.085   5.082   1.966 -0.3659 -0.7314  0.3803
  159OSM   H12B17778   4.960   5.048   1.859 -0.6789  0.1972  0.3016
  159OSM    C1117779   4.917   5.002   2.071  0.4365 -0.0540 -0.8828
  159OSM   H11A17780   4.947   5.031   2.174 -0.4083 -1.7136 -0.1242
  159OSM   H11B17781   4.973   4.906   2.068 -1.1508 -0.9801 -2.1648
  159OSM      P17782   4.698   4.856   2.030  0.3291  0.0616  0.0377
  159OSM    O1317783   4.555   4.867   2.060 -0.3434  0.1903  0.3210
  159OSM    O1417784   4.725   4.825   1.887 -0.3687 -0.2059 -0.2906
  159OSM    O1117785   4.773   4.742   2.113  0.4646 -0.1184  0.5364
  159OSM    O1217786   4.772   4.992   2.059 -0.8236 -0.4562  0.4202
  159OSM    C1S17787   4.790   4.751   2.248 -0.4630 -0.6611  0.6870
  159OSM    H1S17788   4.831   4.850   2.276  3.0555 -1.3538 -1.4442
  159OSM    H1T17789   4.866   4.675   2.277 -1.4969 -1.9120  0.2531
  159OSM     NF17790   4.690   4.737   2.474 -0.4197  0.4058  0.4325
  159OSM    HNF17791   4.700   4.661   2.539 -2.6856 -0.6033 -0.2909
  159OSM    C2S17792   4.669   4.700   2.335 -0.2531 -0.4246  0.4763
  159OSM    H2S17793   4.579   4.752   2.293  0.6368  1.0883  0.3502
  159OSM    C3S17794   4.642   4.550   2.303  0.7982 -0.7963 -0.6477
  159OSM    H3S17795   4.723   4.491   2.351  0.0832 -0.4306  1.0888
  159OSM     O317796   4.650   4.531   2.163 -0.3335 -0.0653  0.0673
  159OSM    HO317797   4.695   4.609   2.130  0.7394  0.1625  1.9051
  159OSM    C4S17798   4.510   4.490   2.351  0.3335  0.0687 -0.1434
  159OSM    H4S17799   4.425   4.499   2.282 -0.5355 -1.7094  0.6033
  159OSM    C5S17800   4.490   4.424   2.465 -0.6839  0.2105 -0.1962
  159OSM    H5S17801   4.580   4.394   2.520  1.1650 -0.1023 -3.1551
  159OSM    C6S17802   4.358   4.368   2.500 -0.2923 -0.1496  0.0325
  159OSM    H6S17803   4.380   4.260   2.512  0.9299 -0.2108 -2.2564
  159OSM    H6T17804   4.289   4.375   2.413  1.1805 -0.0282 -1.1576
  159OSM    C7S17805   4.290   4.434   2.623 -0.7346 -0.4745  0.3871
  159OSM    H7S17806   4.184   4.401   2.624 -1.0960  0.6145 -0.6807
  159OSM    H7T17807   4.294   4.542   2.601  0.4250 -0.3904  0.9342
  159OSM    C8S17808   4.371   4.412   2.751 -0.0475  0.3405 -0.3153
  159OSM    H8S17809   4.451   4.488   2.754 -0.9640  1.4865 -2.5056
  159OSM    H8T17810   4.418   4.311   2.750  1.0894  0.8665 -1.9530
  159OSM    C9S17811   4.287   4.432   2.883  0.0881 -0.0866  0.0174
  159OSM    H9S17812   4.208   4.354   2.875 -0.0027 -0.0194  0.2484
  159OSM    H9T17813   4.226   4.524   2.898  0.5102  0.0619  0.8847
  159OSM   C10S17814   4.359   4.411   3.012 -0.2251 -0.5008 -0.2298
  159OSM   H10S17815   4.429   4.496   3.031 -2.6583  1.4849  0.3378
  159OSM   H10T17816   4.418   4.318   3.001  1.3346  0.3025  0.9510
  159OSM   C11S17817   4.256   4.401   3.125 -1.2270 -0.1760 -0.0337
  159OSM   H11S17818   4.196   4.308   3.111  0.7467 -1.6222  0.6381
  159OSM   H11T17819   4.182   4.484   3.131 -2.7156 -1.2902 -1.6373
  159OSM   C12S17820   4.338   4.408   3.259  0.6651  0.0767  0.1963
  159OSM   H12S17821   4.390   4.506   3.272  1.8561 -0.8485  3.0547
  159OSM   H12T17822   4.419   4.332   3.260  2.0114  1.4740  0.2822
  159OSM   C13S17823   4.247   4.381   3.379 -0.3967 -0.1165  0.9288
  159OSM   H13S17824   4.182   4.294   3.356  0.8715 -1.2746  1.6406
  159OSM   H13T17825   4.177   4.467   3.376 -1.2880 -0.8332 -1.2286
  159OSM   C14S17826   4.316   4.342   3.514  0.4188 -0.8203 -0.0147
  159OSM   H14S17827   4.386   4.423   3.545  0.3022 -0.5948 -0.3367
  159OSM   H14T17828   4.369   4.245   3.502 -1.0066 -1.4597 -1.4689
  159OSM   C15S17829   4.210   4.323   3.636 -0.0965  0.4128  0.4824
  159OSM   H15S17830   4.113   4.304   3.586 -0.5378 -0.8831  1.7686
  159OSM   H15T17831   4.211   4.425   3.679  0.4757  0.7193 -0.2308
  159OSM   C16S17832   4.263   4.215   3.730  0.1620 -0.2935 -0.1857
  159OSM   H16S17833   4.366   4.246   3.758  0.2433  0.4173 -1.2050
  159OSM   H16T17834   4.266   4.118   3.675 -3.2379 -1.1626  0.9006
  159OSM   C17S17835   4.176   4.211   3.860 -0.6783 -0.0651 -0.3781
  159OSM   H17S17836   4.079   4.167   3.828 -0.8694  0.1842 -0.1436
  159OSM   H17T17837   4.162   4.317   3.889  1.0628 -0.0170  0.3678
  159OSM   C18S17838   4.234   4.123   3.972 -0.1520  0.4374 -0.2927
  159OSM   H18S17839   4.231   4.016   3.941  1.8073  1.2926 -4.1053
  159OSM   H18T17840   4.169   4.143   4.060  0.3195  1.5463 -0.1812
  159OSM   H18U17841   4.339   4.150   3.995 -0.3635  1.4333 -0.4881
  159OSM    C1F17842   4.685   4.859   2.511 -0.0144  0.3199 -0.5769
  159OSM     OF17843   4.652   4.953   2.440 -0.6255 -0.3696  0.0397
  159OSM    C2F17844   4.713   4.876   2.657 -0.5991 -0.5707 -0.0781
  159OSM    H2F17845   4.812   4.831   2.680 -0.3083  0.7348  1.4522
  159OSM    H2G17846   4.630   4.825   2.710 -0.2827  0.5594  1.5868
  159OSM    C3F17847   4.724   5.029   2.706  0.5122  0.1927 -0.7418
  159OSM    H3F17848   4.632   5.089   2.689  1.6658  1.3806 -3.2072
  159OSM    H3G17849   4.805   5.070   2.643  0.3375  1.6413 -0.0459
  159OSM    C4F17850   4.761   5.038   2.854  0.1856 -0.2336 -0.9079
  159OSM    H4F17851   4.821   5.131   2.863 -0.6004  0.3296 -1.3548
  159OSM    H4G17852   4.830   4.953   2.879  0.4891  0.1118 -0.5626
  159OSM    C5F17853   4.643   5.047   2.944  0.1598 -0.2357  0.2213
  159OSM    H5F17854   4.598   4.946   2.958  1.5786 -1.2593 -2.0960
  159OSM    H5G17855   4.565   5.115   2.904 -0.8198 -2.1264 -1.2490
  159OSM    C6F17856   4.682   5.101   3.085 -0.2448 -0.1369 -0.0754
  159OSM    H6F17857   4.702   5.210   3.073 -0.1338 -0.2763 -1.3032
  159OSM    H6G17858   4.775   5.052   3.120  0.1390  1.3288  1.0675
  159OSM    C7F17859   4.574   5.077   3.185 -0.3141  0.5670  0.8039
  159OSM    H7F17860   4.557   4.972   3.215  1.5558 -0.3726 -1.0912
  159OSM    H7G17861   4.479   5.128   3.157  0.1496  3.0147  3.3011
  159OSM    C8F17862   4.615   5.140   3.318 -0.4694  0.2624  0.1990
  159OSM    H8F17863   4.676   5.232   3.313  0.0582 -0.0479  0.7614
  159OSM    H8G17864   4.690   5.063   3.349  0.0158 -0.3130 -2.1553
  159OSM    C9F17865   4.509   5.173   3.421  0.2759  0.3945  0.1530
  159OSM    H9F17866   4.438   5.251   3.389 -0.4382 -0.6511 -0.9087
  159OSM   C10F17867   4.468   5.101   3.530 -0.8494 -0.0494  0.1896
  159OSM   H10F17868   4.379   5.134   3.585 -2.2729 -1.9128 -0.8796
  159OSM   C11F17869   4.538   4.972   3.574  0.3625  0.0225 -0.2561
  159OSM   H11F17870   4.620   4.941   3.506  0.6740  1.8400 -0.7639
  159OSM   H11G17871   4.454   4.901   3.588 -0.8886  1.3730 -0.6369
  159OSM   C12F17872   4.619   4.992   3.705 -0.3112  0.2559 -0.0381
  159OSM   H12F17873   4.705   5.062   3.714 -0.1105 -0.2664  3.7616
  159OSM   H12G17874   4.659   4.890   3.723 -0.9838 -0.1348 -0.6691
  159OSM   C13F17875   4.517   5.020   3.823 -0.8831 -0.4196 -0.3500
  159OSM   H13F17876   4.420   4.966   3.816  0.6058 -3.1065 -1.9509
  159OSM   H13G17877   4.483   5.126   3.821 -0.9495 -0.3697  1.5328
  159OSM   C14F17878   4.577   4.997   3.964 -0.6213  0.3902 -0.6363
  159OSM   H14F17879   4.675   5.044   3.987 -0.0227 -0.3877 -1.5378
  159OSM   H14G17880   4.602   4.890   3.974 -1.0303  0.3433 -0.0456
  159OSM   C15F17881   4.479   5.033   4.084 -0.1005  0.9335  0.8460
  159OSM   H15F17882   4.529   4.997   4.176  0.7212  1.1313  0.4833
  159OSM   H15G17883   4.391   4.971   4.058  0.5629  0.5378 -0.5261
  159OSM   C16F17884   4.441   5.182   4.097  0.1374  0.2162  0.3612
  159OSM   H16F17885   4.431   5.229   3.997  2.1794 -1.7301 -0.8503
  159OSM   H16G17886   4.535   5.229   4.134 -0.3221  3.0009 -1.6720
  159OSM   C17F17887   4.315   5.211   4.188 -0.3954 -0.6228 -0.0318
  159OSM   H17F17888   4.231   5.159   4.137 -0.0482  0.1204 -1.4200
  159OSM   H17G17889   4.284   5.318   4.187 -1.8666 -0.8967  3.5330
  159OSM   C18F17890   4.328   5.155   4.331 -0.1264 -0.1207  0.2880
  159OSM   H18F17891   4.411   5.203   4.387  0.2695 -1.0208  0.4838
  159OSM   H18G17892   4.340   5.045   4.342  3.0559  0.0777 -0.2397
  159OSM   H18H17893   4.242   5.186   4.393  0.9696  0.5053  1.5480
  160OSM      N17894   2.750   0.034   2.036  0.1560 -0.1969  0.3051
  160OSM    C1517895   2.771   0.163   2.111 -0.1905  0.4676  0.2475
  160OSM   H15A17896   2.842   0.150   2.191  0.4656 -3.0226 -0.7119
  160OSM   H15B17897   2.679   0.196   2.157  0.1781  1.7359  0.1149
  160OSM   H15C17898   2.813   0.246   2.056 -1.9121  1.9773  1.1032
  160OSM    C1417899   2.657   0.040   1.923  0.3165 -0.1873 -0.5153
  160OSM   H14A17900   2.658  -0.055   1.872 -0.4710 -1.4346  1.6470
  160OSM   H14B17901   2.693   0.119   1.860  0.7181  1.1215  1.2866
  160OSM   H14C17902   2.553   0.059   1.948  0.3566  1.3427 -1.3835
  160OSM    C1317903   2.884  -0.010   1.982 -0.5590  0.1947 -0.1619
  160OSM   H13A17904   2.916   0.069   1.916 -0.4480  0.0203 -0.3156
  160OSM   H13B17905   2.879  -0.103   1.928 -2.7391  0.3578 -0.3340
  160OSM   H13C17906   2.955  -0.008   2.064  0.3157  0.6868 -0.9221
  160OSM    C1217907   2.690  -0.071   2.138  0.3124  0.6695 -0.4909
  160OSM   H12A17908   2.770  -0.092   2.207  0.8754 -1.7319 -1.7868
  160OSM   H12B17909   2.678  -0.159   2.077 -0.6789  2.4829 -3.1304
  160OSM    C1117910   2.561  -0.020   2.211  0.6524 -0.4056  0.3236
  160OSM   H11A17911   2.571   0.070   2.275 -0.8844 -0.1388  0.2156
  160OSM   H11B17912   2.559  -0.098   2.291  0.5411  0.9744  1.7027
  160OSM      P17913   2.321  -0.122   2.151  0.6426  0.2548  0.1377
  160OSM    O1317914   2.211  -0.089   2.057 -0.8159  0.6445  0.5341
  160OSM    O1417915   2.386  -0.255   2.136  0.0613 -0.6121 -0.1720
  160OSM    O1117916   2.260  -0.100   2.298 -0.5416  0.7952 -0.2963
  160OSM    O1217917   2.436  -0.020   2.134 -0.0624 -0.3017 -0.1689
  160OSM    C1S17918   2.175   0.014   2.316 -0.0225  0.5236  0.4080
  160OSM    H1S17919   2.081  -0.017   2.265  0.0045  0.4381  0.4107
  160OSM    H1T17920   2.219   0.105   2.269 -1.8736  0.4351 -1.6772
  160OSM     NF17921   2.020   0.131   2.477  0.6658  0.2451 -0.2374
  160OSM    HNF17922   2.024   0.202   2.547 -1.8735 -1.2154  1.5661
  160OSM    C2S17923   2.127   0.037   2.464 -0.0732 -0.0324 -0.3379
  160OSM    H2S17924   2.075  -0.057   2.492 -0.6602 -0.0579 -1.4316
  160OSM    C3S17925   2.248   0.059   2.563  0.1660  0.3512 -0.1675
  160OSM    H3S17926   2.291   0.159   2.545  0.4924  0.3350  0.4975
  160OSM     O317927   2.357  -0.036   2.538 -0.1918 -0.3712  0.5827
  160OSM    HO317928   2.329  -0.070   2.452 -1.0387  0.1918  0.6234
  160OSM    C4S17929   2.192   0.056   2.709  0.6746  0.0310  0.2933
  160OSM    H4S17930   2.167   0.158   2.740  0.4819  0.2798 -0.6501
  160OSM    C5S17931   2.161  -0.050   2.786 -0.1073  1.2082 -0.0781
  160OSM    H5S17932   2.172  -0.148   2.739  0.5649  1.0534  0.3867
  160OSM    C6S17933   2.109  -0.066   2.929 -1.1807  0.0857  0.0103
  160OSM    H6S17934   2.188  -0.115   2.990 -1.0481 -0.3869 -0.5385
  160OSM    H6T17935   2.019  -0.131   2.930 -1.0126 -0.1447  0.1800
  160OSM    C7S17936   2.084   0.066   3.011 -0.2056 -0.1455 -0.0965
  160OSM    H7S17937   2.017   0.136   2.957  0.8651  1.1460  0.1943
  160OSM    H7T17938   2.180   0.122   3.021 -0.3061 -0.0362  0.2856
  160OSM    C8S17939   2.016   0.030   3.149  0.2458 -0.1508 -0.7808
  160OSM    H8S17940   1.946  -0.056   3.141 -1.7774  1.4909 -1.6952
  160OSM    H8T17941   1.943   0.108   3.179  2.1595  1.3036  0.3205
  160OSM    C9S17942   2.111  -0.000   3.268  0.5146 -0.8342  0.3849
  160OSM    H9S17943   2.197   0.070   3.258 -0.1954 -0.2118 -2.3833
  160OSM    H9T17944   2.148  -0.102   3.245 -1.4664 -1.5532  0.1791
  160OSM   C10S17945   2.053   0.005   3.409 -0.2446  0.7507  0.4553
  160OSM   H10S17946   1.952  -0.040   3.415 -1.2406  3.0310  2.9573
  160OSM   H10T17947   2.033   0.112   3.433 -3.0207  0.6083 -0.8488
  160OSM   C11S17948   2.152  -0.056   3.505 -0.3193  0.3220  0.3719
  160OSM   H11S17949   2.243   0.006   3.515  0.6541 -0.7117 -1.5947
  160OSM   H11T17950   2.183  -0.157   3.469  1.1060  0.1367  1.9625
  160OSM   C12S17951   2.102  -0.089   3.642 -0.1002  0.3737 -0.2999
  160OSM   H12S17952   2.185  -0.138   3.697  1.0470  1.1150 -1.2914
  160OSM   H12T17953   2.018  -0.162   3.637 -0.1826  0.4948 -0.8070
  160OSM   C13S17954   2.065   0.041   3.722 -0.0341  1.0755 -0.7250
  160OSM   H13S17955   1.984   0.091   3.664 -1.6454  0.2748  0.7359
  160OSM   H13T17956   2.152   0.109   3.727  0.4868  0.3342  2.3846
  160OSM   C14S17957   2.018   0.006   3.862 -0.0317 -0.5602 -0.7197
  160OSM   H14S17958   2.097  -0.049   3.918  1.0063  0.3469 -1.2676
  160OSM   H14T17959   1.925  -0.055   3.855  0.5665 -1.4681 -0.9771
  160OSM   C15S17960   1.978   0.134   3.940  0.1897  0.0440  0.2224
  160OSM   H15S17961   1.868   0.130   3.958  0.4560  0.2690  2.1668
  160OSM   H15T17962   1.994   0.226   3.880  1.8503 -0.1365  0.3594
  160OSM   C16S17963   2.040   0.139   4.081 -0.1765  0.8371 -0.0761
  160OSM   H16S17964   2.019   0.035   4.113 -0.4894  0.0085 -2.6775
  160OSM   H16T17965   1.992   0.196   4.162 -0.3697 -0.5348  0.8084
  160OSM   C17S17966   2.182   0.192   4.065 -0.1074  0.3676  0.1396
  160OSM   H17S17967   2.242   0.155   3.978  1.8431  0.5962  1.3406
  160OSM   H17T17968   2.229   0.132   4.146  1.3210 -0.6382 -1.3516
  160OSM   C18S17969   2.194   0.337   4.090 -0.5324 -0.0336  0.0280
  160OSM   H18S17970   2.148   0.360   4.188 -0.7707 -0.2543 -0.0309
  160OSM   H18T17971   2.145   0.391   4.006 -0.5779 -0.0837  0.0220
  160OSM   H18U17972   2.301   0.366   4.099 -0.3193 -1.2510  1.9463
  160OSM    C1F17973   1.903   0.116   2.412 -0.3482 -0.4017 -0.4153
  160OSM     OF17974   1.878   0.011   2.361 -0.9827 -0.3919 -0.0697
  160OSM    C2F17975   1.815   0.242   2.411 -0.3755  0.0036  0.8155
  160OSM    H2F17976   1.792   0.279   2.309  2.4869 -2.8781 -1.1122
  160OSM    H2G17977   1.865   0.318   2.474 -2.0688  0.0691  2.1289
  160OSM    C3F17978   1.683   0.214   2.483 -0.9203 -0.1699  0.7173
  160OSM    H3F17979   1.638   0.118   2.449  1.5956 -1.1419 -0.0709
  160OSM    H3G17980   1.615   0.296   2.451  0.3730  0.8044  0.3933
  160OSM    C4F17981   1.694   0.229   2.637 -0.2095 -0.6891 -0.2507
  160OSM    H4F17982   1.771   0.171   2.692  0.9038  0.5158 -0.4899
  160OSM    H4G17983   1.594   0.194   2.669 -0.4928 -0.2601 -0.6463
  160OSM    C5F17984   1.702   0.370   2.675 -1.0859 -0.7412  0.2193
  160OSM    H5F17985   1.598   0.408   2.667 -3.1735 -5.2094  2.3791
  160OSM    H5G17986   1.773   0.426   2.610 -0.3222 -1.2459  0.6017
  160OSM    C6F17987   1.740   0.405   2.822 -0.9374 -0.1119 -0.2855
  160OSM    H6F17988   1.801   0.323   2.867 -1.5040  2.1193  5.3203
  160OSM    H6G17989   1.652   0.396   2.888  0.8277 -0.8470  2.1282
  160OSM    C7F17990   1.819   0.531   2.849 -0.2536 -0.0549 -0.4634
  160OSM    H7F17991   1.767   0.622   2.814 -0.8589 -0.4191 -0.5252
  160OSM    H7G17992   1.919   0.538   2.800 -0.0597  2.9994  0.2105
  160OSM    C8F17993   1.847   0.543   2.998  0.1094  0.7212 -0.5797
  160OSM    H8F17994   1.750   0.532   3.052  0.9871 -1.4960  0.6824
  160OSM    H8G17995   1.883   0.647   3.015 -0.7218  1.3071 -2.2352
  160OSM    C9F17996   1.953   0.448   3.048  0.1087 -1.1171 -0.9393
  160OSM    H9F17997   2.024   0.399   2.980  1.0031 -0.5637 -0.4221
  160OSM   C10F17998   1.946   0.395   3.175 -0.6768 -0.1891  0.7782
  160OSM   H10F17999   2.017   0.312   3.188 -0.7998 -0.8817 -2.2426
  160OSM   C11F18000   1.842   0.423   3.280  0.3763  0.0160 -0.2313
  160OSM   H11F18001   1.743   0.380   3.254 -0.4940  1.0628  1.1947
  160OSM   H11G18002   1.826   0.533   3.281  0.5954  0.0995 -2.1110
  160OSM   C12F18003   1.891   0.386   3.425 -0.1082  0.2128 -0.2007
  160OSM   H12F18004   1.980   0.443   3.458  1.2330 -2.0805  0.4231
  160OSM   H12G18005   1.930   0.282   3.426  2.3109  1.0509  1.3034
  160OSM   C13F18006   1.780   0.379   3.533 -0.1386  0.2783 -0.1501
  160OSM   H13F18007   1.734   0.480   3.530 -1.7859 -0.4360 -0.2437
  160OSM   H13G18008   1.824   0.353   3.632  0.0810  1.9821  0.2369
  160OSM   C14F18009   1.666   0.284   3.496  0.4715 -0.0161  0.1778
  160OSM   H14F18010   1.620   0.322   3.403  2.1080  1.8239  0.0375
  160OSM   H14G18011   1.601   0.305   3.584 -0.7750 -2.0195 -0.2130
  160OSM   C15F18012   1.710   0.132   3.487 -0.4260  0.4432 -0.4135
  160OSM   H15F18013   1.788   0.108   3.563  0.9537  0.1507 -1.8573
  160OSM   H15G18014   1.771   0.125   3.395  0.6968  0.1101  0.3330
  160OSM   C16F18015   1.589   0.031   3.484 -0.1295  0.0328  0.5753
  160OSM   H16F18016   1.634  -0.070   3.475  0.4766  0.1213  2.3147
  160OSM   H16G18017   1.540   0.052   3.386 -0.0586  2.7045  1.0249
  160OSM   C17F18018   1.481   0.032   3.595 -0.5058 -0.5395  0.1863
  160OSM   H17F18019   1.423   0.126   3.586  0.3769  0.2702  2.3535
  160OSM   H17G18020   1.533   0.023   3.692 -0.0314 -2.4430 -0.1997
  160OSM   C18F18021   1.376  -0.082   3.580 -0.1493  0.5941 -0.3260
  160OSM   H18F18022   1.314  -0.082   3.672 -3.5291 -1.0043 -2.4401
  160OSM   H18G18023   1.431  -0.179   3.578 -1.4761 -0.1703 -0.2653
  160OSM   H18H18024   1.312  -0.070   3.490 -0.6292 -1.8710 -0.3643
  161OSM      N18025   5.794   6.485   1.869 -0.6387 -0.5629  0.2793
  161OSM    C1518026   5.692   6.421   1.951  0.2929 -0.1770 -0.3372
  161OSM   H15A18027   5.609   6.487   1.970  0.0316  0.7658 -3.9548
  161OSM   H15B18028   5.722   6.386   2.049  0.9237  0.7721 -0.1783
  161OSM   H15C18029   5.655   6.333   1.900  0.5185 -0.5402  0.1094
  161OSM    C1418030   5.881   6.374   1.809  1.4850  0.0609  0.3704
  161OSM   H14A18031   5.822   6.322   1.735 -1.8328  1.5445  1.7419
  161OSM   H14B18032   5.919   6.309   1.886 -0.7347 -0.9321  0.7263
  161OSM   H14C18033   5.971   6.418   1.769  2.4098  0.0963  2.3576
  161OSM    C1318034   5.747   6.557   1.747 -0.3687 -0.2271 -0.3787
  161OSM   H13A18035   5.671   6.501   1.695 -1.6052  1.2339 -0.2121
  161OSM   H13B18036   5.830   6.577   1.681  0.1751  0.1158  0.3957
  161OSM   H13C18037   5.699   6.650   1.773  3.7975  2.2340 -0.5939
  161OSM    C1218038   5.883   6.587   1.953  0.1787  0.7924 -0.5067
  161OSM   H12A18039   5.820   6.672   1.978 -0.1018  0.5708 -0.4610
  161OSM   H12B18040   5.972   6.619   1.900  0.5769 -0.5770 -0.6899
  161OSM    C1118041   5.938   6.535   2.092 -0.1278  0.1774  0.3022
  161OSM   H11A18042   5.848   6.517   2.155 -2.2669  3.2074 -1.5700
  161OSM   H11B18043   5.995   6.611   2.150 -2.1441  0.8246  1.5324
  161OSM      P18044   6.165   6.408   2.077 -0.1373  0.0884 -0.1759
  161OSM    O1318045   6.206   6.270   2.055 -0.1820  0.2959  0.0945
  161OSM    O1418046   6.204   6.503   1.975  0.0411 -0.2892  0.0413
  161OSM    O1118047   6.208   6.457   2.225  0.2573 -0.6816  0.0261
  161OSM    O1218048   6.010   6.410   2.083 -0.8015  0.6621  0.6482
  161OSM    C1S18049   6.132   6.407   2.336  0.3231 -0.4221 -0.6752
  161OSM    H1S18050   6.121   6.296   2.331  3.5396 -0.9599  1.0602
  161OSM    H1T18051   6.032   6.455   2.338  0.7869  0.7369  3.5115
  161OSM     NF18052   6.122   6.392   2.569 -0.3647  0.3419  0.1495
  161OSM    HNF18053   6.063   6.447   2.628 -1.0648  0.1136 -0.3290
  161OSM    C2S18054   6.196   6.455   2.469  0.5779 -0.3532  0.0913
  161OSM    H2S18055   6.300   6.419   2.470  1.2610  1.4848  0.5870
  161OSM    C3S18056   6.207   6.617   2.478  0.0692  0.3805  0.2675
  161OSM    H3S18057   6.104   6.659   2.473 -0.0573 -0.0603 -2.6534
  161OSM     O318058   6.278   6.673   2.368  0.1184 -0.3354  0.8485
  161OSM    HO318059   6.277   6.599   2.306 -0.7551 -0.8706  1.4774
  161OSM    C4S18060   6.279   6.653   2.607 -0.1316 -0.3368  0.3625
  161OSM    H4S18061   6.367   6.599   2.646  0.8936  0.9880 -0.0504
  161OSM    C5S18062   6.222   6.742   2.689 -0.7342 -0.6201  0.4471
  161OSM    H5S18063   6.136   6.801   2.654 -0.4779 -1.0083 -0.8543
  161OSM    C6S18064   6.291   6.770   2.821  0.7387 -0.3358  0.7717
  161OSM    H6S18065   6.344   6.868   2.819  0.1211  0.1060  3.2435
  161OSM    H6T18066   6.372   6.697   2.840  2.7602  1.4847 -0.3677
  161OSM    C7S18067   6.188   6.755   2.926  0.1944 -0.4536 -1.7626
  161OSM    H7S18068   6.150   6.652   2.945  0.9911 -0.3600  0.7305
  161OSM    H7T18069   6.106   6.828   2.911  1.0997  0.8424 -0.6924
  161OSM    C8S18070   6.252   6.801   3.062  0.2533  0.2714  0.1401
  161OSM    H8S18071   6.170   6.826   3.131  0.2556 -1.4255  0.8203
  161OSM    H8T18072   6.321   6.887   3.046 -0.4054  0.8513  0.4112
  161OSM    C9S18073   6.342   6.685   3.115 -0.3910 -0.4429  0.4130
  161OSM    H9S18074   6.415   6.664   3.034  3.3139  1.4947  2.9666
  161OSM    H9T18075   6.282   6.592   3.124  0.9666 -1.4080 -0.2351
  161OSM   C10S18076   6.406   6.699   3.252 -0.1650 -0.3496 -0.3609
  161OSM   H10S18077   6.479   6.782   3.240  1.1369 -1.3037  0.5656
  161OSM   H10T18078   6.464   6.610   3.286  1.2857  0.4006 -0.7777
  161OSM   C11S18079   6.307   6.731   3.371  0.2216  0.1282  0.3005
  161OSM   H11S18080   6.221   6.661   3.370 -0.9379  1.5031  0.7616
  161OSM   H11T18081   6.267   6.834   3.359  1.5854  0.4609 -2.1161
  161OSM   C12S18082   6.388   6.725   3.506  0.4107 -0.2589 -0.6374
  161OSM   H12S18083   6.485   6.774   3.487  0.5876 -0.9737 -1.6776
  161OSM   H12T18084   6.392   6.616   3.527  1.0173 -0.0730  0.2692
  161OSM   C13S18085   6.326   6.790   3.628  0.2682  0.0966  0.2516
  161OSM   H13S18086   6.216   6.780   3.621  0.3797 -0.7894 -0.3029
  161OSM   H13T18087   6.358   6.897   3.630  1.4389 -0.1807  3.4873
  161OSM   C14S18088   6.367   6.734   3.760  0.0309  0.3650  0.5828
  161OSM   H14S18089   6.478   6.734   3.768 -0.0388 -2.2873  3.1460
  161OSM   H14T18090   6.337   6.626   3.760 -2.3559  0.9503 -0.6837
  161OSM   C15S18091   6.309   6.804   3.879 -0.0012  0.4086  0.1359
  161OSM   H15S18092   6.199   6.801   3.888  0.0824  0.0229  1.3085
  161OSM   H15T18093   6.330   6.913   3.879  0.0809  0.4220 -1.5878
  161OSM   C16S18094   6.386   6.758   4.013  0.8031  0.5134 -0.3397
  161OSM   H16S18095   6.492   6.737   3.988  0.4307 -0.3059 -1.3201
  161OSM   H16T18096   6.337   6.667   4.055  0.1602  1.4373  0.9674
  161OSM   C17S18097   6.367   6.863   4.128 -0.1490 -0.0740 -0.7337
  161OSM   H17S18098   6.261   6.887   4.148 -0.1999 -1.2018  0.5336
  161OSM   H17T18099   6.411   6.960   4.097 -2.7835  1.2765 -0.5488
  161OSM   C18S18100   6.433   6.811   4.255  0.5700  0.1200  0.3864
  161OSM   H18S18101   6.374   6.731   4.305  1.4593 -1.6196 -1.2619
  161OSM   H18T18102   6.423   6.890   4.333 -1.0017 -1.7792  2.2454
  161OSM   H18U18103   6.541   6.788   4.243  0.2832 -0.7440 -0.6508
  161OSM    C1F18104   6.123   6.260   2.600 -0.1432  0.5747  0.2631
  161OSM     OF18105   6.181   6.180   2.532 -1.0595  0.0985 -0.0162
  161OSM    C2F18106   6.043   6.208   2.712 -0.6586 -0.7113  0.0433
  161OSM    H2F18107   5.950   6.164   2.669 -2.6610  1.6239  1.7181
  161OSM    H2G18108   6.003   6.284   2.782  1.5527 -0.2709  0.9101
  161OSM    C3F18109   6.112   6.099   2.802 -0.6939 -0.1526  0.4837
  161OSM    H3F18110   6.211   6.142   2.831 -0.7368  1.2013 -1.2315
  161OSM    H3G18111   6.131   6.015   2.732 -3.3380 -0.2382 -0.2192
  161OSM    C4F18112   6.018   6.062   2.912  0.1352  0.5962 -0.1446
  161OSM    H4F18113   6.083   6.018   2.991  1.4279  1.1613 -0.8622
  161OSM    H4G18114   5.945   5.986   2.876  1.7420 -0.1587 -1.9928
  161OSM    C5F18115   5.952   6.177   2.994  0.3593 -0.2093  0.3153
  161OSM    H5F18116   5.866   6.209   2.932  1.2717  1.4570 -0.1671
  161OSM    H5G18117   6.019   6.264   3.011  1.9805 -1.0122 -1.5270
  161OSM    C6F18118   5.913   6.124   3.133  0.2326  0.4179  0.3379
  161OSM    H6F18119   5.861   6.211   3.178 -2.6810 -0.0054 -1.8902
  161OSM    H6G18120   6.000   6.086   3.190 -0.7711 -0.8464  1.0963
  161OSM    C7F18121   5.808   6.012   3.138  0.5958 -0.5436 -0.8340
  161OSM    H7F18122   5.851   5.918   3.098 -0.1617 -0.8631 -0.9256
  161OSM    H7G18123   5.725   6.044   3.070  1.9731  0.1996 -2.2249
  161OSM    C8F18124   5.753   5.991   3.290 -0.0677  1.0429  0.3416
  161OSM    H8F18125   5.664   5.926   3.277  1.7102 -1.1970 -1.6980
  161OSM    H8G18126   5.727   6.094   3.322 -0.3923  1.9902 -2.6472
  161OSM    C9F18127   5.863   5.934   3.385 -0.4747 -0.1117 -0.6487
  161OSM    H9F18128   5.913   5.841   3.356 -0.0520 -0.3305  0.7158
  161OSM   C10F18129   5.876   5.991   3.508  0.4393 -1.6388  0.8505
  161OSM   H10F18130   5.946   5.944   3.578 -0.9056  0.3791  3.7293
  161OSM   C11F18131   5.818   6.117   3.566 -0.1890 -0.3468 -0.7006
  161OSM   H11F18132   5.714   6.141   3.532 -0.5954 -0.8368  0.1797
  161OSM   H11G18133   5.883   6.207   3.558 -1.0676  0.4438  0.6906
  161OSM   C12F18134   5.798   6.095   3.722 -0.8833 -0.4674  0.3599
  161OSM   H12F18135   5.729   6.008   3.721 -1.0743 -0.3307  1.0195
  161OSM   H12G18136   5.737   6.182   3.753 -0.5557  0.8885 -2.4600
  161OSM   C13F18137   5.930   6.090   3.802 -0.2442  0.0026 -0.1274
  161OSM   H13F18138   5.993   6.169   3.755 -3.0469  0.7453 -3.0168
  161OSM   H13G18139   5.973   5.988   3.789  1.3573  0.1314  3.2518
  161OSM   C14F18140   5.912   6.123   3.950 -0.5176 -0.1272 -0.4068
  161OSM   H14F18141   5.852   6.043   3.999  0.2125 -0.5667 -0.2043
  161OSM   H14G18142   5.862   6.220   3.966 -0.3699 -0.2431  0.8372
  161OSM   C15F18143   6.050   6.127   4.029  0.4585 -0.1064  0.2142
  161OSM   H15F18144   6.105   6.218   3.996  0.9473 -0.4657  0.0183
  161OSM   H15G18145   6.112   6.040   3.998  0.0423  0.5719 -2.8282
  161OSM   C16F18146   6.035   6.129   4.180 -0.0181 -0.0133  0.2076
  161OSM   H16F18147   6.000   6.034   4.226 -1.0066  0.3614  0.2521
  161OSM   H16G18148   5.974   6.217   4.208 -0.0902 -0.2687  0.8734
  161OSM   C17F18149   6.171   6.144   4.248  0.3582 -0.8585  0.0205
  161OSM   H17F18150   6.240   6.208   4.190 -1.1232 -0.7574 -1.7405
  161OSM   H17G18151   6.231   6.051   4.241  0.5309 -0.6823 -1.0189
  161OSM   C18F18152   6.164   6.180   4.397  0.5517 -0.0382 -0.6447
  161OSM   H18F18153   6.121   6.281   4.415 -0.5060 -0.5512 -0.1919
  161OSM   H18G18154   6.267   6.180   4.440  0.7622  2.2538 -1.0340
  161OSM   H18H18155   6.106   6.109   4.460  3.0772 -0.2774  1.5738
  162OSM      N18156   0.631   4.150   2.082 -0.2308 -0.0830  0.5712
  162OSM    C1518157   0.679   4.132   1.942  0.0333  0.1842  0.8587
  162OSM   H15A18158   0.622   4.186   1.867  0.9548  0.2046  0.1522
  162OSM   H15B18159   0.667   4.028   1.915  1.1459  0.2457  0.0628
  162OSM   H15C18160   0.781   4.165   1.931  0.0329  0.0617  0.4518
  162OSM    C1418161   0.638   4.290   2.127  0.5088 -0.8604  0.2432
  162OSM   H14A18162   0.581   4.308   2.216  0.2697 -0.7044  0.0618
  162OSM   H14B18163   0.605   4.363   2.054  2.7978  0.4946  0.4557
  162OSM   H14C18164   0.733   4.336   2.152 -0.2489 -0.2349  2.1500
  162OSM    C1318165   0.490   4.107   2.089 -0.0936  0.3043  0.2165
  162OSM   H13A18166   0.456   4.116   2.191 -1.7782 -2.1550 -0.0313
  162OSM   H13B18167   0.475   4.002   2.065 -0.4968 -0.3099  2.7900
  162OSM   H13C18168   0.417   4.156   2.027 -2.0728 -2.9637 -0.3134
  162OSM    C1218169   0.717   4.074   2.183 -0.9145  0.0494 -0.3289
  162OSM   H12A18170   0.721   3.972   2.147 -4.4729 -0.3896  0.0898
  162OSM   H12B18171   0.655   4.058   2.270 -1.6168 -0.0450 -0.8319
  162OSM    C1118172   0.855   4.137   2.232  0.5490  0.0472  0.1701
  162OSM   H11A18173   0.911   4.049   2.270 -0.6882 -1.3137 -1.0139
  162OSM   H11B18174   0.825   4.204   2.315 -0.2239 -0.2220  0.1178
  162OSM      P18175   1.049   4.166   2.053 -0.1628  0.1566 -0.4625
  162OSM    O1318176   1.030   4.037   1.983  0.1182 -0.4620 -0.0849
  162OSM    O1418177   1.107   4.275   1.976 -0.2886 -0.0229  0.2988
  162OSM    O1118178   1.145   4.132   2.182  0.2829 -0.5480  0.4651
  162OSM    O1218179   0.917   4.216   2.129 -0.6869  0.4129 -0.1286
  162OSM    C1S18180   1.171   4.224   2.290 -0.1207  0.2729 -0.0874
  162OSM    H1S18181   1.144   4.331   2.273 -0.2189  0.1564 -0.7110
  162OSM    H1T18182   1.282   4.224   2.295 -0.1706  0.3769  2.5610
  162OSM     NF18183   1.141   4.263   2.537  0.3052 -0.5697 -0.0725
  162OSM    HNF18184   1.201   4.249   2.616  1.8140 -2.2171 -1.4207
  162OSM    C2S18185   1.112   4.170   2.432  0.0594 -0.0858 -0.0430
  162OSM    H2S18186   1.002   4.155   2.421  0.3262 -0.7380 -2.4074
  162OSM    C3S18187   1.177   4.032   2.470 -0.8297 -0.2447  0.3792
  162OSM    H3S18188   1.282   4.040   2.506 -1.2126 -2.1059  2.1476
  162OSM     O318189   1.189   3.935   2.365  0.3931  0.3826 -0.3585
  162OSM    HO318190   1.164   3.979   2.284  1.9610  0.0308 -1.0691
  162OSM    C4S18191   1.107   3.973   2.594 -0.0548 -0.7765 -0.1708
  162OSM    H4S18192   1.160   4.011   2.683  0.4046  0.6607 -1.0233
  162OSM    C5S18193   1.005   3.895   2.599  0.0650  0.3550 -0.0666
  162OSM    H5S18194   0.973   3.857   2.501  0.9874  0.0219 -0.2546
  162OSM    C6S18195   0.938   3.842   2.721 -0.5294  0.0874  0.4448
  162OSM    H6S18196   0.937   3.731   2.710  2.1469 -0.2247  2.4443
  162OSM    H6T18197   0.831   3.870   2.730 -1.7735 -4.2221  1.6799
  162OSM    C7S18198   0.994   3.887   2.858 -0.0677  0.1701  0.3801
  162OSM    H7S18199   0.970   3.993   2.878 -0.3099 -0.0478  1.2821
  162OSM    H7T18200   1.105   3.876   2.862  0.1868  2.3957  0.6663
  162OSM    C8S18201   0.931   3.804   2.971  0.1850  0.5698  0.2980
  162OSM    H8S18202   0.959   3.699   2.948  0.8359  0.1859  2.5196
  162OSM    H8T18203   0.821   3.813   2.984  0.2751 -1.1325  3.1911
  162OSM    C9S18204   0.999   3.833   3.103  0.2834  0.6733 -0.1228
  162OSM    H9S18205   0.982   3.938   3.136  1.2862  0.4473  1.1776
  162OSM    H9T18206   1.110   3.829   3.116  0.2431  0.7022  0.2450
  162OSM   C10S18207   0.931   3.742   3.206  0.8539  0.7938 -0.3796
  162OSM   H10S18208   0.941   3.636   3.176  2.6613  0.3490  1.5606
  162OSM   H10T18209   0.824   3.773   3.210  0.3982 -0.6396 -0.8542
  162OSM   C11S18210   0.995   3.739   3.347 -0.1047  0.2133 -0.2553
  162OSM   H11S18211   1.036   3.841   3.363  1.2742 -0.5039  1.0154
  162OSM   H11T18212   1.077   3.665   3.352 -1.6412 -1.5949 -0.8302
  162OSM   C12S18213   0.907   3.738   3.476 -0.1663  0.4477  0.4149
  162OSM   H12S18214   0.856   3.639   3.474  0.1947  0.2305 -2.7828
  162OSM   H12T18215   0.839   3.824   3.462  1.8426  1.7460 -2.3998
  162OSM   C13S18216   0.992   3.758   3.601  0.4596  0.0359 -0.1010
  162OSM   H13S18217   1.064   3.842   3.608  1.9826 -1.3701  1.9407
  162OSM   H13T18218   1.048   3.663   3.612 -1.2162 -1.0074 -0.1797
  162OSM   C14S18219   0.899   3.769   3.722 -0.0791  0.1160  0.3402
  162OSM   H14S18220   0.816   3.703   3.688  0.5873 -0.4233 -0.2823
  162OSM   H14T18221   0.848   3.867   3.734 -2.0484 -1.0636  2.3038
  162OSM   C15S18222   0.957   3.726   3.856 -0.0574 -1.2080  0.3508
  162OSM   H15S18223   1.051   3.782   3.875 -1.1835  1.3779 -1.0977
  162OSM   H15T18224   0.988   3.620   3.844  2.9222 -0.4182  0.2024
  162OSM   C16S18225   0.864   3.765   3.974  0.4313 -0.1421  0.0352
  162OSM   H16S18226   0.771   3.708   3.956  0.2441  0.5956 -1.4805
  162OSM   H16T18227   0.837   3.872   3.979 -0.6229 -0.4596  1.8283
  162OSM   C17S18228   0.919   3.707   4.107 -0.7183  0.1059  0.6419
  162OSM   H17S18229   0.857   3.745   4.191 -1.3035  0.6491 -0.0264
  162OSM   H17T18230   1.014   3.760   4.131 -1.4619  2.2067 -0.7808
  162OSM   C18S18231   0.953   3.562   4.115 -0.0584  0.2818 -0.3261
  162OSM   H18S18232   0.861   3.501   4.096  1.7977 -2.3095 -1.6747
  162OSM   H18T18233   1.000   3.540   4.213  0.5153 -0.7521 -0.8171
  162OSM   H18U18234   1.032   3.539   4.040  0.2571 -2.8300  0.8012
  162OSM    C1F18235   1.081   4.390   2.531  0.4427  0.3457  0.4420
  162OSM     OF18236   0.994   4.411   2.447 -0.3562 -0.5987  0.0372
  162OSM    C2F18237   1.146   4.501   2.610  0.8548 -0.2311 -0.6933
  162OSM    H2F18238   1.166   4.588   2.544 -0.1345 -0.5580 -1.4382
  162OSM    H2G18239   1.241   4.465   2.656  1.4402  0.9500 -0.9485
  162OSM    C3F18240   1.053   4.556   2.721 -1.2776 -0.5167 -0.0876
  162OSM    H3F18241   1.020   4.468   2.779 -1.0548 -0.7821 -0.3613
  162OSM    H3G18242   0.965   4.592   2.665  0.0471  0.0365 -1.9124
  162OSM    C4F18243   1.119   4.661   2.801 -0.7535  0.1626 -0.7159
  162OSM    H4F18244   1.159   4.745   2.741  0.2446 -0.1841 -0.5437
  162OSM    H4G18245   1.205   4.612   2.851 -0.5265 -0.9701 -2.1402
  162OSM    C5F18246   1.030   4.716   2.908 -0.9720  0.9132 -0.0156
  162OSM    H5F18247   0.943   4.778   2.880 -0.6116  0.1207 -3.4095
  162OSM    H5G18248   1.101   4.780   2.965 -0.2783  0.0148  0.1696
  162OSM    C6F18249   0.993   4.618   3.018  0.4964 -0.0846 -0.7560
  162OSM    H6F18250   1.088   4.570   3.047  0.2542  0.4444  1.0440
  162OSM    H6G18251   0.929   4.537   2.979  0.3029 -0.2823 -0.0474
  162OSM    C7F18252   0.925   4.684   3.140 -0.0969 -0.1518 -0.0596
  162OSM    H7F18253   0.829   4.735   3.118 -1.1015 -1.2456  1.6103
  162OSM    H7G18254   0.995   4.760   3.182  0.2801 -0.3000 -0.4110
  162OSM    C8F18255   0.897   4.583   3.256  0.1129  0.2905  0.1143
  162OSM    H8F18256   0.856   4.482   3.233 -1.2503  0.7357  0.5068
  162OSM    H8G18257   0.816   4.636   3.311 -1.0086 -2.5669  1.4328
  162OSM    C9F18258   1.016   4.563   3.337  0.4932 -0.0892  0.4504
  162OSM    H9F18259   1.095   4.511   3.282 -0.3098  0.6156 -1.4698
  162OSM   C10F18260   1.045   4.616   3.462 -0.2386  0.0247 -0.1819
  162OSM   H10F18261   1.146   4.612   3.506 -0.3456 -0.1470  0.0495
  162OSM   C11F18262   0.946   4.695   3.547 -0.1613  0.0732 -0.0730
  162OSM   H11F18263   0.846   4.706   3.501 -0.9947  0.1397  1.6942
  162OSM   H11G18264   0.979   4.801   3.559 -3.1869  1.2061 -0.8824
  162OSM   C12F18265   0.917   4.634   3.682 -0.4224  0.6789  0.2425
  162OSM   H12F18266   0.909   4.523   3.682  0.5586  0.5825  1.5135
  162OSM   H12G18267   0.818   4.677   3.709 -1.4714 -0.5631 -1.4211
  162OSM   C13F18268   1.021   4.671   3.799 -0.2071 -0.5340  0.4303
  162OSM   H13F18269   1.046   4.780   3.799  2.6951 -1.0771 -1.2929
  162OSM   H13G18270   1.120   4.629   3.772 -1.3332 -1.6197 -2.3413
  162OSM   C14F18271   0.970   4.621   3.934 -0.5330  0.2936  0.6668
  162OSM   H14F18272   1.056   4.603   4.002 -0.4187  0.8690  0.6835
  162OSM   H14G18273   0.919   4.524   3.919  1.2467 -0.3252 -2.2435
  162OSM   C15F18274   0.877   4.728   4.001 -0.4665  0.1726  0.0558
  162OSM   H15F18275   0.801   4.680   4.065 -0.2053  1.7453  1.6283
  162OSM   H15G18276   0.808   4.772   3.926 -1.0641  0.0131  0.5118
  162OSM   C16F18277   0.948   4.831   4.080 -0.0079 -0.2279  0.1370
  162OSM   H16F18278   1.013   4.898   4.020  1.1836  2.1892  3.8067
  162OSM   H16G18279   1.018   4.779   4.150  2.1318  0.7162 -1.1840
  162OSM   C17F18280   0.844   4.911   4.169  0.3061  0.9014  0.5489
  162OSM   H17F18281   0.799   4.824   4.222  1.6846  0.2717  0.7556
  162OSM   H17G18282   0.768   4.952   4.099  0.3320 -0.5078 -0.3447
  162OSM   C18F18283   0.893   5.009   4.276 -0.6710  0.4160  0.6093
  162OSM   H18F18284   0.808   5.068   4.316  0.1253  3.8306 -2.1941
  162OSM   H18G18285   0.962   5.082   4.228  0.6810 -1.9109 -1.1679
  162OSM   H18H18286   0.951   4.961   4.358  3.0420  1.3536 -1.2158
  163OSM      N18287   5.105   6.620   1.608  0.2810 -0.1044 -0.1995
  163OSM    C1518288   5.078   6.746   1.532 -0.0336  0.6179 -0.5002
  163OSM   H15A18289   5.130   6.747   1.437  1.8016 -0.7111  0.4296
  163OSM   H15B18290   5.117   6.831   1.586 -2.0037  2.3849 -1.7332
  163OSM   H15C18291   4.970   6.744   1.524 -0.1171  0.4362  0.5423
  163OSM    C1418292   5.028   6.629   1.736 -0.6099 -0.1940  0.3693
  163OSM   H14A18293   5.049   6.543   1.797  0.2745 -0.0888  0.2202
  163OSM   H14B18294   4.921   6.643   1.729 -0.5017  0.5741  0.2019
  163OSM   H14C18295   5.066   6.715   1.789  0.7341  0.0647 -0.9742
  163OSM    C1318296   5.047   6.512   1.524 -0.0552  0.0886 -0.8132
  163OSM   H13A18297   5.051   6.422   1.583 -1.6786  1.7948  2.1169
  163OSM   H13B18298   5.097   6.502   1.429 -1.0869 -1.2823 -1.2551
  163OSM   H13C18299   4.943   6.517   1.494 -0.2460  0.5177 -0.1077
  163OSM    C1218300   5.250   6.593   1.644 -0.3635  0.0405  0.3185
  163OSM   H12A18301   5.309   6.602   1.554  2.0647  1.9445  1.9518
  163OSM   H12B18302   5.256   6.496   1.692  1.6260  0.6272  1.4025
  163OSM    C1118303   5.307   6.692   1.750 -0.1690  0.3381  0.2859
  163OSM   H11A18304   5.417   6.674   1.749 -0.3232 -1.8808 -3.9498
  163OSM   H11B18305   5.271   6.664   1.851  4.1626 -0.3673  1.8439
  163OSM      P18306   5.266   6.942   1.808 -0.2832  0.0778 -0.5225
  163OSM    O1318307   5.282   7.073   1.757  0.9264  0.1332 -0.4895
  163OSM    O1418308   5.132   6.912   1.862  0.0301  0.9489  0.2373
  163OSM    O1118309   5.368   6.910   1.925  0.1654  0.4741  0.2117
  163OSM    O1218310   5.300   6.829   1.707  0.2793 -0.3718  0.0579
  163OSM    C1S18311   5.411   7.010   2.018 -0.1462 -0.0744 -0.7221
  163OSM    H1S18312   5.421   7.112   1.976  0.6484  1.0410  1.9970
  163OSM    H1T18313   5.510   6.991   2.063 -0.0083 -2.6133 -1.8947
  163OSM     NF18314   5.380   7.141   2.231 -0.7315 -0.6052  0.0055
  163OSM    HNF18315   5.397   7.113   2.325 -0.6874  0.1742  0.2402
  163OSM    C2S18316   5.329   7.036   2.149 -0.1447 -0.2914  0.3980
  163OSM    H2S18317   5.231   7.078   2.120 -0.3614 -0.3086  1.0877
  163OSM    C3S18318   5.300   6.906   2.228 -0.0648  0.3797 -0.0760
  163OSM    H3S18319   5.398   6.864   2.262 -1.1485 -1.8705  0.5099
  163OSM     O318320   5.246   6.803   2.155 -0.4063  0.2664  0.3332
  163OSM    HO318321   5.239   6.842   2.068  0.8257  3.0433  1.3678
  163OSM    C4S18322   5.216   6.928   2.350  0.1935 -0.0057  0.2381
  163OSM    H4S18323   5.273   6.936   2.444 -0.0856  1.6337  0.3056
  163OSM    C5S18324   5.082   6.949   2.350 -0.1403  0.6387 -0.2520
  163OSM    H5S18325   5.025   6.933   2.257  1.1194 -1.9194 -0.6855
  163OSM    C6S18326   4.992   6.980   2.472 -1.0492  0.6113 -0.4708
  163OSM    H6S18327   4.932   6.890   2.498 -1.0425 -0.2454 -3.1540
  163OSM    H6T18328   4.921   7.060   2.442  0.5415  1.7459 -1.3393
  163OSM    C7S18329   5.066   7.008   2.605 -0.1805  0.4248 -0.5405
  163OSM    H7S18330   5.136   7.094   2.594 -1.0712  1.2514  0.1400
  163OSM    H7T18331   5.131   6.923   2.634  0.5677  0.3456 -2.3422
  163OSM    C8S18332   4.972   7.048   2.719  0.4543 -0.1702  0.1033
  163OSM    H8S18333   4.896   6.970   2.743 -0.9954  0.7135 -1.3646
  163OSM    H8T18334   4.928   7.148   2.698  0.6765 -0.4144 -1.6825
  163OSM    C9S18335   5.044   7.069   2.850  1.0316 -0.2188  0.2964
  163OSM    H9S18336   5.129   7.138   2.834  0.3086  0.5876 -0.1436
  163OSM    H9T18337   5.102   6.976   2.870 -1.1240 -2.0433 -1.3305
  163OSM   C10S18338   4.962   7.121   2.965 -0.0641  0.0797  0.6883
  163OSM   H10S18339   4.874   7.054   2.972  0.3723 -1.1091 -3.0589
  163OSM   H10T18340   4.918   7.221   2.943 -0.9265 -0.1464  1.3224
  163OSM   C11S18341   5.043   7.142   3.091  0.0175  0.1129 -0.0464
  163OSM   H11S18342   5.144   7.179   3.065  1.0786 -2.7911 -0.3662
  163OSM   H11T18343   5.060   7.041   3.133  0.4033  0.2839  0.2211
  163OSM   C12S18344   4.956   7.216   3.197 -0.5719 -0.0601  0.0536
  163OSM   H12S18345   4.864   7.154   3.209 -0.6304 -0.0825 -0.4903
  163OSM   H12T18346   4.942   7.317   3.153  2.6370  0.2575 -0.4744
  163OSM   C13S18347   5.024   7.242   3.331  0.2453 -0.2697  0.1996
  163OSM   H13S18348   5.120   7.296   3.320  0.8651 -1.6197 -1.8029
  163OSM   H13T18349   5.041   7.146   3.385 -1.5703 -0.2791  0.8445
  163OSM   C14S18350   4.933   7.322   3.423 -0.4178 -0.2535  0.4212
  163OSM   H14S18351   4.826   7.293   3.412 -0.4041 -0.2700  0.3341
  163OSM   H14T18352   4.943   7.423   3.378  1.1892 -1.2404 -1.5860
  163OSM   C15S18353   4.974   7.346   3.571  0.9438 -0.1419 -0.4438
  163OSM   H15S18354   5.078   7.386   3.572  1.2401 -0.8875 -0.5512
  163OSM   H15T18355   4.986   7.249   3.624  3.2575  1.5839  2.4654
  163OSM   C16S18356   4.878   7.432   3.664  0.1448 -1.0706 -0.4313
  163OSM   H16S18357   4.910   7.424   3.770 -1.3189 -1.6287 -0.0063
  163OSM   H16T18358   4.780   7.380   3.650  0.2999 -1.6857  0.7043
  163OSM   C17S18359   4.871   7.573   3.606  0.5462  0.0585  0.3236
  163OSM   H17S18360   4.849   7.565   3.498 -1.3059 -0.2502  0.6897
  163OSM   H17T18361   4.961   7.633   3.631  1.2187 -1.1813  0.9601
  163OSM   C18S18362   4.744   7.648   3.656 -0.1939  0.0403  0.0356
  163OSM   H18S18363   4.655   7.582   3.653 -0.1493 -0.0043 -1.7915
  163OSM   H18T18364   4.733   7.739   3.593  1.3724  0.6870  0.6521
  163OSM   H18U18365   4.756   7.667   3.764 -0.5374 -0.3598  0.1482
  163OSM    C1F18366   5.400   7.272   2.212  0.3464  0.4134  0.1378
  163OSM     OF18367   5.397   7.324   2.097  0.3474  0.7283  0.4500
  163OSM    C2F18368   5.419   7.364   2.332  0.4202  0.5676 -0.0203
  163OSM    H2F18369   5.503   7.432   2.306 -1.4430  3.1957  0.4444
  163OSM    H2G18370   5.439   7.305   2.424  1.3107 -0.2425 -0.7118
  163OSM    C3F18371   5.299   7.457   2.366  1.0413 -0.1836 -0.1474
  163OSM    H3F18372   5.271   7.517   2.277 -0.6499  0.9444  1.0838
  163OSM    H3G18373   5.322   7.534   2.442 -0.7806 -0.9528  1.2694
  163OSM    C4F18374   5.172   7.368   2.413 -0.0861 -0.4453 -0.0222
  163OSM    H4F18375   5.200   7.314   2.506 -0.9799  0.6966  0.9408
  163OSM    H4G18376   5.153   7.291   2.335  1.1866 -0.8006 -0.0011
  163OSM    C5F18377   5.045   7.455   2.442 -0.5808 -0.2398 -0.3365
  163OSM    H5F18378   5.042   7.537   2.367 -1.8299 -1.3402 -1.5325
  163OSM    H5G18379   5.053   7.496   2.545 -0.7885 -1.4305  0.1754
  163OSM    C6F18380   4.917   7.382   2.421  0.5066 -0.4229  0.2370
  163OSM    H6F18381   4.886   7.333   2.516  1.1835 -0.8191  0.2582
  163OSM    H6G18382   4.918   7.304   2.342  0.5593 -0.6738  0.4860
  163OSM    C7F18383   4.792   7.471   2.378  0.0910  0.8321 -0.4939
  163OSM    H7F18384   4.700   7.409   2.371 -0.9378  2.2863 -0.2133
  163OSM    H7G18385   4.817   7.495   2.273 -3.5080 -0.2165 -1.7315
  163OSM    C8F18386   4.770   7.593   2.466 -0.2477  0.1760  0.1576
  163OSM    H8F18387   4.742   7.677   2.400  1.2001 -0.2037 -0.9787
  163OSM    H8G18388   4.860   7.637   2.513 -1.5085  4.0759 -0.7330
  163OSM    C9F18389   4.673   7.577   2.579 -0.6217 -0.4370  0.3861
  163OSM    H9F18390   4.567   7.569   2.552 -0.6410 -3.2493  0.9885
  163OSM   C10F18391   4.696   7.547   2.713 -0.1686 -0.4961  0.0327
  163OSM   H10F18392   4.607   7.527   2.774 -0.0243  0.0530  0.4231
  163OSM   C11F18393   4.835   7.534   2.773  0.2923 -0.1264 -0.3548
  163OSM   H11F18394   4.921   7.583   2.724  2.2323 -0.2690  2.6256
  163OSM   H11G18395   4.861   7.426   2.778 -0.4585 -0.2811  0.5748
  163OSM   C12F18396   4.816   7.583   2.909  0.0593 -0.0880 -0.2920
  163OSM   H12F18397   4.745   7.520   2.966  0.8120  0.3473  1.1753
  163OSM   H12G18398   4.780   7.687   2.900  0.3113  0.0028 -0.2589
  163OSM   C13F18399   4.946   7.570   3.002  0.3067  0.4462  0.1053
  163OSM   H13F18400   5.038   7.609   2.954  0.8192 -1.1861 -0.3037
  163OSM   H13G18401   4.964   7.462   3.018 -0.2493  0.0936 -1.5347
  163OSM   C14F18402   4.922   7.654   3.130 -0.0974  0.4734  0.2937
  163OSM   H14F18403   4.840   7.600   3.182 -0.1753  0.6191  0.3266
  163OSM   H14G18404   4.886   7.753   3.094  0.3697  0.2892 -0.7040
  163OSM   C15F18405   5.050   7.675   3.212 -0.4752  0.3507  0.5316
  163OSM   H15F18406   5.137   7.700   3.148  0.8760 -2.9232  0.9086
  163OSM   H15G18407   5.073   7.579   3.262 -1.3974 -1.2756 -1.9971
  163OSM   C16F18408   5.025   7.776   3.324 -0.6280  0.6778 -0.1529
  163OSM   H16F18409   4.944   7.736   3.389 -0.1281 -2.3661 -1.2463
  163OSM   H16G18410   4.993   7.875   3.284  0.1641  1.7441  1.6799
  163OSM   C17F18411   5.158   7.790   3.400  0.2837 -0.1672 -0.1837
  163OSM   H17F18412   5.224   7.834   3.322  0.5012 -2.5223 -1.4180
  163OSM   H17G18413   5.185   7.683   3.417 -0.5460 -1.0236 -3.5573
  163OSM   C18F18414   5.154   7.873   3.528 -0.4649  0.0822  0.3404
  163OSM   H18F18415   5.131   7.978   3.501 -0.8163  0.1881  1.0429
  163OSM   H18G18416   5.254   7.883   3.574 -0.4045  2.0951 -0.1357
  163OSM   H18H18417   5.074   7.829   3.592 -1.0803 -0.0780 -0.5196
  164OSM      N18418   1.841   0.728   1.761  0.6785  0.1716 -0.0782
  164OSM    C1518419   1.698   0.732   1.713  0.5314 -0.7354 -0.0017
  164OSM   H15A18420   1.698   0.718   1.606  2.0143  0.0692 -0.1338
  164OSM   H15B18421   1.654   0.826   1.743 -0.9120 -2.0932  2.4833
  164OSM   H15C18422   1.634   0.659   1.759 -0.2131 -0.1665 -0.1175
  164OSM    C1418423   1.897   0.591   1.733  0.6508  0.2454 -0.3838
  164OSM   H14A18424   1.854   0.516   1.796  0.0343  2.0378  1.4348
  164OSM   H14B18425   2.002   0.595   1.759  0.7510 -0.2322 -0.7130
  164OSM   H14C18426   1.881   0.568   1.628  0.1870  1.0951 -0.5100
  164OSM    C1318427   1.917   0.836   1.684 -0.3024  0.7591 -0.6217
  164OSM   H13A18428   2.022   0.823   1.703 -0.8248 -1.0101  1.4943
  164OSM   H13B18429   1.881   0.928   1.728 -0.0501  0.3489  0.4729
  164OSM   H13C18430   1.908   0.830   1.576  0.2116  0.3489 -0.6477
  164OSM    C1218431   1.854   0.762   1.911 -0.6369 -0.7053 -0.1475
  164OSM   H12A18432   1.959   0.762   1.939 -0.6805  2.9946  0.4738
  164OSM   H12B18433   1.813   0.681   1.970  0.3999 -1.7249 -0.7726
  164OSM    C1118434   1.792   0.897   1.964  0.5482  0.3316  0.3237
  164OSM   H11A18435   1.819   0.979   1.894 -0.0570  0.0099 -0.2974
  164OSM   H11B18436   1.836   0.926   2.062 -1.5169 -0.3587  1.5276
  164OSM      P18437   1.575   0.813   2.094  0.2847 -0.1428  0.1192
  164OSM    O1318438   1.445   0.862   2.113  0.3918  0.2719  0.6593
  164OSM    O1418439   1.570   0.669   2.064 -0.3891 -0.3962  0.2151
  164OSM    O1118440   1.659   0.846   2.229  0.4628 -0.2260  0.5014
  164OSM    O1218441   1.648   0.884   1.977 -0.0186 -0.4140  0.2647
  164OSM    C1S18442   1.674   0.971   2.291 -0.1805 -0.1876  0.0528
  164OSM    H1S18443   1.612   1.049   2.242  0.6856 -0.3133 -1.3076
  164OSM    H1T18444   1.781   0.998   2.275  0.0526 -1.0367  0.1555
  164OSM     NF18445   1.649   1.111   2.494 -0.3172  0.0084  0.1012
  164OSM    HNF18446   1.726   1.123   2.557 -0.3886  1.7600 -0.0906
  164OSM    C2S18447   1.637   0.970   2.440 -0.2414 -0.8446 -0.2690
  164OSM    H2S18448   1.529   0.948   2.448 -0.2742 -1.1236 -1.3193
  164OSM    C3S18449   1.716   0.872   2.526 -0.4255 -0.1575  0.6677
  164OSM    H3S18450   1.818   0.916   2.537 -0.1390 -0.4778 -0.6220
  164OSM     O318451   1.747   0.750   2.458 -0.1983  0.2281 -0.3278
  164OSM    HO318452   1.718   0.769   2.368  1.3733 -0.6019 -1.0412
  164OSM    C4S18453   1.656   0.855   2.663 -0.3490 -0.4115 -0.0499
  164OSM    H4S18454   1.710   0.915   2.738  0.0765 -1.1606  0.2480
  164OSM    C5S18455   1.551   0.781   2.700  0.7384  0.2389 -0.3297
  164OSM    H5S18456   1.490   0.734   2.622 -0.5607 -1.4923  1.6431
  164OSM    C6S18457   1.509   0.757   2.834 -0.1859  0.4726 -0.3161
  164OSM    H6S18458   1.503   0.648   2.855 -1.2519 -0.0489 -2.9322
  164OSM    H6T18459   1.405   0.792   2.851 -0.4619 -0.4806  0.0011
  164OSM    C7S18460   1.593   0.808   2.944  0.2310  0.1882  1.1264
  164OSM    H7S18461   1.580   0.919   2.946 -1.7865  0.2043 -2.7157
  164OSM    H7T18462   1.703   0.800   2.930  0.1518  0.8224  0.0144
  164OSM    C8S18463   1.558   0.753   3.084  0.2945  0.2527 -0.0974
  164OSM    H8S18464   1.580   0.645   3.093 -3.6320 -0.4856  3.3189
  164OSM    H8T18465   1.449   0.756   3.105  0.2028 -0.5452 -0.4106
  164OSM    C9S18466   1.635   0.826   3.191 -0.4714 -0.9102  0.6149
  164OSM    H9S18467   1.618   0.935   3.199 -2.8251 -1.2547  1.1690
  164OSM    H9T18468   1.743   0.800   3.192 -0.4608 -1.2144  3.6228
  164OSM   C10S18469   1.590   0.778   3.334  0.4885  0.4084  0.4196
  164OSM   H10S18470   1.569   0.669   3.327  1.9945  0.1134  0.2785
  164OSM   H10T18471   1.494   0.831   3.351  0.2634  0.0474  0.3080
  164OSM   C11S18472   1.691   0.808   3.441 -0.7938  0.2753 -0.3376
  164OSM   H11S18473   1.714   0.916   3.445  0.4156 -0.0017  0.4372
  164OSM   H11T18474   1.785   0.755   3.417 -0.2977  1.0634 -0.1498
  164OSM   C12S18475   1.634   0.774   3.583 -0.6758 -0.3097 -0.6823
  164OSM   H12S18476   1.600   0.668   3.575  0.4876 -0.7666  0.0410
  164OSM   H12T18477   1.552   0.842   3.614  1.3694  1.3674  1.3737
  164OSM   C13S18478   1.743   0.771   3.686  0.3424 -0.1726 -0.1524
  164OSM   H13S18479   1.797   0.868   3.691 -1.2538  0.7228  0.3081
  164OSM   H13T18480   1.805   0.687   3.648 -1.0371 -1.3287  0.0676
  164OSM   C14S18481   1.687   0.735   3.824 -0.3760  0.4847  0.8499
  164OSM   H14S18482   1.634   0.638   3.819  1.4244 -0.6224  2.0929
  164OSM   H14T18483   1.611   0.809   3.857 -0.0190  0.7327  1.1273
  164OSM   C15S18484   1.792   0.718   3.935 -0.3310 -0.5910 -0.4901
  164OSM   H15S18485   1.832   0.818   3.960 -2.3169  0.3724 -0.9169
  164OSM   H15T18486   1.879   0.653   3.912 -1.8369 -3.0743  0.3696
  164OSM   C16S18487   1.723   0.670   4.068 -0.3933  0.2821 -0.3357
  164OSM   H16S18488   1.647   0.596   4.038 -0.9250  1.0597 -0.9552
  164OSM   H16T18489   1.672   0.760   4.110  0.7443  0.8568 -0.1571
  164OSM   C17S18490   1.824   0.604   4.163 -0.0215  0.3065  0.1469
  164OSM   H17S18491   1.869   0.515   4.113 -0.2568  1.3866 -2.0934
  164OSM   H17T18492   1.764   0.559   4.244  1.6744  0.2837  1.4596
  164OSM   C18S18493   1.927   0.695   4.222 -0.7826  0.2520  0.1088
  164OSM   H18S18494   1.894   0.743   4.317  1.0499  1.3281  0.2304
  164OSM   H18T18495   1.962   0.774   4.153 -1.9259  0.0026 -0.7918
  164OSM   H18U18496   2.021   0.645   4.253 -0.0873  0.7190 -1.1565
  164OSM    C1F18497   1.566   1.207   2.469  0.1967 -0.7695 -0.1210
  164OSM     OF18498   1.462   1.188   2.405  0.1116 -0.3566 -0.2328
  164OSM    C2F18499   1.606   1.352   2.501 -0.9925  0.1786  0.7229
  164OSM    H2F18500   1.570   1.425   2.425 -0.8968 -1.1931 -0.6854
  164OSM    H2G18501   1.717   1.353   2.504 -0.9032  1.0028 -1.2425
  164OSM    C3F18502   1.552   1.392   2.633  0.2138  0.0126 -1.0424
  164OSM    H3F18503   1.448   1.357   2.651  0.4445 -0.7535 -1.1316
  164OSM    H3G18504   1.567   1.501   2.647  3.4741 -0.5700  1.0356
  164OSM    C4F18505   1.638   1.331   2.748  0.7908 -0.3835  0.8448
  164OSM    H4F18506   1.747   1.342   2.729  0.8503 -0.5421  1.0890
  164OSM    H4G18507   1.609   1.223   2.746  2.5875 -0.8989 -1.2866
  164OSM    C5F18508   1.616   1.403   2.881  0.1111  0.3180 -0.2883
  164OSM    H5F18509   1.506   1.397   2.899  0.0744 -1.0711 -0.9224
  164OSM    H5G18510   1.659   1.506   2.891  2.7937 -0.9038  2.4343
  164OSM    C6F18511   1.673   1.330   3.002 -0.1841  0.5269 -0.2822
  164OSM    H6F18512   1.781   1.320   2.977 -0.1541 -0.6656  0.2910
  164OSM    H6G18513   1.628   1.229   2.990 -0.2495  0.7537 -2.5656
  164OSM    C7F18514   1.663   1.377   3.141 -0.7354  0.2886  0.3338
  164OSM    H7F18515   1.554   1.378   3.165 -0.0763 -1.0140  3.8765
  164OSM    H7G18516   1.709   1.477   3.145  3.3655 -1.3169 -1.2855
  164OSM    C8F18517   1.720   1.267   3.233 -0.0588  0.0952 -0.0808
  164OSM    H8F18518   1.825   1.256   3.198 -0.1246  3.5233 -1.8457
  164OSM    H8G18519   1.674   1.167   3.222 -0.8973  0.4293  0.2982
  164OSM    C9F18520   1.700   1.287   3.384  0.7863 -0.6568  0.7601
  164OSM    H9F18521   1.605   1.327   3.423  1.6384 -0.1514  2.4140
  164OSM   C10F18522   1.802   1.266   3.464  0.0398  0.6366 -0.7064
  164OSM   H10F18523   1.796   1.284   3.572 -1.0513 -1.3763 -0.3752
  164OSM   C11F18524   1.936   1.223   3.423 -0.2490 -0.3298  0.6044
  164OSM   H11F18525   1.956   1.287   3.335 -1.6206 -1.3378 -0.4847
  164OSM   H11G18526   1.933   1.118   3.386 -1.1970  0.2133 -0.9265
  164OSM   C12F18527   2.039   1.243   3.525  0.3836  0.4286 -0.3621
  164OSM   H12F18528   2.141   1.201   3.515  0.2455 -0.0662  0.2349
  164OSM   H12G18529   1.997   1.191   3.614 -1.2529 -1.8154 -2.3368
  164OSM   C13F18530   2.065   1.391   3.572  0.0254  0.4226 -0.1797
  164OSM   H13F18531   1.967   1.432   3.606  0.5729  2.2696 -0.7121
  164OSM   H13G18532   2.084   1.453   3.481  3.0407  1.3983  1.0096
  164OSM   C14F18533   2.168   1.399   3.683 -0.7435  0.4806 -0.2655
  164OSM   H14F18534   2.259   1.390   3.619 -0.0095  0.9778  0.6855
  164OSM   H14G18535   2.153   1.315   3.755 -3.9507  2.4832  1.6615
  164OSM   C15F18536   2.176   1.537   3.739  0.3222 -0.2767 -0.2265
  164OSM   H15F18537   2.186   1.618   3.665 -1.7492  1.0989  0.8696
  164OSM   H15G18538   2.269   1.538   3.799  0.3847 -1.4203 -0.2846
  164OSM   C16F18539   2.068   1.566   3.843  0.3099  0.5024  0.7959
  164OSM   H16F18540   2.061   1.470   3.898  2.5685 -0.5450 -0.6380
  164OSM   H16G18541   1.973   1.592   3.792 -0.0981  0.2345  1.4060
  164OSM   C17F18542   2.098   1.680   3.938 -0.1210 -0.3289  0.1776
  164OSM   H17F18543   2.132   1.773   3.886  1.4800 -0.1237  1.5052
  164OSM   H17G18544   2.191   1.647   3.990 -0.7506 -3.5210 -0.5121
  164OSM   C18F18545   1.984   1.712   4.031  0.3359  0.0239  0.4295
  164OSM   H18F18546   2.011   1.786   4.109  2.0268  0.3622 -0.4314
  164OSM   H18G18547   1.947   1.618   4.078 -0.0640 -0.9140 -1.6498
  164OSM   H18H18548   1.892   1.747   3.980  0.2520  0.8970  1.1581
  165SAPS     N18549   4.903   1.401   6.962 -0.3597 -0.2045 -0.4731
  165SAPS   HN118550   4.852   1.483   6.924  0.3380  1.9361  2.8195
  165SAPS   HN218551   4.896   1.316   6.902 -1.8066  0.7587 -1.7283
  165SAPS   HN318552   4.865   1.379   7.057  0.4394  0.6333  0.0603
  165SAPS   C1218553   5.044   1.448   6.968  0.1116 -0.5729  0.2500
  165SAPS  H12A18554   5.041   1.544   7.017  2.6925 -0.5807  0.5569
  165SAPS   C1318555   5.125   1.353   7.052  0.5625 -0.5975 -0.0296
  165SAPS  O13A18556   5.070   1.264   7.122  0.1861 -0.8446 -0.3300
  165SAPS  O13B18557   5.244   1.389   7.070 -0.1943 -0.3819 -0.3023
  165SAPS   C1118558   5.102   1.456   6.826  0.0140  0.5025  0.3514
  165SAPS  H11A18559   5.074   1.360   6.777 -0.2933  0.0648  1.3491
  165SAPS  H11B18560   5.212   1.473   6.821 -0.0309  0.8954  0.7256
  165SAPS     P18561   5.000   1.582   6.616 -0.1499 -0.0794 -0.2440
  165SAPS   O1318562   4.914   1.702   6.602 -0.2008 -0.0982 -0.2951
  165SAPS   O1418563   5.120   1.568   6.533  0.3051 -0.4539  0.3100
  165SAPS   O1218564   5.057   1.571   6.764  0.0549  0.1739  0.0924
  165SAPS   O1118565   4.907   1.457   6.609 -0.1445  0.6595  0.3922
  165SAPS    C118566   4.922   1.362   6.502  0.4510 -0.0880 -0.8742
  165SAPS    HA18567   5.031   1.350   6.482  0.7864 -0.8869  1.2040
  165SAPS    HB18568   4.878   1.263   6.524 -2.5579  1.7432  2.2967
  165SAPS    C218569   4.877   1.414   6.364 -0.3301 -0.4741 -0.3854
  165SAPS    HS18570   4.945   1.494   6.328 -1.3079  0.8618  0.6696
  165SAPS   O2118571   4.743   1.467   6.391 -0.1861  0.4395 -0.3255
  165SAPS   C2118572   4.723   1.582   6.333 -0.4778  1.1263 -0.1550
  165SAPS   O2218573   4.793   1.640   6.254 -0.4775  0.1922 -0.8347
  165SAPS   C2218574   4.581   1.613   6.364  0.2327 -0.0755  0.8585
  165SAPS   H2R18575   4.557   1.589   6.470  1.5681 -2.2727  0.7241
  165SAPS   H2S18576   4.570   1.720   6.339 -2.5789 -0.6770 -0.8313
  165SAPS    C318577   4.863   1.308   6.248 -0.2779  0.3435 -0.3844
  165SAPS    HX18578   4.790   1.235   6.289 -0.3076  0.2323 -0.6364
  165SAPS    HY18579   4.962   1.258   6.241  1.5874  3.7040 -0.2584
  165SAPS   O3118580   4.824   1.366   6.117  0.0537  0.2472 -0.2796
  165SAPS   C3118581   4.909   1.431   6.039 -0.0969 -0.5530 -0.1618
  165SAPS   O3218582   5.026   1.440   6.054 -0.6132  0.3366 -0.1708
  165SAPS   C3218583   4.830   1.505   5.935 -0.1995 -0.8021 -0.0786
  165SAPS   H2X18584   4.818   1.607   5.977 -0.4135  0.5254 -3.1155
  165SAPS   H2Y18585   4.730   1.459   5.925 -1.2047  0.3476  3.2677
  165SAPS   C2318586   4.483   1.528   6.279 -0.4474 -0.1634  0.0548
  165SAPS   H3R18587   4.521   1.520   6.175 -0.3623  0.9281 -0.0158
  165SAPS   H3S18588   4.396   1.597   6.270 -0.9135 -0.6931  0.4406
  165SAPS   C2418589   4.441   1.392   6.337 -0.0583  0.2621 -0.0409
  165SAPS   H4R18590   4.416   1.417   6.442  0.7815  1.0189 -0.0106
  165SAPS   H4S18591   4.542   1.346   6.345 -0.0544  0.2407 -0.2202
  165SAPS   C2518592   4.344   1.334   6.249  0.9439  0.1170  0.2338
  165SAPS   H5R18593   4.242   1.375   6.256  0.6707 -0.5041  0.0349
  165SAPS   C2618594   4.368   1.255   6.140 -0.0903  0.1419 -0.2221
  165SAPS   H6R18595   4.285   1.220   6.077 -0.5189 -4.0374  2.2825
  165SAPS   C2718596   4.498   1.203   6.096 -0.4219  0.7278 -0.1815
  165SAPS   H7R18597   4.576   1.267   6.143  0.1702  1.2854 -1.8508
  165SAPS   H7S18598   4.511   1.224   5.988 -1.2754 -0.4744 -0.5310
  165SAPS   C2818599   4.524   1.062   6.144 -0.0075  0.7280 -0.2609
  165SAPS   H8R18600   4.552   1.056   6.250 -1.9588 -0.9715  0.2278
  165SAPS   C2918601   4.515   0.944   6.066  0.2018 -0.1495 -0.2102
  165SAPS   H9R18602   4.541   0.851   6.119 -1.9142 -0.2559  0.7662
  165SAPS  C21018603   4.484   0.949   5.918  0.2326  0.4440 -0.0651
  165SAPS  H10R18604   4.538   1.038   5.880 -1.3334  1.4692 -0.0002
  165SAPS  H10S18605   4.374   0.966   5.910  0.1258 -0.6547 -1.0748
  165SAPS  C21118606   4.533   0.827   5.846 -0.5542 -0.3651  0.3345
  165SAPS  H11R18607   4.556   0.743   5.914 -0.4019  0.5546  1.4450
  165SAPS  C21218608   4.559   0.805   5.719 -0.2752  0.5673  0.0022
  165SAPS  H12R18609   4.606   0.706   5.703 -1.4255  0.2639 -1.6990
  165SAPS  C21318610   4.543   0.885   5.595  0.1966 -0.3558 -0.0627
  165SAPS  H13R18611   4.641   0.899   5.545 -0.4695  0.9810 -1.0701
  165SAPS  H13S18612   4.511   0.986   5.630 -1.5965 -1.2087  0.8978
  165SAPS  C21418613   4.432   0.830   5.508  0.1576 -0.3212 -0.5234
  165SAPS  H14R18614   4.359   0.758   5.548  2.1144 -3.3718 -2.0179
  165SAPS  C21518615   4.428   0.856   5.377  0.3429 -0.0720 -0.0376
  165SAPS  H15R18616   4.350   0.815   5.311  1.6678  0.3837 -1.9456
  165SAPS  C21618617   4.530   0.938   5.304  0.0956 -0.3732 -0.2073
  165SAPS  H16R18618   4.574   0.887   5.216  2.3901  1.9639 -0.5484
  165SAPS  H16S18619   4.617   0.967   5.366  0.3636 -0.3759 -0.5771
  165SAPS  C21718620   4.463   1.066   5.237 -0.1243 -0.0348 -0.3110
  165SAPS  H17R18621   4.540   1.135   5.197 -0.3696  1.1992  1.2755
  165SAPS  H17S18622   4.408   1.114   5.321  0.0911  0.1038 -0.2495
  165SAPS  C21818623   4.366   1.028   5.125 -1.1584 -0.5392  0.2534
  165SAPS  H18R18624   4.298   1.114   5.115 -1.6814 -0.7678  1.6543
  165SAPS  H18S18625   4.295   0.944   5.143 -1.7947 -0.7520 -2.7199
  165SAPS  C21918626   4.426   0.991   4.982 -0.0872 -0.5115 -0.3178
  165SAPS  H19R18627   4.378   0.903   4.933 -0.1124 -0.2542 -0.7580
  165SAPS  H19S18628   4.526   0.951   5.013 -0.1515  0.7099  1.5995
  165SAPS  C22018629   4.442   1.105   4.882  0.2178  0.4847  0.5679
  165SAPS  H20R18630   4.486   1.193   4.932 -0.7583  1.3738 -0.0803
  165SAPS  H20S18631   4.344   1.144   4.845  0.6082 -0.5457 -1.7390
  165SAPS  H20T18632   4.500   1.069   4.795 -2.8734  0.3157 -1.5978
  165SAPS   C3318633   4.912   1.520   5.805 -0.0804  0.7357 -0.1579
  165SAPS   H3X18634   4.921   1.415   5.771 -1.8527  0.2709  0.6575
  165SAPS   H3Y18635   5.011   1.564   5.830  0.6417  0.4060 -2.2603
  165SAPS   C3418636   4.859   1.598   5.686  0.8624  0.2855 -0.5746
  165SAPS   H4X18637   4.945   1.608   5.616  0.3568 -0.2060 -1.2790
  165SAPS   H4Y18638   4.822   1.696   5.723  1.7681 -0.4933  2.7558
  165SAPS   C3518639   4.753   1.517   5.618  0.2386 -0.4772 -0.7116
  165SAPS   H5X18640   4.667   1.502   5.687 -0.7612 -1.1110 -2.0394
  165SAPS   H5Y18641   4.792   1.417   5.590  0.1028 -0.3364 -1.4054
  165SAPS   C3618642   4.694   1.587   5.500 -0.2072  0.0658  0.4925
  165SAPS   H6X18643   4.773   1.621   5.429  0.0857 -1.2636  0.1560
  165SAPS   H6Y18644   4.648   1.684   5.529  0.4023 -0.0976  2.0766
  165SAPS   C3718645   4.605   1.491   5.418  0.1338  0.3074 -0.3049
  165SAPS   H7X18646   4.522   1.449   5.479 -0.9258  1.0383 -1.1792
  165SAPS   H7Y18647   4.651   1.402   5.370  0.6744  1.2731 -1.6698
  165SAPS   C3818648   4.537   1.574   5.302  0.4721  1.0367  0.2834
  165SAPS   H8X18649   4.620   1.614   5.239  1.0367 -0.5051  0.0055
  165SAPS   H8Y18650   4.488   1.658   5.355  2.9305  2.1443  0.9786
  165SAPS   C3918651   4.435   1.496   5.219  0.3222 -0.3723  0.1550
  165SAPS   H9X18652   4.348   1.470   5.283  0.9964  0.0782  1.2773
  165SAPS   H9Y18653   4.472   1.397   5.184 -0.2378  0.1014 -1.9674
  165SAPS  C31018654   4.382   1.556   5.087 -0.0293 -0.0997  0.0557
  165SAPS  H10X18655   4.351   1.663   5.094 -0.4247 -0.1082 -1.2475
  165SAPS  H10Y18656   4.288   1.503   5.062 -0.9943  0.3077  2.5260
  165SAPS  C31118657   4.473   1.541   4.970  0.6145 -0.2816  0.2921
  165SAPS  H11X18658   4.524   1.442   4.963  1.3722  0.0027  1.5065
  165SAPS  H11Y18659   4.564   1.603   4.985  0.8232 -0.7814  1.1272
  165SAPS  C31218660   4.403   1.559   4.841 -0.5109 -0.0115 -0.3061
  165SAPS  H12X18661   4.481   1.579   4.765  1.5991 -2.9975  0.8888
  165SAPS  H12Y18662   4.337   1.646   4.861 -0.8187 -0.2873 -0.0944
  165SAPS  C31318663   4.322   1.439   4.789  0.6324 -1.0328 -0.3158
  165SAPS  H13X18664   4.245   1.394   4.855  0.1217  0.6346  0.2747
  165SAPS  H13Y18665   4.405   1.365   4.792  1.7896  0.2768  1.0380
  165SAPS  C31418666   4.266   1.443   4.643 -0.3842  0.1109  0.1367
  165SAPS  H14X18667   4.347   1.489   4.582  0.0988 -2.9535 -1.7512
  165SAPS  H14Y18668   4.173   1.505   4.646  0.2953  1.1264  0.8199
  165SAPS  C31518669   4.243   1.304   4.583  0.1486  0.3243 -0.2094
  165SAPS  H15X18670   4.187   1.242   4.657  1.7508 -1.4710 -0.4242
  165SAPS  H15Y18671   4.331   1.237   4.572 -1.2973 -1.9865  1.2676
  165SAPS  C31618672   4.162   1.310   4.454 -0.4194 -0.5286  0.2304
  165SAPS  H16X18673   4.057   1.329   4.485 -0.9647 -1.5314 -0.9264
  165SAPS  H16Y18674   4.159   1.208   4.411  1.5643 -0.1673 -0.8611
  165SAPS  C31718675   4.192   1.419   4.345 -0.3248  0.1155 -0.4321
  165SAPS  H17X18676   4.275   1.378   4.284 -0.8947 -1.1114 -0.4074
  165SAPS  H17Y18677   4.236   1.506   4.397 -0.0474 -1.5337  2.2608
  165SAPS  C31818678   4.064   1.448   4.263  0.3566  0.1345  0.3730
  165SAPS  H18X18679   4.000   1.498   4.339  0.0078 -0.5715  0.5484
  165SAPS  H18Y18680   4.023   1.352   4.228  1.7318 -0.5835  0.6615
  165SAPS  H18Z18681   4.091   1.519   4.182  0.9972 -0.3950  0.1236
  166SAPS     N18682   5.360   1.460   6.428  0.0824 -0.3224 -0.4489
  166SAPS   HN118683   5.315   1.392   6.363 -1.5419  0.0155  0.2685
  166SAPS   HN218684   5.284   1.526   6.454  0.6232  0.0092  0.3115
  166SAPS   HN318685   5.427   1.521   6.376  0.7994  0.8051  1.6984
  166SAPS   C1218686   5.431   1.400   6.542 -0.7942 -0.3922 -0.4014
  166SAPS  H12A18687   5.531   1.374   6.515  0.5873  0.6820  3.0735
  166SAPS   C1318688   5.460   1.500   6.654  0.2498  0.1117 -0.3795
  166SAPS  O13A18689   5.449   1.626   6.641  0.0863 -0.0570  0.2243
  166SAPS  O13B18690   5.539   1.454   6.746  0.1125 -0.4598  1.1045
  166SAPS   C1118691   5.349   1.281   6.594 -1.5656 -0.5225 -0.9303
  166SAPS  H11A18692   5.247   1.317   6.617 -0.8886  0.6941  0.3539
  166SAPS  H11B18693   5.391   1.240   6.689 -0.2688 -1.2145 -1.7639
  166SAPS     P18694   5.404   1.042   6.517  0.0118 -0.3643 -0.1059
  166SAPS   O1318695   5.547   1.071   6.536 -0.0385 -0.0618 -0.1515
  166SAPS   O1418696   5.340   0.967   6.628  0.5140 -0.1385 -0.2195
  166SAPS   O1218697   5.325   1.175   6.497  0.2543  0.0075  0.0508
  166SAPS   O1118698   5.381   0.963   6.382  0.4793  0.6017  0.3854
  166SAPS    C118699   5.250   0.933   6.322 -0.8161 -0.6204  0.3614
  166SAPS    HA18700   5.246   0.829   6.283 -0.2454 -0.4625 -0.1304
  166SAPS    HB18701   5.165   0.943   6.393 -2.7576 -3.2343 -1.3943
  166SAPS    C218702   5.220   1.033   6.204  0.2087 -0.1903  0.7703
  166SAPS    HS18703   5.147   1.111   6.236 -0.8419  0.0016 -1.8832
  166SAPS   O2118704   5.162   0.967   6.086 -0.2063  0.0538 -0.5272
  166SAPS   C2118705   5.044   0.921   6.124  0.3097  0.1604 -0.4391
  166SAPS   O2218706   4.990   0.929   6.232  0.5089 -0.1299 -0.1256
  166SAPS   C2218707   4.971   0.846   6.006 -0.0435 -0.4406  0.7184
  166SAPS   H2R18708   5.061   0.807   5.954 -0.5289 -0.5311 -0.0718
  166SAPS   H2S18709   4.919   0.762   6.057 -1.5640  0.5085  0.7805
  166SAPS    C318710   5.348   1.106   6.157 -0.2406 -0.3277 -0.6175
  166SAPS    HX18711   5.405   1.024   6.109 -1.4755 -1.7911  0.3208
  166SAPS    HY18712   5.419   1.146   6.232  2.2543 -2.6977 -1.5726
  166SAPS   O3118713   5.324   1.194   6.048  0.1422 -0.2297  0.2288
  166SAPS   C3118714   5.293   1.314   6.087  0.3923  1.0057 -0.2344
  166SAPS   O3218715   5.269   1.344   6.200 -0.2379 -0.0924 -0.6440
  166SAPS   C3218716   5.309   1.417   5.973  0.6899 -0.2112 -0.0337
  166SAPS   H2X18717   5.415   1.450   5.962  0.7392 -0.9423 -2.1590
  166SAPS   H2Y18718   5.242   1.505   5.981 -0.8601 -1.3239 -0.3013
  166SAPS   C2318719   4.877   0.927   5.914  0.4642 -0.1096 -0.0952
  166SAPS   H3R18720   4.789   0.952   5.978  0.1197 -2.6584  0.5672
  166SAPS   H3S18721   4.833   0.867   5.831 -0.3405 -0.6732  0.7096
  166SAPS   C2418722   4.946   1.045   5.860 -0.2445 -0.2314 -0.1761
  166SAPS   H4R18723   4.960   1.114   5.946  0.5081  0.5711 -0.9164
  166SAPS   H4S18724   4.873   1.111   5.807  0.3043  0.6157  0.0984
  166SAPS   C2518725   5.073   1.028   5.783  1.2047 -0.1131  0.1405
  166SAPS   H5R18726   5.167   1.015   5.837  0.5179 -1.6139  1.0385
  166SAPS   C2618727   5.088   1.048   5.649 -0.5889 -0.6790  0.1726
  166SAPS   H6R18728   5.187   1.042   5.600  0.1616 -0.0771  1.5625
  166SAPS   C2718729   4.980   1.084   5.552 -0.2262 -0.2871 -0.5719
  166SAPS   H7R18730   5.028   1.149   5.476  2.3106 -0.2421  0.9529
  166SAPS   H7S18731   4.902   1.150   5.597  0.8534  0.9483 -0.4541
  166SAPS   C2818732   4.914   0.968   5.485 -0.3671  0.5351 -0.1380
  166SAPS   H8R18733   4.865   0.897   5.553 -2.5005  0.3383 -1.7744
  166SAPS   C2918734   4.896   0.938   5.361 -0.3139  0.4422 -0.0032
  166SAPS   H9R18735   4.848   0.842   5.336  0.6767 -0.2678  0.7292
  166SAPS  C21018736   4.942   1.009   5.241 -0.0801 -0.5201 -0.4594
  166SAPS  H10R18737   4.995   0.931   5.182  0.4703  0.5085 -1.3701
  166SAPS  H10S18738   5.024   1.081   5.266 -0.6543 -0.5625  1.6876
  166SAPS  C21118739   4.828   1.077   5.170 -0.0850  0.6896 -0.2547
  166SAPS  H11R18740   4.763   1.143   5.229  1.9798  0.5005  2.4419
  166SAPS  C21218741   4.808   1.077   5.034 -0.2604  0.0384 -0.1067
  166SAPS  H12R18742   4.717   1.124   4.992 -2.3096 -3.9186 -0.6251
  166SAPS  C21318743   4.876   0.980   4.945  0.2085 -0.4128 -0.1819
  166SAPS  H13R18744   4.803   0.901   4.919 -2.0582  0.4347  3.0130
  166SAPS  H13S18745   4.959   0.922   4.992  0.0760 -0.4248  0.0371
  166SAPS  C21418746   4.939   1.038   4.825  0.7997  0.1422 -0.5674
  166SAPS  H14R18747   4.977   1.142   4.822  0.1578  0.3830 -0.3898
  166SAPS  C21518748   4.949   0.958   4.717 -0.3094 -0.3860  0.0875
  166SAPS  H15R18749   4.983   1.005   4.623  0.4845  0.0196  0.5610
  166SAPS  C21618750   4.920   0.806   4.705 -0.0957 -0.3296  0.5868
  166SAPS  H16R18751   4.823   0.796   4.651  0.7089  0.2909 -1.0665
  166SAPS  H16S18752   4.904   0.748   4.797  1.6329  0.0089  1.1473
  166SAPS  C21718753   5.036   0.744   4.626 -0.1766  0.4792  0.1079
  166SAPS  H17R18754   5.133   0.759   4.677  0.0466  0.3438 -0.2776
  166SAPS  H17S18755   5.044   0.804   4.533 -0.0785  0.3889  0.0587
  166SAPS  C21818756   5.001   0.596   4.606 -0.1577  0.0832 -0.0324
  166SAPS  H18R18757   4.894   0.593   4.576 -0.8827 -0.2648  2.3934
  166SAPS  H18S18758   5.008   0.545   4.704  0.7328 -1.2730 -0.7581
  166SAPS  C21918759   5.093   0.523   4.506  0.1245 -0.9501 -0.3892
  166SAPS  H19R18760   5.195   0.565   4.523 -1.0186  1.5437  0.9342
  166SAPS  H19S18761   5.072   0.554   4.401  3.9411  0.2074 -0.9810
  166SAPS  C22018762   5.090   0.372   4.519  0.6315  0.6949 -0.3586
  166SAPS  H20R18763   5.089   0.339   4.625  3.7943 -2.3228 -1.0970
  166SAPS  H20S18764   5.184   0.324   4.485 -0.4541 -1.7039 -0.1476
  166SAPS  H20T18765   5.002   0.340   4.460  0.6348 -0.0916  0.0632
  166SAPS   C3318766   5.263   1.353   5.838 -0.0069  0.0424  0.1041
  166SAPS   H3X18767   5.158   1.319   5.849 -0.5933  1.5674 -0.6411
  166SAPS   H3Y18768   5.321   1.260   5.817  0.9473  0.7594 -0.5148
  166SAPS   C3418769   5.266   1.445   5.718 -0.5988 -0.9487  0.2551
  166SAPS   H4X18770   5.366   1.481   5.683 -1.2979 -0.8833 -1.8425
  166SAPS   H4Y18771   5.217   1.543   5.737  0.1947 -1.0471  3.1389
  166SAPS   C3518772   5.205   1.380   5.593 -0.1536  0.0246  0.2770
  166SAPS   H5X18773   5.096   1.377   5.613 -0.3716 -1.3013 -0.9058
  166SAPS   H5Y18774   5.252   1.280   5.581  1.4817  0.4874  2.2742
  166SAPS   C3618775   5.225   1.472   5.467  0.3955  0.4624  0.2767
  166SAPS   H6X18776   5.332   1.457   5.443  0.3738 -1.8895  1.3509
  166SAPS   H6Y18777   5.206   1.578   5.493  2.0282  0.3064  2.3667
  166SAPS   C3718778   5.145   1.416   5.346 -0.0832 -0.7784  0.6775
  166SAPS   H7X18779   5.147   1.305   5.347  2.2044 -0.9418 -2.6398
  166SAPS   H7Y18780   5.198   1.441   5.251 -0.4680  0.2261  0.7157
  166SAPS   C3818781   4.998   1.466   5.338 -0.1557 -0.4567 -1.4809
  166SAPS   H8X18782   4.978   1.575   5.350  0.2801 -0.3922 -1.3150
  166SAPS   H8Y18783   4.956   1.419   5.430  0.3864 -0.6191 -1.3102
  166SAPS   C3918784   4.922   1.399   5.219 -0.0898  0.4514  0.4019
  166SAPS   H9X18785   4.817   1.385   5.252 -0.4093  0.0935 -0.7251
  166SAPS   H9Y18786   4.968   1.299   5.209 -1.7029 -0.3771  0.8732
  166SAPS  C31018787   4.920   1.480   5.092  0.4992 -0.8409  0.4780
  166SAPS  H10X18788   5.024   1.511   5.068  0.0626 -0.4475 -1.0343
  166SAPS  H10Y18789   4.863   1.573   5.112  0.5198 -0.6395 -0.3581
  166SAPS  C31118790   4.853   1.414   4.968 -0.2167 -0.2545 -0.4293
  166SAPS  H11X18791   4.747   1.395   4.996 -2.0332  3.7286 -3.6118
  166SAPS  H11Y18792   4.908   1.321   4.943 -0.4800 -0.2824 -0.9211
  166SAPS  C31218793   4.851   1.505   4.843 -0.5596  0.2058 -0.1910
  166SAPS  H12X18794   4.939   1.572   4.854 -1.0695  0.7284  0.9074
  166SAPS  H12Y18795   4.762   1.572   4.840 -0.7470 -0.0820 -1.2395
  166SAPS  C31318796   4.863   1.425   4.718 -0.3108 -0.0680 -0.1189
  166SAPS  H13X18797   4.948   1.354   4.711  0.6133  0.9802  0.2099
  166SAPS  H13Y18798   4.877   1.494   4.632 -1.2460 -1.3040 -1.3206
  166SAPS  C31418799   4.737   1.344   4.685 -0.4741  0.2860 -0.1753
  166SAPS  H14X18800   4.656   1.420   4.684 -0.1249  0.7019  1.0653
  166SAPS  H14Y18801   4.718   1.266   4.762  2.6108  1.0098  1.4962
  166SAPS  C31518802   4.748   1.276   4.543 -0.6387 -0.2044 -0.2762
  166SAPS  H15X18803   4.848   1.228   4.531 -0.8935 -0.0728 -3.6951
  166SAPS  H15Y18804   4.742   1.355   4.465  0.5898 -0.9626 -1.1726
  166SAPS  C31618805   4.649   1.163   4.531  0.6826  0.1819  0.4502
  166SAPS  H16X18806   4.557   1.193   4.586  0.9117 -0.6537  1.3098
  166SAPS  H16Y18807   4.685   1.069   4.577 -1.4306 -0.8642  0.0898
  166SAPS  C31718808   4.612   1.132   4.381 -0.5014 -0.1460  0.0167
  166SAPS  H17X18809   4.701   1.079   4.341  0.5139  2.4769 -1.4587
  166SAPS  H17Y18810   4.603   1.229   4.328  0.7269  1.3679  2.3820
  166SAPS  C31818811   4.490   1.051   4.352  0.0198 -0.2024  0.2117
  166SAPS  H18X18812   4.488   0.996   4.256 -1.4313 -2.3094  1.3458
  166SAPS  H18Y18813   4.399   1.115   4.355  0.3948  0.4429 -1.4479
  166SAPS  H18Z18814   4.480   0.967   4.425 -0.7000 -1.4207 -1.2214
  167SAPS     N18815   6.666   3.255   7.136 -0.2348  0.2127 -0.1540
  167SAPS   HN118816   6.579   3.308   7.116  0.1096  0.4548 -1.0358
  167SAPS   HN218817   6.644   3.174   7.198 -0.5987  0.6357  0.2757
  167SAPS   HN318818   6.736   3.315   7.183  2.1385 -1.5066 -1.2547
  167SAPS   C1218819   6.734   3.219   7.011 -0.7968 -0.4075 -0.4581
  167SAPS  H12A18820   6.840   3.215   7.032 -0.4284  3.2293 -1.0162
  167SAPS   C1318821   6.688   3.080   6.962 -0.4180  0.1249  0.1169
  167SAPS  O13A18822   6.593   3.021   7.022  0.5367 -0.2974 -0.5740
  167SAPS  O13B18823   6.750   3.025   6.866  0.4625 -0.6370 -0.8448
  167SAPS   C1118824   6.709   3.329   6.900 -0.0021 -0.2852  0.4530
  167SAPS  H11A18825   6.600   3.318   6.887 -0.2705 -1.3747  3.0136
  167SAPS  H11B18826   6.771   3.291   6.815 -0.8892  0.3818 -0.5201
  167SAPS     P18827   6.866   3.543   6.902  0.4615 -0.0186 -0.2569
  167SAPS   O1318828   6.877   3.664   6.994  0.0865  0.2182  0.7036
  167SAPS   O1418829   6.988   3.463   6.883  0.3087  0.0008 -0.5893
  167SAPS   O1218830   6.741   3.456   6.948  0.2187  0.4312 -0.0557
  167SAPS   O1118831   6.816   3.589   6.769  0.0541  0.1782  0.3286
  167SAPS    C118832   6.750   3.525   6.658 -0.2494  0.0889  0.0348
  167SAPS    HA18833   6.794   3.423   6.658 -1.2354 -0.4207  2.5509
  167SAPS    HB18834   6.640   3.523   6.672 -0.0854  3.1633  3.3499
  167SAPS    C218835   6.790   3.601   6.536  0.3802  0.4529  0.3823
  167SAPS    HS18836   6.735   3.698   6.541 -0.0339  0.2483 -0.1493
  167SAPS   O2118837   6.752   3.515   6.421  0.1908  0.6840 -0.4100
  167SAPS   C2118838   6.647   3.564   6.346 -0.1922 -0.1745 -0.1538
  167SAPS   O2218839   6.591   3.665   6.373  0.2650 -0.8250 -0.6398
  167SAPS   C2218840   6.613   3.480   6.224  0.7704  0.0621  0.1043
  167SAPS   H2R18841   6.660   3.380   6.227  0.3577 -0.1156  0.7107
  167SAPS   H2S18842   6.504   3.459   6.232  0.3719  1.6736 -0.5993
  167SAPS    C318843   6.935   3.632   6.524  0.1051 -0.3419 -0.0034
  167SAPS    HX18844   6.999   3.541   6.519  3.0372  1.3934  2.2188
  167SAPS    HY18845   6.969   3.685   6.616 -1.4739  0.2776  0.2407
  167SAPS   O3118846   6.954   3.722   6.407 -0.6229 -0.1772 -0.0070
  167SAPS   C3118847   6.948   3.849   6.436 -0.4682  0.4614  0.9498
  167SAPS   O3218848   6.948   3.893   6.553  0.2399  0.0090  0.4610
  167SAPS   C3218849   6.937   3.928   6.304 -0.4848 -0.0173  0.2630
  167SAPS   H2X18850   6.980   3.862   6.225  0.2514  0.2398  0.4413
  167SAPS   H2Y18851   7.016   4.006   6.304  2.0555 -2.3874  1.7108
  167SAPS   C2318852   6.607   3.549   6.085 -0.0892  0.3762  0.7250
  167SAPS   H3R18853   6.709   3.565   6.046  0.1418  0.2462  1.2695
  167SAPS   H3S18854   6.560   3.649   6.099  1.2926  1.3585 -1.1920
  167SAPS   C2418855   6.532   3.466   5.979 -0.2077  0.1413 -0.4585
  167SAPS   H4R18856   6.509   3.540   5.900 -3.3614 -0.3980 -0.1579
  167SAPS   H4S18857   6.434   3.439   6.024  0.1301  0.7950  0.7241
  167SAPS   C2518858   6.595   3.340   5.929  0.7873 -0.4825  0.2998
  167SAPS   H5R18859   6.705   3.350   5.925  0.6133  2.7377  0.8134
  167SAPS   C2618860   6.530   3.238   5.876  0.6067  0.5851 -0.2543
  167SAPS   H6R18861   6.589   3.150   5.845  2.6395  1.3381  1.2687
  167SAPS   C2718862   6.376   3.217   5.878 -0.0566  0.5611  0.2282
  167SAPS   H7R18863   6.328   3.285   5.804 -1.4774 -1.7475 -1.0877
  167SAPS   H7S18864   6.342   3.252   5.978 -0.8056 -0.3499  0.3024
  167SAPS   C2818865   6.326   3.074   5.856 -0.0700  0.4185  0.3502
  167SAPS   H8R18866   6.332   3.012   5.947 -0.4048 -0.9706 -0.5416
  167SAPS   C2918867   6.273   3.030   5.740  0.4856  0.0795  0.0610
  167SAPS   H9R18868   6.254   2.922   5.737  0.3895  0.0777  0.6314
  167SAPS  C21018869   6.259   3.107   5.612 -0.2966 -0.0466  0.3916
  167SAPS  H10R18870   6.312   3.038   5.543  0.2698 -0.3668  1.1252
  167SAPS  H10S18871   6.301   3.210   5.616 -1.8436  0.5732  1.9495
  167SAPS  C21118872   6.118   3.111   5.555 -0.0205  0.4588  0.2294
  167SAPS  H11R18873   6.080   3.019   5.509  1.2716 -0.3884  0.8019
  167SAPS  C21218874   6.037   3.220   5.554 -0.5580 -0.4526 -0.1739
  167SAPS  H12R18875   5.940   3.210   5.504 -1.1356  1.3001  0.5195
  167SAPS  C21318876   6.061   3.355   5.622  0.0208  0.3944  0.2623
  167SAPS  H13R18877   6.008   3.434   5.563  0.6983  2.1987  1.9537
  167SAPS  H13S18878   6.168   3.384   5.621 -0.4767  2.4143 -0.4054
  167SAPS  C21418879   6.017   3.360   5.764 -0.2878 -0.0779  0.5071
  167SAPS  H14R18880   6.017   3.267   5.823 -0.2940  1.9750  4.0631
  167SAPS  C21518881   5.989   3.479   5.823 -0.1382 -0.5407  0.2033
  167SAPS  H15R18882   5.949   3.483   5.925 -3.0975 -1.6399 -0.7938
  167SAPS  C21618883   5.992   3.614   5.756 -0.5646 -0.5500 -0.3190
  167SAPS  H16R18884   5.901   3.670   5.787 -0.3786 -0.2267 -0.3532
  167SAPS  H16S18885   5.969   3.601   5.648  0.2225 -2.6953 -0.2616
  167SAPS  C21718886   6.122   3.697   5.758 -0.1436  0.1227  0.2906
  167SAPS  H17R18887   6.105   3.779   5.685 -2.5043 -0.6085 -0.0729
  167SAPS  H17S18888   6.195   3.641   5.696 -1.5942  0.9098 -2.2859
  167SAPS  C21818889   6.167   3.743   5.889  0.6347 -0.3604  0.4971
  167SAPS  H18R18890   6.180   3.655   5.956 -1.6462 -0.1798  1.2438
  167SAPS  H18S18891   6.083   3.802   5.931 -0.3248  0.1246 -1.9352
  167SAPS  C21918892   6.296   3.828   5.864  0.1834  0.2413  0.4280
  167SAPS  H19R18893   6.291   3.904   5.783  4.1809 -1.0535 -1.3265
  167SAPS  H19S18894   6.378   3.760   5.831  0.4335 -0.8693  3.1046
  167SAPS  C22018895   6.334   3.891   5.995 -0.2539  0.2045  0.2063
  167SAPS  H20R18896   6.254   3.950   6.045 -0.0184  0.1395  0.6572
  167SAPS  H20S18897   6.420   3.959   5.979  1.1190 -1.7484 -1.1501
  167SAPS  H20T18898   6.374   3.816   6.066  1.7231  1.0788  0.0869
  167SAPS   C3318899   6.799   3.970   6.261 -0.1229 -0.3470  0.5006
  167SAPS   H3X18900   6.784   4.079   6.247  0.8600 -0.3565 -0.7477
  167SAPS   H3Y18901   6.726   3.941   6.340 -0.9356  3.0813  1.1967
  167SAPS   C3418902   6.751   3.910   6.126 -0.6815  0.0628  0.2052
  167SAPS   H4X18903   6.643   3.932   6.114 -0.6505 -0.1410 -0.4679
  167SAPS   H4Y18904   6.763   3.800   6.140  0.5069  0.2410  0.6923
  167SAPS   C3518905   6.831   3.957   6.003 -0.5819 -0.4526 -1.1357
  167SAPS   H5X18906   6.938   3.948   6.031 -0.7962  2.7880  1.2597
  167SAPS   H5Y18907   6.801   4.063   5.989 -2.3171 -0.5160  1.4661
  167SAPS   C3618908   6.794   3.871   5.883 -0.3734  0.4620  0.4228
  167SAPS   H6X18909   6.688   3.896   5.864 -1.0615 -1.9689  0.6964
  167SAPS   H6Y18910   6.793   3.764   5.913 -0.5223  0.2570 -0.3035
  167SAPS   C3718911   6.879   3.893   5.752 -0.4565  0.7477  0.5903
  167SAPS   H7X18912   6.984   3.902   5.785 -0.2509  0.8280 -0.0708
  167SAPS   H7Y18913   6.858   3.994   5.709 -1.4190  0.3206  0.0139
  167SAPS   C3818914   6.840   3.789   5.647  0.5700  0.6704  0.5607
  167SAPS   H8X18915   6.731   3.776   5.633  0.9150 -0.2456 -1.8451
  167SAPS   H8Y18916   6.886   3.689   5.665  0.2827  0.6274  1.0479
  167SAPS   C3918917   6.910   3.834   5.516 -0.1149  0.3067  0.3373
  167SAPS   H9X18918   7.014   3.872   5.530 -0.0223  1.1054 -2.0738
  167SAPS   H9Y18919   6.857   3.927   5.485  0.7031  0.5210 -0.4743
  167SAPS  C31018920   6.908   3.731   5.404 -0.2740  1.1756  0.1088
  167SAPS  H10X18921   6.800   3.709   5.387  0.3132 -0.6588 -1.5333
  167SAPS  H10Y18922   6.961   3.642   5.444  1.3033  1.8666 -0.3729
  167SAPS  C31118923   6.964   3.767   5.267  0.4495  0.0625 -0.0159
  167SAPS  H11X18924   7.074   3.782   5.273  0.4685 -0.5375  1.6429
  167SAPS  H11Y18925   6.918   3.861   5.231  1.1587 -0.2199 -1.7856
  167SAPS  C31218926   6.936   3.655   5.161 -0.2565 -0.1176 -0.1082
  167SAPS  H12X18927   6.827   3.634   5.161 -0.3933  0.0384  3.2389
  167SAPS  H12Y18928   6.996   3.563   5.183 -1.7736 -1.7015 -2.1753
  167SAPS  C31318929   6.981   3.690   5.023 -0.2052 -0.5854  1.3034
  167SAPS  H13X18930   7.092   3.689   5.026  0.0370  1.8133 -1.3838
  167SAPS  H13Y18931   6.932   3.786   4.996 -0.3813 -1.2140 -0.7891
  167SAPS  C31418932   6.934   3.581   4.923  0.2635  0.1168 -0.8855
  167SAPS  H14X18933   6.835   3.549   4.961  0.6877 -0.4552 -0.2338
  167SAPS  H14Y18934   6.990   3.486   4.929 -1.7806 -1.2000 -1.5998
  167SAPS  C31518935   6.918   3.625   4.777 -0.3273  0.2925 -0.5811
  167SAPS  H15X18936   6.858   3.718   4.782  1.7359  1.6445  2.0903
  167SAPS  H15Y18937   6.863   3.543   4.726  0.7456 -0.7196 -0.1757
  167SAPS  C31618938   7.056   3.654   4.722  0.1650  0.7441 -0.5686
  167SAPS  H16X18939   7.085   3.579   4.645  0.9315  1.2944 -0.8309
  167SAPS  H16Y18940   7.134   3.639   4.799 -1.0081 -1.3357  0.3221
  167SAPS  C31718941   7.074   3.790   4.647 -0.1015  0.1598 -0.1305
  167SAPS  H17X18942   7.048   3.874   4.714  0.4770  0.8834 -0.7950
  167SAPS  H17Y18943   6.995   3.791   4.569 -0.5450 -0.9550  0.2781
  167SAPS  C31818944   7.206   3.811   4.588 -0.0495  0.1265 -0.5835
  167SAPS  H18X18945   7.210   3.890   4.511 -0.0734  0.6688 -0.0420
  167SAPS  H18Y18946   7.234   3.717   4.536 -0.6734  0.3118 -1.2683
  167SAPS  H18Z18947   7.292   3.834   4.656  0.6558  0.3901 -1.5408
  168SAPS     N18948   4.193   2.859   6.686 -0.7450  0.4936  0.1757
  168SAPS   HN118949   4.249   2.848   6.599  1.2113 -1.7715  1.5787
  168SAPS   HN218950   4.113   2.793   6.677 -0.7508  0.4456  0.5374
  168SAPS   HN318951   4.156   2.955   6.696  1.2160  1.3533 -0.4066
  168SAPS   C1218952   4.290   2.825   6.791 -0.0028 -0.1207 -0.0446
  168SAPS  H12A18953   4.388   2.818   6.744 -0.0314 -0.2821 -0.0805
  168SAPS   C1318954   4.290   2.920   6.918  0.1146 -0.2978  0.3095
  168SAPS  O13A18955   4.209   3.017   6.925 -0.1677  0.1341  0.3494
  168SAPS  O13B18956   4.385   2.916   6.991  0.1623 -0.2915 -0.0332
  168SAPS   C1118957   4.256   2.677   6.834 -0.5979 -0.0071  0.4152
  168SAPS  H11A18958   4.158   2.664   6.885 -1.4312 -1.3712 -1.4452
  168SAPS  H11B18959   4.343   2.646   6.896 -1.8743  0.2873  2.4384
  168SAPS     P18960   4.244   2.439   6.741  0.3606 -0.0948 -0.3653
  168SAPS   O1318961   4.370   2.386   6.802  0.1837  0.1794 -0.0780
  168SAPS   O1418962   4.113   2.407   6.807 -0.0626 -0.3006  0.2203
  168SAPS   O1218963   4.251   2.594   6.721  0.2964 -0.2237  0.3765
  168SAPS   O1118964   4.235   2.386   6.593  0.2031  0.3060  0.2501
  168SAPS    C118965   4.120   2.396   6.511 -0.0162 -0.1211 -0.9781
  168SAPS    HA18966   4.028   2.432   6.561  0.2823  1.1100 -1.2861
  168SAPS    HB18967   4.132   2.468   6.427  0.6698  0.5902 -0.2850
  168SAPS    C218968   4.077   2.257   6.448 -0.4351 -0.1345 -0.2116
  168SAPS    HS18969   4.050   2.186   6.529  1.2822  0.2830  0.7844
  168SAPS   O2118970   4.204   2.212   6.400 -0.2468 -0.4444 -0.2023
  168SAPS   C2118971   4.217   2.121   6.313 -0.4151  0.2376 -0.0399
  168SAPS   O2218972   4.130   2.037   6.286  0.1566 -0.5966 -0.2782
  168SAPS   C2218973   4.367   2.108   6.272 -0.0751 -0.4144 -0.0227
  168SAPS   H2R18974   4.414   2.203   6.305 -0.8181  0.2773 -0.9115
  168SAPS   H2S18975   4.421   2.024   6.321  1.0523  0.5849  0.5108
  168SAPS    C318976   3.962   2.261   6.339  0.0595 -0.6219 -0.5745
  168SAPS    HX18977   3.868   2.294   6.387  0.7138  0.9502 -0.3103
  168SAPS    HY18978   3.953   2.157   6.300  1.5346 -0.8243 -0.4436
  168SAPS   O3118979   3.985   2.358   6.233  0.0715 -0.0206  0.6525
  168SAPS   C3118980   3.907   2.326   6.125 -0.3238 -0.2094  0.3931
  168SAPS   O3218981   3.829   2.231   6.118 -0.3007 -0.3618  0.0768
  168SAPS   C3218982   3.940   2.425   6.020  0.0572 -0.7214  0.1283
  168SAPS   H2X18983   4.038   2.471   6.041  0.2122 -0.8764 -0.2397
  168SAPS   H2Y18984   3.866   2.503   6.047  1.4198  0.0847  1.6494
  168SAPS   C2318985   4.380   2.090   6.118  1.3178  0.1668 -0.1274
  168SAPS   H3R18986   4.351   1.988   6.086  2.1047 -1.3198  3.4003
  168SAPS   H3S18987   4.484   2.108   6.084  1.9567  0.8541  2.0216
  168SAPS   C2418988   4.291   2.188   6.030 -0.1379  0.0566 -0.4425
  168SAPS   H4R18989   4.184   2.168   6.052  0.1671 -2.3585 -0.8535
  168SAPS   H4S18990   4.314   2.162   5.925 -1.5981 -0.1082 -0.7382
  168SAPS   C2518991   4.315   2.329   6.056 -0.7849 -0.3945  0.1155
  168SAPS   H5R18992   4.319   2.361   6.161  0.1471 -0.0580 -0.0132
  168SAPS   C2618993   4.331   2.422   5.954 -0.0189  0.8635  0.0606
  168SAPS   H6R18994   4.331   2.528   5.984 -0.1256  0.4154  1.7671
  168SAPS   C2718995   4.337   2.398   5.805 -0.3222  0.0685 -0.2929
  168SAPS   H7R18996   4.302   2.484   5.743 -0.1326 -0.5907 -1.3370
  168SAPS   H7S18997   4.264   2.318   5.780  0.0384  0.3191 -2.3149
  168SAPS   C2818998   4.470   2.340   5.757  0.3365 -0.0464  0.1076
  168SAPS   H8R18999   4.538   2.301   5.834  0.3932 -0.1622 -0.0015
  168SAPS   C2919000   4.504   2.337   5.628  0.1856 -0.5877  0.2128
  168SAPS   H9R19001   4.595   2.280   5.603 -0.0757 -0.9370  0.0408
  168SAPS  C21019002   4.421   2.396   5.516 -0.0265  0.1802  0.0343
  168SAPS  H10R19003   4.447   2.504   5.513  1.3784 -0.1235  0.3261
  168SAPS  H10S19004   4.314   2.397   5.544 -0.1640 -1.3174 -0.3848
  168SAPS  C21119005   4.447   2.344   5.375  0.3462  0.5965 -0.2147
  168SAPS  H11R19006   4.525   2.395   5.317  0.3608  0.7356 -0.0749
  168SAPS  C21219007   4.386   2.233   5.319  0.4322 -0.6808  0.2203
  168SAPS  H12R19008   4.422   2.202   5.220 -0.6566 -1.4078  0.0271
  168SAPS  C21319009   4.294   2.139   5.397 -0.4276  0.8391  0.1810
  168SAPS  H13R19010   4.186   2.165   5.389 -1.6103 -3.6537 -1.1869
  168SAPS  H13S19011   4.319   2.139   5.506  1.1084 -1.5850 -0.0927
  168SAPS  C21419012   4.318   1.999   5.352  0.3155 -0.4580  0.3966
  168SAPS  H14R19013   4.344   1.981   5.247  1.0018 -1.2197  0.6880
  168SAPS  C21519014   4.305   1.892   5.425 -0.4885 -0.6323 -0.0658
  168SAPS  H15R19015   4.317   1.794   5.376  0.0234 -0.7091  0.2008
  168SAPS  C21619016   4.261   1.875   5.570 -0.0343  0.4991 -0.4273
  168SAPS  H16R19017   4.155   1.841   5.574  0.2950 -0.4736  1.0531
  168SAPS  H16S19018   4.264   1.964   5.636 -1.9863 -0.6218  1.3067
  168SAPS  C21719019   4.348   1.771   5.645 -0.9663  0.9808 -0.3234
  168SAPS  H17R19020   4.454   1.803   5.636 -0.3823 -1.0999 -1.6496
  168SAPS  H17S19021   4.328   1.669   5.606  0.4779  0.5798 -0.0713
  168SAPS  C21819022   4.308   1.783   5.788  0.0005  0.4746 -1.0334
  168SAPS  H18R19023   4.203   1.748   5.793 -0.6651  2.4008 -0.2077
  168SAPS  H18S19024   4.313   1.886   5.831 -2.4537  0.2772 -0.1265
  168SAPS  C21919025   4.394   1.691   5.878  0.0214 -0.4298 -0.5726
  168SAPS  H19R19026   4.380   1.584   5.850  0.2689 -1.0965  1.6298
  168SAPS  H19S19027   4.351   1.687   5.980  0.5504 -1.3038 -0.3694
  168SAPS  C22019028   4.542   1.724   5.879  0.6161 -0.2561  0.0816
  168SAPS  H20R19029   4.599   1.642   5.926 -3.0538 -2.6003  0.8639
  168SAPS  H20S19030   4.563   1.825   5.921 -1.6629  0.0961  0.5443
  168SAPS  H20T19031   4.574   1.722   5.773 -1.6059 -1.2362 -0.6301
  168SAPS   C3319032   3.942   2.360   5.885  0.4345 -0.2115  0.1006
  168SAPS   H3X19033   3.837   2.325   5.870 -1.1310  2.8608  2.7701
  168SAPS   H3Y19034   4.021   2.283   5.870  1.5692  0.9626 -0.0873
  168SAPS   C3419035   3.968   2.474   5.779  0.2491  0.8363  0.0247
  168SAPS   H4X19036   4.072   2.513   5.782  0.7247 -0.0339 -2.5891
  168SAPS   H4Y19037   3.897   2.557   5.795  0.6465  1.4615 -1.2911
  168SAPS   C3519038   3.945   2.413   5.634  0.6580  0.5979 -0.3289
  168SAPS   H5X19039   3.838   2.382   5.633  0.9692 -0.6278  1.0841
  168SAPS   H5Y19040   4.014   2.331   5.605  0.4554  0.7184 -1.1763
  168SAPS   C3619041   3.966   2.518   5.533  0.3696 -0.2958  0.8438
  168SAPS   H6X19042   4.067   2.561   5.550  0.4727 -0.6576  1.1493
  168SAPS   H6Y19043   3.898   2.605   5.547  0.4420 -0.1896  0.5511
  168SAPS   C3719044   3.969   2.466   5.388  0.0585 -0.2608  0.1818
  168SAPS   H7X19045   3.865   2.435   5.365  0.6747 -1.8116 -0.6222
  168SAPS   H7Y19046   4.031   2.377   5.368  3.1770  2.4646 -4.2894
  168SAPS   C3819047   3.989   2.586   5.301  0.1144  0.4247 -0.2714
  168SAPS   H8X19048   4.090   2.629   5.318  1.2148 -1.2335 -2.2584
  168SAPS   H8Y19049   3.914   2.666   5.320 -2.8274 -2.1700 -0.1762
  168SAPS   C3919050   3.985   2.547   5.154  0.1321  0.5673 -0.3624
  168SAPS   H9X19051   3.875   2.537   5.138 -0.2648  1.6554  1.4203
  168SAPS   H9Y19052   4.023   2.443   5.144 -0.9192  0.2409 -1.1819
  168SAPS  C31019053   4.052   2.644   5.063  0.4174  0.0227  0.7390
  168SAPS  H10X19054   4.162   2.633   5.072  0.2115 -1.5942  1.5392
  168SAPS  H10Y19055   4.024   2.749   5.086 -0.7498 -0.2089  0.4378
  168SAPS  C31119056   4.016   2.604   4.918 -0.0790  0.6179 -0.7843
  168SAPS  H11X19057   3.919   2.650   4.888  0.3413  1.4115 -0.9646
  168SAPS  H11Y19058   3.996   2.495   4.922 -1.3232  0.8526  1.4702
  168SAPS  C31219059   4.128   2.638   4.812  0.2037 -0.0294 -0.0823
  168SAPS  H12X19060   4.117   2.596   4.710  1.4233 -0.4243 -0.0779
  168SAPS  H12Y19061   4.224   2.592   4.845  0.2819  0.1036 -0.1230
  168SAPS  C31319062   4.148   2.788   4.782  0.0505  0.1583  0.2198
  168SAPS  H13X19063   4.179   2.845   4.873  0.1839 -0.3996  0.5273
  168SAPS  H13Y19064   4.043   2.818   4.761 -1.4166 -2.5790  2.8480
  168SAPS  C31419065   4.241   2.823   4.667 -0.0114  0.7603 -0.3493
  168SAPS  H14X19066   4.282   2.728   4.626 -1.0522 -0.4884  1.3857
  168SAPS  H14Y19067   4.324   2.880   4.713 -1.1295  0.8749  1.5935
  168SAPS  C31519068   4.195   2.912   4.554  0.2315 -0.1092 -0.3151
  168SAPS  H15X19069   4.280   2.943   4.489  0.2513 -2.9190 -1.7633
  168SAPS  H15Y19070   4.146   3.000   4.602 -1.2094 -0.7817 -0.4921
  168SAPS  C31619071   4.083   2.858   4.466 -0.2805 -0.1463  0.2269
  168SAPS  H16X19072   3.996   2.845   4.534  1.0352 -0.5630  1.9017
  168SAPS  H16Y19073   4.118   2.755   4.440 -0.2800 -0.5525  1.7649
  168SAPS  C31719074   4.057   2.948   4.342  1.2826 -0.3690 -0.1559
  168SAPS  H17X19075   4.150   2.951   4.281  0.0589 -4.4556 -2.5853
  168SAPS  H17Y19076   4.024   3.048   4.378 -0.3693 -1.0448  0.2993
  168SAPS  C31819077   3.938   2.886   4.266  0.6458  0.3027  0.3265
  168SAPS  H18X19078   3.974   2.801   4.205  2.3278  2.5459 -2.0735
  168SAPS  H18Y19079   3.887   2.952   4.193 -0.0972 -0.1359  0.4510
  168SAPS  H18Z19080   3.860   2.850   4.336  1.0090 -0.8976  0.1216
  169SAPS     N19081   1.681   4.776   6.479 -0.5825 -0.2277 -0.6294
  169SAPS   HN119082   1.785   4.776   6.487 -0.6796 -0.3687  0.9393
  169SAPS   HN219083   1.650   4.696   6.421 -2.7861  0.4723 -0.5196
  169SAPS   HN319084   1.662   4.859   6.419 -0.2526 -0.6869 -1.3789
  169SAPS   C1219085   1.616   4.795   6.613  0.1026 -0.3237  0.9167
  169SAPS  H12A19086   1.678   4.748   6.688  0.0555  0.6313  1.5696
  169SAPS   C1319087   1.611   4.937   6.663 -0.7834 -0.1281 -0.6400
  169SAPS  O13A19088   1.660   5.025   6.587 -0.0174  0.1912  0.2571
  169SAPS  O13B19089   1.570   4.972   6.773  0.2680 -0.6179 -0.0828
  169SAPS   C1119090   1.469   4.744   6.597  0.3617 -0.2290 -0.6784
  169SAPS  H11A19091   1.403   4.807   6.533 -0.2433  0.6680  0.7782
  169SAPS  H11B19092   1.428   4.751   6.700 -0.8716  0.5469 -1.1997
  169SAPS     P19093   1.456   4.480   6.628 -0.2118 -0.8720 -0.3636
  169SAPS   O1319094   1.579   4.483   6.710 -0.3159  0.0544 -0.7394
  169SAPS   O1419095   1.335   4.476   6.704  0.5895  0.0684  0.2447
  169SAPS   O1219096   1.460   4.614   6.542  0.0918  0.0511  0.9079
  169SAPS   O1119097   1.465   4.366   6.528  0.2031  0.2593  0.1638
  169SAPS    C119098   1.400   4.372   6.398  0.7430  0.1900 -0.9722
  169SAPS    HA19099   1.381   4.264   6.377 -0.7758 -0.1919  1.8190
  169SAPS    HB19100   1.305   4.431   6.398  1.8723  2.0813 -0.5701
  169SAPS    C219101   1.493   4.410   6.282 -0.8853  0.6407  0.4213
  169SAPS    HS19102   1.504   4.521   6.283  2.9525  0.5150  4.1072
  169SAPS   O2119103   1.445   4.358   6.154  0.3235  0.2000 -0.0297
  169SAPS   C2119104   1.351   4.425   6.088 -0.4047 -0.6077 -0.6247
  169SAPS   O2219105   1.317   4.542   6.114  0.8703  0.1560 -0.1899
  169SAPS   C2219106   1.293   4.349   5.969  0.6988  0.1608 -0.0409
  169SAPS   H2R19107   1.344   4.250   5.967  0.2521 -0.0616 -0.5747
  169SAPS   H2S19108   1.185   4.329   5.985  0.8226 -1.1039 -0.6575
  169SAPS    C319109   1.639   4.353   6.310 -0.2207  0.4784  0.2085
  169SAPS    HX19110   1.612   4.245   6.305 -2.7995  1.1064 -1.7199
  169SAPS    HY19111   1.673   4.395   6.406 -0.1492  3.4852 -1.0353
  169SAPS   O3119112   1.736   4.381   6.197  0.7708 -0.4034  0.0638
  169SAPS   C3119113   1.762   4.513   6.208  0.1888  0.6957  0.6927
  169SAPS   O3219114   1.711   4.591   6.286 -0.4961  0.0386 -0.2455
  169SAPS   C3219115   1.864   4.548   6.096 -0.0226 -0.4746  0.8552
  169SAPS   H2X19116   1.942   4.471   6.108  0.5022 -0.2380 -0.8169
  169SAPS   H2Y19117   1.904   4.652   6.106 -0.3053 -0.1368 -1.2067
  169SAPS   C2319118   1.302   4.423   5.827  0.3102 -0.3490 -0.2414
  169SAPS   H3R19119   1.393   4.486   5.822 -0.6669  1.2529  1.1009
  169SAPS   H3S19120   1.217   4.495   5.822  1.6516  1.1955 -2.6902
  169SAPS   C2419121   1.313   4.324   5.709  0.3702 -0.0901  0.4622
  169SAPS   H4R19122   1.226   4.256   5.713  0.9648 -0.7979  2.5996
  169SAPS   H4S19123   1.404   4.263   5.730  1.9330  1.2328 -1.9533
  169SAPS   C2519124   1.338   4.391   5.579  0.3921 -0.0781 -0.4525
  169SAPS   H5R19125   1.419   4.465   5.588  0.3105 -0.0435  0.0537
  169SAPS   C2619126   1.266   4.384   5.467 -0.8579 -0.0009  1.1134
  169SAPS   H6R19127   1.297   4.451   5.386 -0.2393 -1.5708 -0.0031
  169SAPS   C2719128   1.139   4.309   5.450  0.0978  0.9459  0.3478
  169SAPS   H7R19129   1.082   4.289   5.543  3.0609 -1.4608  1.8513
  169SAPS   H7S19130   1.167   4.208   5.412 -1.8319  0.8737 -1.0469
  169SAPS   C2819131   1.059   4.379   5.345 -0.2076  0.1513 -0.0630
  169SAPS   H8R19132   1.038   4.485   5.365 -1.8234 -0.2036  0.2717
  169SAPS   C2919133   1.028   4.333   5.224 -0.3075  0.0680 -0.1078
  169SAPS   H9R19134   0.969   4.396   5.155 -0.1449 -1.3797 -1.6270
  169SAPS  C21019135   1.050   4.188   5.180  0.6135 -0.0088  0.6085
  169SAPS  H10R19136   0.980   4.180   5.095 -0.2999  1.5351  1.1637
  169SAPS  H10S19137   1.024   4.119   5.263 -0.7345  0.3292  0.4861
  169SAPS  C21119138   1.195   4.165   5.135 -1.2450  0.2940  0.9517
  169SAPS  H11R19139   1.281   4.188   5.199  0.0117 -0.2810 -0.4686
  169SAPS  C21219140   1.232   4.108   5.012  0.5055 -0.2917 -0.3031
  169SAPS  H12R19141   1.337   4.089   4.988  0.1679 -3.6557  0.3661
  169SAPS  C21319142   1.146   4.063   4.898  0.1663  0.5835 -0.8063
  169SAPS  H13R19143   1.038   4.079   4.917  0.2500 -0.6631  0.9451
  169SAPS  H13S19144   1.143   3.953   4.906 -0.7398  0.6310 -0.3335
  169SAPS  C21419145   1.191   4.101   4.765  0.3490 -0.0918 -0.5594
  169SAPS  H14R19146   1.285   4.157   4.770  1.2153 -1.5889  1.7848
  169SAPS  C21519147   1.124   4.087   4.649 -0.5108 -0.5072 -0.2839
  169SAPS  H15R19148   1.168   4.121   4.554  1.2447 -1.8467  0.0061
  169SAPS  C21619149   1.001   3.992   4.635  0.3545  0.9085  0.1374
  169SAPS  H16R19150   0.933   4.041   4.563 -0.0905  1.3528  0.8487
  169SAPS  H16S19151   0.955   3.981   4.736 -0.3587 -0.3968 -0.3093
  169SAPS  C21719152   1.034   3.856   4.569  0.2944  0.7107  0.4667
  169SAPS  H17R19153   1.069   3.789   4.650  0.1090  1.9995  1.6408
  169SAPS  H17S19154   1.121   3.876   4.502  0.6954 -0.9663  0.4535
  169SAPS  C21819155   0.921   3.798   4.488  0.1387  0.5129  0.0568
  169SAPS  H18R19156   0.966   3.725   4.417 -1.3639 -0.0710 -0.3398
  169SAPS  H18S19157   0.878   3.870   4.414  1.6414  1.0251 -0.3506
  169SAPS  C21919158   0.825   3.715   4.574  0.0328  0.8772  0.1036
  169SAPS  H19R19159   0.753   3.775   4.632 -0.8688 -0.1079  0.0385
  169SAPS  H19S19160   0.890   3.658   4.644  1.4559  0.0250 -1.8075
  169SAPS  C22019161   0.744   3.618   4.491 -0.0697  0.5734 -0.0793
  169SAPS  H20R19162   0.676   3.552   4.549  1.4125 -0.2932  0.7217
  169SAPS  H20S19163   0.818   3.555   4.437 -0.9448 -0.5820  0.0297
  169SAPS  H20T19164   0.684   3.668   4.412  0.4568  0.1667 -0.7524
  169SAPS   C3319165   1.798   4.518   5.961  0.7875 -0.3488  0.0787
  169SAPS   H3X19166   1.702   4.574   5.962  0.3089 -1.1600  1.0607
  169SAPS   H3Y19167   1.768   4.413   5.944 -0.6217 -0.0525  0.5860
  169SAPS   C3419168   1.877   4.577   5.845  0.0074 -0.1992 -0.1747
  169SAPS   H4X19169   1.977   4.528   5.842  0.6827  1.1295  0.0608
  169SAPS   H4Y19170   1.898   4.682   5.875  1.2466 -0.1910 -1.0295
  169SAPS   C3519171   1.800   4.575   5.723  0.0087  0.4156  0.9349
  169SAPS   H5X19172   1.706   4.632   5.737  1.7796  4.1181 -0.6526
  169SAPS   H5Y19173   1.785   4.467   5.702 -0.4211  0.2653  1.9681
  169SAPS   C3619174   1.864   4.635   5.604  0.2004 -0.2251 -0.0382
  169SAPS   H6X19175   1.969   4.601   5.596  0.3516  0.4973 -1.3655
  169SAPS   H6Y19176   1.857   4.746   5.604  3.8999  0.1260  0.3909
  169SAPS   C3719177   1.807   4.597   5.470 -0.2652 -0.2689 -0.0194
  169SAPS   H7X19178   1.699   4.623   5.467  0.0565  1.1898  0.2017
  169SAPS   H7Y19179   1.825   4.488   5.461  0.6710 -0.0433 -1.1130
  169SAPS   C3819180   1.868   4.667   5.353  0.2245  0.5197  0.0124
  169SAPS   H8X19181   1.975   4.638   5.359  0.1442 -0.2255 -1.6442
  169SAPS   H8Y19182   1.853   4.776   5.335 -0.8424  0.2232 -1.0562
  169SAPS   C3919183   1.808   4.616   5.222 -1.2620 -0.4837 -0.4792
  169SAPS   H9X19184   1.713   4.668   5.199 -1.6144 -0.5745  0.6872
  169SAPS   H9Y19185   1.782   4.508   5.220 -0.4158 -0.6834 -0.7336
  169SAPS  C31019186   1.895   4.647   5.099 -0.4594 -0.2014 -0.3195
  169SAPS  H10X19187   1.992   4.599   5.124 -0.9610 -1.1417 -0.1162
  169SAPS  H10Y19188   1.909   4.757   5.090  1.1182 -0.3707 -0.3126
  169SAPS  C31119189   1.834   4.581   4.975 -0.6633 -0.8699  0.0576
  169SAPS  H11X19190   1.739   4.623   4.936  1.8840  3.2261 -2.5069
  169SAPS  H11Y19191   1.825   4.472   4.995  0.2994 -0.8779  0.4902
  169SAPS  C31219192   1.928   4.598   4.861 -0.5209 -0.1006 -0.0280
  169SAPS  H12X19193   2.037   4.585   4.878 -0.4662 -0.0196 -0.3104
  169SAPS  H12Y19194   1.929   4.704   4.826 -0.8089 -0.3261 -0.7237
  169SAPS  C31319195   1.881   4.523   4.731 -0.4069 -0.0709  0.8892
  169SAPS  H13X19196   1.777   4.560   4.718  0.2981  1.8989  0.5015
  169SAPS  H13Y19197   1.879   4.416   4.763  0.3626  0.2628  2.1020
  169SAPS  C31419198   1.957   4.551   4.599  0.0655  1.1650  0.2930
  169SAPS  H14X19199   1.998   4.654   4.606  1.3760  0.5690  2.2562
  169SAPS  H14Y19200   1.892   4.545   4.509  1.6273 -1.1657 -0.7560
  169SAPS  C31519201   2.072   4.452   4.579 -0.3957  0.2861 -0.5639
  169SAPS  H15X19202   2.031   4.350   4.590  2.4452 -0.8093  1.0288
  169SAPS  H15Y19203   2.156   4.466   4.652 -1.3603 -1.7694  1.0443
  169SAPS  C31619204   2.118   4.470   4.438 -0.0314 -0.1671  0.0694
  169SAPS  H16X19205   2.174   4.565   4.425 -0.5423  0.1936  0.4608
  169SAPS  H16Y19206   2.031   4.471   4.369 -0.1245  0.8907  0.1941
  169SAPS  C31719207   2.214   4.347   4.388  0.3373 -0.7909 -0.3434
  169SAPS  H17X19208   2.147   4.259   4.397  1.2167 -1.5974 -1.3357
  169SAPS  H17Y19209   2.291   4.343   4.467 -1.8582 -1.3476  1.8719
  169SAPS  C31819210   2.283   4.348   4.256  0.1693  0.2475  0.6873
  169SAPS  H18X19211   2.205   4.334   4.178  0.3216  0.0749  0.5674
  169SAPS  H18Y19212   2.359   4.268   4.247  0.2024  0.4553 -1.3571
  169SAPS  H18Z19213   2.333   4.446   4.249 -1.3534  0.9550 -1.0338
  170SAPS     N19214   0.836   3.611   7.080  0.2320  0.3988  0.4689
  170SAPS   HN119215   0.939   3.604   7.070  0.1524  0.1003 -0.2247
  170SAPS   HN219216   0.789   3.685   7.023  0.2949  0.3592  0.3646
  170SAPS   HN319217   0.805   3.623   7.178  0.1641 -2.5817  0.9045
  170SAPS   C1219218   0.781   3.475   7.040  0.1559 -0.5408  0.2577
  170SAPS  H12A19219   0.810   3.402   7.114 -1.2472 -1.4074 -0.0019
  170SAPS   C1319220   0.620   3.470   7.034  0.2415  0.1302 -0.0943
  170SAPS  O13A19221   0.551   3.566   7.064  0.4054 -0.1206  0.4663
  170SAPS  O13B19222   0.566   3.355   7.035 -0.0193 -0.2515  0.6623
  170SAPS   C1119223   0.844   3.431   6.907 -0.2247 -0.2472 -0.2184
  170SAPS  H11A19224   0.805   3.494   6.824  1.3681  0.7487 -0.2471
  170SAPS  H11B19225   0.815   3.325   6.889 -0.3459 -0.1510 -0.5922
  170SAPS     P19226   1.073   3.311   6.948 -0.0750 -0.1214 -0.2569
  170SAPS   O1319227   1.210   3.357   6.971  0.4595 -0.4082  0.4370
  170SAPS   O1419228   1.003   3.230   7.051  0.1423  0.4362  0.8109
  170SAPS   O1219229   0.989   3.447   6.905  0.3350 -0.0886  0.2444
  170SAPS   O1119230   1.069   3.226   6.817 -0.0571 -0.0178 -0.2664
  170SAPS    C119231   1.107   3.281   6.697  0.1747 -0.1684  0.1850
  170SAPS    HA19232   1.157   3.380   6.709 -2.3264  1.6595 -2.8167
  170SAPS    HB19233   1.182   3.220   6.642 -0.5877 -0.0168 -1.0665
  170SAPS    C219234   0.992   3.282   6.593 -0.0863  0.1433 -0.0789
  170SAPS    HS19235   0.901   3.336   6.629  0.8462  1.4655  0.3596
  170SAPS   O2119236   0.953   3.147   6.556 -0.1320 -0.0655 -0.3627
  170SAPS   C2119237   0.828   3.109   6.532 -0.4765 -0.2312  0.9517
  170SAPS   O2219238   0.731   3.182   6.550 -0.4751  0.4021 -0.7975
  170SAPS   C2219239   0.821   2.966   6.478 -0.5693  0.5350 -0.1560
  170SAPS   H2R19240   0.917   2.910   6.480 -0.3693  0.8754  2.2862
  170SAPS   H2S19241   0.766   2.903   6.551  0.4459 -1.2444 -0.8677
  170SAPS    C319242   1.043   3.351   6.468 -0.0345  0.3027 -0.4966
  170SAPS    HX19243   1.110   3.285   6.408 -0.1165 -1.1621  0.9522
  170SAPS    HY19244   1.110   3.432   6.504  0.4746 -0.6185  0.6966
  170SAPS   O3119245   0.937   3.397   6.391  0.6938  0.3688  0.2709
  170SAPS   C3119246   0.885   3.516   6.413 -0.2799  0.2869  0.0631
  170SAPS   O3219247   0.933   3.597   6.493  0.3941 -0.2994 -0.7634
  170SAPS   C3219248   0.744   3.530   6.344 -0.4505 -0.3139 -0.2506
  170SAPS   H2X19249   0.695   3.621   6.384  0.7657  0.8480 -1.3115
  170SAPS   H2Y19250   0.680   3.444   6.374 -0.9325 -0.1982 -0.9276
  170SAPS   C2319251   0.739   2.953   6.340  0.0355  0.1317  0.2484
  170SAPS   H3R19252   0.645   3.010   6.357 -0.5591 -0.2215 -1.6581
  170SAPS   H3S19253   0.727   2.844   6.326  1.5081  0.0794 -0.9522
  170SAPS   C2419254   0.800   3.026   6.220  0.1772  0.1182 -0.2466
  170SAPS   H4R19255   0.804   3.132   6.254  0.9950  0.4997 -1.4744
  170SAPS   H4S19256   0.731   3.015   6.134 -2.2497  1.6160  1.3991
  170SAPS   C2519257   0.944   2.980   6.198  0.0467 -0.1938 -0.5804
  170SAPS   H5R19258   1.022   3.019   6.265 -1.0025  0.7616  0.1134
  170SAPS   C2619259   0.990   2.903   6.096  0.0779  0.0736 -0.7885
  170SAPS   H6R19260   1.095   2.870   6.103  0.7488  1.5009 -3.0278
  170SAPS   C2719261   0.918   2.846   5.981 -0.4887 -0.2131 -0.1379
  170SAPS   H7R19262   0.909   2.933   5.913 -2.0509  1.6115  2.2170
  170SAPS   H7S19263   0.813   2.822   6.011 -0.2690 -0.0647  0.7913
  170SAPS   C2819264   0.992   2.724   5.946 -0.6318 -0.3581 -0.5421
  170SAPS   H8R19265   1.005   2.646   6.022  0.7853  0.6762  0.3277
  170SAPS   C2919266   1.060   2.699   5.836 -1.0175  0.7546 -0.0041
  170SAPS   H9R19267   1.102   2.600   5.815 -0.9847  0.6766  0.4232
  170SAPS  C21019268   1.046   2.777   5.706  0.3493  0.4379 -0.2305
  170SAPS  H10R19269   1.022   2.885   5.717  0.0512  0.4485 -0.9413
  170SAPS  H10S19270   0.952   2.750   5.653 -1.1400 -1.5683  3.1157
  170SAPS  C21119271   1.166   2.752   5.617 -0.1668  0.5830 -0.7597
  170SAPS  H11R19272   1.263   2.747   5.670 -1.4661 -1.3415  1.6516
  170SAPS  C21219273   1.162   2.725   5.489  0.5855 -0.1466 -0.6082
  170SAPS  H12R19274   1.260   2.713   5.440  1.0014 -1.7303  0.5184
  170SAPS  C21319275   1.043   2.694   5.400  0.3265 -0.1053 -0.1365
  170SAPS  H13R19276   0.983   2.622   5.461  1.7305 -2.5009 -1.4296
  170SAPS  H13S19277   1.085   2.629   5.320  0.3123  0.8888 -0.9625
  170SAPS  C21419278   0.948   2.798   5.343  0.0368  0.3468 -1.3208
  170SAPS  H14R19279   0.939   2.894   5.396  0.8169  1.5834 -3.2805
  170SAPS  C21519280   0.865   2.777   5.246 -0.0184 -0.5107 -0.8833
  170SAPS  H15R19281   0.787   2.854   5.235 -2.1432 -2.0787  1.9807
  170SAPS  C21619282   0.857   2.651   5.158 -0.0822 -0.1475 -0.5703
  170SAPS  H16R19283   0.748   2.637   5.144 -0.1096 -1.9595  1.0343
  170SAPS  H16S19284   0.900   2.556   5.198  1.5273  0.2913 -1.1627
  170SAPS  C21719285   0.926   2.659   5.025  0.1068  0.2334 -0.0777
  170SAPS  H17R19286   0.880   2.740   4.964  0.5387  0.0334 -0.6852
  170SAPS  H17S19287   0.895   2.567   4.970 -0.1941  1.3726 -1.8880
  170SAPS  C21819288   1.081   2.664   5.023 -0.3062 -0.1181  0.0668
  170SAPS  H18R19289   1.116   2.559   5.036 -0.8580  0.0351  3.9241
  170SAPS  H18S19290   1.114   2.731   5.105 -1.1261  0.1375  0.1983
  170SAPS  C21919291   1.127   2.718   4.888 -0.0343  0.5495  0.2331
  170SAPS  H19R19292   1.235   2.744   4.893 -0.0967  0.7638  0.4454
  170SAPS  H19S19293   1.078   2.815   4.861  1.5194  1.4527  0.5479
  170SAPS  C22019294   1.120   2.618   4.782  0.2536 -0.1853 -0.1361
  170SAPS  H20R19295   1.016   2.596   4.749  0.0244  0.0960  0.3831
  170SAPS  H20S19296   1.158   2.519   4.814  0.5409 -0.4524 -1.2631
  170SAPS  H20T19297   1.181   2.643   4.693  3.1567 -3.0269  0.8339
  170SAPS   C3319298   0.760   3.530   6.191  0.5814 -0.1242  0.2654
  170SAPS   H3X19299   0.844   3.597   6.162 -0.9891  1.0836 -1.8441
  170SAPS   H3Y19300   0.670   3.572   6.140 -0.0818  0.0505  1.5479
  170SAPS   C3419301   0.776   3.396   6.131 -0.4904  0.8873  0.4217
  170SAPS   H4X19302   0.692   3.330   6.162  1.6398 -0.4995  3.7969
  170SAPS   H4Y19303   0.873   3.353   6.166 -1.2414 -0.5341  0.8295
  170SAPS   C3519304   0.788   3.398   5.976  0.3713  0.9876 -0.6523
  170SAPS   H5X19305   0.892   3.423   5.945  0.3394 -0.4796 -2.0914
  170SAPS   H5Y19306   0.713   3.461   5.924 -2.8128 -2.7935 -1.1605
  170SAPS   C3619307   0.770   3.253   5.937  1.0653 -0.0400  0.4035
  170SAPS   H6X19308   0.679   3.210   5.984 -0.3198  1.3927 -0.7861
  170SAPS   H6Y19309   0.853   3.185   5.964 -0.6695 -1.5428  2.2494
  170SAPS   C3719310   0.753   3.246   5.778  0.7595 -0.3337 -0.3167
  170SAPS   H7X19311   0.852   3.293   5.759  0.3039 -0.0479 -2.2805
  170SAPS   H7Y19312   0.662   3.302   5.747 -1.3749 -3.2112  0.3146
  170SAPS   C3819313   0.746   3.111   5.708  0.3876  0.4459  0.0218
  170SAPS   H8X19314   0.661   3.055   5.753  1.3569 -1.5386 -0.5037
  170SAPS   H8Y19315   0.842   3.058   5.725 -0.3084 -1.1870 -0.8566
  170SAPS   C3919316   0.729   3.114   5.558 -0.0921  0.2498  0.0329
  170SAPS   H9X19317   0.629   3.155   5.530 -0.1199 -0.3000 -0.6972
  170SAPS   H9Y19318   0.722   3.009   5.522 -1.6101 -0.0815  1.1641
  170SAPS  C31019319   0.819   3.210   5.490 -0.1824  0.2833  0.0170
  170SAPS  H10X19320   0.928   3.190   5.473  0.0758  2.8941 -2.1860
  170SAPS  H10Y19321   0.812   3.313   5.530  2.8554  1.4254 -1.9909
  170SAPS  C31119322   0.778   3.218   5.342  0.2429 -0.0107  0.2595
  170SAPS  H11X19323   0.678   3.260   5.317  1.3246  1.0235 -2.8995
  170SAPS  H11Y19324   0.782   3.113   5.306  0.9161  0.4054 -0.9353
  170SAPS  C31219325   0.874   3.297   5.260  0.6546  0.0820  0.0946
  170SAPS  H12X19326   0.906   3.396   5.300  0.7220  0.8007 -1.6283
  170SAPS  H12Y19327   0.820   3.331   5.168 -2.4854 -1.4085  1.2321
  170SAPS  C31319328   0.993   3.206   5.221  0.3961  0.5492  0.0811
  170SAPS  H13X19329   0.945   3.114   5.183 -0.8157  0.9635  0.5628
  170SAPS  H13Y19330   1.050   3.168   5.308 -0.2297  0.3101  0.3881
  170SAPS  C31419331   1.092   3.258   5.119 -0.1967 -0.0917 -0.4440
  170SAPS  H14X19332   1.143   3.344   5.168  2.2310 -1.4329 -0.4331
  170SAPS  H14Y19333   1.045   3.299   5.027  0.1396  1.1748 -0.0794
  170SAPS  C31519334   1.193   3.158   5.069  0.1030 -0.6134  0.7070
  170SAPS  H15X19335   1.215   3.091   5.155  0.6442  0.4606  1.4299
  170SAPS  H15Y19336   1.287   3.215   5.053  0.0681 -0.6881  0.2264
  170SAPS  C31619337   1.160   3.080   4.937 -0.2228 -0.2212  0.1411
  170SAPS  H16X19338   1.050   3.072   4.932 -0.2602 -0.0024  0.5482
  170SAPS  H16Y19339   1.209   2.980   4.945  1.6930  0.3079 -3.3397
  170SAPS  C31719340   1.205   3.137   4.805  0.4682  0.2890  0.4650
  170SAPS  H17X19341   1.310   3.169   4.818  0.5307  0.0199  0.6390
  170SAPS  H17Y19342   1.144   3.229   4.790  1.4316  1.2925  2.3995
  170SAPS  C31819343   1.188   3.039   4.689  0.0107  0.3426  0.2918
  170SAPS  H18X19344   1.238   3.070   4.595 -1.4594  2.7809  0.2476
  170SAPS  H18Y19345   1.080   3.031   4.665  0.2064  0.3556 -0.6031
  170SAPS  H18Z19346   1.238   2.947   4.726 -0.3300 -0.3781 -1.0001
  171SAPS     N19347   6.542   2.764   7.146 -0.0827 -0.0672  0.1673
  171SAPS   HN119348   6.561   2.704   7.063  1.8032  0.5439  0.1068
  171SAPS   HN219349   6.470   2.720   7.206  0.0334  0.3415  0.6122
  171SAPS   HN319350   6.501   2.852   7.108 -1.2431 -1.6105 -2.3880
  171SAPS   C1219351   6.661   2.770   7.231  0.6207  0.2200 -0.2892
  171SAPS  H12A19352   6.681   2.875   7.246 -3.1495  0.8584  1.6075
  171SAPS   C1319353   6.643   2.696   7.366 -0.8522 -0.8371 -0.4403
  171SAPS  O13A19354   6.556   2.608   7.377 -0.1160 -1.0763  0.2124
  171SAPS  O13B19355   6.736   2.717   7.453 -0.4920 -0.1206  0.1958
  171SAPS   C1119356   6.781   2.719   7.155  0.5091 -0.1299 -0.0167
  171SAPS  H11A19357   6.862   2.762   7.218  0.9445  1.9191 -1.8482
  171SAPS  H11B19358   6.786   2.762   7.052 -1.3283 -0.7909 -0.4157
  171SAPS     P19359   6.743   2.507   7.011  0.1566 -0.3671  0.2657
  171SAPS   O1319360   6.775   2.366   7.024  0.2100 -0.6130  0.1396
  171SAPS   O1419361   6.605   2.552   6.995  0.3937 -0.2765  0.1024
  171SAPS   O1219362   6.789   2.575   7.146  0.3119 -0.4617 -0.1322
  171SAPS   O1119363   6.821   2.568   6.888 -0.2191 -0.2916 -0.1207
  171SAPS    C119364   6.964   2.587   6.886  0.2344 -0.2863 -1.0158
  171SAPS    HA19365   6.985   2.695   6.894  0.9445 -0.3372 -2.0346
  171SAPS    HB19366   7.014   2.530   6.967 -1.1458 -1.2646 -0.7984
  171SAPS    C219367   7.019   2.531   6.748 -0.1948 -0.0921 -0.7524
  171SAPS    HS19368   7.128   2.548   6.732  0.4287 -0.9055  2.0418
  171SAPS   O2119369   6.935   2.576   6.643  0.2080 -0.3340 -0.3625
  171SAPS   C2119370   6.950   2.688   6.582  0.1103  0.1576 -0.5426
  171SAPS   O2219371   7.035   2.768   6.608 -0.0777  0.0849  0.5047
  171SAPS   C2219372   6.851   2.700   6.467 -0.3842 -0.0337 -0.9522
  171SAPS   H2R19373   6.753   2.661   6.500 -1.0552  2.0270 -0.4024
  171SAPS   H2S19374   6.849   2.809   6.448 -1.8027  0.4799  1.6953
  171SAPS    C319375   7.032   2.378   6.750  0.2316  0.0440 -0.3254
  171SAPS    HX19376   6.928   2.344   6.771  0.5850 -0.0743  1.3120
  171SAPS    HY19377   7.100   2.338   6.828  0.0815 -1.2117 -0.8010
  171SAPS   O3119378   7.074   2.323   6.624  0.6185  0.6596 -0.1438
  171SAPS   C3119379   6.983   2.279   6.534 -0.6976 -0.0426 -0.7467
  171SAPS   O3219380   6.861   2.286   6.545 -0.1091 -0.1963 -0.7832
  171SAPS   C3219381   7.051   2.209   6.410  0.4687  0.4614  0.0554
  171SAPS   H2X19382   7.135   2.144   6.442 -0.3615 -0.3175  0.6968
  171SAPS   H2Y19383   7.105   2.283   6.346  4.0828 -0.9442  1.2212
  171SAPS   C2319384   6.902   2.616   6.347 -0.2015 -0.4093 -0.2512
  171SAPS   H3R19385   6.832   2.632   6.263  0.7533  1.5110 -0.7520
  171SAPS   H3S19386   6.886   2.512   6.383 -3.4753  0.0179 -0.1620
  171SAPS   C2419387   7.044   2.637   6.290 -0.2784  0.5236 -0.3968
  171SAPS   H4R19388   7.050   2.589   6.191  2.0298  2.8380 -1.4895
  171SAPS   H4S19389   7.116   2.583   6.355 -0.2192 -0.8624 -1.5872
  171SAPS   C2519390   7.090   2.778   6.272 -0.1283  0.0636  0.2444
  171SAPS   H5R19391   7.097   2.839   6.364 -2.4276 -0.4321  0.8328
  171SAPS   C2619392   7.147   2.826   6.154  0.3971 -0.3523 -0.9260
  171SAPS   H6R19393   7.181   2.930   6.142 -0.1494 -0.4139 -3.7123
  171SAPS   C2719394   7.158   2.763   6.026 -0.5782  0.1393 -0.3220
  171SAPS   H7R19395   7.157   2.842   5.948  0.2952 -0.0422 -0.5292
  171SAPS   H7S19396   7.071   2.696   6.010 -0.2775 -0.6716  1.2899
  171SAPS   C2819397   7.281   2.671   6.011  0.2885 -0.6819 -0.3758
  171SAPS   H8R19398   7.307   2.590   6.081 -1.0647 -0.6561  0.1735
  171SAPS   C2919399   7.378   2.686   5.922 -0.1247 -0.5038 -0.0953
  171SAPS   H9R19400   7.463   2.616   5.913 -0.7920 -1.1821 -1.5438
  171SAPS  C21019401   7.374   2.780   5.806 -0.0858 -0.5867 -0.2464
  171SAPS  H10R19402   7.362   2.885   5.840  2.7697 -0.1661 -0.2584
  171SAPS  H10S19403   7.292   2.759   5.734 -1.5014  1.1320  0.7873
  171SAPS  C21119404   7.499   2.785   5.722 -0.3541 -0.1328 -0.2391
  171SAPS  H11R19405   7.586   2.812   5.784 -1.1664  1.1706  0.3935
  171SAPS  C21219406   7.515   2.757   5.589  0.5241  0.3459  0.1817
  171SAPS  H12R19407   7.618   2.766   5.551  0.9751  0.3802  1.3527
  171SAPS  C21319408   7.407   2.720   5.488  0.2346  0.5428 -0.6538
  171SAPS  H13R19409   7.363   2.814   5.447 -1.5895  2.0979  4.0937
  171SAPS  H13S19410   7.318   2.683   5.543 -0.3460  2.6813 -0.0438
  171SAPS  C21419411   7.449   2.619   5.391  0.9829 -0.7093 -0.0224
  171SAPS  H14R19412   7.555   2.591   5.405  0.2378 -2.5108  2.8868
  171SAPS  C21519413   7.378   2.564   5.296 -0.5069  0.8148  0.0899
  171SAPS  H15R19414   7.418   2.483   5.233 -2.1588  0.4394 -0.5291
  171SAPS  C21619415   7.229   2.578   5.269 -0.2113 -0.4924  0.0015
  171SAPS  H16R19416   7.175   2.656   5.326  0.5732 -1.1012  1.6331
  171SAPS  H16S19417   7.180   2.484   5.301 -1.1170  0.2886  0.9844
  171SAPS  C21719418   7.203   2.615   5.122 -0.5451 -0.2180 -0.0127
  171SAPS  H17R19419   7.261   2.701   5.082  1.6247 -1.0879  1.0714
  171SAPS  H17S19420   7.099   2.646   5.102 -1.3520 -3.1703 -0.9665
  171SAPS  C21819421   7.231   2.496   5.029  0.6272  0.0965  0.4293
  171SAPS  H18R19422   7.141   2.432   5.021  1.8307 -1.7005  0.5638
  171SAPS  H18S19423   7.311   2.430   5.069  1.5635 -0.1275 -1.6730
  171SAPS  C21919424   7.275   2.539   4.896 -0.2599  0.0762 -0.2263
  171SAPS  H19R19425   7.221   2.627   4.856 -0.9197 -0.7676 -1.2510
  171SAPS  H19S19426   7.249   2.459   4.824 -0.5744 -0.9629  0.9921
  171SAPS  C22019427   7.424   2.559   4.866 -0.1855 -0.2972 -0.7224
  171SAPS  H20R19428   7.475   2.460   4.864  1.0842  0.2084  2.2754
  171SAPS  H20S19429   7.469   2.611   4.952  0.8260 -1.6710 -0.3868
  171SAPS  H20T19430   7.441   2.614   4.771 -0.1173 -0.1318 -0.6145
  171SAPS   C3319431   6.949   2.114   6.340  0.2009 -0.1028 -0.1782
  171SAPS   H3X19432   6.872   2.176   6.289  0.8804  1.1993  0.3263
  171SAPS   H3Y19433   6.891   2.056   6.415  0.1478 -0.8466 -0.7885
  171SAPS   C3419434   7.017   2.022   6.243  1.1454 -0.5940 -0.7473
  171SAPS   H4X19435   6.941   1.969   6.183  1.3050 -2.4335  0.6179
  171SAPS   H4Y19436   7.084   1.949   6.293  0.2601 -0.8755  0.0292
  171SAPS   C3519437   7.107   2.084   6.130  0.1841  0.3304  0.4284
  171SAPS   H5X19438   7.123   1.997   6.062  1.5505 -0.5569  1.8213
  171SAPS   H5Y19439   7.206   2.117   6.167 -0.3461  0.6056  1.6273
  171SAPS   C3619440   7.032   2.186   6.042 -0.0605 -0.5744  0.6690
  171SAPS   H6X19441   7.007   2.274   6.105 -0.9518 -0.8096  0.6522
  171SAPS   H6Y19442   6.943   2.138   5.995  0.4398 -0.2044 -0.7178
  171SAPS   C3719443   7.113   2.236   5.923 -0.2951 -0.5733 -0.3866
  171SAPS   H7X19444   7.101   2.159   5.844 -0.1032  0.6307 -1.6193
  171SAPS   H7Y19445   7.220   2.245   5.952 -0.4632 -1.1764  0.4682
  171SAPS   C3819446   7.061   2.366   5.858  0.9339 -0.5526 -0.2833
  171SAPS   H8X19447   7.056   2.452   5.928  0.0841  0.1777 -1.1965
  171SAPS   H8Y19448   6.956   2.347   5.828  0.8851  1.8781 -1.9665
  171SAPS   C3919449   7.142   2.418   5.738 -0.0461  0.2320 -1.0310
  171SAPS   H9X19450   7.238   2.447   5.787 -1.6780  0.5140  2.2323
  171SAPS   H9Y19451   7.090   2.509   5.700  0.0707 -0.2665 -2.4678
  171SAPS  C31019452   7.163   2.333   5.620 -0.5573  0.5158  0.4139
  171SAPS  H10X19453   7.205   2.235   5.648  0.7897  1.3711  1.4871
  171SAPS  H10Y19454   7.230   2.387   5.548  0.1646  0.6167  1.1480
  171SAPS  C31119455   7.035   2.298   5.537 -0.1498  0.2876  0.3503
  171SAPS  H11X19456   6.961   2.249   5.605 -0.1804 -0.7819 -0.4191
  171SAPS  H11Y19457   7.073   2.234   5.454 -0.5415 -0.4354  0.7152
  171SAPS  C31219458   6.967   2.414   5.466 -0.0670  1.1512  0.4850
  171SAPS  H12X19459   7.032   2.499   5.435 -0.0804  0.0922 -2.7058
  171SAPS  H12Y19460   6.891   2.453   5.537 -1.7559 -0.4068 -0.3959
  171SAPS  C31319461   6.897   2.358   5.341 -0.0056 -0.1033 -0.2484
  171SAPS  H13X19462   6.799   2.309   5.359  0.6664 -1.6062 -0.5168
  171SAPS  H13Y19463   6.964   2.296   5.277  0.3806  1.7585 -1.7196
  171SAPS  C31419464   6.857   2.477   5.258 -0.0577  0.5677  0.0818
  171SAPS  H14X19465   6.946   2.538   5.232  1.1936 -0.2919  2.0930
  171SAPS  H14Y19466   6.798   2.549   5.320 -0.1176  1.0089 -0.4817
  171SAPS  C31519467   6.796   2.441   5.119  0.5562 -0.2820  0.0709
  171SAPS  H15X19468   6.713   2.367   5.127 -1.1520  1.6880  1.7353
  171SAPS  H15Y19469   6.882   2.404   5.060  0.3834 -1.5380  0.5773
  171SAPS  C31619470   6.757   2.567   5.038  0.3333  0.3683 -0.0452
  171SAPS  H16X19471   6.832   2.647   5.052 -0.4920  0.7969  2.3453
  171SAPS  H16Y19472   6.662   2.606   5.081  0.0489 -2.1359  1.7690
  171SAPS  C31719473   6.743   2.555   4.885  0.2882  0.9552  0.1761
  171SAPS  H17X19474   6.669   2.631   4.853 -0.4650  0.8302  1.5515
  171SAPS  H17Y19475   6.701   2.457   4.854 -0.3251  1.7042 -1.4711
  171SAPS  C31819476   6.877   2.582   4.811  0.5118 -0.3129  0.6072
  171SAPS  H18X19477   6.955   2.506   4.835 -1.1878 -1.9541  1.2205
  171SAPS  H18Y19478   6.913   2.685   4.830  1.0091 -0.5710  1.1058
  171SAPS  H18Z19479   6.873   2.584   4.700  1.1946 -0.0524  0.5823
  172SAPS     N19480   1.488   2.479   6.856  0.0610  0.3946 -0.9980
  172SAPS   HN119481   1.407   2.541   6.836 -0.3150 -0.3462 -1.8293
  172SAPS   HN219482   1.539   2.516   6.938 -1.1312 -2.0574  0.9844
  172SAPS   HN319483   1.550   2.483   6.772  1.3396 -0.5465 -0.1321
  172SAPS   C1219484   1.436   2.341   6.880  0.5281  0.2876  0.2008
  172SAPS  H12A19485   1.417   2.297   6.783 -1.3794 -0.3144  0.8142
  172SAPS   C1319486   1.520   2.250   6.985  0.4528 -0.3638  0.7144
  172SAPS  O13A19487   1.628   2.294   7.028 -0.6318 -0.4657 -0.2472
  172SAPS  O13B19488   1.479   2.132   7.010 -0.0581 -0.7104 -0.5081
  172SAPS   C1119489   1.290   2.344   6.944 -0.0356 -0.1621  0.1552
  172SAPS  H11A19490   1.314   2.373   7.048 -0.6687  0.8786  0.0186
  172SAPS  H11B19491   1.247   2.241   6.949  1.3700 -0.7279  1.6419
  172SAPS     P19492   1.071   2.487   6.937  0.0874 -0.1403 -0.8065
  172SAPS   O1319493   1.071   2.441   7.079  0.0671  0.2936  1.6624
  172SAPS   O1419494   1.044   2.630   6.910 -0.0390 -0.1740 -0.0715
  172SAPS   O1219495   1.207   2.437   6.869 -0.3317  0.7881  0.0310
  172SAPS   O1119496   0.950   2.413   6.865 -0.3326 -0.3174 -0.6523
  172SAPS    C119497   0.972   2.317   6.758  0.4374 -0.1808  0.4415
  172SAPS    HA19498   1.075   2.276   6.763  0.0608 -1.0452  1.9134
  172SAPS    HB19499   0.913   2.230   6.795 -1.2543  1.9350  3.0480
  172SAPS    C219500   0.933   2.375   6.624  0.0190 -0.5813  0.3201
  172SAPS    HS19501   0.989   2.469   6.605 -0.7853 -0.3299 -0.8913
  172SAPS   O2119502   0.788   2.398   6.622 -0.0213  0.4091 -0.4326
  172SAPS   C2119503   0.755   2.533   6.622 -0.3161 -0.1618 -0.4275
  172SAPS   O2219504   0.838   2.624   6.627  0.9140  0.5477 -1.0443
  172SAPS   C2219505   0.604   2.549   6.634 -0.5681 -0.1509  0.5869
  172SAPS   H2R19506   0.568   2.446   6.653 -1.8070  0.3220  0.8956
  172SAPS   H2S19507   0.577   2.619   6.716  0.9979  0.7995  0.3304
  172SAPS    C319508   0.960   2.272   6.509  0.5658 -0.2798 -0.1241
  172SAPS    HX19509   0.908   2.307   6.417  1.0076 -0.3650 -0.4111
  172SAPS    HY19510   0.922   2.172   6.538  1.9639 -1.0419 -0.7616
  172SAPS   O3119511   1.103   2.261   6.490 -0.1323  0.6924  0.2459
  172SAPS   C3119512   1.157   2.343   6.402  0.4577  0.1140 -0.4871
  172SAPS   O3219513   1.099   2.429   6.344 -0.3588 -0.5907 -0.0456
  172SAPS   C3219514   1.304   2.302   6.376 -0.4551 -0.0249  0.0938
  172SAPS   H2X19515   1.303   2.196   6.344 -1.4763 -0.5142  1.6327
  172SAPS   H2Y19516   1.350   2.297   6.478 -2.7204 -1.1539  1.1192
  172SAPS   C2319517   0.548   2.611   6.493 -0.0868 -0.2520 -0.3793
  172SAPS   H3R19518   0.601   2.707   6.474 -2.5934  1.1419 -0.7598
  172SAPS   H3S19519   0.441   2.628   6.519 -0.2896 -1.0763 -0.6497
  172SAPS   C2419520   0.557   2.509   6.382  0.0582 -1.1595  0.2179
  172SAPS   H4R19521   0.476   2.524   6.307 -0.3676 -1.4775  0.6111
  172SAPS   H4S19522   0.542   2.408   6.425 -2.0042 -0.7786  0.4731
  172SAPS   C2519523   0.688   2.502   6.304  0.1313  0.0508  0.5886
  172SAPS   H5R19524   0.745   2.596   6.300 -1.5779  1.1429  0.8293
  172SAPS   C2619525   0.725   2.406   6.213  0.6520 -0.1963  0.3196
  172SAPS   H6R19526   0.830   2.404   6.180  0.5103 -0.6988 -0.1113
  172SAPS   C2719527   0.642   2.285   6.177  0.3321  0.0617  0.1364
  172SAPS   H7R19528   0.640   2.277   6.067  0.5001 -1.3917  0.2230
  172SAPS   H7S19529   0.538   2.306   6.209  0.1585 -0.5717 -0.0202
  172SAPS   C2819530   0.660   2.144   6.229 -0.1119 -0.2814 -0.0791
  172SAPS   H8R19531   0.685   2.149   6.336  1.3731  1.7435 -0.4592
  172SAPS   C2919532   0.660   2.029   6.157  0.3463  0.6127  0.4849
  172SAPS   H9R19533   0.655   1.932   6.207  3.0826  0.3493  0.4042
  172SAPS  C21019534   0.623   2.013   6.017 -0.4180 -0.4869  0.3722
  172SAPS  H10R19535   0.675   2.095   5.962 -1.6781  0.5198  0.6279
  172SAPS  H10S19536   0.520   2.048   5.992 -1.2724 -2.7503  0.4711
  172SAPS  C21119537   0.652   1.874   5.961  0.0771 -0.9245  0.3155
  172SAPS  H11R19538   0.668   1.794   6.036  3.1336 -1.0765 -0.3670
  172SAPS  C21219539   0.660   1.845   5.830  0.9360  0.9394 -0.3583
  172SAPS  H12R19540   0.683   1.740   5.810  1.2163  0.8161  0.5388
  172SAPS  C21319541   0.664   1.932   5.711 -0.4010  0.1858 -0.1706
  172SAPS  H13R19542   0.728   1.889   5.630 -1.1666  0.5134 -0.9636
  172SAPS  H13S19543   0.704   2.033   5.734 -1.3317  0.5541 -0.1485
  172SAPS  C21419544   0.524   1.958   5.667  0.3575  0.5907  0.6011
  172SAPS  H14R19545   0.445   1.955   5.744  0.9365  1.8594  1.2893
  172SAPS  C21519546   0.475   1.985   5.541 -0.0978  0.0624  0.1070
  172SAPS  H15R19547   0.371   2.017   5.525  0.6434  1.9194 -1.3549
  172SAPS  C21619548   0.557   2.003   5.418  0.0431 -0.2165 -0.1835
  172SAPS  H16R19549   0.535   1.924   5.343 -0.2498  0.5556 -0.9298
  172SAPS  H16S19550   0.667   1.990   5.429  0.1072 -0.1802 -0.7569
  172SAPS  C21719551   0.533   2.141   5.347 -0.4681 -0.3329 -0.1282
  172SAPS  H17R19552   0.577   2.220   5.411  0.1722 -1.2922  0.6346
  172SAPS  H17S19553   0.423   2.157   5.345 -0.5271 -0.7865 -1.0365
  172SAPS  C21819554   0.602   2.150   5.211 -0.4730 -0.5298  0.1237
  172SAPS  H18R19555   0.705   2.108   5.219 -0.9692 -1.7143  0.5639
  172SAPS  H18S19556   0.613   2.253   5.171  3.1982 -0.7510  0.2118
  172SAPS  C21919557   0.535   2.075   5.099 -0.8676 -0.0001  0.1714
  172SAPS  H19R19558   0.555   1.968   5.120 -0.6402  0.0896  0.4181
  172SAPS  H19S19559   0.589   2.096   5.004  0.5052 -0.5468  0.8030
  172SAPS  C22019560   0.386   2.100   5.072  0.2191  0.0416  0.3659
  172SAPS  H20R19561   0.319   2.078   5.159 -1.0189 -0.2120 -0.6175
  172SAPS  H20S19562   0.356   2.037   4.986  0.3506 -0.6343  0.8011
  172SAPS  H20T19563   0.372   2.205   5.041  0.0687 -0.4121 -1.1493
  172SAPS   C3319564   1.388   2.395   6.275 -0.2620  0.2067 -0.3181
  172SAPS   H3X19565   1.492   2.358   6.287 -0.4807 -0.1956  0.3475
  172SAPS   H3Y19566   1.390   2.503   6.304  0.0500  0.0707  0.1744
  172SAPS   C3419567   1.351   2.368   6.132 -0.0179  0.1255  0.3200
  172SAPS   H4X19568   1.241   2.373   6.120 -0.0577 -1.6089 -0.2202
  172SAPS   H4Y19569   1.375   2.260   6.119 -0.1832  0.3558 -2.8934
  172SAPS   C3519570   1.424   2.461   6.026  0.0290 -0.2940  0.5916
  172SAPS   H5X19571   1.533   2.452   6.044 -0.1408 -2.0645  0.9401
  172SAPS   H5Y19572   1.388   2.565   6.040  0.0688 -0.2683  0.5060
  172SAPS   C3619573   1.401   2.425   5.878 -0.2200  0.1068 -0.0826
  172SAPS   H6X19574   1.292   2.424   5.856 -0.0323 -3.0017 -1.2636
  172SAPS   H6Y19575   1.442   2.322   5.874 -2.3707 -0.8490  0.7282
  172SAPS   C3719576   1.471   2.512   5.778  0.1761 -0.0846  0.0389
  172SAPS   H7X19577   1.576   2.535   5.807  1.1211 -3.3262 -0.3505
  172SAPS   H7Y19578   1.440   2.618   5.769  1.1540  0.8646  5.1731
  172SAPS   C3819579   1.465   2.451   5.638  0.5962  0.1580 -0.1228
  172SAPS   H8X19580   1.361   2.421   5.615 -0.1101  2.1447  0.3293
  172SAPS   H8Y19581   1.521   2.355   5.642  0.0547 -0.1279  1.3654
  172SAPS   C3919582   1.513   2.540   5.520  0.0532  0.8223  0.2202
  172SAPS   H9X19583   1.624   2.553   5.518  0.2460 -0.6466 -0.8189
  172SAPS   H9Y19584   1.468   2.641   5.522 -0.1885  0.7237  2.6701
  172SAPS  C31019585   1.467   2.478   5.380 -0.4739 -0.6899 -0.0805
  172SAPS  H10X19586   1.356   2.481   5.380 -0.4764  1.4652 -1.2201
  172SAPS  H10Y19587   1.499   2.372   5.383  1.1546 -0.2117  1.0126
  172SAPS  C31119588   1.522   2.544   5.255  0.1604  0.4108 -0.1894
  172SAPS  H11X19589   1.632   2.530   5.254  0.2098  0.6730  0.8943
  172SAPS  H11Y19590   1.497   2.651   5.269  1.4585  0.6334  0.5493
  172SAPS  C31219591   1.470   2.494   5.125 -0.6929 -0.8916  0.5980
  172SAPS  H12X19592   1.361   2.514   5.118 -0.7142 -1.3050 -0.3696
  172SAPS  H12Y19593   1.495   2.387   5.112 -1.2420 -0.8340 -1.1708
  172SAPS  C31319594   1.531   2.566   5.002 -0.2511 -0.4969 -0.4658
  172SAPS  H13X19595   1.472   2.511   4.926  0.6321 -1.7065 -0.3226
  172SAPS  H13Y19596   1.636   2.540   4.974 -0.5007 -1.0971 -0.8820
  172SAPS  C31419597   1.522   2.719   5.004  0.3638  0.1257  0.2716
  172SAPS  H14X19598   1.575   2.757   5.094 -2.4839 -0.3624  2.2866
  172SAPS  H14Y19599   1.415   2.744   5.024 -0.3966 -2.0131 -0.8528
  172SAPS  C31519600   1.572   2.771   4.868 -0.0324  0.1763 -0.2647
  172SAPS  H15X19601   1.510   2.712   4.797  1.2244 -0.3617 -0.9429
  172SAPS  H15Y19602   1.675   2.733   4.855 -0.2565 -0.8351  0.7549
  172SAPS  C31619603   1.560   2.920   4.841 -0.6061  0.2891 -0.2694
  172SAPS  H16X19604   1.451   2.944   4.846 -0.2005  2.0888  1.2002
  172SAPS  H16Y19605   1.608   2.972   4.927  1.5362 -1.1115 -0.5629
  172SAPS  C31719606   1.619   2.959   4.704  0.1058 -0.6862 -0.3417
  172SAPS  H17X19607   1.541   2.932   4.630  0.4763  1.1313 -1.4620
  172SAPS  H17Y19608   1.713   2.909   4.673 -1.3370 -2.5960 -1.8784
  172SAPS  C31819609   1.631   3.111   4.707 -0.7336 -0.1670 -0.1065
  172SAPS  H18X19610   1.725   3.137   4.760 -0.6657 -0.1060 -0.2575
  172SAPS  H18Y19611   1.541   3.169   4.739  0.6968  1.6202  0.8343
  172SAPS  H18Z19612   1.661   3.143   4.605 -0.4911 -1.6191 -0.5188
  173SAPS     N19613   4.686   2.266   1.532 -0.3686 -0.0710 -0.2723
  173SAPS   HN119614   4.760   2.241   1.464  0.1519 -1.7762  0.8526
  173SAPS   HN219615   4.641   2.173   1.549 -1.1108 -0.1932 -2.6319
  173SAPS   HN319616   4.622   2.339   1.494  1.8283  1.8372 -0.5169
  173SAPS   C1219617   4.765   2.312   1.650 -0.3011 -0.2728 -0.2597
  173SAPS  H12A19618   4.866   2.319   1.613 -0.1801 -0.9971 -0.0790
  173SAPS   C1319619   4.736   2.455   1.697 -0.9413  0.0206 -0.2904
  173SAPS  O13A19620   4.650   2.522   1.643 -0.6457 -0.6866 -0.0991
  173SAPS  O13B19621   4.801   2.500   1.795 -0.0768  0.3672 -0.1689
  173SAPS   C1119622   4.762   2.231   1.775 -0.2387  0.2639 -0.1758
  173SAPS  H11A19623   4.659   2.244   1.815  0.6236  3.0998  1.3950
  173SAPS  H11B19624   4.840   2.269   1.845  0.0902  0.8515 -0.8542
  173SAPS     P19625   4.780   1.970   1.812 -0.2663  0.1262  0.2034
  173SAPS   O1319626   4.637   1.930   1.796 -0.4392  0.3069 -0.4032
  173SAPS   O1419627   4.883   1.868   1.770  0.2850 -0.2352  0.9271
  173SAPS   O1219628   4.802   2.099   1.731  0.5545 -0.5715  0.3052
  173SAPS   O1119629   4.807   2.023   1.959 -0.2215  0.2661 -0.2082
  173SAPS    C119630   4.941   2.048   2.005 -0.7329  0.2646  0.8684
  173SAPS    HA19631   5.009   2.052   1.916 -1.3411 -0.8819  0.3319
  173SAPS    HB19632   4.954   2.140   2.065 -0.7731 -0.3982  1.9246
  173SAPS    C219633   5.000   1.929   2.085  0.1375 -0.6114 -0.1139
  173SAPS    HS19634   4.983   1.833   2.032  0.3029 -0.1139 -1.0782
  173SAPS   O2119635   4.933   1.934   2.212 -0.0913 -0.1483 -1.1100
  173SAPS   C2119636   4.926   1.819   2.285  0.1437  0.2054 -0.0150
  173SAPS   O2219637   4.974   1.715   2.240 -0.1057  0.4059 -0.3467
  173SAPS   C2219638   4.867   1.851   2.417 -0.2827 -0.5635  0.0689
  173SAPS   H2R19639   4.902   1.954   2.438  1.7489 -0.9033 -1.3072
  173SAPS   H2S19640   4.757   1.841   2.401 -0.4870  1.7256 -0.2653
  173SAPS    C319641   5.157   1.924   2.093  0.2950  0.0585  0.2598
  173SAPS    HX19642   5.194   1.941   1.989  1.9671  1.0119  0.9595
  173SAPS    HY19643   5.190   1.821   2.118 -1.6626 -0.5031  0.6885
  173SAPS   O3119644   5.205   2.032   2.168 -0.0671  0.5168 -0.2329
  173SAPS   C3119645   5.243   1.998   2.291 -0.4577  0.0680  0.1546
  173SAPS   O3219646   5.259   1.882   2.333  0.3075  0.1127 -0.4519
  173SAPS   C3219647   5.256   2.123   2.382  0.0465 -1.0342 -0.8901
  173SAPS   H2X19648   5.236   2.212   2.319  0.9727 -0.3427 -0.2187
  173SAPS   H2Y19649   5.361   2.123   2.416 -0.2691  2.1674  0.3840
  173SAPS   C2319650   4.918   1.746   2.522 -0.4684 -0.1928  0.3475
  173SAPS   H3R19651   5.026   1.769   2.534 -0.8041  0.2666  3.4051
  173SAPS   H3S19652   4.900   1.642   2.489 -0.5971 -0.0125 -0.1536
  173SAPS   C2419653   4.841   1.763   2.663 -0.0103  0.0780 -0.2410
  173SAPS   H4R19654   4.853   1.860   2.716  0.9035 -0.5367  0.7009
  173SAPS   H4S19655   4.888   1.692   2.734 -1.2552 -0.2903  0.2383
  173SAPS   C2519656   4.690   1.729   2.666  1.1942  0.3807  0.9001
  173SAPS   H5R19657   4.622   1.757   2.583  1.4935  1.8263  1.1179
  173SAPS   C2619658   4.628   1.673   2.778 -0.1050  0.2218 -0.4699
  173SAPS   H6R19659   4.524   1.638   2.770  0.3999 -1.1446 -1.7453
  173SAPS   C2719660   4.710   1.643   2.910  0.2125 -0.0775  0.8946
  173SAPS   H7R19661   4.631   1.630   2.988 -0.7653 -2.3553 -0.3664
  173SAPS   H7S19662   4.768   1.730   2.946  1.5456 -0.9641  0.9862
  173SAPS   C2819663   4.779   1.509   2.902 -0.0810  0.0872  1.0034
  173SAPS   H8R19664   4.875   1.513   2.849  0.4941 -1.2497  1.8611
  173SAPS   C2919665   4.741   1.386   2.937 -0.6121  0.7033 -0.2637
  173SAPS   H9R19666   4.808   1.304   2.905 -3.2761 -0.7720 -2.6224
  173SAPS  C21019667   4.609   1.336   3.000  0.3682  0.4399  0.0065
  173SAPS  H10R19668   4.544   1.306   2.915 -1.5579 -0.4658  1.7095
  173SAPS  H10S19669   4.556   1.422   3.047 -0.6730 -0.0565 -0.2331
  173SAPS  C21119670   4.638   1.219   3.093 -0.4737  0.9660  0.4813
  173SAPS  H11R19671   4.667   1.131   3.034 -1.0931  1.8655 -1.2102
  173SAPS  C21219672   4.640   1.210   3.230 -0.2351 -0.0852  0.1536
  173SAPS  H12R19673   4.654   1.111   3.275 -1.8572 -0.8154 -0.8758
  173SAPS  C21319674   4.606   1.325   3.318  0.2136  0.2527  0.3887
  173SAPS  H13R19675   4.589   1.421   3.266 -2.5741 -0.3121  0.1218
  173SAPS  H13S19676   4.698   1.334   3.380  0.7468 -2.3649  0.0904
  173SAPS  C21419677   4.476   1.288   3.386 -0.1902 -0.4820  0.0677
  173SAPS  H14R19678   4.383   1.317   3.335 -1.8633  0.4186  3.3409
  173SAPS  C21519679   4.468   1.228   3.505  0.4227  0.2008  0.2946
  173SAPS  H15R19680   4.369   1.219   3.552  1.2309  1.2630  2.3298
  173SAPS  C21619681   4.591   1.202   3.593 -0.5293  0.9274 -0.3157
  173SAPS  H16R19682   4.619   1.299   3.638  0.3591  0.8523 -0.6871
  173SAPS  H16S19683   4.678   1.160   3.539  0.0318  0.0731  1.1816
  173SAPS  C21719684   4.561   1.099   3.705 -0.6385  0.1915 -0.1868
  173SAPS  H17R19685   4.556   0.996   3.663  3.5205 -0.1710 -0.2214
  173SAPS  H17S19686   4.464   1.126   3.751 -0.1056  0.5683  0.7518
  173SAPS  C21819687   4.664   1.102   3.819 -0.2636  0.2154  0.5594
  173SAPS  H18R19688   4.664   1.204   3.865  3.1742 -0.3766  2.2362
  173SAPS  H18S19689   4.765   1.089   3.775 -1.6087 -0.9981 -2.4013
  173SAPS  C21919690   4.636   1.016   3.936  0.2843  0.1572  0.0513
  173SAPS  H19R19691   4.616   0.915   3.893 -0.9600  1.3304 -2.2707
  173SAPS  H19S19692   4.541   1.046   3.983  1.5297  2.6508  1.1532
  173SAPS  C22019693   4.746   1.020   4.041 -0.7131 -0.0600  0.2159
  173SAPS  H20R19694   4.770   1.123   4.075  3.0807 -1.3579  2.0073
  173SAPS  H20S19695   4.835   0.971   3.996 -1.0298  0.7814 -1.4287
  173SAPS  H20T19696   4.723   0.959   4.130  1.5233  1.6014  2.0366
  173SAPS   C3319697   5.181   2.117   2.524 -0.5786  0.4128  0.2928
  173SAPS   H3X19698   5.078   2.076   2.514 -0.9754  0.1875  3.9820
  173SAPS   H3Y19699   5.158   2.224   2.544  0.8318  0.8934 -0.5446
  173SAPS   C3419700   5.260   2.042   2.626 -0.6272  0.2868 -0.0717
  173SAPS   H4X19701   5.365   2.077   2.618 -0.2713 -0.7809 -0.1848
  173SAPS   H4Y19702   5.246   1.935   2.601  0.6396  0.1566 -0.2597
  173SAPS   C3519703   5.199   2.073   2.760  0.6443  0.5267 -0.5792
  173SAPS   H5X19704   5.118   2.004   2.791  2.6081 -2.3963 -1.4861
  173SAPS   H5Y19705   5.152   2.173   2.757  0.0291  0.2230 -2.0228
  173SAPS   C3619706   5.305   2.058   2.870  1.4538 -0.2769 -0.4324
  173SAPS   H6X19707   5.404   2.083   2.825  0.7457 -0.0744 -1.9103
  173SAPS   H6Y19708   5.311   1.949   2.892  0.7403 -0.5689 -1.6029
  173SAPS   C3719709   5.281   2.136   2.998  0.3428 -0.0664 -0.2858
  173SAPS   H7X19710   5.196   2.084   3.047  1.5842 -1.2597  0.6789
  173SAPS   H7Y19711   5.238   2.236   2.977 -0.5733 -0.2354  0.6429
  173SAPS   C3819712   5.397   2.141   3.091  0.0432 -0.4720 -0.7420
  173SAPS   H8X19713   5.473   2.199   3.035 -0.6447 -0.4120 -1.6446
  173SAPS   H8Y19714   5.437   2.039   3.104  0.8137 -0.2566 -1.3545
  173SAPS   C3919715   5.371   2.209   3.226  0.5974 -0.8862 -0.3811
  173SAPS   H9X19716   5.376   2.320   3.219 -0.0106 -0.7787  0.7826
  173SAPS   H9Y19717   5.466   2.204   3.283 -0.0537 -0.5542  0.7510
  173SAPS  C31019718   5.249   2.161   3.306  0.2237  0.0109 -0.4020
  173SAPS  H10X19719   5.157   2.162   3.244 -1.0715 -0.2658  1.4262
  173SAPS  H10Y19720   5.238   2.229   3.393  3.1844  0.7981 -0.5283
  173SAPS  C31119721   5.283   2.018   3.355 -0.7690 -0.6069  0.0015
  173SAPS  H11X19722   5.387   2.024   3.395 -1.1487  1.4651  0.8261
  173SAPS  H11Y19723   5.277   1.928   3.291  1.1669 -0.9428  0.2313
  173SAPS  C31219724   5.197   1.972   3.476  0.1047  0.3128  0.0759
  173SAPS  H12X19725   5.099   1.939   3.435 -0.3508  0.1080  1.3045
  173SAPS  H12Y19726   5.176   2.062   3.536 -0.6896 -0.1554  0.5203
  173SAPS  C31319727   5.273   1.867   3.562 -0.1874  0.1036 -0.8302
  173SAPS  H13X19728   5.302   1.781   3.496  0.0059 -0.8497  0.4588
  173SAPS  H13Y19729   5.208   1.836   3.646  3.0599  1.8259  2.6139
  173SAPS  C31419730   5.412   1.917   3.622  0.5722  0.5597  0.1717
  173SAPS  H14X19731   5.381   2.006   3.680 -2.1525 -0.7397  0.8494
  173SAPS  H14Y19732   5.481   1.938   3.537  0.0302 -1.7591 -0.9306
  173SAPS  C31519733   5.469   1.819   3.725 -0.4377 -0.1125 -0.2287
  173SAPS  H15X19734   5.574   1.850   3.743 -0.1195 -0.8955 -0.6544
  173SAPS  H15Y19735   5.488   1.718   3.682  0.5804 -0.1502  0.2801
  173SAPS  C31619736   5.400   1.805   3.857 -0.3891  0.0547 -0.2364
  173SAPS  H16X19737   5.292   1.781   3.844 -0.2033 -1.0025  0.1115
  173SAPS  H16Y19738   5.396   1.908   3.899  1.6693  1.1827 -2.5515
  173SAPS  C31719739   5.454   1.692   3.951  0.5386  0.3534 -0.3834
  173SAPS  H17X19740   5.564   1.689   3.965  0.6339 -0.2601 -1.1686
  173SAPS  H17Y19741   5.435   1.589   3.914 -0.2394 -0.2720  1.6536
  173SAPS  C31819742   5.404   1.687   4.095 -0.5005 -0.2972  0.3295
  173SAPS  H18X19743   5.294   1.670   4.096 -0.5813  0.1072  2.5570
  173SAPS  H18Y19744   5.430   1.785   4.139  0.2625 -1.0281  1.5663
  173SAPS  H18Z19745   5.461   1.611   4.152 -1.4668 -0.5892  0.9416
  174SAPS     N19746   1.563   3.021   1.934 -0.5374 -1.0301  0.3489
  174SAPS   HN119747   1.578   3.071   1.844 -0.3201 -1.4716  0.1345
  174SAPS   HN219748   1.466   3.023   1.972 -0.2988  2.8511  1.1900
  174SAPS   HN319749   1.606   3.078   2.009  0.7439 -2.2590  0.5895
  174SAPS   C1219750   1.621   2.883   1.933 -0.4604  0.6449 -0.9737
  174SAPS  H12A19751   1.601   2.840   1.836 -1.1783 -2.2259  0.3685
  174SAPS   C1319752   1.769   2.868   1.962 -0.1195 -0.1484 -0.3085
  174SAPS  O13A19753   1.840   2.973   1.962 -0.0600  0.3987 -0.1240
  174SAPS  O13B19754   1.828   2.755   1.965  0.0990 -0.5249  0.3053
  174SAPS   C1119755   1.554   2.785   2.029  0.4192 -0.0044  0.4411
  174SAPS  H11A19756   1.555   2.812   2.136  0.9525 -1.6830  0.8912
  174SAPS  H11B19757   1.602   2.685   2.020 -1.4958 -0.8392 -1.3301
  174SAPS     P19758   1.323   2.678   2.065 -0.0942  0.1757  0.0288
  174SAPS   O1319759   1.189   2.698   2.004  0.6259 -0.4101  0.8706
  174SAPS   O1419760   1.378   2.542   2.061  0.3641  0.0327  0.4544
  174SAPS   O1219761   1.416   2.777   1.994  0.4095  1.0482  0.1613
  174SAPS   O1119762   1.326   2.736   2.212 -0.3269 -0.2906  0.0978
  174SAPS    C119763   1.327   2.675   2.341  0.1880 -0.6818  0.3727
  174SAPS    HA19764   1.417   2.613   2.359  0.0488 -1.2356 -0.7744
  174SAPS    HB19765   1.336   2.757   2.416  0.1520  0.7463 -1.1130
  174SAPS    C219766   1.205   2.582   2.364  0.1881  0.2257 -0.3406
  174SAPS    HS19767   1.205   2.511   2.279  0.7929  0.8751 -0.9046
  174SAPS   O2119768   1.081   2.659   2.370 -0.5034 -0.5697  0.0573
  174SAPS   C2119769   0.972   2.596   2.354 -1.2756  0.0086  1.1017
  174SAPS   O2219770   0.963   2.480   2.316 -0.3556  0.4402  0.1894
  174SAPS   C2219771   0.854   2.680   2.391 -0.2057 -0.2274  0.2933
  174SAPS   H2R19772   0.888   2.786   2.389  1.2727 -0.6434  1.4336
  174SAPS   H2S19773   0.788   2.671   2.302 -0.3516  0.6526  0.2970
  174SAPS    C319774   1.225   2.493   2.492  0.5069 -0.0036  0.0922
  174SAPS    HX19775   1.288   2.406   2.466 -0.0305  0.2388 -2.1766
  174SAPS    HY19776   1.128   2.442   2.513  0.5088  0.4125  1.2120
  174SAPS   O3119777   1.275   2.563   2.607 -0.1595  0.0396 -0.2212
  174SAPS   C3119778   1.402   2.545   2.644 -0.0451 -0.2166 -0.3668
  174SAPS   O3219779   1.484   2.465   2.606 -0.5247 -0.2985  0.2601
  174SAPS   C3219780   1.432   2.645   2.756 -0.5321  0.1200 -0.1659
  174SAPS   H2X19781   1.356   2.640   2.836  0.1560 -2.7370  0.4213
  174SAPS   H2Y19782   1.430   2.746   2.710  1.3903 -0.1976 -1.0467
  174SAPS   C2319783   0.772   2.645   2.521  0.2875 -0.4336 -0.0043
  174SAPS   H3R19784   0.700   2.562   2.504 -0.6338  0.6115 -1.3626
  174SAPS   H3S19785   0.716   2.738   2.543  1.1973  0.5211 -1.5464
  174SAPS   C2419786   0.868   2.610   2.635  0.0295  0.4545 -0.8611
  174SAPS   H4R19787   0.925   2.519   2.607 -0.2781  0.1052 -0.3651
  174SAPS   H4S19788   0.806   2.583   2.723  2.3498 -0.6746  0.5309
  174SAPS   C2519789   0.963   2.718   2.675 -0.0871 -0.4569 -0.1916
  174SAPS   H5R19790   1.001   2.782   2.594  0.9183  0.2674  0.8194
  174SAPS   C2619791   1.010   2.749   2.800 -0.1873  0.3284 -0.1988
  174SAPS   H6R19792   1.091   2.821   2.816  1.2986 -1.3022 -0.1732
  174SAPS   C2719793   0.991   2.678   2.931 -0.0693  0.0961  0.2661
  174SAPS   H7R19794   0.954   2.576   2.909 -1.4801  0.6806 -0.2163
  174SAPS   H7S19795   0.905   2.721   2.987  1.1101  1.3018  1.2059
  174SAPS   C2819796   1.113   2.684   3.030  0.9127  1.1353  0.1250
  174SAPS   H8R19797   1.211   2.677   2.980  0.4866  0.6829 -0.6592
  174SAPS   C2919798   1.107   2.686   3.167  0.4180  0.9298  0.2963
  174SAPS   H9R19799   1.194   2.708   3.231 -0.5826  3.4532  0.9168
  174SAPS  C21019800   0.973   2.686   3.246 -0.2659 -0.0345 -0.2193
  174SAPS  H10R19801   0.986   2.629   3.341 -1.0446 -1.8500 -1.1519
  174SAPS  H10S19802   0.897   2.624   3.194  0.6662 -1.2864 -0.1479
  174SAPS  C21119803   0.926   2.827   3.256  0.2178  0.1977 -0.0398
  174SAPS  H11R19804   0.926   2.888   3.164 -0.0165  0.2005 -0.0383
  174SAPS  C21219805   0.882   2.889   3.362 -0.0070 -0.2134 -0.1314
  174SAPS  H12R19806   0.854   2.995   3.352 -0.5492 -0.4352 -1.0338
  174SAPS  C21319807   0.863   2.828   3.502 -0.0948 -0.4877  0.2100
  174SAPS  H13R19808   0.920   2.736   3.525 -0.7703 -0.8768  0.3534
  174SAPS  H13S19809   0.760   2.788   3.504  0.3023 -1.8470 -2.0743
  174SAPS  C21419810   0.895   2.913   3.617  0.2859  0.0590 -0.6768
  174SAPS  H14R19811   0.999   2.948   3.623  0.5092 -0.7736  1.0609
  174SAPS  C21519812   0.825   2.931   3.734 -0.1352  0.0817  0.4734
  174SAPS  H15R19813   0.866   2.996   3.813 -0.8564 -0.3205  1.2019
  174SAPS  C21619814   0.683   2.875   3.764  0.5779 -0.4806 -0.1776
  174SAPS  H16R19815   0.681   2.769   3.732  0.4136 -0.7496  0.7002
  174SAPS  H16S19816   0.615   2.933   3.699 -0.5293 -0.8110  0.6611
  174SAPS  C21719817   0.637   2.895   3.907  0.2544  0.7600  0.1472
  174SAPS  H17R19818   0.693   2.823   3.969 -0.6610 -2.2054 -2.2384
  174SAPS  H17S19819   0.530   2.866   3.914 -0.5306  3.3357 -0.0838
  174SAPS  C21819820   0.640   3.041   3.955  1.0093 -0.6115 -0.2777
  174SAPS  H18R19821   0.618   3.116   3.876 -0.3026  0.7317  1.2878
  174SAPS  H18S19822   0.743   3.064   3.988  1.6321 -0.4953 -2.1798
  174SAPS  C21919823   0.540   3.069   4.065  0.1857  0.4840  0.4095
  174SAPS  H19R19824   0.438   3.094   4.028  0.0466 -1.5745 -0.6971
  174SAPS  H19S19825   0.571   3.166   4.109 -0.6288  0.1449  1.8067
  174SAPS  C22019826   0.528   2.964   4.180 -0.1546 -0.4292  0.2278
  174SAPS  H20R19827   0.629   2.920   4.194 -0.3689 -1.3213 -0.8566
  174SAPS  H20S19828   0.454   2.882   4.177 -3.1975  2.1030  1.3246
  174SAPS  H20T19829   0.501   3.021   4.271 -0.3059  0.3812 -0.3205
  174SAPS   C3319830   1.573   2.629   2.823  0.3063  0.1431  0.5913
  174SAPS   H3X19831   1.646   2.631   2.739 -2.2087  2.4900 -1.7322
  174SAPS   H3Y19832   1.582   2.528   2.869  0.4497 -1.8754 -3.4183
  174SAPS   C3419833   1.607   2.733   2.923  0.1959  0.0829  0.0936
  174SAPS   H4X19834   1.610   2.826   2.862 -0.9098 -0.0197 -0.1418
  174SAPS   H4Y19835   1.715   2.716   2.943  0.1852 -0.5089 -0.3231
  174SAPS   C3519836   1.539   2.722   3.062 -0.1817  0.1515  0.6013
  174SAPS   H5X19837   1.434   2.754   3.047 -0.0146  1.3707  1.8762
  174SAPS   H5Y19838   1.591   2.802   3.119  2.5241 -0.2454 -1.1195
  174SAPS   C3619839   1.548   2.588   3.144 -0.3581  0.2341  0.7605
  174SAPS   H6X19840   1.636   2.535   3.102 -1.2941 -1.2725  0.6143
  174SAPS   H6Y19841   1.467   2.520   3.112  0.4905  0.9423 -3.4145
  174SAPS   C3719842   1.552   2.593   3.296  0.2117 -0.2517 -1.0676
  174SAPS   H7X19843   1.649   2.639   3.323  0.3896 -1.4941  0.5072
  174SAPS   H7Y19844   1.567   2.487   3.327 -0.4820  0.1576  0.7927
  174SAPS   C3819845   1.434   2.654   3.362  0.3075  0.1271 -0.1302
  174SAPS   H8X19846   1.344   2.592   3.340  0.4628  0.1814 -0.9458
  174SAPS   H8Y19847   1.420   2.757   3.323 -0.2882 -0.4832 -1.5775
  174SAPS   C3919848   1.461   2.651   3.518 -0.0336 -0.2912  0.1062
  174SAPS   H9X19849   1.559   2.704   3.527  0.2418 -1.0547  2.0084
  174SAPS   H9Y19850   1.479   2.544   3.542  0.4398 -0.0337  0.9226
  174SAPS  C31019851   1.333   2.704   3.586  0.0884  0.1272  0.0545
  174SAPS  H10X19852   1.244   2.716   3.521 -2.3449  1.1737  3.3443
  174SAPS  H10Y19853   1.353   2.809   3.617  0.5395 -0.3018  1.2583
  174SAPS  C31119854   1.290   2.635   3.711 -0.1397 -0.0535 -0.0166
  174SAPS  H11X19855   1.361   2.654   3.795 -0.8655 -1.5901  0.9803
  174SAPS  H11Y19856   1.289   2.525   3.699  1.5111 -0.1550  0.4655
  174SAPS  C31219857   1.147   2.668   3.757  0.0411  0.4502  0.1926
  174SAPS  H12X19858   1.080   2.665   3.668  1.5413  0.6153 -0.9902
  174SAPS  H12Y19859   1.136   2.771   3.797  0.0857  1.0102 -1.1755
  174SAPS  C31319860   1.080   2.569   3.846 -0.1789 -0.4665 -0.0656
  174SAPS  H13X19861   1.070   2.465   3.810 -1.5770 -0.6770  0.8561
  174SAPS  H13Y19862   0.973   2.600   3.852 -0.1337 -0.4094  0.5415
  174SAPS  C31419863   1.134   2.577   3.992  0.1923  0.1053  0.3836
  174SAPS  H14X19864   1.119   2.681   4.028 -1.0382  0.0535  0.0812
  174SAPS  H14Y19865   1.235   2.531   3.987 -0.6805 -1.9485  0.8306
  174SAPS  C31519866   1.052   2.478   4.079  0.0853 -0.3176 -0.2512
  174SAPS  H15X19867   1.082   2.376   4.048  1.6443  0.0919 -0.1709
  174SAPS  H15Y19868   0.944   2.493   4.053  0.2696 -0.6110 -1.2539
  174SAPS  C31619869   1.064   2.498   4.227  0.0090 -0.0801 -0.3386
  174SAPS  H16X19870   0.982   2.443   4.278  0.2806  0.4772  0.7346
  174SAPS  H16Y19871   1.044   2.603   4.259  1.8915  0.0313  0.6625
  174SAPS  C31719872   1.212   2.470   4.278 -0.0797 -0.2579  0.3738
  174SAPS  H17X19873   1.275   2.526   4.206 -3.8253  1.0480 -2.1987
  174SAPS  H17Y19874   1.226   2.360   4.270 -1.5537 -0.3384 -2.5955
  174SAPS  C31819875   1.242   2.521   4.422 -0.2349  0.3388 -0.2542
  174SAPS  H18X19876   1.170   2.480   4.496  0.3663 -2.5108 -1.1116
  174SAPS  H18Y19877   1.264   2.629   4.433 -0.2681  0.6836 -2.9331
  174SAPS  H18Z19878   1.333   2.467   4.455 -1.5919 -1.5507  0.5737
  175SAPS     N19879   4.447   0.719   1.980  0.2004 -0.1998  0.2782
  175SAPS   HN119880   4.475   0.814   1.948  0.4655  0.1313  1.4385
  175SAPS   HN219881   4.414   0.720   2.079 -1.0511  1.0631 -0.1130
  175SAPS   HN319882   4.530   0.656   1.971  0.4103 -0.4218  2.8524
  175SAPS   C1219883   4.351   0.655   1.883  0.0755 -0.1342  0.2268
  175SAPS  H12A19884   4.262   0.716   1.875 -0.3752 -1.0354 -2.9716
  175SAPS   C1319885   4.401   0.633   1.739  0.3913  1.4213  0.1590
  175SAPS  O13A19886   4.517   0.661   1.711  0.0872 -0.0283  0.0689
  175SAPS  O13B19887   4.316   0.613   1.643 -0.4627 -0.1584  0.2884
  175SAPS   C1119888   4.304   0.524   1.948 -0.0521  0.1019 -0.6679
  175SAPS  H11A19889   4.385   0.449   1.959  1.5968  2.1514  2.2751
  175SAPS  H11B19890   4.234   0.482   1.873  0.6180  1.5354 -2.1627
  175SAPS     P19891   4.219   0.440   2.171  0.5487  0.1800 -0.1998
  175SAPS   O1319892   4.127   0.488   2.276 -0.6691 -0.8975 -0.9115
  175SAPS   O1419893   4.178   0.313   2.103 -0.5606  0.2223 -0.2343
  175SAPS   O1219894   4.239   0.554   2.068 -0.2364  0.4565  0.2253
  175SAPS   O1119895   4.367   0.444   2.223  0.1182 -0.2223  0.1880
  175SAPS    C119896   4.465   0.347   2.174 -0.3967  0.0685  0.7107
  175SAPS    HA19897   4.426   0.298   2.083  0.6004 -0.1160  0.3683
  175SAPS    HB19898   4.561   0.400   2.153 -0.0679 -0.4306  0.9374
  175SAPS    C219899   4.508   0.236   2.268 -0.0866 -0.6529  0.6230
  175SAPS    HS19900   4.418   0.172   2.282 -0.6046  0.1655  1.0702
  175SAPS   O2119901   4.545   0.294   2.390  0.7334 -0.1007 -0.6181
  175SAPS   C2119902   4.512   0.219   2.494  0.0165  0.1394 -0.5378
  175SAPS   O2219903   4.421   0.136   2.493  0.1499 -0.2790  0.3806
  175SAPS   C2219904   4.610   0.234   2.611  0.4859 -0.4583  0.6392
  175SAPS   H2R19905   4.701   0.175   2.586 -0.3273 -1.3319 -0.3282
  175SAPS   H2S19906   4.631   0.343   2.605 -1.3461 -0.1002  0.1709
  175SAPS    C319907   4.616   0.148   2.201 -0.5009  0.4970  0.0012
  175SAPS    HX19908   4.694   0.222   2.172 -0.5100 -0.3872 -2.5628
  175SAPS    HY19909   4.562   0.105   2.115 -3.6249 -0.4748  2.2842
  175SAPS   O3119910   4.675   0.047   2.293  0.1178  0.8105  0.4098
  175SAPS   C3119911   4.601  -0.071   2.287  0.0410 -0.5522 -1.0920
  175SAPS   O3219912   4.498  -0.086   2.223  0.6649 -0.2890  0.0480
  175SAPS   C3219913   4.659  -0.182   2.378 -0.0083 -0.5126  0.1819
  175SAPS   H2X19914   4.716  -0.141   2.464 -0.7154 -1.5620  1.1792
  175SAPS   H2Y19915   4.716  -0.254   2.316 -0.6415 -0.5546 -0.3660
  175SAPS   C2319916   4.564   0.196   2.753  0.2918 -0.0460  0.3447
  175SAPS   H3R19917   4.646   0.226   2.822  0.3378  0.4280  0.0849
  175SAPS   H3S19918   4.565   0.085   2.749  1.3260 -0.0061 -1.6672
  175SAPS   C2419919   4.424   0.242   2.798 -0.5085  0.2012  0.1502
  175SAPS   H4R19920   4.407   0.201   2.900 -1.2362 -1.0510 -0.4511
  175SAPS   H4S19921   4.343   0.201   2.735 -1.0153 -0.0777  0.9619
  175SAPS   C2519922   4.423   0.395   2.810 -0.6424  1.0547  0.1553
  175SAPS   H5R19923   4.402   0.450   2.717  1.7257  1.1205 -0.3896
  175SAPS   C2619924   4.458   0.463   2.922  1.2959  0.5272 -0.7192
  175SAPS   H6R19925   4.466   0.572   2.910  0.4252  0.7687  0.7009
  175SAPS   C2719926   4.497   0.399   3.061  0.2498 -0.9294  0.5029
  175SAPS   H7R19927   4.560   0.469   3.120 -0.4023 -0.3083  0.4657
  175SAPS   H7S19928   4.578   0.328   3.033  0.9130 -0.3549  0.9404
  175SAPS   C2819929   4.394   0.329   3.145 -0.2133  0.7738  0.0651
  175SAPS   H8R19930   4.335   0.256   3.087  1.9611 -0.1436 -1.1575
  175SAPS   C2919931   4.379   0.360   3.276 -0.2582 -0.2659 -0.1255
  175SAPS   H9R19932   4.316   0.294   3.337 -1.9437  0.3473 -1.1119
  175SAPS  C21019933   4.439   0.478   3.357  0.4409 -0.2641  0.5228
  175SAPS  H10R19934   4.535   0.510   3.311 -0.4916 -0.9759 -2.1429
  175SAPS  H10S19935   4.472   0.441   3.456 -0.6472  0.1412  1.0426
  175SAPS  C21119936   4.360   0.604   3.375  0.0977  0.3453  0.8181
  175SAPS  H11R19937   4.320   0.642   3.280  1.2045 -3.0896 -1.1864
  175SAPS  C21219938   4.316   0.655   3.492 -0.1945  0.1735 -0.4289
  175SAPS  H12R19939   4.264   0.752   3.499 -0.6241 -0.1032  0.4317
  175SAPS  C21319940   4.348   0.604   3.631  0.3953  0.0938 -0.4654
  175SAPS  H13R19941   4.450   0.634   3.660 -0.7817  4.2157  0.0583
  175SAPS  H13S19942   4.344   0.493   3.644 -1.8486  0.2517  0.7122
  175SAPS  C21419943   4.240   0.650   3.728  0.7024  0.1275  0.4696
  175SAPS  H14R19944   4.136   0.630   3.699  1.0349  1.3431 -1.8278
  175SAPS  C21519945   4.257   0.710   3.846 -0.5427  0.3225  0.0326
  175SAPS  H15R19946   4.176   0.741   3.913 -0.9399 -1.4704  0.4507
  175SAPS  C21619947   4.396   0.731   3.904 -0.5185  0.2723  0.3776
  175SAPS  H16R19948   4.431   0.836   3.909  1.5547 -0.3460  0.0382
  175SAPS  H16S19949   4.481   0.684   3.849  0.0078  1.0269  0.5224
  175SAPS  C21719950   4.412   0.689   4.055  0.1964 -0.4690  0.1383
  175SAPS  H17R19951   4.368   0.587   4.068 -2.7417  0.7203  0.2174
  175SAPS  H17S19952   4.344   0.753   4.114  0.6284 -1.4514  1.7652
  175SAPS  C21819953   4.553   0.692   4.110  0.2049  0.5485 -0.3443
  175SAPS  H18R19954   4.561   0.663   4.217 -2.9596 -0.4618 -0.2832
  175SAPS  H18S19955   4.595   0.794   4.096  2.2843 -0.4057 -1.6257
  175SAPS  C21919956   4.653   0.606   4.034  0.0695 -0.1737  0.1600
  175SAPS  H19R19957   4.654   0.623   3.924  0.9433 -3.0250 -0.3717
  175SAPS  H19S19958   4.632   0.497   4.042  0.3156 -0.0682  3.3825
  175SAPS  C22019959   4.796   0.629   4.087 -0.2444 -0.2976  0.5723
  175SAPS  H20R19960   4.865   0.551   4.049 -0.9332 -1.2310  1.1951
  175SAPS  H20S19961   4.788   0.628   4.197 -1.3443 -1.1530  0.4964
  175SAPS  H20T19962   4.837   0.729   4.062  0.7121 -0.2426  2.2241
  175SAPS   C3319963   4.547  -0.271   2.431 -0.1570 -0.4556 -0.1235
  175SAPS   H3X19964   4.584  -0.369   2.469 -0.2677  0.2114  1.8236
  175SAPS   H3Y19965   4.485  -0.304   2.345 -0.6900  0.4348 -0.0876
  175SAPS   C3419966   4.467  -0.206   2.548  0.1170 -0.8325  0.6026
  175SAPS   H4X19967   4.389  -0.282   2.568  1.0055 -2.9819 -3.2083
  175SAPS   H4Y19968   4.417  -0.116   2.508  1.4266 -0.5586 -0.4961
  175SAPS   C3519969   4.543  -0.199   2.675 -0.4607 -0.4971  0.0051
  175SAPS   H5X19970   4.611  -0.111   2.677 -2.1102  0.8160  1.9052
  175SAPS   H5Y19971   4.595  -0.297   2.676 -1.8224 -1.2448  1.2838
  175SAPS   C3619972   4.445  -0.207   2.796 -0.3842 -0.2264  0.5122
  175SAPS   H6X19973   4.375  -0.291   2.773 -1.5132  0.5537  1.0249
  175SAPS   H6Y19974   4.380  -0.118   2.803  0.4516  0.6385 -1.8759
  175SAPS   C3719975   4.518  -0.246   2.929  0.4372 -0.4264  0.2025
  175SAPS   H7X19976   4.588  -0.319   2.882 -1.4773 -1.7428 -0.7527
  175SAPS   H7Y19977   4.453  -0.308   2.994 -0.7478 -0.6333 -1.1205
  175SAPS   C3819978   4.581  -0.126   2.996  0.1830  0.1385 -1.1297
  175SAPS   H8X19979   4.527  -0.032   2.971  0.1230 -0.4159 -3.3588
  175SAPS   H8Y19980   4.687  -0.132   2.961 -0.0060 -2.5200 -1.5175
  175SAPS   C3919981   4.585  -0.145   3.152 -0.0939 -0.4567  0.0975
  175SAPS   H9X19982   4.665  -0.219   3.170  0.6100  0.0648 -0.7828
  175SAPS   H9Y19983   4.489  -0.183   3.193 -0.9463  2.8787  1.6025
  175SAPS  C31019984   4.613  -0.018   3.230 -0.1566 -0.2524  0.6627
  175SAPS  H10X19985   4.537   0.053   3.191 -0.7617 -2.3401 -2.2812
  175SAPS  H10Y19986   4.718   0.004   3.203 -0.4999  2.5027  1.2297
  175SAPS  C31119987   4.614  -0.033   3.384  0.5352 -0.1276  0.0832
  175SAPS  H11X19988   4.647  -0.138   3.401  0.9654 -0.1800 -1.0290
  175SAPS  H11Y19989   4.510  -0.034   3.423  0.0976 -3.9521 -0.8171
  175SAPS  C31219990   4.693   0.079   3.460  0.5650  0.0600  0.2205
  175SAPS  H12X19991   4.656   0.183   3.448  2.1066  1.1964  4.0695
  175SAPS  H12Y19992   4.799   0.089   3.427  0.0642  2.7585 -0.8122
  175SAPS  C31319993   4.707   0.060   3.618 -0.2933 -0.6364  0.5251
  175SAPS  H13X19994   4.761  -0.034   3.643 -2.5290 -1.5499  2.3177
  175SAPS  H13Y19995   4.612   0.073   3.674 -0.6486  1.6459 -0.4979
  175SAPS  C31419996   4.796   0.163   3.683 -0.2509  0.1381 -0.6522
  175SAPS  H14X19997   4.757   0.262   3.652  0.1228  0.4252 -0.2163
  175SAPS  H14Y19998   4.890   0.158   3.625  0.1379 -1.2154  0.0479
  175SAPS  C31519999   4.804   0.135   3.832  1.0044 -0.1697  0.1786
  175SAPS  H15X20000   4.816   0.025   3.835  0.2938 -0.2359  1.2151
  175SAPS  H15Y20001   4.708   0.172   3.874 -0.1195  0.3525 -2.6168
  175SAPS  C31620002   4.922   0.210   3.890 -0.7204  0.6425 -0.5523
  175SAPS  H16X20003   4.907   0.317   3.865  2.8848  1.3971 -0.1068
  175SAPS  H16Y20004   5.017   0.176   3.844  0.0669  1.6209  0.2866
  175SAPS  C31720005   4.919   0.196   4.043  0.5503  0.0108  0.1159
  175SAPS  H17X20006   4.941   0.091   4.072 -2.4854 -0.8716 -0.3742
  175SAPS  H17Y20007   4.821   0.240   4.071  1.8553  3.8034 -0.7117
  175SAPS  C31820008   5.020   0.298   4.103  0.4215  0.1182  0.0467
  175SAPS  H18X20009   4.981   0.400   4.084 -1.4022 -1.0204 -2.9546
  175SAPS  H18Y20010   5.117   0.290   4.050 -0.1226  0.9456 -1.1055
  175SAPS  H18Z20011   5.039   0.278   4.211  3.0881 -1.6255 -0.6621
  176SAPS     N20012   4.657   5.981   2.000 -0.2011 -0.4372  0.1085
  176SAPS   HN120013   4.556   5.962   2.018 -0.3479  0.1806 -0.0268
  176SAPS   HN220014   4.711   5.941   2.079 -0.0615 -3.9126 -1.5785
  176SAPS   HN320015   4.671   6.084   1.992 -3.0277 -0.0918 -1.9354
  176SAPS   C1220016   4.715   5.919   1.878  0.1359  0.9866 -0.7894
  176SAPS  H12A20017   4.659   5.828   1.869  1.2655  0.0862  0.8288
  176SAPS   C1320018   4.712   6.001   1.747 -0.9041  0.8004  0.3758
  176SAPS  O13A20019   4.641   6.102   1.741  0.2758 -0.2563 -0.0784
  176SAPS  O13B20020   4.774   5.958   1.646  0.2003  0.3111  0.1251
  176SAPS   C1120021   4.859   5.882   1.902  0.1539  0.1704 -0.3249
  176SAPS  H11A20022   4.913   5.976   1.925  1.4366 -0.3856 -0.9769
  176SAPS  H11B20023   4.909   5.830   1.817  2.0920  0.6057  0.4815
  176SAPS     P20024   4.859   5.649   2.031  0.5411 -0.4570 -0.3633
  176SAPS   O1320025   4.710   5.642   2.056 -0.1114  0.2731 -0.4478
  176SAPS   O1420026   4.907   5.583   1.906  0.1775 -0.4180 -0.1160
  176SAPS   O1220027   4.891   5.801   2.020 -0.0227 -0.1167 -0.3132
  176SAPS   O1120028   4.946   5.602   2.157  0.2019 -0.3292  0.2162
  176SAPS    C120029   4.948   5.663   2.284  0.0066  0.3077  0.5511
  176SAPS    HA20030   4.961   5.774   2.285  2.9447  0.0196  1.2844
  176SAPS    HB20031   4.847   5.641   2.325  0.5836  0.8429  2.3225
  176SAPS    C220032   5.058   5.604   2.373 -0.4782 -0.3781  0.0014
  176SAPS    HS20033   5.153   5.598   2.316 -0.8911 -0.6432 -0.6840
  176SAPS   O2120034   5.017   5.470   2.418 -0.4325  0.2605 -0.5289
  176SAPS   C2120035   5.121   5.390   2.440  0.7115 -0.2923  1.0290
  176SAPS   O2220036   5.240   5.421   2.422  0.2279  0.1556 -0.0526
  176SAPS   C2220037   5.068   5.255   2.460  0.0575 -0.2559  0.0655
  176SAPS   H2R20038   4.983   5.261   2.531 -1.1546  0.4739 -1.3921
  176SAPS   H2S20039   5.032   5.223   2.360  0.6892 -1.6084  0.2456
  176SAPS    C320040   5.074   5.707   2.486 -0.2064  0.2039 -0.5525
  176SAPS    HX20041   4.977   5.711   2.540  0.6745 -1.2698  1.2577
  176SAPS    HY20042   5.107   5.808   2.452 -1.4937 -0.0871 -2.8772
  176SAPS   O3120043   5.157   5.650   2.592  0.4043 -0.3508 -0.1058
  176SAPS   C3120044   5.284   5.672   2.569 -0.0170  0.2756  0.2838
  176SAPS   O3220045   5.331   5.725   2.467  0.0788  0.1988  0.0280
  176SAPS   C3220046   5.359   5.641   2.694  0.4574 -0.0502 -0.1287
  176SAPS   H2X20047   5.385   5.535   2.673  0.4099  0.2295 -1.7713
  176SAPS   H2Y20048   5.289   5.660   2.778  1.2776 -1.2520  0.8539
  176SAPS   C2320049   5.184   5.153   2.495 -0.6760 -0.2508  0.3902
  176SAPS   H3R20050   5.275   5.166   2.433  0.4845  0.9078  2.2389
  176SAPS   H3S20051   5.149   5.048   2.484 -0.7276 -0.2324  0.3780
  176SAPS   C2420052   5.247   5.158   2.642 -0.5015 -0.3094  0.3551
  176SAPS   H4R20053   5.317   5.244   2.652  0.0344 -0.6995  0.0191
  176SAPS   H4S20054   5.321   5.076   2.652  0.5458  0.7713  1.9267
  176SAPS   C2520055   5.148   5.147   2.752  0.4084 -0.1477  0.5354
  176SAPS   H5R20056   5.125   5.040   2.765 -0.6487  0.0553  0.4294
  176SAPS   C2620057   5.086   5.244   2.821 -0.1470 -0.8184 -0.1041
  176SAPS   H6R20058   5.007   5.220   2.895 -2.9223  1.1959 -2.1926
  176SAPS   C2720059   5.112   5.393   2.813  0.2620  0.4724 -0.0765
  176SAPS   H7R20060   5.126   5.432   2.710 -2.2068  1.8119  0.0177
  176SAPS   H7S20061   5.214   5.413   2.853  0.0404  2.7879 -0.5249
  176SAPS   C2820062   5.011   5.486   2.885 -0.3646  0.5236  0.3924
  176SAPS   H8R20063   4.941   5.526   2.810  0.7067 -2.6688 -2.5792
  176SAPS   C2920064   5.008   5.514   3.013 -0.6093 -0.2568 -0.7584
  176SAPS   H9R20065   4.930   5.578   3.056 -1.0585 -1.5542  0.4427
  176SAPS  C21020066   5.092   5.443   3.119 -0.6676 -0.0087  0.5362
  176SAPS  H10R20067   5.121   5.514   3.200  0.3943  0.6874 -0.4340
  176SAPS  H10S20068   5.190   5.407   3.083 -0.1297  1.1291  0.7888
  176SAPS  C21120069   5.042   5.316   3.182 -0.1013  0.5343 -0.5822
  176SAPS  H11R20070   5.068   5.217   3.142 -3.4575 -1.1396  0.9306
  176SAPS  C21220071   4.978   5.297   3.303 -0.4622  0.3902  0.0498
  176SAPS  H12R20072   4.965   5.193   3.337  0.0596  0.8526  1.7522
  176SAPS  C21320073   4.922   5.394   3.398  0.5168  0.1710 -0.0296
  176SAPS  H13R20074   4.844   5.339   3.455  1.7831 -1.9223 -0.2046
  176SAPS  H13S20075   4.861   5.474   3.350 -1.4929 -1.8060 -0.9656
  176SAPS  C21420076   5.014   5.461   3.494  0.5244  0.0484 -0.3584
  176SAPS  H14R20077   5.087   5.524   3.442 -0.2328  1.6805  0.4721
  176SAPS  C21520078   5.020   5.462   3.628 -0.1307  0.2148  0.5860
  176SAPS  H15R20079   5.096   5.529   3.671  1.7131 -1.3573 -0.0628
  176SAPS  C21620080   4.938   5.400   3.732  1.1780  0.3275  0.2593
  176SAPS  H16R20081   5.005   5.355   3.809  0.3593 -0.0264  0.7747
  176SAPS  H16S20082   4.871   5.319   3.695  0.6224  0.7310  0.3788
  176SAPS  C21720083   4.853   5.503   3.800  0.1092  0.0406  0.1697
  176SAPS  H17R20084   4.909   5.593   3.833 -0.5839 -0.5215  3.2427
  176SAPS  H17S20085   4.817   5.463   3.898 -1.3223 -2.4614 -1.2582
  176SAPS  C21820086   4.724   5.541   3.721  0.8452  0.2584 -0.0138
  176SAPS  H18R20087   4.745   5.549   3.613 -0.5665  2.9854 -0.1947
  176SAPS  H18S20088   4.678   5.640   3.745 -0.0877  0.4084 -2.1905
  176SAPS  C21920089   4.604   5.443   3.749  0.1660  0.2441 -0.0583
  176SAPS  H19R20090   4.575   5.432   3.856  0.6643 -0.1957  0.0364
  176SAPS  H19S20091   4.633   5.342   3.711  0.2206  0.6390 -1.0751
  176SAPS  C22020092   4.468   5.469   3.670 -0.5121  0.1051  0.2486
  176SAPS  H20R20093   4.399   5.391   3.707  1.1394 -0.9005  1.3629
  176SAPS  H20S20094   4.474   5.460   3.560 -0.1531  0.1578  0.2608
  176SAPS  H20T20095   4.429   5.570   3.695  0.4047  0.8378 -1.1444
  176SAPS   C3320096   5.495   5.713   2.703  0.3260  0.1701 -0.6508
  176SAPS   H3X20097   5.474   5.819   2.680 -0.3840  0.3594  0.7750
  176SAPS   H3Y20098   5.565   5.658   2.637  0.1440 -0.8736 -0.0027
  176SAPS   C3420099   5.551   5.708   2.845 -0.2623 -0.2488 -0.1160
  176SAPS   H4X20100   5.565   5.603   2.877  2.0415  0.0669  0.0406
  176SAPS   H4Y20101   5.465   5.751   2.901  0.8209  0.4434  1.0585
  176SAPS   C3520102   5.682   5.788   2.871  0.1900 -0.3910  0.1754
  176SAPS   H5X20103   5.703   5.825   2.973 -1.6132  4.4327 -0.9058
  176SAPS   H5Y20104   5.668   5.888   2.823  0.3770  0.4363  1.7943
  176SAPS   C3620105   5.797   5.719   2.800 -0.2446 -0.1564 -0.5848
  176SAPS   H6X20106   5.855   5.794   2.742 -0.8105 -0.3043 -1.3526
  176SAPS   H6Y20107   5.755   5.642   2.732  1.0561 -2.3359  0.9437
  176SAPS   C3720108   5.893   5.641   2.894  0.2471  0.5580 -0.5272
  176SAPS   H7X20109   5.938   5.707   2.971  0.0805  4.2343 -3.2819
  176SAPS   H7Y20110   5.974   5.596   2.833  0.3063  0.6939 -0.5506
  176SAPS   C3820111   5.838   5.524   2.978  0.7000  1.0829 -0.3535
  176SAPS   H8X20112   5.841   5.444   2.900  0.7756  1.9863 -1.2966
  176SAPS   H8Y20113   5.736   5.547   3.017  0.8644 -0.6853  1.2522
  176SAPS   C3920114   5.930   5.486   3.101 -0.0879  0.0641  0.6486
  176SAPS   H9X20115   5.943   5.577   3.164  0.3258  0.2763  0.2655
  176SAPS   H9Y20116   6.029   5.456   3.063 -1.2917 -1.9455 -1.1340
  176SAPS  C31020117   5.873   5.365   3.185  0.2202  0.5769  0.9242
  176SAPS  H10X20118   5.861   5.275   3.120  0.6801  0.8334  0.4803
  176SAPS  H10Y20119   5.772   5.400   3.215  1.1299  3.2448  1.1206
  176SAPS  C31120120   5.968   5.332   3.303  0.8059 -0.1154 -0.5649
  176SAPS  H11X20121   6.073   5.334   3.267  0.8268  1.6685 -0.4839
  176SAPS  H11Y20122   5.942   5.235   3.350 -0.6189  0.3771 -0.2744
  176SAPS  C31220123   5.958   5.442   3.411  0.2617 -0.2544  0.3153
  176SAPS  H12X20124   5.988   5.541   3.370  0.5384  0.7527  2.7743
  176SAPS  H12Y20125   6.031   5.425   3.492  1.4291  1.9019 -0.2111
  176SAPS  C31320126   5.821   5.462   3.476 -0.0837  0.2635 -0.0428
  176SAPS  H13X20127   5.774   5.361   3.480 -1.1271  0.6832 -1.0682
  176SAPS  H13Y20128   5.761   5.517   3.400 -0.0805  0.7588  0.3083
  176SAPS  C31420129   5.812   5.540   3.609  0.1487  0.7358 -0.1901
  176SAPS  H14X20130   5.858   5.641   3.609  1.1341  0.3449  2.3458
  176SAPS  H14Y20131   5.881   5.481   3.673 -0.6525 -0.5649 -0.4992
  176SAPS  C31520132   5.674   5.538   3.665 -0.3193 -0.1335  0.1402
  176SAPS  H15X20133   5.613   5.548   3.573 -1.1219  0.7559  0.7492
  176SAPS  H15Y20134   5.652   5.629   3.724 -1.5438  0.1488 -0.7150
  176SAPS  C31620135   5.631   5.412   3.739  0.4598  0.3163  0.0613
  176SAPS  H16X20136   5.713   5.400   3.813 -0.2084  0.0010  0.7623
  176SAPS  H16Y20137   5.630   5.328   3.667 -3.4201  1.4660 -1.4804
  176SAPS  C31720138   5.496   5.416   3.798 -0.4329  0.3292  0.2063
  176SAPS  H17X20139   5.485   5.505   3.863 -1.3195 -1.4122  2.5725
  176SAPS  H17Y20140   5.504   5.330   3.868  0.1086 -1.0296 -1.4528
  176SAPS  C31820141   5.386   5.423   3.695  0.5228 -0.0426 -0.3567
  176SAPS  H18X20142   5.405   5.364   3.603 -2.2223 -0.2404 -0.9047
  176SAPS  H18Y20143   5.375   5.528   3.660 -0.6327  0.0601  0.2364
  176SAPS  H18Z20144   5.295   5.384   3.746 -0.2205  0.3325 -1.3536
  177SAPS     N20145   0.665   1.442   2.130  0.3476 -0.2575  0.0822
  177SAPS   HN120146   0.755   1.421   2.178  0.1571  0.7295  0.9071
  177SAPS   HN220147   0.702   1.470   2.037  2.3534  1.0382  1.1885
  177SAPS   HN320148   0.611   1.521   2.171  0.2135 -1.5050  2.4964
  177SAPS   C1220149   0.572   1.328   2.111  0.2451 -0.0590 -0.4286
  177SAPS  H12A20150   0.491   1.383   2.067 -1.1557 -1.4929  0.2258
  177SAPS   C1320151   0.631   1.214   2.012 -0.2750 -0.6728 -0.1351
  177SAPS  O13A20152   0.733   1.250   1.944 -0.1582  0.3076  0.1830
  177SAPS  O13B20153   0.548   1.127   1.974  0.2991  0.1683 -0.5240
  177SAPS   C1120154   0.540   1.281   2.249  0.0530  0.2164  0.1276
  177SAPS  H11A20155   0.630   1.252   2.307 -0.4559  0.8081  1.2518
  177SAPS  H11B20156   0.474   1.192   2.234  0.0036  0.3130 -0.2375
  177SAPS     P20157   0.331   1.421   2.329 -0.2565  0.0668  0.2113
  177SAPS   O1320158   0.313   1.540   2.418  0.3346 -0.2766  0.2155
  177SAPS   O1420159   0.279   1.425   2.189 -0.3095 -0.5679 -0.6290
  177SAPS   O1220160   0.482   1.385   2.326  0.5970  0.1577  0.3868
  177SAPS   O1120161   0.276   1.290   2.397 -0.4269 -0.0420 -0.3159
  177SAPS    C120162   0.145   1.276   2.446  0.8021  0.5693  0.2831
  177SAPS    HA20163   0.075   1.341   2.390  0.6281 -0.3774 -0.6260
  177SAPS    HB20164   0.102   1.175   2.428  0.1775  0.9912 -0.6263
  177SAPS    C220165   0.130   1.294   2.596  0.1329 -1.0438 -0.7417
  177SAPS    HS20166   0.031   1.254   2.628  0.0452  0.7612  1.6012
  177SAPS   O2120167   0.156   1.434   2.627  0.1372 -0.3926  0.1768
  177SAPS   C2120168   0.043   1.510   2.656  0.0214  0.1098 -0.6609
  177SAPS   O2220169  -0.073   1.475   2.639  0.6548 -0.2910  0.6757
  177SAPS   C2220170   0.086   1.646   2.718 -0.1197  0.3426  0.3871
  177SAPS   H2R20171   0.180   1.667   2.662 -1.3570  1.1316 -1.4861
  177SAPS   H2S20172   0.017   1.730   2.693 -0.7111 -0.4467 -0.7342
  177SAPS    C320173   0.238   1.209   2.669 -0.5795  1.1826  0.5453
  177SAPS    HX20174   0.340   1.225   2.626  0.8789 -2.3071  2.3179
  177SAPS    HY20175   0.223   1.103   2.640  0.0340  1.5393 -1.1847
  177SAPS   O3120176   0.240   1.224   2.813  0.0256 -0.3796  0.2056
  177SAPS   C3120177   0.323   1.317   2.872  0.5330  0.3274 -0.3753
  177SAPS   O3220178   0.403   1.383   2.813  0.0950 -0.2157 -0.8351
  177SAPS   C3220179   0.293   1.311   3.022 -0.7613 -0.4886 -0.3199
  177SAPS   H2X20180   0.352   1.227   3.064 -0.7219  0.9686  2.8356
  177SAPS   H2Y20181   0.186   1.285   3.030  0.1247 -4.6936  0.0848
  177SAPS   C2320182   0.137   1.630   2.864  0.0578  0.4201 -0.3386
  177SAPS   H3R20183   0.199   1.714   2.903 -2.1401  1.5455  0.9324
  177SAPS   H3S20184   0.212   1.548   2.867 -1.2822 -0.8283  0.4266
  177SAPS   C2420185   0.021   1.609   2.953  0.3435  0.3859 -0.0627
  177SAPS   H4R20186   0.044   1.553   3.047 -0.6631 -1.9766 -1.1347
  177SAPS   H4S20187  -0.058   1.542   2.912 -0.5070  1.0603  0.4387
  177SAPS   C2520188  -0.067   1.729   2.978 -0.8805  0.6207 -0.1346
  177SAPS   H5R20189  -0.135   1.738   2.892  0.5558 -2.0375 -1.6970
  177SAPS   C2620190  -0.076   1.806   3.092 -0.5726 -0.0868  0.1449
  177SAPS   H6R20191  -0.153   1.885   3.089  0.3782  0.9395  1.8001
  177SAPS   C2720192   0.002   1.802   3.223 -0.2833  0.5587  0.0432
  177SAPS   H7R20193   0.100   1.837   3.185  0.7803 -0.4581  1.7287
  177SAPS   H7S20194   0.033   1.700   3.256  0.6388 -0.0174 -2.3635
  177SAPS   C2820195  -0.044   1.892   3.333 -0.1375 -0.6449 -0.1404
  177SAPS   H8R20196  -0.042   2.001   3.315  0.3131 -0.6134  0.0776
  177SAPS   C2920197  -0.108   1.850   3.440  0.5179 -0.2302  0.1656
  177SAPS   H9R20198  -0.137   1.926   3.515  0.6235  0.2926 -0.3133
  177SAPS  C21020199  -0.151   1.701   3.474 -1.0750 -0.1780  0.2876
  177SAPS  H10R20200  -0.171   1.647   3.378  1.1890  0.4002 -0.5949
  177SAPS  H10S20201  -0.246   1.695   3.530 -0.3565  0.9500  1.6785
  177SAPS  C21120202  -0.054   1.621   3.556  0.3601 -0.0386  0.5804
  177SAPS  H11R20203   0.029   1.576   3.500  0.7396  1.9884 -0.5738
  177SAPS  C21220204  -0.064   1.595   3.687 -0.3889  0.0565  0.5081
  177SAPS  H12R20205   0.018   1.532   3.725 -1.0899 -2.3356 -1.6905
  177SAPS  C21320206  -0.164   1.646   3.791  0.4000 -0.0647  0.1761
  177SAPS  H13R20207  -0.231   1.564   3.825 -0.1791 -0.3081 -1.4704
  177SAPS  H13S20208  -0.235   1.715   3.742 -1.3883 -0.2377  2.3283
  177SAPS  C21420209  -0.090   1.711   3.903  0.3734  0.3562 -0.4617
  177SAPS  H14R20210  -0.006   1.774   3.870  0.6511  0.0676 -0.3157
  177SAPS  C21520211  -0.120   1.718   4.037 -0.2102  0.2531  0.2700
  177SAPS  H15R20212  -0.054   1.773   4.106  0.3535 -0.4890  0.3370
  177SAPS  C21620213  -0.239   1.638   4.091 -0.1893 -0.1776  0.9681
  177SAPS  H16R20214  -0.201   1.543   4.135  4.6173  1.0592  0.0452
  177SAPS  H16S20215  -0.323   1.622   4.020  0.1079 -1.3583  0.8611
  177SAPS  C21720216  -0.310   1.728   4.195  0.0521  0.5406  0.5985
  177SAPS  H17R20217  -0.338   1.824   4.148  0.6987  0.0323 -0.8853
  177SAPS  H17S20218  -0.238   1.738   4.280  0.5716 -3.9755  0.9440
  177SAPS  C21820219  -0.435   1.655   4.244  0.3505 -0.2944 -0.3576
  177SAPS  H18R20220  -0.416   1.547   4.262 -0.7827 -0.4193  0.1641
  177SAPS  H18S20221  -0.522   1.666   4.175  0.1759 -2.3624 -0.5093
  177SAPS  C21920222  -0.477   1.718   4.376 -0.5596  0.1633 -0.0290
  177SAPS  H19R20223  -0.493   1.828   4.375  0.6862  0.3652 -0.8592
  177SAPS  H19S20224  -0.394   1.702   4.448  0.4582 -2.6960 -1.6903
  177SAPS  C22020225  -0.606   1.663   4.425 -0.0148 -0.2936 -0.0821
  177SAPS  H20R20226  -0.683   1.678   4.346 -1.0796  2.7261  1.4000
  177SAPS  H20S20227  -0.649   1.721   4.509  1.0536  0.2291  0.1260
  177SAPS  H20T20228  -0.592   1.555   4.446  2.3454  0.3541  2.1577
  177SAPS   C3320229   0.327   1.442   3.107 -0.5512  0.2096  0.5026
  177SAPS   H3X20230   0.263   1.529   3.082 -3.3638 -1.8027  0.2411
  177SAPS   H3Y20231   0.434   1.465   3.085 -0.5273  0.9937  1.4052
  177SAPS   C3420232   0.295   1.417   3.252 -0.1601 -0.1453  0.3343
  177SAPS   H4X20233   0.361   1.331   3.276 -0.0973 -0.2603 -0.2511
  177SAPS   H4Y20234   0.191   1.380   3.261 -1.3283  2.4492 -1.2950
  177SAPS   C3520235   0.328   1.541   3.338 -0.0490  0.4128 -0.5661
  177SAPS   H5X20236   0.226   1.584   3.352 -1.1173 -2.2163  0.4687
  177SAPS   H5Y20237   0.400   1.606   3.284  0.0333  1.4390  0.7312
  177SAPS   C3620238   0.365   1.502   3.480 -1.2126 -0.9685 -0.3342
  177SAPS   H6X20239   0.466   1.456   3.477  1.2925  3.8631 -0.2392
  177SAPS   H6Y20240   0.289   1.427   3.510 -1.8928 -1.8721 -3.8687
  177SAPS   C3720241   0.387   1.620   3.582  0.4498 -0.0433  0.5048
  177SAPS   H7X20242   0.296   1.679   3.605 -0.5940 -1.9113  1.3551
  177SAPS   H7Y20243   0.457   1.691   3.532  0.7428 -2.0014 -2.0477
  177SAPS   C3820244   0.454   1.562   3.706  0.7037 -0.5089  0.1271
  177SAPS   H8X20245   0.553   1.515   3.693  0.0985 -1.5049 -1.1402
  177SAPS   H8Y20246   0.387   1.481   3.742 -1.4816  1.1457  0.0414
  177SAPS   C3920247   0.483   1.668   3.815 -0.5425  0.6449 -0.2757
  177SAPS   H9X20248   0.519   1.608   3.902  3.2123 -2.6455 -3.6291
  177SAPS   H9Y20249   0.397   1.731   3.844 -0.3410  1.5469 -1.5841
  177SAPS  C31020250   0.595   1.761   3.768  0.0899  0.5346  0.2300
  177SAPS  H10X20251   0.559   1.806   3.673  0.6147  1.3061  0.3966
  177SAPS  H10Y20252   0.687   1.700   3.754  0.4006  0.9327  0.5351
  177SAPS  C31120253   0.630   1.883   3.857 -0.5410  0.2154  0.6931
  177SAPS  H11X20254   0.693   1.839   3.938  2.3777 -1.3887 -2.1927
  177SAPS  H11Y20255   0.540   1.932   3.900 -0.0949  2.3025 -0.6132
  177SAPS  C31220256   0.719   1.988   3.794  0.2919  0.3171 -0.0403
  177SAPS  H12X20257   0.687   2.026   3.694 -2.5498  2.1164  1.3934
  177SAPS  H12Y20258   0.819   1.941   3.785  1.5252  2.5782  1.0909
  177SAPS  C31320259   0.735   2.121   3.873  0.4633  0.7943 -0.0097
  177SAPS  H13X20260   0.746   2.095   3.980  0.2764  1.8567  0.2784
  177SAPS  H13Y20261   0.640   2.178   3.864 -1.2226 -2.1180 -1.9588
  177SAPS  C31420262   0.849   2.210   3.822 -0.7429  0.1713 -0.5382
  177SAPS  H14X20263   0.929   2.138   3.795 -2.0906 -1.1890 -1.0889
  177SAPS  H14Y20264   0.881   2.272   3.908 -0.9588 -1.9702  1.1896
  177SAPS  C31520265   0.822   2.299   3.701 -0.1811 -0.0734 -0.0702
  177SAPS  H15X20266   0.791   2.239   3.613 -0.2495  0.7815 -0.6417
  177SAPS  H15Y20267   0.916   2.352   3.679  2.0135 -2.4566  2.7306
  177SAPS  C31620268   0.709   2.399   3.733 -0.0428  0.1049  0.0951
  177SAPS  H16X20269   0.730   2.445   3.832  1.3376  0.9172 -0.5482
  177SAPS  H16Y20270   0.613   2.342   3.740  0.1069 -1.5739 -6.0918
  177SAPS  C31720271   0.704   2.516   3.632  0.2383  0.3093  0.1686
  177SAPS  H17X20272   0.789   2.586   3.648  0.3998 -0.3184  2.2505
  177SAPS  H17Y20273   0.603   2.558   3.647  0.4223  0.5884  0.6382
  177SAPS  C31820274   0.694   2.485   3.480 -0.3416 -0.2393 -0.5240
  177SAPS  H18X20275   0.692   2.575   3.414 -0.9395  0.1628  0.0294
  177SAPS  H18Y20276   0.606   2.418   3.472  0.4361 -1.1472 -1.9264
  177SAPS  H18Z20277   0.787   2.435   3.444 -0.5129 -0.5183 -0.5791
  178SAPS     N20278   5.792   3.211   2.207  0.3789 -0.0563  0.6163
  178SAPS   HN120279   5.785   3.226   2.105 -0.5564  0.2241  0.7192
  178SAPS   HN220280   5.801   3.109   2.224  1.2303  0.3736  3.2035
  178SAPS   HN320281   5.710   3.254   2.255  1.2350 -0.3268  2.4301
  178SAPS   C1220282   5.909   3.289   2.264  0.0456  0.0251  0.1351
  178SAPS  H12A20283   5.984   3.294   2.188  0.4232  0.8853  0.5451
  178SAPS   C1320284   5.859   3.427   2.303  0.1839 -0.5936  0.4341
  178SAPS  O13A20285   5.742   3.473   2.288 -0.0998  0.0714  0.3891
  178SAPS  O13B20286   5.934   3.508   2.357 -0.2403 -0.6349 -0.0308
  178SAPS   C1120287   5.950   3.206   2.396  0.6730 -0.1078 -0.4168
  178SAPS  H11A20288   5.859   3.176   2.452  0.4467  0.0000 -0.7246
  178SAPS  H11B20289   6.008   3.277   2.459 -1.2393  0.9736  0.2176
  178SAPS     P20290   6.050   2.981   2.461 -0.4428 -0.2163  0.6620
  178SAPS   O1320291   6.062   3.035   2.594 -0.3324  0.0988 -0.3023
  178SAPS   O1420292   5.943   2.879   2.426  0.0565 -0.0795 -0.2934
  178SAPS   O1220293   6.035   3.097   2.359  0.2487 -1.1299 -0.1250
  178SAPS   O1120294   6.202   2.933   2.420  0.7359  0.2084 -0.5209
  178SAPS    C120295   6.232   2.796   2.435  0.1676  0.3348  0.1638
  178SAPS    HA20296   6.140   2.733   2.428 -1.9929  3.3514 -0.5668
  178SAPS    HB20297   6.297   2.767   2.350 -2.4080 -1.4769 -1.3488
  178SAPS    C220298   6.298   2.755   2.565 -0.2645 -0.5982 -1.1217
  178SAPS    HS20299   6.310   2.645   2.556 -0.3549 -0.7048 -0.0272
  178SAPS   O2120300   6.212   2.795   2.679 -1.1844  0.3008 -0.1138
  178SAPS   C2120301   6.118   2.709   2.720  0.0012 -0.0786 -0.6438
  178SAPS   O2220302   6.097   2.601   2.674  0.0542  0.6891  0.2714
  178SAPS   C2220303   6.049   2.773   2.838 -0.1265 -0.4399  0.2692
  178SAPS   H2R20304   6.108   2.769   2.932  0.5648 -0.0279 -0.1416
  178SAPS   H2S20305   6.049   2.883   2.825  2.2934 -0.0782  2.4108
  178SAPS    C320306   6.451   2.804   2.592  0.5037  0.2787 -0.0045
  178SAPS    HX20307   6.438   2.912   2.612 -0.8702  0.0450  0.4915
  178SAPS    HY20308   6.509   2.787   2.499  0.0172 -0.1323 -0.2395
  178SAPS   O3120309   6.504   2.740   2.706  0.3696  0.0697  0.2842
  178SAPS   C3120310   6.523   2.610   2.712  0.1381  0.6805  0.3490
  178SAPS   O3220311   6.531   2.536   2.613 -0.9091 -0.5327 -0.1064
  178SAPS   C3220312   6.548   2.571   2.864 -0.0085  0.3062 -0.1669
  178SAPS   H2X20313   6.603   2.658   2.905  2.9968 -0.6758 -1.7845
  178SAPS   H2Y20314   6.609   2.479   2.872 -0.7805 -0.1591  0.6264
  178SAPS   C2320315   5.904   2.723   2.861  0.0787  0.8840  0.5445
  178SAPS   H3R20316   5.913   2.612   2.862 -0.2753  0.8404 -0.3927
  178SAPS   H3S20317   5.839   2.749   2.774  0.1795  1.5405  0.6631
  178SAPS   C2420318   5.842   2.755   2.997  0.2350 -0.7556  0.0940
  178SAPS   H4R20319   5.744   2.702   2.991  1.0507 -2.2684 -0.6913
  178SAPS   H4S20320   5.838   2.865   3.004  0.6702 -0.6780 -0.7626
  178SAPS   C2520321   5.913   2.698   3.118 -0.1270  0.3759  0.4294
  178SAPS   H5R20322   6.018   2.723   3.137  0.3704 -0.8321 -0.5772
  178SAPS   C2620323   5.853   2.628   3.217  0.1919  0.0905  0.7799
  178SAPS   H6R20324   5.921   2.596   3.298 -0.1570  1.0729  1.4784
  178SAPS   C2720325   5.702   2.595   3.231 -0.0192  0.2263  0.6613
  178SAPS   H7R20326   5.683   2.500   3.286 -1.5739  0.2067  0.1424
  178SAPS   H7S20327   5.653   2.574   3.133  0.8796  1.6831 -0.1300
  178SAPS   C2820328   5.632   2.710   3.303 -0.0796  0.0481  0.1303
  178SAPS   H8R20329   5.667   2.811   3.277  1.5013 -0.7146 -0.8807
  178SAPS   C2920330   5.540   2.698   3.400  0.2819  0.0113 -0.0291
  178SAPS   H9R20331   5.500   2.794   3.436 -0.4931 -0.7457  1.1929
  178SAPS  C21020332   5.487   2.573   3.472 -0.5813 -0.0126 -0.0333
  178SAPS  H10R20333   5.564   2.494   3.485 -0.2690  0.1754 -0.7006
  178SAPS  H10S20334   5.411   2.520   3.410 -1.0884  0.2126  0.3828
  178SAPS  C21120335   5.431   2.610   3.614 -0.0290 -0.7586 -0.5738
  178SAPS  H11R20336   5.452   2.713   3.645 -0.5220 -0.8652  0.1309
  178SAPS  C21220337   5.355   2.529   3.685  0.1166  0.7064 -0.2829
  178SAPS  H12R20338   5.326   2.562   3.785  0.0339  1.6263 -0.6005
  178SAPS  C21320339   5.317   2.383   3.652  0.3805 -0.8738 -0.4854
  178SAPS  H13R20340   5.375   2.333   3.733  0.0871 -1.7432 -0.7960
  178SAPS  H13S20341   5.348   2.345   3.552  0.3354  1.5448 -1.4652
  178SAPS  C21420342   5.172   2.356   3.662 -0.3032  0.8072  0.1802
  178SAPS  H14R20343   5.123   2.419   3.588  1.7055  2.7657  0.4229
  178SAPS  C21520344   5.112   2.278   3.753 -0.2685  0.1790  0.5335
  178SAPS  H15R20345   5.002   2.270   3.754 -0.1795 -1.6486 -0.7527
  178SAPS  C21620346   5.178   2.179   3.853  0.2922 -0.3640 -0.2044
  178SAPS  H16R20347   5.288   2.180   3.865  0.3217 -0.3725 -0.4599
  178SAPS  H16S20348   5.151   2.084   3.802 -0.3978  0.4392 -1.3976
  178SAPS  C21720349   5.115   2.178   3.994 -0.1235 -0.0936  0.8806
  178SAPS  H17R20350   5.005   2.175   3.983 -0.2779  1.5050  1.6517
  178SAPS  H17S20351   5.134   2.279   4.037 -0.8099  1.2335 -1.6989
  178SAPS  C21820352   5.159   2.052   4.078 -0.5787 -0.6052  0.1006
  178SAPS  H18R20353   5.262   2.073   4.115 -0.3691 -2.3851  0.6268
  178SAPS  H18S20354   5.169   1.955   4.026  2.3596  0.2428 -1.1146
  178SAPS  C21920355   5.075   2.040   4.199 -0.8716 -0.0245 -0.8869
  178SAPS  H19R20356   5.069   2.141   4.246  0.1377  0.3089 -1.4227
  178SAPS  H19S20357   5.114   1.976   4.280 -1.8598  1.2258  0.6479
  178SAPS  C22020358   4.932   2.000   4.167  0.9218 -0.7853  0.3273
  178SAPS  H20R20359   4.883   1.955   4.256  1.1595 -0.5285  0.5891
  178SAPS  H20S20360   4.928   1.917   4.093 -0.8828 -0.8372  0.4382
  178SAPS  H20T20361   4.870   2.082   4.125  2.4403 -0.7852 -2.1756
  178SAPS   C3320362   6.411   2.526   2.929  0.0061  0.4845 -0.3833
  178SAPS   H3X20363   6.389   2.423   2.896  0.6982  0.0513  0.4535
  178SAPS   H3Y20364   6.323   2.588   2.901 -0.9037 -0.3692  0.4885
  178SAPS   C3420365   6.414   2.535   3.082  0.7400  0.0577  0.0587
  178SAPS   H4X20366   6.428   2.643   3.102 -1.4987  0.2383  0.9412
  178SAPS   H4Y20367   6.492   2.469   3.124  0.8914  0.5383  0.5382
  178SAPS   C3520368   6.285   2.477   3.152 -0.4097 -0.3484  0.3686
  178SAPS   H5X20369   6.264   2.370   3.130  1.7929 -1.2816  2.3682
  178SAPS   H5Y20370   6.201   2.544   3.125 -0.1766 -0.3451 -0.3998
  178SAPS   C3620371   6.302   2.490   3.303 -0.4328 -0.0110 -0.0544
  178SAPS   H6X20372   6.361   2.574   3.344 -1.1201 -0.3284  1.6963
  178SAPS   H6Y20373   6.347   2.391   3.329  0.7232  1.4472  4.4299
  178SAPS   C3720374   6.165   2.518   3.368 -0.5480 -0.0837 -0.0442
  178SAPS   H7X20375   6.088   2.458   3.315 -0.2512  0.3786 -1.0335
  178SAPS   H7Y20376   6.139   2.625   3.372  0.4366  0.1274  1.8860
  178SAPS   C3820377   6.165   2.473   3.515 -0.1342  0.1240  0.1315
  178SAPS   H8X20378   6.218   2.376   3.517  0.6563  0.4118 -2.6004
  178SAPS   H8Y20379   6.056   2.466   3.536 -0.5607  2.8096 -0.7780
  178SAPS   C3920380   6.248   2.567   3.604  0.0012  0.6218  0.0286
  178SAPS   H9X20381   6.202   2.668   3.597  1.2122  1.3342  1.6904
  178SAPS   H9Y20382   6.349   2.576   3.557 -0.9311 -0.0865 -2.2580
  178SAPS  C31020383   6.260   2.547   3.752  0.0304 -0.3692  0.1576
  178SAPS  H10X20384   6.325   2.632   3.782  0.5113 -0.8628  0.5300
  178SAPS  H10Y20385   6.321   2.457   3.772  0.6313  0.2647  1.2947
  178SAPS  C31120386   6.130   2.546   3.829  0.2260 -0.6784 -0.9133
  178SAPS  H11X20387   6.056   2.469   3.796 -1.8500 -0.0946  1.9679
  178SAPS  H11Y20388   6.082   2.640   3.795  3.2805  1.2850 -0.2213
  178SAPS  C31220389   6.148   2.584   3.980 -0.0355 -0.2851 -0.3283
  178SAPS  H12X20390   6.042   2.599   4.011 -0.3828 -0.0187 -1.6102
  178SAPS  H12Y20391   6.191   2.686   3.996 -1.9085  0.4345  0.4058
  178SAPS  C31320392   6.218   2.475   4.058 -0.3371  0.4319 -0.1964
  178SAPS  H13X20393   6.321   2.465   4.020  0.1407  0.4917  1.0205
  178SAPS  H13Y20394   6.165   2.383   4.026 -1.8501  1.1559  0.1298
  178SAPS  C31420395   6.228   2.516   4.203 -0.3223  0.6212 -0.7013
  178SAPS  H14X20396   6.141   2.483   4.263  0.2687  1.1155  0.4612
  178SAPS  H14Y20397   6.236   2.627   4.209  0.7951  0.4717  1.3394
  178SAPS  C31520398   6.358   2.454   4.260 -0.0635 -0.0181 -0.4388
  178SAPS  H15X20399   6.451   2.470   4.201 -0.3087 -0.1853 -0.8723
  178SAPS  H15Y20400   6.343   2.344   4.263  2.0670 -0.3512  2.5054
  178SAPS  C31620401   6.378   2.510   4.406 -0.3469  0.0785  0.1614
  178SAPS  H16X20402   6.288   2.480   4.464 -1.0379  1.1782 -0.3007
  178SAPS  H16Y20403   6.376   2.620   4.424 -0.0661 -0.3928  4.1158
  178SAPS  C31720404   6.481   2.437   4.487 -0.4590 -0.1370  0.1773
  178SAPS  H17X20405   6.581   2.450   4.440  0.2081 -2.0419  0.9587
  178SAPS  H17Y20406   6.451   2.330   4.476 -1.3536 -0.0162  1.3068
  178SAPS  C31820407   6.488   2.482   4.637  0.5913  0.1345  0.0955
  178SAPS  H18X20408   6.388   2.481   4.684  0.9189  2.3475  0.9377
  178SAPS  H18Y20409   6.508   2.591   4.642 -0.7285  0.5085 -1.8360
  178SAPS  H18Z20410   6.564   2.429   4.699  1.6093  1.8426  0.3751
  179SAPS     N20411   0.260   0.041   1.885  0.0477  0.7308  0.6213
  179SAPS   HN120412   0.187   0.075   1.950 -1.7905 -0.8577 -0.4986
  179SAPS   HN220413   0.328   0.120   1.881  0.4539  0.3676  0.1768
  179SAPS   HN320414   0.208   0.037   1.795  0.3190 -2.9976  0.4883
  179SAPS   C1220415   0.328  -0.081   1.932 -0.7410 -0.0969  1.4076
  179SAPS  H12A20416   0.254  -0.160   1.938  0.5024 -1.1844  4.0863
  179SAPS   C1320417   0.437  -0.124   1.834 -0.5497  0.6627 -0.2716
  179SAPS  O13A20418   0.473  -0.056   1.738  0.5901 -0.5443 -0.1608
  179SAPS  O13B20419   0.490  -0.237   1.865  0.3524  0.2961  0.0589
  179SAPS   C1120420   0.394  -0.062   2.070 -0.1023  0.2665  0.1906
  179SAPS  H11A20421   0.475   0.013   2.053  1.3641 -1.6516 -1.8221
  179SAPS  H11B20422   0.439  -0.155   2.111  0.9172  0.4111 -0.5481
  179SAPS     P20423   0.215  -0.094   2.266 -0.3960  0.0688 -0.1183
  179SAPS   O1320424   0.121  -0.005   2.337 -0.2131  0.1254  0.4568
  179SAPS   O1420425   0.164  -0.224   2.215  0.0063 -0.0997 -0.7691
  179SAPS   O1220426   0.294  -0.014   2.157 -0.1468  0.2067  0.6007
  179SAPS   O1120427   0.337  -0.132   2.365 -0.5702  0.1883  0.4048
  179SAPS    C120428   0.368  -0.275   2.387  0.4559 -0.1670 -0.5680
  179SAPS    HA20429   0.363  -0.332   2.291 -1.1535  0.0387 -0.6424
  179SAPS    HB20430   0.475  -0.280   2.416 -0.0016 -0.1060  1.2252
  179SAPS    C220431   0.271  -0.346   2.488 -0.4220  0.0695 -0.1588
  179SAPS    HS20432   0.179  -0.364   2.428 -0.4019 -1.0363  0.1085
  179SAPS   O2120433   0.244  -0.260   2.599  0.4281 -0.0041 -0.2715
  179SAPS   C2120434   0.118  -0.262   2.653  0.2736 -0.2526  0.2296
  179SAPS   O2220435   0.023  -0.328   2.613  0.4103  0.1626 -0.1025
  179SAPS   C2220436   0.115  -0.155   2.762  0.1367  0.4106  1.0554
  179SAPS   H2R20437   0.198  -0.178   2.833 -0.6297 -0.3247  1.7259
  179SAPS   H2S20438   0.113  -0.056   2.712  0.5222  1.3641  2.8452
  179SAPS    C320439   0.336  -0.481   2.546 -0.3856  0.0019  0.5250
  179SAPS    HX20440   0.436  -0.449   2.582  0.2285 -1.3500  0.1149
  179SAPS    HY20441   0.347  -0.545   2.456 -1.4982 -0.5471  0.7581
  179SAPS   O3120442   0.248  -0.540   2.642 -0.5506 -0.3225  0.1839
  179SAPS   C3120443   0.309  -0.621   2.725 -0.3673 -0.4235  0.2629
  179SAPS   O3220444   0.426  -0.645   2.719 -0.5671 -0.5482  0.1530
  179SAPS   C3220445   0.210  -0.676   2.828  0.1606  0.0216  0.1612
  179SAPS   H2X20446   0.246  -0.754   2.898 -1.7531  0.6586  1.9416
  179SAPS   H2Y20447   0.143  -0.743   2.770  2.2502 -1.3248 -0.8273
  179SAPS   C2320448  -0.024  -0.165   2.839 -0.1875  0.3039  0.2971
  179SAPS   H3R20449  -0.036  -0.261   2.893  0.6918 -0.3254 -0.6015
  179SAPS   H3S20450  -0.107  -0.155   2.766  0.3837 -1.6832 -0.6952
  179SAPS   C2420451  -0.054  -0.050   2.945  0.1954 -0.1637 -0.0977
  179SAPS   H4R20452  -0.148  -0.083   2.994 -0.7383 -1.2689 -2.4741
  179SAPS   H4S20453  -0.084   0.042   2.890  0.4839  1.6318  2.5705
  179SAPS   C2520454   0.062  -0.024   3.035 -0.2230 -0.1060 -0.0005
  179SAPS   H5R20455   0.150   0.014   2.981  0.1594 -0.8065  0.1234
  179SAPS   C2620456   0.067  -0.053   3.170 -0.0030 -0.4095  0.1932
  179SAPS   H6R20457   0.161  -0.056   3.226 -0.9094  0.4153  1.8193
  179SAPS   C2720458  -0.034  -0.106   3.265  0.2815 -0.3921 -0.1140
  179SAPS   H7R20459  -0.133  -0.077   3.225  0.3817 -1.7344 -1.4329
  179SAPS   H7S20460  -0.026  -0.058   3.365 -2.4046 -2.2223  1.1007
  179SAPS   C2820461  -0.049  -0.253   3.294  0.5343  0.3605  0.6995
  179SAPS   H8R20462  -0.043  -0.317   3.205 -0.4389 -3.1813  2.9800
  179SAPS   C2920463  -0.058  -0.306   3.418 -0.6409 -0.3652 -0.0450
  179SAPS   H9R20464  -0.065  -0.415   3.432  2.1020 -0.7007 -0.7473
  179SAPS  C21020465  -0.072  -0.224   3.544 -1.0071  0.2282  0.5793
  179SAPS  H10R20466  -0.129  -0.128   3.538  0.3431  1.0095 -0.4374
  179SAPS  H10S20467   0.027  -0.178   3.566 -0.7590  0.6107 -1.2283
  179SAPS  C21120468  -0.125  -0.295   3.670 -0.5004  0.0034  1.2288
  179SAPS  H11R20469  -0.231  -0.322   3.661 -0.1768 -0.9208 -0.0884
  179SAPS  C21220470  -0.051  -0.332   3.772 -0.7823 -0.5752  0.5402
  179SAPS  H12R20471  -0.100  -0.377   3.860  0.5751 -0.0650  1.5842
  179SAPS  C21320472   0.093  -0.303   3.797  0.1811 -0.0014  0.0644
  179SAPS  H13R20473   0.110  -0.208   3.853 -0.0586 -0.5144  1.0404
  179SAPS  H13S20474   0.148  -0.306   3.701 -1.1103 -2.3217 -0.6655
  179SAPS  C21420475   0.159  -0.406   3.882  0.5816  0.9881 -0.2356
  179SAPS  H14R20476   0.157  -0.506   3.837 -2.6628  0.4026  0.9496
  179SAPS  C21520477   0.210  -0.391   4.009  0.0944 -0.5328 -0.7161
  179SAPS  H15R20478   0.270  -0.472   4.053  0.7393  0.4549  0.2882
  179SAPS  C21620479   0.203  -0.266   4.097 -0.6487 -0.8269  0.6427
  179SAPS  H16R20480   0.148  -0.175   4.065  0.1357 -1.6213 -3.5934
  179SAPS  H16S20481   0.309  -0.234   4.107 -0.3876 -0.9947 -1.2217
  179SAPS  C21720482   0.117  -0.309   4.226 -0.1736 -0.3940 -0.2734
  179SAPS  H17R20483   0.014  -0.334   4.192  0.2055 -2.5758  0.0417
  179SAPS  H17S20484   0.115  -0.228   4.302  0.0646 -1.2317  0.6394
  179SAPS  C21820485   0.163  -0.432   4.296 -0.8933 -0.8971  0.2098
  179SAPS  H18R20486   0.274  -0.420   4.303 -0.9154 -0.6973  0.2249
  179SAPS  H18S20487   0.143  -0.516   4.226  0.3992  0.4539 -1.8903
  179SAPS  C21920488   0.098  -0.475   4.430 -0.5894 -0.1383  0.1999
  179SAPS  H19R20489  -0.009  -0.497   4.410 -0.0854 -0.3479 -2.6714
  179SAPS  H19S20490   0.109  -0.390   4.501  0.7765 -1.6938  1.9457
  179SAPS  C22020491   0.157  -0.593   4.507  1.0969  0.2015 -0.1124
  179SAPS  H20R20492   0.154  -0.689   4.451 -2.3156  0.3412 -0.3328
  179SAPS  H20S20493   0.096  -0.611   4.597 -0.4132  0.7482 -0.9893
  179SAPS  H20T20494   0.265  -0.582   4.530  1.1191  1.1805 -0.6432
  179SAPS   C3320495   0.122  -0.568   2.892 -0.2158 -0.2307 -0.4695
  179SAPS   H3X20496   0.042  -0.633   2.931 -0.0380  0.3408  0.8845
  179SAPS   H3Y20497   0.083  -0.494   2.818  1.6498  2.4204  1.0292
  179SAPS   C3420498   0.195  -0.493   3.001  0.1711 -0.1385 -0.6527
  179SAPS   H4X20499   0.136  -0.405   3.033 -0.9026 -1.5102  1.3661
  179SAPS   H4Y20500   0.287  -0.445   2.963  0.4780 -0.2150 -0.0144
  179SAPS   C3520501   0.244  -0.569   3.128 -0.5165 -0.8326  0.1301
  179SAPS   H5X20502   0.346  -0.532   3.153 -0.9404  0.4990 -0.0057
  179SAPS   H5Y20503   0.235  -0.679   3.119 -4.0888 -0.7040  0.7074
  179SAPS   C3620504   0.155  -0.544   3.247  0.3308 -0.3397 -0.8057
  179SAPS   H6X20505   0.053  -0.585   3.236 -0.7423  1.4666  1.5721
  179SAPS   H6Y20506   0.158  -0.434   3.263  1.1909 -0.4242 -0.2855
  179SAPS   C3720507   0.228  -0.604   3.376 -0.0864  0.0086  0.2072
  179SAPS   H7X20508   0.329  -0.559   3.373 -0.1038  0.3352  2.5118
  179SAPS   H7Y20509   0.247  -0.711   3.354 -1.2917 -0.3572  0.8577
  179SAPS   C3820510   0.149  -0.581   3.506 -0.0897 -0.1450  0.3326
  179SAPS   H8X20511   0.041  -0.599   3.489  0.1636 -1.3004 -0.0825
  179SAPS   H8Y20512   0.163  -0.476   3.540 -2.0463 -0.0328  0.8817
  179SAPS   C3920513   0.198  -0.667   3.625 -0.2793 -0.0857  0.4550
  179SAPS   H9X20514   0.198  -0.774   3.593 -1.8860  0.7488 -2.7182
  179SAPS   H9Y20515   0.126  -0.653   3.709 -0.5043  0.5353  0.1579
  179SAPS  C31020516   0.338  -0.634   3.674 -0.0855  1.1305 -0.9021
  179SAPS  H10X20517   0.351  -0.526   3.693 -2.5884  1.5466 -1.2718
  179SAPS  H10Y20518   0.406  -0.687   3.603 -0.3305  1.1015 -1.1162
  179SAPS  C31120519   0.371  -0.707   3.809 -1.1269  0.1648 -0.1073
  179SAPS  H11X20520   0.350  -0.816   3.801  1.9126 -0.4000 -2.2308
  179SAPS  H11Y20521   0.301  -0.669   3.887 -2.3024 -0.7052 -0.6913
  179SAPS  C31220522   0.513  -0.680   3.867  0.0473 -0.3587 -0.2147
  179SAPS  H12X20523   0.550  -0.577   3.853 -0.1029 -0.1440  0.9169
  179SAPS  H12Y20524   0.578  -0.757   3.820 -0.1649 -1.0458  0.5877
  179SAPS  C31320525   0.536  -0.711   4.017 -0.1501  0.9269 -0.2423
  179SAPS  H13X20526   0.456  -0.650   4.063  0.8408  1.5593  0.6833
  179SAPS  H13Y20527   0.640  -0.681   4.043 -0.0212  0.3686 -0.0934
  179SAPS  C31420528   0.520  -0.864   4.042  0.2565 -0.2085  0.0245
  179SAPS  H14X20529   0.605  -0.923   4.002  0.0480 -0.1246 -0.5518
  179SAPS  H14Y20530   0.426  -0.903   3.997 -1.5415  3.3025  0.4072
  179SAPS  C31520531   0.516  -0.911   4.200  0.6897  0.3838 -0.3427
  179SAPS  H15X20532   0.615  -0.884   4.241  0.4854 -1.2750  1.3546
  179SAPS  H15Y20533   0.502  -1.021   4.189  1.2490  0.3609 -0.9342
  179SAPS  C31620534   0.393  -0.844   4.269 -0.4147  0.3663 -0.7364
  179SAPS  H16X20535   0.311  -0.860   4.196  2.2169 -0.8899 -3.6858
  179SAPS  H16Y20536   0.415  -0.736   4.280  3.1571 -0.4314  1.9166
  179SAPS  C31720537   0.369  -0.884   4.421 -0.6705 -0.2212  0.6510
  179SAPS  H17X20538   0.398  -0.990   4.440 -1.2311 -0.2069  1.6508
  179SAPS  H17Y20539   0.264  -0.870   4.454 -0.1590  1.4542  1.6432
  179SAPS  C31820540   0.459  -0.812   4.520 -0.3187  0.0612  0.4662
  179SAPS  H18X20541   0.441  -0.830   4.628  1.9193  2.9282  1.4423
  179SAPS  H18Y20542   0.447  -0.702   4.520  2.0453  0.4433  3.1176
  179SAPS  H18Z20543   0.565  -0.831   4.490 -0.9590  0.7003 -2.5353
  180SAPS     N20544   6.538   4.854   1.837 -0.1721 -0.2531  0.3534
  180SAPS   HN120545   6.495   4.893   1.924 -2.4103  2.1513 -1.6287
  180SAPS   HN220546   6.502   4.914   1.760 -0.6041 -1.4591 -0.4048
  180SAPS   HN320547   6.513   4.755   1.822 -0.1843 -0.2775  0.5279
  180SAPS   C1220548   6.688   4.865   1.844  0.8532  0.6642 -0.2802
  180SAPS  H12A20549   6.722   4.776   1.894 -1.4314  0.9245  1.9325
  180SAPS   C1320550   6.773   4.865   1.717 -0.1118  0.7295  1.2754
  180SAPS  O13A20551   6.716   4.833   1.610 -0.6827 -0.6823  1.1276
  180SAPS  O13B20552   6.900   4.882   1.726  0.4644 -0.0621  0.2915
  180SAPS   C1120553   6.719   4.981   1.940  0.4557 -0.7141  0.8290
  180SAPS  H11A20554   6.829   4.992   1.941  0.2960  1.2986 -0.2501
  180SAPS  H11B20555   6.702   4.948   2.045 -0.4370 -0.9183  0.6269
  180SAPS     P20556   6.712   5.243   1.887 -0.0082 -0.1713  0.0261
  180SAPS   O1320557   6.828   5.251   1.799  0.1792  0.6749 -0.5016
  180SAPS   O1420558   6.596   5.333   1.857 -0.1041  0.3848 -0.4769
  180SAPS   O1220559   6.653   5.096   1.890 -0.3797 -0.0987  0.1856
  180SAPS   O1120560   6.768   5.257   2.040  0.5213  0.0234 -0.0370
  180SAPS    C120561   6.668   5.246   2.149 -0.3424  0.5196  0.3999
  180SAPS    HA20562   6.565   5.218   2.116 -0.2313  1.9617 -1.2931
  180SAPS    HB20563   6.704   5.172   2.224  3.3632  2.1640  0.4383
  180SAPS    C220564   6.636   5.388   2.197  0.1104  0.4628  0.6425
  180SAPS    HS20565   6.631   5.459   2.111 -1.4109  0.8737  1.0494
  180SAPS   O2120566   6.754   5.437   2.269  0.1154 -0.4354 -0.1056
  180SAPS   C2120567   6.785   5.569   2.267  0.4131 -0.3195 -0.1790
  180SAPS   O2220568   6.731   5.651   2.197 -0.6447  0.6108 -0.2255
  180SAPS   C2220569   6.908   5.581   2.362  0.2055 -1.0725  0.9387
  180SAPS   H2R20570   6.987   5.530   2.302  1.1719  1.7632 -0.3597
  180SAPS   H2S20571   6.939   5.687   2.358  0.5312 -1.1989 -0.2854
  180SAPS    C320572   6.523   5.376   2.300 -0.1281  0.0675  0.4277
  180SAPS    HX20573   6.564   5.306   2.376  1.5270 -1.8415 -2.0374
  180SAPS    HY20574   6.441   5.323   2.248  0.2841  1.3312 -1.6059
  180SAPS   O3120575   6.490   5.514   2.351  0.2233  0.0149  0.1626
  180SAPS   C3120576   6.474   5.528   2.484 -0.4247 -0.0219  0.0173
  180SAPS   O3220577   6.477   5.436   2.561  0.1923  0.5586 -0.4078
  180SAPS   C3220578   6.476   5.676   2.520  0.5629 -0.9371 -0.0618
  180SAPS   H2X20579   6.508   5.729   2.428 -0.9840 -0.1278 -0.1772
  180SAPS   H2Y20580   6.552   5.710   2.594 -1.2227 -0.8253  1.7969
  180SAPS   C2320581   6.889   5.530   2.504  0.0559 -0.1643  0.1364
  180SAPS   H3R20582   6.873   5.420   2.503 -2.5978  0.1206  1.3062
  180SAPS   H3S20583   6.794   5.570   2.546 -1.9800 -1.9743 -2.4158
  180SAPS   C2420584   7.015   5.555   2.594 -0.1352 -0.7124 -0.2938
  180SAPS   H4R20585   7.034   5.663   2.580  0.5959 -0.3885  2.6030
  180SAPS   H4S20586   7.103   5.509   2.543 -0.8615 -1.6093 -0.7927
  180SAPS   C2520587   7.010   5.510   2.737  0.0020  0.2061  0.1298
  180SAPS   H5R20588   7.050   5.410   2.761 -1.3900 -0.2736  0.5197
  180SAPS   C2620589   6.977   5.587   2.844 -0.4734  0.0676 -0.1559
  180SAPS   H6R20590   6.989   5.548   2.946 -2.5437 -1.6537 -0.5064
  180SAPS   C2720591   6.932   5.736   2.838  0.3896  0.6686  0.7783
  180SAPS   H7R20592   6.921   5.765   2.731 -0.2692 -4.1964 -0.6884
  180SAPS   H7S20593   7.017   5.797   2.875  1.3744 -0.3453  0.2483
  180SAPS   C2820594   6.801   5.779   2.913 -0.4295  0.3333  0.5329
  180SAPS   H8R20595   6.715   5.733   2.863  1.7501 -1.9164 -1.3426
  180SAPS   C2920596   6.797   5.862   3.022 -0.2910 -0.3176 -0.4942
  180SAPS   H9R20597   6.700   5.892   3.063 -0.5315 -1.5214 -0.1300
  180SAPS  C21020598   6.924   5.921   3.089  0.0114  0.0361 -0.5482
  180SAPS  H10R20599   6.887   6.004   3.153  0.6514  0.7921 -1.1236
  180SAPS  H10S20600   6.970   5.978   3.005  1.8866  0.8199  0.9349
  180SAPS  C21120601   7.026   5.832   3.150 -0.7895 -0.0921  0.0077
  180SAPS  H11R20602   7.084   5.772   3.079 -0.4005  0.0125  0.2318
  180SAPS  C21220603   7.052   5.818   3.282  0.1855 -0.7470  0.3937
  180SAPS  H12R20604   7.134   5.757   3.320  1.8680  0.4362 -1.1689
  180SAPS  C21320605   6.972   5.876   3.396 -0.3372  0.1398  0.0068
  180SAPS  H13R20606   6.936   5.979   3.375 -1.1869 -0.1739 -0.1171
  180SAPS  H13S20607   7.039   5.904   3.480  2.0706  0.8720 -1.9976
  180SAPS  C21420608   6.858   5.784   3.445  0.0101 -0.7405  0.4763
  180SAPS  H14R20609   6.808   5.719   3.371 -1.8358  0.1116  0.9128
  180SAPS  C21520610   6.804   5.774   3.565 -0.7496 -0.2114  0.3942
  180SAPS  H15R20611   6.728   5.697   3.585  1.5769 -2.6163  0.4225
  180SAPS  C21620612   6.854   5.844   3.690  0.7259  0.0619  0.3835
  180SAPS  H16R20613   6.801   5.942   3.684 -0.6518 -0.5848  1.4137
  180SAPS  H16S20614   6.964   5.854   3.701  0.7621 -0.9970  1.0626
  180SAPS  C21720615   6.819   5.771   3.819 -0.2729 -0.2206  0.0527
  180SAPS  H17R20616   6.897   5.694   3.838  0.3954  0.7197  1.2397
  180SAPS  H17S20617   6.725   5.713   3.804  0.6798 -1.9564  0.5233
  180SAPS  C21820618   6.798   5.862   3.946 -0.2563  0.2515  0.0860
  180SAPS  H18R20619   6.725   5.818   4.017 -0.0068  2.2428  1.6761
  180SAPS  H18S20620   6.744   5.952   3.907 -1.7820 -0.4079  0.6142
  180SAPS  C21920621   6.927   5.899   4.027  0.2013 -0.0680  0.7517
  180SAPS  H19R20622   7.012   5.917   3.957  0.3396 -1.1602  0.6228
  180SAPS  H19S20623   6.963   5.828   4.104 -1.5298  0.4843  2.1167
  180SAPS  C22020624   6.901   6.025   4.106  0.0907  0.6299 -0.0307
  180SAPS  H20R20625   6.852   6.098   4.038 -0.2016  0.8808  0.4510
  180SAPS  H20S20626   6.843   5.997   4.196  2.5509  0.2112  1.5242
  180SAPS  H20T20627   6.999   6.072   4.128  0.0793  0.8299 -0.3931
  180SAPS   C3320628   6.351   5.751   2.562 -0.6172  0.2298 -0.6205
  180SAPS   H3X20629   6.282   5.734   2.477  0.7819  0.5145 -1.8660
  180SAPS   H3Y20630   6.363   5.862   2.569 -3.5275  0.6337 -0.5301
  180SAPS   C3420631   6.291   5.694   2.694  0.4262  1.3575  0.2425
  180SAPS   H4X20632   6.305   5.585   2.711 -1.7262  0.9163 -0.5363
  180SAPS   H4Y20633   6.181   5.710   2.683 -0.0039 -1.4626 -0.1971
  180SAPS   C3520634   6.347   5.765   2.818  0.6138  0.0424 -0.4190
  180SAPS   H5X20635   6.352   5.875   2.807 -1.9966  0.2624 -0.1644
  180SAPS   H5Y20636   6.452   5.733   2.833  0.9016  0.6869 -0.9870
  180SAPS   C3620637   6.273   5.728   2.946 -0.3603  0.3823  0.5420
  180SAPS   H6X20638   6.254   5.619   2.937 -2.2197  0.7985 -1.3197
  180SAPS   H6Y20639   6.174   5.779   2.950 -1.6885 -2.0567  0.4590
  180SAPS   C3720640   6.353   5.777   3.065  0.0383 -1.1902 -0.3249
  180SAPS   H7X20641   6.362   5.888   3.061  1.3662 -1.3306 -2.7037
  180SAPS   H7Y20642   6.455   5.736   3.051  0.4817 -0.2515  0.0404
  180SAPS   C3820643   6.311   5.732   3.210 -0.5703 -0.0693  0.2002
  180SAPS   H8X20644   6.272   5.628   3.211  1.5822 -0.9678 -1.1961
  180SAPS   H8Y20645   6.232   5.794   3.256  1.6102  3.0264  0.0412
  180SAPS   C3920646   6.437   5.724   3.306  0.5838 -0.2037 -0.0754
  180SAPS   H9X20647   6.512   5.807   3.304 -0.7091  1.0380  0.7299
  180SAPS   H9Y20648   6.482   5.627   3.277  1.8206 -0.1749  1.6427
  180SAPS  C31020649   6.409   5.710   3.457  0.7940  0.3217 -0.7999
  180SAPS  H10X20650   6.335   5.786   3.490  0.2758 -0.8276  0.8699
  180SAPS  H10Y20651   6.505   5.718   3.512  0.5063  2.8597 -0.5449
  180SAPS  C31120652   6.347   5.568   3.501 -0.2485 -0.9777  0.6049
  180SAPS  H11X20653   6.419   5.485   3.482 -0.1969 -0.4314 -1.9800
  180SAPS  H11Y20654   6.254   5.540   3.447 -1.2005  1.1573  1.0397
  180SAPS  C31220655   6.317   5.562   3.656 -0.2440 -0.3465 -0.6269
  180SAPS  H12X20656   6.401   5.620   3.699  1.1170 -1.9984 -0.9339
  180SAPS  H12Y20657   6.319   5.455   3.687 -0.9534  0.1095  1.1013
  180SAPS  C31320658   6.179   5.612   3.697  0.5028 -0.7399 -0.1662
  180SAPS  H13X20659   6.104   5.544   3.651  0.1011  0.7279 -1.8093
  180SAPS  H13Y20660   6.166   5.717   3.663  0.1177 -0.2693  1.3410
  180SAPS  C31420661   6.148   5.612   3.849  0.3450  0.8897 -0.0195
  180SAPS  H14X20662   6.199   5.683   3.917 -0.9930  0.8958  1.0324
  180SAPS  H14Y20663   6.184   5.510   3.876 -0.6809  0.2426 -0.9805
  180SAPS  C31520664   5.996   5.622   3.878 -0.3438 -0.3744 -0.2552
  180SAPS  H15X20665   5.949   5.522   3.863 -1.3830  0.1071 -0.2553
  180SAPS  H15Y20666   5.947   5.680   3.797  1.5646  2.8543  0.7614
  180SAPS  C31620667   5.946   5.675   4.016 -0.3842  0.0885 -0.1020
  180SAPS  H16X20668   6.016   5.758   4.041 -1.3290  0.2240  2.4440
  180SAPS  H16Y20669   5.944   5.596   4.094 -2.0336  0.2320  0.0288
  180SAPS  C31720670   5.805   5.744   4.004 -0.4424  0.4954 -0.7040
  180SAPS  H17X20671   5.732   5.674   3.958 -0.8168 -0.4926  1.2665
  180SAPS  H17Y20672   5.820   5.828   3.934 -1.1370  1.3583  0.1564
  180SAPS  C31820673   5.757   5.791   4.138 -0.2683 -0.5234  0.4466
  180SAPS  H18X20674   5.825   5.857   4.197 -1.5267  0.2993  1.0237
  180SAPS  H18Y20675   5.735   5.698   4.194  1.0868 -1.1107  0.0491
  180SAPS  H18Z20676   5.663   5.850   4.147 -0.7133 -1.0789 -0.3725
  181POPC     N20677   0.141   0.015   6.590  0.5041 -0.6867 -0.2981
  181POPC   C1220678   0.113   0.137   6.686 -0.8486  0.5252  0.4039
  181POPC  H12A20679   0.200   0.200   6.673 -0.2803 -0.7297 -2.5949
  181POPC  H12B20680   0.119   0.102   6.788 -2.3539 -1.2112 -0.0612
  181POPC   C1320681   0.040  -0.094   6.616  0.2424 -0.5532 -0.3825
  181POPC  H13A20682  -0.061  -0.059   6.602  0.6309  1.2280  0.9599
  181POPC  H13B20683   0.061  -0.162   6.535 -0.4113  1.3362 -2.2393
  181POPC  H13C20684   0.054  -0.147   6.709 -1.3385 -1.2174 -0.4925
  181POPC   C1420685   0.140   0.055   6.451  0.3489  0.2595  0.2430
  181POPC  H14A20686   0.205   0.137   6.422 -0.3050 -0.5189 -4.1408
  181POPC  H14B20687   0.177  -0.018   6.381 -0.6315  0.7104 -0.7847
  181POPC  H14C20688   0.040   0.074   6.415  0.3954  1.5419  0.7227
  181POPC   C1520689   0.280  -0.027   6.620  0.5979  0.0694  0.7006
  181POPC  H15A20690   0.287  -0.068   6.720  1.3985 -3.5772 -0.6696
  181POPC  H15B20691   0.345   0.058   6.613 -1.3261  1.7481  2.2160
  181POPC  H15C20692   0.310  -0.105   6.551 -1.6190 -0.4752  0.2610
  181POPC   C1120693  -0.017   0.218   6.682  0.2757  0.8307  0.3758
  181POPC  H11A20694  -0.032   0.286   6.769 -2.7114  1.9085 -0.8162
  181POPC  H11B20695  -0.110   0.160   6.702  1.7217 -1.1676  1.6416
  181POPC     P20696   0.045   0.407   6.521 -0.0504 -0.6447  0.1244
  181POPC   O1320697   0.135   0.432   6.636  0.3285  0.2651  0.6863
  181POPC   O1420698  -0.057   0.512   6.497 -0.8172 -0.0179  0.1718
  181POPC   O1220699  -0.031   0.278   6.553  1.2551 -0.0986 -0.3510
  181POPC   O1120700   0.124   0.386   6.398  0.0526  0.3845  0.0611
  181POPC    C120701   0.073   0.385   6.267  1.2106 -0.0512  0.5333
  181POPC    HA20702  -0.032   0.416   6.250  1.5157  0.1851 -1.0836
  181POPC    HB20703   0.085   0.285   6.220 -0.1361 -0.7353  1.5661
  181POPC    C220704   0.157   0.486   6.175  0.0444  0.3934 -0.4846
  181POPC    HS20705   0.112   0.588   6.178  0.3611  0.5251 -0.2572
  181POPC   O2120706   0.151   0.429   6.044 -0.0627  0.2111  0.2070
  181POPC   C2120707   0.037   0.468   5.980 -0.6310  0.7277 -0.0007
  181POPC   O2220708  -0.047   0.542   6.020  0.0483 -0.3552 -0.4966
  181POPC   C2220709   0.041   0.410   5.838  0.0047 -0.4779  0.2214
  181POPC   H2R20710  -0.011   0.312   5.842 -2.5948  0.7944 -0.3244
  181POPC   H2S20711   0.147   0.387   5.814 -0.6011 -2.1596 -1.0644
  181POPC    C320712   0.302   0.496   6.212  0.0643 -0.4353 -0.3436
  181POPC    HX20713   0.350   0.395   6.212 -1.3106 -1.1272  0.3390
  181POPC    HY20714   0.296   0.532   6.317 -0.9940 -0.3589 -0.4203
  181POPC   O3120715   0.366   0.605   6.136  0.3192 -0.1325  0.3383
  181POPC   C3120716   0.467   0.581   6.063  0.1867  0.4761 -0.2790
  181POPC   O3220717   0.538   0.480   6.059 -0.0146 -0.9390  0.0799
  181POPC   C3220718   0.492   0.697   5.980 -0.7719  0.5205  0.0217
  181POPC   H2X20719   0.583   0.742   6.024 -1.2619  1.9715 -0.3887
  181POPC   H2Y20720   0.415   0.776   5.992 -0.1820  1.3903 -1.5971
  181POPC   C2320721   0.003   0.513   5.730 -0.2996  0.6775  0.4777
  181POPC   H3R20722   0.051   0.608   5.761  2.0062  1.0901 -3.6438
  181POPC   H3S20723  -0.107   0.515   5.716 -0.7705  0.9049  3.4468
  181POPC   C2420724   0.055   0.473   5.590  0.8213 -0.1871 -0.3238
  181POPC   H4R20725   0.027   0.370   5.559  2.3006 -0.3723 -1.1220
  181POPC   H4S20726   0.166   0.471   5.601  0.7583  2.2296  1.4820
  181POPC   C2520727   0.002   0.569   5.481 -0.1296 -0.3984  0.3870
  181POPC   H5R20728   0.034   0.671   5.510  1.7676 -0.6229 -0.7243
  181POPC   H5S20729  -0.109   0.570   5.474 -0.0770  0.7436 -0.5942
  181POPC   C2620730   0.049   0.531   5.335  0.6091  0.6306  0.6563
  181POPC   H6R20731   0.007   0.431   5.311 -2.3412  1.8897  0.0182
  181POPC   H6S20732   0.160   0.538   5.333  0.5228  2.6051 -1.0170
  181POPC   C2720733  -0.003   0.624   5.222  0.0360  0.0036  0.4251
  181POPC   H7R20734   0.017   0.725   5.264  0.4467 -0.4425  1.3369
  181POPC   H7S20735  -0.109   0.593   5.209  0.0921 -1.1358  2.3398
  181POPC   C2820736   0.075   0.603   5.088  0.0746  0.4413  0.3757
  181POPC   H8R20737   0.182   0.597   5.119 -0.6170 -3.2488  2.6316
  181POPC   H8S20738   0.050   0.696   5.033  1.2472  1.2944  1.2232
  181POPC   C2920739   0.053   0.474   5.012 -0.7184 -0.0267  0.1756
  181POPC   H9120740   0.032   0.382   5.068  1.8491 -2.1674 -2.1087
  181POPC  C21020741   0.049   0.455   4.878 -0.3016 -0.3699  0.1061
  181POPC  H10120742   0.041   0.352   4.840  0.8299  0.6241 -3.0904
  181POPC  C21120743   0.076   0.550   4.766 -0.0769 -0.1322 -0.4808
  181POPC  H11R20744   0.179   0.542   4.726  0.9646 -0.6217  2.0663
  181POPC  H11S20745   0.081   0.651   4.811 -1.8352  0.0902 -0.7048
  181POPC  C21220746  -0.034   0.563   4.655 -0.2234  0.1856  0.0474
  181POPC  H12R20747  -0.024   0.664   4.609  2.3051  0.4353  1.0344
  181POPC  H12S20748  -0.134   0.565   4.704 -0.0812  1.7994  0.3205
  181POPC  C21320749  -0.028   0.450   4.548 -0.5854 -0.0677  0.3528
  181POPC  H13R20750  -0.024   0.355   4.606  1.6718 -0.4512 -0.3282
  181POPC  H13S20751   0.060   0.468   4.482 -0.0990  0.3951  1.1020
  181POPC  C21420752  -0.167   0.437   4.479 -0.3099  0.4675  0.4358
  181POPC  H14R20753  -0.188   0.540   4.444 -1.0992  0.8597  1.9842
  181POPC  H14S20754  -0.235   0.399   4.558 -0.3644 -3.5698 -1.2523
  181POPC  C21520755  -0.174   0.335   4.361 -0.4993 -0.3314 -0.5416
  181POPC  H15R20756  -0.153   0.229   4.386  0.7946 -0.3100 -1.4727
  181POPC  H15S20757  -0.109   0.380   4.284  0.4187  1.7903  1.3610
  181POPC  C21620758  -0.318   0.331   4.294 -0.1711  0.2505 -0.2682
  181POPC  H16R20759  -0.386   0.305   4.378  1.0028 -0.1860  0.5783
  181POPC  H16S20760  -0.324   0.241   4.229 -1.9314 -2.4353  3.2428
  181POPC  C21720761  -0.352   0.456   4.224  0.0084  0.1207  0.7549
  181POPC  H17R20762  -0.282   0.462   4.139 -0.2132 -0.8964  0.4894
  181POPC  H17S20763  -0.346   0.549   4.285 -0.5638  1.5344 -1.2420
  181POPC  C21820764  -0.495   0.454   4.163 -0.4006 -0.4555 -0.2303
  181POPC  H18R20765  -0.561   0.435   4.250  1.8583  0.2792  1.7713
  181POPC  H18S20766  -0.505   0.384   4.078 -3.9800 -0.1114 -0.2396
  181POPC  H18T20767  -0.502   0.560   4.131 -0.3891 -0.2722  0.3585
  181POPC   C3320768   0.517   0.658   5.834 -0.7940 -0.0894 -0.2773
  181POPC   H3X20769   0.566   0.558   5.835  0.5199  0.5103  1.0747
  181POPC   H3Y20770   0.585   0.727   5.779  1.3286  0.4315  2.7224
  181POPC   C3420771   0.393   0.643   5.745  0.3654 -0.7616  0.0778
  181POPC   H4X20772   0.322   0.727   5.761  2.0934  0.5680  1.1277
  181POPC   H4Y20773   0.339   0.550   5.774 -0.1496 -0.1695  1.0947
  181POPC   C3520774   0.427   0.630   5.590 -0.0032  0.6524 -0.0814
  181POPC   H5X20775   0.345   0.581   5.533  1.3489 -1.8212 -0.0494
  181POPC   H5Y20776   0.515   0.562   5.581 -0.8773 -0.7461  1.2412
  181POPC   C3620777   0.460   0.756   5.516 -0.4575  0.2068  0.2038
  181POPC   H6X20778   0.564   0.790   5.537 -1.0723  2.6429 -0.3179
  181POPC   H6Y20779   0.399   0.847   5.536  0.2524  1.6584 -3.3287
  181POPC   C3720780   0.447   0.730   5.363  0.8778  1.2677 -0.0621
  181POPC   H7X20781   0.343   0.693   5.354  1.0562  0.4597  1.0081
  181POPC   H7Y20782   0.507   0.649   5.315  0.5277  1.5900 -1.0758
  181POPC   C3820783   0.467   0.856   5.275  0.1604  0.7192 -0.2746
  181POPC   H8X20784   0.567   0.897   5.300 -1.0805  1.9180  3.1849
  181POPC   H8Y20785   0.399   0.932   5.319  0.6741 -0.1847  2.2438
  181POPC   C3920786   0.461   0.835   5.122 -0.0164 -0.1085  0.7790
  181POPC   H9X20787   0.355   0.811   5.101  0.1441  1.1403 -1.7480
  181POPC   H9Y20788   0.522   0.747   5.096 -1.9948 -0.8224 -1.8404
  181POPC  C31020789   0.507   0.960   5.046 -0.3538 -0.2108  0.1222
  181POPC  H10X20790   0.597   1.007   5.093 -0.0757  0.3408 -0.9187
  181POPC  H10Y20791   0.431   1.041   5.049  0.8699  1.0766 -1.2962
  181POPC  C31120792   0.527   0.945   4.899  0.0861 -0.2060  0.2362
  181POPC  H11X20793   0.446   0.878   4.864 -0.0241 -0.5775  1.1742
  181POPC  H11Y20794   0.616   0.880   4.881 -0.4084 -1.3470  1.6503
  181POPC  C31220795   0.522   1.072   4.818  0.5170  0.1398 -0.3470
  181POPC  H12X20796   0.606   1.139   4.849 -0.3866  0.6051  1.1973
  181POPC  H12Y20797   0.434   1.131   4.851 -0.0746 -0.0005 -1.6206
  181POPC  C31320798   0.492   1.054   4.666  0.0611  0.4508 -0.4099
  181POPC  H13X20799   0.390   1.013   4.649 -0.3606  1.9792 -1.8456
  181POPC  H13Y20800   0.570   0.985   4.629  0.6884 -0.8067  2.8874
  181POPC  C31420801   0.502   1.183   4.586  0.0507 -0.3583 -0.0954
  181POPC  H14X20802   0.597   1.230   4.618  0.4898 -1.1302 -0.2373
  181POPC  H14Y20803   0.413   1.247   4.603 -0.1442 -0.1158 -1.7841
  181POPC  C31520804   0.511   1.161   4.434  0.7567  0.3394 -0.3833
  181POPC  H15X20805   0.579   1.076   4.413 -0.8056 -0.8191 -0.9704
  181POPC  H15Y20806   0.560   1.253   4.394  1.1481  1.0356  1.5923
  181POPC  C31620807   0.376   1.136   4.363 -0.1911 -0.0950  0.2650
  181POPC  H16X20808   0.326   1.048   4.410 -0.9764  0.8435  1.2572
  181POPC  H16Y20809   0.386   1.132   4.252  2.6528 -1.5301  0.4946
  181POPC  H16Z20810   0.305   1.218   4.388 -1.4923 -0.7907 -1.0246
  182POPC     N20811   4.007   5.625   6.660 -0.1530 -0.2312  0.1414
  182POPC   C1220812   4.122   5.692   6.592  0.2176 -0.2390 -0.0673
  182POPC  H12A20813   4.098   5.727   6.492  3.9234 -1.7115 -1.6611
  182POPC  H12B20814   4.198   5.617   6.576  0.7569  0.3524 -0.3679
  182POPC   C1320815   3.942   5.535   6.562  0.0683 -0.2388 -0.1714
  182POPC  H13A20816   3.853   5.493   6.606 -0.5946 -0.1412 -1.4041
  182POPC  H13B20817   3.908   5.581   6.471  0.9116  0.6932 -0.0379
  182POPC  H13C20818   4.001   5.448   6.538 -1.1865 -0.9413 -0.8041
  182POPC   C1420819   4.054   5.544   6.773  0.0563  0.0154  0.0923
  182POPC  H14A20820   3.975   5.520   6.843  0.7240  2.1197  1.6388
  182POPC  H14B20821   4.092   5.453   6.729 -0.7220 -0.0798 -0.4055
  182POPC  H14C20822   4.129   5.595   6.831  0.9459 -4.0614  3.0089
  182POPC   C1520823   3.912   5.729   6.709 -0.2544 -0.4339  0.3395
  182POPC  H15A20824   3.959   5.809   6.764 -2.4531  0.8668  0.4580
  182POPC  H15B20825   3.846   5.680   6.780  0.0641  0.6359  1.4101
  182POPC  H15C20826   3.849   5.768   6.631 -0.2120 -1.2254 -0.1012
  182POPC   C1120827   4.197   5.810   6.668 -0.0397 -0.0442 -0.5421
  182POPC  H11A20828   4.284   5.845   6.609  1.7665  3.9376  3.7985
  182POPC  H11B20829   4.242   5.763   6.758 -1.9449 -0.0090  0.4808
  182POPC     P20830   4.103   6.054   6.633  0.3516 -0.2291 -0.0014
  182POPC   O1320831   4.176   6.152   6.720  0.8106 -0.2056  0.2465
  182POPC   O1420832   3.964   6.086   6.601 -0.1467 -0.3958 -0.4263
  182POPC   O1220833   4.113   5.921   6.707  0.1197 -0.3717 -0.5308
  182POPC   O1120834   4.181   6.022   6.491  0.6229 -0.1387 -0.1319
  182POPC    C120835   4.295   6.105   6.452 -0.2335 -0.2402  0.0945
  182POPC    HA20836   4.376   6.069   6.520 -0.8479 -1.3606  0.2625
  182POPC    HB20837   4.279   6.211   6.481  0.4380 -0.1452  0.1340
  182POPC    C220838   4.352   6.083   6.309  0.5448  0.4894 -0.1950
  182POPC    HS20839   4.416   6.172   6.288  1.1374  0.3261  0.8485
  182POPC   O2120840   4.244   6.074   6.216  0.7531  0.2585  1.0826
  182POPC   C2120841   4.209   6.183   6.149  0.4848  0.4619  0.4850
  182POPC   O2220842   4.266   6.288   6.145  0.2501 -1.0108  0.4805
  182POPC   C2220843   4.092   6.136   6.069  0.3027 -0.4372  0.0992
  182POPC   H2R20844   4.005   6.203   6.085  0.7435  0.8189 -2.3478
  182POPC   H2S20845   4.061   6.033   6.099  2.2120 -1.2152 -0.4592
  182POPC    C320846   4.430   5.956   6.293 -0.1918  1.2776  0.1619
  182POPC    HX20847   4.355   5.876   6.309 -0.9363  1.9323  0.0417
  182POPC    HY20848   4.509   5.940   6.369 -1.7906 -1.3665  1.3879
  182POPC   O3120849   4.474   5.942   6.155  0.2448 -0.4473 -0.2846
  182POPC   C3120850   4.550   5.844   6.127  0.5714  0.4598 -0.3153
  182POPC   O3220851   4.573   5.745   6.197  0.1207  0.4434  0.4319
  182POPC   C3220852   4.600   5.866   5.985  0.0236 -0.0511 -0.1199
  182POPC   H2X20853   4.663   5.957   5.988 -0.9508  0.6163  1.4992
  182POPC   H2Y20854   4.504   5.876   5.931  0.1381  1.2972 -0.1009
  182POPC   C2320855   4.114   6.143   5.921  0.5076  1.0647 -0.4933
  182POPC   H3R20856   4.148   6.248   5.908  0.3983  1.0791 -0.6702
  182POPC   H3S20857   4.017   6.147   5.867 -0.5294  1.6457  1.3084
  182POPC   C2420858   4.195   6.027   5.863  0.1005  0.1916  0.6660
  182POPC   H4R20859   4.137   5.932   5.862  0.2009  0.1280  0.8363
  182POPC   H4S20860   4.289   6.020   5.922  0.7659 -0.7638 -0.4614
  182POPC   C2520861   4.239   6.045   5.717 -0.6079 -0.9496  0.1335
  182POPC   H5R20862   4.315   5.966   5.698  0.3533 -0.0607  0.2102
  182POPC   H5S20863   4.294   6.140   5.698 -0.8526 -0.4497  1.7447
  182POPC   C2620864   4.138   6.020   5.603  0.1683  0.6934 -0.5968
  182POPC   H6R20865   4.066   6.103   5.590 -0.2347  0.7332  1.5405
  182POPC   H6S20866   4.083   5.928   5.632 -0.3623  0.6136 -1.8012
  182POPC   C2720867   4.208   5.989   5.469  0.6287  0.9019 -0.2907
  182POPC   H7R20868   4.287   5.914   5.493  0.0153  0.1959 -0.4622
  182POPC   H7S20869   4.258   6.077   5.424 -0.5327  2.7332  1.7661
  182POPC   C2820870   4.109   5.918   5.374 -0.0583 -0.1574  0.4761
  182POPC   H8R20871   4.023   5.988   5.359 -0.1392 -0.2141  0.6767
  182POPC   H8S20872   4.076   5.832   5.435  1.7900 -0.6200  0.8755
  182POPC   C2920873   4.191   5.882   5.250 -0.5230 -0.3643  0.3515
  182POPC   H9120874   4.294   5.847   5.269  0.8136  0.2032 -4.5346
  182POPC  C21020875   4.152   5.896   5.123  0.4796 -0.5227  0.5263
  182POPC  H10120876   4.215   5.849   5.045  1.6609 -1.3348  1.9131
  182POPC  C21120877   4.013   5.937   5.075 -0.0976 -0.1991 -0.9457
  182POPC  H11R20878   4.015   6.046   5.058  0.8897  0.0585  0.5970
  182POPC  H11S20879   3.947   5.920   5.163 -0.2002  1.0716 -0.7677
  182POPC  C21220880   3.967   5.867   4.948 -0.0922 -0.3390  0.5913
  182POPC  H12R20881   3.951   5.759   4.970  0.2801  0.0552  3.0875
  182POPC  H12S20882   4.039   5.895   4.868  0.3200  1.6518  1.6010
  182POPC  C21320883   3.838   5.912   4.901 -0.4771 -0.8295  0.7646
  182POPC  H13R20884   3.810   5.876   4.800  0.4155 -0.3036  0.3224
  182POPC  H13S20885   3.845   6.022   4.887 -1.8253 -0.7750  0.3176
  182POPC  C21420886   3.709   5.893   4.983 -0.0556  0.2666  0.0594
  182POPC  H14R20887   3.718   5.949   5.078  1.3716  0.5345 -0.2155
  182POPC  H14S20888   3.689   5.784   4.991  2.9119 -0.2375  1.8095
  182POPC  C21520889   3.581   5.942   4.899 -0.2652  0.1615  0.2336
  182POPC  H15R20890   3.490   5.882   4.917  0.9762 -1.2144  2.3707
  182POPC  H15S20891   3.593   5.935   4.789 -0.4620  3.8872 -0.1794
  182POPC  C21620892   3.544   6.087   4.939 -0.5289 -0.1026  0.6540
  182POPC  H16R20893   3.627   6.147   4.896  0.3791 -1.3785  0.5915
  182POPC  H16S20894   3.549   6.111   5.047  2.4496  0.9458  0.3787
  182POPC  C21720895   3.418   6.143   4.873 -0.1850  0.1057  0.0473
  182POPC  H17R20896   3.326   6.108   4.925 -1.6840  3.1306 -0.2804
  182POPC  H17S20897   3.423   6.109   4.767 -1.3419 -0.6503  0.2098
  182POPC  C21820898   3.419   6.294   4.873  0.2719 -0.0477  0.1730
  182POPC  H18R20899   3.506   6.327   4.813 -0.8845  0.8091 -1.1005
  182POPC  H18S20900   3.419   6.345   4.971  1.1476 -2.4525  1.4938
  182POPC  H18T20901   3.332   6.330   4.813 -1.2843 -1.4399  1.5131
  182POPC   C3320902   4.672   5.747   5.915 -0.6209 -0.0979 -0.4280
  182POPC   H3X20903   4.607   5.658   5.928  1.8667 -2.0490 -0.7259
  182POPC   H3Y20904   4.764   5.710   5.965 -0.5035  0.0259 -0.5511
  182POPC   C3420905   4.702   5.759   5.769 -0.9295  0.2319  0.2654
  182POPC   H4X20906   4.758   5.851   5.742 -1.3431  0.5729  0.5534
  182POPC   H4Y20907   4.607   5.765   5.712 -1.7132  2.5027  1.6589
  182POPC   C3520908   4.779   5.633   5.720 -0.1379  0.2232 -0.5830
  182POPC   H5X20909   4.712   5.544   5.731  1.4392 -0.7282  2.7181
  182POPC   H5Y20910   4.869   5.618   5.783  0.3492  2.6433 -0.6042
  182POPC   C3620911   4.809   5.654   5.570 -0.3532  0.0527  0.9274
  182POPC   H6X20912   4.848   5.758   5.563 -3.3636  1.2805  1.3057
  182POPC   H6Y20913   4.709   5.658   5.522  0.2894  0.4046 -0.4276
  182POPC   C3720914   4.904   5.537   5.529  0.2741  0.1683 -0.0645
  182POPC   H7X20915   4.849   5.443   5.549  1.3631 -0.0747  2.0800
  182POPC   H7Y20916   4.989   5.553   5.600 -1.3617 -0.7501  2.2342
  182POPC   C3820917   4.952   5.551   5.386 -0.2188  0.4272 -0.6928
  182POPC   H8X20918   5.003   5.650   5.381  0.9822  0.0326  2.0207
  182POPC   H8Y20919   4.863   5.543   5.319 -0.4911  1.3991 -0.4607
  182POPC   C3920920   5.055   5.448   5.341 -0.0888 -0.1385  0.4481
  182POPC   H9X20921   5.003   5.350   5.337  1.7252 -1.2408  2.2562
  182POPC   H9Y20922   5.131   5.435   5.421  1.9013 -0.5744 -1.4310
  182POPC  C31020923   5.116   5.478   5.202 -0.3501 -0.0594  0.4649
  182POPC  H10X20924   5.203   5.409   5.203  0.4374  0.9073  1.4825
  182POPC  H10Y20925   5.152   5.583   5.190 -1.1537  0.0549 -1.2360
  182POPC  C31120926   5.025   5.433   5.085 -0.7980  0.2740 -0.0966
  182POPC  H11X20927   4.922   5.470   5.101 -1.2621 -2.0704  3.8442
  182POPC  H11Y20928   5.020   5.322   5.088  1.0858  0.1331 -0.8316
  182POPC  C31220929   5.094   5.479   4.957  0.1724  0.0649  0.3308
  182POPC  H12X20930   5.192   5.430   4.944  0.1631  0.0712  0.2342
  182POPC  H12Y20931   5.118   5.588   4.961 -2.6903  0.8922 -1.7252
  182POPC  C31320932   5.020   5.457   4.826  0.4720  0.0175 -0.9910
  182POPC  H13X20933   4.925   5.514   4.825 -0.0982 -0.7688  1.5465
  182POPC  H13Y20934   4.990   5.350   4.819  0.3842 -0.1361  0.9972
  182POPC  C31420935   5.104   5.498   4.707  0.8455  0.7144 -0.3695
  182POPC  H14X20936   5.211   5.467   4.707  0.5192 -0.4774 -1.1068
  182POPC  H14Y20937   5.101   5.609   4.711 -0.5973  0.6626  0.5717
  182POPC  C31520938   5.044   5.466   4.570  0.6131 -0.6175 -0.3161
  182POPC  H15X20939   5.055   5.357   4.551 -0.6280 -0.9684  0.8267
  182POPC  H15Y20940   5.096   5.522   4.489 -2.5045  0.0261 -2.0444
  182POPC  C31620941   4.895   5.507   4.559  0.0914  0.2100  0.4796
  182POPC  H16X20942   4.887   5.613   4.588 -0.0039  0.0530  1.0304
  182POPC  H16Y20943   4.833   5.437   4.619  0.6109 -0.2257  0.5151
  182POPC  H16Z20944   4.862   5.496   4.453 -1.2636 -1.4824  1.0314
  183POPC     N20945   5.087   0.531   7.034 -0.7716 -0.3522  0.3207
  183POPC   C1220946   5.087   0.481   6.889 -0.2454  0.6107 -0.1359
  183POPC  H12A20947   4.997   0.521   6.844 -1.9271 -1.3429  1.3203
  183POPC  H12B20948   5.065   0.376   6.900 -2.1986  0.9998  0.0949
  183POPC   C1320949   4.942   0.557   7.072 -0.2200 -1.1372 -0.0103
  183POPC  H13A20950   4.929   0.571   7.178  0.5490 -0.8325  0.0486
  183POPC  H13B20951   4.900   0.644   7.023 -0.6001  0.2438  2.5892
  183POPC  H13C20952   4.881   0.472   7.044 -0.3801 -1.0114 -0.0447
  183POPC   C1420953   5.143   0.430   7.125 -0.2760  0.3402 -0.4345
  183POPC  H14A20954   5.246   0.414   7.099 -0.1864  0.7737 -0.3498
  183POPC  H14B20955   5.136   0.461   7.228  0.4870  0.5982 -0.4578
  183POPC  H14C20956   5.100   0.333   7.107  0.2967  0.1025 -0.5190
  183POPC   C1520957   5.165   0.661   7.034  0.3857  0.3834 -0.3868
  183POPC  H15A20958   5.267   0.648   7.000  2.0393  1.5612  3.5124
  183POPC  H15B20959   5.194   0.683   7.136 -0.2355 -1.3790  0.2032
  183POPC  H15C20960   5.115   0.740   6.979 -1.9110 -1.4759 -1.1143
  183POPC   C1120961   5.221   0.497   6.813  0.3461 -0.1155 -0.1999
  183POPC  H11A20962   5.251   0.604   6.815  0.3368 -0.1162  1.3086
  183POPC  H11B20963   5.205   0.472   6.706  1.4996  0.0597 -0.4217
  183POPC     P20964   5.360   0.267   6.842 -0.1911 -0.4047  0.3071
  183POPC   O1320965   5.249   0.187   6.897  0.3580  0.2249  0.2043
  183POPC   O1420966   5.495   0.245   6.891  0.0266 -0.9035  0.1021
  183POPC   O1220967   5.325   0.423   6.866  0.0958  0.0000  0.3072
  183POPC   O1120968   5.358   0.265   6.682  0.5427 -0.0265  0.5084
  183POPC    C120969   5.276   0.168   6.613 -0.4478  0.2233  0.0786
  183POPC    HA20970   5.184   0.140   6.668 -0.2843 -0.4050  0.0305
  183POPC    HB20971   5.328   0.071   6.609  0.3284  0.5803  1.0602
  183POPC    C220972   5.247   0.219   6.468 -0.1437  0.1237  0.1301
  183POPC    HS20973   5.325   0.292   6.437 -1.3007  1.6073  0.6212
  183POPC   O2120974   5.124   0.285   6.477  0.3984 -0.8670  0.4565
  183POPC   C2120975   5.101   0.388   6.395  0.2169  0.0020 -0.2511
  183POPC   O2220976   5.172   0.440   6.315  0.2720 -0.0958 -0.0437
  183POPC   C2220977   4.953   0.419   6.409  0.3279 -0.3804 -0.3384
  183POPC   H2R20978   4.952   0.500   6.484  0.5278 -0.9949  0.3389
  183POPC   H2S20979   4.904   0.327   6.448  2.1147 -1.0831  0.3528
  183POPC    C320980   5.249   0.104   6.364 -0.2066 -0.5776  0.2389
  183POPC    HX20981   5.190   0.020   6.407  1.1627 -2.8167 -2.0380
  183POPC    HY20982   5.352   0.064   6.369  0.6753  1.5584 -0.0949
  183POPC   O3120983   5.186   0.133   6.236  0.8765  0.3775 -0.0242
  183POPC   C3120984   5.276   0.138   6.134  0.5137 -0.1468  0.4362
  183POPC   O3220985   5.396   0.130   6.153 -0.4459 -0.5655 -0.3326
  183POPC   C3220986   5.205   0.150   5.997  0.3871 -0.4087 -0.5668
  183POPC   H2X20987   5.206   0.260   5.977  0.8032 -0.6616 -2.0886
  183POPC   H2Y20988   5.100   0.114   6.006 -0.1750  1.0099 -1.1209
  183POPC   C2320989   4.887   0.465   6.275  0.0252 -0.8633  0.5153
  183POPC   H3R20990   4.943   0.554   6.239  1.2350 -1.3680  1.0709
  183POPC   H3S20991   4.783   0.500   6.291 -0.5795 -2.5825  0.5757
  183POPC   C2420992   4.890   0.358   6.165  0.1797  0.4405 -0.0624
  183POPC   H4R20993   4.841   0.269   6.211  0.8071 -1.1782 -2.3418
  183POPC   H4S20994   4.993   0.323   6.148 -0.1398 -1.2085  1.1385
  183POPC   C2520995   4.838   0.409   6.034  0.8908  0.0113 -0.4366
  183POPC   H5R20996   4.905   0.494   6.008  0.1924  0.3370 -1.1890
  183POPC   H5S20997   4.736   0.452   6.042 -0.4200 -2.8747 -0.2938
  183POPC   C2620998   4.851   0.315   5.917  0.0534  0.2985  0.2142
  183POPC   H6R20999   4.814   0.211   5.931 -1.5157  0.9381  1.1610
  183POPC   H6S21000   4.955   0.312   5.879 -0.3549  0.2218 -0.9504
  183POPC   C2721001   4.766   0.369   5.800 -0.0495 -0.1770  1.0952
  183POPC   H7R21002   4.779   0.479   5.799  0.5849 -0.1363 -2.4911
  183POPC   H7S21003   4.660   0.341   5.819 -0.5949  2.2172  1.8696
  183POPC   C2821004   4.804   0.316   5.659 -0.0025 -0.2287 -0.3807
  183POPC   H8R21005   4.716   0.301   5.593 -1.8005  2.5758  1.1736
  183POPC   H8S21006   4.843   0.213   5.670 -2.3487 -1.5236 -2.9574
  183POPC   C2921007   4.914   0.393   5.583  0.0666  0.3157  1.0465
  183POPC   H9121008   5.016   0.353   5.591 -0.0811 -0.9314 -1.8363
  183POPC  C21021009   4.886   0.496   5.501  0.3939 -0.4168  0.2028
  183POPC  H10121010   4.965   0.551   5.447  0.6693 -1.1077 -0.1113
  183POPC  C21121011   4.746   0.545   5.465 -0.1225  0.4959 -0.1738
  183POPC  H11R21012   4.744   0.656   5.470 -1.0822  0.4257  2.2307
  183POPC  H11S21013   4.674   0.506   5.540  0.2092  0.0410 -0.0883
  183POPC  C21221014   4.690   0.503   5.329 -0.2368 -0.1419 -0.5780
  183POPC  H12R21015   4.585   0.534   5.310  0.0131  0.9849 -0.1633
  183POPC  H12S21016   4.702   0.393   5.315  1.4377  0.0837 -1.1659
  183POPC  C21321017   4.768   0.565   5.211 -0.6358 -0.0068  0.2332
  183POPC  H13R21018   4.867   0.515   5.213 -0.8881 -0.5314 -0.0626
  183POPC  H13S21019   4.775   0.675   5.226  1.9632 -0.2252  1.1414
  183POPC  C21421020   4.720   0.528   5.073  0.9988  0.0656  0.5283
  183POPC  H14R21021   4.676   0.426   5.069 -0.7216  0.7298  1.4193
  183POPC  H14S21022   4.811   0.529   5.010 -1.0155  1.9109 -2.6426
  183POPC  C21521023   4.636   0.628   4.987  0.4902 -0.6479 -1.0475
  183POPC  H15R21024   4.686   0.726   4.999 -1.1192 -0.1212  3.1494
  183POPC  H15S21025   4.534   0.644   5.028  1.6003  0.1044  1.6424
  183POPC  C21621026   4.628   0.583   4.838  0.3540 -0.0366  0.6371
  183POPC  H16R21027   4.597   0.477   4.833 -0.0261  0.1316 -2.5567
  183POPC  H16S21028   4.722   0.594   4.780  1.1392 -2.7722  1.2434
  183POPC  C21721029   4.532   0.660   4.750  0.6484 -0.4208  0.2381
  183POPC  H17R21030   4.561   0.767   4.750  0.2718 -0.2586 -2.5957
  183POPC  H17S21031   4.428   0.640   4.786 -0.6466  2.4468 -1.5773
  183POPC  C21821032   4.535   0.623   4.597  0.1205 -0.5905 -0.2974
  183POPC  H18R21033   4.470   0.699   4.548  0.8093  0.1838 -0.0202
  183POPC  H18S21034   4.487   0.530   4.559 -2.7300  0.0638  1.3862
  183POPC  H18T21035   4.634   0.620   4.548 -1.0269 -2.2838 -2.6957
  183POPC   C3321036   5.279   0.096   5.872  0.2705  0.4697 -0.5492
  183POPC   H3X21037   5.312  -0.010   5.879  1.4373  0.8174 -0.5535
  183POPC   H3Y21038   5.374   0.152   5.859  0.4506  0.8295  1.7442
  183POPC   C3421039   5.201   0.115   5.742 -0.4242 -0.0846 -0.2214
  183POPC   H4X21040   5.187   0.224   5.732 -2.3471 -0.4523 -2.8960
  183POPC   H4Y21041   5.102   0.064   5.736 -1.7427  2.0733  1.7186
  183POPC   C3521042   5.279   0.079   5.618 -0.4694 -0.3377 -0.3324
  183POPC   H5X21043   5.285  -0.030   5.602 -0.8361 -0.3073 -0.6874
  183POPC   H5Y21044   5.378   0.129   5.624 -1.8612  2.6699 -0.5113
  183POPC   C3621045   5.200   0.131   5.497  0.6482  0.2512 -0.0971
  183POPC   H6X21046   5.263   0.125   5.405 -0.8168  0.4062 -1.1436
  183POPC   H6Y21047   5.186   0.239   5.522  2.7525  0.9534 -1.6331
  183POPC   C3721048   5.061   0.067   5.467 -0.1116 -0.3611  0.4885
  183POPC   H7X21049   4.998   0.082   5.558 -2.1672  2.0861 -1.1833
  183POPC   H7Y21050   5.074  -0.041   5.448 -0.2179  0.0030 -2.0286
  183POPC   C3821051   4.988   0.122   5.343 -0.4014 -0.2929  1.0567
  183POPC   H8X21052   4.960   0.227   5.363 -1.5822 -0.5823  0.9913
  183POPC   H8Y21053   4.901   0.053   5.338 -1.7554  1.2935  1.6821
  183POPC   C3921054   5.070   0.121   5.209  0.0816 -0.3103 -0.5716
  183POPC   H9X21055   5.126   0.216   5.199  1.0470 -0.8573 -0.4305
  183POPC   H9Y21056   4.996   0.137   5.127 -0.0339  0.5794 -0.3103
  183POPC  C31021057   5.170   0.009   5.180  0.0960 -0.0380  0.1974
  183POPC  H10X21058   5.170  -0.063   5.264 -0.5731 -0.8567 -0.4888
  183POPC  H10Y21059   5.274   0.047   5.178  0.2752 -0.5561 -0.9253
  183POPC  C31121060   5.128  -0.070   5.056 -0.1385 -0.8323  0.5295
  183POPC  H11X21061   5.023  -0.106   5.053 -1.4468  2.6247 -1.9822
  183POPC  H11Y21062   5.181  -0.165   5.038 -0.8513 -0.8575 -1.8140
  183POPC  C31221063   5.149   0.008   4.930 -0.2094  0.0791 -0.0032
  183POPC  H12X21064   5.260   0.019   4.922 -0.2555 -0.2451 -1.2009
  183POPC  H12Y21065   5.098   0.106   4.941 -0.5762 -0.1743  0.6283
  183POPC  C31321066   5.098  -0.058   4.797  1.2172 -0.0325 -0.6708
  183POPC  H13X21067   4.992  -0.076   4.827  2.3151 -3.3054  1.7421
  183POPC  H13Y21068   5.139  -0.160   4.789 -1.8732 -1.2545 -3.0020
  183POPC  C31421069   5.108   0.026   4.665  0.1199  0.3404  0.5695
  183POPC  H14X21070   5.218   0.036   4.650  0.4924 -1.5278  1.7710
  183POPC  H14Y21071   5.063   0.128   4.673  1.5643  1.0852 -0.3172
  183POPC  C31521072   5.041  -0.050   4.547  0.2962  0.2677 -0.2206
  183POPC  H15X21073   4.938  -0.065   4.585  0.0023 -0.2123 -1.1655
  183POPC  H15Y21074   5.094  -0.147   4.539  0.4023  0.4715 -4.8857
  183POPC  C31621075   5.037   0.023   4.412  0.4808 -0.5111  0.1276
  183POPC  H16X21076   5.124   0.091   4.404  2.2864 -2.4792  1.7625
  183POPC  H16Y21077   4.944   0.084   4.416 -0.7106 -2.0160 -2.1365
  183POPC  H16Z21078   5.029  -0.047   4.325 -1.0908  0.5769 -0.6478
  184POPC     N21079   4.617   5.601   6.630  0.3925 -0.2099  0.0538
  184POPC   C1221080   4.537   5.546   6.746  0.4524 -0.4304 -0.7888
  184POPC  H12A21081   4.534   5.621   6.825  0.0832 -1.2381 -0.0175
  184POPC  H12B21082   4.596   5.475   6.803  2.0136  2.1808  1.1061
  184POPC   C1321083   4.739   5.667   6.683 -0.5996 -0.0164 -0.3262
  184POPC  H13A21084   4.807   5.607   6.740 -1.7219  1.1163  2.4055
  184POPC  H13B21085   4.788   5.729   6.609 -2.0362  2.3940  0.5945
  184POPC  H13C21086   4.695   5.739   6.752  0.3997  1.5478 -1.2641
  184POPC   C1421087   4.665   5.485   6.547  0.8689 -0.6697  0.5411
  184POPC  H14A21088   4.594   5.404   6.542  0.5292 -0.3866  0.6905
  184POPC  H14B21089   4.694   5.519   6.449  1.4598 -2.1772  0.1617
  184POPC  H14C21090   4.759   5.452   6.588  0.9118 -0.3163  0.7336
  184POPC   C1521091   4.546   5.698   6.541 -0.2014  0.4764  0.1248
  184POPC  H15A21092   4.487   5.766   6.601 -3.0317 -1.3467 -0.3778
  184POPC  H15B21093   4.474   5.641   6.484 -1.9496  1.6587  1.0605
  184POPC  H15C21094   4.607   5.746   6.466  1.5271 -2.5717 -0.5923
  184POPC   C1121095   4.397   5.482   6.702 -1.2137 -0.0019 -0.3179
  184POPC  H11A21096   4.347   5.573   6.663  0.0325  0.3925 -1.0441
  184POPC  H11B21097   4.350   5.444   6.795 -1.5603 -2.7272 -1.5221
  184POPC     P21098   4.325   5.380   6.480 -0.1185  0.3239 -0.1647
  184POPC   O1321099   4.320   5.514   6.421 -0.1934 -0.7719 -0.6799
  184POPC   O1421100   4.192   5.335   6.524  0.4801 -0.0696 -0.2352
  184POPC   O1221101   4.414   5.388   6.607 -0.3509  0.6674 -0.5491
  184POPC   O1121102   4.385   5.277   6.384  0.3674 -0.2255  0.1551
  184POPC    C121103   4.436   5.151   6.421  0.1885 -1.0271 -0.0412
  184POPC    HA21104   4.410   5.131   6.527  0.5228  0.8513  0.4331
  184POPC    HB21105   4.547   5.158   6.417  0.0343  2.1412 -1.8630
  184POPC    C221106   4.386   5.037   6.331  0.4649  0.7512  0.3537
  184POPC    HS21107   4.438   4.944   6.364 -2.5720 -0.7812  1.2516
  184POPC   O2121108   4.417   5.058   6.192  0.2360  0.1824  0.6066
  184POPC   C2121109   4.536   5.081   6.162  0.4305  0.0952  0.2846
  184POPC   O2221110   4.633   5.055   6.232  0.6873  0.1904 -0.0991
  184POPC   C2221111   4.545   5.138   6.020  0.1660  1.4428 -0.3874
  184POPC   H2R21112   4.487   5.232   6.022 -0.2434  1.1750  0.9916
  184POPC   H2S21113   4.474   5.073   5.963  0.1625 -1.3098  2.4560
  184POPC    C321114   4.230   5.027   6.355 -0.0711 -0.0174 -0.5807
  184POPC    HX21115   4.199   5.126   6.317  2.2461  0.2889 -1.8380
  184POPC    HY21116   4.219   5.027   6.466  0.8815  3.3883 -0.3966
  184POPC   O3121117   4.161   4.918   6.283  0.5567 -0.4350  0.5588
  184POPC   C3121118   4.202   4.795   6.307 -0.0802  0.2114  0.0023
  184POPC   O3221119   4.281   4.760   6.394 -0.3448  0.3380 -0.4912
  184POPC   C3221120   4.113   4.700   6.226 -0.1327  0.0282 -0.0190
  184POPC   H2X21121   4.008   4.735   6.226 -0.1680  0.0033 -1.5850
  184POPC   H2Y21122   4.128   4.603   6.278 -1.1792  0.6621  1.5262
  184POPC   C2321123   4.686   5.169   5.984 -0.2696 -0.8674 -0.6079
  184POPC   H3R21124   4.756   5.084   5.976  2.1971  1.1218 -1.5206
  184POPC   H3S21125   4.740   5.228   6.061  0.9366 -1.0537 -1.2933
  184POPC   C2421126   4.678   5.242   5.850  0.1686  0.1765  0.6212
  184POPC   H4R21127   4.775   5.293   5.828 -0.4461  0.7654 -0.8581
  184POPC   H4S21128   4.612   5.331   5.850 -0.3009 -0.1647 -0.1134
  184POPC   C2521129   4.645   5.153   5.724 -0.1633 -0.3525 -0.2143
  184POPC   H5R21130   4.542   5.114   5.728  0.1157 -0.9826  1.2348
  184POPC   H5S21131   4.703   5.060   5.742  0.4291 -0.0319 -0.4257
  184POPC   C2621132   4.682   5.211   5.586 -0.3734 -0.3900 -0.2020
  184POPC   H6R21133   4.780   5.262   5.600 -0.2081 -0.2082 -1.7740
  184POPC   H6S21134   4.617   5.297   5.560  0.5190  0.1960 -0.5677
  184POPC   C2721135   4.689   5.115   5.470 -0.0779 -0.4285  1.1126
  184POPC   H7R21136   4.589   5.075   5.443  0.5025 -0.5386 -1.0047
  184POPC   H7S21137   4.751   5.027   5.497 -0.0492 -0.4076  1.1138
  184POPC   C2821138   4.744   5.180   5.344  0.2565 -0.1265 -0.4516
  184POPC   H8R21139   4.795   5.098   5.289  0.7789  0.9895 -1.6902
  184POPC   H8S21140   4.830   5.245   5.373  0.3156  0.4060 -1.7290
  184POPC   C2921141   4.656   5.256   5.248  0.2344 -0.0836 -0.6338
  184POPC   H9121142   4.657   5.366   5.255  0.3139 -0.1514  0.7122
  184POPC  C21021143   4.581   5.193   5.153  0.7677 -0.0065  0.0911
  184POPC  H10121144   4.516   5.253   5.089 -0.7764 -0.5704  1.0652
  184POPC  C21121145   4.572   5.049   5.125 -0.6715 -0.6029  0.1650
  184POPC  H11R21146   4.467   5.025   5.099 -0.4486 -1.0532 -0.3578
  184POPC  H11S21147   4.591   5.008   5.226  0.6844  0.0422  0.1928
  184POPC  C21221148   4.676   4.993   5.023 -0.4777 -0.1896 -0.0822
  184POPC  H12R21149   4.680   4.886   5.049  1.6575  0.2197  1.5766
  184POPC  H12S21150   4.774   5.044   5.037 -0.9305  0.4583  0.8185
  184POPC  C21321151   4.624   5.014   4.877  0.1826 -0.5924 -0.2975
  184POPC  H13R21152   4.597   5.122   4.883  2.1103 -0.0602 -0.4318
  184POPC  H13S21153   4.531   4.956   4.856  0.3295 -0.4700 -1.3303
  184POPC  C21421154   4.730   4.994   4.778 -0.8220  1.0172 -0.4638
  184POPC  H14R21155   4.747   4.884   4.775  1.2027  1.3276 -1.7778
  184POPC  H14S21156   4.826   5.043   4.807 -0.2163 -0.0278 -0.6415
  184POPC  C21521157   4.694   5.048   4.641  0.1026 -0.8895  0.0848
  184POPC  H15R21158   4.668   5.154   4.662  1.3988 -1.1357  3.4873
  184POPC  H15S21159   4.602   4.993   4.613 -0.6242 -0.5894  1.7735
  184POPC  C21621160   4.816   5.042   4.546 -0.2765 -0.4366 -0.0471
  184POPC  H16R21161   4.864   4.942   4.541  2.3928  0.8002 -1.8408
  184POPC  H16S21162   4.894   5.115   4.578 -1.7594  1.4845 -0.6205
  184POPC  C21721163   4.774   5.076   4.407  0.9100 -0.0613  0.6162
  184POPC  H17R21164   4.674   5.033   4.385 -0.0776  1.7102  1.4140
  184POPC  H17S21165   4.856   5.039   4.343  1.1958 -0.0216  0.9516
  184POPC  C21821166   4.742   5.228   4.394 -0.3058  0.7646 -0.3871
  184POPC  H18R21167   4.832   5.280   4.433  0.4079 -1.4685  1.1760
  184POPC  H18S21168   4.660   5.261   4.461  0.1179 -0.0753  0.5796
  184POPC  H18T21169   4.707   5.253   4.292 -1.2336  1.6831  0.1305
  184POPC   C3321170   4.162   4.683   6.081  0.0435 -0.9766  0.5925
  184POPC   H3X21171   4.092   4.611   6.033 -1.8327  1.5841 -0.7793
  184POPC   H3Y21172   4.262   4.636   6.084  0.6732  0.1775 -1.0011
  184POPC   C3421173   4.152   4.809   5.996 -0.1605  0.2465  0.0222
  184POPC   H4X21174   4.235   4.882   5.999 -0.0998  0.2415 -1.1484
  184POPC   H4Y21175   4.054   4.855   6.023 -1.9610 -3.4320  0.3357
  184POPC   C3521176   4.144   4.773   5.845 -0.2241 -0.1111  0.2850
  184POPC   H5X21177   4.145   4.874   5.798  1.7649  0.4717  1.4415
  184POPC   H5Y21178   4.048   4.726   5.818 -1.2995  1.0613  1.8744
  184POPC   C3621179   4.269   4.701   5.799 -0.0870 -0.0753 -0.2936
  184POPC   H6X21180   4.288   4.608   5.857 -0.0557 -0.6442 -1.2012
  184POPC   H6Y21181   4.349   4.775   5.822 -0.9519  1.0223 -0.7451
  184POPC   C3721182   4.252   4.659   5.658 -0.1345 -0.4219 -0.7588
  184POPC   H7X21183   4.158   4.602   5.642 -1.0735  0.8785 -0.0516
  184POPC   H7Y21184   4.336   4.590   5.636  2.1411  1.0523  2.4879
  184POPC   C3821185   4.252   4.777   5.565 -0.3749 -0.1944  0.0808
  184POPC   H8X21186   4.340   4.840   5.591  0.4620 -0.5299 -1.8003
  184POPC   H8Y21187   4.167   4.843   5.592  0.4183  1.2303 -0.7825
  184POPC   C3921188   4.237   4.735   5.419 -0.4174 -0.3927 -0.0089
  184POPC   H9X21189   4.280   4.635   5.395 -1.0097 -0.5767 -0.3315
  184POPC   H9Y21190   4.278   4.820   5.361  2.1117 -1.5486 -0.0523
  184POPC  C31021191   4.085   4.718   5.396 -0.1117 -0.1852  0.4585
  184POPC  H10X21192   4.028   4.811   5.418 -1.2325 -1.1550  1.8349
  184POPC  H10Y21193   4.046   4.634   5.458  0.0162 -1.1772 -0.7711
  184POPC  C31121194   4.057   4.678   5.254  0.6658 -0.2939 -0.0110
  184POPC  H11X21195   3.946   4.667   5.247  0.3099  1.7773  1.3981
  184POPC  H11Y21196   4.106   4.579   5.247 -0.8267 -1.4471  3.4523
  184POPC  C31221197   4.116   4.769   5.146  0.4551  0.3342  0.6127
  184POPC  H12X21198   4.222   4.776   5.178  0.5206  1.4031  0.1955
  184POPC  H12Y21199   4.063   4.867   5.144  1.4077  0.8470  0.1846
  184POPC  C31321200   4.126   4.705   5.008  0.6588 -0.4178  0.1247
  184POPC  H13X21201   4.172   4.604   5.006  0.5507 -0.4705  0.2472
  184POPC  H13Y21202   4.178   4.774   4.938  0.0035 -1.1454 -1.1148
  184POPC  C31421203   3.986   4.687   4.943  0.3576  0.2137  0.5583
  184POPC  H14X21204   3.947   4.784   4.905  0.0032  0.3723  1.3127
  184POPC  H14Y21205   3.912   4.657   5.021  1.5571  0.4986  1.8355
  184POPC  C31521206   3.990   4.599   4.818 -0.5106 -0.0495  0.3944
  184POPC  H15X21207   3.990   4.496   4.857  1.0480 -0.2051  0.0424
  184POPC  H15Y21208   4.082   4.608   4.756 -0.3156 -0.9955  0.5395
  184POPC  C31621209   3.876   4.627   4.722 -0.1107 -0.4951 -0.9853
  184POPC  H16X21210   3.783   4.574   4.752 -0.5131 -0.8409 -2.7340
  184POPC  H16Y21211   3.896   4.594   4.618  0.7116  1.0706 -1.3687
  184POPC  H16Z21212   3.846   4.734   4.717 -1.4293 -0.8492 -0.9763
  185POPC     N21213   4.658   1.565   1.828  0.0509 -0.0976 -0.5902
  185POPC   C1221214   4.587   1.650   1.933  0.0897  0.2249  0.0819
  185POPC  H12A21215   4.480   1.633   1.924 -0.1152  1.1099  0.7734
  185POPC  H12B21216   4.580   1.753   1.902 -1.2881  0.9087  2.4130
  185POPC   C1321217   4.607   1.423   1.842  0.0154  0.7587  0.2807
  185POPC  H13A21218   4.499   1.416   1.843  0.0114  0.8087  1.1182
  185POPC  H13B21219   4.640   1.358   1.763 -1.7425 -1.1888  1.0507
  185POPC  H13C21220   4.651   1.377   1.930  1.0833  1.4713  0.1364
  185POPC   C1421221   4.623   1.606   1.690 -0.2556  0.3013  0.4600
  185POPC  H14A21222   4.526   1.569   1.661  0.1848  1.5063 -3.0258
  185POPC  H14B21223   4.628   1.713   1.678 -1.0017  0.2285 -0.5943
  185POPC  H14C21224   4.696   1.561   1.624 -0.6789  1.6513 -0.9750
  185POPC   C1521225   4.806   1.569   1.845 -0.7219 -0.7556 -0.2159
  185POPC  H15A21226   4.842   1.669   1.828 -2.0730 -0.3288 -0.7099
  185POPC  H15B21227   4.857   1.508   1.771  1.4780  0.8099 -0.0874
  185POPC  H15C21228   4.835   1.537   1.944 -0.0779  1.5841  0.4082
  185POPC   C1121229   4.630   1.646   2.075  0.3797  0.6444 -0.4737
  185POPC  H11A21230   4.599   1.734   2.135 -0.4191 -0.3091  0.5732
  185POPC  H11B21231   4.741   1.644   2.076  0.4046 -0.7647 -1.8576
  185POPC     P21232   4.444   1.498   2.177  0.4901  0.2267  0.1764
  185POPC   O1321233   4.372   1.411   2.082  0.0988  0.2415  0.4110
  185POPC   O1421234   4.381   1.635   2.192 -0.2727  0.0119  0.1621
  185POPC   O1221235   4.591   1.510   2.132  0.5985 -0.8770  0.8424
  185POPC   O1121236   4.452   1.427   2.312 -0.8735 -0.4386  0.1381
  185POPC    C121237   4.565   1.461   2.403  0.1936  0.6514  1.0058
  185POPC    HA21238   4.517   1.516   2.487  0.2693  0.6838  1.0272
  185POPC    HB21239   4.649   1.518   2.358 -0.5909 -0.7216 -2.5486
  185POPC    C221240   4.633   1.334   2.472  0.8512 -0.2671 -0.0983
  185POPC    HS21241   4.666   1.271   2.387 -0.9069 -1.3527 -0.0195
  185POPC   O2121242   4.523   1.283   2.553  0.0622 -0.3635  0.2076
  185POPC   C2121243   4.532   1.150   2.580 -1.0898  0.6930 -0.4554
  185POPC   O2221244   4.610   1.074   2.519 -0.3698  0.0819  0.1255
  185POPC   C2221245   4.428   1.098   2.674  0.0436  0.6287  0.6186
  185POPC   H2R21246   4.332   1.094   2.618  0.6612  0.2061 -0.4247
  185POPC   H2S21247   4.427   1.159   2.767 -0.2323  0.8406  0.4754
  185POPC    C321248   4.760   1.370   2.559  0.0924  0.5199 -0.6919
  185POPC    HX21249   4.729   1.447   2.633  1.5057  1.6505 -1.2344
  185POPC    HY21250   4.827   1.422   2.488  0.9758 -0.3023 -0.4939
  185POPC   O3121251   4.819   1.255   2.638 -0.0682  0.8072  0.0312
  185POPC   C3121252   4.930   1.204   2.584  0.0750 -0.5440  0.0431
  185POPC   O3221253   4.984   1.249   2.479  0.1869  0.4121 -0.5366
  185POPC   C3221254   4.958   1.063   2.650  0.8654 -0.2313 -0.2757
  185POPC   H2X21255   4.979   0.985   2.574 -2.4124 -1.6845  0.1174
  185POPC   H2Y21256   4.863   1.023   2.692  0.0157  0.5534 -1.3976
  185POPC   C2321257   4.465   0.952   2.709  0.3073 -0.3244  0.0044
  185POPC   H3R21258   4.573   0.951   2.736  0.5413 -1.7259 -0.8805
  185POPC   H3S21259   4.459   0.887   2.619  1.4086  0.0958 -0.3960
  185POPC   C2421260   4.367   0.892   2.813  0.2671  0.3679 -0.5549
  185POPC   H4R21261   4.378   0.783   2.797 -2.2326 -0.1160  0.4712
  185POPC   H4S21262   4.262   0.911   2.783  0.3935  1.6414 -0.2841
  185POPC   C2521263   4.395   0.926   2.960  0.1135  0.0486  0.2484
  185POPC   H5R21264   4.501   0.922   2.991 -0.4861 -2.6020  2.4011
  185POPC   H5S21265   4.363   0.831   3.007  2.0861 -1.3279 -0.9967
  185POPC   C2621266   4.318   1.051   3.012 -0.0765 -0.2702  0.3489
  185POPC   H6R21267   4.345   1.135   2.945  0.3939  0.2166  1.1387
  185POPC   H6S21268   4.371   1.079   3.106  0.7583  1.5894 -0.6316
  185POPC   C2721269   4.169   1.033   3.031 -0.6015 -0.0478 -0.4977
  185POPC   H7R21270   4.108   1.007   2.943 -0.4197  0.4626 -0.7751
  185POPC   H7S21271   4.139   1.130   3.077  2.1506  0.7044 -0.1167
  185POPC   C2821272   4.128   0.923   3.139  0.0562  0.2923 -0.0817
  185POPC   H8R21273   4.190   0.936   3.230  1.7565 -0.8002 -1.0410
  185POPC   H8S21274   4.152   0.824   3.095 -1.7187 -0.6373  0.9522
  185POPC   C2921275   3.980   0.930   3.180 -0.0366  0.2570 -0.7082
  185POPC   H9121276   3.919   0.946   3.090  1.4998  3.9084 -1.2742
  185POPC  C21021277   3.920   0.909   3.303  0.3177 -0.2293  0.1261
  185POPC  H10121278   3.811   0.921   3.303  0.3546  0.9056 -2.4918
  185POPC  C21121279   3.993   0.878   3.432  0.1179  0.1475  0.8007
  185POPC  H11R21280   4.101   0.907   3.433  0.1863 -0.1005  1.4813
  185POPC  H11S21281   3.978   0.770   3.451 -0.3336  0.3042  1.3482
  185POPC  C21221282   3.943   0.962   3.550 -0.2308  0.0988 -0.1539
  185POPC  H12R21283   3.952   1.070   3.525 -1.6635  0.0228 -1.0989
  185POPC  H12S21284   4.012   0.929   3.630 -1.2829 -0.3077  0.6105
  185POPC  C21321285   3.806   0.927   3.600 -0.2716  0.0058  0.3310
  185POPC  H13R21286   3.768   0.828   3.569  2.4617 -1.0549  0.0744
  185POPC  H13S21287   3.738   0.992   3.541  0.2384 -1.2992 -1.8006
  185POPC  C21421288   3.790   0.930   3.748  0.0871 -0.0260 -0.4599
  185POPC  H14R21289   3.820   1.029   3.787 -1.4928  0.7693 -1.1570
  185POPC  H14S21290   3.848   0.856   3.808  0.1456  0.7546  0.4694
  185POPC  C21521291   3.641   0.913   3.784  0.3855  0.3175 -0.2220
  185POPC  H15R21292   3.615   0.817   3.734  1.0213 -0.3596  0.7181
  185POPC  H15S21293   3.577   0.989   3.734  1.6790  0.0750 -2.3797
  185POPC  C21621294   3.627   0.912   3.937 -0.4534  0.6439 -0.5750
  185POPC  H16R21295   3.662   1.008   3.980  0.1106  0.2160 -0.0746
  185POPC  H16S21296   3.694   0.835   3.980  1.1129  2.5049  0.4543
  185POPC  C21721297   3.477   0.908   3.982 -0.3363  0.1418 -0.7447
  185POPC  H17R21298   3.421   0.824   3.935 -1.5908  1.4676 -1.7091
  185POPC  H17S21299   3.439   1.004   3.943  0.0051  0.0253 -1.3889
  185POPC  C21821300   3.461   0.910   4.137  0.9506  0.1958  0.3525
  185POPC  H18R21301   3.366   0.859   4.162  0.9855 -0.3831 -0.6145
  185POPC  H18S21302   3.458   1.014   4.176  2.1015  2.0470 -3.9038
  185POPC  H18T21303   3.530   0.848   4.199  0.1307 -0.8211  0.2815
  185POPC   C3321304   5.080   1.066   2.744 -0.2558  0.3261 -0.3287
  185POPC   H3X21305   5.181   1.088   2.702 -1.1862  2.2357 -1.7089
  185POPC   H3Y21306   5.096   0.966   2.788  1.3894  1.0400  0.8315
  185POPC   C3421307   5.078   1.172   2.857 -0.2122  0.1589  0.1902
  185POPC   H4X21308   4.985   1.154   2.915 -0.6285 -1.0576 -0.7877
  185POPC   H4Y21309   5.071   1.277   2.824 -2.1471 -0.1224 -0.4180
  185POPC   C3521310   5.200   1.157   2.942 -0.1536 -0.7077 -0.3287
  185POPC   H5X21311   5.286   1.204   2.889  0.5451 -2.3389 -0.7158
  185POPC   H5Y21312   5.221   1.049   2.962  0.5205 -0.1961  1.9825
  185POPC   C3621313   5.187   1.220   3.083  0.0420 -0.0005 -0.1313
  185POPC   H6X21314   5.148   1.145   3.155 -0.8925  2.2307  1.8397
  185POPC   H6Y21315   5.122   1.309   3.080  1.4522  1.2034  2.0223
  185POPC   C3721316   5.318   1.285   3.115 -0.4951  0.7605 -0.1524
  185POPC   H7X21317   5.346   1.361   3.039  0.1622  1.2937  0.5996
  185POPC   H7Y21318   5.396   1.207   3.131 -2.2395 -1.0505 -0.1350
  185POPC   C3821319   5.308   1.350   3.252  0.2256 -0.0442 -0.3478
  185POPC   H8X21320   5.272   1.281   3.332 -1.2062  1.3700  0.2863
  185POPC   H8Y21321   5.230   1.429   3.253  0.6249  0.3560  0.1193
  185POPC   C3921322   5.439   1.405   3.296  0.4604 -0.5744  0.5270
  185POPC   H9X21323   5.459   1.467   3.206  0.2963  0.3712  1.1317
  185POPC   H9Y21324   5.525   1.335   3.306 -0.1325 -1.1753  1.6420
  185POPC  C31021325   5.423   1.503   3.413 -0.1784 -0.7143  0.1839
  185POPC  H10X21326   5.334   1.565   3.391 -0.7409 -2.1975 -2.0508
  185POPC  H10Y21327   5.514   1.567   3.418 -2.4408  2.7154  1.9659
  185POPC  C31121328   5.380   1.431   3.543  0.8186  0.1127  0.0731
  185POPC  H11X21329   5.270   1.418   3.539  0.9110 -1.3359  1.2598
  185POPC  H11Y21330   5.409   1.502   3.623 -0.9845  0.7905  0.1657
  185POPC  C31221331   5.467   1.309   3.584 -0.8748 -0.7049  0.1134
  185POPC  H12X21332   5.563   1.317   3.528 -1.5833 -0.2961 -1.0876
  185POPC  H12Y21333   5.425   1.217   3.538 -1.0952 -0.0770 -0.9819
  185POPC  C31321334   5.494   1.300   3.732 -0.0577  0.0520  0.2921
  185POPC  H13X21335   5.400   1.317   3.789 -2.4639  3.0645 -4.0390
  185POPC  H13Y21336   5.572   1.371   3.768  1.4633 -1.6004  0.3980
  185POPC  C31421337   5.553   1.162   3.770  0.1079 -0.4809  0.6734
  185POPC  H14X21338   5.629   1.150   3.690 -0.1420  0.8701  0.2142
  185POPC  H14Y21339   5.480   1.082   3.747 -1.1401  0.7487  0.2571
  185POPC  C31521340   5.608   1.154   3.904  0.2690  0.1156 -0.0071
  185POPC  H15X21341   5.674   1.241   3.923  1.0701 -0.5147  0.1559
  185POPC  H15Y21342   5.669   1.061   3.901 -1.3524 -0.9669 -1.4653
  185POPC  C31621343   5.508   1.150   4.017  0.0445 -0.1413 -0.3331
  185POPC  H16X21344   5.468   1.253   4.028  2.0267  0.6344  0.1507
  185POPC  H16Y21345   5.545   1.130   4.120 -0.1738 -1.2742 -0.4656
  185POPC  H16Z21346   5.433   1.072   3.996  1.6397 -1.9301  0.3118
  186POPC     N21347   5.573   4.431   2.482 -0.1531 -0.4051 -0.6445
  186POPC   C1221348   5.529   4.573   2.441  0.2555  0.9051  0.3659
  186POPC  H12A21349   5.496   4.569   2.339 -0.5461 -1.4875  0.6490
  186POPC  H12B21350   5.610   4.643   2.436  0.0994  1.2257  1.7428
  186POPC   C1321351   5.655   4.363   2.382  0.5473  0.1940  0.3421
  186POPC  H13A21352   5.686   4.263   2.409  0.8987  0.0031 -0.7257
  186POPC  H13B21353   5.600   4.349   2.290 -1.3254 -3.1353  1.7782
  186POPC  H13C21354   5.746   4.415   2.356 -0.0801  1.0619 -0.1848
  186POPC   C1421355   5.657   4.459   2.604  0.3772  0.2754 -0.6987
  186POPC  H14A21356   5.663   4.376   2.672  0.2259  1.2695  0.5719
  186POPC  H14B21357   5.747   4.509   2.571  0.4593  0.0200 -0.8666
  186POPC  H14C21358   5.603   4.540   2.652 -1.0217 -0.7491 -0.4702
  186POPC   C1521359   5.456   4.350   2.514 -0.2620  0.7571 -0.0662
  186POPC  H15A21360   5.410   4.309   2.425  2.0666  0.6283 -1.2973
  186POPC  H15B21361   5.389   4.408   2.575  1.2020  1.6867  0.7184
  186POPC  H15C21362   5.488   4.264   2.571  1.5165 -0.7580 -3.0660
  186POPC   C1121363   5.420   4.645   2.525  1.4334 -0.1064  0.5422
  186POPC  H11A21364   5.327   4.590   2.503  0.4866  0.2267  3.2393
  186POPC  H11B21365   5.401   4.745   2.480  0.0511 -0.1278  1.0489
  186POPC     P21366   5.441   4.787   2.737  0.0849  0.0237  0.1973
  186POPC   O1321367   5.302   4.814   2.778 -0.4392  0.2253  0.5147
  186POPC   O1421368   5.507   4.880   2.643  0.3861 -0.1406 -0.2258
  186POPC   O1221369   5.447   4.647   2.669 -0.0056  0.5160  0.8066
  186POPC   O1121370   5.526   4.760   2.866  0.1202  0.5020 -0.0244
  186POPC    C121371   5.666   4.754   2.879  0.2030  0.3355 -0.4831
  186POPC    HA21372   5.722   4.845   2.846  2.3071 -1.5718 -2.6157
  186POPC    HB21373   5.701   4.667   2.820  0.6089  1.0598 -1.3353
  186POPC    C221374   5.706   4.732   3.025 -0.0038 -0.4359  0.4831
  186POPC    HS21375   5.816   4.718   3.030  0.0275 -0.2899  0.2230
  186POPC   O2121376   5.628   4.624   3.084 -0.7867 -0.2209  0.2261
  186POPC   C2121377   5.682   4.503   3.061 -0.2430  0.1598  0.4784
  186POPC   O2221378   5.782   4.476   2.991  0.1045 -0.2897 -0.4064
  186POPC   C2221379   5.596   4.397   3.135 -0.0513  0.2358 -0.5629
  186POPC   H2R21380   5.618   4.299   3.088 -3.0789 -0.5895 -0.4773
  186POPC   H2S21381   5.487   4.416   3.123  0.2417  0.9036 -2.6493
  186POPC    C321382   5.678   4.864   3.111 -0.3678  0.0276  0.8036
  186POPC    HX21383   5.569   4.854   3.128 -0.1657 -2.2330  1.0969
  186POPC    HY21384   5.707   4.957   3.057  0.8870 -0.5711  0.4201
  186POPC   O3121385   5.750   4.866   3.240 -0.0981  0.0362 -0.2132
  186POPC   C3121386   5.714   4.956   3.329  0.0989  0.0669  0.1035
  186POPC   O3221387   5.633   5.044   3.320 -0.2970 -0.3485  0.0686
  186POPC   C3221388   5.784   4.924   3.461 -0.1694 -0.1102  0.0843
  186POPC   H2X21389   5.891   4.950   3.447 -0.5479  2.7792  1.8310
  186POPC   H2Y21390   5.779   4.815   3.485 -2.6519  0.2080  1.3834
  186POPC   C2321391   5.634   4.376   3.279 -0.2572  0.5292 -0.7141
  186POPC   H3R21392   5.744   4.370   3.296 -0.3672 -0.3942 -0.2396
  186POPC   H3S21393   5.596   4.279   3.318  1.4630 -0.0523 -0.4103
  186POPC   C2421394   5.589   4.495   3.372 -0.4607  0.4935  0.9269
  186POPC   H4R21395   5.478   4.487   3.367 -0.4190  0.4585 -0.2132
  186POPC   H4S21396   5.628   4.585   3.319 -3.1246 -0.5583 -3.3289
  186POPC   C2521397   5.638   4.472   3.517 -0.1775  0.4543  0.0319
  186POPC   H5R21398   5.748   4.486   3.529  0.2088 -2.8522  1.3632
  186POPC   H5S21399   5.617   4.365   3.535  1.6122 -0.1789 -1.3414
  186POPC   C2621400   5.566   4.557   3.627 -0.5826  1.0236 -0.0991
  186POPC   H6R21401   5.463   4.516   3.631 -0.6053  0.9852 -0.9722
  186POPC   H6S21402   5.548   4.662   3.596 -1.5294  0.4175 -1.6917
  186POPC   C2721403   5.633   4.539   3.761  0.0209 -0.2278  0.1434
  186POPC   H7R21404   5.729   4.594   3.769 -0.4131  0.6371 -0.4815
  186POPC   H7S21405   5.662   4.435   3.786  0.7661  0.2048  1.1421
  186POPC   C2821406   5.549   4.592   3.874  0.0525 -1.1363 -0.7855
  186POPC   H8R21407   5.526   4.698   3.848  1.2391 -0.2593  1.4875
  186POPC   H8S21408   5.618   4.614   3.958  0.1004  0.3789 -1.1840
  186POPC   C2921409   5.443   4.510   3.927  0.4472 -0.4215  0.1709
  186POPC   H9121410   5.374   4.469   3.852 -0.0179  0.4919  0.0874
  186POPC  C21021411   5.407   4.489   4.055 -0.2327  0.1951 -0.0889
  186POPC  H10121412   5.319   4.425   4.068 -0.0133 -0.3738 -1.2539
  186POPC  C21121413   5.486   4.529   4.179 -0.1079 -0.2242 -0.4883
  186POPC  H11R21414   5.572   4.597   4.162  1.2341 -1.9532 -0.8815
  186POPC  H11S21415   5.515   4.437   4.235 -1.1038  0.5880  1.4790
  186POPC  C21221416   5.400   4.601   4.281  0.5852  0.5432 -0.6447
  186POPC  H12R21417   5.330   4.525   4.321  2.3045 -1.4399 -1.2594
  186POPC  H12S21418   5.334   4.675   4.230  0.0027  0.6852  0.2735
  186POPC  C21321419   5.464   4.662   4.407 -0.1991  0.0765  0.6511
  186POPC  H13R21420   5.543   4.727   4.364  0.3484 -0.2841  1.0856
  186POPC  H13S21421   5.524   4.585   4.460  1.6828  1.6482  0.8986
  186POPC  C21421422   5.384   4.735   4.513  0.8772 -0.4992 -0.7547
  186POPC  H14R21423   5.435   4.749   4.610 -1.4192 -1.6849  0.7197
  186POPC  H14S21424   5.289   4.682   4.536 -0.0322  0.6755 -1.6525
  186POPC  C21521425   5.331   4.873   4.475  0.3683  0.0055  0.0659
  186POPC  H15R21426   5.262   4.875   4.388 -0.2907 -0.9873  0.5424
  186POPC  H15S21427   5.413   4.944   4.453  1.1702 -0.9788 -0.1921
  186POPC  C21621428   5.247   4.951   4.587 -0.2801  0.6841  0.7972
  186POPC  H16R21429   5.159   4.890   4.619  0.4483 -1.4578 -1.0719
  186POPC  H16S21430   5.205   5.047   4.550 -0.4789  0.5587  0.6932
  186POPC  C21721431   5.333   4.988   4.707 -0.1032 -0.4501 -0.2578
  186POPC  H17R21432   5.427   5.041   4.680  1.4567 -2.5163  0.7825
  186POPC  H17S21433   5.362   4.891   4.753  1.9511  0.4545  0.5001
  186POPC  C21821434   5.255   5.080   4.806 -0.3789 -0.2972  0.3313
  186POPC  H18R21435   5.161   5.030   4.838  0.2670 -1.2651  0.7733
  186POPC  H18S21436   5.314   5.099   4.899  0.0637 -0.4105  0.0772
  186POPC  H18T21437   5.225   5.179   4.764 -0.1676 -0.1901  0.4246
  186POPC   C3321438   5.741   5.003   3.587  0.2064 -0.0370  0.2155
  186POPC   H3X21439   5.631   5.010   3.588  0.2570  1.1117  1.7313
  186POPC   H3Y21440   5.784   5.105   3.581  2.1455 -0.8374 -0.4203
  186POPC   C3421441   5.791   4.940   3.720 -0.8900  0.4010 -0.1125
  186POPC   H4X21442   5.901   4.925   3.718 -0.8608 -0.0852  2.0502
  186POPC   H4Y21443   5.738   4.843   3.730 -0.5903  0.0286 -1.8111
  186POPC   C3521444   5.765   5.032   3.846  0.7923  0.3851 -0.3071
  186POPC   H5X21445   5.656   5.056   3.854  0.2733 -1.4047 -1.4456
  186POPC   H5Y21446   5.825   5.120   3.815  0.2388  0.8967  0.0443
  186POPC   C3621447   5.825   4.987   3.978 -0.0532 -0.7686  0.0905
  186POPC   H6X21448   5.922   4.938   3.953  0.8956  1.1731 -0.2985
  186POPC   H6Y21449   5.761   4.912   4.028  0.6933 -1.4439  0.0455
  186POPC   C3721450   5.850   5.108   4.078  0.0513 -0.0596 -0.4223
  186POPC   H7X21451   5.751   5.138   4.118 -0.1399 -0.5190 -0.5333
  186POPC   H7Y21452   5.891   5.188   4.013 -0.8709 -2.5939 -4.4843
  186POPC   C3821453   5.952   5.065   4.184  0.5576 -0.1920  0.8762
  186POPC   H8X21454   6.038   5.019   4.132  2.1958  1.2974  2.1201
  186POPC   H8Y21455   5.905   5.007   4.266 -1.4214  1.2471  0.8651
  186POPC   C3921456   6.010   5.194   4.251 -0.3213  0.1488 -0.1032
  186POPC   H9X21457   5.929   5.238   4.313 -0.1602 -2.4984  2.1815
  186POPC   H9Y21458   6.041   5.259   4.166  1.0154 -0.2643  0.0339
  186POPC  C31021459   6.132   5.168   4.341  0.4103  0.1878 -0.0257
  186POPC  H10X21460   6.197   5.088   4.298 -0.0106 -1.1541  1.7407
  186POPC  H10Y21461   6.109   5.116   4.436  0.8231 -1.0550 -0.5900
  186POPC  C31121462   6.210   5.294   4.376 -0.6161  0.7677 -0.4453
  186POPC  H11X21463   6.133   5.365   4.414 -1.6194 -0.6473  0.2505
  186POPC  H11Y21464   6.246   5.342   4.282  2.5441 -3.0762 -1.4857
  186POPC  C31221465   6.316   5.286   4.488 -0.5600  0.9522  1.2822
  186POPC  H12X21466   6.316   5.187   4.539 -0.4643  0.3222  0.0915
  186POPC  H12Y21467   6.303   5.346   4.581 -3.5907  1.7600  0.4570
  186POPC  C31321468   6.453   5.320   4.426 -0.4566  0.2376 -0.1486
  186POPC  H13X21469   6.442   5.423   4.387 -0.6045  0.1948 -0.2222
  186POPC  H13Y21470   6.478   5.254   4.341 -1.0696 -2.5875  1.7084
  186POPC  C31421471   6.567   5.317   4.526  0.0275  1.3039  0.6832
  186POPC  H14X21472   6.552   5.400   4.599  0.3127  3.5117 -1.6401
  186POPC  H14Y21473   6.660   5.347   4.474 -0.8473  1.3481 -0.9120
  186POPC  C31521474   6.591   5.170   4.572  0.1431 -0.6962 -0.3532
  186POPC  H15X21475   6.601   5.106   4.482  0.0576 -0.3691 -0.5949
  186POPC  H15Y21476   6.498   5.142   4.627 -0.6665  0.6574 -0.9907
  186POPC  C31621477   6.716   5.155   4.661  0.0001  0.5932  0.1460
  186POPC  H16X21478   6.800   5.202   4.606  0.0436 -1.6115 -1.8373
  186POPC  H16Y21479   6.739   5.051   4.692 -1.1801  0.7004  1.4752
  186POPC  H16Z21480   6.713   5.213   4.756  1.5615  0.9832 -0.0157
  187POPC     N21481   4.009   2.144   2.072 -0.1895  0.1782 -0.4106
  187POPC   C1221482   4.079   2.215   2.191 -0.1633 -0.5927 -0.1002
  187POPC  H12A21483   3.999   2.249   2.254 -1.4890 -0.2201 -1.8999
  187POPC  H12B21484   4.138   2.298   2.154 -1.7241  0.0513 -1.2400
  187POPC   C1321485   4.107   2.101   1.976 -0.2458  0.6454  0.5330
  187POPC  H13A21486   4.075   2.048   1.887  0.3728 -1.7055  1.6352
  187POPC  H13B21487   4.170   2.184   1.949  0.6888  0.5092  2.1783
  187POPC  H13C21488   4.174   2.034   2.028 -0.8174 -0.6551 -0.3477
  187POPC   C1421489   3.929   2.025   2.125 -0.0241 -0.2655  0.3386
  187POPC  H14A21490   3.995   1.950   2.167  0.6009 -2.0248 -3.3858
  187POPC  H14B21491   3.855   2.056   2.197 -0.9221  1.4978 -1.2752
  187POPC  H14C21492   3.874   1.964   2.056 -2.1549  1.0683  0.7784
  187POPC   C1521493   3.912   2.233   2.009  0.0369 -0.1758  0.4794
  187POPC  H15A21494   3.879   2.191   1.915  0.2025  0.1239  0.2868
  187POPC  H15B21495   3.956   2.329   1.985 -1.0688  0.3770  0.6022
  187POPC  H15C21496   3.818   2.240   2.061 -1.5219 -1.8884 -1.8776
  187POPC   C1121497   4.169   2.136   2.293  0.0257 -0.4217 -0.4168
  187POPC  H11A21498   4.212   2.216   2.357 -1.8947 -1.4729  2.3894
  187POPC  H11B21499   4.251   2.078   2.244  0.4032 -0.8598  0.7131
  187POPC     P21500   3.997   2.084   2.484  0.0908 -0.1592 -0.0615
  187POPC   O1321501   3.931   1.959   2.525 -0.3753  0.3369  0.4111
  187POPC   O1421502   3.898   2.186   2.442  0.3462 -0.2868 -0.1563
  187POPC   O1221503   4.090   2.042   2.369 -0.3428  0.3081 -0.2917
  187POPC   O1121504   4.093   2.142   2.590 -0.1624  0.3705 -0.9239
  187POPC    C121505   4.062   2.243   2.686  0.6253 -0.2207  0.8387
  187POPC    HA21506   3.994   2.319   2.642 -0.9733 -0.0080  3.4911
  187POPC    HB21507   4.152   2.304   2.713  0.4559 -0.0755  1.0832
  187POPC    C221508   3.996   2.192   2.818  0.8785  0.1988  0.3810
  187POPC    HS21509   4.004   2.279   2.887 -0.9584 -0.1015  1.0307
  187POPC   O2121510   4.058   2.073   2.864  0.6822 -0.5462 -0.3573
  187POPC   C2121511   4.178   2.092   2.911 -0.2872 -0.0403 -0.3363
  187POPC   O2221512   4.236   2.200   2.920  0.0680  0.2097 -0.1460
  187POPC   C2221513   4.237   1.956   2.953  0.5550 -0.1438 -0.2470
  187POPC   H2R21514   4.304   1.923   2.871  0.6185  0.3512 -0.4022
  187POPC   H2S21515   4.155   1.884   2.972 -0.2242  1.0588  1.1583
  187POPC    C321516   3.842   2.169   2.807  0.0533  0.6951 -0.4364
  187POPC    HX21517   3.826   2.078   2.745 -1.2478 -0.3291  1.3105
  187POPC    HY21518   3.795   2.252   2.751 -2.5842 -1.5869 -1.8628
  187POPC   O3121519   3.785   2.151   2.942  0.5710 -0.0537  0.7285
  187POPC   C3121520   3.710   2.233   3.001 -0.0526 -0.3547 -0.1223
  187POPC   O3221521   3.649   2.330   2.954  0.4918  0.2275 -0.2031
  187POPC   C3221522   3.708   2.196   3.150 -0.6603  0.0071  0.3990
  187POPC   H2X21523   3.604   2.167   3.175 -1.6774  2.7284 -0.3390
  187POPC   H2Y21524   3.738   2.282   3.214 -2.8742 -0.0058  1.5410
  187POPC   C2321525   4.324   1.955   3.086  0.3440 -0.2736 -0.1401
  187POPC   H3R21526   4.260   1.997   3.166  0.2586 -0.4553 -0.1121
  187POPC   H3S21527   4.418   2.014   3.075 -0.4518  0.7864 -1.7587
  187POPC   C2421528   4.368   1.811   3.117  0.2476  0.0534 -0.7268
  187POPC   H4R21529   4.434   1.779   3.033 -0.7778 -2.1354 -0.7611
  187POPC   H4S21530   4.291   1.732   3.123  1.3909 -1.0719 -0.3111
  187POPC   C2521531   4.454   1.807   3.251 -0.3996 -0.1570  0.3628
  187POPC   H5R21532   4.471   1.912   3.283 -2.2135  0.8672 -1.7354
  187POPC   H5S21533   4.544   1.747   3.227 -0.5540 -1.0504  1.8508
  187POPC   C2621534   4.378   1.735   3.359  0.0222  0.2311  0.2225
  187POPC   H6R21535   4.351   1.631   3.330 -2.0677  0.8797 -0.3185
  187POPC   H6S21536   4.282   1.790   3.363 -1.4963 -2.3079  0.5113
  187POPC   C2721537   4.446   1.736   3.495 -0.1493 -0.0416  0.1554
  187POPC   H7R21538   4.484   1.839   3.512 -2.8194  1.1555 -0.6146
  187POPC   H7S21539   4.527   1.660   3.504  0.0228 -0.0696 -1.3604
  187POPC   C2821540   4.354   1.707   3.609 -0.0991  0.1027 -0.1504
  187POPC   H8R21541   4.295   1.615   3.588 -0.4724 -0.6200  3.4535
  187POPC   H8S21542   4.288   1.796   3.616  1.5416  1.6555 -2.5862
  187POPC   C2921543   4.427   1.694   3.741 -0.3159  0.1882 -0.1050
  187POPC   H9121544   4.504   1.772   3.754  1.0618 -0.9637 -0.9492
  187POPC  C21021545   4.404   1.606   3.842 -0.0827 -0.5095 -0.1185
  187POPC  H10121546   4.465   1.600   3.933 -2.3375  0.4457  1.5342
  187POPC  C21121547   4.301   1.500   3.842  0.1055 -0.4153 -0.3929
  187POPC  H11R21548   4.250   1.476   3.746  1.3133  0.9219 -1.4158
  187POPC  H11S21549   4.221   1.550   3.901  0.1084 -1.5251  0.5713
  187POPC  C21221550   4.345   1.367   3.909  0.5206 -0.4034 -0.2815
  187POPC  H12R21551   4.395   1.382   4.007  0.4481  0.0176 -0.3079
  187POPC  H12S21552   4.415   1.322   3.836  2.7844  0.2055  1.4121
  187POPC  C21321553   4.210   1.281   3.921  0.4029  0.1804  0.1761
  187POPC  H13R21554   4.156   1.283   3.823  0.1530 -0.8151  0.2858
  187POPC  H13S21555   4.149   1.347   3.987 -1.5759 -0.3468 -1.0191
  187POPC  C21421556   4.232   1.138   3.965  0.9165 -0.3215  0.4667
  187POPC  H14R21557   4.252   1.125   4.074  0.6229 -0.6060  0.4908
  187POPC  H14S21558   4.316   1.090   3.911  0.5582 -0.6681  0.2094
  187POPC  C21521559   4.102   1.054   3.942 -0.0596  0.0415  0.8701
  187POPC  H15R21560   4.134   0.950   3.967 -0.0071 -1.0493 -3.0423
  187POPC  H15S21561   4.084   1.055   3.832  0.8742  0.5591  0.7053
  187POPC  C21621562   3.982   1.086   4.031 -0.2561  0.7789  0.1473
  187POPC  H16R21563   3.885   1.037   4.009 -0.9180  1.5612  1.2154
  187POPC  H16S21564   3.969   1.197   4.028  3.2182  1.3181  0.6634
  187POPC  C21721565   3.993   1.056   4.186  0.1642 -0.3640  0.2507
  187POPC  H17R21566   4.053   1.138   4.231  1.0756 -0.7429 -0.2519
  187POPC  H17S21567   4.042   0.957   4.198  0.0096 -0.6621 -1.3304
  187POPC  C21821568   3.857   1.066   4.263  0.0139  0.1465  0.3929
  187POPC  H18R21569   3.826   1.171   4.281 -2.0142 -0.3139 -0.0986
  187POPC  H18S21570   3.875   1.022   4.364  3.9188  0.0984 -0.1722
  187POPC  H18T21571   3.767   1.020   4.218 -0.8152  1.6316  0.4606
  187POPC   C3321572   3.793   2.071   3.196 -0.9479 -0.1662  0.5187
  187POPC   H3X21573   3.895   2.069   3.152 -1.4373 -0.8170 -0.6399
  187POPC   H3Y21574   3.742   1.982   3.153  1.7358 -1.0284 -1.1170
  187POPC   C3421575   3.787   2.043   3.348  0.0697 -0.0167  0.4803
  187POPC   H4X21576   3.767   1.935   3.360 -1.9219  0.3465  0.8906
  187POPC   H4Y21577   3.692   2.086   3.387 -1.5135 -0.8197 -2.2366
  187POPC   C3521578   3.905   2.095   3.429 -0.1390 -0.0498  0.1686
  187POPC   H5X21579   3.869   2.194   3.462  1.4852 -0.2487  2.8830
  187POPC   H5Y21580   3.997   2.095   3.367  0.1538  2.0780  0.5391
  187POPC   C3621581   3.954   2.011   3.554 -0.1131 -0.4303  0.1841
  187POPC   H6X21582   3.995   1.916   3.513 -1.0577  1.1801 -5.3458
  187POPC   H6Y21583   3.862   2.009   3.616 -0.7525  1.7975 -0.5888
  187POPC   C3721584   4.067   2.077   3.635 -0.0556 -0.7974 -0.0567
  187POPC   H7X21585   4.051   2.185   3.652  1.4123 -0.2123 -2.0119
  187POPC   H7Y21586   4.156   2.082   3.568 -1.3512  1.4939 -1.7250
  187POPC   C3821587   4.106   2.001   3.764  0.7030 -0.6352 -0.1731
  187POPC   H8X21588   4.148   1.901   3.739  0.1596 -0.8309 -0.3234
  187POPC   H8Y21589   4.011   1.981   3.819  1.8605 -1.3347  1.6863
  187POPC   C3921590   4.212   2.059   3.852 -0.3861 -0.4576 -0.0859
  187POPC   H9X21591   4.187   2.152   3.906 -0.3702 -1.7136  2.1933
  187POPC   H9Y21592   4.299   2.076   3.785 -0.0234 -2.5406 -0.2112
  187POPC  C31021593   4.252   1.958   3.965  0.7493 -0.2303  0.1324
  187POPC  H10X21594   4.280   1.866   3.911 -0.4896 -0.4498 -0.1672
  187POPC  H10Y21595   4.156   1.932   4.015  1.1270 -1.0542  0.4422
  187POPC  C31121596   4.360   2.021   4.051 -0.4983  0.6151 -0.6516
  187POPC  H11X21597   4.325   2.115   4.099 -0.1314 -0.5842  2.1409
  187POPC  H11Y21598   4.443   2.043   3.981 -1.3867  0.7637 -1.6765
  187POPC  C31221599   4.415   1.923   4.160 -0.1755 -0.4215  0.6301
  187POPC  H12X21600   4.444   1.831   4.104 -0.0718 -0.8219  1.3304
  187POPC  H12Y21601   4.331   1.902   4.229 -2.1541  0.4854 -1.3862
  187POPC  C31321602   4.541   1.970   4.230 -0.5450 -0.5321 -0.0321
  187POPC  H13X21603   4.545   2.080   4.246 -3.1296 -0.3062 -0.4796
  187POPC  H13Y21604   4.631   1.943   4.170 -0.0269 -1.5991  1.1880
  187POPC  C31421605   4.574   1.891   4.361 -0.1764  0.9884  0.0573
  187POPC  H14X21606   4.488   1.867   4.427 -0.3809 -1.0454 -0.8676
  187POPC  H14Y21607   4.659   1.940   4.414  3.1015 -0.8022 -3.0672
  187POPC  C31521608   4.639   1.752   4.337 -1.3198 -0.2211 -0.4944
  187POPC  H15X21609   4.742   1.763   4.298 -0.5166  0.8267  1.7851
  187POPC  H15Y21610   4.578   1.702   4.258 -0.5439  1.1333 -2.0140
  187POPC  C31621611   4.635   1.673   4.469 -0.0532  0.3133  0.1501
  187POPC  H16X21612   4.688   1.718   4.556 -1.6521  0.5475  1.0250
  187POPC  H16Y21613   4.677   1.573   4.443  0.1172  0.1308  1.0692
  187POPC  H16Z21614   4.532   1.656   4.506 -0.2141  0.8822 -0.0328
  188POPC     N21615   4.050   1.595   2.390  0.1247  0.0605 -0.5915
  188POPC   C1221616   4.045   1.458   2.322 -0.5207 -0.5315  0.1608
  188POPC  H12A21617   4.073   1.383   2.394 -0.9495 -0.5755  0.2846
  188POPC  H12B21618   4.113   1.453   2.239 -2.9474  1.3501 -2.1305
  188POPC   C1321619   3.973   1.600   2.517 -0.0664 -0.2126  0.1263
  188POPC  H13A21620   4.001   1.513   2.575  0.8098 -1.0091 -1.4180
  188POPC  H13B21621   3.996   1.687   2.577 -1.2738 -1.0766  1.9172
  188POPC  H13C21622   3.867   1.597   2.497  0.1301 -2.3538 -0.8849
  188POPC   C1421623   4.186   1.631   2.420 -0.4209  0.2738 -0.1663
  188POPC  H14A21624   4.218   1.574   2.506  0.0029 -0.1164 -0.5790
  188POPC  H14B21625   4.251   1.606   2.338 -0.5051 -1.0336  0.1481
  188POPC  H14C21626   4.187   1.736   2.449 -0.9773  0.9733 -2.5183
  188POPC   C1521627   3.999   1.710   2.304  0.1095  0.2778 -0.3085
  188POPC  H15A21628   3.997   1.807   2.352 -1.2593  0.3004 -0.3903
  188POPC  H15B21629   3.895   1.700   2.279  0.0698  2.5316 -1.2165
  188POPC  H15C21630   4.054   1.709   2.211  0.0367 -1.2851 -0.3751
  188POPC   C1121631   3.909   1.410   2.269 -0.3211 -0.2288  0.2616
  188POPC  H11A21632   3.874   1.491   2.202  0.2709  0.2979  0.5733
  188POPC  H11B21633   3.825   1.397   2.340 -1.9415  0.1447 -1.5008
  188POPC     P21634   3.839   1.210   2.103  0.6771 -0.0755  0.2502
  188POPC   O1321635   3.887   1.069   2.102  0.1409 -0.5366 -0.4461
  188POPC   O1421636   3.829   1.281   1.972 -0.1809  0.1827 -0.6662
  188POPC   O1221637   3.936   1.292   2.197  0.1474  0.4631  0.2881
  188POPC   O1121638   3.702   1.226   2.176 -0.2805 -0.4370  0.3498
  188POPC    C121639   3.667   1.155   2.296  0.2882  0.2728  0.1148
  188POPC    HA21640   3.750   1.162   2.370  1.0405  1.8375 -0.8274
  188POPC    HB21641   3.644   1.048   2.279  0.7780  0.2559 -0.4778
  188POPC    C221642   3.535   1.205   2.372 -0.2205  0.2166 -0.0655
  188POPC    HS21643   3.458   1.217   2.293  0.4201 -0.4719 -0.8121
  188POPC   O2121644   3.558   1.329   2.441  0.6464  0.1535  0.0723
  188POPC   C2121645   3.455   1.397   2.507 -0.2206  0.1662  0.2036
  188POPC   O2221646   3.335   1.362   2.500 -0.2752 -0.3733 -0.3940
  188POPC   C2221647   3.514   1.500   2.595 -0.4074  0.7086 -0.0554
  188POPC   H2R21648   3.436   1.579   2.598 -0.2805  0.8451  3.0464
  188POPC   H2S21649   3.611   1.534   2.552  0.8310 -1.2608  1.0164
  188POPC    C321650   3.478   1.104   2.476  0.0728  0.2325  0.2256
  188POPC    HX21651   3.470   0.999   2.443 -0.8893 -0.2005  1.7302
  188POPC    HY21652   3.378   1.133   2.513 -0.9346 -2.8799  0.1942
  188POPC   O3121653   3.574   1.107   2.585  0.0447 -1.3814 -0.1439
  188POPC   C3121654   3.553   1.015   2.681 -0.3436  0.0953 -0.3264
  188POPC   O3221655   3.467   0.924   2.681 -0.4251  0.4636  0.0156
  188POPC   C3221656   3.658   1.035   2.789  0.5962  0.3795 -0.4532
  188POPC   H2X21657   3.724   1.116   2.752 -2.2122  1.8243 -2.7016
  188POPC   H2Y21658   3.728   0.949   2.795 -1.2184 -1.1037  4.1784
  188POPC   C2321659   3.551   1.451   2.738  0.4768  0.2181  0.0609
  188POPC   H3R21660   3.638   1.382   2.744 -1.6204 -2.6646 -0.4734
  188POPC   H3S21661   3.468   1.395   2.786  0.5849 -0.7733 -0.8843
  188POPC   C2421662   3.567   1.572   2.829  0.8774  0.2785 -0.2207
  188POPC   H4R21663   3.478   1.635   2.809 -1.4166 -2.5193  0.5000
  188POPC   H4S21664   3.661   1.625   2.803  0.5654  0.0736 -1.8517
  188POPC   C2521665   3.574   1.539   2.983  0.2284  0.2555 -0.2870
  188POPC   H5R21666   3.618   1.438   2.998  0.7233  0.6387  1.0242
  188POPC   H5S21667   3.473   1.522   3.027  1.4136 -0.5378  2.3721
  188POPC   C2621668   3.646   1.652   3.066 -0.0518 -0.1576 -0.2538
  188POPC   H6R21669   3.623   1.747   3.014  0.5917  1.2984  1.9677
  188POPC   H6S21670   3.756   1.639   3.075  0.0286  0.5092 -0.2509
  188POPC   C2721671   3.588   1.662   3.211  0.4641  0.3952  0.1385
  188POPC   H7R21672   3.660   1.710   3.279  1.9640  1.3742 -2.0373
  188POPC   H7S21673   3.584   1.558   3.250  1.4619  0.7787  1.3196
  188POPC   C2821674   3.451   1.732   3.223  0.5239  0.7097 -0.3062
  188POPC   H8R21675   3.389   1.675   3.296  1.3372 -3.0182 -2.3081
  188POPC   H8S21676   3.396   1.732   3.127 -1.5204 -1.0964  0.7770
  188POPC   C2921677   3.458   1.870   3.269 -0.3228 -0.2562 -0.0368
  188POPC   H9121678   3.470   1.941   3.186 -1.3312  0.4918  0.4328
  188POPC  C21021679   3.452   1.923   3.395  0.9829  0.2238 -0.3751
  188POPC  H10121680   3.476   2.030   3.408  2.2537 -0.2165  1.1479
  188POPC  C21121681   3.445   1.844   3.523 -0.0227 -0.2904 -0.3889
  188POPC  H11R21682   3.442   1.733   3.514  0.7993 -0.3462 -0.0803
  188POPC  H11S21683   3.355   1.881   3.576  0.9971  0.8933  0.5617
  188POPC  C21221684   3.571   1.867   3.605  0.5664 -0.4062  0.0258
  188POPC  H12R21685   3.604   1.973   3.608 -1.0458  0.2117 -1.6665
  188POPC  H12S21686   3.651   1.811   3.553  0.2365  0.5607 -1.6127
  188POPC  C21321687   3.547   1.820   3.754 -0.0842 -0.7446 -0.0324
  188POPC  H13R21688   3.515   1.714   3.761  1.8664 -1.3795 -0.1573
  188POPC  H13S21689   3.453   1.871   3.786  1.1109  2.2055 -0.9099
  188POPC  C21421690   3.664   1.841   3.847 -0.3370 -0.7889  0.4332
  188POPC  H14R21691   3.695   1.945   3.825  1.9481 -1.0170  2.1053
  188POPC  H14S21692   3.746   1.775   3.810 -1.3473 -3.8952  3.2718
  188POPC  C21521693   3.639   1.823   3.999  0.0885  0.6910 -0.6787
  188POPC  H15R21694   3.601   1.719   4.010  0.2059  0.5795 -1.3038
  188POPC  H15S21695   3.561   1.899   4.021  0.7379  0.8582  1.2014
  188POPC  C21621696   3.758   1.833   4.100  0.2306  0.7691 -0.6643
  188POPC  H16R21697   3.788   1.939   4.119  0.4027  1.2457 -3.2640
  188POPC  H16S21698   3.851   1.787   4.062 -0.0154  1.2710 -1.9039
  188POPC  C21721699   3.728   1.773   4.239 -0.6890  0.2571  0.0445
  188POPC  H17R21700   3.822   1.788   4.297 -1.2687  0.7781  0.8913
  188POPC  H17S21701   3.711   1.664   4.228 -0.3036  0.3735 -1.9132
  188POPC  C21821702   3.615   1.838   4.313  0.6547 -0.2064  0.1685
  188POPC  H18R21703   3.620   1.815   4.421 -2.0699  3.7208  1.3213
  188POPC  H18S21704   3.522   1.817   4.256  1.1538 -3.2737  0.3054
  188POPC  H18T21705   3.631   1.947   4.306 -2.0995  0.2641  0.3247
  188POPC   C3321706   3.597   1.068   2.928  0.1775  0.0916  0.2367
  188POPC   H3X21707   3.522   1.150   2.923  2.5379  2.3244 -1.1193
  188POPC   H3Y21708   3.679   1.116   2.986 -0.4562  2.9698 -1.0211
  188POPC   C3421709   3.527   0.950   3.001  0.3361  0.2267 -0.4157
  188POPC   H4X21710   3.426   0.935   2.955  0.7199 -0.7329 -0.9795
  188POPC   H4Y21711   3.512   0.982   3.106 -2.6031 -3.2314  0.4314
  188POPC   C3521712   3.594   0.812   2.996  0.4556  0.0573  0.8896
  188POPC   H5X21713   3.701   0.821   3.024  0.6673 -0.2063  0.1952
  188POPC   H5Y21714   3.587   0.772   2.892 -0.8424  4.5438 -1.0196
  188POPC   C3621715   3.532   0.711   3.093 -0.0885  0.4367 -0.1710
  188POPC   H6X21716   3.582   0.616   3.066  0.6365  0.4907  0.9293
  188POPC   H6Y21717   3.425   0.702   3.065 -0.1705  1.0955 -0.0943
  188POPC   C3721718   3.550   0.744   3.238  0.6508 -0.3817 -0.0268
  188POPC   H7X21719   3.491   0.836   3.254 -0.9104 -1.1314 -1.2647
  188POPC   H7Y21720   3.653   0.779   3.259  0.6100 -0.7893  0.9210
  188POPC   C3821721   3.513   0.625   3.324  0.0475  0.4450 -0.3184
  188POPC   H8X21722   3.565   0.539   3.275  1.0890  1.1116 -0.4176
  188POPC   H8Y21723   3.403   0.611   3.327  0.1089  0.0056  1.7993
  188POPC   C3921724   3.559   0.646   3.468 -0.2641  0.6174  0.3282
  188POPC   H9X21725   3.515   0.744   3.497 -1.3356 -0.3696  2.2248
  188POPC   H9Y21726   3.669   0.656   3.475 -0.3402  0.8982  1.1678
  188POPC  C31021727   3.512   0.533   3.557  0.1133 -0.5412 -0.5297
  188POPC  H10X21728   3.550   0.431   3.535 -1.7970 -1.4966  0.3538
  188POPC  H10Y21729   3.404   0.524   3.536 -0.3523  1.0451  0.9224
  188POPC  C31121730   3.520   0.565   3.709 -0.9278 -0.1177  0.9976
  188POPC  H11X21731   3.455   0.651   3.736 -1.2386 -0.1229  0.2930
  188POPC  H11Y21732   3.626   0.592   3.731 -1.0923 -0.2203  1.9361
  188POPC  C31221733   3.464   0.452   3.793  0.5090  0.4416 -0.0677
  188POPC  H12X21734   3.518   0.357   3.774 -1.9852 -0.7508 -1.4995
  188POPC  H12Y21735   3.361   0.443   3.753  1.1448 -2.0555 -1.3182
  188POPC  C31321736   3.440   0.479   3.942 -0.1202 -0.0681  0.6330
  188POPC  H13X21737   3.359   0.415   3.983 -1.5951  0.0630 -1.8599
  188POPC  H13Y21738   3.407   0.582   3.965  0.0146 -0.3871  2.3516
  188POPC  C31421739   3.562   0.436   4.037  0.1661 -0.6437  0.0602
  188POPC  H14X21740   3.636   0.509   3.996 -3.1173  3.0566  0.1469
  188POPC  H14Y21741   3.580   0.330   4.013  0.7506  0.2836 -4.4495
  188POPC  C31521742   3.537   0.464   4.185 -0.0128  0.1757 -0.9512
  188POPC  H15X21743   3.465   0.387   4.223  2.2128 -1.1325  0.8409
  188POPC  H15Y21744   3.475   0.555   4.200 -0.9737 -0.5899 -0.0982
  188POPC  C31621745   3.660   0.466   4.277 -0.5195 -0.2179  0.2644
  188POPC  H16X21746   3.741   0.395   4.252  0.6599 -0.3299  3.7508
  188POPC  H16Y21747   3.640   0.444   4.384  2.0598  0.0982  0.8697
  188POPC  H16Z21748   3.706   0.567   4.266  1.0358 -0.9555 -0.1721
  189SAPI   C1221749   6.821   6.176   7.122  0.0856 -1.0989  0.0494
  189SAPI    H221750   6.841   6.218   7.021 -2.0583 -0.1705 -0.0561
  189SAPI    O221751   6.875   6.044   7.118  0.1992  0.0959 -0.1483
  189SAPI   HO221752   6.803   5.988   7.090  0.6706  0.3238 -1.9623
  189SAPI   C1321753   6.885   6.270   7.228  0.3336  0.8557  0.5001
  189SAPI    H321754   6.811   6.352   7.233 -1.6732 -0.9418  4.0120
  189SAPI    O321755   7.015   6.313   7.189 -0.0919 -0.3237 -0.3466
  189SAPI   HO321756   7.078   6.241   7.196 -2.2738 -2.3872 -0.6200
  189SAPI   C1421757   6.878   6.202   7.363 -0.1154  0.0507  0.3642
  189SAPI    H421758   6.953   6.120   7.364  4.9924  4.0869 -1.1783
  189SAPI    O421759   6.914   6.284   7.471 -0.6243 -0.8895 -0.3086
  189SAPI   HO421760   6.997   6.250   7.506 -0.6466  0.0337  0.6952
  189SAPI   C1521761   6.739   6.147   7.406  0.4281  0.1265  0.0565
  189SAPI    H521762   6.681   6.225   7.458 -0.6149  0.2227 -1.1915
  189SAPI    O521763   6.770   6.043   7.505 -0.0982  0.2937 -0.6423
  189SAPI   HO521764   6.750   6.079   7.591  0.4081  0.9385 -0.7948
  189SAPI   C1621765   6.644   6.100   7.298  0.1966  0.1230  0.2862
  189SAPI    H621766   6.655   5.991   7.279  1.7034  0.3705 -0.3857
  189SAPI    O621767   6.509   6.131   7.338  0.1503  0.2201 -0.0964
  189SAPI   HO621768   6.465   6.049   7.360  0.7467 -0.8983 -2.6300
  189SAPI   C1121769   6.673   6.169   7.157  0.6227 -0.3543 -0.6896
  189SAPI    H121770   6.626   6.269   7.164 -0.9218 -0.9832 -1.4521
  189SAPI     P21771   6.503   6.126   6.949  0.0859  0.2046 -0.0409
  189SAPI   O1321772   6.444   6.258   6.977 -0.1557  0.3190  0.3616
  189SAPI   O1421773   6.408   6.009   6.949  0.2293 -0.7614 -1.0715
  189SAPI   O1221774   6.618   6.094   7.057 -0.2148 -0.1884 -0.6145
  189SAPI   O1121775   6.589   6.130   6.809 -0.6082  0.0696 -0.0317
  189SAPI    C121776   6.727   6.121   6.786 -0.4506  0.6795  0.0767
  189SAPI    HA21777   6.772   6.219   6.812  1.0347 -0.2000  0.9123
  189SAPI    HB21778   6.780   6.051   6.853  2.1028  3.0791  0.7217
  189SAPI    C221779   6.754   6.086   6.641  0.0873 -0.3980 -0.1805
  189SAPI    HS21780   6.864   6.080   6.624 -0.1551  0.1341 -2.0816
  189SAPI   O2121781   6.686   6.181   6.553 -0.3774 -0.4338  0.1849
  189SAPI   C2121782   6.754   6.194   6.438 -0.6659  0.1708  0.0876
  189SAPI   O2221783   6.864   6.151   6.418 -0.1291  0.2948  0.0145
  189SAPI   C2221784   6.674   6.275   6.336 -0.8969 -0.1502 -0.4120
  189SAPI   H2R21785   6.591   6.341   6.371 -0.6971 -0.7572  1.3263
  189SAPI   H2S21786   6.743   6.345   6.285  0.5329 -0.9254  0.4200
  189SAPI    C321787   6.701   5.943   6.611 -0.1736  0.3200  0.4918
  189SAPI    HX21788   6.590   5.947   6.607 -0.1863  2.8775  1.6264
  189SAPI    HY21789   6.716   5.870   6.694 -0.2040 -0.3250 -0.0649
  189SAPI   O3121790   6.745   5.902   6.482  0.7993 -0.6184 -0.3605
  189SAPI   C3121791   6.836   5.808   6.470  0.5617 -0.2394  0.1115
  189SAPI   O3221792   6.911   5.775   6.562  0.1453  0.3185 -0.1793
  189SAPI   C3221793   6.827   5.753   6.328  0.0096 -0.2242 -0.1083
  189SAPI   H2X21794   6.790   5.825   6.253  2.1579  1.3070  0.2206
  189SAPI   H2Y21795   6.747   5.675   6.324 -0.1320 -0.0809 -0.0751
  189SAPI   C2321796   6.635   6.192   6.219  0.2679  0.5308  0.7365
  189SAPI   H3R21797   6.579   6.103   6.254  0.6529  0.0491  0.1483
  189SAPI   H3S21798   6.728   6.156   6.170  2.0468  2.7469  2.2475
  189SAPI   C2421799   6.543   6.274   6.121  0.0665 -0.1518  0.0959
  189SAPI   H4R21800   6.600   6.366   6.099  0.0208  0.1137  1.0225
  189SAPI   H4S21801   6.464   6.317   6.186  1.3868  1.0131  1.0057
  189SAPI   C2521802   6.500   6.197   6.003  0.0733  0.4356  0.2545
  189SAPI   H5R21803   6.401   6.150   6.004  0.4393 -0.3690  0.0833
  189SAPI   C2621804   6.587   6.164   5.901  0.5309 -0.6634  0.1061
  189SAPI   H6R21805   6.546   6.106   5.816  0.8185 -2.5732  1.1993
  189SAPI   C2721806   6.730   6.194   5.891 -0.0328 -0.0119 -0.3035
  189SAPI   H7R21807   6.758   6.269   5.969 -0.7860 -0.1522  0.1097
  189SAPI   H7S21808   6.756   6.262   5.806 -0.6402  1.1612  0.4279
  189SAPI   C2821809   6.811   6.072   5.897 -0.3787  0.3887  0.3615
  189SAPI   H8R21810   6.806   6.003   5.983  1.8061 -0.7373 -0.3193
  189SAPI   C2921811   6.892   6.023   5.798  0.0945 -0.2669  0.0431
  189SAPI   H9R21812   6.939   5.925   5.813 -0.0048 -0.1138  1.5392
  189SAPI  C21021813   6.909   6.084   5.655 -0.0642  0.1032  0.3507
  189SAPI  H10R21814   6.993   6.039   5.600  0.0921  1.4796 -0.5707
  189SAPI  H10S21815   6.928   6.193   5.650  0.1185  0.0921  0.7668
  189SAPI  C21121816   6.784   6.062   5.575 -0.0449  0.8730  0.3690
  189SAPI  H11R21817   6.721   6.151   5.582 -1.7330 -0.1517 -0.9434
  189SAPI  C21221818   6.735   5.956   5.506  0.7315 -0.4797 -0.1611
  189SAPI  H12R21819   6.648   5.962   5.439  1.2267  0.3962 -0.7493
  189SAPI  C21321820   6.810   5.822   5.504 -0.2159 -0.3479 -0.7127
  189SAPI  H13R21821   6.741   5.740   5.537  1.2174 -1.2814  0.0558
  189SAPI  H13S21822   6.886   5.815   5.585 -2.2886  1.3975  1.5290
  189SAPI  C21421823   6.860   5.796   5.363 -0.1176 -0.0805 -0.6410
  189SAPI  H14R21824   6.958   5.843   5.349  1.0425 -1.5632  1.7732
  189SAPI  C21521825   6.801   5.713   5.274 -0.2554  0.3199  0.3509
  189SAPI  H15R21826   6.853   5.704   5.177  1.4170 -0.4596  1.2658
  189SAPI  C21621827   6.673   5.632   5.292  0.3813  0.3458  0.4930
  189SAPI  H16R21828   6.609   5.636   5.202 -0.9997  2.3975  1.4826
  189SAPI  H16S21829   6.610   5.675   5.373  0.7435  1.1127  0.3772
  189SAPI  C21721830   6.690   5.484   5.315 -0.1862  0.1937 -0.3514
  189SAPI  H17R21831   6.782   5.465   5.374  0.3127 -1.1927 -1.4895
  189SAPI  H17S21832   6.708   5.443   5.213 -0.0894  0.7875 -0.5769
  189SAPI  C21821833   6.568   5.409   5.372  0.1389  0.1118 -0.0761
  189SAPI  H18R21834   6.485   5.405   5.299 -0.7555 -0.3072  0.9393
  189SAPI  H18S21835   6.537   5.456   5.468  0.6599  1.0498 -0.3567
  189SAPI  C21921836   6.611   5.269   5.400  0.2892 -0.0717  0.2683
  189SAPI  H19R21837   6.691   5.264   5.476  0.9491 -1.3864 -0.4787
  189SAPI  H19S21838   6.639   5.209   5.310  1.2540 -0.6578  0.9398
  189SAPI  C22021839   6.499   5.185   5.467  0.3292 -0.0844  0.6363
  189SAPI  H20R21840   6.447   5.234   5.552 -3.0673 -2.8625  0.3798
  189SAPI  H20S21841   6.552   5.093   5.501  0.7321 -0.9394 -2.0395
  189SAPI  H20T21842   6.417   5.160   5.397  0.6918 -0.2000  0.2459
  189SAPI   C3321843   6.959   5.696   6.279 -0.0711 -0.1375  0.0297
  189SAPI   H3X21844   6.967   5.590   6.310  1.0599 -0.1413 -0.2088
  189SAPI   H3Y21845   7.043   5.754   6.324  0.2517 -0.7192  0.1878
  189SAPI   C3421846   6.959   5.696   6.122 -0.0030 -0.2490 -0.2577
  189SAPI   H4X21847   7.049   5.635   6.098  0.3936  0.3545 -0.3200
  189SAPI   H4Y21848   6.966   5.799   6.081  1.2986 -0.7199 -1.2952
  189SAPI   C3521849   6.829   5.633   6.061 -0.4783 -0.4283 -0.0706
  189SAPI   H5X21850   6.737   5.690   6.087  0.9998  0.9861  2.4848
  189SAPI   H5Y21851   6.813   5.530   6.098 -0.6257 -0.9012 -1.3739
  189SAPI   C3621852   6.845   5.627   5.900  0.5573  0.7863 -0.8174
  189SAPI   H6X21853   6.892   5.718   5.859 -0.3906  1.2451 -0.9211
  189SAPI   H6Y21854   6.739   5.616   5.868  0.4275 -0.5831  0.0121
  189SAPI   C3721855   6.933   5.511   5.856 -0.0081  1.0682  0.0047
  189SAPI   H7X21856   6.881   5.417   5.883  1.5945 -0.4136 -1.8619
  189SAPI   H7Y21857   7.030   5.524   5.908  1.7187  3.6180 -3.4620
  189SAPI   C3821858   6.945   5.502   5.703 -0.0292  0.4442 -0.4663
  189SAPI   H8X21859   6.957   5.609   5.677 -1.3618  0.9638  0.9218
  189SAPI   H8Y21860   6.848   5.464   5.664  0.5716 -1.4400 -0.2165
  189SAPI   C3921861   7.057   5.418   5.645 -0.3820 -0.6461 -0.3000
  189SAPI   H9X21862   7.046   5.312   5.677 -1.1124 -0.1411  1.2515
  189SAPI   H9Y21863   7.150   5.458   5.690 -1.9291  1.5650  1.1350
  189SAPI  C31021864   7.054   5.435   5.495 -0.6270 -0.5068  0.0531
  189SAPI  H10X21865   6.998   5.527   5.470  0.9569 -0.1411 -2.6057
  189SAPI  H10Y21866   7.009   5.344   5.449  0.5715 -0.3656 -1.4887
  189SAPI  C31121867   7.190   5.455   5.428  0.1042 -0.0813 -0.1708
  189SAPI  H11X21868   7.234   5.354   5.435  0.4974  0.1743  1.4576
  189SAPI  H11Y21869   7.249   5.518   5.498  1.0576 -1.6030  0.4347
  189SAPI  C31221870   7.185   5.510   5.284 -0.1242 -0.8140  0.3674
  189SAPI  H12X21871   7.161   5.618   5.275 -0.7415 -1.0795 -1.6404
  189SAPI  H12Y21872   7.105   5.455   5.229 -1.4374  0.8453  0.5443
  189SAPI  C31321873   7.321   5.488   5.215 -0.6015 -0.5677  0.8661
  189SAPI  H13X21874   7.358   5.385   5.234 -2.1101 -1.0734  1.1743
  189SAPI  H13Y21875   7.389   5.567   5.254 -1.6619  0.4647  0.6759
  189SAPI  C31421876   7.314   5.508   5.066 -0.1473  0.0976  1.3139
  189SAPI  H14X21877   7.253   5.598   5.043 -0.8106 -1.2167 -3.0746
  189SAPI  H14Y21878   7.254   5.433   5.010 -0.0532  1.2085 -0.3210
  189SAPI  C31521879   7.449   5.517   4.998  0.5828  0.0658 -0.1903
  189SAPI  H15X21880   7.506   5.425   5.024 -0.3381  0.0597  2.0583
  189SAPI  H15Y21881   7.511   5.600   5.038  1.3634 -0.6599  0.1340
  189SAPI  C31621882   7.445   5.532   4.841  0.2440 -0.1875 -1.0330
  189SAPI  H16X21883   7.394   5.627   4.816  0.2075  0.3025  0.7477
  189SAPI  H16Y21884   7.395   5.437   4.812  1.3142 -2.0784  2.6904
  189SAPI  C31721885   7.591   5.544   4.798 -0.4770 -0.9422  0.2947
  189SAPI  H17X21886   7.661   5.470   4.843  0.4075  0.8722  2.0172
  189SAPI  H17Y21887   7.609   5.642   4.846 -1.5243  0.7830 -2.5869
  189SAPI  C31821888   7.621   5.549   4.648  0.1055  0.4990  0.8965
  189SAPI  H18X21889   7.728   5.547   4.617 -0.5199 -1.1651 -1.4471
  189SAPI  H18Y21890   7.576   5.641   4.605 -1.3867 -0.2370  0.8227
  189SAPI  H18Z21891   7.578   5.460   4.596  2.2983  0.1729 -0.5092
  190SAPI   C1221892   2.404   1.769   6.738  0.3055 -0.0299 -0.4053
  190SAPI    H221893   2.321   1.820   6.685 -0.2424  0.7709  1.1723
  190SAPI    O221894   2.431   1.856   6.851 -0.4527 -0.6947  0.4138
  190SAPI   HO221895   2.407   1.944   6.821 -0.3340 -0.3831  1.1967
  190SAPI   C1321896   2.366   1.630   6.785 -0.2225  0.5327  0.2451
  190SAPI    H321897   2.353   1.567   6.694  0.4618  1.2281 -0.3348
  190SAPI    O321898   2.239   1.635   6.864 -0.6674  0.0839  0.7462
  190SAPI   HO321899   2.236   1.711   6.922  1.5250  1.6269 -0.9547
  190SAPI   C1421900   2.480   1.574   6.868 -0.8318 -0.3378  0.5762
  190SAPI    H421901   2.475   1.635   6.961  0.0991  0.5639  0.0552
  190SAPI    O421902   2.450   1.441   6.918 -0.0886 -0.4011  0.1600
  190SAPI   HO421903   2.467   1.375   6.850  0.7232 -1.0536  0.9739
  190SAPI   C1521904   2.620   1.595   6.802 -0.8741  0.5240 -0.2283
  190SAPI    H521905   2.620   1.506   6.735  1.0166 -0.2710  0.7623
  190SAPI    O521906   2.727   1.582   6.891  0.2852 -0.2995  0.0746
  190SAPI   HO521907   2.771   1.498   6.879 -0.2658 -0.5629 -0.0913
  190SAPI   C1621908   2.638   1.725   6.725 -0.3120  0.3234 -0.7565
  190SAPI    H621909   2.669   1.806   6.794  1.2066 -0.1747 -0.8107
  190SAPI    O621910   2.748   1.700   6.633 -0.1755 -0.0634 -0.4539
  190SAPI   HO621911   2.789   1.786   6.627  2.6615 -0.9003  3.0975
  190SAPI   C1121912   2.518   1.756   6.644 -0.0739 -0.3097  0.5917
  190SAPI    H121913   2.497   1.670   6.577 -0.8707  1.7381 -1.9518
  190SAPI     P21914   2.487   1.899   6.425 -0.3387  0.1444 -0.0866
  190SAPI   O1321915   2.416   2.033   6.427 -0.2740  0.0142 -0.6344
  190SAPI   O1421916   2.405   1.783   6.383  0.0099  0.7542 -0.2077
  190SAPI   O1221917   2.547   1.875   6.571  0.0193  0.0992 -0.2804
  190SAPI   O1121918   2.612   1.908   6.333  0.4219  0.0874 -0.1665
  190SAPI    C121919   2.729   1.835   6.349  0.4272  0.6531 -0.3712
  190SAPI    HA21920   2.800   1.895   6.410  2.5601 -1.5200 -0.5812
  190SAPI    HB21921   2.713   1.735   6.395  0.4691 -0.3756 -2.4851
  190SAPI    C221922   2.803   1.821   6.207  0.1402  0.3031 -1.2900
  190SAPI    HS21923   2.824   1.920   6.163 -1.3864  1.1223 -0.2407
  190SAPI   O2121924   2.725   1.741   6.110  0.1772  0.4636 -0.1028
  190SAPI   C2121925   2.662   1.805   6.016 -0.7881 -0.5940  0.0047
  190SAPI   O2221926   2.660   1.924   5.996  0.5871  0.2982  0.3891
  190SAPI   C2221927   2.579   1.700   5.932 -0.3337 -0.4659 -0.9642
  190SAPI   H2R21928   2.650   1.629   5.886 -0.2822 -0.8043 -0.3682
  190SAPI   H2S21929   2.515   1.659   6.013  0.8641 -1.0487 -0.2909
  190SAPI    C321930   2.942   1.755   6.225 -0.2020 -0.6762 -0.0941
  190SAPI    HX21931   2.930   1.650   6.258  0.8827 -0.4835  1.0038
  190SAPI    HY21932   2.993   1.812   6.306  0.2924  1.1043 -1.5814
  190SAPI   O3121933   3.020   1.763   6.100 -0.2538  0.4687  0.1301
  190SAPI   C3121934   3.011   1.664   6.012  0.4949 -0.0483  0.3853
  190SAPI   O3221935   2.946   1.564   6.025  0.4597  0.1283  0.0365
  190SAPI   C3221936   3.099   1.692   5.888  0.2809  0.7712 -0.8180
  190SAPI   H2X21937   3.203   1.707   5.923  0.2739 -0.7121 -0.0989
  190SAPI   H2Y21938   3.066   1.793   5.855 -2.1699  0.1356 -0.4840
  190SAPI   C2321939   2.497   1.766   5.817  0.5617  0.1207  0.0811
  190SAPI   H3R21940   2.444   1.857   5.853 -0.5878 -0.9109  1.0711
  190SAPI   H3S21941   2.428   1.692   5.771  1.7841 -1.1338  0.2363
  190SAPI   C2421942   2.589   1.808   5.709  0.5517  0.4567 -0.7624
  190SAPI   H4R21943   2.644   1.721   5.667  1.0927  0.6936 -0.5528
  190SAPI   H4S21944   2.670   1.876   5.745  0.4470  0.4291 -0.4769
  190SAPI   C2521945   2.522   1.879   5.597 -0.1956  0.0711  0.6700
  190SAPI   H5R21946   2.489   1.981   5.622 -1.3415 -0.8532  3.3617
  190SAPI   C2621947   2.497   1.819   5.476 -0.0303  1.2965 -0.0779
  190SAPI   H6R21948   2.438   1.875   5.402 -1.3433 -0.7327 -0.6324
  190SAPI   C2721949   2.537   1.676   5.437 -0.7088 -0.4022 -0.0948
  190SAPI   H7R21950   2.445   1.625   5.401 -1.8999 -0.3495  2.6568
  190SAPI   H7S21951   2.562   1.605   5.519  0.2571 -1.1906 -1.0255
  190SAPI   C2821952   2.648   1.676   5.341 -1.1689 -0.0176 -0.9262
  190SAPI   H8R21953   2.741   1.725   5.373 -0.2226 -1.7046 -0.9736
  190SAPI   C2921954   2.645   1.635   5.207 -0.4503  0.2354  0.0080
  190SAPI   H9R21955   2.734   1.639   5.143  0.3125 -2.2358  0.8348
  190SAPI  C21021956   2.528   1.576   5.125 -0.9614  0.4063 -0.1989
  190SAPI  H10R21957   2.455   1.539   5.201 -0.8484 -0.7381 -0.6422
  190SAPI  H10S21958   2.569   1.493   5.064  0.5027  0.2272  0.9456
  190SAPI  C21121959   2.461   1.688   5.044  0.4106  0.3703  0.3430
  190SAPI  H11R21960   2.464   1.787   5.092  0.2622  0.5694 -0.0570
  190SAPI  C21221961   2.423   1.673   4.916  1.2511 -0.1371 -1.1528
  190SAPI  H12R21962   2.373   1.760   4.871  2.7131  1.5694  0.3561
  190SAPI  C21321963   2.429   1.552   4.824  0.3295 -0.6604 -0.0066
  190SAPI  H13R21964   2.484   1.467   4.868 -0.7874 -0.8225  1.1368
  190SAPI  H13S21965   2.500   1.575   4.742  2.9471 -2.3983  1.6089
  190SAPI  C21421966   2.293   1.502   4.783 -0.3986  0.1405 -0.6187
  190SAPI  H14R21967   2.211   1.548   4.840  0.7265 -0.7753  1.8883
  190SAPI  C21521968   2.271   1.433   4.675  0.5350  0.0093 -0.8839
  190SAPI  H15R21969   2.165   1.423   4.647  0.5973 -0.7350 -0.8742
  190SAPI  C21621970   2.376   1.355   4.598  0.1232 -0.2814 -0.3398
  190SAPI  H16R21971   2.360   1.245   4.599  4.2253 -1.1062 -1.8152
  190SAPI  H16S21972   2.476   1.371   4.643  0.0610 -0.8366 -0.0017
  190SAPI  C21721973   2.392   1.396   4.446 -0.0444 -0.5513 -0.4555
  190SAPI  H17R21974   2.447   1.312   4.397  0.4420  0.5827 -1.9326
  190SAPI  H17S21975   2.454   1.487   4.427  0.1096 -0.5044  0.2586
  190SAPI  C21821976   2.256   1.415   4.378  0.0969  0.1926 -0.2002
  190SAPI  H18R21977   2.204   1.503   4.423 -0.5567  0.4351 -1.3976
  190SAPI  H18S21978   2.188   1.334   4.412 -1.1637  0.1809 -2.5770
  190SAPI  C21921979   2.245   1.424   4.228  0.2228  1.2914 -0.0314
  190SAPI  H19R21980   2.328   1.487   4.189 -0.1759  1.5964 -0.3856
  190SAPI  H19S21981   2.146   1.471   4.215 -0.9103 -1.0800 -0.5195
  190SAPI  C22021982   2.248   1.285   4.155  0.1899  0.3291  0.0942
  190SAPI  H20R21983   2.242   1.306   4.046 -0.1513  0.6079  0.1682
  190SAPI  H20S21984   2.176   1.207   4.186  1.6430 -1.0638  0.1210
  190SAPI  H20T21985   2.343   1.226   4.156 -0.2689 -0.4634 -0.9478
  190SAPI   C3321986   3.079   1.584   5.771 -0.1217  1.0546  0.2315
  190SAPI   H3X21987   3.106   1.484   5.810 -0.4185  0.8811 -0.0091
  190SAPI   H3Y21988   3.150   1.621   5.693  0.4845  0.5642  0.5419
  190SAPI   C3421989   2.937   1.585   5.711  0.2324  0.0614  0.0755
  190SAPI   H4X21990   2.908   1.691   5.695 -0.1438 -0.3805 -2.6123
  190SAPI   H4Y21991   2.879   1.538   5.794  0.6526 -2.2855 -0.8753
  190SAPI   C3521992   2.922   1.506   5.581  0.5680  0.0432 -0.2405
  190SAPI   H5X21993   2.819   1.521   5.542  0.8918  1.1541 -0.7198
  190SAPI   H5Y21994   2.951   1.399   5.590 -0.2641 -0.4784 -2.8662
  190SAPI   C3621995   3.012   1.565   5.471 -0.5718 -0.0141 -0.2250
  190SAPI   H6X21996   3.118   1.563   5.505 -0.6175  0.4827 -0.0443
  190SAPI   H6Y21997   2.983   1.666   5.436 -1.8042  0.2048  1.3340
  190SAPI   C3721998   3.012   1.464   5.359  0.3070 -0.3206 -0.2578
  190SAPI   H7X21999   2.906   1.438   5.334  0.5219 -0.6582 -0.8488
  190SAPI   H7Y22000   3.048   1.365   5.395 -1.3200 -0.5729  0.7835
  190SAPI   C3822001   3.089   1.512   5.231  0.3764 -0.2640 -0.0995
  190SAPI   H8X22002   3.197   1.522   5.256 -0.1533  3.0384  1.4671
  190SAPI   H8Y22003   3.050   1.615   5.218 -0.8638 -0.3734  2.1629
  190SAPI   C3922004   3.052   1.436   5.103 -0.1708 -0.3600  0.3447
  190SAPI   H9X22005   2.943   1.425   5.118  0.1461 -0.3330  3.2030
  190SAPI   H9Y22006   3.104   1.337   5.109  0.4273 -0.0667  0.1097
  190SAPI  C31022007   3.089   1.514   4.974 -0.4116 -0.8318 -0.0971
  190SAPI  H10X22008   3.196   1.541   4.983 -0.5544 -0.5593  0.9227
  190SAPI  H10Y22009   3.023   1.602   4.991 -0.1737 -0.7878  0.6705
  190SAPI  C31122010   3.060   1.438   4.857  0.0911  0.3776  0.5971
  190SAPI  H11X22011   3.122   1.347   4.843  1.1253  1.1392  0.0714
  190SAPI  H11Y22012   3.080   1.505   4.770  0.8998  0.3810  0.7732
  190SAPI  C31222013   2.918   1.381   4.857  1.0409  0.4361  0.1349
  190SAPI  H12X22014   2.861   1.476   4.849  1.7223  0.7336 -1.8858
  190SAPI  H12Y22015   2.892   1.320   4.946  1.6905 -1.0151 -0.6261
  190SAPI  C31322016   2.879   1.298   4.737 -1.0942  0.9391  0.0896
  190SAPI  H13X22017   2.879   1.360   4.644  0.7864 -1.5169 -1.6776
  190SAPI  H13Y22018   2.772   1.272   4.752 -0.8715  0.5958  1.1163
  190SAPI  C31422019   2.953   1.169   4.718  0.9721  0.2111  0.4685
  190SAPI  H14X22020   2.983   1.118   4.812 -2.9344 -2.1466  0.6576
  190SAPI  H14Y22021   3.046   1.188   4.660  1.0823  0.5870  0.7602
  190SAPI  C31522022   2.861   1.066   4.644  0.0623 -0.1305  0.5465
  190SAPI  H15X22023   2.859   1.079   4.534  0.7719 -3.4952  0.0339
  190SAPI  H15Y22024   2.754   1.068   4.676  0.5612 -1.2611  2.4906
  190SAPI  C31622025   2.903   0.919   4.666 -0.1280 -0.2329  0.4392
  190SAPI  H16X22026   2.823   0.854   4.625 -1.6560  1.9059 -0.1955
  190SAPI  H16Y22027   2.899   0.904   4.776  0.9535 -0.7496  0.4245
  190SAPI  C31722028   3.044   0.887   4.613  0.7544 -0.0970  0.0580
  190SAPI  H17X22029   3.093   0.813   4.680  0.3646 -1.2300 -0.8659
  190SAPI  H17Y22030   3.098   0.979   4.645 -2.6300  1.5868  1.4988
  190SAPI  C31822031   3.060   0.852   4.466 -0.0509  0.0545  0.1930
  190SAPI  H18X22032   3.010   0.756   4.441  0.0535 -0.2341  1.0887
  190SAPI  H18Y22033   3.168   0.834   4.446  0.7674  1.1811  3.1441
  190SAPI  H18Z22034   3.021   0.941   4.412  0.8662  1.5238  1.8411
  191SAPI   C1222035   1.096   0.273   2.210  0.1289  0.6909  0.1482
  191SAPI    H222036   1.076   0.358   2.279  1.6662  0.5195  0.8395
  191SAPI    O222037   1.237   0.259   2.186 -0.1562 -0.3843  0.0380
  191SAPI   HO222038   1.283   0.249   2.270 -0.9072  1.8961  0.7986
  191SAPI   C1322039   1.037   0.143   2.263 -0.3239 -0.1823  0.4052
  191SAPI    H322040   0.931   0.171   2.282 -0.1906  0.4471  0.2427
  191SAPI    O322041   1.081   0.119   2.398  0.5560  0.4599 -0.0964
  191SAPI   HO322042   1.007   0.099   2.457 -0.0050 -0.5640 -1.1146
  191SAPI   C1422043   1.067   0.022   2.187  0.3017 -0.0428  0.1597
  191SAPI    H422044   1.176   0.013   2.168  0.1548 -1.1842 -0.1937
  191SAPI    O422045   1.013  -0.089   2.254  0.3346  0.2188  0.2337
  191SAPI   HO422046   1.070  -0.165   2.239  0.2315 -0.1122  1.4100
  191SAPI   C1522047   1.007   0.047   2.050  0.1594  0.5628 -0.0092
  191SAPI    H522048   0.898   0.037   2.071 -0.5613  1.9308 -2.7173
  191SAPI    O522049   1.047  -0.061   1.964 -0.0277 -0.1930  0.4596
  191SAPI   HO522050   1.143  -0.062   1.964  0.0407  1.8798  1.6511
  191SAPI   C1622051   1.023   0.189   1.980  0.3570 -0.3659 -0.0119
  191SAPI    H622052   1.130   0.194   1.951  0.8913  0.5349  1.9095
  191SAPI    O622053   0.940   0.213   1.870 -0.1250 -0.8651  0.2954
  191SAPI   HO622054   0.851   0.232   1.901 -0.3250 -0.6656 -0.3853
  191SAPI   C1122055   1.011   0.304   2.084 -0.0377  0.2640  0.8641
  191SAPI    H122056   0.901   0.313   2.098 -0.2684 -0.0073 -0.5312
  191SAPI     P22057   1.035   0.572   2.089  0.0645  0.1583  0.5420
  191SAPI   O1322058   0.891   0.573   2.123  0.2448 -0.0869  0.5210
  191SAPI   O1422059   1.088   0.681   1.999  0.3069 -0.3836  0.3861
  191SAPI   O1222060   1.063   0.423   2.014 -0.1490 -0.1065  1.0798
  191SAPI   O1122061   1.122   0.573   2.217 -0.1241 -0.3233  0.7856
  191SAPI    C122062   1.260   0.599   2.215  0.1605  0.1263  0.4325
  191SAPI    HA22063   1.310   0.502   2.192  0.4027  0.2460  0.4575
  191SAPI    HB22064   1.298   0.679   2.148 -0.0918  0.8643  1.1676
  191SAPI    C222065   1.307   0.648   2.363 -0.2858 -1.0681  0.2381
  191SAPI    HS22066   1.417   0.666   2.353 -0.8807  3.3359 -0.6420
  191SAPI   O2122067   1.270   0.563   2.473  0.9793  0.5994  0.0985
  191SAPI   C2122068   1.314   0.438   2.479  0.0191  0.0505 -0.8754
  191SAPI   O2222069   1.409   0.396   2.418 -0.3883  0.3764  0.4628
  191SAPI   C2222070   1.230   0.362   2.589  0.0202  0.1483  0.3252
  191SAPI   H2R22071   1.123   0.391   2.588 -0.2832 -0.9273 -0.0091
  191SAPI   H2S22072   1.226   0.253   2.568 -2.5479  0.4117 -0.9366
  191SAPI    C322073   1.255   0.793   2.384 -0.6445  1.2287 -0.1725
  191SAPI    HX22074   1.146   0.780   2.395 -0.7058  0.6597 -1.2946
  191SAPI    HY22075   1.268   0.857   2.295  2.3451 -0.3734 -1.0358
  191SAPI   O3122076   1.303   0.850   2.502 -0.5056  0.5248  0.2544
  191SAPI   C3122077   1.252   0.970   2.524 -0.3883 -0.0194 -0.2567
  191SAPI   O3222078   1.179   1.028   2.451  0.6628 -0.5628  0.0389
  191SAPI   C3222079   1.298   1.020   2.652  0.2969  0.7693 -0.6511
  191SAPI   H2X22080   1.407   1.039   2.644  0.4743 -0.5452 -1.8304
  191SAPI   H2Y22081   1.282   0.939   2.726 -1.1042  1.4331 -0.1974
  191SAPI   C2322082   1.278   0.378   2.737 -0.4679  0.5464  0.3209
  191SAPI   H3R22083   1.388   0.382   2.750 -0.4677  1.7026  0.1490
  191SAPI   H3S22084   1.241   0.299   2.806  0.5824 -0.7233 -0.5176
  191SAPI   C2422085   1.234   0.509   2.801 -0.4893  0.4744 -1.1101
  191SAPI   H4R22086   1.270   0.596   2.743  0.9200  0.2219 -0.6506
  191SAPI   H4S22087   1.289   0.517   2.897 -1.9071 -0.0456 -0.2226
  191SAPI   C2522088   1.082   0.523   2.827  0.2118 -0.0067 -1.0044
  191SAPI   H5R22089   1.022   0.445   2.780  2.1166 -1.6679 -0.8095
  191SAPI   C2622090   1.023   0.625   2.888 -0.4783 -0.5669 -0.3997
  191SAPI   H6R22091   0.913   0.630   2.890 -0.4521  0.4666 -0.5803
  191SAPI   C2722092   1.085   0.757   2.936  0.0219  0.7012 -0.5198
  191SAPI   H7R22093   1.009   0.831   2.904 -2.9078 -1.6326  0.5871
  191SAPI   H7S22094   1.183   0.779   2.889  0.9565 -0.8772  0.5783
  191SAPI   C2822095   1.099   0.772   3.096 -0.0561 -0.0172  0.4365
  191SAPI   H8R22096   1.188   0.725   3.140  0.6274 -0.8492 -1.7454
  191SAPI   C2922097   1.002   0.819   3.181  1.1013  0.0455 -0.2878
  191SAPI   H9R22098   1.017   0.827   3.289 -0.7381  0.3149 -0.0261
  191SAPI  C21022099   0.880   0.903   3.141 -0.8246 -0.3907 -0.0571
  191SAPI  H10R22100   0.829   0.871   3.048  1.1431 -2.4649 -0.4973
  191SAPI  H10S22101   0.917   1.008   3.134 -0.0193 -0.4480  2.2775
  191SAPI  C21122102   0.772   0.901   3.249 -0.2434 -0.2863 -0.1709
  191SAPI  H11R22103   0.678   0.850   3.220  0.4295 -1.4980 -0.2775
  191SAPI  C21222104   0.769   0.973   3.364 -0.0759  0.3407 -0.0235
  191SAPI  H12R22105   0.690   0.953   3.438  2.2751 -3.7944  1.6974
  191SAPI  C21322106   0.877   1.070   3.402 -0.8891 -0.3729 -0.0731
  191SAPI  H13R22107   0.834   1.167   3.369 -1.2681  0.0355  1.4989
  191SAPI  H13S22108   0.974   1.046   3.355 -0.3883  1.5222 -0.0974
  191SAPI  C21422109   0.874   1.065   3.547  0.5377 -0.4763 -0.1466
  191SAPI  H14R22110   0.871   0.966   3.593 -0.5526 -0.1186  0.5734
  191SAPI  C21522111   0.872   1.165   3.637  0.4253  0.7038 -0.0197
  191SAPI  H15R22112   0.873   1.129   3.741  0.1521 -1.0576 -0.5852
  191SAPI  C21622113   0.876   1.310   3.612  0.0240 -0.0917 -0.4105
  191SAPI  H16R22114   0.775   1.347   3.641 -0.4844 -1.3866 -0.4865
  191SAPI  H16S22115   0.881   1.333   3.504 -0.1204  0.6402 -0.2671
  191SAPI  C21722116   0.995   1.392   3.677  0.6845 -0.1240  0.0565
  191SAPI  H17R22117   0.990   1.484   3.614 -1.3401 -1.1491 -1.3674
  191SAPI  H17S22118   1.091   1.344   3.646 -0.4896 -0.7609 -2.9183
  191SAPI  C21822119   0.983   1.413   3.832  0.4082 -0.3697 -0.3765
  191SAPI  H18R22120   1.085   1.400   3.873 -1.0491 -1.8608  3.2191
  191SAPI  H18S22121   0.930   1.323   3.872  0.1827  0.0527  0.2984
  191SAPI  C21922122   0.925   1.549   3.882  0.7780 -0.0989 -0.3035
  191SAPI  H19R22123   0.824   1.571   3.839  0.7829 -0.3312 -0.4364
  191SAPI  H19S22124   0.993   1.627   3.842  0.6040 -0.3382 -1.0981
  191SAPI  C22022125   0.932   1.563   4.037  0.0737 -0.2143  0.4658
  191SAPI  H20R22126   1.033   1.536   4.073  0.3013  0.6360  0.4747
  191SAPI  H20S22127   0.853   1.497   4.080 -1.2159 -0.2250 -1.7451
  191SAPI  H20T22128   0.917   1.669   4.065  0.6976  0.7520 -2.5037
  191SAPI   C3322129   1.218   1.148   2.703  0.5488  0.3053  0.0471
  191SAPI   H3X22130   1.113   1.115   2.716  0.1139  1.5185 -0.3484
  191SAPI   H3Y22131   1.224   1.231   2.630 -0.1484 -0.0628 -0.4434
  191SAPI   C3422132   1.268   1.185   2.843  0.1799 -0.6431 -0.0157
  191SAPI   H4X22133   1.204   1.267   2.881 -0.6490 -0.5629 -1.4757
  191SAPI   H4Y22134   1.357   1.239   2.804 -0.4209 -0.2726 -0.9316
  191SAPI   C3522135   1.298   1.090   2.949 -0.3871 -0.5578 -0.3752
  191SAPI   H5X22136   1.396   1.045   2.921 -0.7478 -1.6343  0.0266
  191SAPI   H5Y22137   1.227   1.007   2.966 -0.0184 -0.4209  2.1035
  191SAPI   C3622138   1.322   1.158   3.081  0.4979  0.3985  0.0689
  191SAPI   H6X22139   1.235   1.225   3.095  1.1844  0.8667  2.7620
  191SAPI   H6Y22140   1.415   1.219   3.080  1.5015 -1.0327  1.1676
  191SAPI   C3722141   1.307   1.065   3.201 -0.1586 -0.2769  0.2810
  191SAPI   H7X22142   1.392   0.995   3.182  0.7589  0.7673  0.3915
  191SAPI   H7Y22143   1.209   1.015   3.184  0.6407 -1.6906 -0.4183
  191SAPI   C3822144   1.311   1.145   3.332 -0.0765 -0.4490 -0.2920
  191SAPI   H8X22145   1.223   1.213   3.345 -0.3833 -0.8373 -0.3367
  191SAPI   H8Y22146   1.402   1.208   3.334  1.4996 -2.5778  2.4208
  191SAPI   C3922147   1.310   1.058   3.458  0.1928  1.1462  0.2321
  191SAPI   H9X22148   1.409   1.007   3.462  0.3578  0.9574 -3.0244
  191SAPI   H9Y22149   1.224   0.988   3.459  1.9667 -1.2759 -2.0320
  191SAPI  C31022150   1.295   1.136   3.589 -0.2159 -0.1444 -0.0164
  191SAPI  H10X22151   1.192   1.175   3.597 -0.4903 -1.1867  3.3287
  191SAPI  H10Y22152   1.374   1.214   3.586  1.6806 -1.9494  0.6206
  191SAPI  C31122153   1.317   1.054   3.714  0.2506  0.1133  0.2705
  191SAPI  H11X22154   1.414   1.000   3.723 -0.1573 -0.6457  0.1683
  191SAPI  H11Y22155   1.231   0.984   3.715 -1.0136  1.5663  2.7815
  191SAPI  C31222156   1.310   1.141   3.846  0.4609 -0.0279  0.7011
  191SAPI  H12X22157   1.221   1.207   3.838  0.6848  0.1178 -1.0369
  191SAPI  H12Y22158   1.409   1.189   3.860  0.5007  0.0702  0.1149
  191SAPI  C31322159   1.292   1.043   3.957 -0.0325 -0.1716  0.5901
  191SAPI  H13X22160   1.361   0.961   3.926 -1.4206 -0.2195 -2.7526
  191SAPI  H13Y22161   1.191   0.998   3.953  0.7406 -1.9059 -0.2912
  191SAPI  C31422162   1.323   1.102   4.096 -0.2412  0.3407 -0.9315
  191SAPI  H14X22163   1.432   1.119   4.089 -0.3391  1.2726 -0.2920
  191SAPI  H14Y22164   1.297   1.021   4.168 -0.1124  1.5235  0.4925
  191SAPI  C31522165   1.256   1.231   4.129  0.4433  0.0424  0.1083
  191SAPI  H15X22166   1.152   1.196   4.110  0.8596 -0.6519 -0.9967
  191SAPI  H15Y22167   1.282   1.308   4.054  2.6470  0.0612  0.8088
  191SAPI  C31622168   1.288   1.291   4.264  0.2518 -0.3670 -0.8147
  191SAPI  H16X22169   1.393   1.327   4.265 -0.5282  2.1691  1.0157
  191SAPI  H16Y22170   1.267   1.208   4.335 -2.3558  0.0042 -1.0381
  191SAPI  C31722171   1.188   1.400   4.307  0.4311 -0.2549  0.4371
  191SAPI  H17X22172   1.091   1.364   4.265  0.2578  1.1667 -0.4726
  191SAPI  H17Y22173   1.207   1.496   4.254 -1.2981 -1.1952 -2.1066
  191SAPI  C31822174   1.186   1.418   4.456  0.1374 -0.3393  0.3923
  191SAPI  H18X22175   1.116   1.500   4.482 -1.7225 -1.6658 -0.2777
  191SAPI  H18Y22176   1.293   1.426   4.486  0.1199  0.1929  0.3260
  191SAPI  H18Z22177   1.144   1.330   4.509  1.1418 -0.2263  1.4348
  192SAPI   C1222178   3.999   3.964   2.090  0.3436  0.4979  0.6121
  192SAPI    H222179   3.989   3.855   2.075 -0.0027  0.1407  3.0889
  192SAPI    O222180   3.957   4.032   1.971 -0.6434  0.1829 -0.1394
  192SAPI   HO222181   4.017   4.003   1.902 -2.9672 -2.3696 -1.2901
  192SAPI   C1322182   3.909   3.995   2.208 -0.9493  0.8193 -0.2274
  192SAPI    H322183   3.951   3.947   2.300 -0.8144 -0.3565 -0.8771
  192SAPI    O322184   3.782   3.947   2.188  0.0333  0.2134  0.8205
  192SAPI   HO322185   3.748   3.917   2.272  2.1749  0.9351  2.0247
  192SAPI   C1422186   3.903   4.141   2.248 -0.0619 -0.6678 -0.5110
  192SAPI    H422187   3.833   4.189   2.175 -0.4694  1.6373  1.2793
  192SAPI    O422188   3.850   4.158   2.384  0.5945  0.0446  0.0823
  192SAPI   HO422189   3.773   4.104   2.403  1.2486 -1.2024 -0.6960
  192SAPI   C1522190   4.040   4.220   2.228 -0.0452  0.5666  0.5954
  192SAPI    H522191   4.084   4.212   2.330  0.4461  1.4503  0.4620
  192SAPI    O522192   4.024   4.362   2.189  0.2267 -0.5599 -0.3209
  192SAPI   HO522193   4.008   4.414   2.269 -2.2800 -1.0088 -0.4644
  192SAPI   C1622194   4.157   4.162   2.142  0.4431  0.2267 -0.6087
  192SAPI    H622195   4.149   4.212   2.044 -1.9743  0.8250 -0.1688
  192SAPI    O622196   4.285   4.191   2.202  0.4382  0.2821  0.0530
  192SAPI   HO622197   4.347   4.118   2.202  0.4187  0.2415 -1.4732
  192SAPI   C1122198   4.134   4.007   2.126  0.2911  0.2447 -0.1786
  192SAPI    H122199   4.146   3.966   2.229  1.1504  1.4450  0.2203
  192SAPI     P22200   4.357   3.869   2.081 -0.0164 -0.4494  0.1638
  192SAPI   O1322201   4.427   3.935   2.191  0.0801 -0.6648 -0.2327
  192SAPI   O1422202   4.433   3.824   1.965 -0.0936  0.3547 -0.4982
  192SAPI   O1222203   4.221   3.950   2.033 -0.1935  0.5071  0.4943
  192SAPI   O1122204   4.294   3.737   2.148  0.2273  0.1464  0.3984
  192SAPI    C122205   4.368   3.643   2.227  0.7097 -0.7375 -0.1113
  192SAPI    HA22206   4.361   3.550   2.167 -0.5883 -0.1713 -0.9081
  192SAPI    HB22207   4.472   3.673   2.251  0.9799 -0.8007 -1.1831
  192SAPI    C222208   4.294   3.613   2.358 -0.1737 -0.3791 -0.1846
  192SAPI    HS22209   4.192   3.580   2.328 -0.4523 -1.0694  1.4219
  192SAPI   O2122210   4.297   3.727   2.442  0.0240 -0.9106  0.1300
  192SAPI   C2122211   4.175   3.780   2.468  0.0014  0.0896 -0.7460
  192SAPI   O2222212   4.073   3.737   2.424 -0.0853 -0.2385 -0.3416
  192SAPI   C2222213   4.193   3.904   2.556 -0.4486 -0.5157 -0.0609
  192SAPI   H2R22214   4.286   3.888   2.616  0.7667  0.9994 -1.4373
  192SAPI   H2S22215   4.227   3.972   2.474  0.8883 -1.2182 -0.1322
  192SAPI    C322216   4.351   3.498   2.437 -0.3827  0.0174 -0.5784
  192SAPI    HX22217   4.462   3.496   2.429 -0.0517  0.9059  2.6041
  192SAPI    HY22218   4.322   3.406   2.382  1.4051 -0.4075 -0.8772
  192SAPI   O3122219   4.296   3.485   2.577  0.1065  0.6632 -0.3259
  192SAPI   C3122220   4.369   3.542   2.666  0.1727  0.8078  0.7294
  192SAPI   O3222221   4.479   3.584   2.645 -0.4245 -0.4027 -0.8672
  192SAPI   C3222222   4.296   3.542   2.802 -0.1619 -0.4444 -0.4947
  192SAPI   H2X22223   4.362   3.487   2.872 -0.0691  0.8160  0.4289
  192SAPI   H2Y22224   4.193   3.501   2.801 -0.6211  0.6706 -0.4851
  192SAPI   C2322225   4.070   3.956   2.619  0.0789 -0.0989  0.3073
  192SAPI   H3R22226   4.031   3.881   2.691 -0.3074 -1.3710 -1.1766
  192SAPI   H3S22227   3.985   3.956   2.546  1.5453 -3.9396 -1.7018
  192SAPI   C2422228   4.087   4.091   2.678  0.4082  0.2348  0.6602
  192SAPI   H4R22229   3.990   4.138   2.706  0.4678  1.0994 -0.4922
  192SAPI   H4S22230   4.128   4.166   2.608 -0.1553 -1.6402 -1.8361
  192SAPI   C2522231   4.173   4.073   2.798 -0.3815 -0.4474  0.4131
  192SAPI   H5R22232   4.280   4.069   2.774 -0.7995  0.5627 -1.9458
  192SAPI   C2622233   4.131   4.073   2.927 -0.1487 -0.0639 -0.0400
  192SAPI   H6R22234   4.199   4.069   3.014 -2.0139  2.0292  1.6046
  192SAPI   C2722235   3.998   4.102   2.993 -0.1622 -0.5908  0.0987
  192SAPI   H7R22236   3.922   4.128   2.915 -0.1454  0.0974  0.3065
  192SAPI   H7S22237   4.002   4.192   3.057 -3.1527  0.7042 -1.3306
  192SAPI   C2822238   3.951   3.971   3.052  0.3555 -0.1783 -1.0269
  192SAPI   H8R22239   3.948   3.886   2.984  0.0507 -0.4391 -0.6928
  192SAPI   C2922240   3.899   3.951   3.171  0.2369  0.0851 -0.0290
  192SAPI   H9R22241   3.871   3.849   3.203 -3.3598  1.3936  1.5712
  192SAPI  C21022242   3.880   4.057   3.285 -0.2807  0.4242  0.1104
  192SAPI  H10R22243   3.788   4.026   3.339  0.0549 -0.7128  0.0644
  192SAPI  H10S22244   3.863   4.157   3.240  2.3587  1.1201  0.5181
  192SAPI  C21122245   3.993   4.067   3.376  0.5160  0.5670  0.2737
  192SAPI  H11R22246   4.085   4.086   3.318  0.3411  0.4699 -0.0330
  192SAPI  C21222247   3.997   4.055   3.511  0.7915  0.3323 -0.2455
  192SAPI  H12R22248   4.089   4.055   3.572 -0.0203 -1.4635  1.0464
  192SAPI  C21322249   3.874   4.016   3.593  0.3348 -0.6261  0.8900
  192SAPI  H13R22250   3.790   4.088   3.579  0.3400 -0.1444  3.1001
  192SAPI  H13S22251   3.892   4.026   3.702  0.4447 -1.1748  0.9244
  192SAPI  C21422252   3.829   3.879   3.567 -0.5381 -0.0526 -0.7583
  192SAPI  H14R22253   3.891   3.827   3.493  3.6820  1.3948  1.4160
  192SAPI  C21522254   3.733   3.806   3.625  0.4539 -0.4680  0.1737
  192SAPI  H15R22255   3.718   3.702   3.592 -0.0557 -0.3135 -0.0889
  192SAPI  C21622256   3.648   3.848   3.740  0.3519 -0.4646 -0.4972
  192SAPI  H16R22257   3.543   3.858   3.704  0.4748  0.8068 -0.5434
  192SAPI  H16S22258   3.672   3.953   3.768 -0.2329 -0.7181  1.0743
  192SAPI  C21722259   3.650   3.748   3.865 -0.8490  0.1718 -0.1012
  192SAPI  H17R22260   3.750   3.733   3.912 -0.6401  0.4831 -0.4393
  192SAPI  H17S22261   3.631   3.649   3.818 -0.5330 -0.3596  0.8701
  192SAPI  C21822262   3.544   3.774   3.965  0.3224  0.8627 -0.4060
  192SAPI  H18R22263   3.438   3.761   3.932  0.5370  0.4764 -0.9597
  192SAPI  H18S22264   3.571   3.874   4.003  2.8697  0.4411 -0.9084
  192SAPI  C21922265   3.574   3.681   4.087  0.4226  0.1627 -0.0793
  192SAPI  H19R22266   3.680   3.699   4.115  1.1072  1.6591 -3.1596
  192SAPI  H19S22267   3.565   3.575   4.057  0.1954  0.1826 -0.0769
  192SAPI  C22022268   3.474   3.715   4.196  0.1210  0.1062  0.4805
  192SAPI  H20R22269   3.468   3.825   4.215 -0.0080 -0.2285  2.5312
  192SAPI  H20S22270   3.507   3.667   4.290  0.5602 -0.8752 -0.1616
  192SAPI  H20T22271   3.377   3.678   4.156  0.5098  0.8720 -1.2572
  192SAPI   C3322272   4.300   3.689   2.855 -0.4571 -0.1597 -0.2342
  192SAPI   H3X22273   4.243   3.748   2.780 -1.1281 -1.5740 -0.8866
  192SAPI   H3Y22274   4.401   3.736   2.852 -1.3311  1.7591 -1.8855
  192SAPI   C3422275   4.237   3.704   2.989 -0.0169 -0.2869 -0.3321
  192SAPI   H4X22276   4.129   3.675   2.989 -0.8141  2.2498  1.8561
  192SAPI   H4Y22277   4.224   3.809   3.024  1.6236 -0.1204 -0.1758
  192SAPI   C3522278   4.315   3.646   3.110  1.3642  0.0449  0.7796
  192SAPI   H5X22279   4.419   3.679   3.095  1.0305  0.4273 -0.9233
  192SAPI   H5Y22280   4.320   3.537   3.089  1.3617  0.1051  0.4660
  192SAPI   C3622281   4.244   3.685   3.239 -0.0272  0.1334 -0.1843
  192SAPI   H6X22282   4.141   3.646   3.254  0.4276 -1.5471 -1.2210
  192SAPI   H6Y22283   4.229   3.795   3.232 -0.5546 -0.0062 -1.4476
  192SAPI   C3722284   4.339   3.668   3.359 -0.0635  0.5505 -0.1489
  192SAPI   H7X22285   4.440   3.709   3.339  1.0840 -1.7742  0.4296
  192SAPI   H7Y22286   4.349   3.560   3.386 -0.8118  0.2398 -1.0537
  192SAPI   C3822287   4.277   3.748   3.472  0.6202  0.6506 -0.2912
  192SAPI   H8X22288   4.166   3.742   3.474  0.6917 -0.9304  1.1701
  192SAPI   H8Y22289   4.289   3.859   3.466  0.1524  0.7451  0.3952
  192SAPI   C3922290   4.313   3.697   3.608  0.1930  0.4250  0.1347
  192SAPI   H9X22291   4.402   3.739   3.660  1.2888 -1.1002 -0.4277
  192SAPI   H9Y22292   4.329   3.587   3.607 -2.0851  0.0486 -1.0157
  192SAPI  C31022293   4.195   3.723   3.709  0.3818 -1.0183  0.8865
  192SAPI  H10X22294   4.102   3.671   3.679  1.3325 -2.3483  0.1381
  192SAPI  H10Y22295   4.171   3.831   3.722 -0.9171 -1.1939  0.1129
  192SAPI  C31122296   4.231   3.665   3.847  0.5083 -0.1088  0.8669
  192SAPI  H11X22297   4.299   3.735   3.900  0.7542  0.3778 -0.0632
  192SAPI  H11Y22298   4.277   3.564   3.836  1.2343  0.4032 -1.6158
  192SAPI  C31222299   4.104   3.659   3.936  0.1651 -0.1693 -1.0129
  192SAPI  H12X22300   4.027   3.614   3.870  0.8454  0.4631 -2.2789
  192SAPI  H12Y22301   4.074   3.763   3.961  0.1050 -0.0338 -1.6351
  192SAPI  C31322302   4.136   3.578   4.065 -0.1628 -0.0168  0.2366
  192SAPI  H13X22303   4.226   3.619   4.116  1.4096 -2.1058 -0.6873
  192SAPI  H13Y22304   4.175   3.480   4.031 -0.2510 -0.2842  0.8939
  192SAPI  C31422305   4.019   3.573   4.166  0.1531  0.2763  0.8832
  192SAPI  H14X22306   4.050   3.516   4.256  0.5218 -3.1224 -1.2148
  192SAPI  H14Y22307   3.937   3.517   4.116  0.2418 -0.4310  1.4990
  192SAPI  C31522308   3.965   3.712   4.220 -0.3033  0.3763  0.3242
  192SAPI  H15X22309   3.883   3.704   4.295 -1.0164 -0.4808 -0.5247
  192SAPI  H15Y22310   3.923   3.766   4.133 -0.7823 -0.4682  0.0182
  192SAPI  C31622311   4.074   3.810   4.273 -0.5392 -0.4687  0.0848
  192SAPI  H16X22312   4.157   3.825   4.201  2.0615 -1.2341  2.7289
  192SAPI  H16Y22313   4.127   3.755   4.353 -1.4479 -1.6621 -0.1103
  192SAPI  C31722314   4.016   3.951   4.315  0.4048  0.0990  0.1393
  192SAPI  H17X22315   3.924   3.916   4.366 -0.1334 -0.8252 -1.4149
  192SAPI  H17Y22316   3.982   4.005   4.224  1.4861  0.4543 -0.0694
  192SAPI  C31822317   4.088   4.046   4.413  0.3795  0.0845  0.2265
  192SAPI  H18X22318   4.154   3.993   4.484 -0.1878 -2.0335 -0.7712
  192SAPI  H18Y22319   4.007   4.093   4.474 -0.6272 -0.0982 -0.9394
  192SAPI  H18Z22320   4.156   4.124   4.373  3.5415 -1.0495  3.0070
  193SOD    SOD22321   1.508   4.299   7.680  0.2636 -0.1573  0.1799
  194SOD    SOD22322   0.106   3.678   7.202  0.3458  0.0562  0.0415
  195SOD    SOD22323   2.247   2.997   7.340 -0.2238  0.3433 -0.1366
  196SOD    SOD22324   5.918   4.932   1.466 -0.1380 -0.3286  0.1252
  197SOD    SOD22325   5.863   1.308   0.621 -0.0207 -0.1059  0.1905
  198SOD    SOD22326   0.330   6.762   8.002  0.1335  0.4799 -0.0697
  199SOD    SOD22327   5.678   2.120   7.971 -0.6007  0.2278 -0.0107
  200SOD    SOD22328   0.742   3.574   0.934 -0.1222 -0.1573  0.2867
  201SOD    SOD22329   6.370   0.024   2.326 -0.3363 -0.4036 -0.0626
  202SOD    SOD22330   0.886   2.804   6.894 -0.7049  0.5172  0.0780
  203SOD    SOD22331   5.218   2.982   6.376 -0.0029  0.2219 -0.2581
  204SOD    SOD22332   1.370   6.644   6.492 -0.2176 -0.2714  0.2104
  205SOD    SOD22333   6.055   0.166   8.301  0.1596  0.2545 -0.0137
  206SOD    SOD22334   5.381   2.389   8.441 -0.0818 -0.6628 -0.6582
  207SOD    SOD22335   3.315   0.830   7.140 -0.2403  0.0772  0.3141
  208SOD    SOD22336   4.039   4.268   7.400 -0.5126 -0.1471  0.3362
  209SOD    SOD22337   3.040   4.585   1.634  0.0571 -0.0536  0.0666
  210SOD    SOD22338   0.892   6.745   1.723 -0.5640  0.2871 -0.3209
  211SOD    SOD22339   4.545   4.512   1.662  0.3575  0.5633  0.2612
  212SOD    SOD22340   0.738   5.906   0.838 -0.2169 -0.2711 -0.2646
  213SOD    SOD22341   3.615   4.568   1.185  0.1514  0.1154  0.2856
  214SOD    SOD22342   5.736   5.138   6.437  0.2720 -0.4832  0.5256
  215SOD    SOD22343   3.834   1.740   1.828 -0.6246 -0.3903  0.0001
  216SOD    SOD22344   2.008   6.521   1.159 -0.3633 -0.1699  0.2117
  217SOD    SOD22345   4.909   1.180   2.118 -0.0865  0.3838 -0.4202
  218SOD    SOD22346   0.769   1.470   1.176 -0.1307 -0.0554  0.1163
  219SOD    SOD22347   2.365   1.309   8.714 -0.4455  0.3605  1.0370
  220SOD    SOD22348   5.982   1.524   7.681  0.1402  0.1264  0.1192
  221SOD    SOD22349   6.848   4.153   1.583 -0.6354 -0.1456  0.1762
  222SOD    SOD22350   6.718   2.258   8.475 -0.6144 -0.3368  0.3397
  223SOD    SOD22351   2.923   3.487   6.697 -0.1783  0.6944 -0.1494
  224SOD    SOD22352   6.179   1.493   6.853  0.0633 -0.5617  0.1237
  225SOD    SOD22353   3.853   2.096   6.985 -0.4785 -0.0192 -0.2547
  226SOD    SOD22354   0.795   0.457   6.795 -0.1517 -0.1202  0.1448
  227SOD    SOD22355   0.881   0.762   8.650 -0.2443  0.0240  0.1893
  228SOD    SOD22356   0.928   5.278   1.759 -0.2017 -0.2698  0.2457
  229SOD    SOD22357   5.734   1.360   6.849  0.1557  0.3088  0.1736
  230CLA    CLA22358   4.268   3.242   1.556 -0.2132  0.0353 -0.4461
  231CLA    CLA22359   1.897   3.141   7.502  0.1129 -0.0965 -0.2191
  232CLA    CLA22360   5.891   5.103   0.817  0.1717 -0.2477  0.2234
  233CLA    CLA22361   0.684   6.075   0.618  0.3059  0.3757  0.1526
  234CLA    CLA22362   4.351   5.454   0.539 -0.2024  0.2120 -0.1825
  235CLA    CLA22363   4.161   4.540   7.768 -0.4606 -0.1555  0.2387
  236CLA    CLA22364   1.976   0.319   8.800 -0.1712 -0.2239 -0.2414
  237CLA    CLA22365   5.907   1.529   6.983 -0.1779 -0.0513  0.0486
  238CLA    CLA22366   0.171   4.501   7.690  0.0697 -0.0293  0.0582
  239CLA    CLA22367   0.185   0.765   7.841 -0.1679  0.2327  0.1227
  240CLA    CLA22368   5.934   1.550   0.623 -0.4473 -0.2764 -0.2835
  241CLA    CLA22369   1.280   6.430   0.268 -0.1231 -0.1734 -0.2019
  242CLA    CLA22370   4.595   2.243   0.953 -0.1909  0.0849 -0.2276
  243CLA    CLA22371   5.974   0.951   0.968 -0.0255 -0.2234 -0.2036
  244CLA    CLA22372   3.742   2.147   7.676  0.1540  0.3281  0.2125
  245CLA    CLA22373   4.003   4.202   0.731 -0.1115 -0.4076 -0.0091
  246CLA    CLA22374   4.510   1.027   1.921  0.3172 -0.2228 -0.1536
  247TIP3   OH222375   0.233   5.505   7.112 -0.0878  0.0351  0.1151
  247TIP3    H122376   0.166   5.570   7.091 -0.1822 -0.3107 -0.6610
  247TIP3    H222377   0.287   5.500   7.034  0.4534 -0.1820  0.4934
  248TIP3   OH222378   1.684   2.572   8.110 -1.2967  0.6606 -0.3699
  248TIP3    H122379   1.649   2.661   8.113 -0.5589  1.0493 -2.0558
  248TIP3    H222380   1.656   2.532   8.192  0.3441  3.1983  1.5985
  249TIP3   OH222381   1.391   4.728   0.966  0.3557  0.0047  0.1060
  249TIP3    H122382   1.332   4.653   0.973  0.9103 -0.6449 -1.6080
  249TIP3    H222383   1.468   4.703   1.017 -0.0301  0.0401  0.7261
  250TIP3   OH222384   0.962   5.671   0.354 -0.1584 -0.8506  0.4275
  250TIP3    H122385   0.997   5.670   0.443  1.3217  0.5855 -0.0798
  250TIP3    H222386   0.925   5.758   0.344  0.0215 -0.8678 -0.4722
  251TIP3   OH222387   4.527   0.548   1.439 -0.0953  0.9539  0.2423
  251TIP3    H122388   4.517   0.600   1.519 -0.6019  0.8777  0.2271
  251TIP3    H222389   4.438   0.532   1.410 -0.0461 -1.4851  1.2356
  252TIP3   OH222390   2.490   3.429   7.363 -0.2962  0.0442  0.0642
  252TIP3    H122391   2.499   3.442   7.269 -0.5329 -0.7969 -0.0817
  252TIP3    H222392   2.399   3.453   7.382  0.0791  1.3668  0.2923
  253TIP3   OH222393   6.181   0.666   0.998  0.6400 -0.1435  0.0629
  253TIP3    H122394   6.274   0.685   1.015  0.3577  0.5631  0.9026
  253TIP3    H222395   6.142   0.752   0.983  0.5447 -0.5958 -2.7250
  254TIP3   OH222396   2.404   2.374   7.041  0.3332 -0.0502 -0.1608
  254TIP3    H122397   2.408   2.375   6.945  1.0780 -1.1996 -0.1593
  254TIP3    H222398   2.458   2.299   7.066 -0.8471 -0.5162  1.1109
  255TIP3   OH222399   1.343   0.688   0.032 -0.1016 -0.2243  0.1457
  255TIP3    H122400   1.295   0.680   0.114 -0.8539 -1.1221 -0.3576
  255TIP3    H222401   1.362   0.782   0.024  0.8327 -0.2440  1.7951
  256TIP3   OH222402   5.210   3.708   7.097 -0.1851 -0.0202 -0.2897
  256TIP3    H122403   5.274   3.776   7.118  0.2535 -0.7979  1.0600
  256TIP3    H222404   5.142   3.752   7.047  1.0940  0.9673 -1.2177
  257TIP3   OH222405   0.104   3.547   8.495 -0.3267  1.1555  0.3889
  257TIP3    H122406   0.031   3.487   8.509  0.4839  0.1216  0.2456
  257TIP3    H222407   0.110   3.598   8.576  0.3754 -0.4793  1.4063
  258TIP3   OH222408   0.538   6.311   8.021 -0.1953 -0.4088  0.0159
  258TIP3    H122409   0.622   6.300   7.975 -0.3669 -1.2979 -0.0947
  258TIP3    H222410   0.558   6.291   8.112  0.0742  1.0424  0.2954
  259TIP3   OH222411   5.007   0.219   1.554 -0.1512  0.3299  0.3482
  259TIP3    H122412   4.969   0.188   1.636 -2.0174  2.3363  0.3146
  259TIP3    H222413   4.934   0.220   1.492  0.8520  0.4786 -0.8734
  260TIP3   OH222414   5.858   4.227   8.690  0.4465 -0.0193  0.4456
  260TIP3    H122415   5.945   4.252   8.721 -0.3222 -0.1088  2.9737
  260TIP3    H222416   5.801   4.298   8.720 -0.8727 -1.7696  2.4522
  261TIP3   OH222417   4.146   1.550   0.063 -0.3303  0.0570 -0.3741
  261TIP3    H122418   4.091   1.484   0.020  0.3370 -0.0412 -1.1013
  261TIP3    H222419   4.207   1.499   0.116 -2.3100  0.2047  2.2616
  262TIP3   OH222420   4.641   1.884   1.156 -0.2457  0.7689 -0.0254
  262TIP3    H122421   4.573   1.848   1.099  1.4212 -0.0180 -1.6650
  262TIP3    H222422   4.667   1.965   1.113  2.9106 -1.1229 -2.1739
  263TIP3   OH222423   2.041   3.618   7.056  0.4248  0.5019  0.6534
  263TIP3    H122424   1.960   3.653   7.020  0.7038 -0.9688 -1.6259
  263TIP3    H222425   2.110   3.668   7.012  0.7958  0.9856  1.7452
  264TIP3   OH222426   6.334   1.067   8.237 -0.2011  0.6365 -0.8437
  264TIP3    H122427   6.400   1.117   8.188  1.3856 -0.1297  0.4061
  264TIP3    H222428   6.343   0.977   8.205 -2.2911  0.8678 -2.3004
  265TIP3   OH222429   4.316   6.789   1.092 -0.3954 -0.1764 -0.4146
  265TIP3    H122430   4.390   6.849   1.105 -0.4528 -0.3392  0.8139
  265TIP3    H222431   4.313   6.775   0.998  0.3478  0.8371 -0.6119
  266TIP3   OH222432   5.200   3.297   1.711  0.1529 -0.0483 -0.3810
  266TIP3    H122433   5.214   3.259   1.624 -0.7938 -0.0697 -0.5417
  266TIP3    H222434   5.236   3.385   1.704  3.8338 -1.2997  0.4681
  267TIP3   OH222435   6.697   3.389   7.400  0.5861 -0.2797  0.5091
  267TIP3    H122436   6.649   3.440   7.465  0.9656 -0.5169  0.9827
  267TIP3    H222437   6.784   3.379   7.438  1.7441  2.0136 -1.2905
  268TIP3   OH222438   0.004   0.877   0.382 -0.4861 -0.2258 -0.0155
  268TIP3    H122439   0.005   0.782   0.373 -0.3814 -0.1567 -0.8408
  268TIP3    H222440  -0.088   0.901   0.378 -0.5645 -0.3474  0.9136
  269TIP3   OH222441   3.979   4.588   6.763  0.0989 -0.5231 -0.6509
  269TIP3    H122442   4.037   4.513   6.748  0.3214 -0.4980  0.0080
  269TIP3    H222443   3.971   4.592   6.859 -0.1644  0.1049 -0.6979
  270TIP3   OH222444   0.417   3.119   7.295  0.5231 -0.1997 -0.0876
  270TIP3    H122445   0.341   3.061   7.303  0.7898 -0.6237 -0.5781
  270TIP3    H222446   0.380   3.202   7.265  0.2307 -0.3456 -0.1369
  271TIP3   OH222447   2.483   5.265   7.044 -0.1750 -0.2337 -0.5847
  271TIP3    H122448   2.436   5.206   6.986 -0.3777  1.6832 -2.4966
  271TIP3    H222449   2.446   5.352   7.026  0.6796  0.6389  1.4904
  272TIP3   OH222450   1.619   3.170   7.647  0.2662  0.0318 -0.0796
  272TIP3    H122451   1.677   3.137   7.578 -0.6185 -0.8319 -0.4383
  272TIP3    H222452   1.656   3.136   7.728  0.1829 -0.6497 -0.3217
  273TIP3   OH222453   0.213   0.783   7.529 -0.3856  0.1720  0.4555
  273TIP3    H122454   0.138   0.839   7.512 -1.5964 -1.0196  1.5630
  273TIP3    H222455   0.222   0.783   7.625  2.0372  1.5091  0.3143
  274TIP3   OH222456   4.942   6.812   6.571 -0.4406 -0.1502  0.5435
  274TIP3    H122457   4.869   6.874   6.568 -0.1007  0.2255 -0.1701
  274TIP3    H222458   4.904   6.729   6.541 -1.0382 -0.4533  2.0586
  275TIP3   OH222459   4.938   2.280   0.045  0.7333  0.3048 -0.1147
  275TIP3    H122460   4.970   2.366   0.071  1.3158  0.6069 -1.7096
  275TIP3    H222461   4.907   2.240   0.126 -0.2480  2.2926  0.5628
  276TIP3   OH222462   5.155   6.847   1.176  0.8363 -0.2342 -0.5817
  276TIP3    H122463   5.168   6.902   1.099 -0.0590 -1.2181 -1.4650
  276TIP3    H222464   5.146   6.909   1.249  0.1913  0.7781 -1.4961
  277TIP3   OH222465   1.363   5.640   0.004  0.2272 -0.1447  0.1052
  277TIP3    H122466   1.391   5.555   0.040 -1.3752 -0.3692  0.9069
  277TIP3    H222467   1.324   5.685   0.078  0.1753  0.9136 -0.5552
  278TIP3   OH222468   2.837   0.671   1.032  0.6801 -0.7415 -0.2545
  278TIP3    H122469   2.920   0.656   1.076  0.0416  0.3152  1.3764
  278TIP3    H222470   2.851   0.749   0.978  0.1762  0.8545  1.7834
  279TIP3   OH222471   6.024   2.593   8.133 -0.0147  0.1077  0.3843
  279TIP3    H122472   6.001   2.654   8.203 -0.1200 -0.1496  0.5744
  279TIP3    H222473   6.066   2.648   8.067 -0.6443  0.4815  0.2925
  280TIP3   OH222474   5.942   3.672   1.782  0.1720 -0.5377  0.0490
  280TIP3    H122475   5.956   3.694   1.689 -0.9532 -1.7009 -0.4279
  280TIP3    H222476   5.967   3.751   1.829  2.3340 -0.4485 -1.1098
  281TIP3   OH222477   2.483   2.915   7.324 -0.2618  0.1275  0.2807
  281TIP3    H122478   2.527   2.838   7.360  0.0369 -1.4775 -3.1386
  281TIP3    H222479   2.532   2.989   7.359  1.3393 -1.3623  1.3424
  282TIP3   OH222480   3.345   1.644   2.021 -0.4576  0.1776  0.6729
  282TIP3    H122481   3.422   1.593   2.048 -1.3392 -0.9607  1.0790
  282TIP3    H222482   3.382   1.720   1.976  0.8803 -1.3183 -0.8588
  283TIP3   OH222483   4.744   3.765   6.505  0.0489 -0.5534 -0.0191
  283TIP3    H122484   4.703   3.841   6.462 -2.3489 -1.9347 -0.3181
  283TIP3    H222485   4.746   3.698   6.437  2.0941 -0.8498  0.2648
  284TIP3   OH222486   1.278   6.606   8.675  0.1970  0.3210  0.3407
  284TIP3    H122487   1.357   6.617   8.622 -1.0324  2.9749 -1.1557
  284TIP3    H222488   1.221   6.678   8.648 -2.4623 -1.0490  1.8905
  285TIP3   OH222489   2.521   3.475   0.290 -0.1883 -0.0661 -0.0197
  285TIP3    H122490   2.449   3.422   0.322 -0.3424  0.2521  0.1533
  285TIP3    H222491   2.547   3.432   0.208 -0.2203 -0.4896  0.1893
  286TIP3   OH222492   0.292   2.313   0.917 -0.2656 -0.0646  0.0210
  286TIP3    H122493   0.221   2.281   0.973  1.3624 -0.1961  2.1557
  286TIP3    H222494   0.300   2.246   0.849  0.9503 -2.7315  2.5619
  287TIP3   OH222495   0.044   3.479   7.886  0.1738 -0.5869 -0.3586
  287TIP3    H122496  -0.015   3.411   7.852  1.2054 -1.7208  0.0303
  287TIP3    H222497   0.018   3.491   7.977 -1.6570  1.4142 -1.0855
  288TIP3   OH222498   3.093   6.497   0.866 -0.6961  0.1538 -0.1455
  288TIP3    H122499   3.170   6.473   0.815 -1.9247 -0.4752 -1.7795
  288TIP3    H222500   3.090   6.593   0.861 -1.4396  0.0879 -2.3816
  289TIP3   OH222501   1.284   1.261   8.468 -0.0102 -0.1663  0.1273
  289TIP3    H122502   1.200   1.215   8.459 -0.1397  0.0666  0.1292
  289TIP3    H222503   1.290   1.314   8.388  0.7110 -1.1036 -0.4571
  290TIP3   OH222504   1.358   0.110   8.475  0.1581 -0.4390  0.0319
  290TIP3    H122505   1.374   0.062   8.393 -0.2014 -0.1351 -0.2181
  290TIP3    H222506   1.446   0.130   8.508  0.3728 -2.6668  0.9880
  291TIP3   OH222507   4.243   6.530   8.182 -0.2862 -0.3330 -0.4214
  291TIP3    H122508   4.330   6.566   8.163  0.8987 -2.8056 -0.1587
  291TIP3    H222509   4.205   6.512   8.096  0.2637 -0.9456 -0.5453
  292TIP3   OH222510   6.376   3.726   6.548  0.1447  0.3591  0.5992
  292TIP3    H122511   6.384   3.821   6.541 -0.7018  0.3015 -2.9409
  292TIP3    H222512   6.434   3.692   6.480 -2.4740 -1.4198 -0.9060
  293TIP3   OH222513   2.227   4.637   1.206  0.0994 -0.2731 -0.1546
  293TIP3    H122514   2.164   4.664   1.273  0.5583 -1.8634  0.9510
  293TIP3    H222515   2.313   4.660   1.243  0.3487 -1.0883 -0.2167
  294TIP3   OH222516   0.753   0.938   1.959  0.1849 -0.1142  0.4119
  294TIP3    H122517   0.724   1.030   1.957 -1.5218 -0.6298 -1.8456
  294TIP3    H222518   0.838   0.942   2.004  0.3782  2.6328  0.0348
  295TIP3   OH222519   3.073   3.935   7.073 -0.2619 -0.5386  0.1310
  295TIP3    H122520   3.065   3.945   6.978 -0.9523 -2.4037 -0.0485
  295TIP3    H222521   2.983   3.924   7.104  0.0508 -1.5421  0.7616
  296TIP3   OH222522   2.660   0.784   6.715 -0.4424 -0.2494  0.5714
  296TIP3    H122523   2.710   0.778   6.633 -0.0836 -0.4073  0.7996
  296TIP3    H222524   2.666   0.876   6.740  1.1632 -0.5605  1.4734
  297TIP3   OH222525   0.985   0.473   1.159 -0.3680 -0.2569  0.0727
  297TIP3    H122526   0.998   0.379   1.177  1.2608  0.3056  2.2890
  297TIP3    H222527   1.074   0.509   1.158 -0.9869  1.3135 -0.5408
  298TIP3   OH222528   5.420   5.699   0.422  0.0210  0.3187  0.4377
  298TIP3    H122529   5.493   5.710   0.362 -0.0883 -1.3124 -0.0169
  298TIP3    H222530   5.354   5.652   0.372 -0.9953  0.9605  1.1279
  299TIP3   OH222531   6.595   1.536   6.989  0.0900 -0.1290  0.6946
  299TIP3    H122532   6.661   1.520   6.922 -0.9220  1.2514 -0.7166
  299TIP3    H222533   6.638   1.592   7.053  0.5775 -0.0498  0.3062
  300TIP3   OH222534   0.084   5.248   7.070  0.2815 -0.6031  0.0904
  300TIP3    H122535   0.022   5.298   7.016 -0.6856 -1.0722  0.7387
  300TIP3    H222536   0.142   5.314   7.107 -0.0057 -0.1196 -0.2998
  301TIP3   OH222537   4.328   5.939   8.415 -0.0312  0.0536  0.1980
  301TIP3    H122538   4.312   5.914   8.506 -0.8623 -1.8978 -0.4429
  301TIP3    H222539   4.240   5.956   8.379  0.1340 -0.7455 -0.6318
  302TIP3   OH222540   3.591   0.606   1.520  0.6958 -0.3147  0.6022
  302TIP3    H122541   3.619   0.570   1.604  2.2458 -3.1005 -0.9722
  302TIP3    H222542   3.556   0.531   1.472  0.1590  1.1250 -1.3784
  303TIP3   OH222543   2.110   4.687   6.277  0.6210 -0.5597 -0.3287
  303TIP3    H122544   2.073   4.621   6.336 -1.7454  1.1442  0.2216
  303TIP3    H222545   2.174   4.733   6.331  0.3793 -0.7054  0.0851
  304TIP3   OH222546   5.772   6.161   1.118 -0.3491 -0.3783  0.1252
  304TIP3    H122547   5.694   6.196   1.076 -0.2378 -1.0517 -0.6587
  304TIP3    H222548   5.768   6.196   1.207 -2.1656 -1.3195  0.4713
  305TIP3   OH222549   3.707   5.026   6.938  0.0636 -0.0143 -0.6229
  305TIP3    H122550   3.659   4.986   7.010  2.7676 -0.9060  0.8477
  305TIP3    H222551   3.677   4.978   6.860 -1.8660 -0.0161  0.0685
  306TIP3   OH222552   6.271   4.555   7.355 -0.3030 -0.4771 -0.4839
  306TIP3    H122553   6.361   4.585   7.363 -0.9879  1.3564  0.7849
  306TIP3    H222554   6.233   4.566   7.442 -2.1342  0.0969 -1.2962
  307TIP3   OH222555   0.979   3.599   7.849  0.4755 -0.6060  0.2393
  307TIP3    H122556   1.055   3.541   7.843  1.8526  1.1852 -0.5554
  307TIP3    H222557   0.969   3.617   7.942  2.1399  0.4646  0.2521
  308TIP3   OH222558   0.134   2.054   0.823  0.2507 -0.1485  0.2087
  308TIP3    H122559   0.081   2.124   0.785  0.7585  0.6453  0.9167
  308TIP3    H222560   0.086   1.974   0.804  0.2118  0.2605 -1.6296
  309TIP3   OH222561   4.124   1.902   6.660  0.1881  0.5772 -0.4862
  309TIP3    H122562   4.103   1.984   6.703  1.2394  0.8901 -0.5583
  309TIP3    H222563   4.045   1.880   6.610 -0.1215  1.5033 -0.4106
  310TIP3   OH222564   2.073   5.918   1.442  0.2035  0.1222  0.4261
  310TIP3    H122565   2.016   5.909   1.366 -0.1076 -1.0523  0.7737
  310TIP3    H222566   2.013   5.938   1.514  0.5243  1.5231  0.3375
  311TIP3   OH222567   4.410   1.559   1.140  0.5150  0.7599  0.5378
  311TIP3    H122568   4.360   1.477   1.141 -1.3100  1.8230 -0.0972
  311TIP3    H222569   4.496   1.534   1.105  0.3942 -1.0659  1.3916
  312TIP3   OH222570   1.981   3.562   8.234 -0.4196 -0.0124  0.8463
  312TIP3    H122571   1.942   3.611   8.307  0.0188 -0.0693  1.1258
  312TIP3    H222572   1.992   3.627   8.164 -1.1070 -0.0215  0.7270
  313TIP3   OH222573   3.625   6.481   7.279  0.0244 -0.4308  0.3344
  313TIP3    H122574   3.563   6.532   7.331  2.0442  2.6126 -0.0349
  313TIP3    H222575   3.704   6.476   7.333  1.2615  0.5029 -1.3016
  314TIP3   OH222576   3.825   3.781   8.525  0.0633 -0.1138 -0.4348
  314TIP3    H122577   3.771   3.793   8.447 -1.0605  1.8971  0.5559
  314TIP3    H222578   3.783   3.710   8.574 -0.8712  0.4653 -0.3753
  315TIP3   OH222579   5.979   5.679   2.428  0.3948  0.0300 -0.1498
  315TIP3    H122580   5.980   5.687   2.333 -0.0296 -1.7259 -0.3399
  315TIP3    H222581   6.021   5.759   2.459  2.7599 -0.4308 -1.8852
  316TIP3   OH222582   0.560   6.688   8.010  0.1909  0.0149  0.1133
  316TIP3    H122583   0.622   6.758   8.031  0.5315 -0.5478  1.0444
  316TIP3    H222584   0.571   6.625   8.080 -1.2546 -0.2351  0.1387
  317TIP3   OH222585   4.999   3.069   7.187  0.4994  0.6152 -0.5819
  317TIP3    H122586   5.076   3.041   7.236 -1.1320 -2.0387  0.6544
  317TIP3    H222587   4.989   3.004   7.118 -0.0808  1.5425 -1.4071
  318TIP3   OH222588   5.393   6.827   7.665 -0.1024  0.1473 -0.0727
  318TIP3    H122589   5.365   6.849   7.576  3.6265  2.3592 -0.9202
  318TIP3    H222590   5.424   6.737   7.659  0.1475  0.2891 -1.0732
  319TIP3   OH222591   4.732   5.142   1.629  0.0233  0.1284  0.0385
  319TIP3    H122592   4.695   5.139   1.541  1.8633 -0.3141 -0.7683
  319TIP3    H222593   4.751   5.051   1.651 -2.2035 -0.0180  1.7677
  320TIP3   OH222594   4.671   4.568   0.081  0.4515 -0.5639 -0.7730
  320TIP3    H122595   4.661   4.495   0.020  0.3081  0.4226 -1.9736
  320TIP3    H222596   4.613   4.546   0.154  0.6672 -1.8036 -0.9538
  321TIP3   OH222597   1.105   2.250   1.275  0.2861 -0.4656  0.1865
  321TIP3    H122598   1.129   2.338   1.247  1.3137  0.2434  2.8970
  321TIP3    H222599   1.015   2.239   1.247  0.2649  1.3096 -0.5555
  322TIP3   OH222600   5.405   2.762   0.172  0.3539  0.5010  0.3488
  322TIP3    H122601   5.367   2.696   0.230 -2.1835  1.5184 -0.0474
  322TIP3    H222602   5.452   2.821   0.231  0.5582 -0.2779  0.9865
  323TIP3   OH222603   4.902   4.618   8.587 -0.4235 -0.4020  0.0510
  323TIP3    H122604   4.953   4.541   8.613  0.6050  0.2048 -0.1143
  323TIP3    H222605   4.873   4.657   8.669 -1.3353 -1.2069  0.1241
  324TIP3   OH222606   5.854   0.075   8.426  0.4900 -0.1002 -0.2018
  324TIP3    H122607   5.828   0.059   8.517 -0.5086  1.5010 -0.1533
  324TIP3    H222608   5.831  -0.005   8.380 -1.1386 -0.1082  0.5499
  325TIP3   OH222609   0.996   6.322   6.735  0.2338  0.3762  0.0363
  325TIP3    H122610   0.910   6.351   6.707 -0.5164 -2.0347 -0.4207
  325TIP3    H222611   1.022   6.257   6.669  1.4447 -0.4791  1.2904
  326TIP3   OH222612   5.188   4.834   0.163 -0.0923 -0.4765 -0.2122
  326TIP3    H122613   5.197   4.812   0.070 -2.4472 -0.4351 -0.5074
  326TIP3    H222614   5.210   4.753   0.208 -0.0139 -0.8220 -0.8517
  327TIP3   OH222615   0.547   1.278   8.801  0.3522  0.4633 -0.3676
  327TIP3    H122616   0.544   1.258   8.708  1.9368  0.9311 -0.5505
  327TIP3    H222617   0.462   1.319   8.819 -0.3289 -0.4438 -1.3898
  328TIP3   OH222618   0.471   6.547   7.757 -0.1690  0.2848  1.1147
  328TIP3    H122619   0.545   6.494   7.786 -0.0871  0.2299  0.8069
  328TIP3    H222620   0.487   6.633   7.796  0.3208  0.4160  0.6420
  329TIP3   OH222621   2.142   0.895   1.964  0.5342 -0.1782  0.0695
  329TIP3    H122622   2.100   0.980   1.950 -1.9041 -1.6687 -2.7921
  329TIP3    H222623   2.156   0.890   2.059 -1.6377  2.3279  0.6223
  330TIP3   OH222624   1.647   0.832   0.015 -0.4422  0.4895  0.2726
  330TIP3    H122625   1.589   0.884  -0.041  2.2650  1.0255 -2.2905
  330TIP3    H222626   1.714   0.894   0.044  0.5744 -0.6965  0.5646
  331TIP3   OH222627   0.918   5.289   6.219  0.3325 -0.1551 -0.1658
  331TIP3    H122628   1.001   5.314   6.259  0.7816 -0.5319 -0.8319
  331TIP3    H222629   0.881   5.371   6.186 -1.1874  0.5740  2.9792
  332TIP3   OH222630   1.673   0.791   6.833 -0.0029 -0.3036  0.2618
  332TIP3    H122631   1.686   0.696   6.824  0.8752 -0.0995 -0.9801
  332TIP3    H222632   1.694   0.810   6.924  1.7809 -1.0503  0.0562
  333TIP3   OH222633   5.863   2.934   0.491 -0.3173  0.6711  0.6077
  333TIP3    H122634   5.848   2.951   0.398  1.0655 -1.0477  0.0218
  333TIP3    H222635   5.822   3.008   0.535 -1.1394  1.4624 -1.3496
  334TIP3   OH222636   0.941   0.463   6.975  0.0774 -0.4070  0.3382
  334TIP3    H122637   0.964   0.524   7.046  1.2293  1.6887 -1.7106
  334TIP3    H222638   1.010   0.396   6.979 -0.5684 -1.0552  1.8966
  335TIP3   OH222639   5.980   0.261   1.673  0.4873 -0.1899 -0.6720
  335TIP3    H122640   6.007   0.176   1.707  0.2148 -0.6226 -1.4965
  335TIP3    H222641   5.888   0.269   1.699 -0.2128 -1.2406 -2.5654
  336TIP3   OH222642   4.736   4.717   7.514  0.7094  0.3575 -0.2021
  336TIP3    H122643   4.711   4.644   7.458  0.4032  0.8163 -0.6736
  336TIP3    H222644   4.726   4.684   7.604  2.1916 -0.7316 -0.3887
  337TIP3   OH222645   2.947   4.676   1.829  0.2636  0.0580 -0.3055
  337TIP3    H122646   2.960   4.741   1.898  1.3219 -2.0867  1.6619
  337TIP3    H222647   2.860   4.641   1.846 -0.0261  0.4521 -0.9381
  338TIP3   OH222648   5.942   5.076   7.056 -0.1407  0.6008 -0.1267
  338TIP3    H122649   5.963   5.118   7.139 -0.7157  2.5596 -0.9143
  338TIP3    H222650   5.849   5.053   7.064  0.1199 -0.3877  0.2214
  339TIP3   OH222651   2.970   6.453   7.824  0.3082  0.7984 -0.0943
  339TIP3    H122652   2.971   6.393   7.898  0.1227  3.4778  2.2468
  339TIP3    H222653   2.975   6.396   7.747 -1.9573 -2.3025  1.8049
  340TIP3   OH222654   3.995   4.609   8.519  0.0104  0.2778  0.0343
  340TIP3    H122655   3.967   4.529   8.562 -1.0664  1.3817  1.4860
  340TIP3    H222656   3.989   4.589   8.425 -1.5712 -0.8983  0.3423
  341TIP3   OH222657   2.325   1.863   1.217 -0.1210  0.0836  0.4544
  341TIP3    H122658   2.281   1.948   1.207 -0.4027 -0.1938 -0.8518
  341TIP3    H222659   2.381   1.874   1.294  0.8113  1.8847 -0.4263
  342TIP3   OH222660   6.125   3.710   6.602 -0.1838  0.1826  0.4201
  342TIP3    H122661   6.217   3.713   6.578  0.0429  0.1242  1.2699
  342TIP3    H222662   6.079   3.693   6.519  0.6062 -0.3771  0.0883
  343TIP3   OH222663   4.087   2.198   0.431 -0.5199 -0.4784  0.0435
  343TIP3    H122664   4.038   2.140   0.489 -0.4341  0.8146  1.4683
  343TIP3    H222665   4.179   2.188   0.457 -0.5807  0.8535  0.8637
  344TIP3   OH222666   4.326   5.825   7.644 -0.5380  0.4280  0.2416
  344TIP3    H122667   4.242   5.866   7.624 -2.2408 -1.6264  2.4872
  344TIP3    H222668   4.307   5.769   7.720  2.9965  0.2300  1.1248
  345TIP3   OH222669   5.089   6.530   7.565 -0.3259  0.1991  0.2028
  345TIP3    H122670   5.095   6.571   7.479  2.0975 -2.5072 -1.0700
  345TIP3    H222671   4.995   6.515   7.578 -0.8072  1.2505 -1.6288
  346TIP3   OH222672   4.265   0.867   0.565  0.3640 -0.0781 -0.5715
  346TIP3    H122673   4.330   0.803   0.535  0.8717  0.0706  0.2017
  346TIP3    H222674   4.205   0.816   0.619 -0.1152 -0.1944 -1.1990
  347TIP3   OH222675   0.612   1.599   1.066  0.3068 -0.7365  0.1214
  347TIP3    H122676   0.594   1.599   0.972  0.5605 -1.1448  0.0706
  347TIP3    H222677   0.545   1.657   1.103  1.1619  0.7031 -0.4819
  348TIP3   OH222678   1.567   3.218   1.728 -0.1775  0.3143  0.0816
  348TIP3    H122679   1.503   3.286   1.751  1.0708  2.0350 -1.2465
  348TIP3    H222680   1.610   3.251   1.649  2.5690 -0.6052  1.0760
  349TIP3   OH222681   4.896   2.530   1.137  0.2080 -0.3171 -0.4176
  349TIP3    H122682   4.817   2.478   1.154 -0.7460  0.7904 -1.2377
  349TIP3    H222683   4.897   2.595   1.208 -0.5552  0.6842 -1.2866
  350TIP3   OH222684   1.080   5.303   0.117 -0.2301 -0.2206  0.3717
  350TIP3    H122685   1.091   5.278   0.026 -1.4765 -2.2817  0.7181
  350TIP3    H222686   1.038   5.389   0.114  0.3022  0.0106 -0.9644
  351TIP3   OH222687   6.447   5.989   7.613  0.3290 -0.1538  0.1232
  351TIP3    H122688   6.490   5.905   7.628  1.6969  0.2356 -1.3164
  351TIP3    H222689   6.512   6.054   7.638 -1.3774  0.6099  3.1120
  352TIP3   OH222690   4.603   5.864   0.420 -0.4029  0.2651  0.2077
  352TIP3    H122691   4.520   5.831   0.454 -0.6054  1.2049  0.6589
  352TIP3    H222692   4.648   5.787   0.387 -1.7408 -0.1676 -0.6623
  353TIP3   OH222693   5.197   6.532   0.079 -0.1252  0.9711 -0.2556
  353TIP3    H122694   5.272   6.579   0.044  1.1181  0.6988  1.9122
  353TIP3    H222695   5.174   6.579   0.159 -0.8840 -0.2200  0.2492
  354TIP3   OH222696   4.613   6.830   7.883 -0.3801  0.5081  0.1417
  354TIP3    H122697   4.540   6.886   7.857  0.0838  1.2496  0.4295
  354TIP3    H222698   4.571   6.750   7.914 -1.0785  0.9866  0.4574
  355TIP3   OH222699   0.986   2.964   8.398 -0.0790 -0.0638 -0.1707
  355TIP3    H122700   0.936   3.027   8.451  0.9212 -0.8354  1.8034
  355TIP3    H222701   0.925   2.892   8.382 -0.6158  0.5031 -0.7268
  356TIP3   OH222702   4.452   1.833   0.103 -0.3327  0.3702 -0.2410
  356TIP3    H122703   4.542   1.864   0.100 -0.5474  0.9196 -1.3133
  356TIP3    H222704   4.407   1.897   0.158 -0.3012  0.7390 -0.6352
  357TIP3   OH222705   0.777   5.836   7.012 -0.1899 -0.0016  0.1798
  357TIP3    H122706   0.790   5.785   6.932 -1.5855  1.4125 -1.0002
  357TIP3    H222707   0.858   5.823   7.061  0.4765 -1.3619 -1.1883
  358TIP3   OH222708   2.708   5.710   6.848  0.0053  0.2079  0.0763
  358TIP3    H122709   2.718   5.736   6.940 -1.3012 -1.0790  0.6315
  358TIP3    H222710   2.767   5.636   6.838  1.8068  1.6848 -0.7870
  359TIP3   OH222711   4.598   2.999   0.417  0.1913  0.6323  0.2270
  359TIP3    H122712   4.595   3.078   0.471  2.7703  0.2135  1.1140
  359TIP3    H222713   4.610   2.928   0.479 -2.4126 -0.5902 -0.5300
  360TIP3   OH222714   2.944   1.205   7.729  0.0343  0.3380 -0.0065
  360TIP3    H122715   2.886   1.145   7.681  0.2110 -0.3179  0.5755
  360TIP3    H222716   3.009   1.147   7.770  1.1494  1.0615 -0.7010
  361TIP3   OH222717   6.039   0.943   0.187 -0.3579  0.2749  0.2401
  361TIP3    H122718   6.018   1.036   0.179  0.0544  0.5259  1.7709
  361TIP3    H222719   5.975   0.899   0.132  0.6373  1.5585 -2.0741
  362TIP3   OH222720   1.670   3.239   8.202 -0.0871  0.3815  0.5294
  362TIP3    H122721   1.689   3.321   8.157 -1.6242  0.6055  0.2293
  362TIP3    H222722   1.593   3.203   8.156  0.5119 -1.2014  0.6870
  363TIP3   OH222723   3.248   3.607   0.892  0.0169  0.0349  0.4325
  363TIP3    H122724   3.245   3.594   0.797 -0.8664  2.1126  0.1113
  363TIP3    H222725   3.337   3.584   0.917  0.1862 -0.8056 -0.8463
  364TIP3   OH222726   6.402   2.851   0.990 -0.2837  0.5692  0.1753
  364TIP3    H122727   6.479   2.834   1.043 -0.5968  0.9601  0.7635
  364TIP3    H222728   6.370   2.936   1.020 -0.7628  0.5596 -0.2825
  365TIP3   OH222729   1.539   5.485   2.503 -0.0547 -0.4913  0.3917
  365TIP3    H122730   1.578   5.561   2.547 -1.0131  1.2518 -1.5817
  365TIP3    H222731   1.468   5.458   2.560  0.5220 -0.1320  1.3074
  366TIP3   OH222732   3.190   5.887   8.784  0.6067  0.6887  0.0949
  366TIP3    H122733   3.196   5.814   8.723 -0.3755  0.7152 -0.0593
  366TIP3    H222734   3.260   5.872   8.848 -0.7756 -1.4766  1.2028
  367TIP3   OH222735   6.107   1.660   6.709 -0.0040  0.2971  0.4648
  367TIP3    H122736   6.138   1.744   6.675  1.9563 -0.6616 -0.2788
  367TIP3    H222737   6.015   1.656   6.683  0.1325  1.7922 -0.3408
  368TIP3   OH222738   3.275   2.174   8.521  0.0900 -0.0621  0.3171
  368TIP3    H122739   3.208   2.209   8.463  0.8619  1.5063  0.3252
  368TIP3    H222740   3.307   2.096   8.476  0.4947  0.9782 -1.2893
  369TIP3   OH222741   2.871   0.008   1.129 -0.5571  0.0161 -0.3926
  369TIP3    H122742   2.782   0.037   1.148 -0.8421 -1.3181  0.4774
  369TIP3    H222743   2.923   0.041   1.202 -0.9780 -1.9719  0.8879
  370TIP3   OH222744   5.826   4.633   2.325  0.6610 -0.0648 -0.1740
  370TIP3    H122745   5.810   4.676   2.410 -0.7318 -1.2958  0.2403
  370TIP3    H222746   5.918   4.607   2.328  0.6526 -0.0220  0.9376
  371TIP3   OH222747   3.004   5.073   1.593  0.3724  0.0530 -0.1698
  371TIP3    H122748   2.919   5.031   1.581 -0.1312  1.4447 -1.8699
  371TIP3    H222749   3.049   5.018   1.656 -1.6994 -0.8484  0.6098
  372TIP3   OH222750   1.835   4.887   1.627  0.0441 -0.6541 -0.2881
  372TIP3    H122751   1.774   4.900   1.554  1.6084 -1.2340 -1.7594
  372TIP3    H222752   1.779   4.890   1.705 -1.3855  2.5616 -1.2513
  373TIP3   OH222753   4.140   4.326   6.793 -0.2415  0.0266  0.2488
  373TIP3    H122754   4.094   4.271   6.856  0.0376 -1.2962 -0.6571
  373TIP3    H222755   4.214   4.272   6.764  0.5243  1.2068 -0.0524
  374TIP3   OH222756   5.279   3.006   0.483  0.6172  0.0431 -0.1204
  374TIP3    H122757   5.341   2.960   0.427  0.7403 -0.6731  0.5799
  374TIP3    H222758   5.307   2.985   0.572  0.3819  1.0952  0.2159
  375TIP3   OH222759   2.769   2.846   8.171 -0.2422 -0.9477  0.0110
  375TIP3    H122760   2.749   2.904   8.097 -0.6635  0.1038  0.9310
  375TIP3    H222761   2.853   2.877   8.203 -0.2253 -1.1825  0.1940
  376TIP3   OH222762   5.519   1.690   7.338  0.2860 -0.0174 -0.1163
  376TIP3    H122763   5.428   1.681   7.309  0.4844  0.0655 -0.7658
  376TIP3    H222764   5.542   1.602   7.370  0.1146 -0.1501 -0.3517
  377TIP3   OH222765   2.974   1.631   1.858  0.9271  0.4310 -0.5045
  377TIP3    H122766   2.895   1.585   1.831  0.8688 -0.2522  0.7623
  377TIP3    H222767   2.997   1.592   1.943  1.7715  1.6577 -0.1464
  378TIP3   OH222768   1.825   6.218   8.109  0.2673 -0.4618  0.2853
  378TIP3    H122769   1.799   6.188   8.196  1.0800  1.2675  1.1620
  378TIP3    H222770   1.918   6.195   8.103  0.3333 -0.1326  0.0663
  379TIP3   OH222771   6.784   0.779   8.343 -0.3193 -0.1595  0.3776
  379TIP3    H122772   6.719   0.711   8.326 -0.3165  0.0702 -0.6498
  379TIP3    H222773   6.841   0.777   8.266  1.0237 -0.4892  1.3384
  380TIP3   OH222774   3.319   0.816   7.871  0.5664  0.1330  0.0825
  380TIP3    H122775   3.374   0.792   7.946  2.6422  0.9422 -1.1214
  380TIP3    H222776   3.381   0.835   7.801 -1.3248 -0.5546 -1.8562
  381TIP3   OH222777   6.180   2.020   8.264 -0.4242  0.5328  0.1170
  381TIP3    H122778   6.183   2.112   8.289  0.4703  0.5543 -0.0145
  381TIP3    H222779   6.154   2.020   8.172  1.0815  0.7736 -0.3436
  382TIP3   OH222780   4.440   3.244   2.764 -0.1095 -0.2479  0.0739
  382TIP3    H122781   4.492   3.175   2.806 -2.0979 -1.7691  0.1883
  382TIP3    H222782   4.464   3.239   2.672  0.7537 -0.1680  0.2852
  383TIP3   OH222783   4.458   2.011   8.189  0.0848  0.2746  0.1280
  383TIP3    H122784   4.548   2.042   8.181  0.1629  0.3706  1.2127
  383TIP3    H222785   4.461   1.919   8.163  0.4189  0.3741 -0.1907
  384TIP3   OH222786   1.863   0.744   0.465 -0.2836 -0.7075 -0.4361
  384TIP3    H122787   1.843   0.654   0.489  0.1096 -0.3947  1.2026
  384TIP3    H222788   1.786   0.794   0.492 -0.1907 -0.4453 -0.6515
  385TIP3   OH222789   3.764   6.147   1.608  0.4875  0.4020  0.1475
  385TIP3    H122790   3.801   6.209   1.671  1.4552 -0.6475  0.6652
  385TIP3    H222791   3.774   6.062   1.651 -0.4101 -0.1553 -0.7226
  386TIP3   OH222792   6.320   0.406   0.208  0.1567  0.0696 -0.1288
  386TIP3    H122793   6.364   0.457   0.141 -1.8183 -0.2834 -1.7905
  386TIP3    H222794   6.280   0.471   0.266  0.7555  0.3682 -0.0403
  387TIP3   OH222795   0.628   6.765   0.996  0.6208  0.0582  0.1932
  387TIP3    H122796   0.576   6.762   1.077  0.4421 -0.1669  0.0722
  387TIP3    H222797   0.589   6.697   0.941  0.6906  0.2701 -0.1145
  388TIP3   OH222798   5.340   4.626   6.901  0.3110  0.5333  0.1736
  388TIP3    H122799   5.378   4.557   6.846 -1.4192 -0.1122 -0.2664
  388TIP3    H222800   5.346   4.705   6.849  2.2450  0.7577  0.6488
  389TIP3   OH222801   6.024   4.625   6.803 -0.0386  0.1889  0.0413
  389TIP3    H122802   6.006   4.678   6.726 -0.2863  1.4184  0.9175
  389TIP3    H222803   6.120   4.618   6.806 -0.0005  0.7044  0.0012
  390TIP3   OH222804   3.140   2.472   1.294 -0.1544 -0.0830  0.4330
  390TIP3    H122805   3.203   2.517   1.237 -0.2113  1.2242  1.3464
  390TIP3    H222806   3.058   2.518   1.280 -0.4615 -0.5533  0.6495
  391TIP3   OH222807   0.148   4.214   7.636  0.5207 -0.2916  0.6292
  391TIP3    H122808   0.071   4.248   7.592 -0.9421 -2.0362  1.7053
  391TIP3    H222809   0.179   4.286   7.691  0.1267  0.6558 -0.3605
  392TIP3   OH222810   0.747   5.156   7.173  0.4502 -0.5410 -0.0549
  392TIP3    H122811   0.659   5.190   7.153  0.4546 -0.1921  0.4943
  392TIP3    H222812   0.778   5.120   7.090 -0.1979 -0.6310 -0.2658
  393TIP3   OH222813   4.975   0.496   0.388  0.2839 -0.2267  0.8460
  393TIP3    H122814   4.916   0.429   0.353  0.0609 -0.7219  2.0859
  393TIP3    H222815   4.916   0.564   0.422  0.5086  0.5972 -0.3562
  394TIP3   OH222816   2.725   4.373   0.943 -0.5358  0.5426 -0.6732
  394TIP3    H122817   2.777   4.333   1.013 -1.3617  0.9137  0.1713
  394TIP3    H222818   2.758   4.462   0.936 -1.7534  1.1290  0.6245
  395TIP3   OH222819   4.711   2.726   8.791  0.3962 -0.0905  0.4980
  395TIP3    H122820   4.798   2.757   8.816 -0.7222  0.9293  3.4679
  395TIP3    H222821   4.696   2.649   8.845 -0.8200  0.1384  0.5058
  396TIP3   OH222822   1.474   6.693   8.482 -0.2862 -0.2696  0.0035
  396TIP3    H122823   1.473   6.745   8.402 -2.3891  1.2776  0.9669
  396TIP3    H222824   1.547   6.729   8.533  0.9250 -1.1228 -1.0769
  397TIP3   OH222825   6.471   5.250   8.638 -0.1116  0.1452 -0.3962
  397TIP3    H122826   6.531   5.225   8.709 -0.1619  0.2138 -0.3302
  397TIP3    H222827   6.465   5.171   8.584  1.5771  0.7117 -1.5141
  398TIP3   OH222828   6.353   4.432   7.087  0.0554  0.2982  0.3660
  398TIP3    H122829   6.341   4.443   7.181  2.1463  0.5376  0.6665
  398TIP3    H222830   6.272   4.393   7.056  0.0367 -1.6501  2.6132
  399TIP3   OH222831   5.536   2.888   0.364  0.0567 -0.7164  0.3008
  399TIP3    H122832   5.562   2.876   0.455 -0.0201 -2.3674  0.1294
  399TIP3    H222833   5.619   2.904   0.318 -0.0397  1.6238  0.8383
  400TIP3   OH222834   3.901   4.407   0.944 -0.2268 -0.5769 -0.1265
  400TIP3    H122835   3.923   4.333   0.887 -3.3533 -0.5336 -1.5566
  400TIP3    H222836   3.879   4.478   0.884  0.5346  0.8634  1.2224
  401TIP3   OH222837   1.776   3.018   0.474 -0.0467 -0.4196  0.2570
  401TIP3    H122838   1.708   2.952   0.486  0.2960 -0.7795  0.2195
  401TIP3    H222839   1.820   2.994   0.392 -0.6680  0.5233 -0.3660
  402TIP3   OH222840   2.934   1.894   1.195 -0.4567  0.6592  0.0603
  402TIP3    H122841   2.892   1.888   1.281 -0.0025  1.2785  0.3337
  402TIP3    H222842   3.009   1.952   1.209 -0.3813  0.7706 -0.7596
  403TIP3   OH222843   5.892   1.181   1.146 -0.0463 -0.2640  0.3310
  403TIP3    H122844   5.954   1.122   1.103 -0.2730 -0.9859  0.9688
  403TIP3    H222845   5.809   1.168   1.098 -0.0830 -0.4229  0.4385
  404TIP3   OH222846   4.575   3.355   2.252  0.5951 -0.0464  0.2827
  404TIP3    H122847   4.526   3.364   2.170  0.4781 -1.0152  0.2384
  404TIP3    H222848   4.646   3.295   2.232  1.4432  0.8333  0.5243
  405TIP3   OH222849   2.583   6.650   7.754  0.4207 -0.0195 -0.2429
  405TIP3    H122850   2.521   6.691   7.693  0.9984 -1.5091 -1.9092
  405TIP3    H222851   2.665   6.644   7.704  0.8087 -1.6427  0.5334
  406TIP3   OH222852   4.569   2.563   6.089 -0.1982  0.1038 -1.3804
  406TIP3    H122853   4.542   2.627   6.024 -0.3789  0.2910 -1.1216
  406TIP3    H222854   4.529   2.593   6.171  1.9926  1.2100 -0.6634
  407TIP3   OH222855   1.149   4.275   8.289 -0.2312  0.2290 -0.1060
  407TIP3    H122856   1.061   4.302   8.262 -0.9569 -2.2377 -0.4432
  407TIP3    H222857   1.144   4.269   8.384  0.2478  2.1483  0.0733
  408TIP3   OH222858   1.261   1.204   2.244  0.7621  0.0048 -0.1120
  408TIP3    H122859   1.345   1.200   2.289  1.5634  0.4128 -1.5041
  408TIP3    H222860   1.201   1.155   2.300  2.9587 -4.6686 -1.3274
  409TIP3   OH222861   5.950   3.766   0.801 -0.2507  0.2243 -0.4087
  409TIP3    H122862   5.931   3.787   0.893 -0.8848  1.8479 -0.8797
  409TIP3    H222863   5.870   3.790   0.754  1.0240  2.1336 -1.7465
  410TIP3   OH222864   0.454   3.867   1.637  0.5076  0.1990  0.1753
  410TIP3    H122865   0.533   3.920   1.647  1.1871 -0.3876 -1.6573
  410TIP3    H222866   0.382   3.928   1.654  1.3295  0.6621  2.2056
  411TIP3   OH222867   5.281   6.280   8.774 -0.7677 -0.5985  0.1699
  411TIP3    H122868   5.296   6.242   8.860  1.6715  0.1129  0.1343
  411TIP3    H222869   5.253   6.369   8.792 -0.5305 -0.5387  0.2567
  412TIP3   OH222870   3.146   6.854   7.098  0.1581 -0.5390  0.6057
  412TIP3    H122871   3.116   6.872   7.009  0.3485  0.6011  0.7564
  412TIP3    H222872   3.234   6.892   7.102  0.0819 -0.4124  1.3230
  413TIP3   OH222873   1.141   2.103   8.188 -0.2848 -0.8374 -0.1456
  413TIP3    H122874   1.099   2.022   8.161 -0.9046 -0.3253 -0.7314
  413TIP3    H222875   1.117   2.114   8.280 -0.8836 -0.8919 -0.2965
  414TIP3   OH222876   5.622   4.895   0.832  0.4425 -0.2575 -0.1020
  414TIP3    H122877   5.706   4.941   0.837  0.0385  0.6024 -0.8553
  414TIP3    H222878   5.571   4.946   0.769 -0.2555 -1.3991 -0.4935
  415TIP3   OH222879   1.895   3.705   1.262  0.5682 -0.1034  0.0396
  415TIP3    H122880   1.931   3.792   1.281  1.3922 -0.3340 -0.4267
  415TIP3    H222881   1.954   3.644   1.306  1.0629 -0.5105 -1.1431
  416TIP3   OH222882   0.198   2.598   1.464 -0.0376 -0.1040  0.4518
  416TIP3    H122883   0.272   2.655   1.442 -0.9757  0.9138 -0.1869
  416TIP3    H222884   0.124   2.658   1.470 -1.1067 -1.2995 -0.4454
  417TIP3   OH222885   5.021   0.047   0.375 -0.7310 -0.4328  0.3659
  417TIP3    H122886   5.027   0.084   0.286  0.2542 -0.9356  0.2044
  417TIP3    H222887   4.929   0.053   0.398 -0.9249  0.1285 -0.5169
  418TIP3   OH222888   6.094   5.670   0.452  0.1203 -0.2492 -0.4961
  418TIP3    H122889   6.146   5.708   0.381 -0.7963  0.3523 -0.8780
  418TIP3    H222890   6.011   5.647   0.410 -0.5778  0.4667  0.4541
  419TIP3   OH222891   4.885   1.303   0.937 -0.1488  0.2771 -0.4542
  419TIP3    H122892   4.857   1.212   0.934 -1.0991  0.5455 -0.0958
  419TIP3    H222893   4.963   1.306   0.882  0.7703 -1.0418  0.7035
  420TIP3   OH222894   1.802   3.426   8.012  1.0271  0.3966 -0.0714
  420TIP3    H122895   1.828   3.463   8.096  1.7981 -0.7642  0.2120
  420TIP3    H222896   1.880   3.431   7.958  1.3628 -1.4565  0.2072
  421TIP3   OH222897   6.708   6.785   7.307 -0.4622 -0.7459 -0.6234
  421TIP3    H122898   6.729   6.720   7.240 -1.1386 -1.0353 -0.5605
  421TIP3    H222899   6.629   6.828   7.274 -0.3799 -0.3903 -0.3605
  422TIP3   OH222900   1.717   5.649   8.074 -0.3925 -0.1059  0.0486
  422TIP3    H122901   1.740   5.640   8.167 -0.0295  0.1974 -0.0087
  422TIP3    H222902   1.630   5.610   8.067 -0.5587  0.1566  0.5838
  423TIP3   OH222903   5.747   2.614   8.312 -0.3198 -0.1687  0.1652
  423TIP3    H122904   5.719   2.701   8.286  0.8212  0.0154 -0.5142
  423TIP3    H222905   5.674   2.557   8.289 -1.0485  0.5883  0.5561
  424TIP3   OH222906   5.018   2.729   6.021 -0.1052 -0.9594 -0.3604
  424TIP3    H122907   5.077   2.688   5.958 -1.6547 -0.6687 -2.0843
  424TIP3    H222908   4.958   2.660   6.048 -0.6452 -0.6194 -0.6871
  425TIP3   OH222909   1.916   0.565   2.136 -0.0728  0.1737  0.3782
  425TIP3    H122910   1.842   0.555   2.196 -1.2381 -0.6920 -1.1222
  425TIP3    H222911   1.975   0.493   2.160 -0.2490  0.1766  0.8450
  426TIP3   OH222912   5.970   4.758   1.891  0.1274  0.0030  0.4692
  426TIP3    H122913   5.983   4.852   1.882 -1.1452  0.2760  1.1542
  426TIP3    H222914   6.027   4.732   1.964  0.8238  0.1459 -0.0171
  427TIP3   OH222915   3.719   3.683   1.131  0.2113  0.4799  0.0493
  427TIP3    H122916   3.668   3.607   1.160 -2.0823  0.7659 -2.6961
  427TIP3    H222917   3.807   3.649   1.115 -0.5416 -1.4242 -0.2803
  428TIP3   OH222918   6.627   2.686   1.914 -0.0934  0.0977  0.3105
  428TIP3    H122919   6.709   2.702   1.868 -1.2064 -0.0864 -1.8963
  428TIP3    H222920   6.566   2.749   1.877 -1.2903 -0.6725  0.8856
  429TIP3   OH222921   4.442   0.383   8.041 -0.5476 -0.0006 -0.3038
  429TIP3    H122922   4.403   0.439   8.109 -0.3789 -0.7478  0.4159
  429TIP3    H222923   4.530   0.419   8.028 -0.9099  0.7378 -0.8331
  430TIP3   OH222924   1.844   0.348   8.505  0.7218 -0.1103 -0.1671
  430TIP3    H122925   1.881   0.387   8.585  0.9263  1.7967 -1.1210
  430TIP3    H222926   1.884   0.399   8.434  0.1619 -1.4312 -1.4672
  431TIP3   OH222927   1.185   2.011   7.875 -0.0562  0.3076  0.3519
  431TIP3    H122928   1.255   1.964   7.920  0.4448  0.4694 -0.2435
  431TIP3    H222929   1.114   2.016   7.939 -0.4233 -1.9311  0.2105
  432TIP3   OH222930   2.045   4.174   1.531 -0.5696 -0.0250 -0.1953
  432TIP3    H122931   2.088   4.255   1.503  0.0805 -0.2501  0.1237
  432TIP3    H222932   2.072   4.163   1.622  1.6231 -1.9995 -0.9747
  433TIP3   OH222933   3.833   4.248   1.837  0.1408  0.8257 -0.4528
  433TIP3    H122934   3.874   4.216   1.918  1.4947  0.9239 -1.0664
  433TIP3    H222935   3.751   4.288   1.866  0.3703  0.4326  0.8129
  434TIP3   OH222936   3.121   5.967   0.839 -0.7334 -0.7760 -0.6113
  434TIP3    H122937   3.053   6.017   0.885 -1.0662 -0.3409 -1.5428
  434TIP3    H222938   3.197   5.972   0.897 -0.8218  0.6616 -0.5728
  435TIP3   OH222939   2.101   0.767   0.766  0.6074 -0.0635 -0.3343
  435TIP3    H122940   2.049   0.688   0.782 -0.6614  0.8334  0.0570
  435TIP3    H222941   2.166   0.739   0.702  1.5088 -1.9715  1.2861
  436TIP3   OH222942   2.312   5.064   8.283 -0.2183 -0.2919  0.2929
  436TIP3    H122943   2.248   5.001   8.317  0.2704 -0.4843  0.8816
  436TIP3    H222944   2.264   5.147   8.280 -0.3350 -0.3029  1.3155
  437TIP3   OH222945   0.704   2.944   6.849 -0.1173  0.6653 -0.5650
  437TIP3    H122946   0.641   2.983   6.789  0.9650  2.0520 -0.8460
  437TIP3    H222947   0.703   3.001   6.926 -0.1360 -0.0327 -0.0333
  438TIP3   OH222948   2.047   4.098   2.431  0.6052  0.0122  0.4148
  438TIP3    H122949   2.033   4.054   2.515 -0.4373 -1.2748 -0.3876
  438TIP3    H222950   1.959   4.123   2.403  0.9979  0.8832 -0.0745
  439TIP3   OH222951   5.399   1.238   0.153  0.0976  0.2521 -0.6943
  439TIP3    H122952   5.329   1.198   0.101 -0.7436 -0.6650  1.0910
  439TIP3    H222953   5.403   1.186   0.233  0.8723  2.0635  0.4952
  440TIP3   OH222954   4.169   4.471   0.785 -0.2910  0.1533 -0.2817
  440TIP3    H122955   4.124   4.536   0.731  2.7801  1.7099 -1.1832
  440TIP3    H222956   4.131   4.387   0.757  0.1674  1.0042 -3.9923
  441TIP3   OH222957   2.114   3.420   6.794 -0.1473  0.3633  0.4989
  441TIP3    H122958   2.174   3.375   6.854  0.3007  0.0593 -0.1734
  441TIP3    H222959   2.096   3.503   6.838 -1.9237 -0.8835  2.3419
  442TIP3   OH222960   1.687   2.513   7.731  0.6238 -0.6888  0.1360
  442TIP3    H122961   1.719   2.568   7.803  0.4500 -0.7556  0.2641
  442TIP3    H222962   1.766   2.474   7.695  0.7692 -0.1829 -0.0958
  443TIP3   OH222963   4.860   2.639   7.659 -0.5597  0.3801 -0.6623
  443TIP3    H122964   4.863   2.554   7.615  1.0357  0.3573 -0.5644
  443TIP3    H222965   4.841   2.701   7.589  0.3586  0.1674 -1.1103
  444TIP3   OH222966   1.712   3.661   6.417 -0.4220  0.3049 -0.1228
  444TIP3    H122967   1.782   3.659   6.481 -1.3264 -3.6128  1.0327
  444TIP3    H222968   1.632   3.666   6.469 -1.2118  3.7467 -1.3746
  445TIP3   OH222969   1.507   3.920   6.697  0.1134 -0.1177  0.2973
  445TIP3    H122970   1.586   3.894   6.744 -0.1851  0.2093  0.9885
  445TIP3    H222971   1.486   3.843   6.644  2.5680  0.7927 -2.2519
  446TIP3   OH222972   6.489   5.981   1.787  0.1648  0.3143 -0.8484
  446TIP3    H122973   6.503   5.934   1.869  0.1604 -0.3806 -1.2410
  446TIP3    H222974   6.433   6.055   1.811  0.2096  0.1493 -0.2204
  447TIP3   OH222975   0.271   5.652   2.151  0.3744 -0.0258  0.6896
  447TIP3    H122976   0.333   5.618   2.086 -1.0422 -1.4244  0.0220
  447TIP3    H222977   0.206   5.700   2.099 -0.8708 -1.3079  0.9928
  448TIP3   OH222978   3.947   2.072   7.410 -0.1502 -0.8473 -0.5149
  448TIP3    H122979   4.015   2.036   7.467 -0.5475  0.1478  0.6256
  448TIP3    H222980   3.867   2.065   7.460 -0.4513  0.3890 -0.7854
  449TIP3   OH222981   2.641   0.398   2.216 -0.0855 -0.8096 -0.1094
  449TIP3    H122982   2.697   0.429   2.144 -0.2341  1.1577  0.5763
  449TIP3    H222983   2.694   0.413   2.295  0.0349 -2.8527  0.2489
  450TIP3   OH222984   2.487   1.165   8.274  0.1391 -0.7918 -0.1240
  450TIP3    H122985   2.471   1.070   8.271 -0.4249 -0.6718 -1.1350
  450TIP3    H222986   2.427   1.202   8.210  1.0903  0.1642 -0.4909
  451TIP3   OH222987   6.438   0.230   7.784  0.2486 -0.1195 -0.0172
  451TIP3    H122988   6.467   0.139   7.795  0.2522 -0.7125 -3.6740
  451TIP3    H222989   6.343   0.226   7.796  0.5152 -0.0218  2.4856
  452TIP3   OH222990   2.710   5.956   8.222 -0.2927 -0.4055  0.4654
  452TIP3    H122991   2.794   5.912   8.238  0.0824  0.1399  0.0401
  452TIP3    H222992   2.659   5.893   8.171  1.2238  0.5845 -2.4922
  453TIP3   OH222993   5.748   4.200   6.619 -0.2312  0.2050  0.0933
  453TIP3    H122994   5.657   4.229   6.625 -0.1818  0.3359  0.2085
  453TIP3    H222995   5.743   4.116   6.574 -0.2738  0.8390 -1.1143
  454TIP3   OH222996   6.798   1.698   8.061  0.0416 -0.1838 -0.7500
  454TIP3    H122997   6.715   1.650   8.059 -0.2975  0.4137 -1.7449
  454TIP3    H222998   6.847   1.665   7.986  0.1490  0.4141 -0.9479
  455TIP3   OH222999   0.801   6.075   8.212 -0.5509  0.3698  0.0317
  455TIP3    H123000   0.883   6.044   8.174 -0.4816  0.8280 -0.2008
  455TIP3    H223001   0.814   6.068   8.307  0.6251  2.5559  0.0849
  456TIP3   OH223002   3.209   1.111   0.586 -0.1179 -0.2284 -0.4736
  456TIP3    H123003   3.122   1.126   0.551 -0.8056  0.0136  1.2460
  456TIP3    H223004   3.196   1.049   0.658  1.1951 -0.5381 -0.4635
  457TIP3   OH223005   4.559   2.619   0.812 -0.1742 -0.2969  0.5692
  457TIP3    H123006   4.642   2.573   0.824  0.4871  0.9077  0.6956
  457TIP3    H223007   4.544   2.664   0.895 -0.2326  0.6207  0.0759
  458TIP3   OH223008   4.119   4.088   7.554 -0.4547  0.0978 -0.5126
  458TIP3    H123009   4.193   4.041   7.514 -2.5248 -2.2900 -1.8042
  458TIP3    H223010   4.081   4.026   7.616 -0.4922  1.8807  1.3813
  459TIP3   OH223011   5.284   3.577   1.719 -0.2471  0.2966  0.9572
  459TIP3    H123012   5.244   3.636   1.784  1.4776 -0.7483  3.1233
  459TIP3    H223013   5.344   3.633   1.670  0.3915  0.6722  2.1065
  460TIP3   OH223014   3.399   4.667   1.120 -0.0330 -0.9581 -0.0588
  460TIP3    H123015   3.360   4.618   1.048 -2.3392 -0.8173  1.0020
  460TIP3    H223016   3.326   4.717   1.158  1.6840  1.2524  0.5574
  461TIP3   OH223017   0.563   1.690   7.970 -0.1309 -0.2892 -0.2071
  461TIP3    H123018   0.609   1.708   7.888 -0.3331 -0.3310 -0.3308
  461TIP3    H223019   0.578   1.597   7.986 -0.0042 -0.2576 -0.1418
  462TIP3   OH223020   1.714   3.222   0.706  0.5314 -0.1491 -0.1967
  462TIP3    H123021   1.711   3.219   0.801  0.4001  0.9914 -0.1551
  462TIP3    H223022   1.671   3.141   0.678 -0.2950 -0.0289  0.6979
  463TIP3   OH223023   6.142   5.973   0.208  0.2259 -0.6394 -0.2998
  463TIP3    H123024   6.056   5.933   0.196  0.0797 -0.9389  1.4974
  463TIP3    H223025   6.139   6.012   0.295  1.2953  0.9819 -0.9332
  464TIP3   OH223026   6.479   1.262   8.061 -0.4701 -0.0584  0.0923
  464TIP3    H123027   6.496   1.354   8.081  0.4715 -0.3676  0.8260
  464TIP3    H223028   6.543   1.240   7.993 -1.6768  0.1984 -1.1630
  465TIP3   OH223029   4.346   1.125   1.467 -0.4831  0.1126 -0.3820
  465TIP3    H123030   4.376   1.086   1.384 -0.8997  0.1828 -0.5675
  465TIP3    H223031   4.271   1.179   1.442 -0.2425  0.6087 -0.0433
  466TIP3   OH223032   6.807   5.572   0.687 -0.6937  0.6520 -0.2428
  466TIP3    H123033   6.772   5.617   0.610  0.4417  0.4075 -0.9254
  466TIP3    H223034   6.860   5.501   0.651 -0.3650  0.3714  0.7701
  467TIP3   OH223035   0.382   0.064   8.161  0.4875 -0.4098 -0.4117
  467TIP3    H123036   0.447   0.099   8.222 -0.7654 -0.9507  1.3080
  467TIP3    H223037   0.298   0.099   8.192 -0.3099 -1.6056 -1.1331
  468TIP3   OH223038   0.252   1.820   0.306  0.3782  0.4641  0.5281
  468TIP3    H123039   0.262   1.913   0.322  0.2547  0.4432  0.7283
  468TIP3    H223040   0.213   1.815   0.218 -2.3692  0.7164  1.6467
  469TIP3   OH223041   5.005   0.540   8.421  0.2122  0.1213  0.4704
  469TIP3    H123042   4.948   0.616   8.414 -1.4599 -1.0997  0.3612
  469TIP3    H223043   4.977   0.482   8.350 -0.4260 -1.7774  2.1765
  470TIP3   OH223044   4.997   1.347   0.515 -0.2194 -0.2873  0.5086
  470TIP3    H123045   5.050   1.355   0.594 -0.1717 -2.0612  0.6921
  470TIP3    H223046   4.954   1.433   0.506  0.0099  0.0519  2.2788
  471TIP3   OH223047   6.406   0.741   7.690 -0.1802 -0.5269  0.2310
  471TIP3    H123048   6.428   0.728   7.782 -0.7305 -1.7968  0.1984
  471TIP3    H223049   6.331   0.801   7.691 -0.7887 -1.2685  0.6835
  472TIP3   OH223050   4.722   5.076   7.067 -0.5192 -0.3673  0.4121
  472TIP3    H123051   4.627   5.079   7.064 -0.6759 -2.3628  1.7254
  472TIP3    H223052   4.747   5.151   7.121 -1.0123  2.3278 -2.7553
  473TIP3   OH223053   5.983   4.250   1.692 -0.2276 -0.4178  0.0349
  473TIP3    H123054   5.941   4.335   1.685 -0.5916 -0.5928  0.0451
  473TIP3    H223055   6.029   4.252   1.776  2.3502  0.8957 -1.3059
  474TIP3   OH223056   3.328   1.358   2.148 -0.1259 -0.1909 -0.1099
  474TIP3    H123057   3.325   1.420   2.220  1.6696 -0.6684  0.4376
  474TIP3    H223058   3.406   1.382   2.098 -0.6994 -0.5817 -1.2348
  475TIP3   OH223059   0.478   1.713   0.849 -0.3462 -0.1710  0.7490
  475TIP3    H123060   0.481   1.775   0.776 -3.1834  0.0875  0.7244
  475TIP3    H223061   0.422   1.642   0.817 -0.7437 -0.5917  2.2883
  476TIP3   OH223062   5.817   6.634   7.816  0.2118 -0.1381 -0.5346
  476TIP3    H123063   5.872   6.580   7.873  1.4209  2.0473  0.4729
  476TIP3    H223064   5.742   6.658   7.871 -0.4809 -1.0074 -1.0795
  477TIP3   OH223065   1.129   0.013   8.640 -0.4399  0.1468  0.0725
  477TIP3    H123066   1.212   0.035   8.598  0.3583  0.9057  1.9402
  477TIP3    H223067   1.076  -0.023   8.569  0.7131  1.5958 -1.6319
  478TIP3   OH223068   0.667   0.091   0.270 -0.9193 -0.0047  0.1240
  478TIP3    H123069   0.744   0.117   0.320 -1.3631 -0.2978  0.9751
  478TIP3    H223070   0.655   0.161   0.206  0.5861 -0.3901 -0.6328
  479TIP3   OH223071   3.019   2.497   7.335  0.2550  0.3023 -0.0472
  479TIP3    H123072   3.099   2.549   7.341 -1.3907  2.9295  0.5430
  479TIP3    H223073   2.981   2.501   7.422 -2.0288  1.7953 -1.0190
  480TIP3   OH223074   3.165   3.227   1.491  0.1808  0.2125  0.2664
  480TIP3    H123075   3.207   3.308   1.520 -0.4831  1.6397 -2.3727
  480TIP3    H223076   3.234   3.178   1.447 -0.1074  0.9239 -1.0142
  481TIP3   OH223077   5.291   5.590   1.886  0.0077 -1.0144  0.2394
  481TIP3    H123078   5.242   5.669   1.907  0.2079 -0.6955 -0.4590
  481TIP3    H223079   5.269   5.571   1.795  2.6882  0.3180 -0.8173
  482TIP3   OH223080   1.795   1.534   1.090  0.1418 -0.3268 -0.2407
  482TIP3    H123081   1.765   1.483   1.165 -1.4121  0.7929 -0.0409
  482TIP3    H223082   1.829   1.615   1.129 -0.3302  0.1042 -0.7191
  483TIP3   OH223083   4.641   4.628   1.204  0.2521 -0.6531 -0.5321
  483TIP3    H123084   4.629   4.722   1.217 -0.8762 -0.7484 -0.7306
  483TIP3    H223085   4.585   4.588   1.271  0.7285 -1.1852 -0.4482
  484TIP3   OH223086   4.069   0.019   7.878 -0.5294  0.1561 -0.3389
  484TIP3    H123087   4.076   0.026   7.973 -0.4203 -1.2444 -0.2253
  484TIP3    H223088   4.028  -0.067   7.863 -0.2241  0.2008 -1.5625
  485TIP3   OH223089   0.672   2.452   0.415 -0.6877 -0.2679 -0.7268
  485TIP3    H123090   0.751   2.462   0.362 -0.5005 -0.0432 -0.4164
  485TIP3    H223091   0.705   2.454   0.506 -1.0804  0.1346 -0.5881
  486TIP3   OH223092   1.494   5.463   0.188  0.0330 -0.1115 -0.0384
  486TIP3    H123093   1.433   5.394   0.216  0.4413 -0.6182 -0.3865
  486TIP3    H223094   1.493   5.525   0.261  0.4944 -1.0270  0.7794
  487TIP3   OH223095   1.514   3.471   0.596 -0.2873  0.4748  0.2614
  487TIP3    H123096   1.586   3.442   0.653 -1.7660 -0.4799  1.7141
  487TIP3    H223097   1.548   3.459   0.507  1.2375 -0.2545  0.9068
  488TIP3   OH223098   4.209   5.305   7.009 -0.3674  0.2324 -0.5837
  488TIP3    H123099   4.162   5.226   7.036 -2.5820  1.4683 -0.5874
  488TIP3    H223100   4.203   5.305   6.914  2.7723 -1.3620 -0.8911
  489TIP3   OH223101   3.235   4.177   1.630  0.2223 -0.1461  0.2372
  489TIP3    H123102   3.287   4.154   1.707  0.0445 -1.4563 -0.0176
  489TIP3    H223103   3.170   4.108   1.623 -0.7259  0.7616 -0.2298
  490TIP3   OH223104   1.562   4.099   0.201 -0.4058 -0.3305  0.6540
  490TIP3    H123105   1.570   4.188   0.236 -0.7471 -0.3540  0.7945
  490TIP3    H223106   1.610   4.101   0.118  0.5326 -0.3121  1.1855
  491TIP3   OH223107   1.469   1.953   7.802 -0.6127 -0.0429  0.1270
  491TIP3    H123108   1.500   1.923   7.888 -2.2249  0.4525  0.9223
  491TIP3    H223109   1.547   1.987   7.759 -0.0431  1.3198  2.1013
  492TIP3   OH223110   2.282   2.883   7.056  0.0921  0.2725 -0.2734
  492TIP3    H123111   2.213   2.905   6.994  0.8029 -1.1633 -1.6289
  492TIP3    H223112   2.270   2.790   7.073  0.9985  0.2647  0.3618
  493TIP3   OH223113   1.481   4.988   7.920 -0.0539  0.7918  0.5344
  493TIP3    H123114   1.468   4.920   7.854 -1.5772  0.4364  1.1574
  493TIP3    H223115   1.506   5.066   7.869  1.6771 -0.1719 -0.1857
  494TIP3   OH223116   5.648   6.774   6.912  0.0279  0.0211 -0.4104
  494TIP3    H123117   5.592   6.852   6.912  0.0119  0.0457  1.1764
  494TIP3    H223118   5.736   6.808   6.898 -0.0115  0.3093  0.0179
  495TIP3   OH223119   0.797   4.775   8.050 -0.9155 -0.3368  0.4028
  495TIP3    H123120   0.823   4.847   8.108 -0.1874  0.1786 -0.5110
  495TIP3    H223121   0.792   4.698   8.106  2.3778 -0.4248  0.7718
  496TIP3   OH223122   3.358   2.892   8.806 -0.7698  0.8339  0.1107
  496TIP3    H123123   3.380   2.978   8.842  1.6069  0.2466  0.1790
  496TIP3    H223124   3.361   2.905   8.711 -3.2290  1.4331  0.0249
  497TIP3   OH223125   3.668   0.910   1.068 -0.0461 -0.0939  0.0460
  497TIP3    H123126   3.663   0.817   1.088 -0.1478 -0.0368  0.2800
  497TIP3    H223127   3.578   0.941   1.070  0.0800  0.2510  1.1088
  498TIP3   OH223128   0.060   0.071   0.830 -0.5304  0.0827 -0.0926
  498TIP3    H123129   0.053  -0.014   0.787 -2.1902  1.9023 -3.9465
  498TIP3    H223130   0.148   0.102   0.805  0.0471 -0.3923  1.2526
  499TIP3   OH223131   5.076   0.424   7.536 -0.4711  0.6293 -0.2779
  499TIP3    H123132   5.026   0.374   7.600 -0.2225 -0.5224 -0.9502
  499TIP3    H223133   5.132   0.482   7.588  0.5105 -1.0407  0.5802
  500TIP3   OH223134   5.337   5.436   8.062  0.7103  0.1943  0.7379
  500TIP3    H123135   5.297   5.435   7.975 -0.1360  3.3264  0.9874
  500TIP3    H223136   5.274   5.391   8.118  0.7400 -0.8439 -0.0310
  501TIP3   OH223137   2.100   5.428   1.242 -0.6828  0.3524 -0.0977
  501TIP3    H123138   2.073   5.501   1.297  0.2106  2.0756 -1.8436
  501TIP3    H223139   2.194   5.417   1.260 -0.9181 -0.8121  0.5790
  502TIP3   OH223140   3.074   4.957   6.193  0.1594 -0.1177  0.2019
  502TIP3    H123141   3.094   5.028   6.132  0.6863 -0.2871  0.1713
  502TIP3    H223142   3.114   4.985   6.275  0.6017 -0.4996  0.1186
  503TIP3   OH223143   1.230   4.623   0.208  0.5666  0.1521  0.0653
  503TIP3    H123144   1.205   4.590   0.123  0.1100 -0.2628  0.3572
  503TIP3    H223145   1.148   4.636   0.255  0.7397  1.3909  0.0817
  504TIP3   OH223146   5.410   1.599   8.734  0.1487  0.0763  0.1744
  504TIP3    H123147   5.361   1.561   8.807  0.3732 -1.3549 -0.3902
  504TIP3    H223148   5.431   1.525   8.678 -0.2262  1.1814 -1.4951
  505TIP3   OH223149   6.098   3.931   6.765 -0.1570 -0.0743 -0.4785
  505TIP3    H123150   6.118   3.857   6.708  0.5309  0.2167 -0.6269
  505TIP3    H223151   6.168   3.994   6.748 -0.1101  0.1433  0.4668
  506TIP3   OH223152   6.024   5.638   0.096 -0.1714 -0.1679 -0.1347
  506TIP3    H123153   6.003   5.629   0.003 -1.3738 -3.2371  0.3019
  506TIP3    H223154   5.942   5.667   0.136  0.0620  0.1640  0.1036
  507TIP3   OH223155   2.060   1.462   0.472  0.3174  0.6929 -0.1141
  507TIP3    H123156   2.131   1.435   0.414  0.5235 -0.6020  0.6847
  507TIP3    H223157   2.052   1.390   0.535 -2.9124 -0.0495 -1.2224
  508TIP3   OH223158   0.735   0.396   8.793  0.6455 -0.3398 -0.3356
  508TIP3    H123159   0.799   0.327   8.777 -1.7503 -2.3242 -2.1256
  508TIP3    H223160   0.680   0.362   8.863  0.5002  0.5988  0.0284
  509TIP3   OH223161   3.130   6.030   7.558 -0.1083 -0.2102  0.7913
  509TIP3    H123162   3.059   5.975   7.525 -0.8677  1.5513 -0.7330
  509TIP3    H223163   3.179   6.055   7.479  1.0233  0.2095  1.6025
  510TIP3   OH223164   1.243   3.076   0.249  0.2536 -0.0977  0.0641
  510TIP3    H123165   1.170   3.061   0.189  0.9078 -1.3688 -0.4474
  510TIP3    H223166   1.216   3.151   0.301 -0.3400  1.0691 -1.8174
  511TIP3   OH223167   4.569   1.249   1.108 -0.5844  0.6382 -0.3794
  511TIP3    H123168   4.521   1.190   1.166 -0.8622  2.4850  1.3570
  511TIP3    H223169   4.652   1.204   1.092 -2.3767 -2.2273 -2.7665
  512TIP3   OH223170   5.984   1.318   8.707  0.0806  0.0171  0.1865
  512TIP3    H123171   5.974   1.404   8.748 -0.7615 -0.0761  0.1986
  512TIP3    H223172   5.992   1.337   8.613  1.5546  0.2012  0.3288
  513TIP3   OH223173   5.387   6.655   2.717  0.5424 -0.4186 -0.1542
  513TIP3    H123174   5.295   6.632   2.715  0.7868 -1.4845  0.0558
  513TIP3    H223175   5.424   6.615   2.638  0.6316  0.9404 -0.8291
  514TIP3   OH223176   0.753   0.944   8.542 -0.2469 -0.4392 -0.1526
  514TIP3    H123177   0.770   1.038   8.535  0.1964 -0.6335 -3.7407
  514TIP3    H223178   0.684   0.937   8.608  1.0241  2.1560  1.6387
  515TIP3   OH223179   4.501   3.811   7.035  0.1521 -0.0647 -0.5802
  515TIP3    H123180   4.422   3.840   6.989 -1.6000 -2.0381  1.0157
  515TIP3    H223181   4.486   3.835   7.126  2.5769  1.7356 -0.5248
  516TIP3   OH223182   4.375   5.062   8.160  0.0569 -0.4009  0.4504
  516TIP3    H123183   4.450   5.008   8.186  0.7275  0.3108  0.0602
  516TIP3    H223184   4.317   5.003   8.113 -0.0831 -1.1802  1.5533
  517TIP3   OH223185   3.967   1.616   1.691  0.6518  0.0689 -0.1325
  517TIP3    H123186   4.033   1.550   1.716 -0.0304 -0.2779  0.8261
  517TIP3    H223187   3.905   1.568   1.636  0.8230  0.2155 -0.4501
  518TIP3   OH223188   0.482   2.573   0.238  0.3295 -0.1104 -0.4090
  518TIP3    H123189   0.405   2.521   0.264  0.4523  0.1559  0.5383
  518TIP3    H223190   0.547   2.553   0.306  0.1879  1.7132  0.3072
  519TIP3   OH223191   6.138   5.342   7.428  0.2964  0.6206 -0.7893
  519TIP3    H123192   6.232   5.357   7.422  0.9460 -2.1639  0.6430
  519TIP3    H223193   6.124   5.314   7.518 -2.0637  1.5902 -0.7901
  520TIP3   OH223194   0.977   6.369   7.239  0.2117  0.2303 -0.0387
  520TIP3    H123195   0.996   6.361   7.145  1.0185 -1.7096  0.2312
  520TIP3    H223196   0.953   6.460   7.251  1.2633  0.8125 -1.9246
  521TIP3   OH223197   2.607   6.245   2.510 -0.3981 -0.5581  0.0567
  521TIP3    H123198   2.517   6.248   2.477 -1.1183 -0.8454  1.9089
  521TIP3    H223199   2.635   6.155   2.494 -0.7503 -0.7056  0.2528
  522TIP3   OH223200   4.156   6.134   8.791  0.0075  0.3786 -0.1134
  522TIP3    H123201   4.171   6.173   8.877 -2.1685  1.0777 -0.0071
  522TIP3    H223202   4.238   6.148   8.744  1.4688 -0.5434  1.9908
  523TIP3   OH223203   4.827   4.601   6.469  0.1483  0.0103  0.2273
  523TIP3    H123204   4.813   4.684   6.425  0.2033  0.1453  0.4654
  523TIP3    H223205   4.740   4.571   6.494  0.2341  0.5932  1.2394
  524TIP3   OH223206   1.817   5.812   7.709 -0.1010 -0.3635 -0.2522
  524TIP3    H123207   1.726   5.821   7.682  0.3407 -1.1895 -2.1252
  524TIP3    H223208   1.842   5.724   7.682  1.4026  0.0315 -0.2385
  525TIP3   OH223209   2.482   3.623   2.125 -0.8483  0.2581 -0.0197
  525TIP3    H123210   2.434   3.670   2.193 -0.3972  1.2108 -0.3256
  525TIP3    H223211   2.520   3.547   2.170 -2.6060 -0.5123  0.2186
  526TIP3   OH223212   0.002   4.819   6.546 -0.2302  0.1508 -0.6454
  526TIP3    H123213  -0.040   4.745   6.502  1.4706 -0.7521 -0.8051
  526TIP3    H223214   0.055   4.779   6.614 -0.1819  1.3252  0.0259
  527TIP3   OH223215   4.339   5.615   1.086 -0.6755  0.6832  0.8656
  527TIP3    H123216   4.250   5.642   1.110 -1.0751  2.1650 -1.8756
  527TIP3    H223217   4.326   5.553   1.014  0.5188  0.4994  0.7959
  528TIP3   OH223218   6.593   0.981   0.404 -0.7189 -0.6120  0.2773
  528TIP3    H123219   6.614   1.067   0.368 -1.1129 -0.1800  1.0743
  528TIP3    H223220   6.534   0.942   0.339 -1.1953  0.0508  0.2962
  529TIP3   OH223221   2.808   2.327   6.960  0.6827 -0.0123  0.2174
  529TIP3    H123222   2.836   2.272   7.033  1.3045  0.0021 -0.0076
  529TIP3    H223223   2.772   2.266   6.896 -1.0857  0.0774  1.0564
  530TIP3   OH223224   6.619   4.812   0.939  0.0249  0.0249  0.5574
  530TIP3    H123225   6.707   4.780   0.963  0.4789  0.2720 -0.6923
  530TIP3    H223226   6.633   4.903   0.914 -0.0231 -0.6615 -2.3713
  531TIP3   OH223227   4.725   3.146   6.812  0.0984 -0.2439 -1.1840
  531TIP3    H123228   4.747   3.122   6.722  1.6216  1.2481 -1.2609
  531TIP3    H223229   4.655   3.211   6.803 -0.1858 -0.5508 -1.2372
  532TIP3   OH223230   6.240   0.632   1.683  0.3062 -0.3777 -0.1061
  532TIP3    H123231   6.314   0.615   1.625 -0.2637  0.8956 -1.2847
  532TIP3    H223232   6.264   0.592   1.766  2.8340  0.9734 -0.0908
  533TIP3   OH223233   2.821   5.190   8.661  0.7252  0.5830 -0.0220
  533TIP3    H123234   2.856   5.140   8.735  0.7177  1.5884  0.6722
  533TIP3    H223235   2.747   5.138   8.630  0.4550  0.3630  0.9587
  534TIP3   OH223236   1.022   5.713   6.913 -0.2429 -0.1648 -0.2555
  534TIP3    H123237   1.077   5.637   6.898 -1.8076 -1.1646 -1.2153
  534TIP3    H223238   0.967   5.719   6.835  0.2153  2.3261 -0.4920
  535TIP3   OH223239   5.891   6.354   1.333  0.2151  0.3110  0.2965
  535TIP3    H123240   5.920   6.423   1.393  1.5328 -0.0732  0.1386
  535TIP3    H223241   5.819   6.394   1.284  1.5266  1.9068 -0.4198
  536TIP3   OH223242   0.326   5.399   8.312 -0.0603 -0.4073  0.1235
  536TIP3    H123243   0.387   5.350   8.367  0.2063 -0.5791 -0.3210
  536TIP3    H223244   0.297   5.472   8.367  0.5384 -0.3270  0.3316
  537TIP3   OH223245   5.509   3.216   6.944  0.0967 -0.0621  0.0613
  537TIP3    H123246   5.476   3.278   7.009 -0.8530 -2.0593  1.5695
  537TIP3    H223247   5.605   3.226   6.948  0.1016 -0.5964  2.2656
  538TIP3   OH223248   3.104   2.090   7.579  0.5650  0.6516  0.5705
  538TIP3    H123249   3.114   2.034   7.656 -1.6956  0.7165  0.9807
  538TIP3    H223250   3.014   2.076   7.551  0.7062  2.2272 -0.8266
  539TIP3   OH223251   5.820   2.769   6.917 -0.1997 -0.0219  0.8578
  539TIP3    H123252   5.724   2.764   6.919 -0.2910  1.3005  0.9996
  539TIP3    H223253   5.849   2.678   6.913 -1.3618 -0.6603  4.0324
  540TIP3   OH223254   1.402   0.231   1.689 -0.7663 -0.3292  0.6055
  540TIP3    H123255   1.324   0.272   1.727 -1.2828 -0.1698 -0.5911
  540TIP3    H223256   1.377   0.140   1.674 -1.2466  0.0639 -1.1387
  541TIP3   OH223257   5.368   1.899   7.431  0.5455  0.7361 -0.2586
  541TIP3    H123258   5.442   1.838   7.421  0.0171 -0.4027  2.0057
  541TIP3    H223259   5.401   1.966   7.491 -0.6538 -0.7295  2.2248
  542TIP3   OH223260   5.013   2.911   1.347  0.0084 -0.7907  0.0383
  542TIP3    H123261   4.972   2.825   1.348 -1.3028 -0.1964  0.4163
  542TIP3    H223262   4.965   2.960   1.280  1.1140 -0.5220 -0.5772
  543TIP3   OH223263   1.971   0.825   0.219  0.0627  0.0677 -0.5763
  543TIP3    H123264   1.942   0.752   0.165 -1.2198  1.1977 -1.4866
  543TIP3    H223265   1.946   0.801   0.308  0.1795 -0.8412 -0.7867
  544TIP3   OH223266   5.651   0.656   0.143 -0.3414  0.0979 -0.4084
  544TIP3    H123267   5.557   0.661   0.156 -0.2089  1.2507  0.2650
  544TIP3    H223268   5.686   0.635   0.230  0.0142 -0.3354 -0.6557
  545TIP3   OH223269   0.106   1.257   7.783 -0.8434 -0.6291 -0.0369
  545TIP3    H123270   0.091   1.260   7.689  2.1700  0.0561 -0.5924
  545TIP3    H223271   0.087   1.345   7.814  0.6909 -0.0857 -0.5336
  546TIP3   OH223272   1.360   5.964   0.189 -0.2772 -0.2057 -0.6870
  546TIP3    H123273   1.297   6.027   0.224  0.9767  0.3647  0.6128
  546TIP3    H223274   1.314   5.880   0.193 -0.4087 -0.0799  1.8454
  547TIP3   OH223275   4.964   2.286   7.819  0.4623  0.2239  0.4129
  547TIP3    H123276   4.915   2.349   7.871 -0.4336  1.5848 -1.9163
  547TIP3    H223277   4.968   2.208   7.873 -0.8473  1.3720  2.2768
  548TIP3   OH223278   2.808   6.817   8.220 -0.0815  0.0828  0.3775
  548TIP3    H123279   2.807   6.724   8.195 -0.0417  0.3215 -0.5791
  548TIP3    H223280   2.728   6.829   8.271  0.0051 -0.5217  0.6620
  549TIP3   OH223281   1.936   4.779   6.527  0.7016  0.3871 -0.0435
  549TIP3    H123282   1.960   4.695   6.565 -1.5789 -0.7343 -0.8949
  549TIP3    H223283   2.009   4.837   6.549  1.6223 -1.3834  1.9125
  550TIP3   OH223284   5.650   0.441   7.002 -0.2157 -0.0900  0.3369
  550TIP3    H123285   5.722   0.418   6.943  0.3239  0.4802  0.7548
  550TIP3    H223286   5.578   0.384   6.975 -0.0628  0.3297 -1.0115
  551TIP3   OH223287   6.461   4.460   0.620  0.0013  0.1487  0.7996
  551TIP3    H123288   6.519   4.396   0.580 -0.1764  0.0278  0.7360
  551TIP3    H223289   6.500   4.477   0.706  0.7153  0.8539  0.3501
  552TIP3   OH223290   2.173   0.895   1.480  0.1728  0.0631 -0.0239
  552TIP3    H123291   2.265   0.873   1.498 -0.6746 -3.3256  0.7863
  552TIP3    H223292   2.148   0.953   1.552  1.2047 -0.4577  0.7863
  553TIP3   OH223293   3.965   6.424   8.720 -0.2239 -0.4961 -0.3248
  553TIP3    H123294   3.972   6.445   8.626  0.2633 -1.8870 -0.6217
  553TIP3    H223295   3.980   6.507   8.764  0.9014 -0.0666 -1.4544
  554TIP3   OH223296   2.851   6.332   7.363  0.5785 -0.2925 -0.1022
  554TIP3    H123297   2.849   6.238   7.380  0.0429 -0.7474 -2.3098
  554TIP3    H223298   2.761   6.353   7.339  1.0644  0.3828 -1.4146
  555TIP3   OH223299   6.594   1.900   0.212 -0.2857  0.6506  0.1057
  555TIP3    H123300   6.504   1.910   0.241 -0.5161  0.2327 -0.4250
  555TIP3    H223301   6.645   1.886   0.292 -0.8691 -0.2809  0.3258
  556TIP3   OH223302   6.338   6.184   0.494 -0.0353  0.1490 -0.2640
  556TIP3    H123303   6.430   6.161   0.482  0.6255  2.2837  0.3809
  556TIP3    H223304   6.313   6.142   0.576  0.3843 -0.3691 -0.3990
  557TIP3   OH223305   6.222   5.499   0.806 -0.4332  0.5124  0.0780
  557TIP3    H123306   6.157   5.449   0.757  1.4682 -0.3749 -1.7340
  557TIP3    H223307   6.194   5.590   0.797 -0.6301  0.2993 -2.0440
  558TIP3   OH223308   4.450   1.049   1.232 -0.0967 -0.3745 -0.4680
  558TIP3    H123309   4.513   0.978   1.220 -1.8111 -2.4246  1.7586
  558TIP3    H223310   4.372   1.021   1.183  0.2377  1.6494 -2.3453
  559TIP3   OH223311   6.367   1.787   7.939  0.0961  0.1441  0.4605
  559TIP3    H123312   6.335   1.719   7.880  0.2120 -0.2301  0.8246
  559TIP3    H223313   6.394   1.858   7.881  1.8810 -0.9067 -0.0906
  560TIP3   OH223314   6.859   0.904   6.902  0.5301  0.1794 -0.0168
  560TIP3    H123315   6.850   0.819   6.859 -0.5872  0.8044 -1.1027
  560TIP3    H223316   6.876   0.966   6.831  0.2385  1.0227  0.6190
  561TIP3   OH223317   6.111   5.285   1.684  0.2656  0.4850  0.2692
  561TIP3    H123318   6.189   5.310   1.733  0.9729  0.3140 -0.7314
  561TIP3    H223319   6.046   5.351   1.708  1.6237  2.4510 -1.1221
  562TIP3   OH223320   2.700   0.322   1.356  0.4993 -0.2435 -0.7091
  562TIP3    H123321   2.748   0.377   1.418  1.2677 -1.1764 -0.4435
  562TIP3    H223322   2.630   0.283   1.408  0.1886  0.1791 -0.8067
  563TIP3   OH223323   3.644   5.774   7.402 -0.2297  0.0809 -0.3860
  563TIP3    H123324   3.555   5.773   7.436 -0.9280 -1.2106 -2.1138
  563TIP3    H223325   3.637   5.735   7.314  2.0899 -0.4627 -0.3944
  564TIP3   OH223326   0.974   5.481   2.162 -0.5615 -0.2283 -0.0443
  564TIP3    H123327   1.024   5.400   2.157 -2.6266 -1.5153 -0.7736
  564TIP3    H223328   0.908   5.465   2.230 -1.3832  0.6059 -0.6177
  565TIP3   OH223329   6.707   3.044   1.654 -0.5822  0.4697 -0.4923
  565TIP3    H123330   6.612   3.054   1.650 -0.4718  1.6204 -0.3529
  565TIP3    H223331   6.721   2.952   1.631 -1.6510  0.5892 -1.8278
  566TIP3   OH223332   3.814   4.584   8.075  0.4483 -0.4681  0.6007
  566TIP3    H123333   3.886   4.582   8.138 -0.9443 -0.5271  2.2511
  566TIP3    H223334   3.820   4.671   8.035  0.6115  0.0477  1.7161
  567TIP3   OH223335   0.907   1.445   0.998 -0.0573 -0.0666  1.1701
  567TIP3    H123336   0.976   1.456   0.933 -0.1230  1.0076  1.2682
  567TIP3    H223337   0.825   1.456   0.948 -0.1895 -1.4571  1.0293
  568TIP3   OH223338   4.136   6.708   8.373 -0.1107  0.0548 -0.2707
  568TIP3    H123339   4.177   6.646   8.313  0.5672  1.2508 -1.0850
  568TIP3    H223340   4.175   6.688   8.458  2.1578  1.0612 -0.9946
  569TIP3   OH223341   1.652   2.044   7.375 -0.2919  0.3943  0.2510
  569TIP3    H123342   1.712   2.119   7.373 -0.7421  0.8007  1.2220
  569TIP3    H223343   1.579   2.069   7.319  0.0744  0.2180 -0.3121
  570TIP3   OH223344   5.416   6.585   8.068 -0.6547 -0.0796  0.2829
  570TIP3    H123345   5.489   6.527   8.089  0.2701  1.4985  1.7230
  570TIP3    H223346   5.368   6.540   7.999  1.8842 -1.0106 -0.9840
  571TIP3   OH223347   6.484   0.964   1.663  0.0372 -0.1139 -0.7031
  571TIP3    H123348   6.569   0.948   1.622 -0.5945 -0.2038 -2.0495
  571TIP3    H223349   6.481   1.058   1.678  0.2924 -0.0821 -0.8503
  572TIP3   OH223350   3.682   4.866   8.225  0.5175  0.1607 -0.7484
  572TIP3    H123351   3.721   4.878   8.139 -0.6462 -0.0711 -1.3276
  572TIP3    H223352   3.590   4.844   8.207 -0.1822  1.8154  0.5807
  573TIP3   OH223353   0.162   5.519   8.765 -0.4718 -0.1066  0.0056
  573TIP3    H123354   0.162   5.429   8.798  2.0074 -0.9762 -1.9847
  573TIP3    H223355   0.199   5.571   8.836 -3.3998 -0.2731  1.7859
  574TIP3   OH223356   0.937   1.335   1.806  0.2183 -0.5184  0.5660
  574TIP3    H123357   1.012   1.284   1.837  0.4687  0.7762  2.2294
  574TIP3    H223358   0.861   1.284   1.833  0.4758 -0.8494  0.6725
  575TIP3   OH223359   1.270   6.836   1.728 -0.1788  0.3285  0.3512
  575TIP3    H123360   1.270   6.745   1.698  0.2235 -0.0677  1.5215
  575TIP3    H223361   1.294   6.831   1.821 -0.6008  1.5918  0.5400
  576TIP3   OH223362   2.069   3.868   6.681 -0.0163  0.3563  0.3078
  576TIP3    H123363   2.154   3.835   6.650 -0.4813 -0.3210 -0.3041
  576TIP3    H223364   2.041   3.929   6.613 -0.6762 -0.5320 -0.2440
  577TIP3   OH223365   1.174   4.887   1.905  0.2268 -0.4118  0.2046
  577TIP3    H123366   1.235   4.814   1.894  0.2068 -0.5684  1.1115
  577TIP3    H223367   1.200   4.929   1.987  0.4400  0.8075 -0.4647
  578TIP3   OH223368   4.802   1.332   7.217 -0.6032  0.4683  0.5061
  578TIP3    H123369   4.880   1.286   7.248  0.5648  2.1127  0.1225
  578TIP3    H223370   4.755   1.355   7.297  0.3123  1.1615  0.8554
  579TIP3   OH223371   6.722   5.635   0.411  0.6232 -0.2785  0.2539
  579TIP3    H123372   6.761   5.616   0.326 -0.3527 -1.5538  0.0645
  579TIP3    H223373   6.636   5.592   0.409  0.3389  0.1523  1.6675
  580TIP3   OH223374   4.975   3.821   0.652  0.7327 -0.2175  0.0298
  580TIP3    H123375   4.928   3.790   0.575 -0.3603  0.8116  0.2550
  580TIP3    H223376   5.065   3.834   0.622  0.4619 -0.4714 -0.8952
  581TIP3   OH223377   1.978   0.172   8.309 -0.2818  0.1325  0.2437
  581TIP3    H123378   1.920   0.133   8.375  2.1392 -0.8514  1.9236
  581TIP3    H223379   2.038   0.102   8.285  1.3617  1.5686 -0.0565
  582TIP3   OH223380   3.440   4.752   8.409 -0.0695 -0.1355 -0.5485
  582TIP3    H123381   3.459   4.703   8.489 -2.2033 -1.6530 -0.8945
  582TIP3    H223382   3.414   4.839   8.440 -2.4150 -1.1559  0.6177
  583TIP3   OH223383   4.590   3.230   2.494  0.3435  0.0341  0.5112
  583TIP3    H123384   4.654   3.161   2.477  0.4799 -0.0043  1.1576
  583TIP3    H223385   4.576   3.271   2.409  3.0049  1.5819  0.7246
  584TIP3   OH223386   1.429   5.498   2.226 -0.1637  0.1772 -0.0029
  584TIP3    H123387   1.394   5.409   2.226  0.2265  0.0148  0.8967
  584TIP3    H223388   1.430   5.523   2.319 -3.6724  2.4739 -0.3682
  585TIP3   OH223389   0.165   3.725   7.879  0.1832 -0.1640 -0.3827
  585TIP3    H123390   0.116   3.643   7.887 -0.4091  0.2822  0.6941
  585TIP3    H223391   0.187   3.731   7.786  0.6362 -1.7757 -0.4045
  586TIP3   OH223392   0.841   1.841   1.868 -0.1514  0.5497  0.2579
  586TIP3    H123393   0.841   1.900   1.943  1.3357 -0.2916  0.9834
  586TIP3    H223394   0.934   1.831   1.846 -0.2106 -2.3412  0.8975
  587TIP3   OH223395   1.977   1.233   0.634  0.5102  0.3042  0.3858
  587TIP3    H123396   1.983   1.162   0.698 -0.1360 -0.9237 -0.8748
  587TIP3    H223397   1.904   1.208   0.577  1.5514  0.9629 -1.3078
  588TIP3   OH223398   3.559   6.766   8.385 -0.4081 -0.5008  0.5260
  588TIP3    H123399   3.495   6.697   8.366 -0.6311  0.4253 -2.7154
  588TIP3    H223400   3.520   6.845   8.348  1.5139  0.5902  0.7139
  589TIP3   OH223401   1.885   6.775   0.787 -0.5447  0.0073  0.1224
  589TIP3    H123402   1.884   6.836   0.861  2.2041 -1.0359  1.1191
  589TIP3    H223403   1.919   6.827   0.714 -1.3169  0.4880  0.0899
  590TIP3   OH223404   1.238   3.689   1.814  0.1579  0.1594 -0.1480
  590TIP3    H123405   1.164   3.629   1.825  1.2294 -1.6041 -1.8088
  590TIP3    H223406   1.244   3.737   1.896 -2.1755 -0.3752  0.3943
  591TIP3   OH223407   4.705   3.924   6.894 -0.2480 -0.7734  0.9075
  591TIP3    H123408   4.670   3.916   6.983 -2.2896  3.5663  0.7728
  591TIP3    H223409   4.630   3.910   6.837  0.5574 -1.3228 -0.0425
  592TIP3   OH223410   6.460   0.035   7.221  0.1713  0.5086  0.1252
  592TIP3    H123411   6.406   0.029   7.300  0.2699 -1.5404  0.0876
  592TIP3    H223412   6.397   0.031   7.149  0.1538  1.3597  0.0895
  593TIP3   OH223413   6.412   6.632   7.462 -0.3226  0.1483  0.1715
  593TIP3    H123414   6.459   6.561   7.418  0.4618  1.1097 -0.5735
  593TIP3    H223415   6.473   6.664   7.528 -2.0036 -2.2821  3.2038
  594TIP3   OH223416   4.447   4.555   6.230 -0.7979  0.3127  0.2090
  594TIP3    H123417   4.494   4.528   6.309  1.2109 -0.4482 -1.1680
  594TIP3    H223418   4.420   4.645   6.248 -1.2767 -0.1761  2.1195
  595TIP3   OH223419   3.021   3.015   6.425 -0.0353  0.0651 -0.5366
  595TIP3    H123420   2.945   3.028   6.482  0.4911 -0.1352  0.2351
  595TIP3    H223421   3.059   3.102   6.415 -0.7395  0.2722 -1.4703
  596TIP3   OH223422   3.703   4.841   8.713  0.0754 -0.1011  0.7254
  596TIP3    H123423   3.667   4.783   8.646  0.0980  0.1779  0.4690
  596TIP3    H223424   3.767   4.895   8.666 -0.6660  0.8231  0.7370
  597TIP3   OH223425   3.460   5.392   0.966  0.4160  0.0110 -0.3810
  597TIP3    H123426   3.491   5.475   1.002  1.6491  0.6422 -2.7377
  597TIP3    H223427   3.369   5.386   0.996 -0.9561  4.0275 -2.9892
  598TIP3   OH223428   4.597   1.009   0.013 -0.3099  0.0623 -1.0241
  598TIP3    H123429   4.648   0.931   0.035 -0.1050 -0.3245 -2.7388
  598TIP3    H223430   4.652   1.082   0.043 -0.8797 -0.3999  1.3700
  599TIP3   OH223431   0.820   2.111   0.356  0.6429 -0.6800 -0.2011
  599TIP3    H123432   0.871   2.115   0.437  0.9938  3.1891 -0.4216
  599TIP3    H223433   0.877   2.149   0.290 -0.9977 -0.2154 -1.4088
  600TIP3   OH223434   6.494   0.740   6.867 -0.3851 -0.1891 -0.4549
  600TIP3    H123435   6.487   0.747   6.772  0.1181  1.8389 -0.3937
  600TIP3    H223436   6.405   0.756   6.899 -0.1219  1.5707 -0.5271
  601TIP3   OH223437   6.566   0.867   0.173  0.0582  0.4988  0.1545
  601TIP3    H123438   6.572   0.775   0.197  1.7262  0.3616 -0.6437
  601TIP3    H223439   6.479   0.876   0.133 -1.2310 -0.0760  2.6587
  602TIP3   OH223440   3.360   1.710   0.983 -0.0613 -0.3290  0.4173
  602TIP3    H123441   3.373   1.719   0.889 -0.0127  0.0383  0.4575
  602TIP3    H223442   3.331   1.619   0.995 -0.7817 -0.1726 -0.0295
  603TIP3   OH223443   3.955   0.482   6.984 -0.4050  0.0231 -0.0327
  603TIP3    H123444   4.038   0.528   6.977 -0.0394 -0.3971  1.2639
  603TIP3    H223445   3.956   0.420   6.910  0.5848 -0.2028  0.1481
  604TIP3   OH223446   5.972   6.842   7.647  0.0355 -0.5942 -0.2062
  604TIP3    H123447   5.925   6.766   7.681 -1.3898 -0.6111 -2.0928
  604TIP3    H223448   5.906   6.892   7.599  1.1514  1.3575  0.1997
  605TIP3   OH223449   4.092   0.992   1.043  0.1548  0.8984  0.4110
  605TIP3    H123450   4.144   0.926   1.089  1.5695  0.9059 -1.1298
  605TIP3    H223451   4.064   0.949   0.962 -0.9524  1.4264  0.4862
  606TIP3   OH223452   0.882   4.360   6.741 -0.1800 -0.0902 -0.3831
  606TIP3    H123453   0.824   4.410   6.684  1.3090  1.4576 -0.6420
  606TIP3    H223454   0.958   4.340   6.685  0.9263  0.7074  0.7977
  607TIP3   OH223455   1.082   6.529   7.698 -0.6560  0.6440  0.0456
  607TIP3    H123456   1.090   6.443   7.739  0.2147  1.1704  1.0349
  607TIP3    H223457   1.066   6.511   7.606  0.0262 -0.5816  0.1476
  608TIP3   OH223458   6.342   4.721   8.498 -0.5710 -0.4100 -0.1940
  608TIP3    H123459   6.275   4.654   8.484  0.4625 -1.3245 -0.8667
  608TIP3    H223460   6.365   4.751   8.410  0.9492 -1.1681 -0.0783
  609TIP3   OH223461   2.580   6.491   8.096  0.1485  0.2151 -0.6500
  609TIP3    H123462   2.550   6.402   8.114  0.9934  0.0792  0.1915
  609TIP3    H223463   2.612   6.488   8.005  0.0864 -0.3132 -0.6556
  610TIP3   OH223464   4.805   1.144   0.566 -0.4547  0.2413 -0.6072
  610TIP3    H123465   4.807   1.228   0.520 -0.4579 -0.1799 -1.3945
  610TIP3    H223466   4.887   1.101   0.543  0.3754  0.7344  1.2058
  611TIP3   OH223467   6.192   6.113   7.936  0.1646 -0.1138  0.2395
  611TIP3    H123468   6.223   6.204   7.930 -1.0279  0.3596  0.9378
  611TIP3    H223469   6.160   6.093   7.848 -0.0199  0.3213  0.2039
  612TIP3   OH223470   3.195   3.648   2.500 -0.7710 -0.2300  0.1984
  612TIP3    H123471   3.258   3.581   2.472  1.8213  2.2623 -0.4051
  612TIP3    H223472   3.189   3.636   2.595 -2.4689 -2.9217 -0.1607
  613TIP3   OH223473   5.927   2.465   8.439 -0.2825  0.0104  1.3022
  613TIP3    H123474   5.910   2.500   8.526  0.6644  3.7803  0.1563
  613TIP3    H223475   5.877   2.521   8.380  1.1308 -0.7527 -0.7670
  614TIP3   OH223476   4.625   3.700   8.031  0.1610 -0.1084 -0.2097
  614TIP3    H123477   4.567   3.755   8.085 -0.0164  0.5010 -0.9941
  614TIP3    H223478   4.705   3.692   8.082  0.3295  1.2033 -0.2280
  615TIP3   OH223479   1.020   1.538   1.557 -0.0976  0.0817  0.1183
  615TIP3    H123480   0.997   1.505   1.643  0.7586  0.1455  0.3820
  615TIP3    H223481   1.116   1.541   1.557  0.2098 -3.4976 -2.1397
  616TIP3   OH223482   4.689   0.919   7.398  0.5629 -0.5328 -0.0887
  616TIP3    H123483   4.665   0.967   7.318  0.2210 -0.1012  0.2693
  616TIP3    H223484   4.761   0.970   7.436  2.6152 -2.1710 -1.5065
  617TIP3   OH223485   6.574   6.062   0.132  0.0072  0.3710  0.0518
  617TIP3    H123486   6.594   6.078   0.040  0.1525  1.0552  0.1967
  617TIP3    H223487   6.635   5.994   0.159  0.5353  0.7705 -0.1375
  618TIP3   OH223488   5.702   5.514   2.115 -0.0618  0.7361 -0.2309
  618TIP3    H123489   5.659   5.482   2.035 -1.0493 -0.4788  0.7350
  618TIP3    H223490   5.631   5.523   2.178  0.9867 -0.6460  1.2148
  619TIP3   OH223491   4.104   1.854   7.526 -0.2052  0.1833 -0.0232
  619TIP3    H123492   4.031   1.838   7.586 -0.2485 -1.8966 -0.5466
  619TIP3    H223493   4.181   1.820   7.573 -0.1332 -0.8221 -0.8268
  620TIP3   OH223494   0.919   4.355   8.100 -0.5364  0.3276 -0.1232
  620TIP3    H123495   0.883   4.267   8.109 -1.1190  0.4109 -1.3431
  620TIP3    H223496   0.944   4.360   8.007 -1.6018  1.8440 -0.3539
  621TIP3   OH223497   4.538   3.964   2.488  0.0341  0.4500 -0.1842
  621TIP3    H123498   4.613   4.022   2.473 -0.8925  1.2369 -2.2019
  621TIP3    H223499   4.487   3.970   2.407 -1.8154 -0.6560  0.8285
  622TIP3   OH223500   0.493   5.118   7.384  0.0715 -0.3627  0.4084
  622TIP3    H123501   0.508   5.044   7.324  0.2103 -0.1211  0.1409
  622TIP3    H223502   0.460   5.188   7.327  1.6526  0.3709  0.3456
  623TIP3   OH223503   3.100   3.399   0.543  0.6558 -0.2592  0.2466
  623TIP3    H123504   3.172   3.356   0.589  1.2921 -1.0451 -1.4282
  623TIP3    H223505   3.137   3.483   0.514 -0.4289  1.3495  3.0507
  624TIP3   OH223506   0.662   4.219   7.009  0.2216 -0.3732 -0.4192
  624TIP3    H123507   0.668   4.220   7.105 -0.3932  0.6188 -0.3831
  624TIP3    H223508   0.648   4.127   6.987 -0.0630 -0.5492  0.4703
  625TIP3   OH223509   0.338   1.494   7.715 -0.1384 -0.5267  0.0192
  625TIP3    H123510   0.312   1.495   7.807  1.1236 -3.1658  0.4962
  625TIP3    H223511   0.265   1.452   7.670 -0.9592  1.1791 -0.3196
  626TIP3   OH223512   1.950   4.644   1.723  0.4929 -0.0218  0.6297
  626TIP3    H123513   1.926   4.575   1.785  0.5459  0.5622  1.3210
  626TIP3    H223514   1.873   4.701   1.720  0.0475 -0.6647 -0.7488
  627TIP3   OH223515   0.518   4.281   8.765  0.4011  0.0594  0.0399
  627TIP3    H123516   0.537   4.206   8.708  1.0905  0.8696 -0.8348
  627TIP3    H223517   0.428   4.305   8.744  0.7367  0.5293 -0.9726
  628TIP3   OH223518   0.724   3.374   8.440 -0.1882 -0.6293 -0.8574
  628TIP3    H123519   0.707   3.427   8.517  1.2297 -0.6275 -0.5223
  628TIP3    H223520   0.641   3.375   8.392 -0.9557 -0.2581  0.4217
  629TIP3   OH223521   4.651   3.900   1.575  0.7107 -0.2191  0.5131
  629TIP3    H123522   4.595   3.823   1.572  0.4862 -0.0322 -0.3099
  629TIP3    H223523   4.655   3.930   1.484  1.4248  0.2855  0.7058
  630TIP3   OH223524   5.949   3.277   8.063 -0.1193 -0.2891  0.2182
  630TIP3    H123525   6.006   3.262   7.988  0.7993 -1.8240  1.1589
  630TIP3    H223526   5.982   3.359   8.102  0.6595 -0.5120  0.0467
  631TIP3   OH223527   3.943   2.411   8.076  0.1830 -0.4503 -0.7695
  631TIP3    H123528   3.954   2.337   8.017  2.2658 -0.5592 -0.3161
  631TIP3    H223529   3.919   2.371   8.160  1.4139 -0.6520 -0.4967
  632TIP3   OH223530   6.802   2.507   0.162  0.2134 -0.4756 -0.6530
  632TIP3    H123531   6.772   2.417   0.176  0.9979 -0.3792  2.4332
  632TIP3    H223532   6.895   2.499   0.140  0.8555 -0.4696  1.7321
  633TIP3   OH223533   2.909   3.925   0.718  0.0463 -0.1095  0.1886
  633TIP3    H123534   3.000   3.915   0.746  0.1353 -2.5688 -0.7390
  633TIP3    H223535   2.860   3.940   0.799  0.9951 -1.1829  0.9814
  634TIP3   OH223536   0.782   6.210   7.003  0.4388  0.8056 -0.1514
  634TIP3    H123537   0.802   6.135   6.947  0.4666  0.0511  0.8232
  634TIP3    H223538   0.841   6.199   7.078 -2.9858 -1.1969  2.5842
  635TIP3   OH223539   5.460   0.912   8.009 -0.3292  0.1555 -0.2402
  635TIP3    H123540   5.486   0.998   8.042  3.7577 -0.4912 -1.1776
  635TIP3    H223541   5.473   0.853   8.084 -0.5224 -0.0100 -0.3367
  636TIP3   OH223542   0.262   5.588   8.493  0.5283  0.2933 -0.3896
  636TIP3    H123543   0.297   5.537   8.566  1.9724  1.4198 -0.2512
  636TIP3    H223544   0.171   5.605   8.518  1.2960  1.6787  1.7710
  637TIP3   OH223545   4.401   5.059   2.363  0.3351 -0.3540  0.5620
  637TIP3    H123546   4.384   5.110   2.442  1.5334  0.6176  0.2126
  637TIP3    H223547   4.496   5.047   2.361  0.5788  1.2529 -1.6656
  638TIP3   OH223548   2.326   2.375   1.664 -0.2090 -0.7941  0.4270
  638TIP3    H123549   2.354   2.386   1.754 -0.2216  0.3658  0.3045
  638TIP3    H223550   2.368   2.293   1.635  0.7278 -0.5718  1.1195
  639TIP3   OH223551   1.690   5.245   1.728  0.1634  0.2037  0.2280
  639TIP3    H123552   1.605   5.210   1.756  1.5341 -2.6787  1.2272
  639TIP3    H223553   1.679   5.340   1.731 -3.9585  0.0944 -2.8551
  640TIP3   OH223554   5.057   6.606   1.004 -0.0795  0.1400  0.2511
  640TIP3    H123555   5.105   6.688   0.989  0.8984 -0.3369  0.6844
  640TIP3    H223556   4.988   6.631   1.066 -0.2055  0.7747 -0.1304
  641TIP3   OH223557   3.885   1.577   7.999 -0.0574  1.0050  0.3920
  641TIP3    H123558   3.934   1.567   7.918  0.1902 -1.3497  0.7715
  641TIP3    H223559   3.798   1.605   7.972  0.4931  1.8784 -0.5311
  642TIP3   OH223560   4.983   0.762   1.812  0.5025  0.2731  0.2161
  642TIP3    H123561   4.925   0.761   1.736 -1.4504  0.6455  1.6287
  642TIP3    H223562   4.970   0.677   1.853  2.9345 -0.6756 -0.7678
  643TIP3   OH223563   4.898   6.105   1.130 -0.3302  0.2010  0.1115
  643TIP3    H123564   4.854   6.038   1.181 -0.1401  0.0532  0.0797
  643TIP3    H223565   4.989   6.077   1.126 -0.3537  0.1825 -0.3531
  644TIP3   OH223566   4.178   6.319   8.422  0.0880  0.2067  0.3094
  644TIP3    H123567   4.269   6.305   8.445  0.6863 -0.1337 -2.0637
  644TIP3    H223568   4.179   6.343   8.329 -2.1392  1.4295  0.5099
  645TIP3   OH223569   4.444   2.300   7.893 -0.1247  0.1852 -0.3598
  645TIP3    H123570   4.354   2.329   7.906 -0.6210 -1.2269 -0.4653
  645TIP3    H223571   4.451   2.284   7.799 -0.1406 -0.8337 -0.1981
  646TIP3   OH223572   3.083   5.545   6.591  0.4285 -0.2544 -0.1395
  646TIP3    H123573   3.168   5.528   6.551 -0.1387  0.5594 -1.7759
  646TIP3    H223574   3.042   5.459   6.599  1.3294 -0.6379  0.5596
  647TIP3   OH223575   2.609   3.776   0.861  0.1724 -0.0709 -0.2265
  647TIP3    H123576   2.566   3.799   0.778  0.4963 -0.3523 -0.4763
  647TIP3    H223577   2.573   3.838   0.924 -0.5211 -0.2318 -0.4516
  648TIP3   OH223578   0.829   4.871   7.456  0.9064  0.0347 -0.2773
  648TIP3    H123579   0.807   4.846   7.366  2.5436 -0.4585 -0.5776
  648TIP3    H223580   0.808   4.794   7.509 -1.8598  0.9501  0.1301
  649TIP3   OH223581   5.852   0.267   0.638 -0.5331  0.3535 -0.1836
  649TIP3    H123582   5.855   0.343   0.696 -1.3520  1.4443 -1.5126
  649TIP3    H223583   5.881   0.300   0.553  0.0089 -1.0546 -0.5733
  650TIP3   OH223584   6.200   2.232   7.655 -0.1077  0.1215 -0.1309
  650TIP3    H123585   6.294   2.221   7.645 -0.1472  0.9555 -1.7312
  650TIP3    H223586   6.165   2.224   7.566 -1.3484  1.5590  0.1784
  651TIP3   OH223587   5.900   0.355   8.281 -0.0825 -0.3963 -0.1406
  651TIP3    H123588   5.930   0.438   8.243 -0.7343 -0.9143 -1.8660
  651TIP3    H223589   5.805   0.355   8.267 -0.4070 -0.5085  1.7705
  652TIP3   OH223590   6.397   1.284   1.271  0.4060  0.4290  0.5759
  652TIP3    H123591   6.487   1.262   1.295 -0.7762 -3.1144  2.4708
  652TIP3    H223592   6.383   1.239   1.187  0.5802  1.6441 -0.1269
  653TIP3   OH223593   5.170   1.385   0.736 -0.2203  0.2037  0.1183
  653TIP3    H123594   5.258   1.421   0.747 -0.9708  1.2384  4.3574
  653TIP3    H223595   5.178   1.293   0.761 -0.5539  0.6963  2.1767
  654TIP3   OH223596   6.327   6.185   1.829 -0.2724 -0.0313 -0.9961
  654TIP3    H123597   6.284   6.258   1.784  1.0420  0.7527 -1.0427
  654TIP3    H223598   6.292   6.188   1.918  0.9096  1.7088 -0.5230
  655TIP3   OH223599   4.677   2.530   0.208 -0.4499  0.1570 -0.4541
  655TIP3    H123600   4.636   2.451   0.244  0.4472 -1.1315 -2.1107
  655TIP3    H223601   4.764   2.532   0.248 -0.7180  0.7019  0.1070
  656TIP3   OH223602   2.011   6.269   2.197  0.3976  0.2596 -0.5295
  656TIP3    H123603   1.964   6.251   2.116  3.1782 -5.3401 -1.3947
  656TIP3    H223604   2.104   6.268   2.172  1.2998  0.6722  2.4028
  657TIP3   OH223605   5.117   0.280   0.524 -0.4242  0.2435 -0.5577
  657TIP3    H123606   5.059   0.342   0.480 -1.8019 -0.3685  0.2930
  657TIP3    H223607   5.093   0.195   0.486  0.0683  0.0126 -0.3517
  658TIP3   OH223608   6.836   5.754   7.172  0.1835 -0.2095  0.6420
  658TIP3    H123609   6.853   5.724   7.082  1.6559 -0.4526  0.9796
  658TIP3    H223610   6.905   5.818   7.189  0.4441 -0.8035  1.9040
  659TIP3   OH223611   5.099   6.271   0.672 -0.0804 -0.1681  0.2587
  659TIP3    H123612   5.151   6.346   0.701  0.2920  0.0247 -0.8647
  659TIP3    H223613   5.022   6.309   0.630  0.8600 -0.3217 -1.7417
  660TIP3   OH223614   6.348   6.660   7.918 -0.1485  0.2146 -0.2013
  660TIP3    H123615   6.300   6.688   7.841 -1.1136 -0.9426 -0.0465
  660TIP3    H223616   6.285   6.610   7.969  0.4184  1.0746  1.4298
  661TIP3   OH223617   1.705   3.896   6.860  0.8643  0.2480 -0.6152
  661TIP3    H123618   1.648   3.932   6.928  2.0155  1.4219 -0.2431
  661TIP3    H223619   1.791   3.890   6.902  1.1063 -1.2157 -1.2592
  662TIP3   OH223620   6.758   1.183   1.897  0.7615 -0.3460 -0.6918
  662TIP3    H123621   6.788   1.105   1.943  1.1864 -0.3662 -1.0013
  662TIP3    H223622   6.821   1.251   1.920  0.8279 -0.2894 -1.0288
  663TIP3   OH223623   5.078   0.497   2.097 -0.1336  0.7259  0.7359
  663TIP3    H123624   5.155   0.465   2.051 -0.0960  1.3661  0.3366
  663TIP3    H223625   5.106   0.579   2.137  0.3700 -0.6975  3.5003
  664TIP3   OH223626   2.882   4.701   1.477 -0.1693 -0.1078 -0.1740
  664TIP3    H123627   2.816   4.651   1.428  1.3199 -0.2071 -2.1800
  664TIP3    H223628   2.892   4.782   1.428  1.6206 -0.3514 -0.2603
  665TIP3   OH223629   5.181   1.148   0.847 -0.6511  0.2450  0.1669
  665TIP3    H123630   5.232   1.082   0.894 -0.8816 -0.3831 -0.4342
  665TIP3    H223631   5.124   1.096   0.790 -1.2490  0.9623  0.1110
  666TIP3   OH223632   5.244   2.078   7.768  0.2099 -0.4273  0.2720
  666TIP3    H123633   5.165   2.082   7.822 -0.3678 -1.9093 -0.4273
  666TIP3    H223634   5.235   2.152   7.707 -1.2528 -1.2732 -0.5893
  667TIP3   OH223635   6.198   5.763   8.620 -0.3249 -0.4598  0.0937
  667TIP3    H123636   6.107   5.745   8.643 -0.6185  1.1777  0.3452
  667TIP3    H223637   6.195   5.850   8.579  1.2488  0.0249  0.9545
  668TIP3   OH223638   5.099   3.142   1.060 -0.2360 -0.6137 -0.3066
  668TIP3    H123639   5.015   3.103   1.086  0.6819 -2.2255  0.3791
  668TIP3    H223640   5.112   3.214   1.122 -1.5223  0.2587 -1.0007
  669TIP3   OH223641   2.281   4.126   8.535  1.0196  0.5776 -0.0168
  669TIP3    H123642   2.221   4.188   8.577  1.4701 -0.6128  2.5531
  669TIP3    H223643   2.350   4.112   8.600  2.1477 -0.8549 -1.4654
  670TIP3   OH223644   4.888   5.218   8.706  0.5572 -0.2016  0.3200
  670TIP3    H123645   4.962   5.207   8.766  0.1494  0.4137  0.9575
  670TIP3    H223646   4.897   5.147   8.643  1.0018 -0.8644  1.1121
  671TIP3   OH223647   5.559   0.509   1.224 -0.2208  0.1676 -0.1318
  671TIP3    H123648   5.628   0.572   1.246 -0.4829  0.4883 -0.2199
  671TIP3    H223649   5.548   0.458   1.304 -1.9445  2.0460  0.9299
  672TIP3   OH223650   1.354   2.222   1.489  0.1426 -0.1268 -0.3812
  672TIP3    H123651   1.435   2.273   1.502  0.1616 -0.1681 -0.3366
  672TIP3    H223652   1.317   2.257   1.408 -0.1178  0.3277 -0.0716
  673TIP3   OH223653   3.768   3.360   7.684  0.0216 -0.1300 -0.4590
  673TIP3    H123654   3.798   3.288   7.630  0.9445  0.0906 -0.2538
  673TIP3    H223655   3.846   3.389   7.732 -0.2084  1.2820 -0.8715
  674TIP3   OH223656   1.865   4.256   8.680 -0.1570  0.4115 -0.2919
  674TIP3    H123657   1.826   4.275   8.594  0.3786  0.6452 -0.4878
  674TIP3    H223658   1.824   4.174   8.707  0.3444 -0.1667 -1.2041
  675TIP3   OH223659   6.728   6.697   0.898  0.0288  0.2221 -0.3513
  675TIP3    H123660   6.752   6.790   0.901  1.9963 -0.2668  0.7699
  675TIP3    H223661   6.790   6.659   0.836  0.7598 -0.7073  0.9022
  676TIP3   OH223662   1.819   5.919   8.362 -0.2584  0.0383  0.0018
  676TIP3    H123663   1.762   5.924   8.286  0.6037  0.2821 -0.6479
  676TIP3    H223664   1.796   5.995   8.415 -0.5655  0.1131 -0.2397
  677TIP3   OH223665   4.137   1.855   8.506  0.4998  0.2899  0.2550
  677TIP3    H123666   4.204   1.824   8.567  0.2292  1.7812  1.3726
  677TIP3    H223667   4.175   1.932   8.465  0.2314 -0.0346 -0.6357
  678TIP3   OH223668   3.447   1.869   7.469  0.3616  0.0142  0.4474
  678TIP3    H123669   3.451   1.809   7.394  0.1978  0.0406  0.4164
  678TIP3    H223670   3.472   1.814   7.544 -2.5238 -0.8995  0.8745
  679TIP3   OH223671   6.619   3.609   7.741 -0.2148  0.0272 -0.4896
  679TIP3    H123672   6.561   3.684   7.756 -1.9704 -0.8632 -2.3494
  679TIP3    H223673   6.629   3.569   7.828 -0.4020  1.5489  0.2798
  680TIP3   OH223674   1.421   1.743   0.386 -0.5565  0.2166 -0.4537
  680TIP3    H123675   1.493   1.771   0.329  0.5556  0.3302  0.9514
  680TIP3    H223676   1.342   1.769   0.339  0.2475 -0.9453 -2.5971
  681TIP3   OH223677   4.089   2.910   7.934  0.2230  0.4719  0.3472
  681TIP3    H123678   4.046   2.907   7.848 -1.5660  1.9624  1.1039
  681TIP3    H223679   4.018   2.933   7.994  0.7800 -3.2404  2.7136
  682TIP3   OH223680   2.797   6.024   0.266  0.7785 -0.2410 -0.2044
  682TIP3    H123681   2.819   6.029   0.173  1.3760  0.9874 -0.0222
  682TIP3    H223682   2.867   6.073   0.309 -0.5671  0.9563  0.7090
  683TIP3   OH223683   5.843   2.156   1.811  0.1396 -0.7381  0.4539
  683TIP3    H123684   5.808   2.082   1.761 -0.3070 -0.8173  0.8693
  683TIP3    H223685   5.799   2.149   1.896  0.8658 -0.5983  0.8473
  684TIP3   OH223686   3.987   3.257   1.942  0.0035  0.7240  0.7080
  684TIP3    H123687   3.979   3.301   2.027  1.1231  0.2133  1.0888
  684TIP3    H223688   4.065   3.296   1.902  0.1935  0.0865  0.4452
  685TIP3   OH223689   4.398   6.008   0.240  0.4556  0.8656  0.3620
  685TIP3    H123690   4.462   5.948   0.202 -0.2303 -0.8994  1.8061
  685TIP3    H223691   4.419   6.009   0.334 -0.5874  1.5652  0.6117
  686TIP3   OH223692   1.001   2.391   7.821 -0.0638 -0.3779  0.5070
  686TIP3    H123693   1.086   2.353   7.799 -0.1508 -0.3927  0.1880
  686TIP3    H223694   1.016   2.440   7.902  0.4820  0.4261 -0.0615
  687TIP3   OH223695   3.335   0.767   0.837 -0.3857  0.1303  0.8414
  687TIP3    H123696   3.415   0.733   0.797 -0.7447  2.2165 -1.9651
  687TIP3    H223697   3.360   0.790   0.926  0.8311 -3.5413  1.6215
  688TIP3   OH223698   4.401   1.414   0.076  0.2504 -0.1193  0.4824
  688TIP3    H123699   4.449   1.476   0.021 -2.6272 -0.4623 -2.7880
  688TIP3    H223700   4.407   1.331   0.029  1.4792 -1.7256  3.2178
  689TIP3   OH223701   4.446   4.316   1.253 -0.4901 -0.7861  0.0475
  689TIP3    H123702   4.382   4.265   1.302 -3.0618  1.8969 -0.2792
  689TIP3    H223703   4.440   4.283   1.163  0.0219 -1.8091  0.3744
  690TIP3   OH223704   0.603   4.254   1.098 -0.0907 -0.7965 -0.1882
  690TIP3    H123705   0.615   4.254   1.193  0.0023 -0.7165 -0.1989
  690TIP3    H223706   0.515   4.219   1.085 -0.6176  0.3876  0.0026
  691TIP3   OH223707   4.732   4.464   7.341  0.3707  0.3392  0.1868
  691TIP3    H123708   4.769   4.485   7.256  1.0626  0.4965  0.5228
  691TIP3    H223709   4.791   4.398   7.377 -0.2661 -0.1855  0.2871
  692TIP3   OH223710   0.713   3.915   0.602  0.2889  0.0198 -0.4150
  692TIP3    H123711   0.760   3.976   0.658 -1.3742  1.1389 -0.1648
  692TIP3    H223712   0.657   3.865   0.661  0.2413 -0.4301 -0.8301
  693TIP3   OH223713   0.974   2.210   2.297 -0.0666 -0.3282  0.1990
  693TIP3    H123714   0.896   2.164   2.326 -0.4405 -0.4050 -0.8654
  693TIP3    H223715   0.957   2.302   2.319  0.5912 -0.6376  2.1283
  694TIP3   OH223716   3.867   2.845   1.384  0.3569  0.1999 -0.6056
  694TIP3    H123717   3.917   2.916   1.423 -0.8225  0.4499  0.5266
  694TIP3    H223718   3.787   2.841   1.436 -1.0469  0.1652 -2.6371
  695TIP3   OH223719   4.069   1.936   7.884  0.0570  0.1864  0.4557
  695TIP3    H123720   4.064   1.841   7.886 -0.4541  0.2147  2.6124
  695TIP3    H223721   4.163   1.955   7.877  0.1166 -0.4368 -0.7018
  696TIP3   OH223722   2.217   2.196   2.076 -0.3743 -0.2002 -0.4002
  696TIP3    H123723   2.235   2.279   2.031 -1.0420  0.1873  0.0153
  696TIP3    H223724   2.211   2.132   2.006 -0.7995  0.2882 -0.8247
  697TIP3   OH223725   2.312   0.031   8.511  0.5633  0.3051 -0.4918
  697TIP3    H123726   2.400   0.040   8.548  0.0894 -0.9070  1.0583
  697TIP3    H223727   2.254   0.034   8.586 -0.7678  1.3634 -1.5262
  698TIP3   OH223728   6.647   5.643   7.352  0.2772  0.6270  0.2109
  698TIP3    H123729   6.713   5.688   7.299 -1.7178  1.2124 -1.9431
  698TIP3    H223730   6.624   5.565   7.300 -0.3608  0.1631  1.1643
  699TIP3   OH223731   5.006   0.994   2.217  0.1182 -0.1118  0.6066
  699TIP3    H123732   5.062   1.023   2.289  0.5884  0.8428 -0.1341
  699TIP3    H223733   5.052   0.920   2.178  0.2003 -0.1853  0.8436
  700TIP3   OH223734   4.067   5.986   7.498 -0.0304  0.2030  0.6181
  700TIP3    H123735   4.007   5.912   7.485  1.1236 -0.9397  1.5767
  700TIP3    H223736   4.140   5.968   7.440  0.2737  0.5604  0.8864
  701TIP3   OH223737   6.288   6.434   8.563 -0.2287 -0.1995  0.0903
  701TIP3    H123738   6.200   6.471   8.561 -0.3778 -0.5483 -0.0256
  701TIP3    H223739   6.319   6.450   8.652  0.3637  1.6719 -0.4131
  702TIP3   OH223740   1.609   5.175   8.665  0.2742  0.3225  0.1387
  702TIP3    H123741   1.658   5.258   8.672  1.4385 -0.3471  0.1565
  702TIP3    H223742   1.591   5.167   8.571  2.5355 -0.6897 -0.2792
  703TIP3   OH223743   6.598   5.600   8.062  0.4782 -0.1632  0.0422
  703TIP3    H123744   6.686   5.567   8.041  1.3075  1.8285  0.2022
  703TIP3    H223745   6.605   5.630   8.152  0.3784  2.2173 -0.6769
  704TIP3   OH223746   0.899   1.284   0.518 -0.2360  0.0579 -0.0512
  704TIP3    H123747   0.979   1.234   0.537 -1.1753 -0.1659  4.2375
  704TIP3    H223748   0.931   1.369   0.487  1.5009 -1.1370 -1.7672
  705TIP3   OH223749   6.617   5.153   7.976  0.1420 -0.1700 -0.1964
  705TIP3    H123750   6.682   5.099   7.932 -0.0413 -1.0207  0.5386
  705TIP3    H223751   6.563   5.091   8.025 -1.3395  0.4891 -0.9143
  706TIP3   OH223752   6.300   3.983   8.496  0.1327 -0.1498  0.3844
  706TIP3    H123753   6.280   3.914   8.559 -0.7886  1.3821  1.8385
  706TIP3    H223754   6.220   3.990   8.443  0.0515  0.1274  0.5457
  707TIP3   OH223755   5.479   4.539   7.414 -0.9024 -0.4709 -0.0146
  707TIP3    H123756   5.449   4.528   7.504  0.1944  0.4321  0.4930
  707TIP3    H223757   5.400   4.561   7.365 -1.1976  1.2259  1.1475
  708TIP3   OH223758   3.555   2.401   8.201  0.7724 -0.3718  0.2016
  708TIP3    H123759   3.640   2.430   8.169  1.1284 -0.6024  0.9255
  708TIP3    H223760   3.499   2.401   8.123  1.2036  0.5963 -0.1193
  709TIP3   OH223761   1.527   3.240   2.643  0.1828  0.1967  0.1070
  709TIP3    H123762   1.556   3.289   2.567  0.3629 -0.4908 -0.2751
  709TIP3    H223763   1.579   3.160   2.642  0.9541  0.6297  1.5528
  710TIP3   OH223764   4.255   0.492   7.017 -0.4395 -0.2709  0.2799
  710TIP3    H123765   4.328   0.538   6.975 -0.9172  1.8813  1.6598
  710TIP3    H223766   4.262   0.516   7.109 -1.6800 -1.7499  0.7947
  711TIP3   OH223767   0.245   1.721   8.327 -0.3223  0.2582  0.5631
  711TIP3    H123768   0.303   1.757   8.395  0.0201 -1.1638  1.0839
  711TIP3    H223769   0.266   1.770   8.248 -1.3686  2.5798  1.6519
  712TIP3   OH223770   6.569   4.308   7.273 -0.0646 -0.0854  0.6095
  712TIP3    H123771   6.562   4.229   7.219  0.4187  0.0605  0.3350
  712TIP3    H223772   6.608   4.374   7.216  1.7435 -0.3102  1.4984
  713TIP3   OH223773   0.921   5.099   8.740  0.0036 -0.3513 -0.2181
  713TIP3    H123774   0.980   5.166   8.706  0.7306 -1.0649 -0.3902
  713TIP3    H223775   0.859   5.147   8.795  0.2154  0.5198 -0.7262
  714TIP3   OH223776   4.392   3.896   0.660 -0.5881  0.6252 -0.4166
  714TIP3    H123777   4.441   3.961   0.709 -0.7979  0.1137  0.5021
  714TIP3    H223778   4.456   3.830   0.635 -0.7891 -0.0735  0.8352
  715TIP3   OH223779   1.763   5.503   7.348 -0.1025 -0.2314 -0.2471
  715TIP3    H123780   1.671   5.514   7.374  0.2734 -0.2539  1.1652
  715TIP3    H223781   1.770   5.552   7.266 -0.8184  1.8475  0.8437
  716TIP3   OH223782   2.582   1.373   1.053  0.4773  0.1025  0.6314
  716TIP3    H123783   2.519   1.313   1.093  1.4141 -0.5966  1.0960
  716TIP3    H223784   2.665   1.354   1.097  1.3582 -0.0598 -1.0072
  717TIP3   OH223785   0.850   1.983   0.079 -0.2470  0.0892  0.3388
  717TIP3    H123786   0.775   2.032   0.045 -0.7344 -0.4601  0.6339
  717TIP3    H223787   0.873   2.028   0.160  0.0725  0.5734 -0.0138
  718TIP3   OH223788   5.684   0.032   0.654 -0.1932 -0.3321  0.2938
  718TIP3    H123789   5.730   0.112   0.630 -2.2519  0.7379 -0.2652
  718TIP3    H223790   5.618   0.021   0.585 -1.0429 -1.5828  1.2714
  719TIP3   OH223791   5.429   4.290   2.139 -0.0208 -0.1370 -0.6194
  719TIP3    H123792   5.360   4.302   2.204  0.1078 -0.8449 -0.3461
  719TIP3    H223793   5.393   4.327   2.059  0.0598  1.3268 -0.0121
  720TIP3   OH223794   2.997   6.314   6.464 -0.2459  0.2067  0.2171
  720TIP3    H123795   2.911   6.278   6.444 -0.2871  1.3763 -2.0414
  720TIP3    H223796   2.981   6.375   6.537 -1.0020 -0.7273  0.8666
  721TIP3   OH223797   6.470   4.089   1.345  0.5945  0.5266 -0.0700
  721TIP3    H123798   6.554   4.065   1.306  0.9621  0.9227  0.4546
  721TIP3    H223799   6.451   4.176   1.308  0.9951  0.9493  0.6838
  722TIP3   OH223800   6.707   2.778   2.352  0.1686 -0.0257 -0.2912
  722TIP3    H123801   6.685   2.686   2.362  1.4003 -0.2430  0.7526
  722TIP3    H223802   6.663   2.806   2.272 -0.7294 -1.3526 -0.2760
  723TIP3   OH223803   6.332   6.166   8.556  0.6286  0.1326  0.0846
  723TIP3    H123804   6.341   6.258   8.533 -0.2751  0.1526 -0.2491
  723TIP3    H223805   6.374   6.158   8.641 -0.8830  1.2570  0.9860
  724TIP3   OH223806   2.685   6.269   1.549 -0.3525 -0.2854 -0.1593
  724TIP3    H123807   2.779   6.283   1.559 -0.1151  0.1168 -2.4175
  724TIP3    H223808   2.677   6.178   1.519 -0.7563 -0.5236  0.6349
  725TIP3   OH223809   0.565   3.087   7.042 -0.1184 -0.5671  0.1141
  725TIP3    H123810   0.518   3.081   7.125  0.6623 -0.8907  0.5518
  725TIP3    H223811   0.558   3.179   7.016 -2.7636 -0.9775 -0.9280
  726TIP3   OH223812   2.034   6.833   1.650 -0.4912 -0.1654  0.9479
  726TIP3    H123813   2.027   6.832   1.746  1.1903 -1.2812  1.0939
  726TIP3    H223814   2.098   6.765   1.630 -0.2029  0.6069 -0.9282
  727TIP3   OH223815   3.878   6.278   1.897 -0.0715  0.8395  1.0663
  727TIP3    H123816   3.807   6.224   1.932 -0.9252  1.8651  0.9687
  727TIP3    H223817   3.871   6.360   1.945 -1.0265  2.1523 -1.1435
  728TIP3   OH223818   1.666   1.719   2.287  0.0224 -0.0920 -0.4622
  728TIP3    H123819   1.604   1.770   2.235 -0.5674 -2.6557 -2.5419
  728TIP3    H223820   1.752   1.741   2.251 -0.1924 -0.2523 -1.0856
  729TIP3   OH223821   6.443   3.524   8.614 -0.3568 -0.2297  0.1663
  729TIP3    H123822   6.384   3.594   8.583 -1.6329 -1.5826 -0.6100
  729TIP3    H223823   6.388   3.469   8.669  0.5868 -0.7072  0.6503
  730TIP3   OH223824   1.730   2.632   6.981 -0.2303  0.0311  0.2233
  730TIP3    H123825   1.801   2.584   6.937 -2.1843 -2.5073 -0.3916
  730TIP3    H223826   1.696   2.690   6.913  1.1333  1.2252  0.5029
  731TIP3   OH223827   1.327   3.363   7.448 -0.3154  0.0900 -0.0119
  731TIP3    H123828   1.393   3.426   7.418 -0.4011  0.4068  0.4515
  731TIP3    H223829   1.294   3.322   7.367  0.3264  0.0462 -0.2549
  732TIP3   OH223830   2.922   0.529   0.281  0.4241  0.1102  0.5475
  732TIP3    H123831   2.951   0.443   0.250 -0.0237 -0.0063  0.4440
  732TIP3    H223832   2.986   0.590   0.246 -0.6467  0.1215 -1.5507
  733TIP3   OH223833   3.030   1.614   0.033  0.2412  0.2261  0.0914
  733TIP3    H123834   3.060   1.527   0.061 -0.2749  0.1201  0.3378
  733TIP3    H223835   3.058   1.673   0.103 -0.8507 -0.0043  0.7468
  734TIP3   OH223836   3.927   1.525   8.704 -0.0868 -0.0500  0.3010
  734TIP3    H123837   3.908   1.619   8.707  0.3895  0.0661 -0.2792
  734TIP3    H223838   3.879   1.489   8.779 -0.2108  0.6639  0.5730
  735TIP3   OH223839   4.502   2.195   0.018  0.4391  0.4657 -0.5714
  735TIP3    H123840   4.481   2.288   0.019 -1.6230  0.0553 -0.4444
  735TIP3    H223841   4.460   2.162  -0.062 -0.5521 -0.6853  0.3912
  736TIP3   OH223842   5.307   0.213   8.784  0.3018 -0.0625 -0.1093
  736TIP3    H123843   5.386   0.237   8.832 -0.3558 -0.1368  1.0309
  736TIP3    H223844   5.322   0.123   8.755 -0.0217 -0.6702  1.5348
  737TIP3   OH223845   5.818   1.216   7.451 -0.3377  0.4037 -0.1254
  737TIP3    H123846   5.733   1.177   7.471 -0.2801  0.0342 -0.5764
  737TIP3    H223847   5.877   1.179   7.517  0.0004 -1.3595 -1.3459
  738TIP3   OH223848   3.743   6.206   8.129  0.0680 -0.2920  0.4938
  738TIP3    H123849   3.715   6.224   8.219  0.6182  1.3669  0.3691
  738TIP3    H223850   3.830   6.247   8.123 -0.5303  0.7986 -1.1748
  739TIP3   OH223851   5.677   0.332   1.453  0.6472  0.0871 -0.3959
  739TIP3    H123852   5.602   0.346   1.512 -0.5253  0.5570 -1.9241
  739TIP3    H223853   5.699   0.240   1.464 -0.5646 -0.2175 -0.3361
  740TIP3   OH223854   6.202   1.768   2.221 -0.2295 -0.2182 -0.2432
  740TIP3    H123855   6.164   1.855   2.203  1.5461  0.7694  0.5631
  740TIP3    H223856   6.174   1.715   2.146 -0.9740  1.1630 -1.0057
  741TIP3   OH223857   2.997   3.301   6.341 -0.6245 -0.4516  0.6238
  741TIP3    H123858   2.918   3.299   6.287 -0.1258  2.9260 -0.4304
  741TIP3    H223859   3.062   3.344   6.286  1.2052 -0.8124  2.4138
  742TIP3   OH223860   2.156   1.529   0.234 -0.5947  0.0659 -0.2613
  742TIP3    H123861   2.074   1.577   0.227 -1.0821 -0.5120  1.1651
  742TIP3    H223862   2.222   1.597   0.249 -0.9059  0.4720 -0.6899
  743TIP3   OH223863   6.055   2.575   7.341  0.3641 -0.6304  0.1004
  743TIP3    H123864   6.078   2.580   7.434 -0.6376 -2.5272  0.4921
  743TIP3    H223865   5.963   2.601   7.338  0.6409  0.3062 -0.5047
  744TIP3   OH223866   6.276   4.132   2.605  0.0307  0.3406  0.2022
  744TIP3    H123867   6.274   4.206   2.544 -0.4167 -0.3106 -0.5995
  744TIP3    H223868   6.196   4.140   2.656  0.1085  0.5486  0.2932
  745TIP3   OH223869   0.699   0.602   7.185 -0.7767  0.2551 -0.0322
  745TIP3    H123870   0.784   0.558   7.177 -0.5865  0.8283 -1.8200
  745TIP3    H223871   0.722   0.695   7.194 -1.2021  0.2646  0.9599
  746TIP3   OH223872   4.429   4.185   7.727 -0.5443  0.3814 -0.1238
  746TIP3    H123873   4.500   4.217   7.672 -0.7855 -0.5488 -1.0095
  746TIP3    H223874   4.410   4.258   7.786  1.5568  0.4404  0.5724
  747TIP3   OH223875   1.404   1.738   6.505 -0.9905 -0.4307 -0.2019
  747TIP3    H123876   1.426   1.661   6.453  0.1016 -1.0425  1.0890
  747TIP3    H223877   1.435   1.717   6.593  0.0682  1.7968  0.0312
  748TIP3   OH223878   6.714   5.194   0.641  0.7070 -0.1740  0.0330
  748TIP3    H123879   6.673   5.222   0.559  0.5323 -2.2140 -0.6333
  748TIP3    H223880   6.797   5.240   0.644  1.5107 -1.3428 -2.2074
  749TIP3   OH223881   1.138   0.620   1.576 -0.0870  0.1687  0.0909
  749TIP3    H123882   1.152   0.672   1.655  0.6610  0.4245 -0.1967
  749TIP3    H223883   1.151   0.682   1.504  0.2263 -0.2830 -0.2468
  750TIP3   OH223884   1.390   4.701   1.873 -0.2274 -0.1105  0.1690
  750TIP3    H123885   1.383   4.606   1.866 -0.1691 -0.4037  2.9634
  750TIP3    H223886   1.484   4.718   1.873 -0.2410 -0.0012 -0.6113
  751TIP3   OH223887   2.880   5.779   1.216  0.4243  0.2701 -0.7135
  751TIP3    H123888   2.814   5.788   1.285 -1.3890 -0.1769 -2.2776
  751TIP3    H223889   2.917   5.866   1.206 -1.2417  0.9935 -0.9561
  752TIP3   OH223890   3.231   3.882   7.978  0.1094 -0.1234  0.2513
  752TIP3    H123891   3.207   3.897   8.069  2.6701 -0.0299  0.9965
  752TIP3    H223892   3.280   3.960   7.952  0.7814 -0.8150 -0.6741
  753TIP3   OH223893   5.979   4.220   0.147 -0.0302  0.5586 -0.5407
  753TIP3    H123894   5.910   4.158   0.122  0.5821 -0.0687 -0.6935
  753TIP3    H223895   5.942   4.267   0.221 -0.0024 -0.9159  0.4495
  754TIP3   OH223896   3.642   4.393   1.614  0.1842  0.1421  0.2670
  754TIP3    H123897   3.568   4.355   1.662 -0.0084  1.1448  0.7966
  754TIP3    H223898   3.621   4.487   1.609  0.1367  0.0625 -1.9001
  755TIP3   OH223899   1.456   2.381   7.660 -0.2320  0.2107  0.8453
  755TIP3    H123900   1.394   2.453   7.651  0.4433  0.7107  0.0609
  755TIP3    H223901   1.541   2.424   7.669 -0.0229 -0.4526  2.3116
  756TIP3   OH223902   6.630   2.134   0.977 -0.4708  0.4482 -0.0786
  756TIP3    H123903   6.557   2.078   0.952 -1.7299  2.1307 -0.3506
  756TIP3    H223904   6.689   2.133   0.901 -0.1131 -1.0078  0.1872
  757TIP3   OH223905   4.346   1.805   6.473  0.1056  0.4463 -0.0003
  757TIP3    H123906   4.312   1.773   6.389 -0.2225  0.1893  0.2278
  757TIP3    H223907   4.273   1.852   6.512 -0.0628 -0.3049  0.5968
  758TIP3   OH223908   1.574   1.220   7.352  0.1507  0.0172  0.4051
  758TIP3    H123909   1.503   1.273   7.389 -1.1172 -1.1807 -0.2270
  758TIP3    H223910   1.650   1.241   7.406 -0.3135  2.3940  0.2226
  759TIP3   OH223911   1.705   5.404   0.010  0.1592 -0.0326  0.0800
  759TIP3    H123912   1.759   5.352   0.069 -0.6588 -1.0423 -0.0398
  759TIP3    H223913   1.636   5.441   0.065  0.0912  0.0144 -0.0354
  760TIP3   OH223914   1.123   0.398   7.730  0.3907  0.9877  0.2643
  760TIP3    H123915   1.203   0.381   7.779 -0.0322 -0.4149  0.5110
  760TIP3    H223916   1.084   0.474   7.774  0.1026 -0.1346  2.0741
  761TIP3   OH223917   4.110   1.608   7.144 -0.3061 -0.3977 -0.2595
  761TIP3    H123918   4.142   1.685   7.191  1.1926 -0.7593 -0.6378
  761TIP3    H223919   4.016   1.606   7.163 -0.1928  0.9316  0.5869
  762TIP3   OH223920   0.734   6.348   7.506  1.0629 -0.3695 -0.0739
  762TIP3    H123921   0.688   6.268   7.531 -1.7521  1.0341 -0.3986
  762TIP3    H223922   0.757   6.389   7.589  0.4700 -0.4174  0.1164
  763TIP3   OH223923   1.452   1.426   7.474  0.3279  0.0509  0.2887
  763TIP3    H123924   1.455   1.514   7.438 -0.8766  0.4979  1.2361
  763TIP3    H223925   1.525   1.422   7.535 -0.4784  0.9107  1.3411
  764TIP3   OH223926   0.077   4.101   1.060 -0.0437  0.1022 -0.2731
  764TIP3    H123927   0.126   4.040   1.006  0.3155  1.0407 -1.0333
  764TIP3    H223928   0.139   4.130   1.127  0.7102  1.8558 -1.6795
  765TIP3   OH223929   6.545   0.683   7.125  0.0037 -0.1270  0.1261
  765TIP3    H123930   6.541   0.593   7.093  0.5326  0.2878 -1.1812
  765TIP3    H223931   6.552   0.736   7.046  0.1228  1.0410  0.8963
  766TIP3   OH223932   3.941   0.618   7.308 -0.1480  0.1206 -0.3151
  766TIP3    H123933   3.911   0.684   7.372 -0.9372  0.7210 -1.2758
  766TIP3    H223934   3.914   0.535   7.347 -0.2676  0.4438  0.3219
  767TIP3   OH223935   2.691   5.732   1.408  0.0608  0.4821  0.2598
  767TIP3    H123936   2.739   5.676   1.470 -0.0617 -1.4197 -1.2578
  767TIP3    H223937   2.612   5.682   1.387 -0.1954  1.3614 -0.9523
  768TIP3   OH223938   6.002   3.675   1.485 -0.1282 -0.4114 -0.1170
  768TIP3    H123939   5.917   3.684   1.442  0.4006  0.4594 -1.0378
  768TIP3    H223940   6.065   3.705   1.419  0.8989 -1.1378  0.5174
  769TIP3   OH223941   3.435   2.709   0.811 -0.0046  0.6190 -0.1817
  769TIP3    H123942   3.480   2.625   0.804 -0.3898  0.4827 -1.2588
  769TIP3    H223943   3.361   2.702   0.750  0.1070  1.8323 -0.4901
  770TIP3   OH223944   0.066   6.512   6.410 -0.9915  0.0076  0.3687
  770TIP3    H123945   0.118   6.513   6.330 -0.6468 -1.5422  0.5392
  770TIP3    H223946   0.131   6.507   6.480 -1.3131  0.6231  0.7200
  771TIP3   OH223947   5.388   6.654   2.986  0.2978  0.4110 -0.3024
  771TIP3    H123948   5.320   6.721   2.999  2.8022  2.9759  0.8925
  771TIP3    H223949   5.395   6.645   2.891  0.7083  2.8919 -0.5775
  772TIP3   OH223950   0.067   5.980   0.410  0.2879  0.0709 -0.0076
  772TIP3    H123951   0.095   6.058   0.458  2.7647  0.0019 -1.2081
  772TIP3    H223952   0.137   5.963   0.347 -2.2393 -0.5249 -2.9047
  773TIP3   OH223953   0.155   5.616   0.447  0.4810  0.4900 -0.4341
  773TIP3    H123954   0.073   5.567   0.447  0.5116  0.4114 -1.9006
  773TIP3    H223955   0.218   5.558   0.404  0.6264  1.6053 -1.7769
  774TIP3   OH223956   4.580   3.408   8.142  0.2327 -0.2209  0.8692
  774TIP3    H123957   4.623   3.475   8.090 -0.0381 -1.6677 -1.3236
  774TIP3    H223958   4.507   3.454   8.184 -0.2990  0.7784 -1.0361
  775TIP3   OH223959   4.409   4.224   0.962  0.2170 -0.1577  0.1005
  775TIP3    H123960   4.346   4.153   0.954 -1.2763  1.1449 -0.0662
  775TIP3    H223961   4.480   4.200   0.903 -0.5378 -1.2295 -0.3922
  776TIP3   OH223962   2.274   3.691   8.779  0.2893 -0.3239 -0.1815
  776TIP3    H123963   2.203   3.687   8.714 -0.0109  1.2911  0.0063
  776TIP3    H223964   2.231   3.670   8.862 -0.2133  1.5073  0.0702
  777TIP3   OH223965   2.703   3.646   7.139  0.2177  0.5925  0.3456
  777TIP3    H123966   2.720   3.573   7.079  0.5842 -0.5191  1.7550
  777TIP3    H223967   2.789   3.685   7.152  0.0319  1.2679 -0.3537
  778TIP3   OH223968   1.574   0.596   0.647  0.4339 -0.1518 -0.0598
  778TIP3    H123969   1.571   0.558   0.559 -0.4301  0.2145 -0.1941
  778TIP3    H223970   1.519   0.539   0.700 -1.4977  1.2731 -0.4286
  779TIP3   OH223971   0.238   3.870   1.859  0.0392  0.5184 -0.0526
  779TIP3    H123972   0.321   3.856   1.904 -0.5232  0.4154  0.9837
  779TIP3    H223973   0.222   3.787   1.813  0.3683  0.4379 -0.0228
  780TIP3   OH223974   4.146   3.616   0.843  0.5030 -0.0891  0.3235
  780TIP3    H123975   4.172   3.685   0.783  1.4236  0.5515  1.4287
  780TIP3    H223976   4.078   3.656   0.898  1.3325  0.0901  1.2400
  781TIP3   OH223977   2.558   0.528   8.044  0.0920 -0.4478  0.4728
  781TIP3    H123978   2.570   0.569   8.129  3.6057  1.3279 -0.6817
  781TIP3    H223979   2.639   0.480   8.028 -0.0926 -0.0422 -2.1665
  782TIP3   OH223980   3.041   0.780   0.149 -0.3534 -0.3181  0.7007
  782TIP3    H123981   3.130   0.800   0.119 -1.0109  2.4846  0.2516
  782TIP3    H223982   3.016   0.857   0.200 -2.4368 -1.1466  1.0204
  783TIP3   OH223983   2.240   3.129   6.848  0.2172 -0.1846 -0.1633
  783TIP3    H123984   2.166   3.071   6.869  0.4944 -0.7936 -0.8515
  783TIP3    H223985   2.288   3.137   6.930 -1.5377  1.6143  0.7906
  784TIP3   OH223986   1.126   0.647   8.103 -0.2124 -0.2842 -0.3042
  784TIP3    H123987   1.215   0.658   8.068  0.3357  0.1645  1.1676
  784TIP3    H223988   1.134   0.577   8.167 -0.5678  0.7890  0.9587
  785TIP3   OH223989   5.682   2.300   8.140 -0.0744  0.2848  0.5531
  785TIP3    H123990   5.737   2.342   8.206 -1.0794  1.2852  0.7814
  785TIP3    H223991   5.604   2.355   8.135  0.0236  0.3123 -1.5822
  786TIP3   OH223992   3.035   3.186   7.286  0.3657  0.4532 -0.5478
  786TIP3    H123993   2.960   3.221   7.335  1.0253 -0.4158  1.1777
  786TIP3    H223994   3.059   3.256   7.226 -0.3076  1.7049  0.5773
  787TIP3   OH223995   5.817   2.385   7.312  1.0208  0.6065 -0.0813
  787TIP3    H123996   5.884   2.350   7.253  0.2961  0.3025 -0.7432
  787TIP3    H223997   5.826   2.480   7.304  2.7496  0.6237  1.4463
  788TIP3   OH223998   1.294   5.374   7.619  0.5559  0.0704  0.7181
  788TIP3    H123999   1.247   5.407   7.695 -1.7929  3.0533 -1.7395
  788TIP3    H224000   1.226   5.354   7.555  2.4468 -0.1600 -1.3501
  789TIP3   OH224001   5.744   0.657   2.595 -0.2695 -0.3886 -0.2067
  789TIP3    H124002   5.793   0.594   2.542  1.0675 -0.1168  0.6760
  789TIP3    H224003   5.696   0.709   2.530 -0.1680 -1.2882 -1.0338
  790TIP3   OH224004   0.887   3.859   7.729 -0.7103 -0.4137  0.0016
  790TIP3    H124005   0.869   3.796   7.798  0.3703 -1.2491 -0.4498
  790TIP3    H224006   0.982   3.856   7.719 -0.8752 -0.5846 -1.7612
  791TIP3   OH224007   0.423   2.462   2.743  0.3308 -0.1554  0.2722
  791TIP3    H124008   0.414   2.396   2.812  0.2128  0.9714  1.3624
  791TIP3    H224009   0.512   2.449   2.710  0.5400 -0.4475  0.9197
  792TIP3   OH224010   1.210   0.681   0.704  0.6733 -0.1036 -0.3940
  792TIP3    H124011   1.183   0.713   0.790  0.9802 -1.1207  0.1042
  792TIP3    H224012   1.160   0.600   0.692  1.4184 -0.5322 -0.6834
  793TIP3   OH224013   4.682   3.245   1.136  0.4096  0.1238 -0.3867
  793TIP3    H124014   4.600   3.202   1.110  0.9317 -0.9332 -0.3213
  793TIP3    H224015   4.655   3.310   1.201 -0.0793 -2.3309  2.0296
  794TIP3   OH224016   0.570   4.547   8.031 -0.2729  0.6551 -0.0849
  794TIP3    H124017   0.526   4.484   8.088  0.1247 -1.1990 -1.7309
  794TIP3    H224018   0.654   4.563   8.074  1.0643 -2.5788 -1.1665
  795TIP3   OH224019   5.890   0.846   7.389 -0.3978  0.0317 -0.0331
  795TIP3    H124020   5.804   0.803   7.386 -0.9624  1.0834  0.6473
  795TIP3    H224021   5.952   0.774   7.401 -1.3571 -0.5965  1.4063
  796TIP3   OH224022   3.067   5.470   1.436  0.5322  0.1922 -0.2462
  796TIP3    H124023   3.026   5.400   1.386 -0.3230  0.7774 -0.3844
  796TIP3    H224024   2.995   5.508   1.487  0.8724  1.2981 -0.5637
  797TIP3   OH224025   6.220   5.683   1.053 -0.1490  0.3186 -0.4459
  797TIP3    H124026   6.264   5.672   1.138 -0.2329  0.5007 -0.3774
  797TIP3    H224027   6.223   5.596   1.013  0.4448  0.3733 -0.5264
  798TIP3   OH224028   4.700   3.631   7.428  0.9073  0.0417  0.0614
  798TIP3    H124029   4.780   3.683   7.416  0.0392  1.2372 -0.8568
  798TIP3    H224030   4.691   3.583   7.346 -0.3646  1.4910 -0.7119
  799TIP3   OH224031   4.762   6.728   0.476 -0.1356  0.6069 -0.3443
  799TIP3    H124032   4.753   6.747   0.569 -0.4778 -0.8494 -0.0392
  799TIP3    H224033   4.740   6.635   0.469  3.6643 -0.3662 -1.3145
  800TIP3   OH224034   1.461   1.235   8.708  0.4718 -0.3166  0.6886
  800TIP3    H124035   1.554   1.254   8.692  0.1641 -0.1208 -1.1255
  800TIP3    H224036   1.420   1.245   8.622 -1.1503 -0.9175  1.3596
  801TIP3   OH224037   2.877   3.152   1.751 -0.8988 -0.0840  0.1063
  801TIP3    H124038   2.939   3.081   1.738 -0.6285  0.5827 -3.5909
  801TIP3    H224039   2.924   3.216   1.805  0.8991 -0.4838 -0.9036
  802TIP3   OH224040   2.303   5.280   7.956  0.2690 -0.6437 -0.6384
  802TIP3    H124041   2.309   5.187   7.933  0.7508 -0.3880 -1.6025
  802TIP3    H224042   2.393   5.307   7.971 -0.0383 -0.8794  2.0499
  803TIP3   OH224043   0.571   0.903   1.630 -0.0164  0.4091 -0.3640
  803TIP3    H124044   0.651   0.873   1.586  0.1276  0.3403 -0.0610
  803TIP3    H224045   0.590   0.993   1.656  1.7923 -0.9390  3.8275
  804TIP3   OH224046   3.612   0.952   0.780  0.5638 -0.1415 -0.0294
  804TIP3    H124047   3.649   0.917   0.861  1.1241 -0.7378 -0.5308
  804TIP3    H224048   3.529   0.992   0.806 -0.0647 -1.7642  0.5723
  805TIP3   OH224049   0.492   2.413   1.975 -0.2620  0.1925 -0.2785
  805TIP3    H124050   0.500   2.318   1.966 -1.4120 -0.1601  1.8577
  805TIP3    H224051   0.575   2.440   2.013  0.2453  0.1395 -1.3063
  806TIP3   OH224052   3.629   3.125   1.315  0.7630 -0.1093 -0.2569
  806TIP3    H124053   3.670   3.112   1.230  1.6298  4.0336 -0.6905
  806TIP3    H224054   3.701   3.128   1.377  0.5465  0.9115 -0.0369
  807TIP3   OH224055   5.216   2.690   8.256  0.6814  0.2378 -0.1936
  807TIP3    H124056   5.148   2.702   8.190  1.5001 -0.5774 -1.2062
  807TIP3    H224057   5.230   2.778   8.292 -0.3279  0.5529 -0.5299
  808TIP3   OH224058   4.229   6.096   7.025 -0.2004 -0.0481 -0.4065
  808TIP3    H124059   4.241   6.116   6.932  0.8609  0.5651 -0.1547
  808TIP3    H224060   4.145   6.136   7.048  0.3422  1.2876 -0.6977
  809TIP3   OH224061   3.741   1.778   8.287  0.3531  0.1846  0.0755
  809TIP3    H124062   3.662   1.726   8.267  0.0377 -0.5385  2.7930
  809TIP3    H224063   3.776   1.801   8.201 -3.1737  1.1470 -1.2979
  810TIP3   OH224064   4.354   2.926   7.974 -0.6270  0.0508  0.3978
  810TIP3    H124065   4.267   2.951   7.943 -0.3078  0.0211 -0.5739
  810TIP3    H224066   4.380   2.853   7.918  0.7091  1.1572 -0.5186
  811TIP3   OH224067   5.023   5.387   7.297 -0.1847 -0.8578  0.0783
  811TIP3    H124068   5.041   5.468   7.248  0.6881 -0.9420  0.2426
  811TIP3    H224069   4.985   5.417   7.379 -0.7394 -0.6650 -0.2417
  812TIP3   OH224070   0.441   0.894   1.852 -0.5105  0.2009 -0.0003
  812TIP3    H124071   0.487   0.896   1.768  0.9636 -3.0939  0.5887
  812TIP3    H224072   0.483   0.962   1.904  2.8022 -1.6438 -0.0248
  813TIP3   OH224073   5.036   4.053   2.643  0.7884  0.0481 -0.0706
  813TIP3    H124074   5.048   4.074   2.550  2.2423 -0.4404 -0.0299
  813TIP3    H224075   5.114   4.089   2.685  0.2911 -0.0150  0.9209
  814TIP3   OH224076   3.923   5.035   0.467  0.1697  0.5654  0.0106
  814TIP3    H124077   3.912   5.076   0.381  1.0202  1.5417  0.3402
  814TIP3    H224078   3.987   5.091   0.512  0.2448 -0.3095  1.0339
  815TIP3   OH224079   2.914   0.263   8.216  0.2747  0.5534  0.2514
  815TIP3    H124080   2.928   0.296   8.128 -0.6233 -0.9618 -0.5028
  815TIP3    H224081   2.830   0.218   8.212 -0.6198  1.8776  2.3340
  816TIP3   OH224082   1.405   4.779   0.022 -0.2668  0.4077 -0.0222
  816TIP3    H124083   1.409   4.685   0.042 -1.0145  0.4744  0.4756
  816TIP3    H224084   1.419   4.784  -0.072 -0.4724 -0.2269 -0.0915
  817TIP3   OH224085   2.840   4.942   6.561  0.2414  0.1598 -0.2535
  817TIP3    H124086   2.757   4.895   6.567  0.8803 -0.8026  2.6816
  817TIP3    H224087   2.866   4.957   6.652  2.1112  2.6183 -1.0901
  818TIP3   OH224088   3.839   5.845   7.107 -0.1193 -0.2834  0.4293
  818TIP3    H124089   3.837   5.795   7.189 -0.0997  0.4120  0.8655
  818TIP3    H224090   3.759   5.896   7.108 -0.7498 -1.2132 -0.6136
  819TIP3   OH224091   2.776   2.809   2.265  0.2106  0.5233 -0.2390
  819TIP3    H124092   2.868   2.787   2.284  0.3541  0.3064 -1.1433
  819TIP3    H224093   2.731   2.792   2.348  0.8837  0.0149  0.0440
  820TIP3   OH224094   5.870   4.809   6.620 -0.4113 -0.2499 -0.9241
  820TIP3    H124095   5.896   4.894   6.586  0.3424  0.6207  1.5869
  820TIP3    H224096   5.803   4.829   6.686  1.3505 -1.2774  1.3458
  821TIP3   OH224097   0.758   4.531   8.263 -0.6332  0.0114  0.5067
  821TIP3    H124098   0.794   4.449   8.229 -2.9103 -0.3436 -1.3147
  821TIP3    H224099   0.705   4.504   8.338  0.7012  0.1849  1.5284
  822TIP3   OH224100   5.864   5.272   6.844 -0.2010  0.0074 -0.1484
  822TIP3    H124101   5.791   5.296   6.900  0.2788  0.5364  0.2599
  822TIP3    H224102   5.902   5.194   6.886 -0.1286  0.1235  0.0006
  823TIP3   OH224103   4.195   0.907   7.011 -0.1028 -0.0280 -0.1687
  823TIP3    H124104   4.215   0.923   6.919 -0.2753  1.9239  0.0760
  823TIP3    H224105   4.278   0.876   7.049  0.9632  2.3428 -0.3597
  824TIP3   OH224106   1.370   5.793   1.623 -0.8085 -0.4056  0.5367
  824TIP3    H124107   1.298   5.827   1.676 -1.4297 -2.2139  0.9245
  824TIP3    H224108   1.386   5.706   1.658  0.2527 -0.7975 -0.8526
  825TIP3   OH224109   4.734   6.024   8.631  0.0876  0.1771 -0.0766
  825TIP3    H124110   4.733   6.083   8.556 -2.3487 -0.0611 -0.3252
  825TIP3    H224111   4.744   5.937   8.593 -1.1380  0.0572 -0.1945
  826TIP3   OH224112   4.213   3.901   8.720 -0.3303 -0.5123  0.0887
  826TIP3    H124113   4.188   3.922   8.630 -0.3580 -0.5966  0.0763
  826TIP3    H224114   4.152   3.950   8.775 -0.7818 -1.0359  0.0561
  827TIP3   OH224115   0.801   3.114   0.182 -0.6500  0.4934  0.7169
  827TIP3    H124116   0.754   3.052   0.237 -0.1535  0.7016  1.3799
  827TIP3    H224117   0.801   3.195   0.232  2.4870 -0.0974  1.8715
  828TIP3   OH224118   3.267   4.498   0.315 -0.1433 -0.4043  0.3835
  828TIP3    H124119   3.289   4.565   0.251  0.5726 -1.1676 -0.1878
  828TIP3    H224120   3.262   4.545   0.398 -2.6904  0.8944 -0.4153
  829TIP3   OH224121   5.438   6.636   1.005 -0.6211 -0.3916  0.1428
  829TIP3    H124122   5.392   6.552   1.004  1.2735 -1.5171  1.1009
  829TIP3    H224123   5.441   6.661   1.097 -1.5763  1.0018 -0.1768
  830TIP3   OH224124   3.077   1.087   1.093 -0.0422 -0.1561  0.2081
  830TIP3    H124125   3.047   1.017   1.035  1.8404 -1.3025  0.5311
  830TIP3    H224126   3.014   1.088   1.165 -1.0861 -0.2867 -0.6772
  831TIP3   OH224127   1.081   0.897   8.682  0.6284 -0.8578  0.2671
  831TIP3    H124128   1.151   0.837   8.657  0.5373 -0.4099 -1.1763
  831TIP3    H224129   1.110   0.982   8.649  0.3002 -0.2972  1.3938
  832TIP3   OH224130   4.473   5.669   8.491  0.0807  0.1228  0.2730
  832TIP3    H124131   4.473   5.682   8.586 -2.4430  0.6318  0.2704
  832TIP3    H224132   4.413   5.735   8.457  0.2226 -0.6441 -1.6090
  833TIP3   OH224133   4.550   5.736   0.729  0.1258  0.6722 -0.7693
  833TIP3    H124134   4.524   5.721   0.638 -1.5447  0.4348 -0.2845
  833TIP3    H224135   4.470   5.721   0.780  1.4193 -0.9977  0.9283
  834TIP3   OH224136   6.788   3.977   0.411 -0.2478  0.2347  0.5611
  834TIP3    H124137   6.719   4.041   0.389  0.7460  1.5040  0.9808
  834TIP3    H224138   6.839   3.969   0.331  0.8721  1.6240  1.0940
  835TIP3   OH224139   2.387   4.893   0.676 -0.1115 -0.2581  0.4412
  835TIP3    H124140   2.379   4.904   0.581 -0.8650  1.4635  0.6596
  835TIP3    H224141   2.470   4.936   0.698 -0.8842  1.1235  0.7687
  836TIP3   OH224142   4.524   3.187   1.718 -0.1335 -0.0552 -0.5720
  836TIP3    H124143   4.591   3.142   1.666  0.2602  0.6291 -0.6805
  836TIP3    H224144   4.444   3.176   1.668  0.1019 -0.0248 -0.9640
  837TIP3   OH224145   3.137   4.259   0.318  0.0907  0.1347  0.5342
  837TIP3    H124146   3.190   4.338   0.307 -0.6541  0.4930 -0.6431
  837TIP3    H224147   3.074   4.282   0.386 -1.7973  1.5257 -1.5574
  838TIP3   OH224148   3.562   6.046   8.333  0.4733  0.4312  0.0680
  838TIP3    H124149   3.469   6.062   8.316  0.6403  1.5055  0.1150
  838TIP3    H224150   3.592   6.000   8.254 -0.0813  0.1243  0.0266
  839TIP3   OH224151   3.818   5.561   8.024 -0.2364  0.2879  0.5581
  839TIP3    H124152   3.860   5.634   7.977  0.9388 -1.7032 -1.7277
  839TIP3    H224153   3.884   5.531   8.086  1.2549 -1.6912 -1.7859
  840TIP3   OH224154   2.631   4.162   8.039  0.0986  0.2640 -0.1562
  840TIP3    H124155   2.553   4.130   8.084  0.9631 -1.0289  0.5012
  840TIP3    H224156   2.704   4.121   8.086  1.4404  4.0684  1.5073
  841TIP3   OH224157   5.513   5.853   6.875 -0.4281  0.7445  0.0207
  841TIP3    H124158   5.547   5.780   6.823  1.8950  1.9430 -0.2848
  841TIP3    H224159   5.501   5.924   6.812  0.4994  1.5989  0.7618
  842TIP3   OH224160   4.402   5.074   1.533  0.1906 -0.0040 -0.5801
  842TIP3    H124161   4.436   5.110   1.615 -0.7669  2.4761 -1.1941
  842TIP3    H224162   4.477   5.030   1.494  0.9096 -0.4199  1.1656
  843TIP3   OH224163   0.365   4.296   7.971 -0.2553  0.0812  0.6752
  843TIP3    H124164   0.273   4.322   7.960 -0.7741 -1.9925 -0.2885
  843TIP3    H224165   0.389   4.333   8.056 -1.3968  2.1932  0.1647
  844TIP3   OH224166   5.820   3.918   6.745  0.0087 -0.1239  0.1999
  844TIP3    H124167   5.913   3.932   6.727 -0.0632 -1.6179 -1.6868
  844TIP3    H224168   5.819   3.853   6.816  0.4780 -1.6507 -1.1296
  845TIP3   OH224169   3.329   6.009   8.216  0.1660  0.8948  0.0868
  845TIP3    H124170   3.247   5.963   8.233  1.3642 -1.8952 -1.0680
  845TIP3    H224171   3.333   6.019   8.121  1.5722  0.0455  0.0161
  846TIP3   OH224172   2.089   3.544   1.438  0.2849 -0.1279  0.2348
  846TIP3    H124173   2.145   3.467   1.434 -1.4151 -1.4572  1.0124
  846TIP3    H224174   2.053   3.543   1.527 -0.6745  0.9195 -0.1187
  847TIP3   OH224175   2.382   0.916   7.287 -0.6090  0.0108  0.1340
  847TIP3    H124176   2.289   0.896   7.293 -0.7479  0.0576 -1.3242
  847TIP3    H224177   2.386   1.005   7.251  0.0074  0.4948  1.3500
  848TIP3   OH224178   1.763   2.548   1.826  0.1136  0.3118  0.4512
  848TIP3    H124179   1.770   2.458   1.857  3.6371  0.3024  0.0180
  848TIP3    H224180   1.803   2.601   1.895 -3.1613  1.8834  1.3803
  849TIP3   OH224181   5.420   3.179   1.304 -0.0464  0.0994 -0.6081
  849TIP3    H124182   5.495   3.200   1.249  1.6220 -0.6338  1.2430
  849TIP3    H224183   5.373   3.262   1.314  0.1807  0.4546 -2.2445
  850TIP3   OH224184   6.057   3.106   0.853  0.6429 -0.6611  0.5096
  850TIP3    H124185   6.146   3.129   0.827  0.8364 -2.3114 -0.4037
  850TIP3    H224186   6.062   3.094   0.948  0.5237  2.8027  1.0954
  851TIP3   OH224187   3.781   0.654   7.714 -0.1348 -0.2560 -0.3093
  851TIP3    H124188   3.721   0.676   7.785 -0.7163  1.3663 -1.2610
  851TIP3    H224189   3.845   0.725   7.715 -0.3200 -0.0594 -1.5783
  852TIP3   OH224190   3.371   0.181   6.777  0.2512 -0.4092  0.2232
  852TIP3    H124191   3.312   0.110   6.802 -0.9759  0.1406 -1.0004
  852TIP3    H224192   3.458   0.142   6.780 -0.3672 -1.8719 -0.0852
  853TIP3   OH224193   3.150   3.518   6.842  0.1512 -0.3428 -0.1271
  853TIP3    H124194   3.199   3.590   6.802  0.3244 -0.3694  0.0360
  853TIP3    H224195   3.214   3.447   6.849  0.3470 -0.0705  0.9542
  854TIP3   OH224196   5.585   2.098   8.668 -0.1729 -0.0279  0.0451
  854TIP3    H124197   5.563   2.140   8.751 -1.6473 -2.2568  0.8828
  854TIP3    H224198   5.673   2.065   8.681  0.3696  1.3199 -0.0386
  855TIP3   OH224199   2.905   5.244   8.292 -0.4587  0.2872 -0.8622
  855TIP3    H124200   2.850   5.240   8.371 -0.5039  0.8920 -0.8553
  855TIP3    H224201   2.868   5.178   8.234 -1.1361  0.6140 -0.8163
  856TIP3   OH224202   1.195   3.842   0.040 -0.0187  0.0509 -0.0350
  856TIP3    H124203   1.227   3.773  -0.019  0.3818 -1.9578  2.3749
  856TIP3    H224204   1.108   3.812   0.067 -0.1354  0.8514  0.5128
  857TIP3   OH224205   5.082   3.317   1.329 -1.0966  0.3224  0.2774
  857TIP3    H124206   5.052   3.263   1.402 -1.1619  0.1940  0.1560
  857TIP3    H224207   5.064   3.407   1.357  0.2178  0.3757  1.0350
  858TIP3   OH224208   3.179   4.612   7.939 -0.1247  0.3423 -0.5341
  858TIP3    H124209   3.274   4.607   7.925 -0.0179  1.8833 -0.5008
  858TIP3    H224210   3.170   4.648   8.027 -0.7637 -0.3224 -0.3167
  859TIP3   OH224211   5.699   0.986   8.599 -0.2421  0.0566  0.3715
  859TIP3    H124212   5.606   0.968   8.591 -0.5484  1.3517  0.8235
  859TIP3    H224213   5.711   1.072   8.559  0.9980 -0.6608 -0.8925
  860TIP3   OH224214   2.145   3.541   0.683  0.3665  0.1622 -0.1688
  860TIP3    H124215   2.166   3.510   0.772 -3.4044  0.8922  1.1335
  860TIP3    H224216   2.181   3.630   0.680  0.1406  0.3007  0.8098
  861TIP3   OH224217   4.136   1.260   2.556 -0.6733 -0.1320  0.1380
  861TIP3    H124218   4.154   1.337   2.608 -1.5207  1.0896 -1.2685
  861TIP3    H224219   4.046   1.236   2.579 -1.4378  1.0390 -1.4002
  862TIP3   OH224220   5.433   5.206   8.486  0.3206 -0.4206 -0.1470
  862TIP3    H124221   5.480   5.260   8.550 -0.8714  0.0318  0.3819
  862TIP3    H224222   5.398   5.134   8.538 -3.2265  1.4795  0.4780
  863TIP3   OH224223   1.077   1.864   1.497  0.3936  0.3207  0.4024
  863TIP3    H124224   1.091   1.848   1.590  1.1223  1.3170  0.4797
  863TIP3    H224225   1.071   1.776   1.458  0.8180 -0.1083  1.2824
  864TIP3   OH224226   2.435   2.107   1.627 -0.3719  0.4207  0.0427
  864TIP3    H124227   2.503   2.056   1.584  1.0804  0.4599  2.1701
  864TIP3    H224228   2.368   2.043   1.651 -0.4652  0.1712 -0.8569
  865TIP3   OH224229   2.562   0.963   0.077 -0.8483  0.6407  0.3935
  865TIP3    H124230   2.657   0.961   0.085 -0.9229  1.0093  1.5823
  865TIP3    H224231   2.541   0.891   0.017  0.0551 -0.7191  1.6408
  866TIP3   OH224232   3.668   5.138   1.441  0.2420  0.4285 -0.0967
  866TIP3    H124233   3.723   5.099   1.374 -0.6610 -0.3537 -0.4024
  866TIP3    H224234   3.580   5.139   1.404 -0.5196 -1.1594  1.4817
  867TIP3   OH224235   5.733   1.248   8.527 -0.4014 -0.4027 -0.2947
  867TIP3    H124236   5.786   1.320   8.493 -1.3808  0.1346 -0.7436
  867TIP3    H224237   5.718   1.272   8.619 -0.6743 -0.0504 -0.4262
  868TIP3   OH224238   5.441   1.484   1.456 -0.0902  0.4817  0.2807
  868TIP3    H124239   5.420   1.534   1.377  0.7252 -2.3164 -1.8700
  868TIP3    H224240   5.359   1.442   1.480 -0.0134  0.2079  0.0633
  869TIP3   OH224241   5.424   6.300   8.344  0.5055  0.5361  0.3335
  869TIP3    H124242   5.452   6.391   8.336  3.6733 -0.3842 -0.1439
  869TIP3    H224243   5.456   6.272   8.430 -1.7869  0.2303  1.1589
  870TIP3   OH224244   1.163   5.807   8.587  0.3201 -0.2212  0.2724
  870TIP3    H124245   1.122   5.808   8.500 -0.4682  1.4837  0.6114
  870TIP3    H224246   1.233   5.873   8.581 -0.1960  0.4267  1.1141
  871TIP3   OH224247   4.040   0.941   0.030 -0.7011  0.2068 -0.6181
  871TIP3    H124248   4.057   0.941   0.125  1.2163  0.3297 -0.9132
  871TIP3    H224249   3.968   0.880   0.018 -1.9549  1.2643  1.0653
  872TIP3   OH224250   3.726   4.804   7.300 -0.7006  0.3088 -0.0831
  872TIP3    H124251   3.804   4.769   7.258 -2.1268 -2.0422 -0.9071
  872TIP3    H224252   3.738   4.784   7.393  0.3131  1.3084  0.0251
  873TIP3   OH224253   1.157   3.874   7.691 -0.0555  0.4327  0.1378
  873TIP3    H124254   1.209   3.803   7.653 -0.5362  0.5605 -0.7789
  873TIP3    H224255   1.192   3.885   7.779 -0.0828 -1.0645  0.3645
  874TIP3   OH224256   0.144   3.205   0.711 -0.9032 -0.0943 -0.3727
  874TIP3    H124257   0.118   3.271   0.647  0.4011 -0.2755 -1.1150
  874TIP3    H224258   0.137   3.122   0.664 -0.6405 -0.2988 -0.0544
  875TIP3   OH224259   6.780   2.140   6.889 -0.6471  0.0474 -0.4709
  875TIP3    H124260   6.783   2.219   6.943  0.9061 -0.8113  0.8123
  875TIP3    H224261   6.753   2.170   6.803  2.0598  2.3656 -0.6482
  876TIP3   OH224262   2.490   5.549   1.369 -0.3257 -0.4708  0.2616
  876TIP3    H124263   2.479   5.579   1.279  0.8133 -0.1317  0.2295
  876TIP3    H224264   2.442   5.467   1.373  0.8855 -1.2767 -1.0830
  877TIP3   OH224265   2.613   6.495   2.099 -0.1112  0.2413  0.4901
  877TIP3    H124266   2.650   6.483   2.187  0.4411 -2.7036 -0.0134
  877TIP3    H224267   2.522   6.518   2.114  0.1388  0.4523  1.8356
  878TIP3   OH224268   2.177   6.587   6.862  0.1114  0.2121 -0.1359
  878TIP3    H124269   2.209   6.497   6.865  2.2067  0.9152  0.2169
  878TIP3    H224270   2.131   6.594   6.778  1.3044 -0.7497 -0.8891
  879TIP3   OH224271   0.758   6.657   2.218 -0.2360 -0.3432  0.4613
  879TIP3    H124272   0.679   6.694   2.256 -0.5839 -1.0552  0.4556
  879TIP3    H224273   0.830   6.703   2.262 -0.5736 -2.0567  3.0619
  880TIP3   OH224274   3.258   0.361   6.601 -0.2010  0.5963  0.2486
  880TIP3    H124275   3.189   0.295   6.610  0.1639  0.0017 -1.0553
  880TIP3    H224276   3.332   0.325   6.650 -0.4517  0.7107  0.7166
  881TIP3   OH224277   1.927   2.056   8.286 -0.0405 -0.2424  0.3168
  881TIP3    H124278   1.850   2.105   8.258  0.1810  0.4660  0.9014
  881TIP3    H224279   1.957   2.010   8.208  0.1911  1.1732 -0.4580
  882TIP3   OH224280   3.207   3.401   8.443  0.5003  0.1575 -0.4534
  882TIP3    H124281   3.149   3.477   8.442 -0.2652 -0.3622  1.0780
  882TIP3    H224282   3.252   3.404   8.358 -0.2765  1.7089 -0.8530
  883TIP3   OH224283   6.091   2.494   7.604  0.2485 -0.0875  0.2145
  883TIP3    H124284   6.113   2.429   7.671 -1.6774 -2.2080 -1.0749
  883TIP3    H224285   6.175   2.524   7.571  1.2798 -3.0446 -0.1389
  884TIP3   OH224286   5.102   4.194   1.837 -0.0195  0.2461  0.5049
  884TIP3    H124287   5.149   4.149   1.767 -1.6180 -0.0161 -0.4620
  884TIP3    H224288   5.132   4.152   1.918  1.3392  0.0693 -0.0734
  885TIP3   OH224289   5.112   5.563   8.285 -0.0974  0.0899  0.0084
  885TIP3    H124290   5.183   5.498   8.279  0.4721  0.7340 -0.4909
  885TIP3    H224291   5.092   5.583   8.194 -0.1296  0.7583  0.1608
  886TIP3   OH224292   2.722   4.641   8.341  0.1587 -0.1814  0.4902
  886TIP3    H124293   2.674   4.559   8.356  0.6510 -0.5175  0.2288
  886TIP3    H224294   2.754   4.666   8.428  0.1933 -0.3777  0.5348
  887TIP3   OH224295   5.501   6.712   1.270 -0.1465 -0.1904  0.8169
  887TIP3    H124296   5.483   6.640   1.330  0.8807  0.7977  2.3666
  887TIP3    H224297   5.460   6.788   1.310  0.5360  0.4831  0.2675
  888TIP3   OH224298   2.161   5.538   0.680 -0.3657 -0.2831  0.0927
  888TIP3    H124299   2.107   5.617   0.682  0.7134  0.4648  0.7543
  888TIP3    H224300   2.111   5.474   0.731 -0.4347  0.5488  1.1280
  889TIP3   OH224301   1.124   1.773   6.532  0.2851 -0.1304 -0.1000
  889TIP3    H124302   1.119   1.861   6.569 -0.0149  0.4497 -1.4585
  889TIP3    H224303   1.213   1.767   6.497  1.2468 -1.4027  2.3800
  890TIP3   OH224304   3.953   2.183   7.909 -0.0292 -0.1788  0.4841
  890TIP3    H124305   3.870   2.182   7.863  0.1562 -0.9952  0.1645
  890TIP3    H224306   3.992   2.097   7.892  1.8285  0.8939 -1.1092
  891TIP3   OH224307   5.981   4.358   2.185 -0.1313  0.0750 -0.0916
  891TIP3    H124308   6.037   4.428   2.220  0.6866 -0.7143  0.2049
  891TIP3    H224309   5.974   4.295   2.256  0.6685 -1.0365 -0.9583
  892TIP3   OH224310   2.508   2.471   7.969  0.6787 -0.0260  0.3851
  892TIP3    H124311   2.551   2.506   8.047  0.4078  0.2339  0.4165
  892TIP3    H224312   2.580   2.453   7.908  0.9303 -0.6455  0.8555
  893TIP3   OH224313   1.152   1.711   1.989  0.1105  0.0831 -0.1312
  893TIP3    H124314   1.194   1.764   2.057 -0.6430 -0.5580  0.8825
  893TIP3    H224315   1.084   1.662   2.036 -0.9133  0.1420 -1.4907
  894TIP3   OH224316   6.860   3.679   1.118  0.3034 -0.3113 -0.1209
  894TIP3    H124317   6.869   3.764   1.075 -0.7907  0.8382  1.7643
  894TIP3    H224318   6.767   3.658   1.111  0.1294 -0.1803  1.4250
  895TIP3   OH224319   5.461   4.203   7.940  0.4760 -0.3309 -0.8300
  895TIP3    H124320   5.521   4.192   7.867  1.7301  1.3206 -0.1057
  895TIP3    H224321   5.472   4.294   7.967 -0.1777 -0.8033  1.2105
  896TIP3   OH224322   1.834   2.965   8.139  0.4276  0.3583  0.0393
  896TIP3    H124323   1.808   2.887   8.089  1.3122  0.4055 -0.5252
  896TIP3    H224324   1.778   2.964   8.216  0.2035 -0.6664 -0.1191
  897TIP3   OH224325   0.740   5.751   8.247 -0.0534  0.0279  0.0894
  897TIP3    H124326   0.660   5.713   8.283  0.1195  0.4589  0.9642
  897TIP3    H224327   0.769   5.814   8.314  0.9022  0.0217 -0.2969
  898TIP3   OH224328   4.772   6.688   1.042  0.3405  0.1802  0.1591
  898TIP3    H124329   4.692   6.635   1.048  0.4547 -0.4164 -2.5305
  898TIP3    H224330   4.747   6.772   1.081 -1.3583 -0.2675  0.1315
  899TIP3   OH224331   3.934   5.155   0.231 -0.1163 -0.0405  0.7833
  899TIP3    H124332   3.997   5.100   0.185 -0.7672 -0.1721  0.0146
  899TIP3    H224333   3.959   5.245   0.208 -0.5971 -0.1142 -0.0607
  900TIP3   OH224334   6.291   1.607   8.515  0.2895  0.3510 -0.3172
  900TIP3    H124335   6.284   1.590   8.609 -0.6459  2.1293 -0.0123
  900TIP3    H224336   6.314   1.523   8.477 -0.0549 -0.5838  1.4210
  901TIP3   OH224337   5.123   2.966   1.766 -0.3318 -0.6890  0.4857
  901TIP3    H124338   5.151   2.889   1.817  1.6956  0.0966  0.6368
  901TIP3    H224339   5.032   2.981   1.794 -0.4189 -2.3664  1.2481
  902TIP3   OH224340   5.018   5.333   6.245 -0.0444  0.2664  0.0979
  902TIP3    H124341   4.958   5.371   6.181 -0.4792  1.4638  1.1698
  902TIP3    H224342   5.027   5.401   6.312  1.8326 -0.2360  0.3969
  903TIP3   OH224343   5.608   5.653   6.692  0.0375 -0.0526 -0.4618
  903TIP3    H124344   5.634   5.629   6.603  1.7386  0.5841 -0.1752
  903TIP3    H224345   5.677   5.618   6.747  0.2263  1.5372  0.3734
  904TIP3   OH224346   1.000   5.697   0.612 -0.7098  0.4011  0.6313
  904TIP3    H124347   0.996   5.767   0.678 -2.0392  0.7448  0.2323
  904TIP3    H224348   0.972   5.618   0.659  2.1172 -0.2068  1.4339
  905TIP3   OH224349   3.352   6.852   8.143 -0.6424  0.0439 -0.5210
  905TIP3    H124350   3.257   6.855   8.152 -0.5441  0.8859  0.4670
  905TIP3    H224351   3.378   6.771   8.187 -0.8161  0.4093  0.2728
  906TIP3   OH224352   3.671   0.639   0.973  0.4581  0.2864 -0.2990
  906TIP3    H124353   3.619   0.638   0.893  1.5209 -0.6671 -1.0012
  906TIP3    H224354   3.633   0.571   1.028  0.6910 -0.1043 -0.6244
  907TIP3   OH224355   1.745   5.298   2.441 -0.5185 -0.1513  0.4504
  907TIP3    H124356   1.802   5.361   2.397 -0.4804 -0.5989 -0.1497
  907TIP3    H224357   1.678   5.352   2.484 -2.0727  0.2512 -2.2375
  908TIP3   OH224358   1.748   2.270   7.888 -0.1058 -0.4967  0.4879
  908TIP3    H124359   1.775   2.287   7.798 -0.5622  1.7865  0.7293
  908TIP3    H224360   1.660   2.307   7.893  0.0384 -0.3295  1.9640
  909TIP3   OH224361   1.749   4.792   8.312 -0.0420  0.1295 -0.4827
  909TIP3    H124362   1.678   4.753   8.261  0.1578 -1.1449  0.1887
  909TIP3    H224363   1.829   4.764   8.269  0.0966  0.2458 -0.3043
  910TIP3   OH224364   1.225   4.758   7.028 -0.4064 -0.3594 -0.0508
  910TIP3    H124365   1.154   4.801   7.074  1.2072  1.2079  1.1052
  910TIP3    H224366   1.275   4.713   7.096  0.5999 -0.0977 -0.5842
  911TIP3   OH224367   2.159   2.404   1.037  0.4491  0.2829 -0.1218
  911TIP3    H124368   2.091   2.464   1.067 -0.2717 -0.3141 -0.5213
  911TIP3    H224369   2.241   2.451   1.050 -0.1081  1.4096 -0.5624
  912TIP3   OH224370   5.846   2.597   7.687 -0.4236  0.1478  0.3642
  912TIP3    H124371   5.921   2.566   7.635  0.4030  0.3596  1.3946
  912TIP3    H224372   5.817   2.676   7.642  1.2619  1.2097  1.0498
  913TIP3   OH224373   3.893   4.325   7.555 -0.0708  0.0491 -0.5487
  913TIP3    H124374   3.847   4.397   7.512  0.8369  0.0615 -1.5400
  913TIP3    H224375   3.904   4.354   7.645 -1.2095  0.4136 -0.5101
  914TIP3   OH224376   1.588   6.569   8.120 -0.0299  0.3413  0.0929
  914TIP3    H124377   1.676   6.544   8.093 -0.4481 -0.0646 -0.9468
  914TIP3    H224378   1.571   6.517   8.198  0.6578  0.4402  0.3143
  915TIP3   OH224379   5.904   0.323   7.995  0.2118 -0.4112  0.8232
  915TIP3    H124380   5.922   0.332   7.902  0.4666 -0.2487  0.8889
  915TIP3    H224381   5.967   0.380   8.038 -1.0093  0.8443  1.0116
  916TIP3   OH224382   6.147   1.762   8.349 -0.0902 -0.1193  0.0467
  916TIP3    H124383   6.209   1.719   8.408 -0.5958 -0.2093  0.5263
  916TIP3    H224384   6.192   1.842   8.322 -0.1349  0.3133  1.1646
  917TIP3   OH224385   0.460   0.208   6.598  0.1279  0.3361  0.0922
  917TIP3    H124386   0.429   0.269   6.532  0.4959 -0.0822 -0.4708
  917TIP3    H224387   0.461   0.259   6.679 -1.7626  0.4578  0.0934
  918TIP3   OH224388   3.967   4.500   1.743  0.3108 -0.9174  0.4584
  918TIP3    H124389   3.892   4.445   1.767 -0.3383 -0.3157 -0.1692
  918TIP3    H224390   3.932   4.565   1.683  1.0787  0.1577  1.1279
  919TIP3   OH224391   0.199   0.832   2.566 -0.1322  0.2204 -0.2631
  919TIP3    H124392   0.144   0.767   2.522 -2.1030  1.3392  0.4209
  919TIP3    H224393   0.289   0.807   2.544 -0.9088 -1.5625 -1.6063
  920TIP3   OH224394   2.525   3.032   7.618 -0.3115  0.0194 -0.2776
  920TIP3    H124395   2.461   2.962   7.627 -1.3973  0.7977 -1.5892
  920TIP3    H224396   2.609   2.991   7.639 -1.0532 -1.4079 -0.0202
  921TIP3   OH224397   4.363   6.663   6.517 -0.0344 -0.5357  0.8613
  921TIP3    H124398   4.297   6.720   6.558 -0.3138  0.5034 -0.8801
  921TIP3    H224399   4.313   6.613   6.452  0.7270 -0.3749  0.1363
  922TIP3   OH224400   6.623   6.613   2.561  0.1298  0.5839  0.4683
  922TIP3    H124401   6.650   6.578   2.476  0.4768 -0.6666  1.0732
  922TIP3    H224402   6.704   6.620   2.612 -0.2371  0.0666  1.1374
  923TIP3   OH224403   6.804   3.775   7.332 -0.5124  0.2405  0.4534
  923TIP3    H124404   6.813   3.778   7.427 -1.9503  2.9294  0.6027
  923TIP3    H224405   6.830   3.862   7.303  2.2282 -1.1854 -1.9763
  924TIP3   OH224406   3.149   0.577   1.420 -0.2745  0.5058 -0.2274
  924TIP3    H124407   3.206   0.619   1.356 -0.3652  0.7847 -0.1270
  924TIP3    H224408   3.066   0.567   1.373 -0.7342  1.8652  0.2386
  925TIP3   OH224409   6.788   6.057   8.200  0.3154  0.2798  0.2467
  925TIP3    H124410   6.768   5.983   8.143  0.4271  0.4373  0.0005
  925TIP3    H224411   6.883   6.067   8.194  0.3597  0.1331  0.6646
  926TIP3   OH224412   0.070   1.075   7.112 -0.2873 -0.8487 -1.0432
  926TIP3    H124413   0.050   1.047   7.023 -1.6247  0.8408 -1.3297
  926TIP3    H224414   0.058   1.170   7.110 -1.7430 -0.9241  1.2833
  927TIP3   OH224415   3.163   1.049   7.761  0.0908  0.5237 -0.2942
  927TIP3    H124416   3.210   1.112   7.815 -0.1232  1.1616 -0.8378
  927TIP3    H224417   3.163   0.969   7.813  0.0688  1.0596  0.5617
  928TIP3   OH224418   0.495   3.386   7.944 -0.4170  0.6544 -0.3153
  928TIP3    H124419   0.548   3.394   7.865  0.1812 -2.3225 -0.3532
  928TIP3    H224420   0.546   3.430   8.012  1.1425 -0.3745 -0.7728
  929TIP3   OH224421   3.526   6.291   1.232  0.1702  0.7047 -0.0629
  929TIP3    H124422   3.433   6.299   1.255 -0.2215 -0.0975 -1.2661
  929TIP3    H224423   3.526   6.281   1.137  1.5732  1.6985 -0.1962
  930TIP3   OH224424   1.245   1.711   8.667 -0.1526 -0.7631  0.3117
  930TIP3    H124425   1.162   1.757   8.660 -1.2859 -2.8599 -1.0977
  930TIP3    H224426   1.311   1.777   8.646 -1.5382  0.6617  0.3145
  931TIP3   OH224427   3.455   2.282   1.252  0.5495  0.2460  0.5261
  931TIP3    H124428   3.394   2.240   1.191 -0.2424 -0.4845  1.7816
  931TIP3    H224429   3.502   2.346   1.198  0.7666 -1.2188 -1.1404
  932TIP3   OH224430   1.779   5.781   1.046 -0.0466 -0.2346  0.0656
  932TIP3    H124431   1.765   5.708   0.986 -1.7019  1.2186 -1.4345
  932TIP3    H224432   1.713   5.768   1.115 -0.2850 -0.2147 -0.1555
  933TIP3   OH224433   6.290   2.339   1.201  0.5377 -0.0857 -0.2631
  933TIP3    H124434   6.379   2.304   1.207  0.0140 -1.4009  0.1044
  933TIP3    H224435   6.300   2.423   1.156  1.7714 -0.9511 -1.6659
  934TIP3   OH224436   0.273   4.430   8.504 -1.0815 -0.2461  0.3993
  934TIP3    H124437   0.234   4.496   8.447 -1.5630 -0.6652  0.2399
  934TIP3    H224438   0.366   4.429   8.479 -1.4973 -1.3107 -1.2855
  935TIP3   OH224439   4.344   1.605   1.443 -0.6778  0.1036  0.5222
  935TIP3    H124440   4.291   1.562   1.377  0.7855 -2.3614  0.8547
  935TIP3    H224441   4.422   1.636   1.397 -0.8557  0.7506  0.6382
  936TIP3   OH224442   5.504   6.505   6.673  0.3418 -0.1906  0.0627
  936TIP3    H124443   5.414   6.528   6.697  0.1092  0.6007 -1.4196
  936TIP3    H224444   5.496   6.465   6.586  1.6906  3.3637 -1.9029
  937TIP3   OH224445   1.597   0.737   0.894  0.4304  0.3634  0.0317
  937TIP3    H124446   1.645   0.694   0.823  0.3148  0.6369 -0.2142
  937TIP3    H224447   1.665   0.781   0.946  0.4872  0.4094 -0.0814
  938TIP3   OH224448   6.071   5.698   1.639  0.5934 -0.0958  0.3743
  938TIP3    H124449   6.099   5.785   1.668 -0.3186  0.2434  0.2778
  938TIP3    H224450   6.152   5.653   1.615  0.9407  1.4068 -1.4894
  939TIP3   OH224451   6.604   6.859   6.528 -0.3719  0.7081 -0.4288
  939TIP3    H124452   6.520   6.812   6.533  0.6055 -1.1109 -0.1929
  939TIP3    H224453   6.605   6.897   6.440 -0.9523 -0.2272 -0.8561
  940TIP3   OH224454   6.821   0.469   8.430 -0.4393  0.2494  0.3069
  940TIP3    H124455   6.888   0.528   8.396  1.0723 -1.3179  0.3589
  940TIP3    H224456   6.761   0.455   8.357  0.5605 -0.0228 -0.4952
  941TIP3   OH224457   2.578   0.619   6.416  0.0642 -0.1830 -0.8341
  941TIP3    H124458   2.638   0.694   6.415 -0.1220 -0.0253 -0.3873
  941TIP3    H224459   2.527   0.629   6.336 -0.8057  0.8750 -0.1786
  942TIP3   OH224460   3.449   2.334   1.733 -0.4202 -0.2100  0.4562
  942TIP3    H124461   3.490   2.325   1.818 -0.2476 -0.4943  0.3460
  942TIP3    H224462   3.452   2.427   1.714  0.0520 -0.2107  0.5110
  943TIP3   OH224463   3.574   1.093   7.745 -0.5686 -0.4814  0.3522
  943TIP3    H124464   3.556   1.035   7.670  1.1305 -0.7086  0.0903
  943TIP3    H224465   3.658   1.132   7.725 -0.8694  0.7439  1.3840
  944TIP3   OH224466   3.586   3.964   8.015 -0.1389 -0.2258  0.0951
  944TIP3    H124467   3.535   3.898   8.061 -0.9284  0.4312  0.1935
  944TIP3    H224468   3.521   4.024   7.978  0.4893 -0.3644 -1.3322
  945TIP3   OH224469   4.699   2.129   8.532  0.5766 -0.0623 -0.0380
  945TIP3    H124470   4.722   2.216   8.500  0.2727  0.4568  1.0825
  945TIP3    H224471   4.608   2.117   8.505  0.8905 -0.4141 -0.9618
  946TIP3   OH224472   2.353   4.023   6.668  0.8579 -0.0206  0.4612
  946TIP3    H124473   2.289   4.086   6.634  0.8637  0.4950  1.3628
  946TIP3    H224474   2.336   3.943   6.619  0.0673  0.3474  0.1105
  947TIP3   OH224475   2.884   4.885   0.432 -0.1700 -0.0211  0.0594
  947TIP3    H124476   2.901   4.955   0.369 -0.4550 -0.8263 -0.9437
  947TIP3    H224477   2.836   4.819   0.382 -0.1386 -0.8211  1.0496
  948TIP3   OH224478   2.571   4.129   1.131  0.4847  0.5875 -0.4814
  948TIP3    H124479   2.537   4.185   1.200 -1.4770 -1.0747  0.0308
  948TIP3    H224480   2.498   4.122   1.069  1.5982  0.6516 -1.8497
  949TIP3   OH224481   3.759   2.574   7.769 -0.0677  0.3391  0.0692
  949TIP3    H124482   3.846   2.589   7.806 -0.3993 -0.2332  1.1403
  949TIP3    H224483   3.707   2.541   7.843 -1.6851  2.3455 -0.0855
  950TIP3   OH224484   2.066   2.600   8.398 -0.0301 -0.1074  0.3072
  950TIP3    H124485   2.158   2.575   8.403 -0.1288 -0.5055  0.1625
  950TIP3    H224486   2.067   2.684   8.352  0.1074 -1.2002 -1.8120
  951TIP3   OH224487   1.540   3.193   1.241  0.1355 -0.2622 -0.4961
  951TIP3    H124488   1.493   3.206   1.159  0.1666 -1.1188 -0.6694
  951TIP3    H224489   1.513   3.105   1.270 -0.4460  0.3224  0.7992
  952TIP3   OH224490   5.577   2.796   0.901  0.0548  0.1417  0.0296
  952TIP3    H124491   5.671   2.811   0.911  0.2228 -0.3910 -0.6911
  952TIP3    H224492   5.543   2.802   0.990  0.8686 -0.2916  0.3862
  953TIP3   OH224493   3.748   0.240   0.264 -0.0739 -0.5818  0.0543
  953TIP3    H124494   3.743   0.319   0.211 -0.2697  0.4781  1.6133
  953TIP3    H224495   3.832   0.246   0.309 -0.1274 -1.2362  0.2557
  954TIP3   OH224496   2.367   4.136   7.625 -0.0055  0.0951  0.2264
  954TIP3    H124497   2.442   4.121   7.683  0.4923 -0.2863 -0.5027
  954TIP3    H224498   2.402   4.187   7.552 -0.9922  2.1003  1.0716
  955TIP3   OH224499   3.309   3.444   1.620 -0.3534 -0.3951 -0.4643
  955TIP3    H124500   3.396   3.465   1.586 -1.4017  1.3068 -2.3757
  955TIP3    H224501   3.250   3.505   1.574 -2.4990 -1.1367  1.1221
  956TIP3   OH224502   0.679   4.844   2.394 -0.1951  0.4051  0.6097
  956TIP3    H124503   0.649   4.777   2.455 -0.9603  0.5595  0.4283
  956TIP3    H224504   0.654   4.927   2.435  0.7358  0.5848  0.8285
  957TIP3   OH224505   6.127   0.196   0.209  0.0732 -0.2064  0.0251
  957TIP3    H124506   6.181   0.275   0.212  0.3121 -0.3936  0.9273
  957TIP3    H224507   6.188   0.124   0.197  0.1341 -0.4949  1.8347
  958TIP3   OH224508   3.955   1.860   2.785 -0.2531  0.4112  0.0891
  958TIP3    H124509   3.950   1.880   2.691 -0.5975 -0.6015 -0.1266
  958TIP3    H224510   3.985   1.941   2.825 -0.8641  1.1117 -0.8081
  959TIP3   OH224511   4.865   3.728   7.679  0.1094 -0.0319  0.0487
  959TIP3    H124512   4.932   3.727   7.610 -0.5810 -1.8000 -0.6572
  959TIP3    H224513   4.782   3.722   7.632 -0.4875  0.8212  0.9707
  960TIP3   OH224514   4.630   0.068   1.058  0.2587 -0.6899  0.3437
  960TIP3    H124515   4.677   0.066   0.975 -0.6747 -0.5739 -0.2005
  960TIP3    H224516   4.577   0.148   1.053  3.8588  2.2882  3.1490
  961TIP3   OH224517   0.348   2.868   1.641 -0.2126  0.0192 -0.6838
  961TIP3    H124518   0.436   2.844   1.669 -0.6152  0.0974  0.7087
  961TIP3    H224519   0.359   2.900   1.551  1.5340  2.2020  0.2216
  962TIP3   OH224520   0.594   4.770   0.941  0.3301 -0.0822  0.1005
  962TIP3    H124521   0.618   4.683   0.973  1.4135  0.6135  1.3104
  962TIP3    H224522   0.563   4.756   0.852 -0.1421 -1.7784  0.5118
  963TIP3   OH224523   3.703   0.960   1.790 -0.5786 -0.5733  0.4835
  963TIP3    H124524   3.760   0.899   1.835  0.3182  0.5444  0.8935
  963TIP3    H224525   3.708   0.935   1.698  0.8719 -0.2675  0.4639
  964TIP3   OH224526   2.686   1.944   0.200  0.1936 -0.7256  0.0466
  964TIP3    H124527   2.658   1.922   0.111  1.0679 -2.0541  0.0722
  964TIP3    H224528   2.771   1.986   0.188  0.8571 -1.9587  0.3038
  965TIP3   OH224529   0.891   0.801   6.962  0.5411 -0.0572 -0.5539
  965TIP3    H124530   0.903   0.892   6.988 -1.7081  0.0158  0.4901
  965TIP3    H224531   0.951   0.752   7.018 -1.3255  0.4724  2.0855
  966TIP3   OH224532   3.252   1.905   0.681 -0.6715 -0.2997 -0.0711
  966TIP3    H124533   3.187   1.837   0.665  0.0053 -1.1565  0.6692
  966TIP3    H224534   3.224   1.946   0.763 -1.3907  0.7201 -0.8045
  967TIP3   OH224535   2.178   2.959   0.486  0.2141 -0.1632 -0.5660
  967TIP3    H124536   2.224   2.894   0.433 -1.3969 -0.3931 -1.7598
  967TIP3    H224537   2.140   2.908   0.558  1.8039  0.0430  0.4900
  968TIP3   OH224538   1.966   1.476   7.493  0.4474 -0.1712 -0.1361
  968TIP3    H124539   2.008   1.427   7.422  1.4946  1.3782 -0.6326
  968TIP3    H224540   1.884   1.429   7.509  0.2331 -0.6234 -2.2893
  969TIP3   OH224541   1.956   4.498   7.809 -0.5960 -0.5659  0.2409
  969TIP3    H124542   2.037   4.490   7.759 -0.7657 -0.5138 -0.0472
  969TIP3    H224543   1.915   4.578   7.775 -0.2073  0.0562  1.1987
  970TIP3   OH224544   3.423   2.172   1.514  0.5259  0.1237 -0.5622
  970TIP3    H124545   3.450   2.214   1.596 -1.1375  0.9589 -0.4111
  970TIP3    H224546   3.446   2.235   1.446  0.4985  0.0992 -0.5944
  971TIP3   OH224547   2.978   6.183   0.381  0.3674  0.2678 -0.1402
  971TIP3    H124548   3.021   6.106   0.420 -0.8371 -1.1330 -1.4686
  971TIP3    H224549   2.915   6.211   0.448 -0.3672 -0.9638 -0.2787
  972TIP3   OH224550   3.844   6.046   0.820 -0.4933 -0.2917 -0.5422
  972TIP3    H124551   3.810   6.071   0.905 -3.0959 -1.0632 -1.2658
  972TIP3    H224552   3.912   5.981   0.839  0.8015  1.4116  0.9787
  973TIP3   OH224553   5.120   0.771   2.063  0.1341 -0.1248 -0.1972
  973TIP3    H124554   5.199   0.817   2.091 -0.5279  0.8788  0.0884
  973TIP3    H224555   5.111   0.792   1.970 -0.5780  0.9896  0.1020
  974TIP3   OH224556   0.537   0.129   0.607 -0.0823  0.2024  0.2566
  974TIP3    H124557   0.625   0.092   0.602  0.2215  1.0188 -0.8024
  974TIP3    H224558   0.494   0.102   0.525  0.4497  2.8349 -1.0000
  975TIP3   OH224559   2.351   6.091   7.358 -0.3975 -0.2455  0.2255
  975TIP3    H124560   2.292   6.016   7.354  0.8609 -1.2189 -0.7905
  975TIP3    H224561   2.381   6.093   7.448 -1.9583  0.2862  0.7748
  976TIP3   OH224562   0.192   0.948   1.107 -0.7449  0.3347  0.0088
  976TIP3    H124563   0.229   0.876   1.158  1.3553  1.7433  0.6224
  976TIP3    H224564   0.142   0.999   1.171 -1.3016  0.0551 -0.1927
  977TIP3   OH224565   5.503   3.016   7.599  0.7497 -0.5170  0.7991
  977TIP3    H124566   5.518   3.105   7.628 -0.1418 -0.0539 -0.0985
  977TIP3    H224567   5.434   2.983   7.657 -2.0588  0.8801 -1.4615
  978TIP3   OH224568   3.598   3.211   0.687  0.3840 -0.3701 -0.4041
  978TIP3    H124569   3.658   3.237   0.757  1.7823  0.9276 -1.9905
  978TIP3    H224570   3.636   3.130   0.652  1.2876  0.4661 -1.4265
  979TIP3   OH224571   2.465   0.617   0.838 -0.6793  0.0008  0.8888
  979TIP3    H124572   2.545   0.663   0.814 -0.9487 -0.6583 -1.5179
  979TIP3    H224573   2.495   0.533   0.872 -0.3230  0.1322  0.9061
  980TIP3   OH224574   1.107   6.395   1.147  0.2443  0.2308  0.4368
  980TIP3    H124575   1.151   6.447   1.080  0.0028 -1.0247 -0.7492
  980TIP3    H224576   1.014   6.412   1.133  0.2421  1.4312  1.7233
  981TIP3   OH224577   4.090   3.607   1.960  0.7392  0.1635  0.1588
  981TIP3    H124578   4.152   3.649   2.019 -0.6738  0.8141  1.2329
  981TIP3    H224579   4.139   3.534   1.922  2.5443  1.4255 -0.0452
  982TIP3   OH224580   4.609   0.832   1.277 -0.2351  0.0606 -0.0459
  982TIP3    H124581   4.672   0.882   1.328  1.2562 -0.7623 -1.0066
  982TIP3    H224582   4.547   0.798   1.341  0.8638  0.0969  1.0560
  983TIP3   OH224583   3.709   0.244   8.766 -0.5554 -0.2127 -0.2831
  983TIP3    H124584   3.669   0.251   8.679 -1.5045 -1.5947 -0.0051
  983TIP3    H224585   3.647   0.191   8.816  0.6845 -0.7018  0.7913
  984TIP3   OH224586   2.578   3.397   8.797  0.3149 -0.6828 -0.6551
  984TIP3    H124587   2.550   3.402   8.705 -0.9779 -1.8237 -0.3612
  984TIP3    H224588   2.509   3.347   8.840 -0.1527  1.5142  1.3612
  985TIP3   OH224589   3.972   2.704   7.278  0.1752 -0.0204 -0.4428
  985TIP3    H124590   4.027   2.763   7.226  0.6646  0.4437  0.5705
  985TIP3    H224591   3.998   2.721   7.368 -0.8183 -0.6465 -0.0256
  986TIP3   OH224592   0.210   0.262   8.650  0.2052 -0.0100  0.1714
  986TIP3    H124593   0.286   0.266   8.592 -0.6358  1.2310 -0.9028
  986TIP3    H224594   0.198   0.353   8.679 -0.1400 -0.4039  1.3157
  987TIP3   OH224595   2.064   4.131   1.057 -0.7900 -0.1284  0.3149
  987TIP3    H124596   2.051   4.210   1.109  0.3406  0.5340 -0.3623
  987TIP3    H224597   2.007   4.141   0.982 -1.5036 -0.5056  0.7993
  988TIP3   OH224598   3.155   0.583   8.050  0.0777  0.0184  0.0470
  988TIP3    H124599   3.201   0.585   7.967  0.3946 -0.9570  0.1848
  988TIP3    H224600   3.064   0.603   8.028  0.5078  1.7878 -0.2482
  989TIP3   OH224601   6.639   4.425   6.835  0.2687 -0.0464  0.3716
  989TIP3    H124602   6.696   4.353   6.807 -0.4003  0.1036 -1.4905
  989TIP3    H224603   6.551   4.391   6.822 -0.2874 -1.0308  5.0850
  990TIP3   OH224604   6.087   3.133   1.622  0.1383 -0.5199 -0.0585
  990TIP3    H124605   6.095   3.135   1.717 -2.0679 -0.0887  0.1602
  990TIP3    H224606   6.102   3.223   1.594  1.8045 -0.8246 -0.2667
  991TIP3   OH224607   0.782   6.661   8.798 -0.2873 -0.2218 -0.4280
  991TIP3    H124608   0.863   6.700   8.830 -0.2468  1.0864 -1.9762
  991TIP3    H224609   0.763   6.590   8.859 -0.2909  2.1220  2.5113
  992TIP3   OH224610   5.966   6.017   0.978 -0.1872 -0.2937 -0.1935
  992TIP3    H124611   6.008   6.072   0.912 -1.3028 -0.2734 -0.8961
  992TIP3    H224612   5.890   6.067   1.007  0.4836 -0.1189  1.4219
  993TIP3   OH224613   5.071   1.269   0.275  0.1552 -0.5542 -0.6180
  993TIP3    H124614   5.057   1.353   0.231 -0.3125 -0.8907 -1.1190
  993TIP3    H224615   5.049   1.286   0.367  0.4826 -0.0250 -0.6287
  994TIP3   OH224616   6.106   1.350   7.584 -0.0016 -0.0477  0.1711
  994TIP3    H124617   6.174   1.312   7.640 -0.7113  0.3135  1.3158
  994TIP3    H224618   6.118   1.307   7.500  2.3337  0.7778  0.0013
  995TIP3   OH224619   4.762   1.726   8.796  0.1473 -0.1278  0.3511
  995TIP3    H124620   4.811   1.748   8.876  0.5750 -0.8322  0.2977
  995TIP3    H224621   4.820   1.755   8.725 -0.1367  0.2995  0.2915
  996TIP3   OH224622   1.837   3.712   1.839 -0.1053  0.5265  0.0402
  996TIP3    H124623   1.904   3.770   1.803 -0.4392  0.8889 -0.0112
  996TIP3    H224624   1.805   3.663   1.764  0.5876 -0.1569  0.1787
  997TIP3   OH224625   1.514   6.729   7.251  0.4460 -0.2872 -0.6688
  997TIP3    H124626   1.452   6.687   7.310 -0.9222  0.1299 -1.7637
  997TIP3    H224627   1.483   6.819   7.244  1.2054 -0.0583 -1.2242
  998TIP3   OH224628   4.916   1.288   1.372  0.1838  0.0932  0.0167
  998TIP3    H124629   4.984   1.222   1.363  0.0805  0.0500 -0.4556
  998TIP3    H224630   4.920   1.339   1.291  1.1210  1.4925  0.8894
  999TIP3   OH224631   0.652   2.316   7.520  0.5897 -0.3371  0.5673
  999TIP3    H124632   0.576   2.257   7.514  0.6143 -0.4355  1.1555
  999TIP3    H224633   0.614   2.400   7.547  0.6356 -0.2578  0.3863
 1000TIP3   OH224634   5.067   0.431   0.776 -0.5441  0.8730 -0.5235
 1000TIP3    H124635   5.091   0.385   0.696 -1.5165 -0.4718 -0.0942
 1000TIP3    H224636   5.074   0.524   0.755 -0.7565  0.5386 -2.1485
 1001TIP3   OH224637   4.854   3.106   7.742  0.4999  0.4346 -0.1286
 1001TIP3    H124638   4.856   3.190   7.697  2.4631 -0.5902 -2.1076
 1001TIP3    H224639   4.760   3.086   7.750  0.0017  1.1115 -3.0296
 1002TIP3   OH224640   5.958   2.029   7.681 -0.0536 -0.0807 -0.0780
 1002TIP3    H124641   5.874   2.068   7.653 -0.9467  0.2904  2.7765
 1002TIP3    H224642   6.007   2.103   7.718  1.6601 -0.2716 -1.8173
 1003TIP3   OH224643   0.903   2.603   7.641 -0.3626 -0.3026 -0.1554
 1003TIP3    H124644   0.891   2.591   7.735  2.3578  1.1022  0.4747
 1003TIP3    H224645   0.904   2.514   7.605  2.0165 -1.1512  1.7197
 1004TIP3   OH224646   3.279   2.690   0.455  0.5717  0.1026 -0.4420
 1004TIP3    H124647   3.247   2.600   0.449  0.0776  0.0105  2.1572
 1004TIP3    H224648   3.244   2.734   0.378 -4.9006 -0.3212  1.3473
 1005TIP3   OH224649   2.401   6.209   7.614  0.7138 -0.4900  0.0651
 1005TIP3    H124650   2.425   6.151   7.687  0.3876  1.0136  1.4092
 1005TIP3    H224651   2.394   6.296   7.653  1.0516  0.4683 -1.8769
 1006TIP3   OH224652   1.656   1.045   6.373 -0.2397 -0.7180 -0.5665
 1006TIP3    H124653   1.649   0.980   6.443 -0.6026  1.0960  1.1963
 1006TIP3    H224654   1.565   1.067   6.351 -0.1267 -0.1525 -0.4857
 1007TIP3   OH224655   1.051   1.158   8.408 -0.0625 -0.4258  0.2244
 1007TIP3    H124656   1.040   1.222   8.337  0.8676  0.1311  0.5660
 1007TIP3    H224657   0.972   1.104   8.404 -0.7428  0.5798 -0.2430
 1008TIP3   OH224658   2.720   3.086   0.032 -0.1844  0.0906 -0.0622
 1008TIP3    H124659   2.783   3.087   0.105 -0.3988 -1.0338  0.1549
 1008TIP3    H224660   2.728   3.173  -0.007  0.8509  0.2811  0.5224
 1009TIP3   OH224661   3.083   1.656   1.240  0.3472 -0.1154  0.0475
 1009TIP3    H124662   3.167   1.698   1.257  0.0425  1.1198 -1.2292
 1009TIP3    H224663   3.030   1.725   1.199 -0.5329 -1.4733 -1.2037
 1010TIP3   OH224664   3.150   0.233   7.956 -0.0763  0.1392  0.6594
 1010TIP3    H124665   3.121   0.300   7.893 -1.1206  0.2175  1.2049
 1010TIP3    H224666   3.135   0.150   7.911  1.1548  0.2429  0.0078
 1011TIP3   OH224667   4.594   5.012   7.700 -0.1005  0.2690  0.3499
 1011TIP3    H124668   4.532   5.048   7.637  1.3506  0.1329 -1.2106
 1011TIP3    H224669   4.593   5.074   7.773 -0.1286  1.6841 -0.8210
 1012TIP3   OH224670   6.086   3.030   1.113  0.3327  0.0260 -0.1596
 1012TIP3    H124671   6.041   2.960   1.162  0.3980  0.6357  0.8087
 1012TIP3    H224672   6.155   3.059   1.172  1.1462  0.0204 -1.0945
 1013TIP3   OH224673   1.668   5.322   8.356 -0.5274  0.1088 -0.5322
 1013TIP3    H124674   1.617   5.395   8.391 -0.8486 -0.5650  0.4276
 1013TIP3    H224675   1.747   5.363   8.321 -0.3625  0.8566  0.6630
 1014TIP3   OH224676   3.588   1.475   2.085  0.2200  0.6403 -0.6070
 1014TIP3    H124677   3.620   1.392   2.120 -1.5935 -0.5521 -1.6120
 1014TIP3    H224678   3.626   1.542   2.142  2.4901 -0.7826 -0.3323
 1015TIP3   OH224679   4.731   6.767   0.734  0.4296  1.3592 -0.1413
 1015TIP3    H124680   4.708   6.699   0.798  0.5132  0.0300 -1.4843
 1015TIP3    H224681   4.787   6.827   0.783  0.9970  0.0483  0.8802
 1016TIP3   OH224682   3.927   5.425   2.521  0.1173  0.3188  0.1857
 1016TIP3    H124683   4.004   5.464   2.562  0.4950 -0.9447  0.7422
 1016TIP3    H224684   3.959   5.342   2.485 -0.8863 -0.0213  0.0461
 1017TIP3   OH224685   3.008   2.475   1.752  0.2225  0.3173 -0.0739
 1017TIP3    H124686   3.075   2.524   1.705 -0.3629  0.3674 -0.8952
 1017TIP3    H224687   3.053   2.397   1.784  0.7206  0.4550 -0.4294
 1018TIP3   OH224688   1.502   6.832   6.459 -0.1336  0.0405 -0.3831
 1018TIP3    H124689   1.461   6.906   6.505 -0.1595  0.2869 -0.7979
 1018TIP3    H224690   1.522   6.866   6.372 -1.5015 -0.8542 -1.0917
 1019TIP3   OH224691   2.469   1.653   7.290 -0.2716 -0.3621 -0.2004
 1019TIP3    H124692   2.383   1.612   7.302  0.3807 -1.2813  1.8505
 1019TIP3    H224693   2.522   1.586   7.247  0.0455 -0.7089  0.7007
 1020TIP3   OH224694   4.100   4.513   7.032 -0.0115  0.0468  0.3589
 1020TIP3    H124695   4.187   4.500   7.069  0.3072 -1.5094 -0.8335
 1020TIP3    H224696   4.105   4.474   6.944 -1.1591  2.2444 -0.7824
 1021TIP3   OH224697   5.239   5.140   2.065 -0.3233  0.0046  0.1857
 1021TIP3    H124698   5.306   5.183   2.118 -0.2997 -0.5682  0.6350
 1021TIP3    H224699   5.263   5.047   2.067  1.2072  0.2125 -2.9902
 1022TIP3   OH224700   6.836   0.986   2.062 -0.0115 -0.0446 -0.1105
 1022TIP3    H124701   6.832   0.939   2.145  2.1580 -2.5917 -1.3155
 1022TIP3    H224702   6.926   0.974   2.032 -0.6332  1.0949 -2.7029
 1023TIP3   OH224703   1.532   6.675   7.762  0.0191  0.2306  0.2514
 1023TIP3    H124704   1.467   6.742   7.743 -1.8666 -1.7273 -0.6482
 1023TIP3    H224705   1.588   6.672   7.684  0.4919  1.1242  0.5455
 1024TIP3   OH224706   4.017   1.070   8.342  0.2804  0.0036 -0.2282
 1024TIP3    H124707   4.093   1.125   8.325 -0.4182  0.9412 -0.3542
 1024TIP3    H224708   4.007   1.073   8.438  0.8622 -0.7720 -0.1268
 1025TIP3   OH224709   5.208   4.757   8.682 -0.3709 -1.3124 -0.5322
 1025TIP3    H124710   5.291   4.714   8.661 -0.2509 -2.1223  1.4102
 1025TIP3    H224711   5.142   4.690   8.667 -0.4779 -1.2521 -0.3315
 1026TIP3   OH224712   4.006   5.513   8.216  0.6376 -0.4606  0.1892
 1026TIP3    H124713   4.087   5.564   8.221 -0.6085  1.5667  0.5809
 1026TIP3    H224714   4.023   5.436   8.271  2.1412  0.1180  0.5898
 1027TIP3   OH224715   4.008   0.110   8.465  0.2297 -0.3477  0.9085
 1027TIP3    H124716   4.098   0.134   8.488  0.0190 -0.1885  1.5965
 1027TIP3    H224717   4.010   0.014   8.458  0.9596 -0.2059 -1.3495
 1028TIP3   OH224718   1.332   4.302   0.079 -0.2556 -0.1734  0.1506
 1028TIP3    H124719   1.255   4.359   0.070 -0.6188 -0.0952  2.7822
 1028TIP3    H224720   1.312   4.249   0.156  0.7299 -2.8632 -1.3343
 1029TIP3   OH224721   0.509   0.090   0.027 -0.5849 -0.6145 -0.4171
 1029TIP3    H124722   0.499   0.071  -0.066  2.1772 -1.1752 -0.6921
 1029TIP3    H224723   0.502   0.005   0.070 -0.6638 -0.5255 -0.2533
 1030TIP3   OH224724   6.405   1.955   1.288 -0.4222  0.1008 -0.4948
 1030TIP3    H124725   6.479   1.900   1.316  0.6041  1.2493 -0.9061
 1030TIP3    H224726   6.400   2.023   1.355 -0.8142  0.3032 -0.7317
 1031TIP3   OH224727   5.486   0.822   1.855  0.2739 -0.2247  0.3367
 1031TIP3    H124728   5.497   0.867   1.939 -0.7472  1.3697 -0.3404
 1031TIP3    H224729   5.419   0.873   1.809 -1.6553 -2.9440 -0.1326
 1032TIP3   OH224730   0.755   5.313   8.187  0.0249 -0.3721  0.1966
 1032TIP3    H124731   0.710   5.397   8.177  0.9330 -0.0925 -2.1308
 1032TIP3    H224732   0.725   5.261   8.113  0.3716 -1.6938  0.9614
 1033TIP3   OH224733   3.967   4.728   7.174 -0.4440  0.2504 -0.4833
 1033TIP3    H124734   4.033   4.710   7.240  0.7041  2.7796 -0.8128
 1033TIP3    H224735   3.994   4.677   7.098  2.1292  2.3393 -1.1195
 1034TIP3   OH224736   2.431   2.482   7.582 -0.4661 -0.5223  0.4736
 1034TIP3    H124737   2.354   2.510   7.630  0.1510 -0.2739  1.3452
 1034TIP3    H224738   2.440   2.388   7.602 -0.2319 -0.4276  0.8268
 1035TIP3   OH224739   3.624   3.321   8.709 -0.1201 -0.1972  0.0393
 1035TIP3    H124740   3.589   3.241   8.749 -0.9157  0.1733  0.1112
 1035TIP3    H224741   3.664   3.292   8.627  1.4984 -0.9694  1.0498
 1036TIP3   OH224742   4.707   1.497   8.255  0.0172 -0.0754 -0.1510
 1036TIP3    H124743   4.716   1.441   8.332 -1.0980  2.7100  2.1618
 1036TIP3    H224744   4.647   1.448   8.198 -0.4983 -1.4821  1.5069
 1037TIP3   OH224745   5.367   1.929   1.691 -0.0230 -0.2153  0.5568
 1037TIP3    H124746   5.364   2.010   1.640 -2.9140 -0.8190 -0.4345
 1037TIP3    H224747   5.426   1.872   1.642 -1.3182 -0.1394 -1.2035
 1038TIP3   OH224748   6.168   3.468   0.458  0.1436 -0.1384  0.2643
 1038TIP3    H124749   6.260   3.481   0.437  0.3904 -3.2790 -1.1677
 1038TIP3    H224750   6.162   3.376   0.484 -2.4920  0.1652  1.0727
 1039TIP3   OH224751   0.750   1.585   0.643 -0.1895 -0.2148 -0.5503
 1039TIP3    H124752   0.699   1.656   0.681 -0.2023  0.0393 -1.0446
 1039TIP3    H224753   0.738   1.512   0.704 -0.2691  0.1677 -0.1025
 1040TIP3   OH224754   4.372   5.775   0.495 -0.5301 -0.2183  0.9785
 1040TIP3    H124755   4.285   5.805   0.467 -0.3090 -0.1319  0.3531
 1040TIP3    H224756   4.368   5.680   0.488 -0.1842 -0.1590 -0.2945
 1041TIP3   OH224757   6.064   1.225   0.476 -0.0529 -0.0263  0.2613
 1041TIP3    H124758   6.153   1.192   0.487  0.5783  1.5409  0.0951
 1041TIP3    H224759   6.011   1.147   0.463  1.0496 -1.1080  1.8637
 1042TIP3   OH224760   4.223   0.614   7.284 -0.2691  0.0897  0.1537
 1042TIP3    H124761   4.255   0.607   7.374 -0.0470  0.4822  0.1038
 1042TIP3    H224762   4.129   0.627   7.294 -0.2700 -0.0412  0.3257
 1043TIP3   OH224763   2.138   3.884   2.174 -0.2632  0.4385 -0.5283
 1043TIP3    H124764   2.190   3.931   2.109 -1.8464  1.5428 -1.0654
 1043TIP3    H224765   2.169   3.916   2.258  0.2989  0.6596 -0.8189
 1044TIP3   OH224766   6.256   6.779   6.769  0.5692  0.0644 -0.8164
 1044TIP3    H124767   6.163   6.773   6.747  0.5138  0.8067 -0.8204
 1044TIP3    H224768   6.300   6.726   6.703  0.1415 -0.4037 -0.7346
 1045TIP3   OH224769   4.295   4.517   8.174  0.0720 -0.0439 -0.1631
 1045TIP3    H124770   4.310   4.462   8.251 -0.2261  0.1649  0.0480
 1045TIP3    H224771   4.258   4.598   8.209 -1.7937 -0.6232 -0.6439
 1046TIP3   OH224772   2.396   0.299   0.722 -0.2591  0.0796  0.2555
 1046TIP3    H124773   2.476   0.285   0.772 -0.2705 -0.2369  0.1924
 1046TIP3    H224774   2.356   0.212   0.717 -0.6031  0.2348  0.2824
 1047TIP3   OH224775   5.534   5.967   8.518  0.4358  0.1372 -0.9403
 1047TIP3    H124776   5.449   5.922   8.516 -0.3250  1.4676 -0.0323
 1047TIP3    H224777   5.569   5.957   8.429 -0.1992 -1.2535 -1.0700
 1048TIP3   OH224778   2.530   4.123   7.154 -0.4610  0.2724 -0.3105
 1048TIP3    H124779   2.440   4.141   7.181 -0.8418 -1.4139 -0.3396
 1048TIP3    H224780   2.521   4.084   7.067  0.2562 -0.3456 -0.1149
 1049TIP3   OH224781   5.916   0.540   1.066  0.3270  0.8463  0.0829
 1049TIP3    H124782   5.987   0.602   1.050  0.2745  0.9027  0.0704
 1049TIP3    H224783   5.840   0.578   1.023  0.9198 -0.6219 -2.4474
 1050TIP3   OH224784   5.018   2.157   7.413 -0.1802  0.1554  0.4750
 1050TIP3    H124785   4.935   2.184   7.375 -0.3070 -1.5939 -0.5663
 1050TIP3    H224786   5.051   2.236   7.455 -2.1274  1.0166  0.5095
 1051TIP3   OH224787   1.792   0.107   7.656 -0.0424 -0.0015 -0.0259
 1051TIP3    H124788   1.781   0.068   7.569 -0.4401  1.2877 -0.5718
 1051TIP3    H224789   1.882   0.084   7.681 -0.6452 -2.3107  0.2446
 1052TIP3   OH224790   0.666   2.538   0.919 -0.1264  0.1571  0.2001
 1052TIP3    H124791   0.720   2.614   0.940 -0.3550  0.2679  0.3944
 1052TIP3    H224792   0.639   2.504   1.004 -0.0654 -0.1118  0.1116
 1053TIP3   OH224793   3.980   0.164   0.452 -0.4197 -0.5998 -0.4293
 1053TIP3    H124794   4.063   0.116   0.461 -1.1379 -1.5348  1.9473
 1053TIP3    H224795   3.995   0.245   0.500 -0.1925  0.2917 -1.9357
 1054TIP3   OH224796   1.501   3.049   0.847 -0.1358  0.3652  0.1336
 1054TIP3    H124797   1.571   2.985   0.859 -1.6655 -1.1531  1.7451
 1054TIP3    H224798   1.427   2.996   0.815 -0.6194  1.8763 -1.3762
 1055TIP3   OH224799   6.437   4.062   0.652 -0.4402 -0.3661  0.2296
 1055TIP3    H124800   6.370   4.053   0.720 -0.4186  0.2567  0.3449
 1055TIP3    H224801   6.519   4.073   0.701 -0.2535 -1.0966  0.0898
 1056TIP3   OH224802   5.091   6.096   8.669 -0.2451 -0.5412 -0.0215
 1056TIP3    H124803   5.047   6.140   8.596  0.5806 -0.1527 -0.2964
 1056TIP3    H224804   5.135   6.166   8.716 -0.5374 -0.8311  0.6891
 1057TIP3   OH224805   5.282   6.354   6.750 -0.2904 -0.2508  0.1656
 1057TIP3    H124806   5.200   6.396   6.726 -1.4693 -1.4061  1.9067
 1057TIP3    H224807   5.291   6.281   6.688  1.1651  1.7377 -2.1097
 1058TIP3   OH224808   2.317   2.729   6.507  0.1677 -0.7256  0.3780
 1058TIP3    H124809   2.339   2.802   6.564  2.4392 -1.5918  0.6880
 1058TIP3    H224810   2.358   2.653   6.547 -1.5097 -2.0852 -0.3301
 1059TIP3   OH224811   4.795   0.628   1.636  0.0242  0.0662  0.0883
 1059TIP3    H124812   4.820   0.552   1.689 -0.3473 -0.6057 -0.6671
 1059TIP3    H224813   4.706   0.649   1.664  0.0847  0.1452  0.2187
 1060TIP3   OH224814   5.257   4.058   6.832 -0.1586 -0.0043 -0.0967
 1060TIP3    H124815   5.188   4.081   6.893 -0.5586 -0.1398 -0.4939
 1060TIP3    H224816   5.300   4.141   6.812 -0.8369  0.2312 -0.6059
 1061TIP3   OH224817   3.991   2.362   0.650 -1.0114  0.5689 -0.1893
 1061TIP3    H124818   3.905   2.330   0.623 -0.9093  0.6416 -0.6073
 1061TIP3    H224819   4.034   2.386   0.568  0.0426 -1.0356 -0.1375
 1062TIP3   OH224820   3.655   2.365   7.918  0.1081  0.0061  0.2737
 1062TIP3    H124821   3.696   2.319   7.845 -0.1008 -0.7649  0.6331
 1062TIP3    H224822   3.578   2.312   7.939 -0.6076  0.9830  0.1509
 1063TIP3   OH224823   3.953   3.549   1.384  0.1908 -0.2914 -0.0435
 1063TIP3    H124824   3.924   3.628   1.431  3.4694  0.7958  0.3850
 1063TIP3    H224825   3.934   3.477   1.444 -1.4419  0.2999  0.2040
 1064TIP3   OH224826   1.595   2.911   7.082 -0.3302  0.3414 -0.2097
 1064TIP3    H124827   1.567   2.987   7.133 -3.1655 -1.9102  1.8826
 1064TIP3    H224828   1.558   2.927   6.995 -2.3780  0.6450  0.6582
 1065TIP3   OH224829   3.304   6.011   7.323 -0.0243  0.5379  0.6095
 1065TIP3    H124830   3.300   5.923   7.286 -0.3492  0.9440 -0.3649
 1065TIP3    H224831   3.296   6.069   7.247  1.2378  1.4160  1.1289
 1066TIP3   OH224832   4.613   2.490   6.845  0.0316 -0.2153 -0.6044
 1066TIP3    H124833   4.532   2.442   6.828 -0.1288 -0.7425  1.4465
 1066TIP3    H224834   4.609   2.566   6.786 -1.9099 -0.2632 -0.5897
 1067TIP3   OH224835   5.266   0.419   8.138  0.2478 -0.4794 -0.1393
 1067TIP3    H124836   5.347   0.413   8.188  0.7158  0.0736 -0.8074
 1067TIP3    H224837   5.205   0.359   8.182  1.0807 -1.0542  0.2431
 1068TIP3   OH224838   0.734   6.326   0.811  0.9319  0.0203  0.6090
 1068TIP3    H124839   0.647   6.366   0.816  0.8116  0.0194 -1.0020
 1068TIP3    H224840   0.720   6.243   0.765  2.0876  1.1873 -2.0703
 1069TIP3   OH224841   6.260   4.555   1.032  0.6315  0.3835 -0.4366
 1069TIP3    H124842   6.281   4.620   1.099  2.4716  0.0571 -0.6480
 1069TIP3    H224843   6.262   4.471   1.077 -0.4692  0.3414 -0.4340
 1070TIP3   OH224844   6.162   2.734   8.635 -0.5130  0.2155 -0.7631
 1070TIP3    H124845   6.122   2.698   8.714  1.1491  1.2830  0.6496
 1070TIP3    H224846   6.242   2.682   8.624 -0.8087 -0.0249 -1.8509
 1071TIP3   OH224847   4.782   3.129   8.452  0.1427  0.6496  0.2465
 1071TIP3    H124848   4.694   3.095   8.443  0.0670  1.0137 -0.5413
 1071TIP3    H224849   4.811   3.144   8.362  0.6267  1.4779  0.5243
 1072TIP3   OH224850   2.824   2.177   8.102 -0.0525  0.0022  0.1494
 1072TIP3    H124851   2.779   2.104   8.143  0.8193  0.0379  1.2273
 1072TIP3    H224852   2.898   2.137   8.057  1.0928  0.2790  1.6968
 1073TIP3   OH224853   1.056   2.670   6.468 -0.4725 -0.4694 -0.2180
 1073TIP3    H124854   0.967   2.666   6.503 -0.7803 -0.2925 -0.9506
 1073TIP3    H224855   1.061   2.595   6.408 -0.7242  0.5094 -1.4979
 1074TIP3   OH224856   5.791   2.934   2.209  0.1743  0.4304  0.1988
 1074TIP3    H124857   5.850   2.942   2.284 -0.6327 -0.6933  1.0035
 1074TIP3    H224858   5.773   2.840   2.204  1.3390  0.2794 -2.3418
 1075TIP3   OH224859   1.165   0.998   7.065  0.3450  0.1305  0.4049
 1075TIP3    H124860   1.139   1.032   6.980 -0.3414  0.9395  0.9232
 1075TIP3    H224861   1.245   0.947   7.047  0.5653  0.8017 -0.6118
 1076TIP3   OH224862   6.311   4.925   2.004  0.6107 -0.1447  0.5563
 1076TIP3    H124863   6.248   4.866   2.044 -2.4144  1.1527 -1.8320
 1076TIP3    H224864   6.261   5.004   1.985  2.3278  0.2752 -3.2841
 1077TIP3   OH224865   6.228   3.688   0.080 -0.4755  0.5505 -0.0716
 1077TIP3    H124866   6.218   3.783   0.070  1.0982  0.7278 -0.1823
 1077TIP3    H224867   6.275   3.678   0.163  0.4274 -0.0578 -0.6372
 1078TIP3   OH224868   5.911   1.668   8.240 -0.0953  0.2395  0.0135
 1078TIP3    H124869   5.856   1.703   8.310  0.4222  0.2043  0.4474
 1078TIP3    H224870   6.000   1.688   8.268  0.0819  1.4845 -1.3223
 1079TIP3   OH224871   3.729   0.701   8.196 -0.4359  0.0006  0.2680
 1079TIP3    H124872   3.740   0.784   8.241  0.4647 -0.1643  0.3670
 1079TIP3    H224873   3.813   0.685   8.152 -1.0011 -0.2564 -0.7704
 1080TIP3   OH224874   1.105   1.497   8.563  0.0746  0.2858 -0.4592
 1080TIP3    H124875   1.173   1.559   8.590  0.6613 -0.3278 -0.4893
 1080TIP3    H224876   1.153   1.426   8.520 -0.4752 -0.6647  0.4419
 1081TIP3   OH224877   1.629   0.227   1.279  0.1626  0.0718  0.2187
 1081TIP3    H124878   1.707   0.245   1.331 -0.1049  0.3931  0.5167
 1081TIP3    H224879   1.585   0.312   1.271  0.2637  0.0579 -0.6476
 1082TIP3   OH224880   2.907   6.787   7.919 -0.2895 -0.0416  0.0305
 1082TIP3    H124881   2.939   6.764   8.006  0.7332  1.7614  0.1922
 1082TIP3    H224882   2.929   6.711   7.865 -2.2764 -1.8262  1.5663
 1083TIP3   OH224883   6.537   6.005   2.071 -0.3507  0.2446 -0.0703
 1083TIP3    H124884   6.528   6.100   2.073 -0.1177  0.3116 -1.3863
 1083TIP3    H224885   6.468   5.973   2.129  0.0846  1.2306  1.0240
 1084TIP3   OH224886   4.489   1.261   7.743 -0.2345 -0.5597 -0.5678
 1084TIP3    H124887   4.522   1.179   7.780 -0.1418  0.2074  1.1032
 1084TIP3    H224888   4.552   1.327   7.770 -1.3975  0.4038 -0.1290
 1085TIP3   OH224889   4.079   4.244   7.766  0.0020 -0.1040 -0.3907
 1085TIP3    H124890   4.113   4.333   7.768  0.7588 -0.3890 -0.4982
 1085TIP3    H224891   4.098   4.213   7.678  0.2357 -0.5642 -0.1791
 1086TIP3   OH224892   2.903   4.107   6.818 -0.0406  0.3271 -0.4057
 1086TIP3    H124893   2.952   4.025   6.815  1.0402  0.7986  2.0868
 1086TIP3    H224894   2.915   4.144   6.730  0.9677 -1.3209 -1.0203
 1087TIP3   OH224895   3.763   3.089   6.565 -0.2660 -0.2385  0.4635
 1087TIP3    H124896   3.730   3.006   6.599  0.1382 -0.2989  0.7242
 1087TIP3    H224897   3.691   3.150   6.577 -0.2704 -0.3529  1.0791
 1088TIP3   OH224898   4.109   2.529   1.983  0.1178  0.4147 -0.4573
 1088TIP3    H124899   4.177   2.468   2.013  0.9497  0.6356 -1.8337
 1088TIP3    H224900   4.094   2.587   2.058  3.2120  1.9062 -0.8564
 1089TIP3   OH224901   2.796   3.555   0.426  0.1627  0.4514 -0.0658
 1089TIP3    H124902   2.800   3.461   0.408 -0.0710  0.5897 -0.8826
 1089TIP3    H224903   2.704   3.570   0.451  0.2521  0.4301  0.2827
 1090TIP3   OH224904   6.401   1.533   6.807  0.3308 -0.0105  0.5435
 1090TIP3    H124905   6.468   1.533   6.875  0.5018  2.2594  0.4506
 1090TIP3    H224906   6.450   1.527   6.725  0.2946 -0.1150  0.5289
 1091TIP3   OH224907   6.208   3.379   8.675  0.5356  0.5173  0.4318
 1091TIP3    H124908   6.265   3.320   8.724  0.1796 -0.3910 -0.2243
 1091TIP3    H224909   6.143   3.407   8.739  0.8052  0.3276  0.7933
 1092TIP3   OH224910   0.642   1.851   7.648 -0.1988  0.9751 -0.4960
 1092TIP3    H124911   0.589   1.926   7.675  0.0291  1.7464 -2.0476
 1092TIP3    H224912   0.699   1.833   7.723 -0.3245  2.3042 -0.0607
 1093TIP3   OH224913   6.424   3.914   8.249 -0.8278 -0.0048  0.1842
 1093TIP3    H124914   6.497   3.975   8.258  0.3065 -1.4545  1.7002
 1093TIP3    H224915   6.381   3.915   8.335 -1.1012 -0.9081  0.0760
 1094TIP3   OH224916   6.538   6.507   7.223 -0.5194 -0.2958 -0.4252
 1094TIP3    H124917   6.594   6.547   7.157 -0.2750  2.2926  1.2097
 1094TIP3    H224918   6.596   6.489   7.297 -1.2182 -0.8811 -0.0049
 1095TIP3   OH224919   5.916   3.445   1.947 -0.7341  0.4711 -0.1501
 1095TIP3    H124920   5.831   3.476   1.976  0.3940  3.4113  0.3608
 1095TIP3    H224921   5.947   3.512   1.887  2.0577  0.5904  1.2669
 1096TIP3   OH224922   0.678   1.006   8.073  0.4771 -0.3009  0.2761
 1096TIP3    H124923   0.659   0.958   8.153  0.2555  0.8166  0.9167
 1096TIP3    H224924   0.615   1.078   8.073 -0.2822 -0.9221 -1.4948
 1097TIP3   OH224925   2.186   4.008   7.159  0.2368 -0.7916 -0.0329
 1097TIP3    H124926   2.237   3.962   7.225 -0.4147 -0.2362  0.8713
 1097TIP3    H224927   2.246   4.017   7.085  2.0202  1.2095  1.5361
 1098TIP3   OH224928   4.352   1.896   7.912  0.0721  0.7063 -0.6443
 1098TIP3    H124929   4.358   1.968   7.975  1.2681 -0.2133  0.3474
 1098TIP3    H224930   4.410   1.828   7.948 -0.4176 -0.4454 -1.9533
 1099TIP3   OH224931   5.247   3.827   2.174  0.2318 -0.2240 -0.4890
 1099TIP3    H124932   5.335   3.790   2.182  0.3447  0.0965 -0.2126
 1099TIP3    H224933   5.235   3.876   2.255  0.1350  0.4502 -0.9041
 1100TIP3   OH224934   4.593   0.313   7.238  0.0607  0.3306  0.2983
 1100TIP3    H124935   4.583   0.260   7.317 -3.9005 -0.9558 -0.8532
 1100TIP3    H224936   4.585   0.251   7.166 -0.4681  1.9675 -1.1254
 1101TIP3   OH224937   5.184   2.061   8.229  0.0959  0.4830  0.6181
 1101TIP3    H124938   5.198   2.152   8.256 -0.2015  0.8766 -0.5063
 1101TIP3    H224939   5.114   2.030   8.286 -1.5157  1.7457 -0.5723
 1102TIP3   OH224940   2.338   4.074   6.936  0.1590  0.4043  0.0917
 1102TIP3    H124941   2.264   4.127   6.904  0.0751  0.1153 -0.1982
 1102TIP3    H224942   2.378   4.039   6.856  0.8102  0.8258  0.2267
 1103TIP3   OH224943   4.566   0.375   0.494 -0.9125  0.0520  0.0377
 1103TIP3    H124944   4.613   0.445   0.539  0.4222 -1.8669  1.8328
 1103TIP3    H224945   4.518   0.330   0.564 -2.3423 -0.3873 -1.1782
 1104TIP3   OH224946   2.833   3.957   7.189  0.8297 -0.0921 -0.0899
 1104TIP3    H124947   2.771   3.932   7.257 -0.6977 -0.5773 -1.5943
 1104TIP3    H224948   2.799   4.039   7.154  1.0351 -0.3460 -0.9156
 1105TIP3   OH224949   5.575   4.175   0.907  0.1069  0.3006  0.3675
 1105TIP3    H124950   5.529   4.126   0.839 -0.5923  0.8774  0.4136
 1105TIP3    H224951   5.607   4.253   0.862 -1.8528  1.5545  1.0356
 1106TIP3   OH224952   1.995   2.705   8.098 -0.4413  0.1953  0.6837
 1106TIP3    H124953   1.929   2.686   8.031  0.8443  0.0966 -0.6073
 1106TIP3    H224954   1.953   2.771   8.154 -1.1930  1.0799 -0.8350
 1107TIP3   OH224955   6.087   1.956   7.442 -0.1739 -0.6331  0.3744
 1107TIP3    H124956   6.031   1.971   7.518  0.0198  2.0268  0.0723
 1107TIP3    H224957   6.037   1.991   7.368  0.1810 -2.0258 -0.5687
 1108TIP3   OH224958   6.283   4.946   7.375  0.0896 -0.1543 -0.1502
 1108TIP3    H124959   6.297   4.853   7.356 -0.4744  0.1438 -2.3180
 1108TIP3    H224960   6.251   4.948   7.466  0.4418 -2.0309  0.0482
 1109TIP3   OH224961   6.613   1.241   7.374 -0.8156  0.1878 -0.0135
 1109TIP3    H124962   6.698   1.224   7.413 -1.0805  0.0336  0.4997
 1109TIP3    H224963   6.601   1.336   7.382 -0.1729  0.3837 -1.1653
 1110TIP3   OH224964   0.312   3.700   7.102  0.2688  0.3237  0.0307
 1110TIP3    H124965   0.337   3.779   7.053  0.2451 -0.5700 -1.5009
 1110TIP3    H224966   0.392   3.648   7.105 -0.3107 -0.6964 -1.2213
 1111TIP3   OH224967   0.223   4.804   7.653 -0.0154  0.2735  0.0925
 1111TIP3    H124968   0.167   4.728   7.671  0.4378 -0.0431  0.1744
 1111TIP3    H224969   0.284   4.806   7.726  0.2346  0.4751 -0.1219
 1112TIP3   OH224970   2.168   2.984   7.551  0.1377  0.1399 -0.5096
 1112TIP3    H124971   2.150   2.948   7.638 -0.2032 -1.7202 -1.3125
 1112TIP3    H224972   2.086   3.027   7.526 -0.4890 -1.1381 -0.7447
 1113TIP3   OH224973   1.707   4.863   0.155  0.3360 -0.4230 -0.1000
 1113TIP3    H124974   1.637   4.819   0.106 -0.2335  1.4232 -1.0486
 1113TIP3    H224975   1.686   4.846   0.247 -0.7388 -0.8171 -0.3996
 1114TIP3   OH224976   5.431   4.571   8.777  0.0174 -0.2263 -0.8240
 1114TIP3    H124977   5.379   4.506   8.823  0.2829 -0.1034 -0.3430
 1114TIP3    H224978   5.403   4.564   8.686 -2.1774  1.1235 -0.3139
 1115TIP3   OH224979   4.824   5.900   6.505  0.6253 -0.4880 -0.4380
 1115TIP3    H124980   4.824   5.967   6.437 -1.1289 -1.3538 -1.3634
 1115TIP3    H224981   4.915   5.893   6.532  0.8529  2.3447 -0.1766
 1116TIP3   OH224982   0.397   6.684   7.300  0.9804  0.1435  0.3151
 1116TIP3    H124983   0.382   6.593   7.328  3.5160 -0.2038  0.8491
 1116TIP3    H224984   0.441   6.675   7.216  0.9741  0.9001  0.2315
 1117TIP3   OH224985   0.152   3.987   1.643 -0.2752 -0.3662  0.3965
 1117TIP3    H124986   0.184   3.970   1.731 -0.3156 -0.5493  0.3749
 1117TIP3    H224987   0.115   3.904   1.613  1.7936 -0.9787 -0.6734
 1118TIP3   OH224988   2.631   2.642   0.300 -0.0393 -0.3734  0.5088
 1118TIP3    H124989   2.616   2.553   0.269  1.6911 -0.9137  1.0766
 1118TIP3    H224990   2.718   2.638   0.340 -0.0014  1.5429  0.6791
 1119TIP3   OH224991   1.164   1.250   0.571  0.6893  0.0627  0.3045
 1119TIP3    H124992   1.204   1.187   0.512  0.9064 -0.4630  0.9983
 1119TIP3    H224993   1.238   1.291   0.616  0.4979 -1.7097  2.4147
 1120TIP3   OH224994   6.613   2.805   1.204  0.8157 -0.5517  0.3277
 1120TIP3    H124995   6.534   2.838   1.248 -0.0043  1.2771 -2.2589
 1120TIP3    H224996   6.684   2.861   1.237  0.6711 -0.7835  1.0585
 1121TIP3   OH224997   1.105   1.870   1.778  0.4427  0.4402  0.0005
 1121TIP3    H124998   1.131   1.808   1.847  0.2708  0.8406  0.4315
 1121TIP3    H224999   1.185   1.917   1.757  0.7442 -0.4191 -0.8511
 1122TIP3   OH225000   0.120   2.768   8.271 -0.1352  0.1225 -0.3071
 1122TIP3    H125001   0.059   2.833   8.307 -0.2213 -0.3827  0.4903
 1122TIP3    H225002   0.065   2.692   8.250 -0.0197  0.2593 -1.1429
 1123TIP3   OH225003   3.182   0.663   2.002  0.2811  0.0943  0.1521
 1123TIP3    H125004   3.120   0.593   2.024 -1.1631  1.2040 -0.2196
 1123TIP3    H225005   3.126   0.739   1.983  1.7971  1.3147  0.4165
 1124TIP3   OH225006   6.742   0.528   0.109  0.0129  0.5130 -0.2904
 1124TIP3    H125007   6.819   0.565   0.065  0.0719 -1.2254 -1.7868
 1124TIP3    H225008   6.772   0.512   0.199  1.8136 -1.0154 -1.0637
 1125TIP3   OH225009   5.746   2.505   7.936 -0.2973  0.2274 -0.5783
 1125TIP3    H125010   5.735   2.557   7.856 -0.3306  0.6243 -0.3194
 1125TIP3    H225011   5.757   2.570   8.006  0.4624 -0.1158 -0.3582
 1126TIP3   OH225012   0.355   2.589   0.877 -0.0162 -0.0710  0.2542
 1126TIP3    H125013   0.301   2.633   0.943 -1.8234 -0.6995 -0.7242
 1126TIP3    H225014   0.349   2.496   0.900 -1.8859 -0.4734 -1.5284
 1127TIP3   OH225015   2.673   3.302   1.009  0.1700 -0.3682  0.0844
 1127TIP3    H125016   2.600   3.338   0.958  0.1526 -0.2098  0.2214
 1127TIP3    H225017   2.637   3.222   1.048  0.2388 -0.5888 -0.2991
 1128TIP3   OH225018   5.699   0.780   7.185  0.0712  0.5541 -0.4030
 1128TIP3    H125019   5.612   0.748   7.210  0.2823  1.0267  1.0505
 1128TIP3    H225020   5.694   0.791   7.090 -1.7626  1.4516 -0.2469
 1129TIP3   OH225021   5.086   1.908   1.264 -0.2160  0.2853  0.7454
 1129TIP3    H125022   5.026   1.867   1.202 -0.9415  1.5091  0.6063
 1129TIP3    H225023   5.042   1.903   1.348  0.0610  0.0462  0.8774
 1130TIP3   OH225024   4.909   1.876   6.247  0.4453  0.0159 -0.2362
 1130TIP3    H125025   4.937   1.893   6.157 -1.1735 -0.0798 -0.7865
 1130TIP3    H225026   4.871   1.789   6.245  3.3519 -1.4480  1.3101
 1131TIP3   OH225027   4.183   4.060   7.958  0.9084  0.2630  0.5341
 1131TIP3    H125028   4.141   4.135   7.916 -1.1284 -0.9612  0.2505
 1131TIP3    H225029   4.187   3.993   7.889  0.0671 -0.8238  1.4797
 1132TIP3   OH225030   1.710   4.356   0.141 -0.0095  0.0442  0.6005
 1132TIP3    H125031   1.792   4.382   0.100  0.0728  1.6848  1.7145
 1132TIP3    H225032   1.730   4.350   0.234 -1.2966  1.2565  0.9949
 1133TIP3   OH225033   1.011   0.970   1.180 -0.2763 -0.0807 -0.4557
 1133TIP3    H125034   1.072   1.033   1.141  1.0219 -1.2430 -0.3955
 1133TIP3    H225035   0.976   0.921   1.105  0.3847 -0.7121 -0.3661
 1134TIP3   OH225036   1.563   2.285   7.288  0.2126  0.7346  0.6501
 1134TIP3    H125037   1.595   2.310   7.201  0.3790  0.2347  0.5673
 1134TIP3    H225038   1.499   2.352   7.309  2.1398  2.4899  1.3333
 1135TIP3   OH225039   3.044   3.406   7.108  0.5511 -0.0133 -0.2422
 1135TIP3    H125040   3.135   3.435   7.096  0.0809  1.4001 -0.6032
 1135TIP3    H225041   3.006   3.472   7.166  0.1093 -1.3643  1.0637
 1136TIP3   OH225042   6.208   3.622   7.949  0.1559  0.2509 -0.3580
 1136TIP3    H125043   6.141   3.567   7.989  0.3208  1.1251  1.2267
 1136TIP3    H225044   6.209   3.701   8.003  1.7683  0.6727 -0.9482
 1137TIP3   OH225045   6.221   0.755   6.914  0.3108 -0.6070  0.5874
 1137TIP3    H125046   6.165   0.737   6.990 -0.3522 -0.1407  0.2119
 1137TIP3    H225047   6.161   0.776   6.843  0.9624  2.7429  0.8675
 1138TIP3   OH225048   3.880   2.144   8.620 -0.1841  0.2026  1.1482
 1138TIP3    H125049   3.888   2.092   8.540 -1.1714  1.0295  0.4905
 1138TIP3    H225050   3.927   2.094   8.686 -0.5142 -1.1671  0.3708
 1139TIP3   OH225051   2.704   6.638   1.768 -0.2137  0.1023 -0.4441
 1139TIP3    H125052   2.649   6.573   1.725 -1.0344  1.7811 -2.0645
 1139TIP3    H225053   2.786   6.592   1.785 -1.1791 -1.7036 -0.3592
 1140TIP3   OH225054   5.451   0.949   7.309  0.2897  0.4143  0.2723
 1140TIP3    H125055   5.491   0.968   7.224  2.6238 -1.3886  0.8540
 1140TIP3    H225056   5.357   0.961   7.295  0.6872  1.0828 -2.2808
 1141TIP3   OH225057   6.811   0.499   2.214 -0.4724 -0.5251 -0.2093
 1141TIP3    H125058   6.723   0.503   2.179  0.6761 -1.1081 -3.4834
 1141TIP3    H225059   6.834   0.406   2.212  0.1997 -0.4040  0.7740
 1142TIP3   OH225060   2.246   4.333   6.271  0.5076  0.4032  0.1819
 1142TIP3    H125061   2.292   4.259   6.230  2.8716  1.6382  0.3823
 1142TIP3    H225062   2.257   4.405   6.208 -0.7852  0.8827  0.4762
 1143TIP3   OH225063   0.587   6.395   7.283 -0.0307 -0.4924 -0.4694
 1143TIP3    H125064   0.610   6.325   7.223  0.4128 -1.1645  0.4590
 1143TIP3    H225065   0.640   6.379   7.361  0.4219  1.1421 -0.3947
 1144TIP3   OH225066   3.389   6.712   1.072  0.8906 -0.1529  0.0258
 1144TIP3    H125067   3.401   6.773   1.145 -0.5397  0.4016 -0.1711
 1144TIP3    H225068   3.307   6.667   1.091  0.9446 -0.6376 -0.8089
 1145TIP3   OH225069   1.795   4.020   1.226 -0.3608  0.8838 -0.6113
 1145TIP3    H125070   1.887   4.033   1.205  0.1413  0.2552  1.0459
 1145TIP3    H225071   1.786   4.053   1.315 -1.1907 -1.1386  0.1086
 1146TIP3   OH225072   0.696   1.491   0.088 -0.1292  0.4246  0.2193
 1146TIP3    H125073   0.743   1.467   0.168  0.4922  1.7210  0.2589
 1146TIP3    H225074   0.622   1.430   0.084  1.0862 -1.1280  0.5818
 1147TIP3   OH225075   6.253   0.305   1.616  0.1609  0.1408  0.2485
 1147TIP3    H125076   6.265   0.346   1.702 -1.2248  0.6189  0.2456
 1147TIP3    H225077   6.163   0.273   1.618  0.7034 -1.4848 -0.3631
 1148TIP3   OH225078   1.451   0.466   7.770  0.1582 -0.2447 -0.7342
 1148TIP3    H125079   1.539   0.496   7.749  0.6910 -2.0817 -1.2694
 1148TIP3    H225080   1.444   0.379   7.730 -1.9167 -0.1349 -0.7484
 1149TIP3   OH225081   6.388   6.584   0.349 -0.3475 -0.0570 -0.1878
 1149TIP3    H125082   6.356   6.495   0.336  1.2788 -0.5576 -0.9808
 1149TIP3    H225083   6.483   6.577   0.348 -0.1677  1.5401  0.9253
 1150TIP3   OH225084   0.123   1.988   1.408 -0.1072 -0.2954  0.1550
 1150TIP3    H125085   0.121   1.894   1.425  0.4455 -0.3073  0.1732
 1150TIP3    H225086   0.199   2.020   1.456 -0.0970  0.1060 -0.1186
 1151TIP3   OH225087   2.880   1.027   7.327  0.2099  0.1184 -0.8614
 1151TIP3    H125088   2.843   0.957   7.273  0.4874  0.2295 -1.1994
 1151TIP3    H225089   2.833   1.021   7.410  0.1771 -0.4214 -0.9148
 1152TIP3   OH225090   2.813   3.474   6.475  0.5051  0.5064  0.4192
 1152TIP3    H125091   2.769   3.518   6.402  1.3966 -0.0348 -0.4538
 1152TIP3    H225092   2.872   3.411   6.434  1.6661  0.7974  1.5849
 1153TIP3   OH225093   0.937   1.984   1.009 -0.4393 -0.4042  0.8146
 1153TIP3    H125094   0.999   1.952   1.074 -1.9428  0.1314  2.6225
 1153TIP3    H225095   0.888   1.906   0.983  0.3422 -0.6661  0.0936
 1154TIP3   OH225096   4.560   3.606   1.184  0.1325 -0.0190 -0.3429
 1154TIP3    H125097   4.622   3.598   1.257 -0.5174  1.3901  0.4193
 1154TIP3    H225098   4.519   3.520   1.178  0.3065 -0.2070  0.8627
 1155TIP3   OH225099   4.631   5.766   7.847  0.9438  0.4696 -0.1322
 1155TIP3    H125100   4.588   5.756   7.933 -0.6022  0.3736 -0.8878
 1155TIP3    H225101   4.633   5.860   7.832 -0.1825  0.4344 -0.6371
 1156TIP3   OH225102   2.050   3.114   7.230 -0.5185 -0.3600 -0.5643
 1156TIP3    H125103   1.980   3.095   7.168 -1.5555 -0.2501  0.5421
 1156TIP3    H225104   2.008   3.110   7.316  0.6499  0.5229  0.0764
 1157TIP3   OH225105   4.467   2.169   7.229 -0.1626  0.1904  0.1673
 1157TIP3    H125106   4.391   2.157   7.173  0.5005  0.3045 -0.7888
 1157TIP3    H225107   4.459   2.258   7.262 -0.3984  0.2380 -0.0168
 1158TIP3   OH225108   6.624   4.115   0.856 -0.0605  0.0667  0.0935
 1158TIP3    H125109   6.644   4.195   0.904  1.0272  0.0911 -0.3706
 1158TIP3    H225110   6.616   4.047   0.923  4.0223 -0.4559  0.2923
 1159TIP3   OH225111   3.815   1.941   0.566 -0.1329 -0.0971 -0.1737
 1159TIP3    H125112   3.825   1.942   0.471  1.7741  0.4257 -0.0178
 1159TIP3    H225113   3.901   1.914   0.599 -0.9323 -0.8474  1.3958
 1160TIP3   OH225114   4.113   4.258   1.599  0.2004  0.0824  0.3486
 1160TIP3    H125115   4.071   4.318   1.660  2.1732  0.5391  1.3333
 1160TIP3    H225116   4.125   4.177   1.650 -1.1926 -0.7318 -0.5386
 1161TIP3   OH225117   3.874   3.124   7.581  0.2319  0.3016 -0.0281
 1161TIP3    H125118   3.902   3.132   7.490 -1.5614  0.8361 -0.5896
 1161TIP3    H225119   3.907   3.039   7.609  0.6328  0.0309 -1.2474
 1162TIP3   OH225120   4.889   0.568   1.389  0.1235  0.0973  0.1305
 1162TIP3    H125121   4.976   0.533   1.408  2.1514  3.1662 -2.4307
 1162TIP3    H225122   4.849   0.583   1.475  2.4841 -0.5200  1.4145
 1163TIP3   OH225123   3.460   6.062   1.780 -0.3078  0.3204 -0.4982
 1163TIP3    H125124   3.369   6.065   1.808 -0.4862  1.2218 -1.1402
 1163TIP3    H225125   3.459   6.095   1.691  0.6298  0.1810 -0.5701
 1164TIP3   OH225126   0.273   4.918   0.152 -0.3602 -0.1990  0.0960
 1164TIP3    H125127   0.263   4.910   0.247  2.1288 -0.0011  0.4483
 1164TIP3    H225128   0.291   5.010   0.137 -1.7482 -0.0329 -0.7292
 1165TIP3   OH225129   0.169   1.631   8.719 -0.3389  0.1104 -0.4761
 1165TIP3    H125130   0.133   1.675   8.642 -0.7716  0.6256  0.0138
 1165TIP3    H225131   0.092   1.605   8.769 -0.0678 -0.6117 -0.4296
 1166TIP3   OH225132   6.381   4.665   0.068 -0.1977  0.3352 -0.2372
 1166TIP3    H125133   6.442   4.660   0.142  0.0178 -0.6070 -0.4686
 1166TIP3    H225134   6.436   4.660  -0.010 -0.5525 -0.6547 -0.4479
 1167TIP3   OH225135   3.065   1.846   8.035 -0.0702  0.2513 -0.2990
 1167TIP3    H125136   3.160   1.856   8.029  0.1299 -0.3561  1.4142
 1167TIP3    H225137   3.043   1.880   8.121 -1.1944 -0.9843 -0.0720
 1168TIP3   OH225138   1.286   0.196   1.184  0.2666  0.6040 -0.0390
 1168TIP3    H125139   1.280   0.152   1.268 -1.5395  0.7256 -0.0555
 1168TIP3    H225140   1.340   0.274   1.200  0.8828  0.0280  0.7141
 1169TIP3   OH225141   1.637   6.375   1.038  0.5850  0.2544 -0.4198
 1169TIP3    H125142   1.647   6.467   1.014  0.5292  0.0253 -1.3445
 1169TIP3    H225143   1.558   6.373   1.092  1.0638  0.8691  0.3318
 1170TIP3   OH225144   0.027   2.794   1.624 -0.3574 -0.0532 -0.1495
 1170TIP3    H125145   0.005   2.707   1.657  1.6550 -1.7599 -2.9236
 1170TIP3    H225146   0.114   2.813   1.660  0.1086 -0.1470 -1.1891
 1171TIP3   OH225147   5.443   5.076   6.847  0.0699 -0.4997 -0.2811
 1171TIP3    H125148   5.409   4.999   6.801  1.1544 -0.7291 -0.7325
 1171TIP3    H225149   5.427   5.058   6.939  0.9529 -1.6046 -0.3228
 1172TIP3   OH225150   3.718   4.426   2.261 -0.2796  0.0194  1.4058
 1172TIP3    H125151   3.686   4.337   2.272 -0.4474  0.1476  2.0498
 1172TIP3    H225152   3.811   4.422   2.284  0.6224 -0.6507 -1.9453
 1173TIP3   OH225153   0.022   0.365   0.632 -0.0990 -0.1577  0.7044
 1173TIP3    H125154   0.113   0.337   0.617 -0.0958 -0.2597  0.9102
 1173TIP3    H225155   0.027   0.419   0.711 -0.0643  0.6444  0.1603
 1174TIP3   OH225156   2.612   0.981   6.233 -0.0708  0.3048  0.2735
 1174TIP3    H125157   2.623   1.040   6.307  1.3327 -0.9343  1.1120
 1174TIP3    H225158   2.612   1.039   6.156 -2.8127  1.7180  1.2380
 1175TIP3   OH225159   6.593   4.318   1.801 -0.2168 -0.7871 -0.3863
 1175TIP3    H125160   6.529   4.254   1.831  0.3326 -1.3103 -0.2864
 1175TIP3    H225161   6.613   4.371   1.878 -0.5632 -0.5889 -0.4313
 1176TIP3   OH225162   5.223   1.404   7.932  0.0477 -0.9061 -0.3786
 1176TIP3    H125163   5.189   1.347   7.863  0.0141 -0.9520 -0.3233
 1176TIP3    H225164   5.291   1.455   7.888 -1.1913  0.3548 -0.9058
 1177TIP3   OH225165   0.944   0.301   6.381  0.1475  0.1459 -0.2872
 1177TIP3    H125166   0.907   0.250   6.309  1.9949  1.3569 -2.2118
 1177TIP3    H225167   0.926   0.392   6.357  1.1721  0.5854  0.5602
 1178TIP3   OH225168   1.760   5.132   1.166 -0.0060 -0.0486 -0.6882
 1178TIP3    H125169   1.744   5.224   1.143 -0.0428 -0.1844 -1.2022
 1178TIP3    H225170   1.679   5.104   1.210 -0.0482  0.1239 -0.6556
 1179TIP3   OH225171   0.538   3.473   0.017  0.1938  0.0820  0.7626
 1179TIP3    H125172   0.564   3.382   0.007  0.2284  0.1032  0.6617
 1179TIP3    H225173   0.474   3.472   0.088  0.9827  0.1208  1.4964
 1180TIP3   OH225174   4.821   5.702   1.533  0.4125  0.1202  0.0997
 1180TIP3    H125175   4.807   5.795   1.553  1.5784  0.3131  0.0451
 1180TIP3    H225176   4.735   5.662   1.547  0.4474  0.7457  2.7192
 1181TIP3   OH225177   5.257   1.493   7.577  0.2850  0.2730 -0.2817
 1181TIP3    H125178   5.292   1.406   7.557  1.4516  1.0427 -1.7408
 1181TIP3    H225179   5.248   1.536   7.492 -1.7769  1.0711  0.2635
 1182TIP3   OH225180   4.885   3.910   1.757  0.5984  0.0499  0.4608
 1182TIP3    H125181   4.895   3.997   1.717  0.5603  0.0989  0.5561
 1182TIP3    H225182   4.804   3.876   1.721  0.9793 -0.2471 -0.1293
 1183TIP3   OH225183   1.250   0.354   8.011 -0.4917 -0.2158  0.4490
 1183TIP3    H125184   1.248   0.401   8.094  1.5733 -1.0625  1.0347
 1183TIP3    H225185   1.332   0.304   8.013 -0.1304  0.0832 -2.2862
 1184TIP3   OH225186   1.964   6.522   7.880  0.1792 -0.5441  0.9796
 1184TIP3    H125187   1.957   6.618   7.888  0.5896 -0.4094 -0.0465
 1184TIP3    H225188   1.964   6.490   7.970 -1.2984  0.3133  1.3084
 1185TIP3   OH225189   3.122   2.484   8.150 -0.0487  0.1754  0.0773
 1185TIP3    H125190   3.178   2.558   8.126  0.8885 -0.5937 -0.1449
 1185TIP3    H225191   3.105   2.496   8.243 -1.4354  1.6683 -0.3131
 1186TIP3   OH225192   4.680   5.536   0.564 -0.2012  0.2813  0.2191
 1186TIP3    H125193   4.723   5.471   0.620 -0.5275 -0.0991  0.0268
 1186TIP3    H225194   4.589   5.509   0.560  0.2576 -1.2418 -2.6164
 1187TIP3   OH225195   5.094   5.128   7.192 -0.2632 -0.7579 -0.0802
 1187TIP3    H125196   5.089   5.193   7.122 -1.3908 -0.2775  0.4219
 1187TIP3    H225197   5.052   5.171   7.267 -0.9313 -2.0369  0.2889
 1188TIP3   OH225198   4.838   2.532   6.097 -0.0561  0.1269 -0.0822
 1188TIP3    H125199   4.748   2.561   6.085 -0.3575 -0.3439  0.9297
 1188TIP3    H225200   4.831   2.439   6.119  0.6390  0.2098  0.5091
 1189TIP3   OH225201   2.087   6.142   8.058 -0.0705 -1.0273 -0.0033
 1189TIP3    H125202   2.174   6.170   8.029  0.4761 -0.6268  1.8276
 1189TIP3    H225203   2.049   6.096   7.983  1.3598 -0.4329 -1.1345
 1190TIP3   OH225204   5.747   2.829   7.565  0.1938 -0.3526 -0.3554
 1190TIP3    H125205   5.766   2.897   7.501  0.4281 -0.2800 -0.2103
 1190TIP3    H225206   5.689   2.870   7.629 -1.0857 -0.7806 -1.1922
 1191TIP3   OH225207   2.887   4.493   0.238 -0.7853  0.2749 -0.1288
 1191TIP3    H125208   2.980   4.509   0.226  0.0257 -2.0627  2.0946
 1191TIP3    H225209   2.858   4.455   0.155  0.5934 -0.3746 -0.3351
 1192TIP3   OH225210   0.946   6.376   7.957  0.3765 -0.3097  0.1345
 1192TIP3    H125211   1.000   6.409   8.028  0.7257 -0.7380  0.0728
 1192TIP3    H225212   1.006   6.324   7.903  0.0799 -0.1334 -0.3768
 1193TIP3   OH225213   4.950   3.054   8.004  0.5658 -0.1929 -0.2488
 1193TIP3    H125214   4.922   3.059   7.912 -0.6516 -0.2082  0.1093
 1193TIP3    H225215   4.878   3.093   8.053  1.0595 -0.4944  0.7323
 1194TIP3   OH225216   2.836   6.062   7.432 -0.0680  0.2189 -0.2561
 1194TIP3    H125217   2.754   6.018   7.454 -0.1193 -0.3714 -1.4972
 1194TIP3    H225218   2.885   5.996   7.382 -0.0829  1.5016 -2.0536
 1195TIP3   OH225219   5.255   0.700   0.920 -0.0087 -0.6024  0.0391
 1195TIP3    H125220   5.183   0.703   0.857  0.6978  0.1205 -0.7500
 1195TIP3    H225221   5.270   0.606   0.934 -0.1281 -0.7748 -0.9235
 1196TIP3   OH225222   6.667   5.776   1.005  0.6730 -0.1999 -0.1010
 1196TIP3    H125223   6.632   5.726   1.080 -0.8417  0.6055 -0.2425
 1196TIP3    H225224   6.716   5.711   0.955 -2.6204 -2.1063 -1.1961
 1197TIP3   OH225225   1.316   0.796   0.497  0.2047  0.7403  0.9515
 1197TIP3    H125226   1.301   0.728   0.432  0.8991  0.3512  1.1882
 1197TIP3    H225227   1.278   0.762   0.578  1.9039 -0.0543  1.4433
 1198TIP3   OH225228   2.931   2.757   7.951  0.3035 -0.8212 -0.5512
 1198TIP3    H125229   2.971   2.727   7.870  0.3391 -0.2142 -0.7665
 1198TIP3    H225230   3.004   2.776   8.009  0.3072 -0.4864 -0.6618
 1199TIP3   OH225231   0.696   6.323   0.446  0.2870 -0.4239  0.7438
 1199TIP3    H125232   0.686   6.246   0.501 -0.2763 -1.3622 -0.5976
 1199TIP3    H225233   0.788   6.348   0.455  0.2621 -0.7126  1.8728
 1200TIP3   OH225234   3.734   1.332   8.572 -0.1094 -0.7703  0.3410
 1200TIP3    H125235   3.726   1.238   8.557 -1.1450 -0.6956  0.3347
 1200TIP3    H225236   3.820   1.355   8.537 -0.5993 -1.3876 -1.3573
 1201TIP3   OH225237   4.666   0.908   0.539 -0.3511 -0.0326 -0.6574
 1201TIP3    H125238   4.632   0.895   0.627 -1.2527  0.6473 -0.8925
 1201TIP3    H225239   4.694   1.000   0.538  0.2032 -0.1992 -0.9060
 1202TIP3   OH225240   5.911   3.082   1.396  0.0684  0.4267  0.7544
 1202TIP3    H125241   5.982   3.082   1.461  0.0038  2.3690  0.8763
 1202TIP3    H225242   5.833   3.106   1.446 -0.7873 -1.8352  0.6499
 1203TIP3   OH225243   5.179   4.507   1.071  0.3251  0.4302 -0.0642
 1203TIP3    H125244   5.258   4.538   1.114  1.8060 -1.5104 -1.2109
 1203TIP3    H225245   5.157   4.577   1.008  2.2422  0.2379 -1.0220
 1204TIP3   OH225246   5.492   4.036   1.223  0.1050  0.1882  0.2495
 1204TIP3    H125247   5.552   4.050   1.150  1.3084 -1.2506  0.9185
 1204TIP3    H225248   5.505   4.112   1.280  0.0749  0.6853 -0.3934
 1205TIP3   OH225249   1.407   5.911   1.956  0.4780 -0.1321  0.8292
 1205TIP3    H125250   1.463   5.937   1.883 -0.6805 -1.4595 -0.6218
 1205TIP3    H225251   1.447   5.951   2.033  1.8804  1.1370 -0.4914
 1206TIP3   OH225252   6.308   5.675   6.591 -0.0385  0.6137  0.3212
 1206TIP3    H125253   6.255   5.623   6.530 -0.8821  0.7713  0.8971
 1206TIP3    H225254   6.398   5.647   6.574 -0.2642  0.5422 -0.8810
 1207TIP3   OH225255   0.649   1.041   0.228 -0.4966 -0.1385  0.2456
 1207TIP3    H125256   0.602   1.047   0.311  0.3393 -0.0413  0.7153
 1207TIP3    H225257   0.702   1.120   0.224 -0.9433  0.1370 -0.6536
 1208TIP3   OH225258   6.406   6.106   2.439 -0.2378 -0.1185 -0.4081
 1208TIP3    H125259   6.329   6.135   2.486 -0.3241 -1.1344  0.0992
 1208TIP3    H225260   6.476   6.165   2.469 -0.4398 -0.3120  0.4523
 1209TIP3   OH225261   3.658   2.745   8.206  0.0414  0.1519 -0.1217
 1209TIP3    H125262   3.611   2.722   8.286  0.0423 -2.0841 -0.6955
 1209TIP3    H225263   3.749   2.721   8.224 -0.0898 -1.1813 -1.0127
 1210TIP3   OH225264   1.621   3.857   7.778  0.4351  0.1291 -0.1730
 1210TIP3    H125265   1.659   3.871   7.691 -0.5901  0.4721 -0.5686
 1210TIP3    H225266   1.540   3.810   7.761  0.6146 -0.4967  0.6661
 1211TIP3   OH225267   6.090   5.743   0.732 -0.3794  0.2582 -0.1326
 1211TIP3    H125268   6.096   5.716   0.640  0.3823 -0.4110  0.1051
 1211TIP3    H225269   6.044   5.827   0.729 -1.6217 -0.4115 -1.0059
 1212TIP3   OH225270   2.180   2.251   7.945 -0.7372  0.0423 -0.0797
 1212TIP3    H125271   2.251   2.258   8.009 -1.3443  0.7267  0.5365
 1212TIP3    H225272   2.106   2.295   7.986 -0.6300  2.2149 -1.9733
 1213TIP3   OH225273   3.635   3.851   7.372  0.6564  0.0123  0.1278
 1213TIP3    H125274   3.696   3.794   7.325 -0.0810 -0.1781 -0.6113
 1213TIP3    H225275   3.677   3.865   7.457  1.7610 -0.0743 -0.3754
 1214TIP3   OH225276   6.816   0.688   0.624 -0.4687 -0.6749 -0.0972
 1214TIP3    H125277   6.852   0.644   0.701 -1.6832 -2.0270 -0.2663
 1214TIP3    H225278   6.791   0.775   0.656  2.1745  0.0806  0.1871
 1215TIP3   OH225279   2.864   3.252   0.517 -0.5393 -0.2190 -0.4696
 1215TIP3    H125280   2.883   3.213   0.603 -0.6522  1.1472  0.2107
 1215TIP3    H225281   2.914   3.334   0.517 -2.1798  0.8239 -0.8440
 1216TIP3   OH225282   5.588   2.358   8.561  0.0070 -0.5841 -0.8813
 1216TIP3    H125283   5.625   2.407   8.635 -1.9043 -0.4311  0.0488
 1216TIP3    H225284   5.588   2.267   8.591 -1.2504 -0.4584 -0.4394
 1217TIP3   OH225285   3.178   4.960   8.220  0.3376 -0.1170  0.7349
 1217TIP3    H125286   3.084   4.944   8.220  0.5042 -1.2506 -0.2554
 1217TIP3    H225287   3.194   5.010   8.300 -1.0835  0.0153  0.9626
 1218TIP3   OH225288   0.867   4.855   1.161  0.7705 -0.0374  0.0886
 1218TIP3    H125289   0.776   4.836   1.141  0.8664 -0.7951  0.3248
 1218TIP3    H225290   0.915   4.777   1.133  1.5527  0.9280 -1.3924
 1219TIP3   OH225291   1.052   1.365   8.231 -0.0966 -0.1177  0.4946
 1219TIP3    H125292   1.135   1.410   8.214 -0.3381  0.4030  0.6477
 1219TIP3    H225293   0.985   1.426   8.199 -0.3973 -0.8408 -0.2880
 1220TIP3   OH225294   3.155   2.657   1.604 -0.2825 -0.0759 -0.4650
 1220TIP3    H125295   3.147   2.661   1.508  0.5444 -0.4089 -0.5530
 1220TIP3    H225296   3.194   2.741   1.628  0.1976 -0.2922 -0.4926
 1221TIP3   OH225297   2.071   4.447   1.464  0.1308 -0.2737  0.4083
 1221TIP3    H125298   2.064   4.538   1.436 -0.6768 -0.5486 -0.3344
 1221TIP3    H225299   2.131   4.449   1.539  1.1460  0.6818 -0.3997
 1222TIP3   OH225300   2.105   1.882   0.258 -0.3082 -0.7850  0.0144
 1222TIP3    H125301   2.182   1.832   0.230  0.1656  0.6788 -1.4120
 1222TIP3    H225302   2.136   1.935   0.332  0.3499  0.5068 -1.1541
 1223TIP3   OH225303   5.883   3.246   8.422  0.0657 -0.2808  0.5254
 1223TIP3    H125304   5.905   3.338   8.410 -1.1038 -0.1244 -0.8429
 1223TIP3    H225305   5.966   3.202   8.440  0.7944  0.8937  0.1102
 1224TIP3   OH225306   2.448   6.201   1.208  0.2204 -0.0858 -0.6328
 1224TIP3    H125307   2.541   6.180   1.222 -0.2969 -1.3631  1.3320
 1224TIP3    H225308   2.447   6.257   1.131  2.6407  0.0666 -0.6217
 1225TIP3   OH225309   0.401   0.582   7.544 -0.3972  0.4244  1.3689
 1225TIP3    H125310   0.377   0.674   7.555 -0.9490  0.3159  1.1173
 1225TIP3    H225311   0.423   0.573   7.452 -0.1612  0.3460  1.4331
 1226TIP3   OH225312   0.470   2.953   1.390  0.3791  0.2638  0.7211
 1226TIP3    H125313   0.449   2.990   1.304  2.3138 -1.5565 -0.6531
 1226TIP3    H225314   0.525   3.019   1.433  0.6224  0.5932 -0.0776
 1227TIP3   OH225315   4.204   4.102   8.478 -0.0157 -0.0525  0.5244
 1227TIP3    H125316   4.109   4.090   8.477  0.2158 -2.5801 -1.4968
 1227TIP3    H225317   4.234   4.067   8.394  3.0472 -2.6159  2.4335
 1228TIP3   OH225318   6.265   1.100   8.527  0.6892 -0.2890  0.0268
 1228TIP3    H125319   6.358   1.110   8.546  0.3809  0.5349  1.1781
 1228TIP3    H225320   6.262   1.082   8.432  1.8934  1.6387 -0.4239
 1229TIP3   OH225321   4.916   3.942   0.131 -0.0304 -0.0765  0.3381
 1229TIP3    H125322   4.832   3.896   0.142 -0.8078  0.9651 -0.9098
 1229TIP3    H225323   4.974   3.877   0.091 -1.0358 -0.1146 -1.1453
 1230TIP3   OH225324   4.550   4.511   6.474  0.3119 -0.6552 -0.2125
 1230TIP3    H125325   4.571   4.418   6.486  0.1834 -0.7520 -0.7161
 1230TIP3    H225326   4.547   4.547   6.563 -0.9125 -1.4127  0.0779
 1231TIP3   OH225327   3.303   3.568   8.734 -0.0499  0.2761 -0.0629
 1231TIP3    H125328   3.331   3.561   8.642 -0.6666  0.4617 -0.2709
 1231TIP3    H225329   3.233   3.503   8.743  0.9329 -0.7271  0.6595
 1232TIP3   OH225330   5.077   3.567   1.386 -0.2216 -0.5022  0.1683
 1232TIP3    H125331   5.056   3.642   1.442 -0.0983 -0.0939 -0.3264
 1232TIP3    H225332   5.137   3.602   1.320  0.3151 -1.1676  0.2847
 1233TIP3   OH225333   5.737   2.692   8.595 -0.2870  0.6396 -0.5559
 1233TIP3    H125334   5.658   2.700   8.542 -0.8588 -0.1431  0.1480
 1233TIP3    H225335   5.785   2.773   8.581 -0.5244  0.5312 -2.0993
 1234TIP3   OH225336   0.625   4.302   7.509 -0.4251  0.1239  0.1109
 1234TIP3    H125337   0.657   4.236   7.570 -0.5967  0.0578  0.1297
 1234TIP3    H225338   0.643   4.386   7.552 -0.3911  0.0831  0.1761
 1235TIP3   OH225339   2.535   3.762   8.678 -0.0307 -0.7224  0.3922
 1235TIP3    H125340   2.465   3.732   8.736 -0.7170  2.5478  1.4989
 1235TIP3    H225341   2.492   3.771   8.593 -0.7266  0.2164  0.8176
 1236TIP3   OH225342   2.794   4.009   1.303  0.2959  0.0818 -0.5520
 1236TIP3    H125343   2.717   4.041   1.256  0.2553 -0.2855 -0.7362
 1236TIP3    H225344   2.823   3.932   1.254 -1.5213 -2.1573  1.6236
 1237TIP3   OH225345   3.386   6.237   7.553 -0.2930 -0.4412 -0.2344
 1237TIP3    H125346   3.340   6.243   7.469  0.7479 -0.2796 -0.8040
 1237TIP3    H225347   3.387   6.144   7.573  1.2232 -0.7175 -1.4288
 1238TIP3   OH225348   6.483   6.556   2.124 -0.0344  0.0205 -0.0683
 1238TIP3    H125349   6.514   6.635   2.169 -0.5293 -0.2183  0.7150
 1238TIP3    H225350   6.412   6.587   2.068 -0.8406  0.0081  0.9210
 1239TIP3   OH225351   6.331   3.839   7.811 -0.0985 -0.2852  0.0597
 1239TIP3    H125352   6.239   3.863   7.822 -0.7289 -1.0485 -2.6769
 1239TIP3    H225353   6.333   3.745   7.827 -0.1964 -0.6034 -1.6665
 1240TIP3   OH225354   2.041   2.803   1.276  0.1591  0.3838  0.0248
 1240TIP3    H125355   1.960   2.850   1.296 -0.1512 -0.6313  1.3005
 1240TIP3    H225356   2.012   2.718   1.241  0.6920  0.5250 -0.7946
 1241TIP3   OH225357   6.825   2.546   8.227  0.0397  0.2817  0.0272
 1241TIP3    H125358   6.833   2.480   8.158 -0.6195  1.0950 -0.8643
 1241TIP3    H225359   6.740   2.528   8.267 -0.4728  1.0007 -0.6968
 1242TIP3   OH225360   4.836   2.105   1.085  0.2183  0.2044 -0.3643
 1242TIP3    H125361   4.765   2.142   1.034 -0.8024 -0.3837  0.5917
 1242TIP3    H225362   4.910   2.165   1.070 -0.5737  1.0315 -1.0631
 1243TIP3   OH225363   4.922   3.981   7.085 -0.4290  0.1877 -0.4133
 1243TIP3    H125364   4.842   4.017   7.124  0.2885  1.9575 -0.4613
 1243TIP3    H225365   4.912   3.996   6.991  0.6662  2.0759 -0.2825
 1244TIP3   OH225366   5.555   2.335   7.070 -0.0350  0.2075  0.1702
 1244TIP3    H125367   5.466   2.323   7.036 -0.1609  1.2623  0.1015
 1244TIP3    H225368   5.578   2.249   7.106 -0.4688 -0.5291 -1.2201
 1245TIP3   OH225369   0.514   5.538   8.177 -0.1379 -0.7532  0.0956
 1245TIP3    H125370   0.446   5.476   8.202  0.9665 -2.1357 -0.1956
 1245TIP3    H225371   0.543   5.509   8.090  1.0901 -0.4509  0.3757
 1246TIP3   OH225372   3.673   5.673   1.406  0.3187 -0.0280  0.1500
 1246TIP3    H125373   3.605   5.711   1.463 -0.8015 -0.7790 -0.6378
 1246TIP3    H225374   3.624   5.636   1.332  1.7826  1.5330 -1.6943
 1247TIP3   OH225375   2.074   4.694   8.811  0.1652  0.2693 -0.7488
 1247TIP3    H125376   2.037   4.606   8.817  2.0474 -0.5116  2.9563
 1247TIP3    H225377   2.137   4.689   8.739 -0.5703 -1.0571 -1.3294
 1248TIP3   OH225378   6.412   4.710   7.574  0.1494  0.1607  0.0005
 1248TIP3    H125379   6.417   4.701   7.669 -0.2879  0.8654  0.0990
 1248TIP3    H225380   6.476   4.778   7.552 -0.4645  0.7175 -0.0882
 1249TIP3   OH225381   0.011   6.506   6.758  0.2016 -0.4757  0.2315
 1249TIP3    H125382   0.036   6.518   6.849 -1.3510 -0.4341  0.6673
 1249TIP3    H225383   0.095   6.494   6.712  0.9701 -1.0176  1.7152
 1250TIP3   OH225384   1.672   6.590   0.068  0.0839  0.6394 -0.1221
 1250TIP3    H125385   1.624   6.668   0.041  0.3111  0.5040 -0.9433
 1250TIP3    H225386   1.667   6.590   0.164 -0.2671  1.4346 -0.1380
 1251TIP3   OH225387   6.177   0.138   8.699  0.5469 -0.1177  0.1322
 1251TIP3    H125388   6.163   0.233   8.700 -0.6446 -0.2773  1.6174
 1251TIP3    H225389   6.271   0.128   8.684  0.6867  1.2931 -0.0670
 1252TIP3   OH225390   1.297   5.098   7.081  0.3760 -0.3650  0.4252
 1252TIP3    H125391   1.304   5.075   7.174  0.1694 -1.4154  0.1984
 1252TIP3    H225392   1.360   5.040   7.037  0.3693  0.0219 -0.1058
 1253TIP3   OH225393   6.333   4.999   7.833 -0.1872  0.0622  0.2320
 1253TIP3    H125394   6.331   5.037   7.920  1.2102  0.3814  0.1464
 1253TIP3    H225395   6.385   5.061   7.781 -1.1334 -0.0317 -0.8797
 1254TIP3   OH225396   3.550   2.897   1.502  0.1698 -0.0980  0.5265
 1254TIP3    H125397   3.605   2.834   1.548  0.9238 -0.0491 -0.2752
 1254TIP3    H225398   3.530   2.855   1.418  1.3369  1.0154 -0.3528
 1255TIP3   OH225399   4.162   1.720   0.871  0.6252  0.1912 -0.8278
 1255TIP3    H125400   4.197   1.634   0.846  0.4400  0.0978 -0.7600
 1255TIP3    H225401   4.208   1.782   0.812  1.3794  0.1379 -0.3109
 1256TIP3   OH225402   1.981   1.514   8.635 -0.6102 -0.2974  0.4554
 1256TIP3    H125403   1.910   1.578   8.637 -0.6733 -0.3457  2.3803
 1256TIP3    H225404   2.012   1.514   8.545 -2.4465  0.3954 -0.2172
 1257TIP3   OH225405   1.308   3.931   1.996 -0.1864  0.1252  0.1652
 1257TIP3    H125406   1.367   3.945   2.069 -0.6193  1.8980  0.2354
 1257TIP3    H225407   1.220   3.936   2.035 -0.4031 -0.4404 -0.2415
 1258TIP3   OH225408   6.147   0.550   0.421 -0.5469  0.1296  0.3379
 1258TIP3    H125409   6.101   0.474   0.456 -0.2245 -0.1984  0.0502
 1258TIP3    H225410   6.092   0.625   0.446 -0.9368 -0.2065  0.4914
 1259TIP3   OH225411   1.413   3.193   8.121 -0.1403  0.2144 -0.3694
 1259TIP3    H125412   1.332   3.168   8.166 -1.9791  3.5290 -1.4899
 1259TIP3    H225413   1.424   3.126   8.053 -1.3335 -0.8870  0.4703
 1260TIP3   OH225414   0.155   4.330   0.482  0.0563  0.2979  0.1845
 1260TIP3    H125415   0.102   4.336   0.403  0.6181  1.0499 -0.1518
 1260TIP3    H225416   0.222   4.265   0.461  0.2467  0.5475  0.0143
 1261TIP3   OH225417   1.622   5.371   0.927 -0.0791 -0.1889 -0.1340
 1261TIP3    H125418   1.633   5.331   0.841 -0.8683  2.1760 -1.4038
 1261TIP3    H225419   1.696   5.432   0.935 -1.6804  1.9045 -0.5484
 1262TIP3   OH225420   1.913   5.968   1.224  0.5389  0.4194 -0.1855
 1262TIP3    H125421   1.856   5.918   1.166 -1.1122 -0.9475  2.4041
 1262TIP3    H225422   1.859   6.041   1.254  1.1885  0.8051  0.0823
 1263TIP3   OH225423   6.550   1.785   0.720 -0.4289  0.0875  0.6587
 1263TIP3    H125424   6.517   1.758   0.805 -0.3933 -1.6450  0.1476
 1263TIP3    H225425   6.537   1.709   0.663 -0.1588  1.0918 -0.8067
 1264TIP3   OH225426   5.758   2.923   0.220  0.4353 -0.1910  0.0304
 1264TIP3    H125427   5.809   3.001   0.200 -0.9312  0.5951 -0.5095
 1264TIP3    H225428   5.690   2.920   0.152 -0.2048 -1.2266  0.6778
 1265TIP3   OH225429   4.649   1.082   7.167  0.1929 -0.5029 -0.1401
 1265TIP3    H125430   4.637   1.170   7.203 -1.4067 -0.5772 -0.4098
 1265TIP3    H225431   4.584   1.076   7.097  1.1526 -1.4597 -0.9793
 1266TIP3   OH225432   5.971   0.392   1.418  0.3766 -0.2507 -0.2300
 1266TIP3    H125433   5.907   0.327   1.391  1.2749 -0.7676 -1.1850
 1266TIP3    H225434   5.972   0.386   1.514 -0.6751 -0.5344 -0.2298
 1267TIP3   OH225435   0.576   1.251   8.193 -0.4560 -0.1426  0.2813
 1267TIP3    H125436   0.485   1.223   8.204 -0.5079 -0.3078 -0.4703
 1267TIP3    H225437   0.570   1.345   8.173 -0.5426 -0.3436 -0.7060
 1268TIP3   OH225438   4.966   3.418   6.982  0.4776 -0.4130  0.0382
 1268TIP3    H125439   5.059   3.441   6.982  0.0976  1.5422 -2.0628
 1268TIP3    H225440   4.925   3.488   6.932 -2.0994 -1.4285  0.5994
 1269TIP3   OH225441   5.716   5.695   0.909 -0.3699 -0.0080  0.2294
 1269TIP3    H125442   5.644   5.755   0.929  0.9432  1.0789  1.9928
 1269TIP3    H225443   5.789   5.726   0.963  1.1760 -1.5913 -0.8356
 1270TIP3   OH225444   4.096   6.417   6.758  0.3350  0.0300  0.0435
 1270TIP3    H125445   4.144   6.334   6.763 -0.0090 -0.1078  2.1400
 1270TIP3    H225446   4.020   6.397   6.704  1.3669 -0.4038 -1.2923
 1271TIP3   OH225447   3.790   0.212   1.897 -0.5623  0.2415  0.3148
 1271TIP3    H125448   3.732   0.244   1.966  0.1595 -0.9472  1.5259
 1271TIP3    H225449   3.852   0.284   1.883  0.8673 -0.3671  2.7959
 1272TIP3   OH225450   3.068   6.488   2.386 -0.0008 -0.2950  0.4686
 1272TIP3    H125451   2.995   6.428   2.401  0.5022 -0.5651  2.0058
 1272TIP3    H225452   3.146   6.433   2.392  0.5128  0.5663  2.6628
 1273TIP3   OH225453   2.750   1.449   0.419  0.2960  0.0522 -0.7325
 1273TIP3    H125454   2.820   1.512   0.403  1.4531 -0.7998  0.6898
 1273TIP3    H225455   2.696   1.489   0.487  0.8453 -0.3400 -0.0590
 1274TIP3   OH225456   1.497   6.590   6.694  0.4010 -0.4043  0.5385
 1274TIP3    H125457   1.420   6.570   6.748 -0.2347  0.3349 -0.0793
 1274TIP3    H225458   1.564   6.529   6.725 -0.5203 -1.2685  0.8857
 1275TIP3   OH225459   4.881   6.076   0.517 -0.1634 -0.1847 -0.4795
 1275TIP3    H125460   4.805   6.109   0.564  0.6564  0.8440  0.1829
 1275TIP3    H225461   4.878   6.120   0.432  1.2199  2.1649  0.5938
 1276TIP3   OH225462   5.553   1.546   6.229 -0.4173  0.2725 -0.4926
 1276TIP3    H125463   5.640   1.515   6.204 -0.3922 -0.7637  0.7563
 1276TIP3    H225464   5.565   1.638   6.252  0.8388 -0.3741  1.7405
 1277TIP3   OH225465   5.634   0.741   7.872  0.5596  0.1153  0.2888
 1277TIP3    H125466   5.607   0.651   7.892 -0.1065 -0.2745 -1.9951
 1277TIP3    H225467   5.559   0.795   7.898  0.8857 -0.0024  1.4976
 1278TIP3   OH225468   2.080   3.926   1.345 -0.2553  0.1897 -0.2711
 1278TIP3    H125469   2.156   3.892   1.298 -0.4944 -0.5574 -0.1190
 1278TIP3    H225470   2.113   4.006   1.387  0.0793  0.6391 -1.3331
 1279TIP3   OH225471   2.868   4.001   8.508 -0.4520  0.1908  0.2543
 1279TIP3    H125472   2.923   4.079   8.513  0.7653 -0.6884  1.2657
 1279TIP3    H225473   2.906   3.940   8.572 -1.1818 -1.3439 -0.6983
 1280TIP3   OH225474   4.452   4.529   1.433 -0.1228  0.3101  0.0532
 1280TIP3    H125475   4.374   4.583   1.444 -0.7922 -0.5549 -0.3964
 1280TIP3    H225476   4.428   4.465   1.366 -0.1955 -2.1399  2.2768
 1281TIP3   OH225477   4.216   6.314   2.427 -0.0282 -0.6019 -0.4917
 1281TIP3    H125478   4.130   6.357   2.424  0.5839  0.6411 -1.0548
 1281TIP3    H225479   4.259   6.354   2.502  0.7830  0.2535 -1.3902
 1282TIP3   OH225480   5.505   6.153   1.466  0.5330  0.1363 -0.2572
 1282TIP3    H125481   5.545   6.079   1.420  0.2660  1.5406 -2.9640
 1282TIP3    H225482   5.426   6.173   1.416  0.1153  1.6918  0.9227
 1283TIP3   OH225483   6.531   1.928   8.220  0.2202 -0.2746 -0.0063
 1283TIP3    H125484   6.446   1.885   8.234 -0.0184  0.3895  0.6543
 1283TIP3    H225485   6.509   2.019   8.203  0.7502 -0.3206 -0.9510
 1284TIP3   OH225486   1.887   0.660   7.956  0.4211 -0.1466 -0.1137
 1284TIP3    H125487   1.913   0.568   7.968 -0.5395 -0.3280  0.8362
 1284TIP3    H225488   1.958   0.710   7.995  0.6547 -0.5244 -0.0432
 1285TIP3   OH225489   0.054   1.508   0.272  0.0007 -0.1967 -0.1395
 1285TIP3    H125490   0.026   1.450   0.343  0.5786 -1.2667 -0.7603
 1285TIP3    H225491   0.054   1.452   0.194  0.4294  0.6825 -0.7892
 1286TIP3   OH225492   6.578   0.774   1.366  0.7235 -0.1396  0.1109
 1286TIP3    H125493   6.574   0.847   1.304  0.0908 -1.0186 -0.9186
 1286TIP3    H225494   6.671   0.766   1.388  1.0425 -0.1874 -1.2004
 1287TIP3   OH225495   4.235   3.073   0.868 -0.2066 -0.5222 -0.1053
 1287TIP3    H125496   4.218   3.167   0.875 -1.7144 -0.7954  0.2755
 1287TIP3    H225497   4.166   3.041   0.810  0.4624 -1.3597 -0.4605
 1288TIP3   OH225498   3.856   6.340   1.036  0.5088 -0.5072 -0.2579
 1288TIP3    H125499   3.764   6.351   1.061  0.3612 -1.2175 -0.4598
 1288TIP3    H225500   3.853   6.315   0.944  0.8970 -0.6673 -0.2304
 1289TIP3   OH225501   1.020   5.964   7.843 -0.0658  0.1118 -0.5605
 1289TIP3    H125502   1.055   6.051   7.826  1.0326 -0.1806  0.0795
 1289TIP3    H225503   1.081   5.904   7.801  0.9234 -0.4631  1.5414
 1290TIP3   OH225504   6.569   2.321   1.818 -0.6474  0.2751  0.2686
 1290TIP3    H125505   6.574   2.247   1.756 -3.5213  1.9121 -2.1919
 1290TIP3    H225506   6.481   2.314   1.856 -0.5559  1.7827  0.8155
 1291TIP3   OH225507   2.311   5.574   0.438  0.0258 -0.3871  0.1358
 1291TIP3    H125508   2.274   5.537   0.358  0.5063 -1.9696  0.6093
 1291TIP3    H225509   2.248   5.551   0.506  0.1944 -0.0849  0.3937
 1292TIP3   OH225510   1.637   4.264   8.446  0.1565 -1.1281  0.2511
 1292TIP3    H125511   1.560   4.233   8.397 -0.9021 -1.9778  2.2993
 1292TIP3    H225512   1.708   4.206   8.419 -0.0734 -0.7569 -1.1930
 1293TIP3   OH225513   1.460   4.501   2.306  0.1326 -0.5198  0.3351
 1293TIP3    H125514   1.432   4.489   2.216  0.2477  0.7675  0.1008
 1293TIP3    H225515   1.486   4.414   2.335  1.0910 -0.7847 -1.2070
 1294TIP3   OH225516   1.268   5.619   0.548 -0.1890  0.4610 -0.6196
 1294TIP3    H125517   1.262   5.531   0.585 -0.0666  0.9492  0.5959
 1294TIP3    H225518   1.185   5.661   0.571  0.4932  1.2728  0.4750
 1295TIP3   OH225519   3.737   6.835   0.205 -0.4770 -0.2612 -0.1691
 1295TIP3    H125520   3.820   6.800   0.238  0.7449  1.1391 -1.6084
 1295TIP3    H225521   3.736   6.925   0.236 -0.0264  0.6210 -2.5148
 1296TIP3   OH225522   2.494   1.475   8.570 -0.3789  0.1336 -0.1806
 1296TIP3    H125523   2.467   1.561   8.603  0.5789  0.5108 -0.3192
 1296TIP3    H225524   2.590   1.478   8.573 -0.3318 -0.9149 -0.2462
 1297TIP3   OH225525   1.042   2.375   8.288 -0.4557  0.2236 -0.2182
 1297TIP3    H125526   1.086   2.337   8.364 -1.5342  0.6166  0.6403
 1297TIP3    H225527   0.976   2.434   8.326 -2.3348 -1.0187 -1.4014
 1298TIP3   OH225528   6.177   4.988   6.921 -0.0231  0.4759  0.0696
 1298TIP3    H125529   6.249   5.041   6.956  0.3169  1.5369 -2.0719
 1298TIP3    H225530   6.102   5.009   6.977  1.3142 -0.8917  2.5435
 1299TIP3   OH225531   3.656   2.719   1.042 -0.2359 -0.0657  0.0330
 1299TIP3    H125532   3.723   2.784   1.020 -0.0805 -0.2745 -0.1160
 1299TIP3    H225533   3.600   2.715   0.965 -0.1397 -0.2399 -0.0281
 1300TIP3   OH225534   5.912   1.531   1.799  0.3362 -0.2917 -0.6324
 1300TIP3    H125535   5.875   1.592   1.736 -1.0224  0.6566  0.9955
 1300TIP3    H225536   5.838   1.503   1.852  1.0666 -2.7452 -0.7952
 1301TIP3   OH225537   3.452   0.650   2.100  0.1103  0.5683 -0.2348
 1301TIP3    H125538   3.532   0.636   2.151 -0.3314  0.6599  0.4788
 1301TIP3    H225539   3.381   0.645   2.163 -0.3177  2.7918 -0.4776
 1302TIP3   OH225540   4.945   2.524   2.019 -0.4283 -0.7691  0.3839
 1302TIP3    H125541   4.888   2.540   1.944  1.3840  2.0854 -0.5486
 1302TIP3    H225542   4.896   2.559   2.094 -0.6385  0.0761 -0.1346
 1303TIP3   OH225543   5.368   4.521   7.665  0.4389  0.0178 -0.4202
 1303TIP3    H125544   5.342   4.565   7.746  1.2120  0.5289 -0.4401
 1303TIP3    H225545   5.370   4.428   7.688  0.7701  0.1677  0.1938
 1304TIP3   OH225546   1.030   2.495   0.986 -0.3170 -0.5295  0.1775
 1304TIP3    H125547   1.017   2.512   1.080  0.6693 -1.3551  0.4766
 1304TIP3    H225548   0.964   2.429   0.965 -0.6267 -0.2494  0.2506
 1305TIP3   OH225549   4.428   6.434   7.444  0.1083 -0.5782 -0.0039
 1305TIP3    H125550   4.509   6.392   7.470  0.9799 -0.1360 -1.8619
 1305TIP3    H225551   4.382   6.369   7.391 -0.2297 -0.4359  0.1076
 1306TIP3   OH225552   4.014   2.260   1.678 -0.2449  0.1706 -0.1060
 1306TIP3    H125553   4.079   2.330   1.675 -0.7502  0.6123 -1.0070
 1306TIP3    H225554   4.057   2.185   1.636 -0.6779  0.7896 -1.7268
 1307TIP3   OH225555   6.146   4.434   6.540 -0.3596 -0.2342 -0.1628
 1307TIP3    H125556   6.145   4.339   6.527  0.7048 -0.1994 -0.5882
 1307TIP3    H225557   6.055   4.456   6.560 -0.5233 -1.4136  0.5096
 1308TIP3   OH225558   2.436   4.914   0.085  0.3631 -0.2730  0.2820
 1308TIP3    H125559   2.391   4.892   0.004 -0.8092  1.1786  0.4734
 1308TIP3    H225560   2.528   4.898   0.067 -0.0285 -1.4494 -0.8084
 1309TIP3   OH225561   0.747   2.049   7.006 -0.2949  0.0455  0.1218
 1309TIP3    H125562   0.771   1.957   7.018  0.2089  0.3360  1.5248
 1309TIP3    H225563   0.815   2.085   6.950 -0.3634 -0.3751 -0.2360
 1310TIP3   OH225564   5.882   5.424   8.480  0.6627  0.3234  0.0710
 1310TIP3    H125565   5.851   5.498   8.429  0.7418  0.6512  0.4947
 1310TIP3    H225566   5.872   5.349   8.421  1.3845  0.7870 -0.6763
 1311TIP3   OH225567   6.047   3.498   8.472  0.1245 -0.1414 -0.3528
 1311TIP3    H125568   6.106   3.489   8.547  0.2761 -1.6078 -0.6260
 1311TIP3    H225569   5.984   3.565   8.499  0.9297  0.2606  0.5813
 1312TIP3   OH225570   5.283   4.595   1.548  0.3657  0.2555 -0.3439
 1312TIP3    H125571   5.267   4.505   1.521 -1.1558  0.8432 -1.5475
 1312TIP3    H225572   5.197   4.637   1.544  0.9785  1.6922  0.5288
 1313TIP3   OH225573   5.679   2.170   2.036 -0.1152 -0.4691 -0.1079
 1313TIP3    H125574   5.649   2.079   2.031 -0.7587 -0.2730  0.1343
 1313TIP3    H225575   5.620   2.211   2.099 -1.0335  0.5947 -1.5873
 1314TIP3   OH225576   3.183   5.723   1.921 -0.4171 -0.1628 -0.4897
 1314TIP3    H125577   3.174   5.813   1.890  1.6996  0.0993 -0.4827
 1314TIP3    H225578   3.261   5.690   1.877 -1.1674 -2.0407 -0.5254
 1315TIP3   OH225579   1.387   4.480   7.755 -0.4489 -0.1038  0.0115
 1315TIP3    H125580   1.437   4.506   7.833  0.6840 -0.8987 -0.4167
 1315TIP3    H225581   1.303   4.450   7.789 -0.0512 -0.2261  0.9205
 1316TIP3   OH225582   1.869   6.282   6.901  0.1874 -0.8454  0.4108
 1316TIP3    H125583   1.814   6.203   6.908 -1.7827  0.4322  0.2858
 1316TIP3    H225584   1.817   6.342   6.847  0.3903  1.4799  2.6198
 1317TIP3   OH225585   2.445   1.540   0.884  0.3411 -0.7896  0.2305
 1317TIP3    H125586   2.496   1.477   0.935  1.6591  1.2123  1.5096
 1317TIP3    H225587   2.510   1.600   0.848 -0.8323 -0.4098 -1.3573
 1318TIP3   OH225588   1.971   3.294   0.682 -0.2430  0.5676  0.2027
 1318TIP3    H125589   1.892   3.242   0.698 -0.3192  0.4092 -0.6104
 1318TIP3    H225590   1.942   3.385   0.686 -0.3951  0.5168  0.2580
 1319TIP3   OH225591   2.810   1.514   1.417  0.0218  0.2662  0.1708
 1319TIP3    H125592   2.735   1.478   1.465  0.4698 -0.2930  0.4469
 1319TIP3    H225593   2.799   1.482   1.328 -0.0463  0.1533  0.2200
 1320TIP3   OH225594   0.851   3.005   2.525 -0.0357  0.2056 -0.0230
 1320TIP3    H125595   0.811   3.015   2.611 -0.4799 -0.5005 -0.1420
 1320TIP3    H225596   0.940   3.040   2.536  0.1836 -0.6074  0.9360
 1321TIP3   OH225597   6.854   5.645   8.569 -0.6356  0.0696 -0.2579
 1321TIP3    H125598   6.890   5.602   8.647  0.0426  0.4448 -0.3557
 1321TIP3    H225599   6.791   5.708   8.603  1.2433  1.8194  0.1705
 1322TIP3   OH225600   6.056   1.434   1.041  0.1126 -0.0059  0.5900
 1322TIP3    H125601   5.988   1.383   0.996 -0.6377  1.1032  0.4486
 1322TIP3    H225602   6.138   1.402   1.003 -0.4555  0.2512 -0.9082
 1323TIP3   OH225603   5.356   5.032   7.116  0.1391  0.3764 -0.2043
 1323TIP3    H125604   5.280   5.065   7.165 -1.1093 -1.0920 -1.0687
 1323TIP3    H225605   5.401   4.975   7.178 -0.9191 -0.7433 -0.4178
 1324TIP3   OH225606   3.486   2.177   0.749  0.4426  0.0653 -0.1226
 1324TIP3    H125607   3.433   2.199   0.672  0.7459 -3.5375 -1.5484
 1324TIP3    H225608   3.569   2.145   0.712  1.6524  0.7373  1.8650
 1325TIP3   OH225609   5.016   0.868   7.372  0.0175  0.5715 -0.2637
 1325TIP3    H125610   5.093   0.819   7.402 -0.1097  1.4673  1.7291
 1325TIP3    H225611   5.038   0.898   7.284  2.0269  0.9484  0.3288
 1326TIP3   OH225612   4.251   0.976   6.730  0.1805 -0.1013  0.2771
 1326TIP3    H125613   4.248   0.915   6.657 -0.5684  0.2362  0.0266
 1326TIP3    H225614   4.276   1.060   6.691  2.3613 -0.4578  0.7725
 1327TIP3   OH225615   3.844   1.531   1.946  0.4921 -0.1950 -0.1798
 1327TIP3    H125616   3.850   1.437   1.964 -0.1220 -0.6162 -2.0243
 1327TIP3    H225617   3.764   1.558   1.992  0.8270 -0.4871  0.6035
 1328TIP3   OH225618   5.545   0.321   8.571 -0.1209  0.4189 -0.7042
 1328TIP3    H125619   5.589   0.301   8.488 -0.8780  1.9473 -1.5176
 1328TIP3    H225620   5.483   0.249   8.583  1.2508 -0.7688 -0.4994
 1329TIP3   OH225621   1.400   2.175   8.105  0.3305  0.0968 -0.1780
 1329TIP3    H125622   1.436   2.245   8.051  1.9697 -0.1775  0.4776
 1329TIP3    H225623   1.311   2.202   8.126  1.0009  2.1139  0.2623
 1330TIP3   OH225624   6.645   6.779   7.583  0.7593  0.4560 -0.1189
 1330TIP3    H125625   6.688   6.766   7.498  2.3271 -0.3169  0.7520
 1330TIP3    H225626   6.627   6.873   7.586  1.5949  0.6580 -0.8918
 1331TIP3   OH225627   3.112   5.846   0.344 -0.1174 -0.2008  0.5872
 1331TIP3    H125628   3.159   5.923   0.376  0.0150 -0.6530  1.5170
 1331TIP3    H225629   3.180   5.787   0.312 -0.1388 -0.3749  0.8623
 1332TIP3   OH225630   4.943   1.786   0.219  0.6477  0.0399  0.5682
 1332TIP3    H125631   5.036   1.809   0.225  1.2745 -1.9073 -0.6741
 1332TIP3    H225632   4.926   1.735   0.298  0.2575  1.4649  1.4362
 1333TIP3   OH225633   1.276   1.514   7.187 -0.0523 -0.4050 -0.2773
 1333TIP3    H125634   1.198   1.567   7.174  0.5186  0.0819 -2.0738
 1333TIP3    H225635   1.243   1.426   7.207 -1.1261 -0.5002 -2.2072
 1334TIP3   OH225636   6.857   6.691   8.543 -0.1908 -0.0695 -0.4896
 1334TIP3    H125637   6.921   6.726   8.605  0.4059  0.7085 -1.5111
 1334TIP3    H225638   6.892   6.714   8.457 -0.5008 -1.9747 -1.1636
 1335TIP3   OH225639   2.403   5.816   7.649 -0.3475 -0.2992 -0.6593
 1335TIP3    H125640   2.433   5.731   7.680 -0.2662  0.2353  0.8073
 1335TIP3    H225641   2.308   5.810   7.650 -0.3507 -0.2038 -0.0270
 1336TIP3   OH225642   2.084   1.029   0.751 -0.3285  0.2399 -0.2861
 1336TIP3    H125643   2.097   0.934   0.756 -0.9925  0.1023 -1.0145
 1336TIP3    H225644   2.130   1.054   0.671 -0.3744  0.4968 -0.2305
 1337TIP3   OH225645   2.703   2.458   8.552 -0.0089 -0.2181  0.1376
 1337TIP3    H125646   2.667   2.538   8.514  0.4129  0.3247  0.8407
 1337TIP3    H225647   2.751   2.417   8.481 -0.6688 -0.1169 -0.3711
 1338TIP3   OH225648   4.916   1.033   0.791 -0.0476  0.5931 -0.2062
 1338TIP3    H125649   4.829   1.009   0.824  0.3056  0.1487  0.4136
 1338TIP3    H225650   4.904   1.043   0.697 -1.0796  1.8578  0.0267
 1339TIP3   OH225651   3.557   1.839   0.683 -0.0618  0.0568  0.0497
 1339TIP3    H125652   3.601   1.905   0.630 -0.6246  0.8740  0.5809
 1339TIP3    H225653   3.489   1.887   0.730  0.8423 -0.5016  2.0413
 1340TIP3   OH225654   0.534   2.551   1.604  0.6328 -0.1460  0.4275
 1340TIP3    H125655   0.615   2.515   1.570  0.6584  0.0926  0.2392
 1340TIP3    H225656   0.469   2.482   1.588  0.5253  0.1881 -0.6140
 1341TIP3   OH225657   3.683   1.363   7.891  0.8242 -0.5013 -0.7987
 1341TIP3    H125658   3.596   1.400   7.905  0.8839 -0.1072 -1.4352
 1341TIP3    H225659   3.667   1.283   7.841  0.7146 -1.2191  0.3659
 1342TIP3   OH225660   3.824   4.658   1.562  0.5440  0.1796  0.7982
 1342TIP3    H125661   3.835   4.748   1.593 -0.3306  1.0869 -1.3127
 1342TIP3    H225662   3.853   4.660   1.471 -2.1218 -0.9320 -0.1893
 1343TIP3   OH225663   3.244   6.283   6.632 -0.3682 -0.0554  0.0577
 1343TIP3    H125664   3.158   6.293   6.592 -0.1803  0.2907 -0.2601
 1343TIP3    H225665   3.301   6.254   6.560  0.4408  2.5959 -0.4631
 1344TIP3   OH225666   2.964   0.695   7.350 -0.0854  0.1065 -0.1725
 1344TIP3    H125667   3.049   0.655   7.334  0.3512  0.2137  1.6539
 1344TIP3    H225668   2.932   0.719   7.263  1.3141 -0.7850 -0.9740
 1345TIP3   OH225669   3.546   0.680   0.476 -0.0328 -0.5662 -0.3574
 1345TIP3    H125670   3.612   0.679   0.407 -0.4741 -0.8674 -0.7830
 1345TIP3    H225671   3.532   0.772   0.495  2.0433 -0.5064  1.2306
 1346TIP3   OH225672   2.909   1.975   0.015  0.0986 -0.6659  0.6201
 1346TIP3    H125673   2.961   1.947  -0.060 -0.6175 -0.3098 -0.0306
 1346TIP3    H225674   2.842   2.032  -0.023  0.7670  0.9578  1.7215
 1347TIP3   OH225675   0.263   6.349   8.639  0.2536  0.5946 -0.3693
 1347TIP3    H125676   0.199   6.399   8.587  0.9073  1.4428 -0.3852
 1347TIP3    H225677   0.217   6.327   8.720 -1.2947 -2.0355 -1.8331
 1348TIP3   OH225678   0.042   2.249   1.041  0.3650  0.3360 -0.2083
 1348TIP3    H125679   0.024   2.156   1.049  0.7263  0.3788  1.6147
 1348TIP3    H225680   0.027   2.284   1.129  0.1241  2.0237 -0.8767
 1349TIP3   OH225681   2.073   3.106   1.791 -0.5880  0.4551 -0.4007
 1349TIP3    H125682   2.054   3.183   1.843  0.3382  0.1004  0.4992
 1349TIP3    H225683   1.987   3.066   1.775 -0.8386  0.1226  1.5799
 1350TIP3   OH225684   5.701   6.036   0.720 -0.4589 -0.1836  0.1910
 1350TIP3    H125685   5.669   5.963   0.666 -0.2336 -0.9667  1.0793
 1350TIP3    H225686   5.772   6.074   0.668  0.4503 -1.5830  0.3530
 1351TIP3   OH225687   1.981   1.836   1.830  0.1727 -0.3235 -0.2153
 1351TIP3    H125688   1.977   1.810   1.922 -2.1244 -0.9146 -0.4224
 1351TIP3    H225689   2.074   1.833   1.809  0.8481  0.5000  2.2519
 1352TIP3   OH225690   4.231   0.325   8.426  0.3076 -0.2206 -0.4538
 1352TIP3    H125691   4.182   0.382   8.367 -0.6521  0.8110  1.2523
 1352TIP3    H225692   4.265   0.383   8.494 -1.6227 -1.7119  1.9606
 1353TIP3   OH225693   2.776   2.980   7.338 -0.0471  0.1691 -0.5670
 1353TIP3    H125694   2.865   2.956   7.311  1.2557  2.5311  1.1565
 1353TIP3    H225695   2.772   2.957   7.431 -0.9056  0.9187 -0.4032
 1354TIP3   OH225696   1.272   2.987   7.298  0.2981 -0.7321 -0.2715
 1354TIP3    H125697   1.240   2.909   7.252  1.2786 -1.2372 -0.1262
 1354TIP3    H225698   1.342   2.955   7.354  1.9990  0.5229 -1.5845
 1355TIP3   OH225699   5.905   3.739   8.104  0.3244 -0.3071 -0.5702
 1355TIP3    H125700   5.883   3.760   8.013 -1.5846 -0.5421 -0.2094
 1355TIP3    H225701   5.893   3.822   8.150  3.0242  0.2668 -0.7523
 1356TIP3   OH225702   6.284   0.853   6.143 -0.1389 -0.0565  0.4945
 1356TIP3    H125703   6.337   0.776   6.163 -0.1196 -0.6092 -1.5117
 1356TIP3    H225704   6.204   0.819   6.103 -0.4838  0.9166  0.3068
 1357TIP3   OH225705   5.307   3.600   8.428 -0.0929  0.1068 -0.1940
 1357TIP3    H125706   5.351   3.681   8.455 -0.3191 -0.0110  0.5565
 1357TIP3    H225707   5.244   3.583   8.498  0.8221 -1.4057  0.3170
 1358TIP3   OH225708   5.124   2.599   6.471 -0.2759  0.4941 -0.2869
 1358TIP3    H125709   5.178   2.526   6.439  5.1753  1.2629  5.1718
 1358TIP3    H225710   5.155   2.675   6.422  2.5762  0.5851  1.4165
 1359TIP3   OH225711   0.882   1.830   7.360 -0.1155  0.1065 -0.4021
 1359TIP3    H125712   0.875   1.753   7.417  2.3229 -0.1976 -0.4156
 1359TIP3    H225713   0.896   1.903   7.421  1.6828 -0.1033 -0.5125
 1360TIP3   OH225714   5.680   5.308   0.659  0.2660 -0.1389 -0.3829
 1360TIP3    H125715   5.716   5.395   0.673 -0.3549  0.3320 -1.5457
 1360TIP3    H225716   5.722   5.253   0.725  2.0191  0.6700 -0.7828
 1361TIP3   OH225717   5.470   4.153   0.588  0.6330  0.0956 -0.5561
 1361TIP3    H125718   5.475   4.248   0.584  0.4019  0.0597 -2.0154
 1361TIP3    H225719   5.412   4.136   0.662  0.8203  1.0735 -0.1644
 1362TIP3   OH225720   3.156   1.282   0.015 -0.2443 -0.1861  0.1289
 1362TIP3    H125721   3.150   1.299   0.109 -0.0961  0.2756  0.0557
 1362TIP3    H225722   3.248   1.297  -0.006 -0.2129 -0.6057 -0.0308
 1363TIP3   OH225723   0.664   2.926   7.634  0.5554 -0.4625 -0.6258
 1363TIP3    H125724   0.607   2.902   7.707  0.2180 -0.1470 -0.7848
 1363TIP3    H225725   0.651   3.020   7.623  1.8589 -0.1725 -0.0066
 1364TIP3   OH225726   0.589   4.195   7.885 -0.1944  0.7859 -0.0784
 1364TIP3    H125727   0.610   4.152   7.968 -0.2675  0.8309 -0.0364
 1364TIP3    H225728   0.498   4.225   7.896 -0.7821 -0.6638 -0.7827
 1365TIP3   OH225729   3.220   5.173   1.380 -0.0634  0.1216  0.1782
 1365TIP3    H125730   3.134   5.196   1.346 -0.1956  0.7683  0.9333
 1365TIP3    H225731   3.205   5.149   1.471  0.5042 -0.1098  0.2164
 1366TIP3   OH225732   5.068   3.470   0.474 -0.2653 -0.2400 -0.3274
 1366TIP3    H125733   5.022   3.407   0.418  0.5870  0.8730 -2.3623
 1366TIP3    H225734   5.008   3.544   0.480  0.0789  0.0571 -0.5985
 1367TIP3   OH225735   0.063   5.167   7.416 -0.1004 -0.1384  0.3317
 1367TIP3    H125736   0.038   5.092   7.362  1.8108  0.7381 -1.9461
 1367TIP3    H225737   0.072   5.131   7.504  2.8965 -3.1778 -0.9903
 1368TIP3   OH225738   2.418   1.439   8.299 -0.4239 -0.4741  0.5264
 1368TIP3    H125739   2.512   1.454   8.289 -0.7655  1.4318 -0.2015
 1368TIP3    H225740   2.403   1.443   8.394 -0.1406  2.1500  0.5424
 1369TIP3   OH225741   2.604   5.976   1.508  0.5717 -0.6992  0.0859
 1369TIP3    H125742   2.624   5.883   1.518  1.0001 -0.6185 -0.0293
 1369TIP3    H225743   2.509   5.982   1.523  0.6744 -1.0393  0.9138
 1370TIP3   OH225744   4.235   6.132   8.089  0.5322  0.2046  0.1892
 1370TIP3    H125745   4.327   6.119   8.066  0.8272 -1.3588  2.0351
 1370TIP3    H225746   4.191   6.052   8.060 -0.3259  1.0341 -0.8892
 1371TIP3   OH225747   4.096   5.113   1.625  0.0461  0.0106 -0.5934
 1371TIP3    H125748   4.191   5.122   1.635  0.1188  0.2831 -1.3941
 1371TIP3    H225749   4.074   5.178   1.558 -0.7054 -0.0588 -0.4159
 1372TIP3   OH225750   1.325   5.394   0.723  0.4662  0.7642 -0.0172
 1372TIP3    H125751   1.396   5.333   0.743  0.7557  0.6891 -1.2099
 1372TIP3    H225752   1.262   5.342   0.674  0.1247  1.1179  0.0381
 1373TIP3   OH225753   4.304   1.461   1.680 -0.2885  0.1384  0.1244
 1373TIP3    H125754   4.317   1.502   1.595 -1.1550  3.3127  1.3825
 1373TIP3    H225755   4.292   1.368   1.660 -1.7646  0.9145 -3.3395
 1374TIP3   OH225756   0.749   2.831   8.376  0.2208 -0.2985 -0.2272
 1374TIP3    H125757   0.732   2.865   8.464  1.2541 -0.5881  0.0987
 1374TIP3    H225758   0.694   2.884   8.319 -1.5234 -1.0090  0.7168
 1375TIP3   OH225759   3.924   2.259   7.140 -0.8538  0.2688  0.1438
 1375TIP3    H125760   3.867   2.331   7.164 -0.2554  0.2488  1.7599
 1375TIP3    H225761   4.011   2.285   7.171 -0.5577 -0.9606  0.4095
 1376TIP3   OH225762   5.142   0.729   1.148 -0.1642 -0.1696  0.5314
 1376TIP3    H125763   5.150   0.637   1.174  2.0103  0.1425  1.1450
 1376TIP3    H225764   5.178   0.731   1.059 -0.6218  0.0270  0.3490
 1377TIP3   OH225765   1.934   3.254   6.625  0.3408  0.1272 -0.1374
 1377TIP3    H125766   1.995   3.287   6.691  1.7918 -0.4181 -1.1662
 1377TIP3    H225767   1.875   3.328   6.609  0.5693  0.5940  1.0429
 1378TIP3   OH225768   5.597   3.497   1.510  0.1447  0.0634  0.1029
 1378TIP3    H125769   5.506   3.523   1.493 -0.6741 -1.9623  0.9657
 1378TIP3    H225770   5.628   3.463   1.426 -0.6285 -1.0918  0.2523
 1379TIP3   OH225771   2.161   3.960   8.783 -0.6455  0.1175 -0.0038
 1379TIP3    H125772   2.248   3.924   8.798  0.2273  1.8834 -0.5859
 1379TIP3    H225773   2.138   3.934   8.694 -0.9081 -0.6960  0.2938
 1380TIP3   OH225774   2.837   0.963   8.786 -0.8747 -0.4611 -0.2279
 1380TIP3    H125775   2.848   0.874   8.754 -1.6249 -0.2633 -1.0744
 1380TIP3    H225776   2.821   1.015   8.708 -0.5267  0.4114  0.2611
 1381TIP3   OH225777   4.388   5.836   1.444  0.2605 -0.8595 -0.4739
 1381TIP3    H125778   4.296   5.822   1.422 -0.4550  0.3448  1.4612
 1381TIP3    H225779   4.386   5.869   1.534  2.4958  0.4462 -0.8253
 1382TIP3   OH225780   4.999   0.998   1.227 -0.4879  0.4933  0.1278
 1382TIP3    H125781   5.043   0.915   1.213 -1.9954 -0.1107 -1.5490
 1382TIP3    H225782   5.039   1.057   1.162 -0.0621  0.8216  0.6826
 1383TIP3   OH225783   5.459   0.903   2.484 -0.0016  0.1628  0.5509
 1383TIP3    H125784   5.492   0.930   2.569  1.1056 -0.4823  0.3555
 1383TIP3    H225785   5.536   0.904   2.427 -0.7605  0.7953 -0.5074
 1384TIP3   OH225786   5.198   1.843   0.520  0.6670 -0.2176 -0.0227
 1384TIP3    H125787   5.155   1.926   0.542  0.4191 -0.4042  0.2024
 1384TIP3    H225788   5.258   1.865   0.449 -1.1165 -0.2592 -1.6452
 1385TIP3   OH225789   1.403   2.972   1.110  0.4163  0.0154  0.0451
 1385TIP3    H125790   1.448   2.894   1.141  0.4480 -0.3981 -0.9932
 1385TIP3    H225791   1.417   2.972   1.015 -2.0904 -0.3687 -0.4038
 1386TIP3   OH225792   5.515   0.782   6.241 -0.2453  0.1172 -0.8114
 1386TIP3    H125793   5.474   0.699   6.269 -0.7770  0.6101 -0.0736
 1386TIP3    H225794   5.472   0.848   6.295  1.5494  0.6650  0.0191
 1387TIP3   OH225795   6.166   5.958   6.897  0.2752 -0.3290  0.2512
 1387TIP3    H125796   6.256   5.973   6.925  0.9559 -0.9434 -1.4972
 1387TIP3    H225797   6.120   6.039   6.917  1.3192  0.1483  0.7506
 1388TIP3   OH225798   5.538   3.718   7.155  0.6801  0.3857  0.0150
 1388TIP3    H125799   5.610   3.690   7.211  1.0265 -2.9998 -1.8716
 1388TIP3    H225800   5.467   3.656   7.174  1.1660 -1.5968 -3.8206
 1389TIP3   OH225801   0.698   4.495   7.725  0.2907 -0.3025 -0.1745
 1389TIP3    H125802   0.660   4.498   7.813 -0.0746 -0.6281 -0.3191
 1389TIP3    H225803   0.753   4.573   7.721 -0.7539  0.4679 -0.1388
 1390TIP3   OH225804   2.718   5.364   1.390 -0.0919  0.2048  0.0545
 1390TIP3    H125805   2.683   5.275   1.395  0.0705 -0.0164 -1.9621
 1390TIP3    H225806   2.642   5.421   1.403 -0.4993 -0.2512 -0.3007
 1391TIP3   OH225807   5.475   4.200   2.849  0.2808 -0.5411  0.1099
 1391TIP3    H125808   5.409   4.137   2.880 -0.4534  0.0220 -0.2835
 1391TIP3    H225809   5.431   4.285   2.856  0.1764 -0.3543 -2.2094
 1392TIP3   OH225810   6.174   2.904   2.062  0.1496  0.1433  0.2997
 1392TIP3    H125811   6.092   2.946   2.036 -1.0687 -1.7298  0.9055
 1392TIP3    H225812   6.178   2.918   2.157  0.0125 -0.6204  0.4202
 1393TIP3   OH225813   3.200   0.094   0.574  0.7216 -0.1776  0.3178
 1393TIP3    H125814   3.140   0.110   0.647  0.0034  0.7240 -0.4445
 1393TIP3    H225815   3.223   0.181   0.542  0.5616 -0.5640 -0.9027
 1394TIP3   OH225816   2.443   3.714   8.257  0.2557  0.1099 -0.5219
 1394TIP3    H125817   2.387   3.792   8.260 -0.1635 -0.2065  0.0226
 1394TIP3    H225818   2.396   3.649   8.308  0.1525 -0.8079 -1.7352
 1395TIP3   OH225819   4.533   2.394   8.177  0.4473 -0.4828  1.0331
 1395TIP3    H125820   4.472   2.362   8.111  3.0608 -0.4022 -1.6484
 1395TIP3    H225821   4.492   2.473   8.211  0.2798  1.4027 -2.9710
 1396TIP3   OH225822   4.716   3.106   6.552 -0.3814  1.0947 -0.4912
 1396TIP3    H125823   4.682   3.021   6.523  1.0463  0.0629  0.7124
 1396TIP3    H225824   4.754   3.145   6.473 -1.5735  0.9127 -1.1814
 1397TIP3   OH225825   1.707   2.849   7.403  0.1352  0.7379 -0.4853
 1397TIP3    H125826   1.684   2.941   7.387 -0.0683  1.0442  1.3391
 1397TIP3    H225827   1.779   2.832   7.342 -0.8373  1.6147 -1.9409
 1398TIP3   OH225828   2.873   0.437   1.545  0.4589  0.1775 -0.0979
 1398TIP3    H125829   2.849   0.524   1.515  0.7301  0.1950 -0.2725
 1398TIP3    H225830   2.925   0.451   1.624  0.0635  0.1496  0.1663
 1399TIP3   OH225831   4.000   5.409   7.658  0.1285 -0.2605  0.2514
 1399TIP3    H125832   4.030   5.428   7.569 -0.2514  0.3919  0.2581
 1399TIP3    H225833   4.030   5.483   7.710  1.6126 -1.3085  0.9814
 1400TIP3   OH225834   5.185   3.296   8.621  0.4092  0.0158 -0.2726
 1400TIP3    H125835   5.174   3.264   8.710  0.6891 -0.4140 -0.3886
 1400TIP3    H225836   5.124   3.244   8.569  0.6699 -0.1412 -0.4225
 1401TIP3   OH225837   1.251   3.537   0.365 -0.1238  0.4175 -0.0736
 1401TIP3    H125838   1.338   3.557   0.398  1.0133 -1.3082 -1.7698
 1401TIP3    H225839   1.191   3.584   0.423  1.8613  0.6235  1.9338
 1402TIP3   OH225840   4.624   4.427   0.707  0.6684 -0.2192  0.0033
 1402TIP3    H125841   4.661   4.446   0.793 -0.5873  0.7418  0.3488
 1402TIP3    H225842   4.679   4.476   0.645  0.2793  0.7982  0.4581
 1403TIP3   OH225843   2.944   4.370   0.485 -0.0116 -0.2844  0.6641
 1403TIP3    H125844   2.867   4.371   0.541  0.6183 -0.7790  1.5590
 1403TIP3    H225845   2.916   4.415   0.405 -1.2161 -0.4520  0.9749
 1404TIP3   OH225846   5.449   6.581   2.112  0.1588  0.1137 -0.0567
 1404TIP3    H125847   5.392   6.519   2.067 -1.4183  1.0017  0.6435
 1404TIP3    H225848   5.396   6.660   2.123  0.4862  0.0281  3.1186
 1405TIP3   OH225849   1.145   1.404   2.105 -0.3864  0.0445 -0.3704
 1405TIP3    H125850   1.062   1.406   2.153 -0.7906 -2.0086 -0.8877
 1405TIP3    H225851   1.181   1.317   2.123  1.3932  0.6830 -0.6351
 1406TIP3   OH225852   2.392   5.170   1.571 -0.1217 -0.4019 -0.3278
 1406TIP3    H125853   2.319   5.110   1.585 -0.7165  0.2977 -0.3930
 1406TIP3    H225854   2.459   5.142   1.633 -0.6143 -0.7659  0.0411
 1407TIP3   OH225855   4.183   3.008   0.474  0.4651  0.1297  0.5270
 1407TIP3    H125856   4.202   3.098   0.501 -2.6295  0.7909  0.7710
 1407TIP3    H225857   4.224   2.954   0.542  0.0660  1.4608  1.8700
 1408TIP3   OH225858   4.272   0.821   7.764  0.1838 -0.5822 -0.3123
 1408TIP3    H125859   4.321   0.741   7.784 -1.5273 -1.8512 -0.9633
 1408TIP3    H225860   4.238   0.850   7.848  0.2383 -0.9303 -0.1678
 1409TIP3   OH225861   1.283   1.637   0.639  0.5389 -0.4190 -0.5349
 1409TIP3    H125862   1.329   1.678   0.565 -0.2881  0.7264 -0.4348
 1409TIP3    H225863   1.304   1.692   0.714  0.3868 -0.8832 -0.1480
 1410TIP3   OH225864   6.169   5.506   6.407 -0.0176  0.1679 -0.2356
 1410TIP3    H125865   6.098   5.550   6.360  0.1517  1.2558  0.4936
 1410TIP3    H225866   6.149   5.413   6.398 -0.1701  0.3279 -2.1648
 1411TIP3   OH225867   5.827   3.172   0.347  0.1458 -0.3273  0.3200
 1411TIP3    H125868   5.867   3.257   0.363  0.3992 -0.2814 -0.5337
 1411TIP3    H225869   5.767   3.160   0.421  0.3549  0.4346  0.6262
 1412TIP3   OH225870   4.772   4.839   6.325 -0.0479  0.0812  0.3723
 1412TIP3    H125871   4.839   4.828   6.257 -0.6538 -1.4184 -0.0407
 1412TIP3    H225872   4.736   4.927   6.310  0.9580  0.4075 -0.1933
 1413TIP3   OH225873   5.465   6.589   8.367  0.2395 -0.1803 -0.4685
 1413TIP3    H125874   5.405   6.644   8.418 -1.6762 -1.3568 -1.3325
 1413TIP3    H225875   5.458   6.623   8.278  0.7046 -0.4852 -0.6260
 1414TIP3   OH225876   4.482   3.293   7.857  0.1925  0.6036 -0.4650
 1414TIP3    H125877   4.514   3.337   7.936  2.5542 -0.1376 -0.9043
 1414TIP3    H225878   4.392   3.270   7.877  0.2235  1.8522  1.3891
 1415TIP3   OH225879   4.311   3.527   8.282 -0.1285 -0.6836  0.5869
 1415TIP3    H125880   4.375   3.592   8.310 -0.7500 -0.3182  1.1859
 1415TIP3    H225881   4.257   3.512   8.359  0.1875 -2.1526  0.5534
 1416TIP3   OH225882   5.375   4.365   0.136  0.1367  0.1897  0.2672
 1416TIP3    H125883   5.337   4.287   0.176  0.4220  0.0408  0.2476
 1416TIP3    H225884   5.469   4.348   0.135  0.0620 -0.3158 -1.5317
 1417TIP3   OH225885   6.727   3.422   8.560  0.0872 -0.4544  0.1836
 1417TIP3    H125886   6.696   3.402   8.472 -0.2104 -1.8165  0.5658
 1417TIP3    H225887   6.655   3.471   8.600  0.5425  0.8581 -0.5630
 1418TIP3   OH225888   6.579   3.689   0.024 -0.3362  0.3355 -0.0116
 1418TIP3    H125889   6.534   3.652   0.099 -0.1362 -1.0610 -0.5374
 1418TIP3    H225890   6.556   3.631  -0.049  1.8120 -0.1230 -0.4181
 1419TIP3   OH225891   1.927   0.604   7.020 -0.2439  0.1668 -0.2360
 1419TIP3    H125892   1.987   0.678   7.011  0.9087 -0.7137 -0.1157
 1419TIP3    H225893   1.928   0.562   6.934 -0.1781 -0.2328 -0.0412
 1420TIP3   OH225894   0.750   5.034   7.714  0.0737 -0.3122 -0.9586
 1420TIP3    H125895   0.750   5.036   7.619 -1.4878 -2.3396 -1.0700
 1420TIP3    H225896   0.770   4.943   7.736 -1.0501 -0.2362  0.5758
 1421TIP3   OH225897   2.612   1.447   7.160  0.0452  0.0466 -0.3986
 1421TIP3    H125898   2.567   1.441   7.075 -0.8479  1.3229 -0.0456
 1421TIP3    H225899   2.705   1.436   7.138 -0.0925  1.0683 -1.6696
 1422TIP3   OH225900   3.386   0.592   1.810 -0.4870  0.0974 -0.3090
 1422TIP3    H125901   3.319   0.617   1.874 -2.3744  0.2038 -2.2085
 1422TIP3    H225902   3.347   0.520   1.761  1.4632 -0.9017 -0.4809
 1423TIP3   OH225903   1.445   1.067   8.326 -0.3421 -0.4890  0.4462
 1423TIP3    H125904   1.415   1.152   8.357  0.4306  0.2255 -0.6668
 1423TIP3    H225905   1.365   1.019   8.304 -0.7850 -0.1082  1.2023
 1424TIP3   OH225906   6.585   4.954   7.582  0.2668 -0.2729 -0.1256
 1424TIP3    H125907   6.623   4.962   7.669 -0.2673 -1.2999  0.2285
 1424TIP3    H225908   6.506   5.009   7.585 -0.7385 -1.6754  0.6689
 1425TIP3   OH225909   4.067   1.087   0.710 -0.8216  0.3266 -0.5360
 1425TIP3    H125910   4.074   0.995   0.735 -0.0282  0.0750 -1.6056
 1425TIP3    H225911   4.028   1.130   0.786  0.5070 -0.5711  0.6838
 1426TIP3   OH225912   6.133   2.747   6.958  0.2241 -0.3144  0.1998
 1426TIP3    H125913   6.215   2.770   6.914 -0.9247  0.4896 -1.6333
 1426TIP3    H225914   6.115   2.657   6.930 -0.4258  0.1419 -0.8849
 1427TIP3   OH225915   1.185   2.265   0.465  0.1035  0.5994  0.7106
 1427TIP3    H125916   1.186   2.259   0.561 -0.4955  1.6317  0.7970
 1427TIP3    H225917   1.204   2.357   0.447  0.8119  0.2902 -0.1921
 1428TIP3   OH225918   1.365   0.413   0.822 -0.0382 -0.1691  0.1030
 1428TIP3    H125919   1.448   0.366   0.827  0.7268  1.2117  1.4328
 1428TIP3    H225920   1.301   0.348   0.794  1.6596 -1.0281 -2.1368
 1429TIP3   OH225921   1.210   4.322   7.893  0.1640 -0.3933 -0.8739
 1429TIP3    H125922   1.255   4.242   7.921  0.9127  0.0903 -0.6618
 1429TIP3    H225923   1.121   4.293   7.871 -0.4706 -0.8658  1.8821
 1430TIP3   OH225924   1.189   1.729   1.282 -0.0893 -0.4384 -0.3166
 1430TIP3    H125925   1.183   1.822   1.261  0.7321 -0.3545 -0.1980
 1430TIP3    H225926   1.282   1.713   1.298 -0.2402 -1.2454 -0.1716
 1431TIP3   OH225927   4.615   2.025   0.460 -0.0297  0.1179  0.4131
 1431TIP3    H125928   4.674   1.959   0.424  1.3956  2.6740 -2.3942
 1431TIP3    H225929   4.627   2.019   0.555  2.8885 -1.1252  0.0646
 1432TIP3   OH225930   1.899   4.425   1.881 -0.1419  0.2961  0.0835
 1432TIP3    H125931   1.984   4.407   1.920 -0.1587  0.0875  0.0228
 1432TIP3    H225932   1.839   4.431   1.956 -0.1682 -0.0701  0.0932
 1433TIP3   OH225933   1.632   3.125   7.336  0.1627  0.5490 -0.1874
 1433TIP3    H125934   1.575   3.201   7.349 -0.8095 -0.3799  1.3336
 1433TIP3    H225935   1.717   3.152   7.372 -0.1987  0.8946  0.4344
 1434TIP3   OH225936   4.604   4.147   0.784 -0.4452  0.6079  0.4132
 1434TIP3    H125937   4.676   4.119   0.728 -1.1712 -1.2717  0.3689
 1434TIP3    H225938   4.611   4.243   0.786  1.2103  0.5401 -0.6840
 1435TIP3   OH225939   5.796   3.874   2.032 -0.1336  0.5259 -0.2132
 1435TIP3    H125940   5.780   3.917   1.948 -1.2726  0.7623  0.0934
 1435TIP3    H225941   5.740   3.923   2.094 -0.2994 -0.4475  0.4262
 1436TIP3   OH225942   0.553   5.913   0.005 -0.3066 -0.0170  0.3160
 1436TIP3    H125943   0.477   5.940  -0.047 -0.7510 -1.3773  0.2300
 1436TIP3    H225944   0.589   5.838  -0.042  0.1951 -0.3188  1.1630
 1437TIP3   OH225945   3.667   6.762   7.179 -0.9577  0.4445  0.0524
 1437TIP3    H125946   3.658   6.667   7.189 -1.3525  0.4944  0.1926
 1437TIP3    H225947   3.720   6.773   7.100  2.3033  0.0161  2.0017
 1438TIP3   OH225948   5.334   0.919   2.120  0.2726 -0.6442 -0.6959
 1438TIP3    H125949   5.365   0.992   2.067 -3.5772  0.4010 -1.8912
 1438TIP3    H225950   5.362   0.938   2.209  1.0482  1.2272 -1.3064
 1439TIP3   OH225951   1.310   3.843   1.581 -0.7453 -0.2232  0.1379
 1439TIP3    H125952   1.335   3.925   1.624  2.6443 -0.5560 -0.9309
 1439TIP3    H225953   1.303   3.779   1.652 -0.3051  0.3297  0.6885
 1440TIP3   OH225954   4.735   6.783   8.367 -0.2410  0.3158 -0.3262
 1440TIP3    H125955   4.688   6.781   8.450  0.0967 -2.4262 -0.1273
 1440TIP3    H225956   4.680   6.836   8.309 -2.2807 -0.6835  0.6176
 1441TIP3   OH225957   5.765   0.683   0.410 -0.3329 -0.6603 -0.5877
 1441TIP3    H125958   5.734   0.713   0.495 -0.2515  0.6437 -1.0024
 1441TIP3    H225959   5.847   0.730   0.397 -1.0902  0.3323 -2.0444
 1442TIP3   OH225960   0.394   6.368   1.000 -0.1323 -0.0815  0.2033
 1442TIP3    H125961   0.374   6.454   0.962  1.4862  0.1113 -0.3067
 1442TIP3    H225962   0.379   6.307   0.928 -1.5546 -0.2742  0.6484
 1443TIP3   OH225963   3.596   0.692   7.931  0.3160 -0.1614 -0.6478
 1443TIP3    H125964   3.647   0.705   8.011  0.1534  1.7869 -0.8001
 1443TIP3    H225965   3.531   0.626   7.954  2.3987 -2.2139 -0.2515
 1444TIP3   OH225966   3.112   3.764   7.504  0.2856 -0.0109  0.0923
 1444TIP3    H125967   3.046   3.716   7.555  1.7345 -3.3311 -0.9190
 1444TIP3    H225968   3.188   3.768   7.562  0.1214  1.3979  0.2468
 1445TIP3   OH225969   4.713   2.789   7.877  0.4229 -0.1275  0.1146
 1445TIP3    H125970   4.790   2.777   7.821  0.3950  0.4981 -0.0563
 1445TIP3    H225971   4.646   2.735   7.835  0.4628  0.1697 -0.3395
 1446TIP3   OH225972   3.855   1.242   0.855 -0.1239  0.1576  0.2928
 1446TIP3    H125973   3.813   1.173   0.803  0.1978 -0.2330  0.5410
 1446TIP3    H225974   3.849   1.211   0.945  0.5161  0.1830  0.3504
 1447TIP3   OH225975   3.967   1.095   8.617  0.0965  0.4390 -0.8296
 1447TIP3    H125976   4.001   1.184   8.625  1.8297 -0.0772 -1.9974
 1447TIP3    H225977   4.013   1.045   8.684 -0.7597  0.3724 -0.2772
 1448TIP3   OH225978   6.408   2.730   7.875  0.5155  0.2856 -0.0744
 1448TIP3    H125979   6.467   2.712   7.802  2.2785  0.1791  1.3154
 1448TIP3    H225980   6.435   2.815   7.909 -0.6800  0.6182  0.1137
 1449TIP3   OH225981   1.618   5.057   2.577  0.1903  0.2901  0.1757
 1449TIP3    H125982   1.659   5.136   2.544 -0.7516 -0.5491 -3.4375
 1449TIP3    H225983   1.689   4.993   2.581  0.5336  0.7084  0.9579
 1450TIP3   OH225984   6.477   4.180   8.520 -0.0155 -0.0817  0.2694
 1450TIP3    H125985   6.414   4.236   8.475 -0.5819 -2.6041 -2.3594
 1450TIP3    H225986   6.428   4.099   8.537  1.5206 -0.8004  1.5198
 1451TIP3   OH225987   1.380   0.817   7.390  0.1486 -0.4678 -0.2460
 1451TIP3    H125988   1.381   0.911   7.372 -1.1185 -0.3704  0.0676
 1451TIP3    H225989   1.427   0.807   7.472  1.1097 -0.2337 -0.7545
 1452TIP3   OH225990   2.004   4.407   0.084 -0.3944  0.2022 -0.1849
 1452TIP3    H125991   1.975   4.361   0.006  0.0681  1.7592 -1.3206
 1452TIP3    H225992   2.069   4.348   0.124  1.6984  0.6168 -2.6975
 1453TIP3   OH225993   6.459   0.724   0.723  0.1318  0.1585 -0.1532
 1453TIP3    H125994   6.490   0.633   0.720  0.0879  0.1540 -0.5766
 1453TIP3    H225995   6.527   0.774   0.678 -0.8840  0.0186 -1.9639
 1454TIP3   OH225996   1.105   6.458   8.141 -0.3379  0.6151 -0.1774
 1454TIP3    H125997   1.128   6.474   8.232 -0.5394  1.2084 -0.2284
 1454TIP3    H225998   1.182   6.485   8.091 -0.9983  2.3131 -0.3253
 1455TIP3   OH225999   1.775   5.610   0.834 -0.2587  0.1131  0.0270
 1455TIP3    H126000   1.835   5.537   0.817  1.5396  1.3620  0.6697
 1455TIP3    H226001   1.703   5.597   0.773 -0.0498 -2.2474  0.1992
 1456TIP3   OH226002   1.127   3.401   8.485  0.4190 -0.1092 -0.2468
 1456TIP3    H126003   1.192   3.331   8.477 -0.6671 -1.0862 -0.6445
 1456TIP3    H226004   1.064   3.384   8.415  1.3101  2.5853 -1.8795
 1457TIP3   OH226005   2.174   3.647   7.823 -0.0439  0.0910  0.2726
 1457TIP3    H126006   2.133   3.639   7.737  1.4051 -1.9015 -0.2981
 1457TIP3    H226007   2.148   3.567   7.870 -1.6303  1.5759  2.1320
 1458TIP3   OH226008   2.863   6.596   8.513  0.2828 -0.0203  0.2872
 1458TIP3    H126009   2.797   6.607   8.581 -0.2379  0.6458 -0.3053
 1458TIP3    H226010   2.900   6.684   8.501  0.3903 -0.1348 -0.2494
 1459TIP3   OH226011   2.120   2.795   7.311  0.4127 -0.8855 -0.3082
 1459TIP3    H126012   2.149   2.710   7.343  0.8732 -0.3497  0.7179
 1459TIP3    H226013   2.042   2.775   7.259  0.0105 -1.8462  0.6223
 1460TIP3   OH226014   5.737   1.628   6.680 -0.1524 -0.1862  0.3113
 1460TIP3    H126015   5.772   1.583   6.603 -0.7143 -1.4960  0.8002
 1460TIP3    H226016   5.652   1.588   6.695 -1.0754  1.6483  0.2754
 1461TIP3   OH226017   0.909   2.251   7.195  0.5086 -0.3219  0.2377
 1461TIP3    H126018   0.960   2.180   7.157  0.6875 -0.1469  0.1529
 1461TIP3    H226019   0.954   2.331   7.168  0.6117 -0.1961  0.7867
 1462TIP3   OH226020   3.541   3.414   0.446 -0.4541 -0.4601 -0.0162
 1462TIP3    H126021   3.597   3.395   0.371  2.0044 -1.9784  2.0194
 1462TIP3    H226022   3.565   3.348   0.511 -0.4839  2.2741  3.0806
 1463TIP3   OH226023   1.540   0.203   7.689  0.5082 -0.2022  0.3326
 1463TIP3    H126024   1.539   0.182   7.783 -0.3871 -1.4913  0.0636
 1463TIP3    H226025   1.622   0.168   7.657  0.3427 -0.7058  0.4475
 1464TIP3   OH226026   4.728   6.455   8.547 -0.0112  0.2434 -0.3417
 1464TIP3    H126027   4.808   6.471   8.597  0.7707  0.4310 -1.6346
 1464TIP3    H226028   4.755   6.398   8.476 -1.0674  0.1753 -0.7017
 1465TIP3   OH226029   1.527   0.486   1.301 -0.2204 -0.0151 -0.2916
 1465TIP3    H126030   1.479   0.508   1.381 -0.0975 -0.5756 -0.0616
 1465TIP3    H226031   1.579   0.565   1.283  2.1762 -0.9434  1.9730
 1466TIP3   OH226032   2.519   4.671   0.435  0.3213  0.2343 -0.1742
 1466TIP3    H126033   2.480   4.758   0.429  1.6056  1.2216  3.3063
 1466TIP3    H226034   2.605   4.680   0.393 -0.5732 -0.1926 -2.2094
 1467TIP3   OH226035   3.728   3.074   1.985  0.0013  0.1561 -0.0410
 1467TIP3    H126036   3.823   3.087   1.975  0.1300 -0.9645 -0.3676
 1467TIP3    H226037   3.710   3.100   2.076  0.0453  3.4663 -0.8697
 1468TIP3   OH226038   0.462   6.410   2.003  0.0984  0.4640  0.6259
 1468TIP3    H126039   0.495   6.481   1.948 -0.6627 -0.4124 -1.0376
 1468TIP3    H226040   0.367   6.424   2.006  0.1809  0.8687  2.3100
 1469TIP3   OH226041   0.209   3.386   8.730  0.0501 -0.1661 -0.3101
 1469TIP3    H126042   0.181   3.294   8.729  3.8856 -1.4901 -0.2553
 1469TIP3    H226043   0.243   3.401   8.643  1.4392  0.4683  0.3144
 1470TIP3   OH226044   3.051   5.887   8.082 -0.1434 -0.4932 -0.6444
 1470TIP3    H126045   3.051   5.931   7.997  2.7229 -1.0363 -1.0284
 1470TIP3    H226046   3.120   5.821   8.074  0.5780 -0.1942  2.2705
 1471TIP3   OH226047   1.490   2.706   7.610 -0.1087 -0.5172  0.0185
 1471TIP3    H126048   1.460   2.621   7.578 -1.5704  0.2013 -0.6014
 1471TIP3    H226049   1.574   2.720   7.565  0.1294 -1.5916  0.0932
 1472TIP3   OH226050   5.572   4.413   0.551 -0.4460  0.6267  0.5337
 1472TIP3    H126051   5.534   4.447   0.470  0.1056  1.1665  0.4915
 1472TIP3    H226052   5.657   4.377   0.524 -0.1699  0.9898  0.8897
 1473TIP3   OH226053   6.555   3.085   2.191  0.6922  0.1673 -0.0679
 1473TIP3    H126054   6.516   2.997   2.191  1.6173 -0.2621 -0.9658
 1473TIP3    H226055   6.503   3.134   2.255 -1.2977 -0.3952 -1.1610
 1474TIP3   OH226056   0.346   2.859   2.274  0.1213 -0.7803 -0.5429
 1474TIP3    H126057   0.359   2.825   2.362  2.3128 -0.2186 -0.5984
 1474TIP3    H226058   0.261   2.824   2.248 -0.5313 -1.0411  1.7262
 1475TIP3   OH226059   0.841   1.569   8.171  0.4116 -0.2032  0.4044
 1475TIP3    H126060   0.848   1.541   8.263  2.6285  0.6943  0.5741
 1475TIP3    H226061   0.835   1.664   8.175  0.6424 -0.1516 -0.3699
 1476TIP3   OH226062   4.743   2.040   8.160 -1.0891  0.1373 -0.5848
 1476TIP3    H126063   4.729   2.077   8.073  0.7039  1.5628 -0.3596
 1476TIP3    H226064   4.795   1.961   8.145 -0.1037  0.8029 -0.8114
 1477TIP3   OH226065   6.383   3.275   0.030 -0.7524  0.0859  0.2197
 1477TIP3    H126066   6.391   3.199  -0.028  2.2272  0.1995  0.3137
 1477TIP3    H226067   6.436   3.252   0.106  3.0920  3.3810 -1.1519
 1478TIP3   OH226068   6.297   4.724   7.827 -0.2940 -0.1365 -0.2946
 1478TIP3    H126069   6.202   4.714   7.830 -0.4252  0.9614 -0.3883
 1478TIP3    H226070   6.311   4.819   7.830  0.7706 -0.2577 -0.9363
 1479TIP3   OH226071   0.380   2.730   0.015 -0.1436 -0.2379  0.5364
 1479TIP3    H126072   0.415   2.684   0.091  0.4348 -4.3181 -1.8808
 1479TIP3    H226073   0.457   2.758  -0.034 -0.4920  1.1163  0.7216
 1480TIP3   OH226074   4.043   0.814   0.749 -0.0890  0.5435  0.1334
 1480TIP3    H126075   4.000   0.769   0.822  1.0627  0.9672  1.0853
 1480TIP3    H226076   3.974   0.823   0.683 -0.8912 -0.7254  0.7621
 1481TIP3   OH226077   3.664   4.956   0.545  0.2536 -0.2012 -0.0691
 1481TIP3    H126078   3.609   4.959   0.467  0.8187 -0.4724 -0.4850
 1481TIP3    H226079   3.750   4.983   0.515  0.2468  0.6821  0.6779
 1482TIP3   OH226080   6.271   2.185   8.507 -0.7067  0.3501 -0.3200
 1482TIP3    H126081   6.249   2.115   8.569 -1.6468  2.3529  1.7697
 1482TIP3    H226082   6.187   2.226   8.487  0.0570  2.5687  0.7051
 1483TIP3   OH226083   3.211   2.307   7.858  0.1594  0.1951 -0.4889
 1483TIP3    H126084   3.268   2.234   7.884  0.6573  0.8967  0.4219
 1483TIP3    H226085   3.260   2.386   7.881 -1.9743  0.8637  2.2766
 1484TIP3   OH226086   6.437   3.814   1.416 -0.1620 -0.3391  0.2969
 1484TIP3    H126087   6.383   3.812   1.495 -0.4064 -0.7034  0.1255
 1484TIP3    H226088   6.449   3.907   1.397  1.7193 -0.1947  1.9760
 1485TIP3   OH226089   5.008   6.525   0.482 -0.4738 -0.3441  0.3878
 1485TIP3    H126090   5.064   6.560   0.413 -1.4410  0.6696  0.0727
 1485TIP3    H226091   5.050   6.551   0.564 -0.0762 -0.2883  0.1637
 1486TIP3   OH226092   3.600   3.320   1.610  0.1219 -0.6443 -0.1891
 1486TIP3    H126093   3.598   3.227   1.631 -1.0294 -0.4389  0.6969
 1486TIP3    H226094   3.693   3.343   1.613  0.4940 -1.9157 -1.1824
 1487TIP3   OH226095   4.469   0.777   8.606 -0.1021 -0.1345  0.3617
 1487TIP3    H126096   4.389   0.778   8.554 -0.4474  0.3342  0.9028
 1487TIP3    H226097   4.440   0.790   8.696  0.5708 -0.1088  0.5796
 1488TIP3   OH226098   1.869   0.683   8.732  0.3758 -0.2834 -0.4499
 1488TIP3    H126099   1.881   0.686   8.637 -1.8137  1.3178 -0.7455
 1488TIP3    H226100   1.774   0.681   8.744  0.6011  0.0762  1.7142
 1489TIP3   OH226101   2.094   1.225   8.066  0.0327  0.1969 -0.3854
 1489TIP3    H126102   2.137   1.159   8.120 -0.6645  0.4373  0.5042
 1489TIP3    H226103   2.070   1.180   7.986 -0.7379 -0.7346  0.3472
 1490TIP3   OH226104   3.330   4.829   1.424 -0.3798  0.1267 -0.1964
 1490TIP3    H126105   3.273   4.812   1.349 -0.4823  0.9909 -0.3168
 1490TIP3    H226106   3.354   4.921   1.417 -0.5293  0.2716  0.9252
 1491TIP3   OH226107   5.507   4.166   6.335 -0.6633  0.2169 -0.7768
 1491TIP3    H126108   5.482   4.074   6.323 -1.4910  0.2497  0.4711
 1491TIP3    H226109   5.506   4.179   6.429  1.4184  1.0128 -0.8187
 1492TIP3   OH226110   5.312   4.861   1.744  0.5744 -0.0037  0.7943
 1492TIP3    H126111   5.312   4.957   1.748 -0.9323  0.0753 -0.4456
 1492TIP3    H226112   5.385   4.840   1.685  2.8793  0.1720  3.3775
 1493TIP3   OH226113   0.057   1.505   7.231  0.3533  0.4741  0.2039
 1493TIP3    H126114   0.088   1.439   7.293  1.8626 -1.1853 -2.1558
 1493TIP3    H226115   0.042   1.583   7.285 -0.1431 -1.3240  2.8884
 1494TIP3   OH226116   6.586   2.821   8.623  0.0424 -0.3399  0.0785
 1494TIP3    H126117   6.539   2.766   8.560  1.0004 -0.7035 -0.3268
 1494TIP3    H226118   6.576   2.775   8.706  1.3365 -1.4667 -0.3595
 1495TIP3   OH226119   4.054   3.752   7.461  0.6672  0.0721  0.0580
 1495TIP3    H126120   4.047   3.778   7.552  0.3871  0.7032 -0.1439
 1495TIP3    H226121   4.078   3.659   7.465 -0.7888 -0.2956  0.7666
 1496TIP3   OH226122   1.300   6.841   6.989 -0.2903 -0.1122  0.0683
 1496TIP3    H126123   1.298   6.895   7.068  1.8958  0.2038 -0.0491
 1496TIP3    H226124   1.256   6.894   6.922 -0.7039  0.2973  0.6549
 1497TIP3   OH226125   4.230   3.370   1.854 -0.0294 -0.1603 -0.5784
 1497TIP3    H126126   4.298   3.378   1.921  0.8842 -1.8725 -1.2248
 1497TIP3    H226127   4.278   3.349   1.774 -1.1179  1.5840 -1.7513
 1498TIP3   OH226128   2.124   6.322   6.826 -0.4717  0.2823  0.0886
 1498TIP3    H126129   2.047   6.296   6.876 -0.6012  1.3990  0.5076
 1498TIP3    H226130   2.092   6.327   6.735 -0.5825 -0.4065  0.0828
 1499TIP3   OH226131   6.131   6.370   1.184 -0.2889  0.3235 -0.0269
 1499TIP3    H126132   6.169   6.305   1.242 -1.9974 -0.2162  0.5649
 1499TIP3    H226133   6.037   6.367   1.203 -0.8348  0.6029 -2.3371
 1500TIP3   OH226134   5.752   3.031   1.132  1.0338  0.1361  0.4715
 1500TIP3    H126135   5.799   3.029   1.216 -0.1466  1.2483  1.1954
 1500TIP3    H226136   5.773   2.948   1.091  1.7671 -0.3710  1.8090
 1501TIP3   OH226137   3.226   0.480   0.856  0.4993 -0.8123  0.0394
 1501TIP3    H126138   3.178   0.553   0.817 -0.2211 -1.6825 -0.7770
 1501TIP3    H226139   3.261   0.432   0.780  0.0495 -1.9006  0.5070
 1502TIP3   OH226140   3.379   4.129   8.766  0.4554  0.7659 -0.5833
 1502TIP3    H126141   3.353   4.218   8.743 -0.7593  0.2525 -1.2956
 1502TIP3    H226142   3.307   4.095   8.819  0.0112 -0.3763 -1.8359
 1503TIP3   OH226143   3.656   4.406   1.981 -1.3438  0.5553 -0.2035
 1503TIP3    H126144   3.680   4.498   1.974  0.3177  0.1561 -0.2587
 1503TIP3    H226145   3.686   4.380   2.068 -1.9714  0.1021 -0.1134
 1504TIP3   OH226146   0.744   6.563   1.811 -0.4523  0.4025 -0.3458
 1504TIP3    H126147   0.654   6.595   1.823 -0.9004 -0.6846 -0.7065
 1504TIP3    H226148   0.774   6.546   1.900 -0.3233  1.4742 -0.1692
 1505TIP3   OH226149   1.155   4.937   0.335  0.3736 -0.1165  0.0927
 1505TIP3    H126150   1.183   5.017   0.291  0.9499 -0.2311  0.2447
 1505TIP3    H226151   1.060   4.942   0.336  0.3720  0.1462 -0.6895
 1506TIP3   OH226152   0.336   2.892   8.415  0.6192 -0.2042  0.0476
 1506TIP3    H126153   0.250   2.850   8.414  1.4920 -2.1667 -2.2284
 1506TIP3    H226154   0.397   2.822   8.440  1.6808  0.8839  0.6105
 1507TIP3   OH226155   4.919   1.630   7.878  0.2276 -0.5546  0.1847
 1507TIP3    H126156   4.942   1.569   7.948  0.2069 -2.0532 -1.0716
 1507TIP3    H226157   4.993   1.626   7.818  0.7148  1.5031  0.5814
 1508TIP3   OH226158   4.483   6.677   7.026  0.5313  0.1963 -0.6268
 1508TIP3    H126159   4.399   6.631   7.023  0.3796  0.5021 -1.3190
 1508TIP3    H226160   4.519   6.667   6.938  1.1054  0.2858 -0.4070
 1509TIP3   OH226161   0.211   6.048   8.195  0.2660  0.2880 -0.0453
 1509TIP3    H126162   0.224   6.074   8.286 -0.0013 -0.5362  0.2443
 1509TIP3    H226163   0.287   5.994   8.174  0.4079  0.6132 -0.3599
 1510TIP3   OH226164   2.045   3.630   7.593 -0.2795 -0.2814 -0.5685
 1510TIP3    H126165   1.981   3.560   7.578 -0.0385 -0.2456 -1.8336
 1510TIP3    H226166   2.037   3.687   7.516  0.9546 -0.0299 -0.5322
 1511TIP3   OH226167   5.479   6.353   1.068 -0.0912 -0.1067  0.1834
 1511TIP3    H126168   5.494   6.289   0.998 -0.3858 -0.2672  0.2663
 1511TIP3    H226169   5.384   6.360   1.075 -0.0755 -0.5834  1.0068
 1512TIP3   OH226170   3.383   0.952   1.045  0.6738  1.1023  0.1999
 1512TIP3    H126171   3.363   1.011   1.117 -0.3518  0.8514  0.1366
 1512TIP3    H226172   3.332   0.985   0.971 -1.6377 -0.9743  0.6919
 1513TIP3   OH226173   5.435   3.175   8.720 -0.4859  0.1046  0.1436
 1513TIP3    H126174   5.357   3.221   8.688 -0.3268  0.0308 -0.3659
 1513TIP3    H226175   5.479   3.146   8.640  0.2946  0.5352  0.4110
 1514TIP3   OH226176   4.607   4.561   8.309  0.3957 -0.2748  0.1276
 1514TIP3    H126177   4.678   4.498   8.299  0.8603  0.4156 -1.0994
 1514TIP3    H226178   4.603   4.579   8.402  0.6858 -1.6211  0.4196
 1515TIP3   OH226179   4.702   6.347   1.693  0.4283 -0.3054 -0.4407
 1515TIP3    H126180   4.789   6.354   1.731  0.3983  0.9895 -0.5573
 1515TIP3    H226181   4.673   6.258   1.715  0.6769  0.1317  1.9793
 1516TIP3   OH226182   4.537   1.370   0.814 -0.3357  0.6130  0.0686
 1516TIP3    H126183   4.605   1.436   0.827  0.5260 -0.3578  0.6197
 1516TIP3    H226184   4.532   1.323   0.897 -1.4841  0.4759 -0.0571
 1517TIP3   OH226185   5.658   1.624   0.724 -0.1179 -0.0809 -0.2863
 1517TIP3    H126186   5.731   1.587   0.674  0.5875 -2.4732  2.2514
 1517TIP3    H226187   5.699   1.677   0.792 -1.0000  1.9630 -1.2534
 1518TIP3   OH226188   2.796   5.395   2.016 -0.4076  0.3070 -0.2285
 1518TIP3    H126189   2.823   5.485   1.997  0.6627 -0.1484 -0.9142
 1518TIP3    H226190   2.820   5.382   2.108  1.2217  0.1034 -0.6604
 1519TIP3   OH226191   5.828   2.627   1.596  0.5489  0.0105 -0.3254
 1519TIP3    H126192   5.916   2.661   1.614  1.0551 -1.3524 -0.1561
 1519TIP3    H226193   5.833   2.590   1.508  0.8448 -2.2166  0.5755
 1520TIP3   OH226194   4.763   2.030   7.725 -0.0616  0.2971 -0.0438
 1520TIP3    H126195   4.781   2.114   7.767 -1.6056  0.7030 -0.1204
 1520TIP3    H226196   4.722   1.977   7.794  0.4767 -0.2337 -0.1253
 1521TIP3   OH226197   5.365   6.173   0.223  0.2347 -0.5555 -0.8542
 1521TIP3    H126198   5.413   6.104   0.269  0.3579 -1.5053 -2.3433
 1521TIP3    H226199   5.334   6.231   0.293  0.9811 -1.5631  0.3620
 1522TIP3   OH226200   2.157   0.362   2.601  0.7657 -0.0626  0.3310
 1522TIP3    H126201   2.247   0.330   2.610  1.2719  1.1866 -0.0394
 1522TIP3    H226202   2.163   0.433   2.537 -0.5332 -0.1187  0.1145
 1523TIP3   OH226203   5.289   5.956   0.773 -0.2290  0.2845  0.0403
 1523TIP3    H126204   5.336   6.035   0.749  0.0345 -0.3653 -1.6979
 1523TIP3    H226205   5.216   5.951   0.712 -0.4284 -0.6421  0.3296
 1524TIP3   OH226206   0.974   5.912   0.829 -0.5279  0.6784  0.3238
 1524TIP3    H126207   1.006   5.997   0.798  1.6855 -0.0705  0.3959
 1524TIP3    H226208   1.024   5.895   0.908 -0.3539 -1.0342 -0.1117
 1525TIP3   OH226209   5.819   1.191   7.021  0.1485 -0.1599  0.4263
 1525TIP3    H126210   5.857   1.146   7.097  0.1758 -1.3024 -0.2453
 1525TIP3    H226211   5.821   1.126   6.951 -0.9312  0.5101 -0.2534
 1526TIP3   OH226212   5.083   0.605   8.086 -0.0514 -0.3343  0.6459
 1526TIP3    H126213   5.132   0.523   8.095  0.4331 -0.0858  0.3212
 1526TIP3    H226214   5.117   0.661   8.156 -0.6364 -0.5279  1.0944
 1527TIP3   OH226215   6.615   1.616   6.566  0.5300  0.2313 -0.0602
 1527TIP3    H126216   6.547   1.674   6.532 -1.3300 -0.2892  2.5358
 1527TIP3    H226217   6.600   1.532   6.522 -0.5957  0.0996  0.5510
 1528TIP3   OH226218   6.734   3.298   7.768  0.2117  0.4481 -0.3452
 1528TIP3    H126219   6.781   3.215   7.764  2.3414  1.5601  0.4196
 1528TIP3    H226220   6.642   3.274   7.755  0.5668 -2.2243  1.4156
 1529TIP3   OH226221   5.390   2.171   1.546 -0.0473  0.2416  0.7341
 1529TIP3    H126222   5.479   2.203   1.556  0.4239  0.3370 -2.6333
 1529TIP3    H226223   5.360   2.208   1.462 -2.7946 -0.8035  1.1358
 1530TIP3   OH226224   5.303   3.235   7.461  0.4660 -0.3072 -0.3143
 1530TIP3    H126225   5.294   3.174   7.534  2.1186 -0.3038 -0.0715
 1530TIP3    H226226   5.228   3.294   7.470  0.1704 -0.8255  0.8612
 1531TIP3   OH226227   4.094   2.015   1.044 -0.2196 -0.4819 -0.0471
 1531TIP3    H126228   4.081   2.104   1.012  1.0680  0.1096  0.9412
 1531TIP3    H226229   4.180   1.990   1.009  0.2136 -0.6458  1.0870
 1532TIP3   OH226230   2.944   2.396   0.595  0.0206  0.1575 -0.1040
 1532TIP3    H126231   2.923   2.459   0.665 -0.8101 -0.8304  0.5757
 1532TIP3    H226232   3.004   2.335   0.636 -0.5918 -0.5174 -0.1915
 1533TIP3   OH226233   1.478   6.426   1.794  0.3039 -0.2430  0.1106
 1533TIP3    H126234   1.453   6.462   1.879  0.2153  0.4911 -0.2129
 1533TIP3    H226235   1.463   6.332   1.802 -1.1661 -0.0112  0.4278
 1534TIP3   OH226236   1.721   0.417   7.927 -0.1343  0.2480  0.1877
 1534TIP3    H126237   1.741   0.500   7.882 -2.1048 -1.3987 -4.3280
 1534TIP3    H226238   1.793   0.359   7.901  0.7081  0.1511  2.5150
 1535TIP3   OH226239   0.353   2.053   1.552  0.2570 -0.0091  0.0807
 1535TIP3    H126240   0.368   2.091   1.638 -0.4999  0.5677 -0.0332
 1535TIP3    H226241   0.441   2.033   1.519  0.8823  3.2593 -0.5716
 1536TIP3   OH226242   4.326   2.698   1.487 -0.8632 -0.3732 -0.3698
 1536TIP3    H126243   4.317   2.781   1.533  1.1706 -0.0851 -0.3631
 1536TIP3    H226244   4.242   2.653   1.499 -1.9553  1.6056 -0.2674
 1537TIP3   OH226245   6.787   0.603   7.787 -0.0402 -0.0441 -0.0671
 1537TIP3    H126246   6.763   0.617   7.696 -0.9936  0.6023  0.2588
 1537TIP3    H226247   6.858   0.665   7.803 -0.4016  0.4059 -0.1714
 1538TIP3   OH226248   0.773   6.474   7.745  0.0309  0.1968  0.1340
 1538TIP3    H126249   0.822   6.420   7.807 -0.0528  0.7147  0.6583
 1538TIP3    H226250   0.818   6.559   7.746 -1.2645  0.9164  1.1597
 1539TIP3   OH226251   0.799   4.798   1.465  0.1889  0.2285  0.1363
 1539TIP3    H126252   0.708   4.828   1.470  0.1624  0.1763 -0.0348
 1539TIP3    H226253   0.802   4.742   1.388  0.4826  0.6429 -0.1642
 1540TIP3   OH226254   2.508   0.084   8.715  0.4520 -0.1245 -0.3967
 1540TIP3    H126255   2.590   0.105   8.759  0.0712  0.8235 -0.1258
 1540TIP3    H226256   2.440   0.117   8.773 -0.1059 -0.2672 -0.9520
 1541TIP3   OH226257   1.010   5.796   8.329 -0.2147 -0.1097 -0.4456
 1541TIP3    H126258   0.993   5.727   8.265  0.8868 -0.5849 -0.2479
 1541TIP3    H226259   1.012   5.877   8.278 -2.2368 -0.0943 -0.5830
 1542TIP3   OH226260   1.508   5.574   1.771  0.8917  0.0111  0.3362
 1542TIP3    H126261   1.594   5.535   1.782  0.3598 -1.4467 -0.4194
 1542TIP3    H226262   1.451   5.523   1.828 -0.0290 -1.1490 -1.5013
 1543TIP3   OH226263   0.598   5.146   1.113  0.4019 -0.3108 -0.3430
 1543TIP3    H126264   0.623   5.161   1.022  2.7676 -0.0091  0.2735
 1543TIP3    H226265   0.600   5.233   1.153 -3.8956  0.1224 -0.5839
 1544TIP3   OH226266   4.860   3.079   1.211 -0.0007  0.2819  0.2059
 1544TIP3    H126267   4.862   3.128   1.293 -0.6559 -0.9261  0.9727
 1544TIP3    H226268   4.783   3.112   1.165 -0.8106 -0.4476  1.0057
 1545TIP3   OH226269   0.486   3.350   8.323  0.6801  0.6649  0.5520
 1545TIP3    H126270   0.430   3.427   8.314  0.2496  0.3518  0.4846
 1545TIP3    H226271   0.433   3.278   8.288  1.7001  0.6012 -0.9221
 1546TIP3   OH226272   6.700   6.522   7.741  0.1065 -0.4280  0.6240
 1546TIP3    H126273   6.616   6.476   7.738 -0.3985  0.4857  0.3667
 1546TIP3    H226274   6.763   6.455   7.765 -0.9308 -0.8121  2.4320
 1547TIP3   OH226275   6.353   2.400   0.303  0.2313 -0.9842 -0.0827
 1547TIP3    H126276   6.270   2.374   0.265  0.8499 -0.1212 -2.1647
 1547TIP3    H226277   6.337   2.400   0.397 -1.7824 -1.8997 -0.3690
 1548TIP3   OH226278   5.646   3.556   8.307 -0.3381  0.1963 -0.3778
 1548TIP3    H126279   5.643   3.574   8.213 -1.5138 -1.9391 -0.8025
 1548TIP3    H226280   5.568   3.600   8.342 -0.3911  0.2336 -0.5398
 1549TIP3   OH226281   4.858   1.300   1.626 -0.5659  0.5596  0.3633
 1549TIP3    H126282   4.776   1.252   1.609  0.4293 -1.4615  0.9079
 1549TIP3    H226283   4.910   1.288   1.546 -0.1251  0.3346  0.6820
 1550TIP3   OH226284   2.348   3.736   2.338  0.1531 -0.3771 -0.2143
 1550TIP3    H126285   2.354   3.831   2.331 -1.8416 -0.3388 -2.0123
 1550TIP3    H226286   2.302   3.721   2.420  1.7614  0.0874  0.8379
 1551TIP3   OH226287   4.615   6.262   7.595  0.1316  0.3143  0.5094
 1551TIP3    H126288   4.546   6.206   7.632 -1.0104  0.9796 -0.5209
 1551TIP3    H226289   4.689   6.203   7.580 -0.5397 -0.6201  0.7656
 1552TIP3   OH226290   6.854   6.278   2.220  0.4302 -0.0473  0.7365
 1552TIP3    H126291   6.812   6.203   2.260  0.9780 -0.4779  0.5265
 1552TIP3    H226292   6.948   6.264   2.235  0.4759  1.2395  1.8090
 1553TIP3   OH226293   6.084   3.948   7.893  0.0297 -0.3667 -0.2212
 1553TIP3    H126294   6.115   3.933   7.983 -0.7943  2.6642  0.6930
 1553TIP3    H226295   6.000   3.902   7.889  0.1135 -0.6002  0.5329
 1554TIP3   OH226296   5.123   5.790   6.540 -0.1610 -0.6321 -0.0132
 1554TIP3    H126297   5.206   5.832   6.518  1.0524 -2.3987  0.9211
 1554TIP3    H226298   5.119   5.793   6.635 -1.0216 -0.8604 -0.0317
 1555TIP3   OH226299   1.180   0.319   7.016  0.1064  0.1261 -0.4414
 1555TIP3    H126300   1.191   0.346   7.107 -0.4911  1.7986 -0.8266
 1555TIP3    H226301   1.269   0.301   6.985  0.7886  3.0457 -0.4967
 1556TIP3   OH226302   3.126   5.414   0.391 -0.2867  0.5669 -0.3290
 1556TIP3    H126303   3.062   5.422   0.320  0.4144 -1.0910 -1.2127
 1556TIP3    H226304   3.211   5.426   0.348  0.1331 -0.1288  0.2844
 1557TIP3   OH226305   6.624   0.493   8.590 -0.1390 -0.2514 -0.6159
 1557TIP3    H126306   6.629   0.431   8.664  0.0317 -0.9747 -1.2232
 1557TIP3    H226307   6.704   0.478   8.541  0.5156  1.3601 -0.0980
 1558TIP3   OH226308   1.323   2.682   6.788 -0.0861  0.0610 -0.6315
 1558TIP3    H126309   1.229   2.667   6.782 -0.0216 -0.7718  0.2391
 1558TIP3    H226310   1.339   2.756   6.728 -1.3782  0.6429 -0.3007
 1559TIP3   OH226311   3.560   5.857   0.971 -0.1887 -0.1163  0.3764
 1559TIP3    H126312   3.610   5.925   1.017 -0.3564 -0.4531  1.0778
 1559TIP3    H226313   3.626   5.810   0.920  0.1248 -0.1635  0.8134
 1560TIP3   OH226314   5.495   1.215   1.027 -0.4199 -0.0760  0.0847
 1560TIP3    H126315   5.513   1.297   0.980 -1.6993 -0.1326 -0.5378
 1560TIP3    H226316   5.422   1.176   0.980  0.9251 -2.1982 -0.3553
 1561TIP3   OH226317   0.536   6.768   6.853  0.7366 -0.0962 -0.2236
 1561TIP3    H126318   0.508   6.850   6.894 -0.6568  0.2652 -1.7839
 1561TIP3    H226319   0.510   6.700   6.916  0.2297  0.5431  0.2805
 1562TIP3   OH226320   3.266   2.552   2.052 -0.0807  0.2624  0.1510
 1562TIP3    H126321   3.320   2.484   2.091  0.2002  0.4912  0.1636
 1562TIP3    H226322   3.190   2.558   2.109  0.4619  0.7913  0.8349
 1563TIP3   OH226323   1.549   5.078   8.378  0.4735  0.0484  0.0487
 1563TIP3    H126324   1.477   5.072   8.315  2.1376 -1.3927 -1.8731
 1563TIP3    H226325   1.586   5.166   8.364  0.9454 -0.3208 -1.2151
 1564TIP3   OH226326   5.162   4.053   2.063 -0.3415 -0.2857 -0.1607
 1564TIP3    H126327   5.139   4.028   2.152  0.9546  0.0663  0.2807
 1564TIP3    H226328   5.235   3.996   2.040 -1.5310 -1.3435 -1.5292
 1565TIP3   OH226329   4.821   4.432   1.266 -0.6622  0.0188  0.1779
 1565TIP3    H126330   4.822   4.368   1.195 -1.0094  1.4964 -1.2060
 1565TIP3    H226331   4.750   4.492   1.244 -0.4906  0.7730  1.5522
 1566TIP3   OH226332   0.053   4.129   8.555  0.6253 -0.5012  0.4282
 1566TIP3    H126333  -0.039   4.106   8.566 -0.0868  1.6344 -0.4657
 1566TIP3    H226334   0.059   4.158   8.464  2.0256 -0.0160  0.6566
 1567TIP3   OH226335   1.747   0.396   7.499  0.6709 -0.0821 -0.5736
 1567TIP3    H126336   1.827   0.344   7.500  2.0439  1.9212  0.0664
 1567TIP3    H226337   1.758   0.458   7.571 -1.8380 -0.2523  0.0513
 1568TIP3   OH226338   0.697   4.034   8.591  0.1378  0.4560 -0.3413
 1568TIP3    H126339   0.791   4.045   8.580  0.6680 -0.2936  2.5429
 1568TIP3    H226340   0.684   3.940   8.603 -0.2933  0.8118  3.2385
 1569TIP3   OH226341   2.706   2.327   2.083 -0.4805 -0.4353 -0.3835
 1569TIP3    H126342   2.658   2.372   2.153 -0.4372 -1.8111  0.5566
 1569TIP3    H226343   2.780   2.286   2.127 -0.2379 -1.0063 -1.3098
 1570TIP3   OH226344   0.837   1.489   8.447 -0.1942 -0.0771 -0.0098
 1570TIP3    H126345   0.776   1.534   8.506 -1.1904 -1.0099 -0.2951
 1570TIP3    H226346   0.917   1.480   8.498 -0.9786 -0.7111  1.1792
 1571TIP3   OH226347   1.951   2.350   8.131 -0.8159  0.0279 -0.5838
 1571TIP3    H126348   1.886   2.416   8.105 -1.0578  0.4168  0.8815
 1571TIP3    H226349   1.993   2.388   8.208  0.0312 -0.9368 -0.5553
 1572TIP3   OH226350   0.850   4.150   0.327  0.0575  0.4586 -0.1008
 1572TIP3    H126351   0.922   4.095   0.297 -0.2509  0.1187 -0.2272
 1572TIP3    H226352   0.879   4.239   0.309  0.0065  0.2799 -1.1445
 1573TIP3   OH226353   2.959   4.957   8.412 -0.4152  0.3200 -0.2172
 1573TIP3    H126354   2.873   4.960   8.454  0.2518  0.5206  1.1958
 1573TIP3    H226355   3.019   4.995   8.477  0.6416  0.7880 -1.4308
 1574TIP3   OH226356   2.201   4.203   0.118 -0.9276  0.0849  0.1367
 1574TIP3    H126357   2.202   4.157   0.202  1.5250  1.0478  0.7199
 1574TIP3    H226358   2.184   4.135   0.054  0.3459 -1.2860  1.1763
 1575TIP3   OH226359   6.723   5.350   7.515  0.2659  0.4754 -0.1788
 1575TIP3    H126360   6.807   5.307   7.499  0.7266  1.1815  0.2988
 1575TIP3    H226361   6.716   5.355   7.611  0.3390  1.6628 -0.2182
 1576TIP3   OH226362   0.258   5.674   7.834 -0.3917  0.2729 -0.4465
 1576TIP3    H126363   0.309   5.680   7.753  1.2432  2.8884  0.6405
 1576TIP3    H226364   0.298   5.601   7.882 -0.6303 -0.5495 -1.4440
 1577TIP3   OH226365   1.853   0.138   0.937  0.4193  0.5380  0.5034
 1577TIP3    H126366   1.834   0.230   0.954  1.6305  0.6612  1.2603
 1577TIP3    H226367   1.911   0.112   1.007  1.9354 -0.1871 -0.9504
 1578TIP3   OH226368   4.832   6.313   1.417 -0.3023  0.0350 -0.1804
 1578TIP3    H126369   4.776   6.388   1.396 -1.9184 -0.9299  0.5162
 1578TIP3    H226370   4.774   6.251   1.460  1.4082 -0.8544  0.9627
 1579TIP3   OH226371   1.512   1.124   7.918  0.1590  0.0538 -0.4682
 1579TIP3    H126372   1.497   1.038   7.958 -2.3161  0.2463 -0.8585
 1579TIP3    H226373   1.425   1.158   7.899  1.1185  1.3425 -3.1232
 1580TIP3   OH226374   6.726   0.174   1.442 -0.0875 -0.4456  0.4590
 1580TIP3    H126375   6.743   0.238   1.373  1.6713 -0.3956  0.8966
 1580TIP3    H226376   6.687   0.099   1.397  0.1728 -0.0495 -0.4437
 1581TIP3   OH226377   4.034   3.066   6.587 -0.3078 -0.0849  0.1753
 1581TIP3    H126378   4.083   3.128   6.534  0.9868 -0.1702  1.2228
 1581TIP3    H226379   3.942   3.090   6.574  0.1099  1.3069 -0.3311
 1582TIP3   OH226380   6.605   4.419   8.668 -0.1313 -0.3219  0.1023
 1582TIP3    H126381   6.628   4.491   8.609 -1.4289  0.1162  0.0891
 1582TIP3    H226382   6.555   4.358   8.614 -1.2790  0.0533  0.7088
 1583TIP3   OH226383   4.465   0.246   0.723 -0.1939 -0.0433  0.0161
 1583TIP3    H126384   4.463   0.156   0.758 -1.1567 -0.9078 -2.1296
 1583TIP3    H226385   4.375   0.278   0.734  0.5027  1.3982  2.3643
 1584TIP3   OH226386   5.372   3.595   6.318  0.3365 -0.0653  0.4608
 1584TIP3    H126387   5.386   3.688   6.337 -3.6203  0.5259  1.6299
 1584TIP3    H226388   5.326   3.595   6.234  1.8657 -1.1868 -0.4110
 1585TIP3   OH226389   6.570   4.021   7.755 -0.3449 -0.4828  0.0980
 1585TIP3    H126390   6.505   3.964   7.796 -0.1765 -0.4719  0.3758
 1585TIP3    H226391   6.592   4.085   7.822  1.6330 -1.8172  0.8275
 1586TIP3   OH226392   1.645   4.450   2.021 -0.2928 -0.1859 -0.3642
 1586TIP3    H126393   1.701   4.458   2.098 -0.0900  1.2297 -0.6322
 1586TIP3    H226394   1.627   4.356   2.013  0.3434 -0.4283  0.9258
 1587TIP3   OH226395   6.289   5.548   1.905 -0.3221 -0.0005 -0.3209
 1587TIP3    H126396   6.317   5.588   1.987 -0.7031 -0.8717  0.2467
 1587TIP3    H226397   6.369   5.515   1.866 -0.1076  0.6211 -0.4261
 1588TIP3   OH226398   1.635   0.379   1.581 -0.0417 -0.0792  0.2743
 1588TIP3    H126399   1.621   0.334   1.664 -3.3214 -0.5785 -0.4080
 1588TIP3    H226400   1.559   0.437   1.572  2.2975  3.1522 -0.4848
 1589TIP3   OH226401   2.770   6.345   8.478 -0.1536 -0.1383  0.3186
 1589TIP3    H126402   2.857   6.327   8.513 -0.3187  1.5252  1.7293
 1589TIP3    H226403   2.758   6.439   8.491 -2.6215 -0.5017  1.3236
 1590TIP3   OH226404   5.363   5.480   6.585 -0.0673 -0.3761 -0.1769
 1590TIP3    H126405   5.354   5.518   6.672  0.2715  0.3427 -0.4464
 1590TIP3    H226406   5.436   5.418   6.593 -1.8691 -2.5210  0.7651
 1591TIP3   OH226407   6.391   4.513   2.055  0.0304  0.2942 -0.2894
 1591TIP3    H126408   6.350   4.429   2.037 -1.8096  0.9786  0.4321
 1591TIP3    H226409   6.442   4.499   2.135 -0.3181 -0.1129 -0.1397
 1592TIP3   OH226410   4.887   1.774   1.138 -0.5859 -0.4404 -0.2332
 1592TIP3    H126411   4.803   1.810   1.167 -0.4747  0.5570 -1.0740
 1592TIP3    H226412   4.868   1.681   1.120 -1.9500  0.1220 -1.9759
 1593TIP3   OH226413   1.487   1.600   1.233  0.3513 -0.7267 -0.1778
 1593TIP3    H126414   1.426   1.582   1.161 -0.0791 -2.0104  0.4765
 1593TIP3    H226415   1.469   1.531   1.297  0.9966  0.1619  0.9912
 1594TIP3   OH226416   4.408   5.459   7.229 -0.0479  0.1701  0.0366
 1594TIP3    H126417   4.425   5.447   7.136 -0.3706 -2.7941  0.2668
 1594TIP3    H226418   4.320   5.425   7.242  0.3812 -0.4501  1.5843
 1595TIP3   OH226419   2.699   1.120   0.568  0.0203  0.0494  0.6947
 1595TIP3    H126420   2.695   1.038   0.615  1.8328  0.2149  1.1985
 1595TIP3    H226421   2.643   1.180   0.618  0.4630 -0.2786  1.5943
 1596TIP3   OH226422   6.779   6.687   2.118 -0.2173 -0.4315  0.6079
 1596TIP3    H126423   6.794   6.650   2.031  0.2904  2.4526 -0.6534
 1596TIP3    H226424   6.864   6.685   2.161  0.0903  0.3472  0.0583
 1597TIP3   OH226425   0.353   1.341   7.183 -0.4283  0.2911 -0.2011
 1597TIP3    H126426   0.309   1.318   7.102  1.8535  1.3035 -1.8337
 1597TIP3    H226427   0.433   1.289   7.183  0.0836  1.0266  0.9198
 1598TIP3   OH226428   6.317   1.505   7.394  0.1836 -0.1692 -0.0792
 1598TIP3    H126429   6.290   1.414   7.384 -0.5602 -0.0766  0.8954
 1598TIP3    H226430   6.236   1.552   7.415  0.5959  0.6791 -0.3380
 1599TIP3   OH226431   6.666   0.836   7.606 -0.2842 -0.4152 -0.1158
 1599TIP3    H126432   6.575   0.815   7.626 -0.9884  1.1654 -1.4226
 1599TIP3    H226433   6.675   0.819   7.512  0.8413 -0.7599  0.0401
 1600TIP3   OH226434   1.137   3.001   1.084  0.4430 -0.0121  0.1898
 1600TIP3    H126435   1.088   3.036   1.159  0.0059 -1.9794  0.8799
 1600TIP3    H226436   1.222   2.976   1.121 -0.3470 -2.5306  0.4901
 1601TIP3   OH226437   4.765   0.291   0.271  0.3562 -0.5154 -0.1151
 1601TIP3    H126438   4.749   0.203   0.237 -2.2416  0.4942 -1.8371
 1601TIP3    H226439   4.698   0.303   0.338  1.3374 -0.1429  0.8387
 1602TIP3   OH226440   1.689   1.124   0.805  0.0873  0.2790 -0.2450
 1602TIP3    H126441   1.669   1.216   0.822  2.5245  0.9171 -0.4884
 1602TIP3    H226442   1.686   1.116   0.709  0.7805  0.3359 -0.2721
 1603TIP3   OH226443   1.895   0.573   0.739  0.0089 -0.0580 -0.1278
 1603TIP3    H126444   1.960   0.516   0.699  0.0629 -0.7280  0.8762
 1603TIP3    H226445   1.817   0.562   0.686 -0.0495 -1.2557  0.1867
 1604TIP3   OH226446   0.584   2.069   0.016  0.1640  0.3594 -0.2073
 1604TIP3    H126447   0.574   2.124   0.093  0.4770  2.0082 -1.2952
 1604TIP3    H226448   0.506   2.014   0.015  0.0121  0.5313  1.1048
 1605TIP3   OH226449   6.477   2.854   8.214 -0.2655 -0.3844  0.3206
 1605TIP3    H126450   6.454   2.920   8.149  0.4595  0.1939  0.6464
 1605TIP3    H226451   6.393   2.830   8.254 -0.6046 -0.1083 -0.2210
 1606TIP3   OH226452   2.678   5.751   1.029 -0.6360  0.0596 -0.0398
 1606TIP3    H126453   2.601   5.769   1.083 -0.8290  1.2735 -0.6802
 1606TIP3    H226454   2.752   5.763   1.089 -0.8716  0.8374  0.1165
 1607TIP3   OH226455   5.459   5.225   2.254  0.0524 -0.3486 -0.3054
 1607TIP3    H126456   5.482   5.318   2.258 -0.3491 -0.2169 -0.9695
 1607TIP3    H226457   5.459   5.197   2.346  0.4221  0.2415 -0.1135
 1608TIP3   OH226458   1.278   5.693   7.096 -0.6015 -0.0995 -0.1652
 1608TIP3    H126459   1.284   5.602   7.124  0.2698  0.1662  0.5834
 1608TIP3    H226460   1.309   5.693   7.006 -1.3243 -0.6474 -0.4213
 1609TIP3   OH226461   2.097   4.872   8.322 -0.2066 -0.0479 -0.1342
 1609TIP3    H126462   2.053   4.840   8.243 -0.0154  1.1955 -0.7579
 1609TIP3    H226463   2.044   4.945   8.352  0.8407  0.8020 -0.2948
 1610TIP3   OH226464   2.048   1.420   1.294  0.1013  0.2560 -0.1040
 1610TIP3    H126465   2.119   1.369   1.331 -0.2421  0.1717  0.4430
 1610TIP3    H226466   2.091   1.493   1.250  0.5873 -0.3834 -0.7191
 1611TIP3   OH226467   3.685   2.070   7.143  1.0916 -0.0513  0.4072
 1611TIP3    H126468   3.673   2.118   7.225 -0.6161  1.1742 -0.4689
 1611TIP3    H226469   3.654   1.982   7.162  0.7649  0.2018  1.1033
 1612TIP3   OH226470   2.617   4.180   7.763 -0.1567  0.2380  0.3365
 1612TIP3    H126471   2.613   4.174   7.859  0.6318  0.4060  0.3906
 1612TIP3    H226472   2.603   4.273   7.745  2.1961  0.6805  0.4764
 1613TIP3   OH226473   2.001   2.011   1.065 -0.5705 -0.2373  0.1481
 1613TIP3    H126474   2.003   2.023   0.970 -0.8788 -1.3452 -0.0056
 1613TIP3    H226475   2.059   2.080   1.098  0.6767 -0.7194 -0.9345
 1614TIP3   OH226476   3.610   4.890   7.687 -0.1047  0.4879  0.1553
 1614TIP3    H126477   3.688   4.851   7.648  0.3664 -0.0947  1.6080
 1614TIP3    H226478   3.548   4.817   7.694 -0.5068  0.7827 -0.2931
 1615TIP3   OH226479   6.211   0.176   8.102  0.2586 -0.1682 -0.4863
 1615TIP3    H126480   6.232   0.268   8.089  1.5636 -0.0906  1.7245
 1615TIP3    H226481   6.296   0.133   8.113 -0.4033 -1.2186  0.8174
 1616TIP3   OH226482   0.423   0.124   6.265 -0.1949 -0.2552 -0.0935
 1616TIP3    H126483   0.424   0.031   6.286 -1.2139  0.2172  2.3176
 1616TIP3    H226484   0.353   0.133   6.200 -0.7249 -1.0396  0.3545
 1617TIP3   OH226485   1.184   5.238   7.964 -0.5402 -0.0566  0.7386
 1617TIP3    H126486   1.122   5.283   8.022 -0.6444 -2.5038  2.6963
 1617TIP3    H226487   1.138   5.232   7.880 -0.7108  2.8824  0.5449
 1618TIP3   OH226488   3.155   1.272   0.919 -0.4064 -0.8337 -0.0742
 1618TIP3    H126489   3.203   1.348   0.950  0.2291 -1.0380 -0.5372
 1618TIP3    H226490   3.134   1.223   0.999 -1.8151  0.3766  0.3451
 1619TIP3   OH226491   1.746   2.089   0.215 -0.2355  0.4137  0.3013
 1619TIP3    H126492   1.834   2.126   0.218 -0.2352  0.3459  2.5964
 1619TIP3    H226493   1.696   2.139   0.279 -1.3372 -0.8439  0.4727
 1620TIP3   OH226494   0.895   4.688   6.877 -0.0701 -0.1925  0.0568
 1620TIP3    H126495   0.985   4.668   6.851 -0.0765 -0.4639  0.2287
 1620TIP3    H226496   0.841   4.660   6.803  0.0233  0.4553 -0.2624
 1621TIP3   OH226497   1.756   5.454   1.484 -0.2817  0.6314 -0.0256
 1621TIP3    H126498   1.696   5.381   1.496  1.1021 -0.4807  0.3567
 1621TIP3    H226499   1.840   5.422   1.518  0.0016  2.9599  1.7201
 1622TIP3   OH226500   3.060   6.174   8.673 -0.0954 -0.6221 -0.0747
 1622TIP3    H126501   3.105   6.090   8.660 -0.0935 -0.3742 -1.8940
 1622TIP3    H226502   3.128   6.240   8.659 -0.6375 -0.2840 -1.2601
 1623TIP3   OH226503   4.184   2.296   8.064 -0.3302 -0.2831 -0.2368
 1623TIP3    H126504   4.120   2.367   8.074 -1.0925 -1.2018  2.1588
 1623TIP3    H226505   4.138   2.228   8.016 -0.7972 -0.5090  0.5181
 1624TIP3   OH226506   6.253   4.449   1.735 -0.1182  0.3139 -0.3575
 1624TIP3    H126507   6.158   4.443   1.734 -0.1687  0.7214  0.4667
 1624TIP3    H226508   6.282   4.401   1.658 -0.9932  0.2154 -0.6303
 1625TIP3   OH226509   1.699   6.056   2.107 -0.4438 -0.0265 -0.3964
 1625TIP3    H126510   1.716   5.968   2.074 -0.0107  0.0735 -0.4513
 1625TIP3    H226511   1.637   6.043   2.178 -0.3647 -0.3789 -0.3875
 1626TIP3   OH226512   1.265   1.463   7.849  0.5898  0.5869  0.0297
 1626TIP3    H126513   1.354   1.430   7.844  0.0429 -0.7021 -1.9778
 1626TIP3    H226514   1.271   1.553   7.815  1.0118  0.2626 -0.7721
 1627TIP3   OH226515   4.686   5.533   1.742 -0.0837 -0.6188 -0.1469
 1627TIP3    H126516   4.765   5.561   1.787 -0.5030 -0.3292  0.4346
 1627TIP3    H226517   4.617   5.538   1.809 -0.6710 -0.4456 -0.7469
 1628TIP3   OH226518   5.506   6.679   0.396 -0.4580  0.3862 -0.1676
 1628TIP3    H126519   5.581   6.718   0.351  0.1122  0.4243  0.7954
 1628TIP3    H226520   5.490   6.597   0.349 -1.4830  1.5706 -2.0227
 1629TIP3   OH226521   6.282   0.460   8.660 -0.6140 -0.1192 -0.5385
 1629TIP3    H126522   6.259   0.553   8.669 -0.1560  0.1997 -2.1895
 1629TIP3    H226523   6.377   0.458   8.665 -0.6796 -0.7157  0.8787
 1630TIP3   OH226524   2.255   6.019   1.158  0.0328  0.3314  0.0789
 1630TIP3    H126525   2.310   6.085   1.202  0.0625  0.4288 -0.1038
 1630TIP3    H226526   2.170   6.062   1.149  0.1574  0.4849 -0.3801
 1631TIP3   OH226527   4.921   0.986   6.603  0.3298  0.2315 -0.4458
 1631TIP3    H126528   5.011   1.013   6.585  0.6017  0.3901  0.9978
 1631TIP3    H226529   4.918   0.894   6.576  1.4154 -0.2552  0.9389
 1632TIP3   OH226530   2.648   5.213   8.429 -0.2365  0.3423  0.1962
 1632TIP3    H126531   2.624   5.124   8.403 -0.3810  0.7893 -1.2576
 1632TIP3    H226532   2.573   5.243   8.481  0.1930 -0.6702  1.4787
 1633TIP3   OH226533   1.862   3.442   7.657  0.5831  0.4728 -0.5912
 1633TIP3    H126534   1.911   3.382   7.713 -1.1587 -1.5074 -1.0466
 1633TIP3    H226535   1.836   3.389   7.581 -2.3158  1.3126 -0.3212
 1634TIP3   OH226536   6.102   5.120   0.338  0.6340  0.0823  0.2100
 1634TIP3    H126537   6.126   5.044   0.284  2.3527  0.3050  0.5958
 1634TIP3    H226538   6.184   5.168   0.350 -0.3404  1.7976  0.3257
 1635TIP3   OH226539   0.699   5.542   7.020  0.4313 -0.2223  0.5246
 1635TIP3    H126540   0.769   5.476   7.013  2.8774  2.2006  0.6526
 1635TIP3    H226541   0.658   5.542   6.933 -0.7858 -2.9740  0.9829
 1636TIP3   OH226542   1.613   0.205   8.556  0.4458  1.0733 -0.1728
 1636TIP3    H126543   1.704   0.211   8.528  0.1464  1.1160 -1.1665
 1636TIP3    H226544   1.610   0.256   8.637  1.3606  0.8175  0.0412
 1637TIP3   OH226545   5.195   2.361   0.795  0.0431  0.1691 -0.2919
 1637TIP3    H126546   5.235   2.296   0.854  1.5667 -0.5133 -1.9688
 1637TIP3    H226547   5.187   2.440   0.848  0.9659 -0.5362  0.9611
 1638TIP3   OH226548   1.882   6.543   7.032  0.2423 -0.2179  0.1348
 1638TIP3    H126549   1.880   6.448   7.016  1.8682 -0.1698 -0.5609
 1638TIP3    H226550   1.914   6.580   6.949  0.9800  0.8056  0.8579
 1639TIP3   OH226551   0.325   3.941   7.957 -0.0618  0.1959 -0.6625
 1639TIP3    H126552   0.236   3.949   7.925 -1.2486  1.4939  2.5018
 1639TIP3    H226553   0.334   3.848   7.981 -0.5138  0.0322 -1.1301
 1640TIP3   OH226554   3.858   6.660   0.638  0.5199  0.9129 -0.1531
 1640TIP3    H126555   3.815   6.645   0.554 -0.9062 -0.6963  0.8121
 1640TIP3    H226556   3.950   6.638   0.622  0.7016  2.5919 -1.7686
 1641TIP3   OH226557   6.137   4.239   6.913  0.1897  0.4989 -0.0957
 1641TIP3    H126558   6.196   4.191   6.854 -0.2123  0.0769 -0.1636
 1641TIP3    H226559   6.076   4.284   6.854 -1.5031 -1.5503 -0.0269
 1642TIP3   OH226560   3.756   1.898   6.886 -0.0456  0.2265  0.1168
 1642TIP3    H126561   3.762   1.803   6.881  0.9081  0.2888 -0.1143
 1642TIP3    H226562   3.739   1.926   6.796 -1.6048  0.2163  0.3745
 1643TIP3   OH226563   1.322   5.377   7.156 -0.4460  0.4283  0.1503
 1643TIP3    H126564   1.257   5.377   7.226 -0.4523  1.1410  0.1456
 1643TIP3    H226565   1.331   5.284   7.132 -0.4541  0.1777  1.0775
 1644TIP3   OH226566   0.545   0.576   0.469 -0.6284  0.5359 -0.0263
 1644TIP3    H126567   0.535   0.623   0.552 -0.6164  1.7356 -0.6815
 1644TIP3    H226568   0.456   0.569   0.434 -0.6969 -0.4000  0.2918
 1645TIP3   OH226569   3.197   1.760   7.415 -0.2834  0.1300  0.3676
 1645TIP3    H126570   3.251   1.681   7.405  1.1896  1.1287  0.0057
 1645TIP3    H226571   3.259   1.826   7.446 -1.5926  1.0291  1.1493
 1646TIP3   OH226572   3.195   1.685   0.264  0.3037  0.2890  0.2564
 1646TIP3    H126573   3.249   1.698   0.342  0.3557 -2.1374  0.6947
 1646TIP3    H226574   3.247   1.627   0.208 -1.1392 -0.7437 -0.0629
 1647TIP3   OH226575   1.893   2.812   7.157 -0.3489  0.1239 -0.4911
 1647TIP3    H126576   1.868   2.894   7.114 -1.1940 -0.7064 -1.6487
 1647TIP3    H226577   1.840   2.745   7.113 -0.0957 -0.9695  0.8206
 1648TIP3   OH226578   4.327   2.741   0.192  0.1760 -0.6369  0.1292
 1648TIP3    H126579   4.266   2.668   0.206  0.9215 -1.6039 -1.3414
 1648TIP3    H226580   4.398   2.725   0.254  0.2686 -1.1104 -0.0897
 1649TIP3   OH226581   1.456   3.725   8.200 -0.6485  0.5159  0.2575
 1649TIP3    H126582   1.472   3.640   8.160 -1.0392  0.2783  0.5986
 1649TIP3    H226583   1.477   3.712   8.292 -0.4855  0.8551  0.2696
 1650TIP3   OH226584   4.008   6.237   7.060  0.2379 -0.0876 -0.7197
 1650TIP3    H126585   3.941   6.228   7.129  0.7373  0.0052 -0.2204
 1650TIP3    H226586   3.994   6.325   7.024 -0.2140 -0.2473 -0.9447
 1651TIP3   OH226587   0.324   1.599   1.207  0.1290 -0.0379 -0.0159
 1651TIP3    H126588   0.235   1.617   1.237  0.1646  1.8091 -0.8770
 1651TIP3    H226589   0.324   1.506   1.186 -1.4641 -0.1664  0.4208
 1652TIP3   OH226590   5.852   0.961   6.832  0.1817 -0.2083 -0.0468
 1652TIP3    H126591   5.816   0.881   6.870  1.7576 -0.5265  0.8811
 1652TIP3    H226592   5.931   0.932   6.786  0.0044  0.6343 -0.9178
 1653TIP3   OH226593   5.966   5.856   7.646  0.2919 -0.1869 -0.0147
 1653TIP3    H126594   6.039   5.798   7.623  0.8834  0.4382  0.2580
 1653TIP3    H226595   5.952   5.840   7.740 -0.1656 -0.5662 -0.1422
 1654TIP3   OH226596   0.541   4.522   8.440 -0.5673 -0.0108 -0.1888
 1654TIP3    H126597   0.520   4.593   8.379 -0.6549  0.8027  0.7651
 1654TIP3    H226598   0.571   4.567   8.519  0.0508 -1.0603  0.1883
 1655TIP3   OH226599   2.787   1.766   8.084  0.2106  0.0002 -0.2739
 1655TIP3    H126600   2.742   1.823   8.146  1.5169  1.0816 -0.2788
 1655TIP3    H226601   2.841   1.825   8.032  0.0717 -1.0191 -1.6517
 1656TIP3   OH226602   6.699   6.281   8.360 -0.7246 -0.0739  0.0713
 1656TIP3    H126603   6.755   6.259   8.286  0.1511  1.1476  0.3308
 1656TIP3    H226604   6.624   6.222   8.352  0.4648 -1.5828 -0.4183
 1657TIP3   OH226605   5.314   3.356   0.773 -0.4477 -0.4347 -0.2693
 1657TIP3    H126606   5.241   3.300   0.801 -0.0989 -0.4335  0.6865
 1657TIP3    H226607   5.272   3.432   0.734 -1.0102  0.2022  1.4902
 1658TIP3   OH226608   1.623   0.412   6.807  0.0932  0.5467  0.0966
 1658TIP3    H126609   1.719   0.416   6.798  0.2056 -2.9662 -2.1784
 1658TIP3    H226610   1.592   0.398   6.717 -2.4352 -0.0363  0.9981
 1659TIP3   OH226611   5.668   6.576   0.839 -0.3121  0.0944  0.0651
 1659TIP3    H126612   5.591   6.583   0.895 -0.5801 -0.0427 -0.2788
 1659TIP3    H226613   5.741   6.607   0.893 -0.7105  0.8758  0.1671
 1660TIP3   OH226614   1.771   3.448   1.928  0.6164 -0.1695  0.3160
 1660TIP3    H126615   1.695   3.435   1.985  0.6331  1.4638  0.7692
 1660TIP3    H226616   1.786   3.543   1.929  3.0384 -0.4933  0.7151
 1661TIP3   OH226617   0.239   4.471   7.403  0.3176  0.6280 -0.0500
 1661TIP3    H126618   0.153   4.504   7.377  0.0547 -0.0168 -0.0316
 1661TIP3    H226619   0.238   4.473   7.499 -0.7855 -2.0047  0.0766
 1662TIP3   OH226620   3.523   3.535   8.533 -0.5039 -0.0836  0.2269
 1662TIP3    H126621   3.528   3.461   8.593  1.1736  0.2298  0.5319
 1662TIP3    H226622   3.524   3.495   8.446  1.0359 -0.4519  0.3740
 1663TIP3   OH226623   5.175   3.901   8.346  0.3412 -0.1770 -0.3706
 1663TIP3    H126624   5.117   3.825   8.343  0.4818 -0.2650 -1.5095
 1663TIP3    H226625   5.128   3.968   8.296  0.5009  0.2790  0.0846
 1664TIP3   OH226626   2.763   0.838   7.211 -0.0881  0.0154 -0.0764
 1664TIP3    H126627   2.696   0.906   7.197 -0.4623 -0.1311  0.9103
 1664TIP3    H226628   2.775   0.799   7.125 -1.5428 -0.1859 -0.2204
 1665TIP3   OH226629   2.379   4.994   7.903 -0.9213 -0.2516 -0.2091
 1665TIP3    H126630   2.313   4.935   7.940 -0.3471 -1.0910 -0.4776
 1665TIP3    H226631   2.413   4.946   7.827  0.3009 -0.0364  0.1829
 1666TIP3   OH226632   5.943   1.755   7.691 -0.4750  0.0507  0.2993
 1666TIP3    H126633   5.888   1.826   7.658 -0.4961  0.6796  1.6559
 1666TIP3    H226634   5.965   1.780   7.781 -0.6600 -1.7641  0.8885
 1667TIP3   OH226635   3.668   5.271   1.109 -0.0280 -0.0213  0.0154
 1667TIP3    H126636   3.609   5.317   1.050 -0.6832  0.3121  0.9177
 1667TIP3    H226637   3.610   5.225   1.171  0.5923 -1.8170 -0.6534
 1668TIP3   OH226638   3.920   6.510   2.066 -0.0727 -0.1673 -0.5094
 1668TIP3    H126639   3.895   6.537   2.154 -2.9087  0.7809 -1.5201
 1668TIP3    H226640   3.974   6.582   2.033 -1.0750  0.6732 -0.3834
 1669TIP3   OH226641   3.483   5.278   1.909  0.6574  0.3066  0.0651
 1669TIP3    H126642   3.510   5.226   1.834  0.9874 -2.9983  2.2622
 1669TIP3    H226643   3.388   5.282   1.903  0.5916 -0.9036 -0.0117
 1670TIP3   OH226644   5.901   0.078   8.118 -0.4899  0.1708  0.2775
 1670TIP3    H126645   5.851   0.145   8.071 -1.5222 -1.3763 -0.9125
 1670TIP3    H226646   5.841   0.004   8.126  1.3642 -1.5354 -0.6559
 1671TIP3   OH226647   1.913   0.232   6.634 -0.8357  0.7065  0.9327
 1671TIP3    H126648   1.960   0.273   6.706  2.2711 -1.8047  0.5602
 1671TIP3    H226649   1.959   0.262   6.555 -0.9142 -0.4883  0.4087
 1672TIP3   OH226650   3.803   3.880   0.036 -0.7659 -0.5174  0.7157
 1672TIP3    H126651   3.833   3.845  -0.048  3.0612  0.6415  1.4005
 1672TIP3    H226652   3.819   3.809   0.098  1.6061  0.3218  1.1930
 1673TIP3   OH226653   5.062   1.826   8.747 -0.6432  0.1626  0.0321
 1673TIP3    H126654   5.003   1.894   8.779  1.7008  0.5742  4.1180
 1673TIP3    H226655   5.146   1.871   8.734 -0.0645 -1.2207 -1.3937
 1674TIP3   OH226656   3.563   3.668   0.086  0.0849 -0.6522 -0.5586
 1674TIP3    H126657   3.580   3.757   0.057  0.9791 -0.3773  0.7226
 1674TIP3    H226658   3.642   3.619   0.062 -1.1433 -1.5957 -2.9841
 1675TIP3   OH226659   1.314   0.874   1.124 -0.1840 -0.2544  0.1522
 1675TIP3    H126660   1.322   0.791   1.077  0.5096 -0.4315  0.5715
 1675TIP3    H226661   1.337   0.941   1.059 -0.2519 -0.4234 -0.0457
 1676TIP3   OH226662   3.277   0.754   1.232 -0.1251  0.4310 -0.6559
 1676TIP3    H126663   3.298   0.835   1.184  0.1523  1.4624  1.1124
 1676TIP3    H226664   3.346   0.748   1.299 -0.7088 -0.7555 -0.1384
 1677TIP3   OH226665   6.753   4.618   8.129  0.2262  0.2145  0.2607
 1677TIP3    H126666   6.753   4.549   8.195  2.8898  1.0728  1.2405
 1677TIP3    H226667   6.751   4.699   8.178 -1.4992  0.9117 -0.8614
 1678TIP3   OH226668   2.378   4.926   0.381  0.2591 -0.1207  0.6010
 1678TIP3    H126669   2.362   4.930   0.286  3.8039 -0.9724 -0.1703
 1678TIP3    H226670   2.328   5.000   0.416  1.7412  2.6591 -2.4864
 1679TIP3   OH226671   0.707   3.030   1.790 -0.3108 -0.2279 -0.2194
 1679TIP3    H126672   0.774   3.060   1.728 -0.6990  0.3073 -0.3826
 1679TIP3    H226673   0.679   2.945   1.756  0.9436 -0.9148  0.3610
 1680TIP3   OH226674   3.713   4.576   8.381 -0.0730  0.4387  0.5581
 1680TIP3    H126675   3.630   4.621   8.396 -1.9390 -1.7709 -2.0727
 1680TIP3    H226676   3.737   4.600   8.291  1.0920 -0.5680  0.5741
 1681TIP3   OH226677   5.038   2.370   0.591  0.2267 -0.2107  0.0651
 1681TIP3    H126678   5.089   2.363   0.672  0.0302  0.4129  0.2438
 1681TIP3    H226679   5.093   2.420   0.532  0.3959 -0.7210 -0.2164
 1682TIP3   OH226680   5.530   4.645   0.883  0.2607  1.1664 -0.1100
 1682TIP3    H126681   5.581   4.724   0.864  1.0643  0.4181 -1.2438
 1682TIP3    H226682   5.441   4.665   0.854  0.3458  1.8108  0.0646
 1683TIP3   OH226683   0.327   5.788   0.584  0.0897 -0.0748  0.1749
 1683TIP3    H126684   0.276   5.853   0.632 -1.2689 -1.7957  1.1315
 1683TIP3    H226685   0.263   5.738   0.535  1.0993 -0.8450 -0.4016
 1684TIP3   OH226686   5.667   3.940   0.395 -0.0845 -0.3021  0.5820
 1684TIP3    H126687   5.601   3.872   0.410 -0.4833 -0.8088 -2.6242
 1684TIP3    H226688   5.739   3.917   0.453 -0.8849 -2.5090  0.8034
 1685TIP3   OH226689   1.427   4.163   6.930 -0.6116 -0.4119 -0.2058
 1685TIP3    H126690   1.403   4.245   6.972 -0.6174 -0.5432  0.0525
 1685TIP3    H226691   1.349   4.137   6.882 -0.1230  0.4909 -1.5205
 1686TIP3   OH226692   3.713   2.759   7.174 -0.0812  0.0515  0.1738
 1686TIP3    H126693   3.793   2.735   7.221  0.0252 -0.5904 -0.3247
 1686TIP3    H226694   3.745   2.788   7.088 -0.2067  1.9227  0.7122
 1687TIP3   OH226695   1.456   1.366   0.540 -0.4803  0.1578  0.1682
 1687TIP3    H126696   1.395   1.429   0.579  0.6529  1.2152  0.3154
 1687TIP3    H226697   1.510   1.420   0.482  0.0149 -0.8351 -0.3014
 1688TIP3   OH226698   4.318   4.714   0.836 -0.8778  0.5305 -0.5463
 1688TIP3    H126699   4.268   4.709   0.755  1.4780 -0.1311 -2.0612
 1688TIP3    H226700   4.314   4.625   0.872  0.5207  0.0327 -1.5527
 1689TIP3   OH226701   5.730   4.823   1.341  0.3456 -0.4883  0.0995
 1689TIP3    H126702   5.699   4.863   1.260  1.4705 -1.5417 -0.8930
 1689TIP3    H226703   5.678   4.743   1.350  0.0509 -0.2510  0.5641
 1690TIP3   OH226704   1.276   4.303   1.171 -0.1654  0.4534  0.0490
 1690TIP3    H126705   1.339   4.271   1.107 -1.5166  0.0552 -1.1357
 1690TIP3    H226706   1.196   4.318   1.120 -1.8481 -1.5586  1.8928
 1691TIP3   OH226707   1.073   2.047   7.089 -0.3168 -0.0084 -0.5417
 1691TIP3    H126708   1.039   2.050   6.999 -0.8412 -1.3196 -0.4127
 1691TIP3    H226709   1.095   1.955   7.102 -2.1045 -0.2166  1.3565
 1692TIP3   OH226710   0.380   2.533   8.069  0.1824  0.6035 -0.1290
 1692TIP3    H126711   0.378   2.531   7.974 -1.9681  0.4010 -0.1283
 1692TIP3    H226712   0.468   2.503   8.092  0.1091 -1.2742 -2.0160
 1693TIP3   OH226713   3.076   3.969   1.707  0.0864 -0.0470 -0.4275
 1693TIP3    H126714   3.029   3.949   1.788  0.5019  0.8083  0.0462
 1693TIP3    H226715   3.060   3.894   1.650 -1.3374 -0.0504 -0.0584
 1694TIP3   OH226716   4.675   6.492   1.295  0.2909  0.2574  0.2353
 1694TIP3    H126717   4.710   6.580   1.283  0.1902  0.6101  2.2235
 1694TIP3    H226718   4.580   6.502   1.288  0.3588 -0.2609 -2.5469
 1695TIP3   OH226719   2.952   2.834   2.003 -0.4207 -0.0588  0.8360
 1695TIP3    H126720   2.910   2.752   2.029 -0.6557 -0.6891 -1.3500
 1695TIP3    H226721   2.944   2.836   1.908  2.0543  1.1676  0.5861
 1696TIP3   OH226722   1.430   3.692   7.157  0.1553 -0.4367  0.2234
 1696TIP3    H126723   1.382   3.724   7.233  0.4618 -0.2798  0.3499
 1696TIP3    H226724   1.468   3.771   7.117  0.5963 -0.5948  0.3226
 1697TIP3   OH226725   3.547   2.638   0.422 -0.3344 -0.2420  0.5102
 1697TIP3    H126726   3.456   2.652   0.447 -0.4431 -0.1330  0.0602
 1697TIP3    H226727   3.571   2.716   0.373 -1.2955 -1.9704 -3.0029
 1698TIP3   OH226728   5.068   2.437   1.424  0.6736  0.3269 -0.0037
 1698TIP3    H126729   5.070   2.458   1.517 -0.0580  0.3374  0.0161
 1698TIP3    H226730   5.099   2.346   1.419 -0.0810  0.0410  0.3459
 1699TIP3   OH226731   2.453   2.564   1.502  0.2448  0.0547 -0.5362
 1699TIP3    H126732   2.490   2.498   1.443 -0.0806 -0.1847 -0.4745
 1699TIP3    H226733   2.414   2.513   1.573 -0.6246  0.2804 -0.8417
 1700TIP3   OH226734   1.843   2.464   0.321 -0.9430 -0.2712 -0.0037
 1700TIP3    H126735   1.892   2.387   0.348 -0.3006  0.0952 -0.0899
 1700TIP3    H226736   1.777   2.431   0.259 -1.1890 -0.8469  0.5608
 1701TIP3   OH226737   4.388   5.932   2.033 -0.5205  0.2679 -0.0770
 1701TIP3    H126738   4.327   5.859   2.027 -0.1904 -0.0318  0.1797
 1701TIP3    H226739   4.353   5.986   2.104 -1.2290  0.8092 -0.8141
 1702TIP3   OH226740   4.507   5.654   1.307 -0.3444  0.2728  0.0068
 1702TIP3    H126741   4.465   5.723   1.359 -0.7570 -0.5611  0.8071
 1702TIP3    H226742   4.436   5.616   1.256 -0.5484 -0.9188  1.1163
 1703TIP3   OH226743   2.191   5.707   1.687  0.2433 -0.0405  0.1210
 1703TIP3    H126744   2.227   5.633   1.735 -0.0449  1.5306  3.0326
 1703TIP3    H226745   2.106   5.676   1.656 -0.1614 -0.7964  1.8431
 1704TIP3   OH226746   1.950   1.482   6.980  0.0224  0.8172  0.6315
 1704TIP3    H126747   1.878   1.439   7.026  0.2153  1.3523  1.4595
 1704TIP3    H226748   1.928   1.575   6.983 -0.1504  0.8418 -0.7135
 1705TIP3   OH226749   6.575   1.504   7.434  0.0044  0.9461 -0.1893
 1705TIP3    H126750   6.595   1.591   7.401  0.2830  1.1316  0.4667
 1705TIP3    H226751   6.480   1.505   7.447  0.1367  1.5473  0.8982
 1706TIP3   OH226752   1.653   6.713   7.503  0.4151 -0.4600 -0.4101
 1706TIP3    H126753   1.723   6.649   7.495  0.4735 -0.3169 -1.1360
 1706TIP3    H226754   1.634   6.740   7.413  0.7701  0.9439 -0.0909
 1707TIP3   OH226755   1.773   2.803   7.937 -0.2126 -0.8341  0.2556
 1707TIP3    H126756   1.815   2.820   7.853 -0.3837 -2.9578 -0.3130
 1707TIP3    H226757   1.679   2.805   7.918 -0.2677 -0.6481  0.5408
 1708TIP3   OH226758   5.283   4.880   8.018  0.2799 -0.3561 -0.0637
 1708TIP3    H126759   5.266   4.883   8.112  0.7896 -0.4163  0.0355
 1708TIP3    H226760   5.270   4.970   7.989  1.2481 -0.0819  0.2834
 1709TIP3   OH226761   2.267   3.422   0.387 -0.0334  0.5458  0.0795
 1709TIP3    H126762   2.226   3.340   0.361  0.4297 -0.0030  1.0240
 1709TIP3    H226763   2.288   3.411   0.480  0.8168  1.4011  0.0165
 1710TIP3   OH226764   3.937   0.736   1.004 -0.0639  0.3094  0.0673
 1710TIP3    H126765   3.962   0.717   1.094 -0.9113  1.4260  0.5663
 1710TIP3    H226766   3.850   0.698   0.994  0.6978 -1.2920 -0.8412
 1711TIP3   OH226767   0.092   3.111   7.342  0.2014 -0.1612  0.4016
 1711TIP3    H126768   0.011   3.062   7.352 -0.2009  0.5313  0.5667
 1711TIP3    H226769   0.091   3.176   7.412  0.3133  0.6464 -0.3197
 1712TIP3   OH226770   4.811   6.459   7.613 -0.4082 -0.3025 -0.8613
 1712TIP3    H126771   4.792   6.552   7.621 -1.4687 -0.6054  0.7467
 1712TIP3    H226772   4.725   6.417   7.620  0.2818 -1.5055  1.2073
 1713TIP3   OH226773   2.717   2.637   1.010 -0.9402  0.1792 -0.0129
 1713TIP3    H126774   2.777   2.709   0.992  1.6657 -1.9861 -0.6010
 1713TIP3    H226775   2.685   2.611   0.923 -0.6970 -0.2977  0.0384
 1714TIP3   OH226776   1.584   4.664   8.532 -0.0918  0.5591  0.1106
 1714TIP3    H126777   1.573   4.739   8.591  2.0390  0.0715  1.2335
 1714TIP3    H226778   1.646   4.695   8.466  2.5692 -0.7575  1.8227
 1715TIP3   OH226779   3.219   5.474   0.686  0.3969  0.3241 -0.2534
 1715TIP3    H126780   3.172   5.439   0.611 -2.0519 -0.9616  1.7279
 1715TIP3    H226781   3.169   5.553   0.711  0.3722  0.0076  0.7662
 1716TIP3   OH226782   6.050   6.166   8.745 -0.7035  0.0930 -0.2103
 1716TIP3    H126783   6.145   6.157   8.754 -0.8120 -0.4704  0.5121
 1716TIP3    H226784   6.024   6.091   8.691 -0.8628 -0.3844  0.5199
 1717TIP3   OH226785   1.241   2.313   1.012 -0.5607  0.0488 -0.1052
 1717TIP3    H126786   1.315   2.333   1.069 -0.4966 -0.3492 -0.0449
 1717TIP3    H226787   1.186   2.391   1.015 -1.1886 -0.4204  1.4771
 1718TIP3   OH226788   3.011   3.451   0.957 -0.3289 -0.1878  0.4331
 1718TIP3    H126789   2.928   3.487   0.926 -0.0981 -0.6868 -0.8406
 1718TIP3    H226790   3.076   3.516   0.931 -0.0356 -0.9848 -0.9374
 1719TIP3   OH226791   4.324   6.816   0.198 -0.3733 -0.0309  0.4195
 1719TIP3    H126792   4.412   6.783   0.178 -1.2323 -2.1519 -0.0347
 1719TIP3    H226793   4.319   6.899   0.151  0.3336 -1.3374 -2.1466
 1720TIP3   OH226794   0.945   2.552   2.022 -0.4560  0.1249 -0.1441
 1720TIP3    H126795   0.964   2.474   1.970  1.5221  0.6487 -0.2916
 1720TIP3    H226796   1.026   2.603   2.019 -1.1811  1.4376  1.2636
 1721TIP3   OH226797   5.556   0.546   8.729 -0.1936  0.0701  0.6489
 1721TIP3    H126798   5.612   0.532   8.805  0.2281  0.8867  0.4993
 1721TIP3    H226799   5.561   0.463   8.681  1.7958  0.4672  0.0659
 1722TIP3   OH226800   2.836   2.038   7.594 -0.1134 -0.1110 -0.0796
 1722TIP3    H126801   2.808   1.955   7.631 -0.9649 -0.3756 -1.2600
 1722TIP3    H226802   2.828   2.100   7.666 -0.1615 -0.9040  0.6138
 1723TIP3   OH226803   5.313   6.426   1.939  0.2581  0.3817  0.2679
 1723TIP3    H126804   5.345   6.375   1.865 -0.8938  1.1084 -0.7608
 1723TIP3    H226805   5.229   6.386   1.962  0.4176  0.4084  0.9254
 1724TIP3   OH226806   6.487   3.011   8.445 -0.0350  0.3233  0.0647
 1724TIP3    H126807   6.446   2.944   8.391 -0.2312  1.0827 -0.7419
 1724TIP3    H226808   6.528   2.962   8.517 -1.7575 -0.5127  0.5391
 1725TIP3   OH226809   0.344   2.793   8.122 -0.5292  0.0268 -0.1885
 1725TIP3    H126810   0.346   2.701   8.096  1.4963 -0.5220  1.6268
 1725TIP3    H226811   0.288   2.795   8.199  1.2804 -0.1819  1.1973
 1726TIP3   OH226812   6.448   0.431   1.176  0.1843  0.3113 -0.4609
 1726TIP3    H126813   6.442   0.526   1.165  0.0075  0.5506  1.4393
 1726TIP3    H226814   6.388   0.411   1.247 -0.2409 -1.3277 -1.2427
 1727TIP3   OH226815   2.524   4.173   0.841 -0.3135 -0.0484 -0.2897
 1727TIP3    H126816   2.574   4.254   0.825 -1.1379  0.9150  1.6980
 1727TIP3    H226817   2.516   4.168   0.936  2.5839 -4.3230  0.0156
 1728TIP3   OH226818   3.627   0.516   2.332  0.2196 -0.2344  0.3847
 1728TIP3    H126819   3.594   0.605   2.343  1.2317  0.2524 -0.4009
 1728TIP3    H226820   3.721   0.527   2.316  1.0565 -1.6075  3.5430
 1729TIP3   OH226821   4.380   4.389   7.935 -0.3295 -0.3994 -0.4171
 1729TIP3    H126822   4.331   4.448   7.878 -1.9724 -1.6584 -0.3786
 1729TIP3    H226823   4.351   4.411   8.024 -1.3169 -1.5395 -0.4342
 1730TIP3   OH226824   4.935   4.765   7.809 -0.1352  0.5113  0.0459
 1730TIP3    H126825   4.873   4.812   7.753 -1.6354 -0.8610  0.4733
 1730TIP3    H226826   4.879   4.714   7.868  1.4087 -0.9490  0.3065
 1731TIP3   OH226827   0.221   5.472   1.177 -0.0903  0.7363 -0.1588
 1731TIP3    H126828   0.128   5.494   1.183 -0.4221 -0.5343 -0.3656
 1731TIP3    H226829   0.239   5.417   1.253  0.7678  1.8606  0.4729
 1732TIP3   OH226830   0.450   3.021   0.696  0.5644  0.3496  0.2567
 1732TIP3    H126831   0.507   3.004   0.621  0.7165  1.2167  0.1577
 1732TIP3    H226832   0.399   2.941   0.706  0.4049  0.2849 -0.8860
 1733TIP3   OH226833   0.410   6.106   1.521  0.2287  0.6857 -0.0288
 1733TIP3    H126834   0.354   6.029   1.517  2.0251 -0.6370 -1.0932
 1733TIP3    H226835   0.349   6.180   1.515 -1.5695 -0.5843  1.2668
 1734TIP3   OH226836   2.300   6.549   8.059 -0.1668  0.3117  0.7228
 1734TIP3    H126837   2.267   6.475   8.110 -0.1625 -0.2046 -0.0063
 1734TIP3    H226838   2.393   6.554   8.083  0.3731 -1.3149 -0.8219
 1735TIP3   OH226839   1.777   1.225   0.428 -0.0375  0.2823  0.5598
 1735TIP3    H126840   1.705   1.279   0.396 -0.9819 -0.6156  1.1214
 1735TIP3    H226841   1.774   1.146   0.374 -0.8223 -0.6705  1.9210
 1736TIP3   OH226842   3.661   0.169   2.364 -0.5014  0.2902  0.2256
 1736TIP3    H126843   3.692   0.146   2.277  1.8453 -0.3678  1.1647
 1736TIP3    H226844   3.659   0.265   2.365 -0.4053  0.3009 -0.4924
 1737TIP3   OH226845   3.677   6.113   8.767 -0.0923  0.2266 -0.8932
 1737TIP3    H126846   3.771   6.101   8.782  0.0421  0.6395 -1.3649
 1737TIP3    H226847   3.665   6.093   8.674 -0.2968  1.1499 -1.0727
 1738TIP3   OH226848   5.719   3.753   2.312 -0.0664 -0.3331 -0.5827
 1738TIP3    H126849   5.738   3.660   2.306 -1.0471 -0.4725 -1.9603
 1738TIP3    H226850   5.624   3.758   2.325  0.2224  0.4454  1.8789
 1739TIP3   OH226851   3.556   2.950   7.798 -0.2770  0.2795 -0.5281
 1739TIP3    H126852   3.640   2.961   7.841 -0.5344  0.4913 -0.0707
 1739TIP3    H226853   3.493   2.992   7.857 -0.9349 -1.3400 -0.0276
 1740TIP3   OH226854   2.414   3.486   7.802  0.0372 -0.0770  0.3057
 1740TIP3    H126855   2.324   3.502   7.773  0.5476  0.4238 -1.0615
 1740TIP3    H226856   2.442   3.569   7.840  0.9530  0.8178 -2.1459
 1741TIP3   OH226857   1.317   0.701   7.138  0.2402 -0.5217  0.3087
 1741TIP3    H126858   1.388   0.658   7.089  0.3508 -1.1647  1.0124
 1741TIP3    H226859   1.359   0.735   7.217 -0.2586 -1.1130  0.8448
 1742TIP3   OH226860   2.264   1.287   1.448 -0.3891 -0.1237 -0.1947
 1742TIP3    H126861   2.193   1.242   1.493 -0.3261 -0.7949 -0.7507
 1742TIP3    H226862   2.308   1.338   1.517 -0.9672 -0.2609  0.2811
 1743TIP3   OH226863   3.181   3.752   0.103 -0.3497 -0.5629  0.0508
 1743TIP3    H126864   3.249   3.801   0.148 -0.3251 -0.1665 -0.4060
 1743TIP3    H226865   3.228   3.700   0.037 -0.4294 -0.7546  0.1455
 1744TIP3   OH226866   0.885   6.122   1.402  0.1159 -0.4349  0.2780
 1744TIP3    H126867   0.802   6.171   1.408  0.7502  0.8613 -0.9656
 1744TIP3    H226868   0.871   6.061   1.330 -0.9617 -2.7945  2.3360
 1745TIP3   OH226869   1.103   3.258   7.949 -0.1061 -0.6994  0.1284
 1745TIP3    H126870   1.126   3.243   8.041 -2.7166 -0.0176  1.0037
 1745TIP3    H226871   1.019   3.212   7.938 -0.9260  0.9899 -1.2558
 1746TIP3   OH226872   6.375   4.678   0.453  0.4476  0.1002  0.3654
 1746TIP3    H126873   6.401   4.595   0.495 -1.4369 -1.4795 -1.3517
 1746TIP3    H226874   6.281   4.670   0.441  0.2726  2.3661 -0.2337
 1747TIP3   OH226875   4.662   2.727   7.148  0.1248  0.0613  0.4829
 1747TIP3    H126876   4.717   2.649   7.133  0.2763  0.3248 -0.4073
 1747TIP3    H226877   4.681   2.784   7.073 -0.5173  0.6484  0.7599
 1748TIP3   OH226878   0.622   4.988   2.148  0.1125 -0.1489 -0.7053
 1748TIP3    H126879   0.623   4.915   2.210 -1.4388 -1.2838 -1.9373
 1748TIP3    H226880   0.698   5.041   2.173 -0.2059 -0.7653  1.8681
 1749TIP3   OH226881   6.614   5.191   6.877  0.0801 -0.1222  0.2685
 1749TIP3    H126882   6.690   5.154   6.831  0.3059 -0.2700  0.7543
 1749TIP3    H226883   6.651   5.259   6.933 -0.4167  1.3945 -1.1683
 1750TIP3   OH226884   1.203   3.917   1.331  0.2625  0.0816 -0.3446
 1750TIP3    H126885   1.247   3.918   1.416  0.2276 -1.1376 -0.2946
 1750TIP3    H226886   1.274   3.927   1.267  0.2708  1.1761 -0.1850
 1751TIP3   OH226887   0.740   0.604   0.860 -0.1862 -0.2625 -0.2542
 1751TIP3    H126888   0.808   0.631   0.798 -0.9754 -0.0155 -1.0419
 1751TIP3    H226889   0.755   0.511   0.874 -0.3327 -0.4519 -1.2771
 1752TIP3   OH226890   3.789   3.494   1.747  0.7211  0.1982  0.0744
 1752TIP3    H126891   3.749   3.461   1.827  2.2107  0.8288  1.1239
 1752TIP3    H226892   3.763   3.586   1.744  1.6595  0.4936  0.5203
 1753TIP3   OH226893   6.515   3.774   7.365 -0.5002 -0.0815 -0.2553
 1753TIP3    H126894   6.610   3.773   7.350 -0.6802 -1.1768 -1.4718
 1753TIP3    H226895   6.500   3.856   7.411  1.4247 -1.1902  2.6528
 1754TIP3   OH226896   4.902   3.931   7.926  0.3772 -0.2979 -0.9774
 1754TIP3    H126897   4.933   4.012   7.967 -0.5076 -1.0423  1.3565
 1754TIP3    H226898   4.966   3.913   7.857  1.8236  1.2316 -0.1134
 1755TIP3   OH226899   1.019   0.850   6.440 -0.2561 -0.7629  0.0308
 1755TIP3    H126900   0.926   0.874   6.445 -0.3292 -0.3875 -2.1451
 1755TIP3    H226901   1.063   0.911   6.499 -1.2351 -0.0156  0.0215
 1756TIP3   OH226902   5.287   2.884   1.309  0.6374 -0.2516 -0.0299
 1756TIP3    H126903   5.195   2.903   1.322  0.5426 -0.1949 -0.7336
 1756TIP3    H226904   5.328   2.970   1.299  1.3204 -0.0338  3.4651
 1757TIP3   OH226905   0.459   2.722   6.957  0.2362  0.4705 -0.0138
 1757TIP3    H126906   0.550   2.729   6.984  0.7564  1.1347 -1.8243
 1757TIP3    H226907   0.441   2.628   6.956  0.4081  0.3905  1.8038
 1758TIP3   OH226908   1.259   3.462   0.091  0.0517 -0.0663 -0.2023
 1758TIP3    H126909   1.250   3.500   0.178 -1.7316 -1.5523  0.3309
 1758TIP3    H226910   1.218   3.525   0.032 -2.9868 -1.0759  0.6804
 1759TIP3   OH226911   2.090   5.316   8.697 -0.1549  0.6669  0.4355
 1759TIP3    H126912   2.007   5.277   8.668  0.5937 -1.9427  1.4536
 1759TIP3    H226913   2.100   5.284   8.787  1.6938  1.3765  0.5123
 1760TIP3   OH226914   5.855   3.277   0.767 -0.2712  0.6692  0.5280
 1760TIP3    H126915   5.919   3.232   0.823 -2.4347 -1.6769  1.3184
 1760TIP3    H226916   5.848   3.365   0.805  4.1402  2.0375 -1.0925
 1761TIP3   OH226917   4.947   5.525   8.486  0.2122  0.1621 -0.1394
 1761TIP3    H126918   4.988   5.576   8.556 -1.9574  2.0628 -0.1356
 1761TIP3    H226919   5.002   5.542   8.410  1.2828 -0.0370  0.5645
 1762TIP3   OH226920   3.893   0.390   7.700 -0.9544 -0.1109  0.2989
 1762TIP3    H126921   3.873   0.483   7.704 -2.2477 -0.3731  0.5795
 1762TIP3    H226922   3.888   0.367   7.608 -2.1363 -0.1793  0.3612
 1763TIP3   OH226923   2.189   1.644   6.433 -0.1244  0.4510  0.2833
 1763TIP3    H126924   2.269   1.694   6.416  0.3516 -0.6483 -0.9331
 1763TIP3    H226925   2.144   1.642   6.348 -0.9134  0.1765  0.7025
 1764TIP3   OH226926   4.437   0.731   8.018 -0.2169 -0.1606  0.3972
 1764TIP3    H126927   4.497   0.746   7.945  1.1520 -0.5027  1.4137
 1764TIP3    H226928   4.373   0.668   7.984 -0.5111  0.8308 -0.9637
 1765TIP3   OH226929   1.509   2.706   1.537  0.1570 -0.3751 -0.5424
 1765TIP3    H126930   1.445   2.774   1.517 -0.8867 -1.0163  0.4889
 1765TIP3    H226931   1.473   2.662   1.614  1.3766 -1.3613 -0.5194
 1766TIP3   OH226932   0.463   6.541   7.053 -0.1722 -0.0132  0.2773
 1766TIP3    H126933   0.479   6.484   7.128  0.7808 -1.1480 -0.7403
 1766TIP3    H226934   0.540   6.528   6.997  0.3053  2.6331  0.2076
 1767TIP3   OH226935   4.037   3.428   8.761 -0.0873 -0.2535  0.4791
 1767TIP3    H126936   4.113   3.389   8.803 -0.0561 -1.3263 -0.5147
 1767TIP3    H226937   4.051   3.522   8.767  0.3686 -0.3953  1.9848
 1768TIP3   OH226938   5.337   1.162   8.410 -0.5166 -0.7115  0.5093
 1768TIP3    H126939   5.399   1.119   8.351 -0.3945 -2.2199  1.6851
 1768TIP3    H226940   5.364   1.254   8.409  0.2497 -0.9143 -0.8086
 1769TIP3   OH226941   4.134   6.510   7.941  0.6843 -0.4170 -0.0394
 1769TIP3    H126942   4.175   6.477   7.861  2.2966  0.5999  0.3057
 1769TIP3    H226943   4.046   6.536   7.914  0.8728 -0.9754 -1.2667
 1770TIP3   OH226944   0.088   6.457   8.177 -0.1357  0.4350 -0.8621
 1770TIP3    H126945   0.119   6.392   8.114  0.7007 -0.0052 -0.0319
 1770TIP3    H226946   0.168   6.495   8.214 -0.6106  1.7369 -1.1145
 1771TIP3   OH226947   3.659   5.927   2.003 -0.1467  1.1890 -0.0562
 1771TIP3    H126948   3.623   5.986   2.069  0.0519  0.0909  1.0730
 1771TIP3    H226949   3.656   5.841   2.044  0.9272  0.6220 -1.1093
 1772TIP3   OH226950   2.793   0.887   0.376  0.1902  0.2026 -0.5050
 1772TIP3    H126951   2.769   0.979   0.379  0.9844  0.4715 -1.6301
 1772TIP3    H226952   2.876   0.882   0.423 -0.2335 -0.0909  0.2332
 1773TIP3   OH226953   2.423   0.879   0.569 -0.2801  0.0970 -0.0934
 1773TIP3    H126954   2.397   0.789   0.554  2.5077 -0.5299 -2.0899
 1773TIP3    H226955   2.506   0.873   0.617 -0.6436  1.6507  0.8077
 1774TIP3   OH226956   0.731   0.898   0.922  0.8647  0.3671 -0.2592
 1774TIP3    H126957   0.659   0.918   0.982  0.9061  3.2081 -1.0193
 1774TIP3    H226958   0.710   0.811   0.889 -2.0168  0.8882 -0.1214
 1775TIP3   OH226959   6.433   5.196   7.662 -0.3505  0.3431 -0.4889
 1775TIP3    H126960   6.429   5.262   7.592 -0.3611  0.6787 -0.1725
 1775TIP3    H226961   6.470   5.243   7.737 -0.7036  0.0836 -0.1528
 1776TIP3   OH226962   1.453   2.945   0.394 -0.7414  0.0822  0.3868
 1776TIP3    H126963   1.481   3.023   0.441  0.8096  0.1699 -0.5998
 1776TIP3    H226964   1.388   2.977   0.331 -1.2585  0.3066  1.0277
 1777TIP3   OH226965   5.791   2.569   0.176 -0.3183  0.8485  0.3514
 1777TIP3    H126966   5.794   2.567   0.271  1.0247 -1.4217  0.3315
 1777TIP3    H226967   5.708   2.526   0.153 -0.1502  0.4259  0.5161
 1778TIP3   OH226968   0.180   3.007   6.905  0.1774 -0.2209  0.3744
 1778TIP3    H126969   0.090   2.983   6.883  0.6110 -2.1698  0.5545
 1778TIP3    H226970   0.199   2.957   6.984  2.0092 -1.3615 -0.7087
 1779TIP3   OH226971   3.547   0.621   8.371 -0.3678  0.1394 -0.2091
 1779TIP3    H126972   3.476   0.655   8.316 -0.0231  0.1771 -0.6289
 1779TIP3    H226973   3.622   0.615   8.312  0.5397  1.9576  0.6939
 1780TIP3   OH226974   5.724   0.971   7.709  0.7336  0.2077  0.6011
 1780TIP3    H126975   5.690   0.922   7.784  0.9695  0.1471  0.6716
 1780TIP3    H226976   5.646   1.003   7.664  0.5825  2.0404  2.0452
 1781TIP3   OH226977   3.422   2.056   0.229  0.3576 -0.5811 -0.1830
 1781TIP3    H126978   3.439   1.963   0.244 -0.5134 -0.4968  1.6316
 1781TIP3    H226979   3.380   2.059   0.144  0.4329 -1.8520 -0.2916
 1782TIP3   OH226980   6.336   5.403   8.174 -0.2768 -0.1423  0.1536
 1782TIP3    H126981   6.401   5.429   8.108  0.0675 -2.6838 -0.6353
 1782TIP3    H226982   6.386   5.396   8.255  0.1976 -0.8627 -0.1888
 1783TIP3   OH226983   6.395   3.622   1.245 -0.4093  0.2866 -0.2788
 1783TIP3    H126984   6.486   3.593   1.239 -0.8797 -1.7946  1.3422
 1783TIP3    H226985   6.399   3.698   1.304  0.3082  0.3593 -0.4090
 1784TIP3   OH226986   3.759   5.359   8.224  0.3019 -0.1969 -0.3387
 1784TIP3    H126987   3.774   5.374   8.318  2.0492 -0.4042 -0.5574
 1784TIP3    H226988   3.726   5.443   8.192  1.3209  0.4129  0.1556
 1785TIP3   OH226989   0.240   4.001   6.756 -0.2066 -0.2552 -0.1949
 1785TIP3    H126990   0.215   3.952   6.678 -0.1559 -0.1840 -0.2563
 1785TIP3    H226991   0.165   4.057   6.775 -0.1803 -0.2031 -0.2480
 1786TIP3   OH226992   1.777   3.725   0.426 -0.5356  0.3687  0.9268
 1786TIP3    H126993   1.826   3.643   0.422 -1.0206  0.1144 -0.3183
 1786TIP3    H226994   1.842   3.790   0.452  0.2833 -0.1080  0.1434
 1787TIP3   OH226995   1.993   2.844   8.675  0.0282  0.3210  0.2061
 1787TIP3    H126996   2.041   2.778   8.725 -1.1646  0.0797  1.0825
 1787TIP3    H226997   1.904   2.808   8.668 -0.0808  0.8125 -1.2470
 1788TIP3   OH226998   2.668   0.316   0.327  0.8631 -0.2718 -0.0556
 1788TIP3    H126999   2.719   0.395   0.310  1.4754 -0.6744 -0.0969
 1788TIP3    H227000   2.591   0.347   0.376  1.5481  0.2292  0.7238
 1789TIP3   OH227001   5.887   3.866   0.522 -0.2083  0.7427  0.1049
 1789TIP3    H127002   5.902   3.772   0.531 -2.1092  0.5242  1.7405
 1789TIP3    H227003   5.975   3.905   0.521  0.5970 -0.8852  1.6088
 1790TIP3   OH227004   2.141   5.012   1.604 -0.5503  0.5291 -0.4694
 1790TIP3    H127005   2.117   5.006   1.696  2.0395 -2.6799  0.1812
 1790TIP3    H227006   2.128   4.923   1.570 -2.0817  1.7335 -3.5022
 1791TIP3   OH227007   4.031   0.101   2.089  0.1832  1.0807 -0.5268
 1791TIP3    H127008   4.059   0.192   2.097  0.5819  0.9264 -0.1655
 1791TIP3    H227009   4.106   0.050   2.118 -0.5158  0.6685  0.5936
 1792TIP3   OH227010   0.662   6.557   8.233 -0.5093  0.8163 -0.9951
 1792TIP3    H127011   0.688   6.566   8.324  0.0005  1.3805 -1.1833
 1792TIP3    H227012   0.697   6.472   8.206 -0.0412  0.9630 -0.8599
 1793TIP3   OH227013   5.891   0.083   7.191 -0.1179 -0.3589 -0.2332
 1793TIP3    H127014   5.946   0.101   7.114 -1.7033 -2.3085 -1.9389
 1793TIP3    H227015   5.824   0.152   7.189  1.7053  1.5899  1.4349
 1794TIP3   OH227016   0.305   0.169   0.401  0.2713 -0.5150  0.5351
 1794TIP3    H127017   0.297   0.178   0.307 -0.9941 -1.5633  0.5171
 1794TIP3    H227018   0.253   0.091   0.423  1.9456 -1.3302  1.8747
 1795TIP3   OH227019   1.420   5.784   7.295  0.4376 -0.3025  0.0711
 1795TIP3    H127020   1.502   5.795   7.247  0.0128 -0.9909 -0.8494
 1795TIP3    H227021   1.357   5.757   7.228 -0.9350  1.7039  0.4539
 1796TIP3   OH227022   1.659   5.788   0.107 -0.7042 -0.4121 -0.4918
 1796TIP3    H127023   1.657   5.879   0.136  1.1670 -1.1912  2.5793
 1796TIP3    H227024   1.572   5.755   0.126 -0.5247  0.0222  1.3325
 1797TIP3   OH227025   4.949   2.720   0.528 -0.2879 -0.0837 -0.2908
 1797TIP3    H127026   4.916   2.797   0.575 -0.4605 -0.1088 -0.3716
 1797TIP3    H227027   5.040   2.713   0.556 -0.7703 -0.9619  1.2053
 1798TIP3   OH227028   0.458   4.347   0.305  0.2684  0.1137 -0.4278
 1798TIP3    H127029   0.481   4.422   0.251  3.6241  0.3408  1.0317
 1798TIP3    H227030   0.533   4.289   0.298 -1.5914 -2.4412 -0.2999
 1799TIP3   OH227031   6.582   0.647   2.452  0.1812  0.5432  0.2222
 1799TIP3    H127032   6.560   0.601   2.371 -0.5707  1.2098  0.0391
 1799TIP3    H227033   6.523   0.611   2.518  0.2083  0.6106  0.2837
 1800TIP3   OH227034   2.659   5.433   7.599 -0.3170 -0.3336  0.7868
 1800TIP3    H127035   2.725   5.363   7.605 -1.0869 -1.0058  2.2672
 1800TIP3    H227036   2.591   5.397   7.542  0.5959  0.3849 -0.7905
 1801TIP3   OH227037   5.904   3.104   7.679  0.1996  0.0982  0.0584
 1801TIP3    H127038   5.860   3.185   7.704  1.0542  0.7529 -0.4801
 1801TIP3    H227039   5.871   3.084   7.592  1.6332  1.1317 -0.7675
 1802TIP3   OH227040   2.012   2.100   1.776 -0.3027 -0.1046  0.0461
 1802TIP3    H127041   2.007   2.005   1.786  1.1246 -0.1247  0.9514
 1802TIP3    H227042   1.971   2.135   1.854  1.6085 -0.0622  1.0866
 1803TIP3   OH227043   3.253   3.651   8.170  0.1671  0.0073 -0.2205
 1803TIP3    H127044   3.251   3.693   8.256  0.2082 -1.2499  0.4270
 1803TIP3    H227045   3.190   3.699   8.117 -1.6558 -0.6569  1.2357
 1804TIP3   OH227046   0.386   5.919   7.894 -0.2833  0.2671  0.6318
 1804TIP3    H127047   0.383   5.887   7.984  0.0849  1.0608  0.9318
 1804TIP3    H227048   0.352   5.846   7.842 -1.2877  0.0981  1.4853
 1805TIP3   OH227049   6.808   2.215   8.258  0.1799  0.3022  0.5946
 1805TIP3    H127050   6.794   2.132   8.212 -0.3310  1.1297 -0.8227
 1805TIP3    H227051   6.899   2.238   8.239  0.0070  0.5799  0.0706
 1806TIP3   OH227052   6.822   3.990   0.683 -0.1651 -0.3763 -0.3860
 1806TIP3    H127053   6.790   3.990   0.593 -1.1756  1.8415 -0.0806
 1806TIP3    H227054   6.749   4.022   0.735  1.1354  0.6167  0.9207
 1807TIP3   OH227055   1.941   2.852   0.626 -0.0203 -0.2625 -0.1042
 1807TIP3    H127056   1.922   2.779   0.567 -1.4503  0.7238 -0.9485
 1807TIP3    H227057   1.902   2.928   0.582  1.1673  0.9636  0.8767
 1808TIP3   OH227058   0.469   3.589   1.615 -0.3977  0.3110 -0.1452
 1808TIP3    H127059   0.441   3.570   1.704 -1.0108  1.0458 -0.1661
 1808TIP3    H227060   0.476   3.685   1.612  0.0347  0.2665 -0.7638
 1809TIP3   OH227061   2.090   6.656   0.477 -0.0442 -0.3893  0.3754
 1809TIP3    H127062   2.115   6.665   0.385  0.8975  2.7478  0.8162
 1809TIP3    H227063   2.001   6.620   0.473  0.2615 -1.0712 -1.7230
 1810TIP3   OH227064   4.314   0.745   0.026 -0.4040  0.1091 -0.9965
 1810TIP3    H127065   4.331   0.823   0.078  0.0159  0.1011 -1.1171
 1810TIP3    H227066   4.346   0.672   0.079 -1.9243 -0.1218 -0.3354
 1811TIP3   OH227067   3.655   2.206   2.526 -0.1650 -0.2583 -0.2487
 1811TIP3    H127068   3.746   2.206   2.496 -0.9333  1.1326 -2.8380
 1811TIP3    H227069   3.651   2.277   2.590  0.6328 -0.6391  0.2477
 1812TIP3   OH227070   2.900   3.751   7.948  1.0114 -0.5028 -0.0743
 1812TIP3    H127071   2.958   3.827   7.954 -0.6150  0.6653  1.9567
 1812TIP3    H227072   2.829   3.770   8.008 -0.4977 -2.7751 -1.0113
 1813TIP3   OH227073   0.531   3.358   6.649  0.4850  0.5857  0.3228
 1813TIP3    H127074   0.453   3.303   6.645  0.0642  1.1595  0.5558
 1813TIP3    H227075   0.604   3.296   6.641  0.0791 -0.1817  2.0563
 1814TIP3   OH227076   6.302   0.866   0.111  0.3017 -0.5394 -0.2727
 1814TIP3    H127077   6.303   0.771   0.124 -0.5037 -0.3390  1.5568
 1814TIP3    H227078   6.214   0.893   0.139  0.5487  0.7563 -0.6883
 1815TIP3   OH227079   5.399   3.382   7.970  0.2844 -0.3461 -0.1855
 1815TIP3    H127080   5.451   3.386   8.051 -0.7478 -0.3846  0.5019
 1815TIP3    H227081   5.419   3.297   7.933  1.9111  0.2518 -0.7812
 1816TIP3   OH227082   1.424   5.929   8.599  0.0957 -0.0111 -0.1655
 1816TIP3    H127083   1.478   5.987   8.651 -1.7070  2.1745 -0.5652
 1816TIP3    H227084   1.417   5.849   8.651  1.2618  0.7488  1.2177
 1817TIP3   OH227085   2.907   3.176   0.893 -0.3049 -0.1624 -0.5711
 1817TIP3    H127086   2.959   3.255   0.908 -1.0079  0.2944 -0.4491
 1817TIP3    H227087   2.820   3.199   0.925 -0.4516 -1.0895 -0.2818
 1818TIP3   OH227088   0.062   3.715   1.587  0.4418  0.7884  0.1700
 1818TIP3    H127089  -0.005   3.737   1.652 -0.4723  2.0260 -1.1424
 1818TIP3    H227090   0.057   3.620   1.579  1.5116  0.3981  2.8427
 1819TIP3   OH227091   2.946   0.246   0.421  1.0671 -0.1605  0.1512
 1819TIP3    H127092   2.858   0.263   0.455  1.7628 -0.8778  2.4794
 1819TIP3    H227093   2.932   0.229   0.328 -1.2916 -0.5329  0.4961
 1820TIP3   OH227094   0.717   2.056   2.166 -0.4624 -0.5240  0.3066
 1820TIP3    H127095   0.724   2.020   2.254 -1.4933 -2.5730 -0.3879
 1820TIP3    H227096   0.802   2.039   2.126 -0.9498 -2.3585 -0.0283
 1821TIP3   OH227097   0.052   2.822   7.614  0.3192  0.7570 -0.6699
 1821TIP3    H127098   0.029   2.756   7.679  1.9703  0.5580 -0.2303
 1821TIP3    H227099  -0.009   2.807   7.542 -0.3370 -0.2333  0.0658
 1822TIP3   OH227100   6.833   6.820   6.206  0.1931  0.8779 -0.1655
 1822TIP3    H127101   6.787   6.739   6.228 -0.1631  1.1178 -0.0024
 1822TIP3    H227102   6.764   6.887   6.206  0.5011  1.1993 -0.1853
 1823TIP3   OH227103   6.103   6.615   1.051  0.3470 -0.8901  0.3792
 1823TIP3    H127104   6.191   6.640   1.022  0.4908 -0.3458  1.2508
 1823TIP3    H227105   6.116   6.536   1.104  0.1172 -1.7277 -0.7903
 1824TIP3   OH227106   4.965   3.416   8.301  0.0548 -0.1202 -0.7473
 1824TIP3    H127107   4.929   3.327   8.308 -0.8854  0.2839 -0.1810
 1824TIP3    H227108   5.041   3.407   8.244  1.9051 -1.8736  1.7552
 1825TIP3   OH227109   1.178   4.063   6.831  0.3740 -0.0249  0.0863
 1825TIP3    H127110   1.093   4.106   6.840  0.7439  0.8975 -0.6704
 1825TIP3    H227111   1.174   4.019   6.746  0.8541  0.5205 -0.2295
 1826TIP3   OH227112   6.785   3.890   7.597  0.0114  0.6284  0.0197
 1826TIP3    H127113   6.707   3.935   7.630 -0.7187  0.1275 -0.9525
 1826TIP3    H227114   6.835   3.867   7.675 -1.2006  0.3009  0.7271
 1827TIP3   OH227115   3.954   0.121   8.760 -0.4663 -0.1797  0.0747
 1827TIP3    H127116   3.948   0.093   8.669 -2.7918 -0.3300  0.2154
 1827TIP3    H227117   3.871   0.167   8.777 -0.2304 -0.4267  2.1838
 1828TIP3   OH227118   5.588   4.947   1.105 -0.1513  0.2406  0.3921
 1828TIP3    H127119   5.564   4.905   1.022  1.5870 -0.8441  0.3727
 1828TIP3    H227120   5.598   5.039   1.083 -1.5100  0.2687 -0.1774
 1829TIP3   OH227121   1.003   5.783   8.798  0.4258 -0.0421  0.2492
 1829TIP3    H127122   0.937   5.851   8.783  0.6062 -0.1239 -1.0319
 1829TIP3    H227123   1.068   5.798   8.730  1.6916 -0.0385  1.4112
 1830TIP3   OH227124   5.730   6.564   6.389 -0.3136  0.1807  0.2292
 1830TIP3    H127125   5.655   6.506   6.379 -0.4334  0.1028  1.4680
 1830TIP3    H227126   5.775   6.531   6.467 -0.0944  1.4335  0.6442
 1831TIP3   OH227127   2.939   3.115   7.030 -0.6795 -0.0331 -0.0593
 1831TIP3    H127128   3.000   3.096   7.101 -0.4560  0.4572 -0.1094
 1831TIP3    H227129   2.871   3.169   7.070 -0.6078  0.1581 -0.1907
 1832TIP3   OH227130   2.901   0.592   7.999 -0.0231 -0.4825  0.2316
 1832TIP3    H127131   2.842   0.578   8.074  0.0751  0.1317  0.4343
 1832TIP3    H227132   2.844   0.620   7.928 -0.3321 -2.6008 -0.4257
 1833TIP3   OH227133   0.781   0.745   8.020 -0.2860  0.3093 -1.0048
 1833TIP3    H127134   0.735   0.820   8.057  0.8398  0.7220 -0.3836
 1833TIP3    H227135   0.713   0.695   7.974 -1.3648  0.8120 -0.0115
 1834TIP3   OH227136   4.698   3.810   0.183  0.4957  0.4503 -0.5188
 1834TIP3    H127137   4.609   3.824   0.216  0.8687  0.2563  0.6164
 1834TIP3    H227138   4.698   3.720   0.151  0.7093 -0.1161  0.9903
 1835TIP3   OH227139   2.920   1.789   7.362 -0.0027 -0.0350  0.1166
 1835TIP3    H127140   2.914   1.876   7.403 -1.8914 -0.8676  1.7636
 1835TIP3    H227141   3.013   1.767   7.365  0.2150  0.9920  1.7496
 1836TIP3   OH227142   0.461   3.895   1.237  0.1064  0.7119 -0.0729
 1836TIP3    H127143   0.461   3.853   1.151  2.0305 -2.0229  1.1381
 1836TIP3    H227144   0.420   3.831   1.295  1.6396  1.1514  1.5810
 1837TIP3   OH227145   6.233   2.807   8.313  0.0305 -0.0411  0.0699
 1837TIP3    H127146   6.158   2.866   8.309  0.2616  0.2073 -0.7003
 1837TIP3    H227147   6.200   2.729   8.357 -0.7818 -0.0752 -0.5860
 1838TIP3   OH227148   1.612   6.618   1.378  0.0129  0.4367 -0.7548
 1838TIP3    H127149   1.584   6.707   1.400 -1.0239  0.4198 -1.8920
 1838TIP3    H227150   1.591   6.566   1.455 -0.4892  0.9531 -0.5400
 1839TIP3   OH227151   2.696   1.571   1.769  0.7671  0.6092 -0.3315
 1839TIP3    H127152   2.606   1.605   1.779  1.2780  2.4064 -1.3406
 1839TIP3    H227153   2.687   1.496   1.711 -0.0890  0.7543 -0.4060
 1840TIP3   OH227154   3.326   0.718   0.020  0.6215 -0.1003  0.1664
 1840TIP3    H127155   3.415   0.688   0.041  1.6282  2.0373 -0.8334
 1840TIP3    H227156   3.307   0.681  -0.066  0.4507 -0.7030  0.4569
 1841TIP3   OH227157   0.597   4.096   1.628  0.5648  0.1611 -0.0655
 1841TIP3    H127158   0.562   4.178   1.664 -1.0671  0.2307 -1.6871
 1841TIP3    H227159   0.690   4.115   1.612 -0.0029  2.0940 -1.4318
 1842TIP3   OH227160   2.262   6.314   0.209 -0.0126 -0.3461 -0.2967
 1842TIP3    H127161   2.270   6.329   0.303  0.2543  1.8132 -0.6209
 1842TIP3    H227162   2.313   6.235   0.193  0.5069 -0.3521  1.2608
 1843TIP3   OH227163   3.188   1.949   1.910 -0.0750  0.1181 -0.5574
 1843TIP3    H127164   3.124   1.950   1.981  1.4077 -1.2362  0.8826
 1843TIP3    H227165   3.253   2.013   1.935  0.7521 -0.7673 -0.3833
 1844TIP3   OH227166   5.000   0.469   0.054 -0.1790  0.0766 -0.1112
 1844TIP3    H127167   4.971   0.446   0.142  1.0198 -0.3182  0.1976
 1844TIP3    H227168   4.964   0.401  -0.002  0.1885 -0.4362  0.2685
 1845TIP3   OH227169   4.653   0.508   0.054 -0.0182  0.1004  0.1827
 1845TIP3    H127170   4.712   0.450   0.103 -0.6298 -0.1884  0.6020
 1845TIP3    H227171   4.650   0.470  -0.034  1.6518  1.0346 -0.3229
 1846TIP3   OH227172   4.573   3.391   8.498  0.6222  0.1133  0.2561
 1846TIP3    H127173   4.527   3.413   8.580 -1.3733 -0.1093 -0.7498
 1846TIP3    H227174   4.571   3.473   8.448  2.5750  0.4857  0.7016
 1847TIP3   OH227175   2.515   2.026   7.866  0.3622  0.3456  0.6672
 1847TIP3    H127176   2.533   1.945   7.818 -0.3679  0.4788  0.1515
 1847TIP3    H227177   2.587   2.084   7.841 -0.0848  0.4666 -0.4147
 1848TIP3   OH227178   5.893   2.391   1.449  0.0689  0.2209 -0.1041
 1848TIP3    H127179   5.954   2.347   1.390 -0.1746  0.5548 -0.6101
 1848TIP3    H227180   5.925   2.370   1.537  2.2094  2.1617 -0.3175
 1849TIP3   OH227181   6.847   2.135   1.803  0.1158  0.3044 -0.0435
 1849TIP3    H127182   6.859   2.154   1.896  1.3632  0.5487 -0.2350
 1849TIP3    H227183   6.928   2.167   1.762 -0.2545 -0.1579 -1.1543
 1850TIP3   OH227184   0.065   1.710   2.414  0.6043 -0.1606  0.4392
 1850TIP3    H127185   0.076   1.805   2.402  0.9303 -0.0819  1.2866
 1850TIP3    H227186   0.146   1.672   2.380  0.5145 -0.1348  0.1901
 1851TIP3   OH227187   5.443   2.173   8.325  0.2132  0.5121 -0.0809
 1851TIP3    H127188   5.483   2.162   8.239 -1.7482 -0.1814 -0.9645
 1851TIP3    H227189   5.448   2.086   8.365 -1.3435  0.1021 -0.6816
 1852TIP3   OH227190   6.181   0.117   7.786  0.6993 -0.2070  0.3677
 1852TIP3    H127191   6.142   0.136   7.872  0.1901 -2.7236  0.7492
 1852TIP3    H227192   6.127   0.047   7.750  0.9099  0.7751 -2.0615
 1853TIP3   OH227193   5.696   4.956   7.000 -0.6414 -0.5585  0.3490
 1853TIP3    H127194   5.638   4.968   6.925 -0.8754  2.4240  0.8669
 1853TIP3    H227195   5.657   4.883   7.049 -1.7127 -1.1492 -1.3055
 1854TIP3   OH227196   5.223   3.629   0.718  0.4773  0.6126 -0.0429
 1854TIP3    H127197   5.176   3.707   0.746 -0.5962 -0.3017  0.7868
 1854TIP3    H227198   5.171   3.594   0.647  0.4202  0.1151  0.2423
 1855TIP3   OH227199   5.971   2.866   7.161 -0.0657 -0.4292  0.4632
 1855TIP3    H127200   5.953   2.836   7.072  3.4278  1.3976 -1.0723
 1855TIP3    H227201   6.055   2.827   7.183  0.1118  0.7799  2.1210
 1856TIP3   OH227202   2.158   0.559   2.392  0.2860 -0.0115  0.0622
 1856TIP3    H127203   2.220   0.555   2.319 -0.9996 -0.6333 -1.0168
 1856TIP3    H227204   2.121   0.647   2.386  0.5827  0.1352  0.3236
 1857TIP3   OH227205   3.442   5.902   0.627  0.1280 -0.4243 -0.3453
 1857TIP3    H127206   3.425   5.826   0.684 -0.3920 -0.8695 -1.0767
 1857TIP3    H227207   3.492   5.866   0.554 -0.0102 -0.0389 -0.6304
 1858TIP3   OH227208   0.406   0.497   6.537 -0.3418  0.5729  0.2123
 1858TIP3    H127209   0.406   0.542   6.621 -0.8283  2.2520 -0.6336
 1858TIP3    H227210   0.315   0.470   6.524 -0.0506 -0.7664  0.7250
 1859TIP3   OH227211   3.831   0.375   7.424 -0.2559 -0.6953  0.4797
 1859TIP3    H127212   3.851   0.321   7.347 -0.9746 -1.1320  0.5821
 1859TIP3    H227213   3.735   0.377   7.426 -0.3307  2.3566 -0.7490
 1860TIP3   OH227214   1.851   3.617   2.143 -0.4108  0.3923 -0.3096
 1860TIP3    H127215   1.929   3.574   2.177 -0.0589  1.9991  1.0585
 1860TIP3    H227216   1.875   3.643   2.054  0.5777  0.7432  0.0466
 1861TIP3   OH227217   2.248   4.591   7.094  0.0983  0.3476 -0.1323
 1861TIP3    H127218   2.235   4.670   7.146 -2.0461 -0.0430  0.0012
 1861TIP3    H227219   2.169   4.539   7.108  1.5327 -1.9518 -0.0463
 1862TIP3   OH227220   4.238   3.387   0.121  0.0081  0.1252 -0.1258
 1862TIP3    H127221   4.181   3.381   0.197 -1.0464 -0.2975 -0.9161
 1862TIP3    H227222   4.279   3.301   0.115  0.2431  0.2232  0.0803
 1863TIP3   OH227223   0.034   0.302   7.016  0.3342 -0.5808  0.3020
 1863TIP3    H127224   0.013   0.209   7.005  1.7154 -0.7643 -1.1311
 1863TIP3    H227225   0.129   0.304   7.026  0.2250  0.6213  1.3704
 1864TIP3   OH227226   5.674   4.112   6.881 -0.2088  0.6823  0.0437
 1864TIP3    H127227   5.732   4.045   6.843  0.5408  1.5882 -0.4784
 1864TIP3    H227228   5.720   4.194   6.865 -1.9739  1.5202 -1.0367
 1865TIP3   OH227229   0.322   6.019   1.020 -0.2561  0.0994  0.7520
 1865TIP3    H127230   0.374   6.079   1.073 -0.7981  0.7634  0.5577
 1865TIP3    H227231   0.277   5.964   1.083  0.0550  0.0567  0.9417
 1866TIP3   OH227232   3.193   6.368   1.435  0.0445 -0.1430 -0.4535
 1866TIP3    H127233   3.245   6.346   1.511 -0.2183  0.0646 -0.2124
 1866TIP3    H227234   3.223   6.307   1.367  0.3011 -0.3050 -0.1964
 1867TIP3   OH227235   1.890   4.557   6.715 -0.2016  0.2052 -0.1619
 1867TIP3    H127236   1.832   4.523   6.647 -1.1414  0.1961  0.6055
 1867TIP3    H227237   1.947   4.484   6.738  0.0349  0.1743 -0.8503
 1868TIP3   OH227238   6.058   4.533   7.563  0.2497 -1.0893 -0.5901
 1868TIP3    H127239   5.963   4.528   7.556  0.2259 -0.7024 -0.5374
 1868TIP3    H227240   6.075   4.548   7.656  0.2870  0.5168 -0.8282
 1869TIP3   OH227241   3.671   1.721   1.301 -0.3275  0.3424 -0.0496
 1869TIP3    H127242   3.642   1.811   1.315  0.4749  1.0964 -2.6612
 1869TIP3    H227243   3.766   1.724   1.316 -0.3329 -0.1327  0.0999
 1870TIP3   OH227244   1.200   6.144   1.379  0.2673 -0.1303  0.0153
 1870TIP3    H127245   1.106   6.126   1.380  0.1742  0.3405  1.0243
 1870TIP3    H227246   1.231   6.104   1.298 -1.2392  1.9900 -1.7554
 1871TIP3   OH227247   3.969   0.732   8.477 -0.0291 -0.5513 -0.1074
 1871TIP3    H127248   3.917   0.810   8.462  0.5559 -0.2353 -0.5071
 1871TIP3    H227249   3.905   0.661   8.484 -0.5851  0.0039  0.5866
 1872TIP3   OH227250   6.037   2.287   8.698  0.3928  0.4553  0.4370
 1872TIP3    H127251   6.123   2.328   8.710  0.5380  0.8616 -1.6831
 1872TIP3    H227252   5.976   2.360   8.695  0.3638  0.3890 -1.0425
 1873TIP3   OH227253   4.893   5.749   7.067 -0.1608 -0.2213 -0.6602
 1873TIP3    H127254   4.933   5.672   7.027  0.3690  0.6382 -1.8518
 1873TIP3    H227255   4.949   5.771   7.140  1.0729  0.4176 -1.7547
 1874TIP3   OH227256   4.345   1.025   7.610 -0.1052  0.3705 -0.1406
 1874TIP3    H127257   4.440   1.034   7.602 -0.0957  1.1566  0.5954
 1874TIP3    H227258   4.333   0.943   7.658  0.0865 -0.8800 -2.1351
 1875TIP3   OH227259   0.292   2.439   0.365  0.5218 -0.0556 -0.4134
 1875TIP3    H127260   0.206   2.422   0.404  0.9090  0.1933  0.5716
 1875TIP3    H227261   0.354   2.426   0.436  1.3548 -0.6493 -1.2156
 1876TIP3   OH227262   3.521   2.406   6.761 -0.1318  0.0973  0.2464
 1876TIP3    H127263   3.434   2.367   6.771 -0.5917  1.1112  0.3213
 1876TIP3    H227264   3.507   2.482   6.705  0.8287 -0.0968 -0.2835
 1877TIP3   OH227265   3.557   1.223   1.072 -0.3080 -0.3293  0.2176
 1877TIP3    H127266   3.517   1.192   1.153 -0.5121 -0.8356 -0.0717
 1877TIP3    H227267   3.649   1.196   1.079 -0.0354  0.7055  0.8165
 1878TIP3   OH227268   0.299   4.111   0.375  0.4406  0.3382 -0.0949
 1878TIP3    H127269   0.294   4.043   0.308  0.1861  0.2746 -0.0142
 1878TIP3    H227270   0.388   4.145   0.369  0.5459  0.0463 -0.1831
 1879TIP3   OH227271   3.316   2.460   8.540  0.4910  0.6288 -0.1958
 1879TIP3    H127272   3.368   2.506   8.606  0.4502  0.3462  0.0322
 1879TIP3    H227273   3.349   2.370   8.541 -0.3727  0.3089  0.3395
 1880TIP3   OH227274   1.311   3.169   1.479 -0.6196  0.1394 -0.3899
 1880TIP3    H127275   1.381   3.233   1.465  0.9986 -1.4114  0.2194
 1880TIP3    H227276   1.305   3.161   1.574 -1.7722  0.3734 -0.4294
 1881TIP3   OH227277   3.146   5.821   7.188  0.1859 -0.3964 -0.1986
 1881TIP3    H127278   3.096   5.873   7.124  0.1105  1.6987  1.4465
 1881TIP3    H227279   3.191   5.756   7.135 -1.3241  0.0397 -2.1750
 1882TIP3   OH227280   1.044   4.107   7.643 -0.1415 -0.4462  0.2522
 1882TIP3    H127281   1.044   4.106   7.548  2.1110 -0.1558  0.1907
 1882TIP3    H227282   1.092   4.028   7.669 -1.8556 -1.2206  1.2111
 1883TIP3   OH227283   5.884   2.349   0.445 -0.2045 -0.7718  0.0416
 1883TIP3    H127284   5.928   2.335   0.529 -1.1493 -0.8292  0.5457
 1883TIP3    H227285   5.884   2.444   0.434 -2.3169 -0.5335  1.4056
 1884TIP3   OH227286   1.653   6.408   7.702 -0.0541  0.1918  0.0324
 1884TIP3    H127287   1.652   6.339   7.768 -0.4822 -0.2670 -0.4441
 1884TIP3    H227288   1.627   6.487   7.749 -0.6608 -0.1910  0.3515
 1885TIP3   OH227289   1.781   6.614   1.118  0.0884  0.1506 -0.2182
 1885TIP3    H127290   1.736   6.588   1.199  1.0487 -1.1515 -0.0691
 1885TIP3    H227291   1.766   6.708   1.112 -1.0605  0.0653  0.8109
 1886TIP3   OH227292   4.864   2.811   0.979  0.2192  0.4365  0.3390
 1886TIP3    H127293   4.812   2.750   1.031 -1.9160 -0.8420 -2.9474
 1886TIP3    H227294   4.854   2.895   1.023  1.1125 -0.9925  3.5871
 1887TIP3   OH227295   1.347   2.199   7.464 -0.0961  0.0935 -0.4127
 1887TIP3    H127296   1.412   2.232   7.527 -1.1072 -0.9707  1.2515
 1887TIP3    H227297   1.387   2.215   7.378  0.9199  2.4773  0.4218
 1888TIP3   OH227298   1.939   5.133   1.757 -0.0562  0.5209  0.2359
 1888TIP3    H127299   1.932   5.063   1.692  0.3566 -0.1819  0.9408
 1888TIP3    H227300   1.852   5.173   1.759 -0.4579 -0.3407  0.2505
 1889TIP3   OH227301   2.024   3.469   0.018 -0.2038 -0.2834 -0.0613
 1889TIP3    H127302   2.064   3.526   0.084 -2.4482  1.0922  0.2010
 1889TIP3    H227303   1.959   3.524  -0.026 -0.0433 -1.6940 -2.2055
 1890TIP3   OH227304   1.171   1.264   7.206 -0.0081  0.3570 -0.5311
 1890TIP3    H127305   1.150   1.193   7.145 -1.1836 -0.1163  0.3764
 1890TIP3    H227306   1.090   1.277   7.256  0.5046  1.6557  0.0100
 1891TIP3   OH227307   5.509   4.270   1.409 -0.0077 -0.4332 -0.2185
 1891TIP3    H127308   5.544   4.316   1.333 -1.3695 -0.0546 -0.6482
 1891TIP3    H227309   5.564   4.299   1.482  0.0069  0.8357 -0.7133
 1892TIP3   OH227310   4.286   2.065   6.865  0.3018  0.4797  1.0100
 1892TIP3    H127311   4.299   1.971   6.847  0.7634  0.9225 -1.2837
 1892TIP3    H227312   4.371   2.095   6.898  1.0021  0.5947 -0.8124
 1893TIP3   OH227313   3.481   3.998   1.669  0.5943 -0.7353 -0.0007
 1893TIP3    H127314   3.483   4.068   1.604  0.8181 -0.2824  0.4891
 1893TIP3    H227315   3.521   4.036   1.747 -1.9179 -0.4396  1.2294
 1894TIP3   OH227316   1.692   6.060   1.341 -0.2323 -0.0380  0.5086
 1894TIP3    H127317   1.656   6.017   1.418  0.2213 -0.4556  0.4936
 1894TIP3    H227318   1.623   6.051   1.274 -0.4901  0.0348  0.7622
 1895TIP3   OH227319   3.961   5.034   8.288  0.6156  0.1808  0.4134
 1895TIP3    H127320   3.902   5.024   8.363 -0.3710  0.5470 -0.3001
 1895TIP3    H227321   4.022   5.103   8.315  0.3714  0.1949  0.9467
 1896TIP3   OH227322   3.269   4.901   0.428  0.3843  0.4130  0.4093
 1896TIP3    H127323   3.208   4.935   0.493 -0.0929  0.7717 -0.2096
 1896TIP3    H227324   3.333   4.971   0.416  0.2433  0.5083  0.2062
 1897TIP3   OH227325   6.042   2.013   6.728 -0.1017 -0.0715  0.2114
 1897TIP3    H127326   5.988   1.938   6.752 -0.2480  0.4667  1.6545
 1897TIP3    H227327   6.106   1.977   6.667  0.4363 -1.6120  1.6014
 1898TIP3   OH227328   1.539   1.247   1.220  0.7247  0.0413 -0.3799
 1898TIP3    H127329   1.524   1.267   1.313  1.3474 -1.2460  0.0302
 1898TIP3    H227330   1.620   1.293   1.199  0.9590 -0.2179 -0.0705
 1899TIP3   OH227331   2.232   5.640   6.299 -0.1288  0.2359  0.4793
 1899TIP3    H127332   2.324   5.617   6.310 -0.4667 -1.1416  0.5446
 1899TIP3    H227333   2.234   5.733   6.275  1.1445  0.7802  2.4580
 1900TIP3   OH227334   5.337   1.828   7.691 -0.1289  0.4089 -0.1256
 1900TIP3    H127335   5.303   1.908   7.730 -1.0202 -0.2476  0.4730
 1900TIP3    H227336   5.322   1.839   7.597  1.3330  1.6646 -0.2602
 1901TIP3   OH227337   5.567   1.093   8.272  0.5439 -0.0975  0.3217
 1901TIP3    H127338   5.634   1.034   8.238 -0.6323 -1.0262 -0.4817
 1901TIP3    H227339   5.608   1.180   8.269  1.6009 -0.5957 -0.4258
 1902TIP3   OH227340   4.363   5.164   8.525  0.5642  0.1104 -0.0988
 1902TIP3    H127341   4.294   5.214   8.568  0.5217 -1.0567  1.2555
 1902TIP3    H227342   4.433   5.228   8.510  0.0357  0.8404  0.4581
 1903TIP3   OH227343   2.973   6.482   6.726 -0.2171  0.2271  0.2016
 1903TIP3    H127344   3.002   6.513   6.812  2.2053 -1.3764  0.0484
 1903TIP3    H227345   3.036   6.520   6.664  0.3827 -1.6338 -0.4033
 1904TIP3   OH227346   2.463   0.258   1.463  0.3713 -0.1332  0.1050
 1904TIP3    H127347   2.404   0.316   1.511 -1.8348 -2.0649 -0.0703
 1904TIP3    H227348   2.459   0.175   1.511  3.0955 -0.3509  0.1238
 1905TIP3   OH227349   1.700   2.576   7.266 -0.0748 -0.5929 -0.0430
 1905TIP3    H127350   1.705   2.622   7.182 -0.2280  0.8234  0.6795
 1905TIP3    H227351   1.608   2.584   7.292 -0.0053 -0.9237  0.3125
 1906TIP3   OH227352   2.108   0.560   1.432 -0.4527  0.1139  0.3104
 1906TIP3    H127353   2.052   0.565   1.355  1.0971  1.6023 -0.7837
 1906TIP3    H227354   2.172   0.630   1.421 -0.8700  1.2094  3.5360
 1907TIP3   OH227355   0.922   2.965   1.576 -0.0084 -0.1996 -0.4969
 1907TIP3    H127356   0.922   2.921   1.661  0.0963  2.4186  0.9833
 1907TIP3    H227357   0.950   3.055   1.596 -2.3800  1.2311 -2.8708
 1908TIP3   OH227358   2.860   5.419   1.115 -0.3532 -0.0836  0.3282
 1908TIP3    H127359   2.797   5.446   1.182 -1.5801 -0.0058 -0.8373
 1908TIP3    H227360   2.830   5.461   1.035 -0.9187 -2.8610 -1.0400
 1909TIP3   OH227361   6.353   2.153   7.303  0.0248 -0.2079 -0.2334
 1909TIP3    H127362   6.406   2.228   7.277  1.0003 -0.4114  1.0499
 1909TIP3    H227363   6.270   2.191   7.333  1.0999  0.5615  1.9436
 1910TIP3   OH227364   2.980   5.193   6.512 -0.0943 -0.2903  0.3417
 1910TIP3    H127365   3.073   5.190   6.489  0.7764 -1.4018  3.4733
 1910TIP3    H227366   2.948   5.104   6.497 -0.4342 -0.1351  0.1244
 1911TIP3   OH227367   0.097   4.622   1.707  0.6625 -0.0706 -0.1699
 1911TIP3    H127368   0.067   4.613   1.797  0.6370 -0.7646 -0.2417
 1911TIP3    H227369   0.052   4.699   1.673  0.1354 -0.2218  0.1905
 1912TIP3   OH227370   1.475   3.381   8.679  0.0281 -0.3954 -0.4646
 1912TIP3    H127371   1.452   3.454   8.737 -2.5129 -0.2198 -1.5603
 1912TIP3    H227372   1.570   3.388   8.668  0.6579 -0.3808  3.5030
 1913TIP3   OH227373   6.219   5.954   8.420  0.0086  0.0772 -0.2984
 1913TIP3    H127374   6.267   6.033   8.444 -0.5549  0.3426 -0.0144
 1913TIP3    H227375   6.214   5.957   8.324 -0.7478  0.8372 -0.2462
 1914TIP3   OH227376   5.684   1.356   1.394  0.1648  0.1910  0.2044
 1914TIP3    H127377   5.669   1.262   1.381 -0.6805  0.0984  1.5927
 1914TIP3    H227378   5.600   1.389   1.428  0.7582  1.2435  0.6892
 1915TIP3   OH227379   4.575   3.322   6.289  0.1296 -0.7475  0.0823
 1915TIP3    H127380   4.653   3.273   6.313  1.7536  0.9028 -1.4674
 1915TIP3    H227381   4.527   3.264   6.230  0.4488 -1.5828  0.6309
 1916TIP3   OH227382   4.243   5.959   7.261 -0.3838  0.5008  0.4247
 1916TIP3    H127383   4.310   5.891   7.253 -0.7580  0.1710 -0.0507
 1916TIP3    H227384   4.225   5.984   7.170 -0.5976  0.8848  0.5749
 1917TIP3   OH227385   6.208   5.950   8.157 -0.4246 -0.3396  0.0481
 1917TIP3    H127386   6.226   5.864   8.118 -0.5177 -0.0078 -0.7333
 1917TIP3    H227387   6.204   6.010   8.083  0.6720  0.5335  0.6567
 1918TIP3   OH227388   3.863   1.049   0.272 -0.9623 -0.2095 -0.0725
 1918TIP3    H127389   3.912   1.101   0.207 -0.3836 -1.2607 -0.4984
 1918TIP3    H227390   3.927   0.987   0.306 -1.7065 -0.8005  0.2686
 1919TIP3   OH227391   2.155   3.005   0.859 -0.8472  0.1308  0.0955
 1919TIP3    H127392   2.230   2.949   0.880  1.2086  2.0805 -1.5852
 1919TIP3    H227393   2.124   2.972   0.774 -0.2545  0.8525 -0.4195
 1920TIP3   OH227394   0.808   3.779   8.656  0.4362  0.0935  0.0369
 1920TIP3    H127395   0.865   3.717   8.610 -0.1255  0.1084 -0.6980
 1920TIP3    H227396   0.852   3.794   8.740  2.0845  0.9262 -0.9108
 1921TIP3   OH227397   5.542   1.119   7.105 -0.5760  0.0675  0.5772
 1921TIP3    H127398   5.515   1.135   7.015  0.6486  3.7064  0.7049
 1921TIP3    H227399   5.612   1.182   7.121  0.8014 -1.9629  3.4371
 1922TIP3   OH227400   0.019   6.751   7.731 -0.3839  0.2831  0.0810
 1922TIP3    H127401   0.029   6.815   7.661 -1.2099  0.3329 -0.0013
 1922TIP3    H227402  -0.062   6.704   7.710  0.1365 -0.7062  0.2112
 1923TIP3   OH227403   3.217   5.101   8.440  0.0789 -0.3158  0.4146
 1923TIP3    H127404   3.194   5.089   8.532 -1.2020 -0.8651  0.0501
 1923TIP3    H227405   3.229   5.195   8.430 -1.2309 -0.0895  0.8340
 1924TIP3   OH227406   1.408   6.055   8.345  0.2161 -0.2221  0.1525
 1924TIP3    H127407   1.419   5.989   8.413  0.7717 -0.0550  0.2281
 1924TIP3    H227408   1.343   6.116   8.381  1.1002  0.3198  0.8968
 1925TIP3   OH227409   4.543   6.581   6.735 -0.3796 -0.3693  0.0682
 1925TIP3    H127410   4.509   6.585   6.646 -0.8761  2.1007  0.3031
 1925TIP3    H227411   4.638   6.581   6.724 -0.4288  0.5032 -0.4763
 1926TIP3   OH227412   2.069   0.595   1.089 -0.3052  0.1329 -0.7589
 1926TIP3    H127413   2.062   0.680   1.045  0.6513  0.5921 -0.0607
 1926TIP3    H227414   2.017   0.606   1.169 -1.4147 -0.4510 -1.3746
 1927TIP3   OH227415   4.688   2.488   8.492  0.0308 -0.4580  0.3297
 1927TIP3    H127416   4.599   2.457   8.510 -0.0285 -0.2591  0.3748
 1927TIP3    H227417   4.710   2.446   8.408 -0.4558  0.2274 -0.1529
 1928TIP3   OH227418   4.630   0.277   1.492 -0.0643 -0.2155  1.0203
 1928TIP3    H127419   4.579   0.347   1.450  1.0400 -0.1681 -0.3309
 1928TIP3    H227420   4.631   0.301   1.585  0.5170  1.7516  0.5695
 1929TIP3   OH227421   4.013   2.630   1.548  0.5627 -0.3968 -0.0743
 1929TIP3    H127422   4.000   2.692   1.620 -1.9977 -2.6641  1.5874
 1929TIP3    H227423   3.944   2.651   1.486  0.3207 -0.9134  0.0166
 1930TIP3   OH227424   1.479   1.615   6.727  0.5109  0.3284 -0.8413
 1930TIP3    H127425   1.460   1.616   6.821  0.0151 -0.9554 -0.9060
 1930TIP3    H227426   1.544   1.546   6.717 -0.9468 -0.9679 -1.6819
 1931TIP3   OH227427   6.731   5.043   7.178 -0.3760 -0.3463 -0.0559
 1931TIP3    H127428   6.809   5.095   7.162  0.0352 -0.4718  1.3684
 1931TIP3    H227429   6.713   4.999   7.095 -0.4909  1.7058 -1.1856
 1932TIP3   OH227430   3.451   1.337   6.905  0.1349 -0.3982 -0.2429
 1932TIP3    H127431   3.521   1.306   6.961  1.1488  1.8727 -0.1275
 1932TIP3    H227432   3.426   1.261   6.852  0.8147 -1.9488  1.5496
 1933TIP3   OH227433   2.194   4.697   1.615 -0.3163 -0.2263  0.1197
 1933TIP3    H127434   2.278   4.695   1.660  0.8910  1.7537 -1.8821
 1933TIP3    H227435   2.129   4.698   1.685  1.3810  0.4250  1.7474
 1934TIP3   OH227436   3.567   6.306   0.970  0.4680  0.5449  0.2366
 1934TIP3    H127437   3.561   6.276   0.880  1.2758  0.4963  0.1843
 1934TIP3    H227438   3.542   6.398   0.967  0.0432  0.4220  0.0420
 1935TIP3   OH227439   0.702   2.884   8.662  0.7863 -0.3028 -0.0885
 1935TIP3    H127440   0.659   2.970   8.669  0.4194 -0.4049 -1.0136
 1935TIP3    H227441   0.775   2.890   8.723 -1.3810 -0.6798  2.7719
 1936TIP3   OH227442   2.331   2.621   0.523 -0.0177 -0.1107  0.6989
 1936TIP3    H127443   2.322   2.661   0.610  0.5987 -0.4660  0.9393
 1936TIP3    H227444   2.377   2.687   0.471 -4.7970  2.3662 -0.9966
 1937TIP3   OH227445   2.266   3.575   8.422 -0.1726 -0.0026  0.6949
 1937TIP3    H127446   2.278   3.509   8.490 -0.4075 -0.8416 -0.0619
 1937TIP3    H227447   2.176   3.563   8.391 -0.8322  1.8227  1.7188
 1938TIP3   OH227448   6.712   4.005   1.682 -0.3612 -0.4530  0.2111
 1938TIP3    H127449   6.718   3.924   1.733  1.2224 -0.1568  0.5443
 1938TIP3    H227450   6.619   4.029   1.685 -0.7635 -1.9597  0.5478
 1939TIP3   OH227451   4.936   0.493   1.867  0.1782  0.0471  0.6281
 1939TIP3    H127452   5.000   0.499   1.938  0.2820 -0.8505  0.6222
 1939TIP3    H227453   4.950   0.406   1.830 -0.1321  0.3606 -0.2498
 1940TIP3   OH227454   2.784   2.576   8.118  0.0944  0.2986 -0.1176
 1940TIP3    H127455   2.874   2.559   8.089 -0.0985 -1.4197  0.1833
 1940TIP3    H227456   2.775   2.671   8.113  2.1642  0.5892  0.5423
 1941TIP3   OH227457   5.649   3.458   0.208  0.2342  0.0828  0.2010
 1941TIP3    H127458   5.562   3.424   0.227  0.0969 -0.1840 -0.8600
 1941TIP3    H227459   5.673   3.420   0.124  0.0518  2.6055 -1.1026
 1942TIP3   OH227460   6.262   0.171   0.528  0.3588  0.3165  0.2493
 1942TIP3    H127461   6.176   0.132   0.512  0.2192  1.2317 -1.4863
 1942TIP3    H227462   6.244   0.247   0.583  0.4773 -1.1910  2.5102
 1943TIP3   OH227463   1.457   3.316   6.870  0.3490  0.1407 -0.7764
 1943TIP3    H127464   1.374   3.350   6.903 -0.2767 -1.7879 -0.2497
 1943TIP3    H227465   1.462   3.347   6.780 -1.1177  0.0294 -0.9173
 1944TIP3   OH227466   0.563   0.940   1.149  0.5562 -0.1264 -0.2819
 1944TIP3    H127467   0.626   0.988   1.204  0.5641  0.7185 -0.9929
 1944TIP3    H227468   0.489   0.922   1.207  0.7661  0.3214  0.1367
 1945TIP3   OH227469   0.057   3.415   1.190 -0.0569  0.4378 -0.6268
 1945TIP3    H127470   0.020   3.397   1.277  2.6386 -0.6083  0.4239
 1945TIP3    H227471   0.035   3.507   1.174 -0.3729  0.7481  1.3189
 1946TIP3   OH227472   6.088   2.113   0.345  0.4533  0.4636  0.1458
 1946TIP3    H127473   6.076   2.020   0.364  1.3190 -0.1875 -2.2603
 1946TIP3    H227474   6.010   2.155   0.383  0.3148 -1.1142  1.7513
 1947TIP3   OH227475   4.606   0.984   2.259 -0.0115 -0.2497 -0.2356
 1947TIP3    H127476   4.600   1.030   2.342 -0.7705  0.6827 -0.7817
 1947TIP3    H227477   4.629   1.052   2.195 -0.2037 -0.8009 -0.9115
 1948TIP3   OH227478   6.808   1.159   1.586  0.3157 -0.0605 -0.2751
 1948TIP3    H127479   6.857   1.232   1.623 -0.9440  0.9090 -0.4113
 1948TIP3    H227480   6.769   1.115   1.661 -0.5828  0.6714 -0.2920
 1949TIP3   OH227481   0.791   4.470   7.041  0.1485 -0.7092  0.7000
 1949TIP3    H127482   0.843   4.486   6.963 -0.1435  1.6977  0.9368
 1949TIP3    H227483   0.753   4.383   7.027  1.6555 -1.1668 -0.9011
 1950TIP3   OH227484   1.172   5.350   1.221 -0.5028 -0.1098  0.1019
 1950TIP3    H127485   1.244   5.290   1.199 -0.7879  0.2903 -2.2005
 1950TIP3    H227486   1.211   5.437   1.218 -0.2074 -0.0529  2.9486
 1951TIP3   OH227487   3.565   5.684   7.078  0.6144 -0.1183 -0.4685
 1951TIP3    H127488   3.648   5.662   7.120  0.8834  1.5297 -0.0817
 1951TIP3    H227489   3.500   5.634   7.127  1.2760 -0.8021 -0.2624
 1952TIP3   OH227490   0.640   6.281   1.375  0.1568  0.6882  0.5504
 1952TIP3    H127491   0.578   6.238   1.434  2.1809 -0.9031  1.6139
 1952TIP3    H227492   0.679   6.350   1.428  0.1518  0.9265  0.2456
 1953TIP3   OH227493   3.273   1.345   7.482  0.1082  0.1085  0.9466
 1953TIP3    H127494   3.178   1.355   7.492  0.3311  1.9198  1.6592
 1953TIP3    H227495   3.289   1.252   7.496 -1.7569 -0.6263 -1.1690
 1954TIP3   OH227496   3.114   3.548   7.862  0.6421  0.4580  0.0704
 1954TIP3    H127497   3.052   3.572   7.794  0.6154 -1.9812 -0.8714
 1954TIP3    H227498   3.060   3.515   7.934  0.7565  0.8029  0.3166
 1955TIP3   OH227499   4.204   2.198   7.112  0.4879  0.3994  0.0742
 1955TIP3    H127500   4.237   2.196   7.022 -2.3160 -0.1416 -1.0440
 1955TIP3    H227501   4.140   2.127   7.116  0.6114  0.3368  2.5701
 1956TIP3   OH227502   4.567   0.571   7.078 -0.0153 -0.1823  0.3111
 1956TIP3    H127503   4.554   0.505   7.146  1.2864 -1.2543 -0.4173
 1956TIP3    H227504   4.607   0.522   7.005 -1.4572  0.8877 -1.2810
 1957TIP3   OH227505   0.808   4.050   0.843 -0.3049  0.3806  0.6135
 1957TIP3    H127506   0.789   4.071   0.934 -1.2002 -1.8028  0.9918
 1957TIP3    H227507   0.904   4.045   0.838 -0.2667  0.1282  1.5312
 1958TIP3   OH227508   2.491   2.110   2.201 -0.4389  0.0520  0.1532
 1958TIP3    H127509   2.405   2.133   2.165  0.2236  1.0370 -0.8400
 1958TIP3    H227510   2.524   2.192   2.238  0.1709 -0.2692  0.3336
 1959TIP3   OH227511   1.126   4.307   6.593 -0.0713  0.2963  0.1643
 1959TIP3    H127512   1.104   4.390   6.553  0.5991  0.5027  0.2152
 1959TIP3    H227513   1.214   4.319   6.627  0.4922 -0.8042 -0.8570
 1960TIP3   OH227514   0.067   4.518   1.965 -0.0602 -0.3749 -0.3287
 1960TIP3    H127515   0.121   4.558   2.034  1.0873  0.2710 -1.5537
 1960TIP3    H227516  -0.002   4.472   2.013  0.1926  0.7641  1.2263
 1961TIP3   OH227517   0.364   5.779   8.135 -0.1666  0.0419  0.4515
 1961TIP3    H127518   0.349   5.780   8.229  0.7400 -0.4549  0.6069
 1961TIP3    H227519   0.434   5.715   8.122 -0.7339 -0.3795 -0.6247
 1962TIP3   OH227520   2.164   6.646   1.492 -0.0300  0.1848 -0.6426
 1962TIP3    H127521   2.182   6.553   1.506 -0.3175  0.0726 -1.0183
 1962TIP3    H227522   2.156   6.655   1.397 -1.7483  0.2670 -0.5102
 1963TIP3   OH227523   2.426   0.646   0.383  0.0015 -0.3888 -0.2194
 1963TIP3    H127524   2.497   0.665   0.321  0.4858  0.2599  0.5037
 1963TIP3    H227525   2.356   0.706   0.359 -0.8295 -1.8350 -1.7000
 1964TIP3   OH227526   4.081   1.642   7.800  0.4271  0.3906 -0.0144
 1964TIP3    H127527   4.165   1.639   7.754 -0.0883  0.1471 -0.9648
 1964TIP3    H227528   4.036   1.562   7.774 -0.0168  0.4000  0.6794
 1965TIP3   OH227529   4.361   2.766   7.681  0.4351  0.3523  0.2847
 1965TIP3    H127530   4.417   2.829   7.634  0.3986 -0.8723 -1.5071
 1965TIP3    H227531   4.277   2.772   7.636 -0.3997  0.9301  1.8571
 1966TIP3   OH227532   4.978   2.100   8.412  0.0724  0.2756  0.1435
 1966TIP3    H127533   4.974   2.168   8.479  1.0042  3.2201 -2.5529
 1966TIP3    H227534   4.906   2.119   8.353  0.4444 -1.0058 -0.7824
 1967TIP3   OH227535   1.680   0.017   0.587  0.5077 -0.5200 -0.2248
 1967TIP3    H127536   1.699  -0.045   0.658 -0.9495 -1.3065 -0.4748
 1967TIP3    H227537   1.757   0.074   0.584  1.4946 -1.7366  0.6329
 1968TIP3   OH227538   4.687   6.604   1.585 -0.1788  0.1657  0.0084
 1968TIP3    H127539   4.631   6.621   1.509 -1.6882 -0.2789  0.9827
 1968TIP3    H227540   4.671   6.513   1.607  0.9191  0.0433  0.3392
 1969TIP3   OH227541   2.100   3.296   8.186  0.0561 -0.4894  0.1526
 1969TIP3    H127542   2.049   3.253   8.118  1.3551  1.1516 -1.9976
 1969TIP3    H227543   2.067   3.386   8.187  0.9332 -0.1586  0.7700
 1970TIP3   OH227544   4.033   3.823   1.780  0.7165  0.1787  0.2742
 1970TIP3    H127545   4.071   3.754   1.835  1.0246  0.2654  0.1664
 1970TIP3    H227546   3.940   3.800   1.775  1.0453 -1.0022 -0.8967
 1971TIP3   OH227547   2.063   0.833   8.061  0.4156 -0.6476 -0.0797
 1971TIP3    H127548   2.094   0.878   8.140  1.7073  1.2699 -1.5663
 1971TIP3    H227549   2.143   0.816   8.011 -0.4468 -1.1550 -1.3097
 1972TIP3   OH227550   1.994   5.745   0.736  0.4468  0.1376  0.0583
 1972TIP3    H127551   2.047   5.765   0.813 -0.6223 -0.3104  0.9419
 1972TIP3    H227552   1.903   5.750   0.767  0.0232 -1.2100 -0.8628
 1973TIP3   OH227553   4.522   6.844   6.782 -0.1316  0.0916  0.0441
 1973TIP3    H127554   4.458   6.903   6.744 -0.3613  0.3519  0.8081
 1973TIP3    H227555   4.512   6.762   6.734 -0.3772  0.4201 -0.4730
 1974TIP3   OH227556   6.237   0.022   7.021  0.7093  0.6263 -0.1288
 1974TIP3    H127557   6.153   0.065   7.003  0.2167 -0.1431  0.3103
 1974TIP3    H227558   6.270  -0.002   6.935  0.0917  0.2082 -0.2566
 1975TIP3   OH227559   2.961   6.246   1.524  0.2165  0.4913 -0.0706
 1975TIP3    H127560   3.034   6.308   1.522  0.1551  0.5509 -1.3220
 1975TIP3    H227561   3.001   6.160   1.511  0.1121  0.4833 -0.3539
 1976TIP3   OH227562   5.620   4.728   1.909  0.2157 -0.6634 -0.0085
 1976TIP3    H127563   5.697   4.743   1.854 -0.2103 -0.2245 -0.4998
 1976TIP3    H227564   5.580   4.649   1.874 -2.0876  1.5083 -2.7869
 1977TIP3   OH227565   5.384   6.790   7.177 -0.0378  0.0938 -0.0386
 1977TIP3    H127566   5.356   6.701   7.202 -1.6366  0.2414 -1.1968
 1977TIP3    H227567   5.361   6.797   7.085  3.2962  0.5097 -0.9546
 1978TIP3   OH227568   1.098   4.506   8.804  0.2152  0.1797  0.4709
 1978TIP3    H127569   1.014   4.547   8.786  0.7661  0.3901 -2.0028
 1978TIP3    H227570   1.150   4.520   8.724  2.1160 -1.1245  1.3799
 1979TIP3   OH227571   6.372   2.255   0.023  0.0147  0.0839  0.5367
 1979TIP3    H127572   6.423   2.253   0.104 -0.7197 -0.0583  1.0019
 1979TIP3    H227573   6.366   2.164  -0.005  1.6285  0.2724 -0.5652
 1980TIP3   OH227574   5.180   2.794   7.504 -0.2741  0.4039 -0.6884
 1980TIP3    H127575   5.118   2.857   7.542  1.5257  1.5518  0.4487
 1980TIP3    H227576   5.195   2.826   7.415  0.4324  1.4815 -0.2023
 1981TIP3   OH227577   5.143   5.067   8.231 -0.9581  0.7044  0.3958
 1981TIP3    H127578   5.054   5.064   8.266 -1.4657 -2.2312 -0.8659
 1981TIP3    H227579   5.134   5.118   8.150 -1.4487  0.5621  0.3579
 1982TIP3   OH227580   0.203   5.710   6.765  0.1809  0.5084 -0.0931
 1982TIP3    H127581   0.162   5.725   6.680 -1.6003 -0.4624  0.5309
 1982TIP3    H227582   0.134   5.671   6.818  2.0673 -1.7799  0.8825
 1983TIP3   OH227583   0.650   2.427   8.399  0.9021 -0.0736 -0.0939
 1983TIP3    H127584   0.723   2.481   8.431  0.3813  0.1962  0.6562
 1983TIP3    H227585   0.629   2.369   8.472 -1.5891  1.8689  0.8655
 1984TIP3   OH227586   0.177   3.655   7.425  0.4588 -0.2817  0.2480
 1984TIP3    H127587   0.229   3.723   7.468 -1.4617  1.8884 -0.6712
 1984TIP3    H227588   0.131   3.610   7.496  0.9090  0.1005  0.7855
 1985TIP3   OH227589   3.488   1.908   2.132 -0.4342 -0.1239  0.2060
 1985TIP3    H127590   3.536   1.946   2.206  2.8457  0.7724 -2.1262
 1985TIP3    H227591   3.428   1.977   2.105  2.4005  1.9996 -1.2934
 1986TIP3   OH227592   1.692   1.850   1.711 -0.2516  0.2137 -0.4392
 1986TIP3    H127593   1.673   1.886   1.798 -0.7789 -0.0580 -0.4390
 1986TIP3    H227594   1.786   1.863   1.701 -0.3798  1.3976 -0.3508
 1987TIP3   OH227595   2.631   0.329   6.288  0.0910  0.1365 -0.1776
 1987TIP3    H127596   2.592   0.409   6.255  2.3655  1.2979 -0.2756
 1987TIP3    H227597   2.632   0.340   6.383  0.9235  0.5156 -0.2212
 1988TIP3   OH227598   1.607   5.829   7.045 -0.1293 -0.2491 -0.2002
 1988TIP3    H127599   1.557   5.910   7.049  0.2554 -0.0226  0.0738
 1988TIP3    H227600   1.594   5.797   6.955 -1.5150 -0.6865  0.1375
 1989TIP3   OH227601   3.609   1.561   1.104 -0.2916  0.1919 -0.1528
 1989TIP3    H127602   3.670   1.577   1.032  0.3365  0.8541  0.5094
 1989TIP3    H227603   3.627   1.630   1.167  0.6114 -1.5327  1.5949
 1990TIP3   OH227604   3.793   6.501   6.359  0.4016 -0.1120  0.2202
 1990TIP3    H127605   3.704   6.498   6.323  0.1252 -1.2135  0.9304
 1990TIP3    H227606   3.841   6.558   6.299 -0.5079 -0.3697 -0.7987
 1991TIP3   OH227607   0.515   5.884   0.906  0.2398  0.8366  0.0458
 1991TIP3    H127608   0.447   5.944   0.936 -0.1926  0.5027 -0.2482
 1991TIP3    H227609   0.469   5.802   0.890  0.9584  0.1363  1.3403
 1992TIP3   OH227610   1.206   2.123   1.730 -0.6144 -0.3124 -0.1247
 1992TIP3    H127611   1.136   2.186   1.713  0.5701  0.6024 -1.9681
 1992TIP3    H227612   1.273   2.144   1.665  2.4046  0.4115  2.9238
 1993TIP3   OH227613   4.431   1.559   0.359  0.6731  0.0212  0.2903
 1993TIP3    H127614   4.441   1.479   0.307 -0.7378 -0.3374  0.5269
 1993TIP3    H227615   4.437   1.530   0.450  1.1060  0.3416  0.3690
 1994TIP3   OH227616   3.053   2.111   1.668 -0.2511 -0.6633  0.4649
 1994TIP3    H127617   3.099   2.139   1.747  1.0482 -2.0263  0.2377
 1994TIP3    H227618   3.093   2.162   1.598 -1.5693  0.7240  0.6612
 1995TIP3   OH227619   4.965   6.527   2.022  0.1565 -0.2450 -0.1197
 1995TIP3    H127620   4.872   6.523   2.045 -0.2015 -0.9046 -1.5883
 1995TIP3    H227621   5.007   6.463   2.080 -0.3965 -0.3737  0.1429
 1996TIP3   OH227622   1.471   1.106   0.559  0.2175  0.6033 -0.2801
 1996TIP3    H127623   1.402   1.071   0.502 -0.6447 -0.5115  1.3747
 1996TIP3    H227624   1.444   1.195   0.579  1.0130  1.3675 -2.2965
 1997TIP3   OH227625   3.370   3.637   0.288 -0.0972 -0.3896  0.1305
 1997TIP3    H127626   3.440   3.655   0.225 -0.1574 -0.1147  0.1432
 1997TIP3    H227627   3.375   3.542   0.302  0.2317 -0.3804  0.0831
 1998TIP3   OH227628   3.649   0.624   1.793  0.1366  0.1563 -0.2243
 1998TIP3    H127629   3.675   0.685   1.862 -0.3658 -0.2329  0.3233
 1998TIP3    H227630   3.556   0.607   1.810  0.4484 -1.3880  0.1569
 1999TIP3   OH227631   3.052   5.028   7.084  0.4902  0.5782  0.2983
 1999TIP3    H127632   2.958   5.008   7.087  0.2713  1.6276  1.3434
 1999TIP3    H227633   3.088   4.964   7.023 -0.9281  0.2484 -0.2418
 2000TIP3   OH227634   5.231   1.613   0.303 -0.8290  0.3035 -0.1780
 2000TIP3    H127635   5.168   1.630   0.374 -1.4795 -2.3921  0.0323
 2000TIP3    H227636   5.176   1.590   0.228 -0.1064  0.6803 -0.8320
 2001TIP3   OH227637   2.097   1.625   7.707 -0.2128 -0.4147 -0.5169
 2001TIP3    H127638   2.056   1.556   7.656  0.3056  1.0835 -3.1458
 2001TIP3    H227639   2.191   1.610   7.697 -0.1003  0.1145 -0.2912
 2002TIP3   OH227640   6.447   1.588   7.668  0.1515  0.4736  0.1900
 2002TIP3    H127641   6.482   1.677   7.670  0.4745  0.4057 -1.3258
 2002TIP3    H227642   6.405   1.580   7.582  1.0891 -1.1868 -0.1556
 2003TIP3   OH227643   0.710   1.090   7.804  0.2435 -0.2752  0.0471
 2003TIP3    H127644   0.671   1.034   7.737  0.8851  1.3951 -1.8192
 2003TIP3    H227645   0.688   1.047   7.887  1.3861 -3.7149 -1.2450
 2004TIP3   OH227646   4.069   4.045   0.077 -0.0049 -0.4784  0.2647
 2004TIP3    H127647   4.025   4.130   0.081 -0.0536 -0.4334 -0.9815
 2004TIP3    H227648   4.023   3.992   0.143 -0.2697  0.3097  0.7347
 2005TIP3   OH227649   1.560   5.001   0.443 -0.1426 -0.4131  0.2794
 2005TIP3    H127650   1.645   4.976   0.479 -0.6564 -0.4752  1.5330
 2005TIP3    H227651   1.510   4.919   0.441 -0.6751 -0.1196  1.0446
 2006TIP3   OH227652   6.100   4.732   8.747 -0.6443  0.0380 -0.8629
 2006TIP3    H127653   6.065   4.691   8.826 -1.5381  1.8834 -0.2380
 2006TIP3    H227654   6.187   4.694   8.736  0.0670  0.7265  1.8049
 2007TIP3   OH227655   2.784   5.611   7.390 -0.0236  0.0558  0.3162
 2007TIP3    H127656   2.764   5.554   7.464  0.7842  0.7346  1.0767
 2007TIP3    H227657   2.748   5.566   7.314 -1.8372 -0.1386  1.2447
 2008TIP3   OH227658   5.658   5.735   2.405 -0.6167  0.5389 -0.5054
 2008TIP3    H127659   5.726   5.802   2.413 -0.9979  1.1976 -2.2441
 2008TIP3    H227660   5.702   5.654   2.431 -0.0677  1.3840  1.3701
 2009TIP3   OH227661   1.715   4.737   1.885  0.4107  0.0525  0.0164
 2009TIP3    H127662   1.709   4.796   1.961 -1.5710 -0.9709  0.7108
 2009TIP3    H227663   1.690   4.652   1.919 -1.9900 -0.1795 -2.0702
 2010TIP3   OH227664   3.121   1.010   8.807 -0.2961 -0.0142  0.1675
 2010TIP3    H127665   3.127   1.103   8.829 -0.2516  0.3498 -1.3059
 2010TIP3    H227666   3.027   0.993   8.802 -0.4506  0.9858 -3.4021
 2011TIP3   OH227667   2.905   3.149   0.242  0.2200  0.0055 -0.2228
 2011TIP3    H127668   2.920   3.138   0.336  0.0516 -0.8559 -0.2925
 2011TIP3    H227669   2.854   3.229   0.235  0.4637  0.2223  0.3991
 2012TIP3   OH227670   5.650   5.600   7.817  0.0225  0.1339 -0.4340
 2012TIP3    H127671   5.667   5.685   7.776 -1.5475  0.6565 -0.0727
 2012TIP3    H227672   5.635   5.540   7.743  0.3823  0.3385 -0.6745
 2013TIP3   OH227673   3.700   0.879   6.963  0.4566 -0.0589 -0.0540
 2013TIP3    H127674   3.714   0.889   6.869  1.4301 -2.3915 -0.2247
 2013TIP3    H227675   3.787   0.861   6.998 -0.2568 -1.9466  0.8584
 2014TIP3   OH227676   0.112   6.484   1.389  0.2420 -0.4488  0.2818
 2014TIP3    H127677   0.078   6.492   1.300 -0.5485 -0.1734  0.5992
 2014TIP3    H227678   0.193   6.534   1.388  0.8365 -1.3927 -0.5792
 2015TIP3   OH227679   2.702   1.969   8.269  0.4099 -0.3294  0.1674
 2015TIP3    H127680   2.608   1.952   8.271  0.3266  0.1696  0.9950
 2015TIP3    H227681   2.728   1.971   8.361  1.0426  0.5385 -0.0117
 2016TIP3   OH227682   5.500   2.995   7.296  0.0935  0.4340  0.1140
 2016TIP3    H127683   5.571   3.054   7.272  1.9215 -1.1531  1.3012
 2016TIP3    H227684   5.479   3.019   7.386 -0.2842  0.3109  0.0612
 2017TIP3   OH227685   6.340   5.023   0.029 -0.4579 -0.0451 -0.1607
 2017TIP3    H127686   6.364   4.949  -0.027  0.5989  0.7408 -0.7975
 2017TIP3    H227687   6.288   4.984   0.099 -0.5531 -1.2761 -0.8796
 2018TIP3   OH227688   6.582   1.132   0.805  0.3145  0.9145 -0.3624
 2018TIP3    H127689   6.629   1.130   0.888  1.3280 -0.8266 -0.9393
 2018TIP3    H227690   6.590   1.222   0.775  0.6798  1.3597  1.0022
 2019TIP3   OH227691   3.849   1.081   7.676  0.4739 -0.2592 -0.5968
 2019TIP3    H127692   3.877   1.019   7.609 -0.0048 -1.7360  0.5215
 2019TIP3    H227693   3.917   1.078   7.742  0.0362 -0.2281 -0.1396
 2020TIP3   OH227694   3.784   6.783   8.181  0.0426 -0.2286  0.9170
 2020TIP3    H127695   3.783   6.704   8.127 -0.8949  1.1510 -1.1993
 2020TIP3    H227696   3.714   6.769   8.245  0.5415 -1.5018  1.2232
 2021TIP3   OH227697   2.285   3.028   1.431 -0.3077  0.0591 -0.2325
 2021TIP3    H127698   2.244   2.996   1.351 -1.2053  0.8721 -0.1119
 2021TIP3    H227699   2.359   2.969   1.444 -0.6506 -0.6229 -1.1831
 2022TIP3   OH227700   1.106   3.582   7.140 -0.0234 -1.0250  0.2996
 2022TIP3    H127701   1.127   3.667   7.179 -0.4909 -1.5570  1.7837
 2022TIP3    H227702   1.190   3.548   7.110  0.4279 -0.7721  1.2422
 2023TIP3   OH227703   5.218   2.889   7.251  0.1180 -0.0118  0.1485
 2023TIP3    H127704   5.219   2.813   7.192  0.9551 -0.9194  1.3032
 2023TIP3    H227705   5.297   2.938   7.228  1.9128 -1.7527  2.2008
 2024TIP3   OH227706   1.095   3.270   1.912 -0.4459 -0.7474  0.3072
 2024TIP3    H127707   1.067   3.354   1.948  1.1893 -0.5840  1.2800
 2024TIP3    H227708   1.015   3.217   1.909 -1.6583  1.0397 -1.0300
 2025TIP3   OH227709   6.408   3.349   7.142  0.8352  0.4181 -0.5028
 2025TIP3    H127710   6.386   3.407   7.214  3.1277  1.1963 -0.3701
 2025TIP3    H227711   6.323   3.314   7.113 -0.2353  0.8380  1.8837
 2026TIP3   OH227712   0.830   0.297   8.432  0.0099 -0.1261 -0.5017
 2026TIP3    H127713   0.852   0.358   8.362 -2.1164  0.3918 -0.7533
 2026TIP3    H227714   0.740   0.270   8.414 -1.0831  0.9626  2.6706
 2027TIP3   OH227715   4.987   1.606   0.713  0.5604 -0.0547  0.0258
 2027TIP3    H127716   5.065   1.554   0.732  0.4521 -0.1571  0.1891
 2027TIP3    H227717   4.999   1.687   0.762  0.2765 -0.3223  0.5483
 2028TIP3   OH227718   5.500   1.422   8.559  0.5442  0.1535  0.0295
 2028TIP3    H127719   5.532   1.352   8.615 -2.6535 -0.7572  0.9630
 2028TIP3    H227720   5.550   1.414   8.478  1.7105 -1.8456  0.8891
 2029TIP3   OH227721   2.035   0.828   6.757 -0.1505  0.0174 -0.0399
 2029TIP3    H127722   1.985   0.814   6.676  0.3329 -3.6174  0.1136
 2029TIP3    H227723   2.124   0.846   6.727 -0.0974 -0.7163 -0.3493
 2030TIP3   OH227724   3.536   1.402   0.842  0.0785  0.4971  0.1413
 2030TIP3    H127725   3.590   1.481   0.849  0.2030  0.3554  0.8437
 2030TIP3    H227726   3.538   1.364   0.930 -0.5807  0.1025 -0.0122
 2031TIP3   OH227727   1.189   2.250   0.738  0.3468 -0.0160 -1.1670
 2031TIP3    H127728   1.229   2.327   0.779  0.7265 -1.5023  1.5541
 2031TIP3    H227729   1.106   2.239   0.784 -0.1087 -0.7146 -2.1370
 2032TIP3   OH227730   2.275   5.832   8.013  0.5967  0.0104  0.0018
 2032TIP3    H127731   2.251   5.844   7.921  2.2058  1.2966 -0.2860
 2032TIP3    H227732   2.293   5.920   8.045  1.9529 -0.6022  1.0142
 2033TIP3   OH227733   0.735   0.879   7.227  0.1756 -0.2536 -0.4053
 2033TIP3    H127734   0.760   0.968   7.254 -2.2964  0.5223 -0.3604
 2033TIP3    H227735   0.703   0.838   7.308  0.4888 -0.8692 -0.5898
 2034TIP3   OH227736   6.492   6.265   2.174  0.5758 -0.6352  0.6511
 2034TIP3    H127737   6.474   6.358   2.163  1.7369 -0.4570  0.1376
 2034TIP3    H227738   6.428   6.236   2.239  0.8798  0.7592  1.6211
 2035TIP3   OH227739   5.642   5.256   7.007  0.6111 -0.4415  0.2129
 2035TIP3    H127740   5.577   5.292   7.068 -0.3909 -0.3653 -0.8792
 2035TIP3    H227741   5.695   5.197   7.061 -0.6383 -0.8448  1.0412
 2036TIP3   OH227742   5.411   1.498   0.699  0.0714  0.5717 -0.5103
 2036TIP3    H127743   5.496   1.538   0.683 -0.0442  0.1557 -2.4034
 2036TIP3    H227744   5.354   1.572   0.721  0.7512  0.9353  0.0711
 2037TIP3   OH227745   1.418   3.280   0.997 -0.3194  0.1517 -0.1647
 2037TIP3    H127746   1.339   3.326   0.968 -0.5923  0.5794  1.1722
 2037TIP3    H227747   1.431   3.211   0.932 -1.0666  0.8523 -1.0944
 2038TIP3   OH227748   2.434   2.505   1.009  0.2169 -0.1549  0.5142
 2038TIP3    H127749   2.477   2.446   1.071  1.9988 -0.1810 -0.6626
 2038TIP3    H227750   2.434   2.457   0.926 -0.2894  0.6593  0.0220
 2039TIP3   OH227751   3.062   5.701   0.739  0.3844 -0.3403 -0.3090
 2039TIP3    H127752   3.023   5.737   0.660  1.5145  0.9604 -0.3185
 2039TIP3    H227753   3.097   5.777   0.786 -1.7383 -0.8270  2.3393
 2040TIP3   OH227754   1.392   1.548   0.037 -0.6158 -0.1867 -0.0331
 2040TIP3    H127755   1.352   1.559   0.124 -0.6285  0.7518 -0.1445
 2040TIP3    H227756   1.331   1.591  -0.023  0.2176  0.6845 -0.2876
 2041TIP3   OH227757   1.174   6.714   0.213 -0.1316  0.3861 -0.3552
 2041TIP3    H127758   1.220   6.726   0.130  2.3541  0.3597  0.9039
 2041TIP3    H227759   1.229   6.653   0.262 -0.5603  1.7353  1.9639
 2042TIP3   OH227760   3.345   3.818   7.627  0.1349  0.2187 -0.1464
 2042TIP3    H127761   3.371   3.811   7.719  2.7129  0.5905 -0.7605
 2042TIP3    H227762   3.324   3.910   7.615 -0.8958  0.0423  0.1996
 2043TIP3   OH227763   5.609   5.327   0.391 -0.1034 -0.1797  0.5870
 2043TIP3    H127764   5.632   5.236   0.375  0.5515  0.0405  0.2479
 2043TIP3    H227765   5.617   5.337   0.486 -0.6955 -0.6099  0.6857
 2044TIP3   OH227766   4.398   6.348   0.571 -0.1312  0.0274  0.0965
 2044TIP3    H127767   4.345   6.283   0.618  0.8066 -0.2529  0.8046
 2044TIP3    H227768   4.428   6.302   0.493 -1.8098  0.5359 -0.9016
 2045TIP3   OH227769   5.523   1.608   8.122 -0.4141  0.2621  0.0099
 2045TIP3    H127770   5.463   1.586   8.051  0.2002 -0.4081 -0.3134
 2045TIP3    H227771   5.470   1.657   8.185 -0.8871  1.1411 -1.0498
 2046TIP3   OH227772   3.437   5.116   0.398 -0.2635  0.0458 -0.3491
 2046TIP3    H127773   3.503   5.159   0.345  0.2802 -1.1105 -0.6566
 2046TIP3    H227774   3.422   5.175   0.472  1.3252  0.2035 -0.1155
 2047TIP3   OH227775   1.396   4.412   1.793  0.3298  0.1405 -0.7239
 2047TIP3    H127776   1.308   4.393   1.759  0.6987 -1.1102 -1.0134
 2047TIP3    H227777   1.453   4.406   1.717  0.5647  2.0078 -0.7507
 2048TIP3   OH227778   3.476   0.013   0.812 -0.1238  0.5891 -0.0215
 2048TIP3    H127779   3.558   0.053   0.843 -1.3384  1.3796  2.3964
 2048TIP3    H227780   3.433  -0.019   0.892 -3.4400  2.6386 -0.8099
 2049TIP3   OH227781   1.202   1.669   0.264 -0.4476  0.1286  0.3860
 2049TIP3    H127782   1.167   1.746   0.219 -0.8974 -0.4469 -0.2562
 2049TIP3    H227783   1.125   1.623   0.297 -0.2457 -0.6128 -0.1588
 2050TIP3   OH227784   3.194   5.019   0.153  0.1281 -0.0948  0.7657
 2050TIP3    H127785   3.137   5.016   0.230 -0.3581 -1.9845  0.3893
 2050TIP3    H227786   3.282   5.001   0.187 -0.0728 -0.8438  0.9119
 2051TIP3   OH227787   3.540   6.181   0.702 -0.6067 -0.0378  0.1269
 2051TIP3    H127788   3.605   6.198   0.633 -0.7086  1.1963  0.3077
 2051TIP3    H227789   3.519   6.088   0.693 -0.2269 -0.0211 -1.1660
 2052TIP3   OH227790   0.687   1.421   1.661  0.3196  0.0986 -0.0233
 2052TIP3    H127791   0.635   1.432   1.741  0.4740  0.8870 -0.0239
 2052TIP3    H227792   0.701   1.510   1.629  0.0624 -0.2178 -1.0569
 2053TIP3   OH227793   2.479   4.429   1.801 -0.2040  0.3346  0.0728
 2053TIP3    H127794   2.489   4.438   1.706 -0.3383  0.4339  0.0674
 2053TIP3    H227795   2.442   4.342   1.813  1.6403 -0.4895  0.1588
 2054TIP3   OH227796   0.970   3.819   0.441 -0.8706  0.3653  0.1845
 2054TIP3    H127797   1.051   3.859   0.472 -0.7523 -0.0495  0.4236
 2054TIP3    H227798   0.904   3.887   0.455 -0.9088  0.0415  1.8349
 2055TIP3   OH227799   2.870   2.547   1.978  0.2432  0.2501  0.8595
 2055TIP3    H127800   2.923   2.534   1.900 -1.1016  2.1605 -0.4663
 2055TIP3    H227801   2.780   2.537   1.948 -0.2662 -1.1369  2.6730
 2056TIP3   OH227802   6.666   6.043   8.661  0.4545  0.3342 -0.1022
 2056TIP3    H127803   6.667   6.138   8.669 -0.9285  0.3711 -0.2296
 2056TIP3    H227804   6.641   6.027   8.570  1.3594 -0.1592 -0.2784
 2057TIP3   OH227805   2.621   2.533   1.811 -0.1772  0.0533  0.4008
 2057TIP3    H127806   2.597   2.600   1.876  1.0024  0.2827  0.6241
 2057TIP3    H227807   2.654   2.583   1.737 -3.1596 -0.1110 -1.1745
 2058TIP3   OH227808   6.215   4.409   0.475 -0.3881  0.3517 -0.5088
 2058TIP3    H127809   6.155   4.378   0.544 -1.5598  0.5663 -1.3927
 2058TIP3    H227810   6.301   4.409   0.516 -0.8940 -0.6107  0.6093
 2059TIP3   OH227811   3.868   0.245   6.852 -0.0512 -0.5009  0.6590
 2059TIP3    H127812   3.924   0.250   6.775 -0.3170 -2.0978  0.3335
 2059TIP3    H227813   3.795   0.190   6.825 -1.1555  0.5121  1.4709
 2060TIP3   OH227814   0.849   0.339   0.914  0.1803  0.3429 -0.1128
 2060TIP3    H127815   0.811   0.353   1.001 -1.1176 -1.9580 -0.2161
 2060TIP3    H227816   0.850   0.244   0.903  1.4407  0.5220 -2.1580
 2061TIP3   OH227817   2.598   1.573   7.778  0.2699  0.4014  0.3756
 2061TIP3    H127818   2.687   1.544   7.793 -0.0203 -0.4353  0.5022
 2061TIP3    H227819   2.574   1.620   7.858  0.0907 -0.6404  0.9461
 2062TIP3   OH227820   3.731   4.594   6.635  0.1476  0.4719 -0.6511
 2062TIP3    H127821   3.651   4.601   6.686  0.6399  0.5380  0.1323
 2062TIP3    H227822   3.801   4.619   6.696  0.7960  0.0642 -1.2062
 2063TIP3   OH227823   2.935   0.251   8.502  0.1495 -0.2994  0.2418
 2063TIP3    H127824   2.846   0.284   8.490  1.0345  2.0095 -0.5383
 2063TIP3    H227825   2.940   0.173   8.445 -1.0130  0.2460 -0.6429
 2064TIP3   OH227826   5.805   4.864   0.004  0.3269 -0.4973 -0.7839
 2064TIP3    H127827   5.747   4.797   0.040 -0.3410 -0.8325 -2.4036
 2064TIP3    H227828   5.892   4.826   0.009  0.2266 -0.6361  0.1887
 2065TIP3   OH227829   3.050   4.262   6.551  0.2672  0.2077 -0.1952
 2065TIP3    H127830   3.092   4.178   6.532 -1.5266 -0.5978 -0.8282
 2065TIP3    H227831   3.068   4.316   6.474 -0.6502 -0.4747 -0.9132
 2066TIP3   OH227832   1.307   5.038   1.677 -0.6078 -0.5751 -0.2971
 2066TIP3    H127833   1.227   5.037   1.729  0.2205  0.0317  1.0685
 2066TIP3    H227834   1.285   4.991   1.597 -2.1334 -0.9836  0.3258
 2067TIP3   OH227835   4.758   0.510   0.660  0.2108  0.3469 -0.2749
 2067TIP3    H127836   4.819   0.569   0.705  1.3327 -0.1952 -1.0234
 2067TIP3    H227837   4.723   0.454   0.729  1.4918 -0.1110  0.0297
 2068TIP3   OH227838   5.235   3.450   7.051  0.3607 -0.4377 -0.1288
 2068TIP3    H127839   5.321   3.452   7.009  0.6222  0.6487  0.4218
 2068TIP3    H227840   5.229   3.533   7.097 -0.9849 -0.5092 -0.1392
 2069TIP3   OH227841   0.163   3.639   0.470 -0.4898  0.6556 -0.6344
 2069TIP3    H127842   0.245   3.679   0.501 -0.2143  0.7242 -1.4160
 2069TIP3    H227843   0.168   3.548   0.499 -1.1639  1.1767  1.2432
 2070TIP3   OH227844   4.904   3.804   2.630 -0.2076  0.1694  0.1049
 2070TIP3    H127845   4.914   3.898   2.643 -0.2801 -0.0260  1.7762
 2070TIP3    H227846   4.811   3.788   2.646 -0.5593  0.0320 -1.8679
 2071TIP3   OH227847   1.915   0.224   2.041  0.9180 -0.0636  0.1139
 2071TIP3    H127848   1.960   0.141   2.024  0.6987 -0.3275  0.7977
 2071TIP3    H227849   1.958   0.260   2.118 -0.9649 -1.0468  1.7222
 2072TIP3   OH227850   1.643   4.133   6.564 -0.3472 -0.1611  0.1647
 2072TIP3    H127851   1.594   4.056   6.593 -1.7697 -0.4155 -2.5299
 2072TIP3    H227852   1.580   4.205   6.569 -0.5042 -0.1231 -1.5602
 2073TIP3   OH227853   4.953   0.333   8.242  0.2527  0.1348  0.0744
 2073TIP3    H127854   4.956   0.238   8.249  0.1359  0.0951 -0.3878
 2073TIP3    H227855   4.903   0.350   8.162 -1.4965  0.6042  1.2215
 2074TIP3   OH227856   6.328   3.989   1.122 -0.2670  0.0441 -0.3193
 2074TIP3    H127857   6.253   3.934   1.145  0.2736 -1.2704 -1.4792
 2074TIP3    H227858   6.388   3.980   1.195 -0.8429  0.3539  0.1982
 2075TIP3   OH227859   0.788   1.831   8.216 -0.4009 -0.1116 -0.5251
 2075TIP3    H127860   0.761   1.852   8.126 -1.5387  1.0430  0.0546
 2075TIP3    H227861   0.733   1.887   8.271  1.3460  0.3273  0.8468
 2076TIP3   OH227862   5.743   4.424   8.231  0.0992  0.5200 -0.5116
 2076TIP3    H127863   5.763   4.346   8.283 -0.9226  0.1362 -0.6635
 2076TIP3    H227864   5.782   4.497   8.280  1.4337 -0.1237 -0.5922
 2077TIP3   OH227865   1.695   2.003   1.082  0.0302 -0.5420 -0.0600
 2077TIP3    H127866   1.763   2.067   1.060  0.2107 -0.2556  1.2058
 2077TIP3    H227867   1.671   1.963   0.999  1.9327 -0.8169 -0.5311
 2078TIP3   OH227868   5.936   4.478   1.345 -0.7106  0.1499 -0.0381
 2078TIP3    H127869   5.911   4.455   1.255 -0.0257 -0.2913 -0.1294
 2078TIP3    H227870   5.999   4.410   1.369  0.4790  1.2734  0.1276
 2079TIP3   OH227871   6.191   4.361   0.742  0.4011  0.5301  0.2684
 2079TIP3    H127872   6.278   4.399   0.725  2.0444 -3.4802 -1.6190
 2079TIP3    H227873   6.204   4.306   0.819  0.2522 -1.8495 -1.3281
 2080TIP3   OH227874   5.789   0.990   6.518  0.3517  0.0482 -0.5994
 2080TIP3    H127875   5.699   1.022   6.519  0.1403 -0.5150 -1.1615
 2080TIP3    H227876   5.782   0.896   6.532  0.9048  0.0899  0.0345
 2081TIP3   OH227877   0.300   0.421   0.630  0.2282 -0.0211 -0.1418
 2081TIP3    H127878   0.378   0.431   0.684 -0.4354 -1.6970  1.2300
 2081TIP3    H227879   0.299   0.329   0.606 -1.7683 -0.2696  0.6714
 2082TIP3   OH227880   3.417   2.695   7.767  0.1926 -0.1477  0.0088
 2082TIP3    H127881   3.466   2.670   7.689  0.2345 -0.2623  0.0715
 2082TIP3    H227882   3.464   2.770   7.802  0.1577 -0.0790 -0.0920
 2083TIP3   OH227883   5.723   4.239   1.163  0.1670  0.0406  0.0091
 2083TIP3    H127884   5.684   4.216   1.079  4.6491  0.3724 -2.4683
 2083TIP3    H227885   5.721   4.335   1.165  2.0962  0.1452 -0.9498
 2084TIP3   OH227886   1.487   3.701   0.411  0.1738 -0.1137 -0.2229
 2084TIP3    H127887   1.466   3.740   0.326 -2.2163 -3.2149 -1.2666
 2084TIP3    H227888   1.582   3.707   0.418  0.4275  0.3978 -3.0391
 2085TIP3   OH227889   6.079   5.934   2.453  0.1437  0.1312 -0.1832
 2085TIP3    H127890   6.117   6.016   2.485 -1.2376  0.6348  0.2356
 2085TIP3    H227891   6.087   5.939   2.358  0.6331  0.4474 -0.1321
 2086TIP3   OH227892   3.468   1.149   6.658 -0.2954 -0.0919  0.5278
 2086TIP3    H127893   3.543   1.202   6.630 -1.1134  0.9212  0.1747
 2086TIP3    H227894   3.479   1.065   6.613 -0.5846  0.8396 -1.3898
 2087TIP3   OH227895   4.514   2.597   7.821  0.1634  0.8893 -0.0836
 2087TIP3    H127896   4.461   2.574   7.898  0.0133  0.4129 -0.3194
 2087TIP3    H227897   4.457   2.655   7.770 -1.0203 -1.2783 -1.3812
 2088TIP3   OH227898   0.048   1.396   1.681 -0.4777 -0.4307 -0.4024
 2088TIP3    H127899   0.103   1.469   1.710  1.5287 -3.0766  3.2471
 2088TIP3    H227900  -0.041   1.430   1.684  0.4926  2.3630 -0.7443
 2089TIP3   OH227901   0.421   3.828   8.412  0.2531  0.0594  0.7634
 2089TIP3    H127902   0.394   3.813   8.503 -2.5452 -0.3338 -0.0443
 2089TIP3    H227903   0.407   3.922   8.398 -0.8009 -0.1492  0.3329
 2090TIP3   OH227904   4.156   5.207   8.728  0.6164 -0.0616 -0.2002
 2090TIP3    H127905   4.149   5.205   8.823 -0.0055 -1.0235 -0.2539
 2090TIP3    H227906   4.105   5.131   8.698  1.1036  0.0140 -1.2787
 2091TIP3   OH227907   4.291   0.200   1.829  0.2227  0.0173 -0.0965
 2091TIP3    H127908   4.263   0.207   1.920 -0.1598 -0.9806 -0.1149
 2091TIP3    H227909   4.376   0.156   1.832  1.2902  1.9677 -0.1151
 2092TIP3   OH227910   2.057   4.602   0.736 -0.4036 -0.4660 -0.5435
 2092TIP3    H127911   2.078   4.576   0.646  1.6980  0.0471 -0.2597
 2092TIP3    H227912   2.142   4.602   0.782 -1.4205 -0.7437  1.4532
 2093TIP3   OH227913   2.177   3.359   7.080 -0.4681  0.0084 -0.2878
 2093TIP3    H127914   2.135   3.327   7.161 -1.7672  0.9808 -0.5412
 2093TIP3    H227915   2.132   3.441   7.061 -0.5637 -0.4605 -2.3097
 2094TIP3   OH227916   0.898   0.195   7.236  0.7066  0.5036  0.6440
 2094TIP3    H127917   0.842   0.152   7.170 -0.3788  0.4034  1.6003
 2094TIP3    H227918   0.986   0.165   7.215  0.3835  0.4526 -0.7495
 2095TIP3   OH227919   3.527   0.923   7.207  0.5848 -0.7003 -0.1632
 2095TIP3    H127920   3.578   0.961   7.279 -0.5997 -0.3102  0.5097
 2095TIP3    H227921   3.588   0.918   7.134  1.6332 -0.4423  0.6692
 2096TIP3   OH227922   6.041   4.726   1.470  0.0890  0.4185 -0.1159
 2096TIP3    H127923   6.135   4.705   1.469  0.3413  1.5039 -0.6599
 2096TIP3    H227924   5.999   4.650   1.430  0.6414 -0.4825  0.9773
 2097TIP3   OH227925   5.613   3.174   8.455 -0.0654  0.2816  0.3409
 2097TIP3    H127926   5.551   3.245   8.441  0.3932  0.4843 -0.7507
 2097TIP3    H227927   5.696   3.207   8.419 -0.0397 -1.0939 -0.9803
 2098TIP3   OH227928   2.705   6.236   2.115  0.3881 -0.9599 -0.1649
 2098TIP3    H127929   2.760   6.241   2.193 -0.3827 -1.0401  0.3901
 2098TIP3    H227930   2.683   6.326   2.095 -0.0683 -0.9914  0.1850
 2099TIP3   OH227931   1.987   5.745   7.000  0.3421  0.3303  0.2568
 2099TIP3    H127932   1.975   5.805   6.927  0.0694  0.9008  0.7658
 2099TIP3    H227933   2.078   5.758   7.027  2.2321 -3.4819 -3.1438
 2100TIP3   OH227934   5.141   2.154   7.054  0.3038  0.1417 -0.1670
 2100TIP3    H127935   5.232   2.133   7.032 -0.4341 -1.9577 -1.5822
 2100TIP3    H227936   5.111   2.081   7.108 -0.8557  0.2130 -0.6696
 2101TIP3   OH227937   2.552   4.486   6.911 -0.1282 -0.0609  0.3925
 2101TIP3    H127938   2.530   4.495   7.003 -1.0685  1.2936  0.0694
 2101TIP3    H227939   2.565   4.576   6.880 -0.4027 -0.4345 -0.9091
 2102TIP3   OH227940   2.329   4.164   1.460  0.0442 -0.0931  0.4334
 2102TIP3    H127941   2.398   4.223   1.430  0.4141 -1.3990 -1.4548
 2102TIP3    H227942   2.308   4.111   1.384 -0.8227 -1.8680  1.8308
 2103TIP3   OH227943   1.091   2.511   7.334  0.4040  0.8010  0.3181
 2103TIP3    H127944   1.117   2.443   7.395  1.2546  1.4822  0.7456
 2103TIP3    H227945   1.118   2.478   7.248  0.6218  0.5065  0.4972
 2104TIP3   OH227946   6.684   0.915   0.670  0.2172 -0.4042  1.1727
 2104TIP3    H127947   6.650   0.986   0.725  1.5633  0.4422  0.9737
 2104TIP3    H227948   6.640   0.926   0.586  0.7707  0.5244  0.9893
 2105TIP3   OH227949   5.144   1.770   6.110 -0.6689  0.9196  0.7355
 2105TIP3    H127950   5.228   1.796   6.148 -0.5221  0.6640  0.5864
 2105TIP3    H227951   5.157   1.679   6.084  0.7234  2.2044 -4.0278
 2106TIP3   OH227952   6.485   1.999   7.497 -0.8353 -0.1646 -0.4019
 2106TIP3    H127953   6.431   2.045   7.434 -1.4993  2.8184  2.1240
 2106TIP3    H227954   6.552   2.063   7.523 -0.3252 -1.4067  1.5694
 2107TIP3   OH227955   1.756   6.037   0.312 -0.0135 -0.1009  0.0104
 2107TIP3    H127956   1.671   6.077   0.331 -0.8075 -0.7639 -1.8922
 2107TIP3    H227957   1.770   6.054   0.219  0.2503 -3.0037 -0.5805
 2108TIP3   OH227958   1.688   6.347   7.394 -0.1996 -0.1106 -0.6025
 2108TIP3    H127959   1.698   6.423   7.336  0.4253  0.8004  0.6637
 2108TIP3    H227960   1.620   6.373   7.455  0.6403 -0.1908  0.3934
 2109TIP3   OH227961   5.664   4.527   1.199  0.5203 -0.8981 -0.1269
 2109TIP3    H127962   5.736   4.555   1.143  2.2821  1.1101  2.8633
 2109TIP3    H227963   5.593   4.504   1.138  2.8863 -0.7999 -3.1349
 2110TIP3   OH227964   2.383   4.619   0.157 -0.0250 -0.1799 -0.5606
 2110TIP3    H127965   2.352   4.575   0.235  0.3673  1.3273  0.4814
 2110TIP3    H227966   2.389   4.711   0.181  0.2998  0.3058 -2.3051
 2111TIP3   OH227967   6.688   0.298   1.209  0.4002 -0.1809 -0.1655
 2111TIP3    H127968   6.620   0.365   1.204  1.0342  0.8586  2.9083
 2111TIP3    H227969   6.641   0.217   1.229 -0.1573 -0.1694 -1.3615
 2112TIP3   OH227970   1.880   0.497   6.771  0.7005  0.6684  0.2899
 2112TIP3    H127971   1.843   0.517   6.685  1.4189  3.0544  0.4819
 2112TIP3    H227972   1.961   0.450   6.752 -1.2491 -2.9103 -0.1575
 2113TIP3   OH227973   4.183   1.338   7.756 -0.5564  0.2132 -0.0956
 2113TIP3    H127974   4.119   1.378   7.697  0.4612  1.8268 -0.1392
 2113TIP3    H227975   4.249   1.301   7.699 -2.0706 -2.7790 -0.1286
 2114TIP3   OH227976   2.099   4.975   6.627  0.1424  0.0307 -0.6908
 2114TIP3    H127977   2.162   5.040   6.597  0.6421  0.4645  1.1261
 2114TIP3    H227978   2.014   5.020   6.624  0.3573  0.4738 -0.3296
 2115TIP3   OH227979   2.829   2.673   1.393 -0.3186 -0.1393  0.3044
 2115TIP3    H127980   2.869   2.635   1.315 -1.5107 -1.6014  0.3581
 2115TIP3    H227981   2.859   2.764   1.393 -0.1004 -0.1518 -1.7241
 2116TIP3   OH227982   5.748   6.724   7.390  0.2250  0.1775  0.4338
 2116TIP3    H127983   5.675   6.742   7.331  0.1218 -1.1327  0.1388
 2116TIP3    H227984   5.775   6.810   7.421 -1.7499  0.6636  0.9258
 2117TIP3   OH227985   6.179   5.099   0.656 -0.0843 -0.0043  0.1378
 2117TIP3    H127986   6.091   5.105   0.693 -0.1140 -0.1787  0.0953
 2117TIP3    H227987   6.188   5.008   0.629  0.0523  0.0497 -0.0008
 2118TIP3   OH227988   3.887   4.173   7.928  0.4666 -0.1824 -0.1046
 2118TIP3    H127989   3.922   4.171   7.839 -0.2786 -2.9008 -0.4126
 2118TIP3    H227990   3.947   4.232   7.976  1.1990  0.8912 -2.2195
 2119TIP3   OH227991   2.083   2.772   0.171  0.5079 -0.3759  0.0920
 2119TIP3    H127992   2.165   2.798   0.129 -0.4687  0.8251 -1.1617
 2119TIP3    H227993   2.106   2.696   0.224  2.1474 -0.8992 -1.2910
 2120TIP3   OH227994   3.921   4.293   0.047 -0.5848  0.2965  0.0741
 2120TIP3    H127995   3.911   4.368   0.106  0.7474  1.8198 -1.4795
 2120TIP3    H227996   3.836   4.250   0.047 -1.0418  1.0971  1.9342
 2121TIP3   OH227997   0.739   4.570   1.694  0.1650  0.8252 -0.2296
 2121TIP3    H127998   0.684   4.648   1.684  0.6654  0.9159 -3.2033
 2121TIP3    H227999   0.828   4.604   1.701  0.2512  0.5427  0.1072
 2122TIP3   OH228000   4.219   4.243   7.179  0.0860 -0.0213  0.1756
 2122TIP3    H128001   4.279   4.169   7.186 -1.9106 -1.9498 -1.7711
 2122TIP3    H228002   4.249   4.292   7.102  0.0691 -0.0992  0.1204
 2123TIP3   OH228003   4.814   5.182   6.404 -0.0873 -0.1328  0.2045
 2123TIP3    H128004   4.747   5.141   6.350 -1.5864  2.4052 -0.0100
 2123TIP3    H228005   4.878   5.217   6.341 -1.3600  2.0156 -0.0053
 2124TIP3   OH228006   2.745   6.057   7.943  0.4866 -0.1486  0.5646
 2124TIP3    H128007   2.751   5.992   7.873  1.0072 -0.4741  0.9108
 2124TIP3    H228008   2.680   6.022   8.003  0.5175 -0.1851  0.5771
 2125TIP3   OH228009   3.695   4.448   7.236  0.1784  0.0018 -0.0036
 2125TIP3    H128010   3.633   4.520   7.227  0.4625  0.3285  0.6090
 2125TIP3    H228011   3.642   4.369   7.228 -0.2036  0.2781 -0.2104
 2126TIP3   OH228012   2.564   1.343   0.661  0.3886 -0.6908 -0.3984
 2126TIP3    H128013   2.508   1.404   0.612  0.9454 -0.3939 -0.6693
 2126TIP3    H228014   2.519   1.332   0.745  0.4571  0.3835 -0.2024
 2127TIP3   OH228015   2.451   1.160   8.561 -0.1389  0.1091  0.5823
 2127TIP3    H128016   2.531   1.107   8.560 -0.0188  0.2943  0.4577
 2127TIP3    H228017   2.432   1.178   8.469 -0.4885 -0.1807  0.5966
 2128TIP3   OH228018   2.190   4.013   8.113 -0.0762 -0.2162  0.1138
 2128TIP3    H128019   2.235   3.987   8.033 -0.8743  2.3897 -1.2722
 2128TIP3    H228020   2.257   4.002   8.182  1.0844 -1.0892 -1.0906
 2129TIP3   OH228021   2.737   6.270   1.167  0.2467 -0.4162 -0.1707
 2129TIP3    H128022   2.718   6.177   1.156  1.9925 -0.9563  0.9812
 2129TIP3    H228023   2.774   6.297   1.083 -0.1248 -0.7815 -0.4576
 2130TIP3   OH228024   1.216   2.003   7.597 -0.1612 -0.2714  0.5655
 2130TIP3    H128025   1.283   2.058   7.559 -0.1595 -0.1371  0.7646
 2130TIP3    H228026   1.232   2.005   7.692 -1.9745  1.8298  0.9069
 2131TIP3   OH228027   4.011   6.856   1.412 -0.4049 -0.2327  0.4689
 2131TIP3    H128028   4.035   6.859   1.320  0.5460 -0.2756  0.6949
 2131TIP3    H228029   3.966   6.772   1.424 -0.5384 -0.2195  0.0440
 2132TIP3   OH228030   2.536   2.242   8.339 -0.2428 -0.0361 -0.6984
 2132TIP3    H128031   2.617   2.289   8.320  0.1106 -0.3281  0.0266
 2132TIP3    H228032   2.536   2.169   8.277  0.5388 -0.5812 -0.0824
 2133TIP3   OH228033   2.451   1.859   8.248 -0.2900  0.2105 -0.4103
 2133TIP3    H128034   2.369   1.858   8.296  0.0671  1.0912  0.2342
 2133TIP3    H228035   2.436   1.801   8.173 -1.2692 -0.1594  0.0628
 2134TIP3   OH228036   1.432   1.853   1.107 -0.4854 -0.4448 -0.2723
 2134TIP3    H128037   1.490   1.868   1.033  0.5487 -0.6427  0.4880
 2134TIP3    H228038   1.465   1.774   1.149 -2.4190 -1.6572 -0.8914
 2135TIP3   OH228039   1.163   2.546   1.717 -0.0549 -0.2503  0.0517
 2135TIP3    H128040   1.253   2.562   1.743  1.1971 -3.3941 -1.7965
 2135TIP3    H228041   1.119   2.518   1.797  1.7033 -2.4299  0.3616
 2136TIP3   OH228042   3.547   4.116   7.637 -0.1341 -0.1195 -0.0258
 2136TIP3    H128043   3.464   4.091   7.595 -0.4308  1.2848 -0.3293
 2136TIP3    H228044   3.604   4.139   7.564  0.0787  0.2001  0.2383
 2137TIP3   OH228045   0.297   2.946   1.037 -0.1743  0.7420  0.0278
 2137TIP3    H128046   0.290   2.959   0.942 -1.5034 -0.4048 -0.0737
 2137TIP3    H228047   0.237   3.011   1.074  0.2512  1.1065  0.0869
 2138TIP3   OH228048   6.248   4.986   1.082  0.0659 -0.2752  0.3315
 2138TIP3    H128049   6.286   5.069   1.055 -0.2740 -0.4035 -0.5851
 2138TIP3    H228050   6.245   4.934   1.001  0.6999 -1.3467  0.9750
 2139TIP3   OH228051   0.186   4.804   7.069  0.6244 -0.4973  0.3093
 2139TIP3    H128052   0.174   4.841   6.981  0.8864 -1.5300 -0.1764
 2139TIP3    H228053   0.100   4.768   7.091  0.6720 -0.6231  0.2905
 2140TIP3   OH228054   4.669   1.544   6.819 -0.6425 -0.6635 -0.3646
 2140TIP3    H128055   4.657   1.639   6.805 -2.6926 -0.6887  0.7971
 2140TIP3    H228056   4.622   1.504   6.746 -0.3103 -0.7938 -0.5077
 2141TIP3   OH228057   6.560   6.832   2.197  0.8467 -0.0574 -0.5227
 2141TIP3    H128058   6.549   6.876   2.112  2.6074  1.1643 -0.1807
 2141TIP3    H228059   6.640   6.780   2.187  0.5312 -0.6680  0.0823
 2142TIP3   OH228060   0.501   1.125   8.570 -0.0249  0.0652 -0.3506
 2142TIP3    H128061   0.457   1.047   8.537  0.1390 -0.4941  0.6785
 2142TIP3    H228062   0.586   1.125   8.525  0.3098 -0.8367  0.2351
 2143TIP3   OH228063   2.017   4.683   1.383  0.4172  0.0575 -0.1630
 2143TIP3    H128064   2.031   4.706   1.475 -1.5990 -0.8604  0.4205
 2143TIP3    H228065   1.983   4.763   1.343 -0.6122 -0.0818  0.3931
 2144TIP3   OH228066   2.104   6.727   1.221  0.0367  0.1867  0.6703
 2144TIP3    H128067   2.014   6.759   1.225  0.0151  0.6821 -1.9572
 2144TIP3    H228068   2.155   6.801   1.189  0.7850 -0.9919 -1.0560
 2145TIP3   OH228069   3.334   3.837   1.341 -0.6235  0.5152 -0.2913
 2145TIP3    H128070   3.414   3.827   1.393 -0.0970  0.0779 -1.1718
 2145TIP3    H228071   3.310   3.929   1.352 -0.4901  0.4471  0.6683
 2146TIP3   OH228072   5.643   1.152   6.800 -0.6247  0.0209 -0.0451
 2146TIP3    H128073   5.625   1.141   6.707  0.8235  1.5846 -0.5574
 2146TIP3    H228074   5.716   1.094   6.818 -1.9301 -1.5083  0.5408
 2147TIP3   OH228075   2.401   4.773   1.798 -0.1661 -0.0606 -0.3749
 2147TIP3    H128076   2.495   4.787   1.782  0.5765 -3.4563  0.1984
 2147TIP3    H228077   2.398   4.696   1.855 -3.2489  1.9341  2.5106
 2148TIP3   OH228078   2.927   1.324   6.258  0.6283 -0.3862 -0.4457
 2148TIP3    H128079   2.897   1.295   6.345  1.2796 -0.3515 -0.2077
 2148TIP3    H228080   2.846   1.334   6.208  0.3804 -3.2966 -0.7704
 2149TIP3   OH228081   2.303   0.901   8.634 -0.4707 -0.8205  0.3462
 2149TIP3    H128082   2.323   0.873   8.724 -1.9007  0.3387  1.0546
 2149TIP3    H228083   2.373   0.963   8.613 -0.2048 -0.9904  0.7008
 2150TIP3   OH228084   6.757   5.869   0.588 -0.6015 -0.2716 -0.1296
 2150TIP3    H128085   6.814   5.875   0.511 -1.7463 -0.5446 -1.0357
 2150TIP3    H228086   6.673   5.838   0.553 -0.8665 -1.3633  1.3711
 2151TIP3   OH228087   3.417   0.668   7.023 -0.2440 -0.2255  0.2392
 2151TIP3    H128088   3.510   0.658   7.041  0.1412  0.7103 -1.0958
 2151TIP3    H228089   3.398   0.601   6.957  0.3659  1.8486 -2.2021
 2152TIP3   OH228090   6.145   3.896   2.529 -0.2968  0.3496  0.2655
 2152TIP3    H128091   6.097   3.907   2.447  1.9917 -1.3441 -1.4458
 2152TIP3    H228092   6.188   3.980   2.543 -0.9964  0.7671 -0.0424
 2153TIP3   OH228093   6.343   5.882   2.235  0.5505  0.1487  0.6287
 2153TIP3    H128094   6.366   5.885   2.328  1.3691 -0.4617  0.4674
 2153TIP3    H228095   6.272   5.945   2.225 -0.4234 -0.6828  1.9070
 2154TIP3   OH228096   0.185   6.007   1.289  0.4947 -0.7260 -0.1841
 2154TIP3    H128097   0.249   6.065   1.329 -2.0697  0.6475  2.4018
 2154TIP3    H228098   0.141   6.060   1.223  0.1088 -0.6547  0.1214
 2155TIP3   OH228099   0.763   6.008   1.033 -0.1021 -0.0283 -0.6790
 2155TIP3    H128100   0.790   5.972   1.118  0.1420  0.3812 -0.5823
 2155TIP3    H228101   0.708   6.082   1.055  2.6090  2.1787 -0.8139
 2156TIP3   OH228102   2.527   4.794   7.177  0.4891 -0.2464  0.1014
 2156TIP3    H128103   2.553   4.702   7.169  0.4141 -0.3496  0.9512
 2156TIP3    H228104   2.435   4.790   7.205  0.4292  0.0878 -0.0494
 2157TIP3   OH228105   6.186   0.960   1.215  0.7375 -0.5599 -0.4139
 2157TIP3    H128106   6.117   0.910   1.259 -1.3887  2.5122  0.0605
 2157TIP3    H228107   6.149   0.979   1.129  0.4149  2.0423  0.2269
 2158TIP3   OH228108   4.531   0.201   6.983 -0.2665 -0.0137 -0.0205
 2158TIP3    H128109   4.514   0.138   6.913  1.1506 -1.4122  0.8334
 2158TIP3    H228110   4.580   0.272   6.940  0.4343 -0.7732 -0.4973
 2159TIP3   OH228111   3.096   1.498   6.391  0.0949  0.7651  0.0521
 2159TIP3    H128112   3.074   1.436   6.461  0.7643  0.5894  0.1200
 2159TIP3    H228113   3.050   1.464   6.314  2.4495 -1.3424 -0.5548
 2160TIP3   OH228114   2.839   4.563   7.403  0.6115 -0.3971 -0.5350
 2160TIP3    H128115   2.772   4.498   7.380  0.2962 -0.5951  0.8689
 2160TIP3    H228116   2.902   4.515   7.457  0.0345  0.5704  1.0810
 2161TIP3   OH228117   0.972   0.494   0.324  0.0863 -0.1168  0.1081
 2161TIP3    H128118   1.046   0.472   0.381 -0.1213  1.2628  0.9654
 2161TIP3    H228119   0.898   0.504   0.385 -0.8784 -1.6757 -0.7503
 2162TIP3   OH228120   4.521   1.155   6.877  0.3828 -0.2953 -0.5357
 2162TIP3    H128121   4.499   1.165   6.784  3.7062  0.1169 -1.4142
 2162TIP3    H228122   4.612   1.124   6.877  0.7077  0.3106  2.6043
 2163TIP3   OH228123   0.068   3.226   8.199  0.0481  0.4485 -0.4876
 2163TIP3    H128124   0.150   3.204   8.242  0.4100  0.1217 -1.3220
 2163TIP3    H228125   0.047   3.149   8.146 -1.3747  0.0853  0.5422
 2164TIP3   OH228126   1.094   3.037   0.602 -0.3920 -0.4377 -0.1877
 2164TIP3    H128127   1.157   3.104   0.576  0.0979 -1.3746 -1.5739
 2164TIP3    H228128   1.049   3.015   0.520 -1.0570 -1.2513  0.3929
 2165TIP3   OH228129   1.819   4.391   1.590  0.2006  0.2244  0.2715
 2165TIP3    H128130   1.815   4.411   1.683  0.1532 -1.3353  0.6203
 2165TIP3    H228131   1.910   4.406   1.566  0.4261 -0.3151  0.7896
 2166TIP3   OH228132   5.142   4.673   1.832  0.7720  0.3587  0.3214
 2166TIP3    H128133   5.123   4.649   1.742  1.0113  1.5760 -0.0795
 2166TIP3    H228134   5.197   4.752   1.825 -0.9402  1.7416  1.5399
 2167TIP3   OH228135   4.706   1.386   7.846  0.2558 -0.3321 -0.3481
 2167TIP3    H128136   4.773   1.443   7.883  0.2148 -1.3791  1.4487
 2167TIP3    H228137   4.659   1.352   7.922 -1.0742 -1.1233 -1.4781
 2168TIP3   OH228138   3.024   6.507   0.565  0.1439 -0.1148 -0.1707
 2168TIP3    H128139   3.073   6.450   0.624  0.2128  0.9122  0.7982
 2168TIP3    H228140   2.964   6.555   0.623 -4.8169 -3.8318 -1.4985
 2169TIP3   OH228141   5.908   4.152   0.841  0.1886  0.1170  0.7386
 2169TIP3    H128142   5.863   4.236   0.844 -1.1462 -0.6169  2.0937
 2169TIP3    H228143   5.861   4.101   0.775  3.2250  1.5555 -2.9112
 2170TIP3   OH228144   0.274   5.053   6.988  0.1955  0.5158 -0.3869
 2170TIP3    H128145   0.311   4.994   7.053  0.1984  0.2015 -0.6695
 2170TIP3    H228146   0.196   5.090   7.030 -0.5974 -0.7400 -0.6987
 2171TIP3   OH228147   2.907   1.953   6.921 -0.6756 -0.5669 -0.1985
 2171TIP3    H128148   2.986   2.006   6.931 -0.1478 -0.9045 -2.1840
 2171TIP3    H228149   2.857   1.969   7.001  0.8429  0.5854  0.5659
 2172TIP3   OH228150   6.303   5.555   1.459 -0.1333  0.0962  0.4712
 2172TIP3    H128151   6.227   5.505   1.428 -0.0851  1.4728 -2.1329
 2172TIP3    H228152   6.378   5.511   1.418  0.2741  0.1197  1.1767
 2173TIP3   OH228153   1.498   5.494   7.488 -0.8975 -0.0875  0.7885
 2173TIP3    H128154   1.428   5.477   7.551  1.1062 -0.3670  3.0766
 2173TIP3    H228155   1.490   5.587   7.468 -1.2042  0.1545  1.9516
 2174TIP3   OH228156   1.340   5.143   8.695 -0.2276 -0.2221  0.3218
 2174TIP3    H128157   1.417   5.200   8.703 -0.4898  0.1939 -0.0781
 2174TIP3    H228158   1.352   5.099   8.610 -0.4422 -0.1421  0.2508
 2175TIP3   OH228159   4.742   0.801   2.067  0.4545  0.1383  0.7103
 2175TIP3    H128160   4.731   0.854   2.146 -1.3800 -1.6043  1.7086
 2175TIP3    H228161   4.709   0.856   1.996  0.4699  1.0749  1.4120
 2176TIP3   OH228162   0.212   2.347   8.229 -0.0283 -0.3192  0.2301
 2176TIP3    H128163   0.245   2.400   8.157  0.1293  1.4252  1.5217
 2176TIP3    H228164   0.288   2.297   8.259  0.7889  1.4256  1.2499
 2177TIP3   OH228165   2.395   0.002   7.234  0.3344  0.4499 -0.1654
 2177TIP3    H128166   2.303   0.010   7.207  0.3340  1.6072  0.1247
 2177TIP3    H228167   2.444   0.048   7.165  0.5694  1.0639  0.4033
 2178TIP3   OH228168   2.266   0.412   7.175  0.4389 -0.2527  0.7493
 2178TIP3    H128169   2.285   0.406   7.081  0.0068  2.4314  0.4292
 2178TIP3    H228170   2.219   0.331   7.195  1.8644 -1.5788 -0.9811
 2179TIP3   OH228171   3.809   5.116   8.593  0.2498  0.2712  0.2454
 2179TIP3    H128172   3.898   5.124   8.628  0.5193  1.2590 -0.6021
 2179TIP3    H228173   3.791   5.202   8.554 -1.0933  0.0927  0.4343
 2180TIP3   OH228174   4.238   0.559   1.362 -0.1803 -0.4557 -0.6917
 2180TIP3    H128175   4.205   0.599   1.443 -0.4388 -0.5752 -0.7350
 2180TIP3    H228176   4.161   0.518   1.323  0.2117 -1.6024 -0.2930
 2181TIP3   OH228177   1.924   5.120   0.615 -0.4184 -0.0463 -0.1847
 2181TIP3    H128178   1.853   5.172   0.577 -0.1810  1.2425  1.0305
 2181TIP3    H228179   1.905   5.119   0.708  1.5465  1.0329  0.2829
 2182TIP3   OH228180   4.638   2.881   6.915 -0.0139  0.2318 -0.1646
 2182TIP3    H128181   4.553   2.909   6.947  0.2011  0.3247  0.3277
 2182TIP3    H228182   4.690   2.962   6.911  0.0194  0.1940 -0.5702
 2183TIP3   OH228183   1.096   5.372   0.574 -0.6159  0.3487  0.1246
 2183TIP3    H128184   1.088   5.419   0.491 -0.4422 -0.9467 -0.6687
 2183TIP3    H228185   1.012   5.385   0.617 -1.0758  0.2449 -0.7172
 2184TIP3   OH228186   5.492   2.898   8.152  0.1916 -0.7777  0.2432
 2184TIP3    H128187   5.575   2.902   8.199  0.3807 -3.0577  0.2202
 2184TIP3    H228188   5.427   2.931   8.214  1.1520  1.6905  0.0211
 2185TIP3   OH228189   2.186   1.408   7.089  0.3364 -0.2934 -0.0967
 2185TIP3    H128190   2.108   1.454   7.056 -0.1278 -0.1287  1.1715
 2185TIP3    H228191   2.249   1.414   7.018 -0.4840  0.4090 -0.7872
 2186TIP3   OH228192   5.644   4.855   7.327 -0.2553 -0.3605 -0.7154
 2186TIP3    H128193   5.731   4.840   7.363 -0.8572 -0.6842  0.6595
 2186TIP3    H228194   5.628   4.780   7.270  0.1930 -0.5150 -0.6394
 2187TIP3   OH228195   1.586   5.361   7.067  0.4012  0.1780 -0.7747
 2187TIP3    H128196   1.636   5.438   7.093  0.7983  0.6662 -2.8277
 2187TIP3    H228197   1.495   5.384   7.086  0.6177  0.7478 -0.4168
 2188TIP3   OH228198   0.660   0.352   1.124 -0.3485  0.4874 -0.4210
 2188TIP3    H128199   0.669   0.429   1.180 -1.4763 -0.2837  0.8796
 2188TIP3    H228200   0.669   0.277   1.184  0.2563 -0.3946 -1.5755
 2189TIP3   OH228201   3.154   3.912   0.859  0.1361 -0.4073  0.5871
 2189TIP3    H128202   3.155   3.833   0.913 -0.1690 -1.1556 -0.4841
 2189TIP3    H228203   3.247   3.934   0.847  0.2284 -0.7557  0.6697
 2190TIP3   OH228204   4.162   5.275   1.057 -0.4407 -0.3594  0.1036
 2190TIP3    H128205   4.231   5.310   1.001 -1.5689  0.6936 -0.6928
 2190TIP3    H228206   4.208   5.231   1.128  1.0586 -1.5832 -1.5186
 2191TIP3   OH228207   6.156   4.979   7.622 -0.3115  0.2995  0.1169
 2191TIP3    H128208   6.230   4.982   7.682  0.7353 -0.1853 -1.0904
 2191TIP3    H228209   6.081   4.956   7.676  0.1345  2.0792  1.6127
 2192TIP3   OH228210   3.114   3.039   2.116 -0.1628 -0.3341  0.2473
 2192TIP3    H128211   3.178   3.034   2.187  0.2155 -0.8719 -0.1326
 2192TIP3    H228212   3.066   2.956   2.122  0.2720 -0.6469 -0.5030
 2193TIP3   OH228213   6.310   3.706   7.535  0.1019 -0.3021 -0.1672
 2193TIP3    H128214   6.385   3.680   7.481 -1.1210 -1.8497 -1.2114
 2193TIP3    H228215   6.340   3.784   7.582  2.5226 -1.1531 -0.1768
 2194TIP3   OH228216   5.348   4.623   1.257  0.7474 -0.3654  0.5480
 2194TIP3    H128217   5.379   4.621   1.348  1.6266 -1.1268  0.2438
 2194TIP3    H228218   5.343   4.716   1.236  1.5586 -0.1983  1.0386
 2195TIP3   OH228219   1.608   5.042   7.601 -0.1423  0.3098  0.3149
 2195TIP3    H128220   1.673   5.070   7.665  1.0985  0.4274 -0.9438
 2195TIP3    H228221   1.584   5.123   7.555 -0.2841  0.0811 -0.0129
 2196TIP3   OH228222   6.771   5.018   7.791  0.3145 -0.0603 -0.2359
 2196TIP3    H128223   6.820   4.943   7.827  2.3204  1.5076  0.4851
 2196TIP3    H228224   6.839   5.073   7.751 -1.0416  1.6663 -0.2295
 2197TIP3   OH228225   3.763   5.515   7.226 -0.0053  0.4340 -0.0287
 2197TIP3    H128226   3.746   5.480   7.314  0.3208 -0.3875 -0.2820
 2197TIP3    H228227   3.805   5.443   7.179  0.1974  0.9992 -0.7394
 2198TIP3   OH228228   2.363   2.117   6.756 -0.2511  0.3224  0.3679
 2198TIP3    H128229   2.419   2.122   6.679  2.0807  1.2225  1.9839
 2198TIP3    H228230   2.354   2.208   6.785 -1.4530  0.0532  0.9116
 2199TIP3   OH228231   0.329   5.254   0.118  0.0318  0.4379  0.1053
 2199TIP3    H128232   0.420   5.225   0.128  0.5631  1.8488 -0.3252
 2199TIP3    H228233   0.316   5.319   0.187 -0.2087  1.2203 -0.6547
 2200TIP3   OH228234   6.492   5.232   1.498 -0.2020  0.5703  0.7559
 2200TIP3    H128235   6.405   5.225   1.460  1.4353 -2.1186 -3.0869
 2200TIP3    H228236   6.536   5.297   1.443  1.3263 -1.1231 -0.1239
 2201TIP3   OH228237   6.362   2.449   2.381 -0.1371  0.3347 -0.1157
 2201TIP3    H128238   6.330   2.360   2.397 -2.6270  1.0299 -0.7437
 2201TIP3    H228239   6.400   2.476   2.465  1.0193 -1.4081 -0.0279
 2202TIP3   OH228240   0.394   0.960   0.115  0.0434  0.3957  0.7381
 2202TIP3    H128241   0.414   0.870   0.140 -0.0074  0.0876 -0.2870
 2202TIP3    H228242   0.478   1.005   0.114  0.2201  0.0631  0.1408
 2203TIP3   OH228243   0.703   3.597   0.217  0.2829 -0.2892 -0.1230
 2203TIP3    H128244   0.641   3.614   0.288  1.1200 -0.0774  0.5771
 2203TIP3    H228245   0.648   3.567   0.144 -0.9584  2.2737 -0.3714
 2204TIP3   OH228246   1.137   6.376   2.385 -0.2839 -0.0945  0.1291
 2204TIP3    H128247   1.158   6.435   2.458 -0.7496  0.1022  0.1110
 2204TIP3    H228248   1.117   6.292   2.427 -1.4842  0.2626  0.3242
 2205TIP3   OH228249   3.641   0.253   0.698 -0.3764 -0.3166  0.0912
 2205TIP3    H128250   3.632   0.319   0.629  1.1753 -0.4507 -0.2902
 2205TIP3    H228251   3.699   0.187   0.660  1.2791  0.0684  1.7985
 2206TIP3   OH228252   5.272   4.393   7.228 -0.1523  0.6571 -0.3297
 2206TIP3    H128253   5.361   4.402   7.193  0.3342 -0.5639  0.5210
 2206TIP3    H228254   5.234   4.320   7.180  0.1271 -0.2970  0.8553
 2207TIP3   OH228255   1.943   4.681   0.255  0.1282 -0.2768  0.2351
 2207TIP3    H128256   1.890   4.633   0.191 -0.8378 -0.3544  1.0519
 2207TIP3    H228257   1.986   4.750   0.205 -1.7476  0.5876 -0.3079
 2208TIP3   OH228258   1.842   2.157   7.069 -0.0672 -0.8131 -0.1894
 2208TIP3    H128259   1.763   2.209   7.057 -0.0902 -0.4272  1.4618
 2208TIP3    H228260   1.812   2.066   7.064 -0.3682 -0.6790 -0.9778
 2209TIP3   OH228261   3.259   1.886   8.802  0.8690 -0.0721 -0.2056
 2209TIP3    H128262   3.253   1.880   8.897  2.0347 -0.0744 -0.1084
 2209TIP3    H228263   3.219   1.970   8.781 -2.8214 -1.6542 -0.1412
 2210TIP3   OH228264   3.427   2.593   1.625 -1.0102 -0.4322 -0.6232
 2210TIP3    H128265   3.334   2.613   1.617 -1.6674 -3.2197 -0.9412
 2210TIP3    H228266   3.459   2.589   1.535 -0.8372 -0.5247 -0.5591
 2211TIP3   OH228267   5.170   4.680   7.379 -0.1537  0.5243 -0.2329
 2211TIP3    H128268   5.243   4.700   7.320 -0.4853  1.3918 -0.3615
 2211TIP3    H228269   5.101   4.742   7.353 -0.6650  0.2164  0.3831
 2212TIP3   OH228270   4.164   3.071   8.759  0.0071 -0.4821  0.2793
 2212TIP3    H128271   4.074   3.104   8.762  0.3151  0.3891  0.2319
 2212TIP3    H228272   4.188   3.058   8.851 -0.7285 -2.3543  0.2558
 2213TIP3   OH228273   3.457   0.162   7.979 -0.4930 -0.4179 -0.3709
 2213TIP3    H128274   3.395   0.110   8.030 -2.3351  0.7349 -1.3339
 2213TIP3    H228275   3.439   0.252   8.004 -1.1164  0.1394 -2.6612
 2214TIP3   OH228276   6.570   5.904   1.527  0.3468 -0.0170  0.0944
 2214TIP3    H128277   6.529   5.903   1.613 -0.5612  0.6315 -0.3211
 2214TIP3    H228278   6.664   5.905   1.545  0.1636  1.2328  1.0907
 2215TIP3   OH228279   4.472   5.565   0.268 -0.3802  0.0527  0.4495
 2215TIP3    H128280   4.533   5.491   0.265 -1.9346 -1.2664 -0.9615
 2215TIP3    H228281   4.408   5.541   0.335  1.0269  1.8370  2.5686
 2216TIP3   OH228282   0.074   3.412   7.222 -0.1177 -0.3703 -0.1044
 2216TIP3    H128283   0.156   3.398   7.174  0.2575 -1.1697  0.7329
 2216TIP3    H228284   0.100   3.407   7.314 -0.5850  2.3345  0.2775
 2217TIP3   OH228285   6.810   3.472   1.549  0.4623 -0.5421 -1.2462
 2217TIP3    H128286   6.731   3.418   1.557  0.0385  0.2707  0.5997
 2217TIP3    H228287   6.872   3.433   1.610  1.0653 -0.4394 -1.7867
 2218TIP3   OH228288   0.531   2.698   8.495 -0.0530  0.2857  0.8144
 2218TIP3    H128289   0.615   2.734   8.523 -0.0936  0.1956  1.0513
 2218TIP3    H228290   0.553   2.636   8.426  0.0655  0.3408  0.8024
 2219TIP3   OH228291   1.230   3.470   8.192  0.2683  0.4117 -0.2246
 2219TIP3    H128292   1.207   3.379   8.213 -1.6065  1.0937  0.9289
 2219TIP3    H228293   1.321   3.465   8.163  0.3209 -1.7906  0.1053
 2220TIP3   OH228294   2.288   6.815   1.809 -0.0006 -0.3433  0.4419
 2220TIP3    H128295   2.277   6.724   1.781 -1.3312 -0.4539  1.2449
 2220TIP3    H228296   2.290   6.811   1.905  0.3854  0.4403  0.4803
 2221TIP3   OH228297   6.587   1.519   7.895  0.1458 -0.1007 -0.3480
 2221TIP3    H128298   6.654   1.464   7.854 -0.6928 -2.2459  0.9971
 2221TIP3    H228299   6.515   1.521   7.832  0.0038 -0.9444 -0.2183
 2222TIP3   OH228300   5.503   4.044   7.413 -0.3524 -0.4543 -0.4420
 2222TIP3    H128301   5.537   4.131   7.394  1.4151 -1.1609 -0.7071
 2222TIP3    H228302   5.474   4.010   7.328 -0.9970 -0.1489 -0.3466
 2223TIP3   OH228303   3.422   3.382   0.143 -0.3999 -0.2276  0.0861
 2223TIP3    H128304   3.512   3.393   0.175  0.7546 -2.2701 -2.0924
 2223TIP3    H228305   3.400   3.467   0.104  0.5122  0.3501  0.7746
 2224TIP3   OH228306   0.197   0.581   8.297 -0.4160  0.0652 -0.0238
 2224TIP3    H128307   0.164   0.648   8.238  2.8398  2.5514  0.6635
 2224TIP3    H228308   0.241   0.517   8.240 -0.9283  0.1394 -0.5079
 2225TIP3   OH228309   3.567   3.765   0.700 -0.3250  0.0361 -0.2486
 2225TIP3    H128310   3.638   3.813   0.658  0.0528 -0.6984 -0.4605
 2225TIP3    H228311   3.544   3.818   0.776  0.5907  0.1816 -0.0657
 2226TIP3   OH228312   5.515   5.080   0.679  0.3759 -0.5507 -0.1942
 2226TIP3    H128313   5.431   5.124   0.695  0.0051 -0.8801 -1.1399
 2226TIP3    H228314   5.573   5.149   0.647  0.7550 -0.1383  1.3096
 2227TIP3   OH228315   4.603   3.729   0.559  0.3559 -0.4366 -0.3493
 2227TIP3    H128316   4.618   3.637   0.579  4.2733  0.0206 -0.4140
 2227TIP3    H228317   4.633   3.739   0.469  1.7779  1.1838  0.2492
 2228TIP3   OH228318   1.061   3.838   8.377  1.0902 -0.0477 -0.0581
 2228TIP3    H128319   1.020   3.911   8.422  1.7625  0.6022 -0.4805
 2228TIP3    H228320   1.056   3.766   8.439  2.1649  0.8808  1.1429
 2229TIP3   OH228321   5.858   2.067   8.749 -0.3018  0.2396  0.4211
 2229TIP3    H128322   5.898   1.982   8.732 -0.9866 -0.1706  0.7974
 2229TIP3    H228323   5.924   2.131   8.722 -0.4963 -0.3766 -1.6656
 2230TIP3   OH228324   2.237   4.253   6.569  0.2683  0.6176 -0.2131
 2230TIP3    H128325   2.200   4.208   6.493 -0.1717 -2.3081  1.5946
 2230TIP3    H228326   2.166   4.309   6.601 -1.0182 -1.2602  0.3698
 2231TIP3   OH228327   4.204   0.223   0.843  0.3046  0.3515  0.2565
 2231TIP3    H128328   4.124   0.276   0.852  1.1176  1.5293  0.9112
 2231TIP3    H228329   4.175   0.133   0.855 -0.8361  0.8138  1.2380
 2232TIP3   OH228330   3.890   0.596   2.281  0.1821  0.2596  0.1328
 2232TIP3    H128331   3.965   0.537   2.287  0.3823  0.6261  1.9100
 2232TIP3    H228332   3.912   0.669   2.339 -1.5871  0.3196  0.8144
 2233TIP3   OH228333   5.937   5.940   8.648  0.6387 -0.0890 -0.0332
 2233TIP3    H128334   5.938   5.846   8.669 -1.2603  0.1484  1.3162
 2233TIP3    H228335   5.872   5.947   8.578  1.8011  0.0891 -1.1452
 2234TIP3   OH228336   5.366   5.220   1.156 -0.0023 -0.1428  0.0685
 2234TIP3    H128337   5.416   5.211   1.238  1.6538  0.7986 -0.7804
 2234TIP3    H228338   5.323   5.305   1.163  0.9392  0.3981 -0.4011
 2235TIP3   OH228339   6.703   2.440   0.648 -0.1066  0.0170 -0.2553
 2235TIP3    H128340   6.615   2.407   0.668 -1.1151  2.8462  0.4409
 2235TIP3    H228341   6.689   2.503   0.577  1.1038  1.5544  0.7932
 2236TIP3   OH228342   2.638   5.717   8.659  0.1730  0.4868 -0.1250
 2236TIP3    H128343   2.600   5.660   8.592  0.3374 -0.6921  0.7553
 2236TIP3    H228344   2.657   5.799   8.613 -1.0970  0.2326 -1.1648
 2237TIP3   OH228345   5.140   2.878   0.918 -0.0218 -0.2853  0.6732
 2237TIP3    H128346   5.151   2.922   1.002 -0.3872  2.7316 -0.7233
 2237TIP3    H228347   5.060   2.827   0.927 -0.5425  0.7123  1.8795
 2238TIP3   OH228348   0.212   6.791   8.688  0.4908  0.3241  0.2927
 2238TIP3    H128349   0.265   6.870   8.675 -0.3815  1.2610  2.0974
 2238TIP3    H228350   0.270   6.719   8.662  1.7924  1.4487 -0.0597
 2239TIP3   OH228351   0.222   3.186   0.210  0.8442 -0.0555  0.1813
 2239TIP3    H128352   0.211   3.091   0.211  2.0069 -0.2235 -1.0664
 2239TIP3    H228353   0.205   3.211   0.119  0.0740  1.0032  0.6000
 2240TIP3   OH228354   1.589   4.533   6.975  0.0151 -0.0997 -0.1461
 2240TIP3    H128355   1.587   4.531   6.880  1.1054  0.0946 -0.1898
 2240TIP3    H228356   1.674   4.572   6.996  0.7522 -2.1045  0.8976
 2241TIP3   OH228357   1.281   6.049   7.276 -0.6229 -1.0223 -0.3105
 2241TIP3    H128358   1.313   6.065   7.187 -0.0540  0.7676  0.1635
 2241TIP3    H228359   1.317   5.964   7.300  2.0957 -0.0416 -0.5902
 2242TIP3   OH228360   5.493   0.775   8.217  0.1512 -0.5376 -0.0938
 2242TIP3    H128361   5.575   0.737   8.250  1.0491  0.6206 -0.9369
 2242TIP3    H228362   5.434   0.774   8.293  1.8858  1.2913  1.3653
 2243TIP3   OH228363   1.182   5.749   0.202 -0.0372 -0.3534 -0.1605
 2243TIP3    H128364   1.115   5.777   0.140 -0.8372 -1.2827  0.2617
 2243TIP3    H228365   1.135   5.737   0.284  0.6539 -0.9791  0.1537
 2244TIP3   OH228366   6.098   5.273   8.340 -0.4191  0.0680 -0.3091
 2244TIP3    H128367   6.137   5.325   8.270 -0.5653 -1.2383 -1.4030
 2244TIP3    H228368   6.009   5.255   8.310 -1.2983  1.4496  1.3068
 2245TIP3   OH228369   4.605   2.729   1.468 -0.8032 -0.3100  0.1532
 2245TIP3    H128370   4.626   2.688   1.552  0.1193  2.3752  1.3356
 2245TIP3    H228371   4.509   2.736   1.468 -0.7373  1.6263  2.0698
 2246TIP3   OH228372   2.148   6.428   8.638  0.2412 -0.8078 -0.1054
 2246TIP3    H128373   2.223   6.452   8.584  0.3188 -0.8650 -0.0216
 2246TIP3    H228374   2.159   6.335   8.656 -0.1692 -0.9594 -0.6023
 2247TIP3   OH228375   1.105   1.083   0.785 -0.6126 -0.4052 -0.6205
 2247TIP3    H128376   1.189   1.050   0.753 -1.4404 -1.0902 -2.2202
 2247TIP3    H228377   1.066   1.127   0.709 -1.7702 -0.2234  0.0488
 2248TIP3   OH228378   4.413   3.363   1.163 -0.1231  0.2956  0.5265
 2248TIP3    H128379   4.339   3.416   1.193 -1.5450 -1.3680  0.1611
 2248TIP3    H228380   4.445   3.320   1.242 -1.1748 -0.8573  0.3694
 2249TIP3   OH228381   0.292   3.096   7.619 -0.2317 -0.0861 -0.1497
 2249TIP3    H128382   0.285   3.172   7.677  0.4019 -1.4465  1.7871
 2249TIP3    H228383   0.220   3.039   7.646  0.6580 -1.1721  0.0181
 2250TIP3   OH228384   2.947   3.339   8.024  0.3676  0.3268 -0.0178
 2250TIP3    H128385   2.909   3.350   7.937  0.4368 -0.2771 -0.1313
 2250TIP3    H228386   2.877   3.365   8.084 -0.2270 -0.6958 -0.2239
 2251TIP3   OH228387   2.434   2.755   7.724  0.0739 -0.1613  0.1963
 2251TIP3    H128388   2.500   2.751   7.793 -0.0330  1.1646  0.3930
 2251TIP3    H228389   2.402   2.665   7.717 -0.7112 -0.1519  2.6570
 2252TIP3   OH228390   2.285   1.315   0.369 -0.4064 -0.0425 -0.1372
 2252TIP3    H128391   2.262   1.382   0.305  0.2775  3.1520  2.7201
 2252TIP3    H228392   2.377   1.294   0.349 -0.6856 -0.3482 -1.1707
 2253TIP3   OH228393   5.570   3.373   0.843 -0.2734 -0.2338  0.2031
 2253TIP3    H128394   5.476   3.367   0.826 -0.4260 -0.0573  0.9784
 2253TIP3    H228395   5.599   3.282   0.845 -0.7736 -0.3852  1.8226
 2254TIP3   OH228396   2.890   5.736   8.312  0.3424  0.0266 -0.2470
 2254TIP3    H128397   2.964   5.717   8.369 -1.3740 -2.2727  1.4019
 2254TIP3    H228398   2.888   5.664   8.250 -0.1970  0.3828 -0.6558
 2255TIP3   OH228399   3.184   4.217   6.814 -0.2656  0.3314 -0.4265
 2255TIP3    H128400   3.248   4.280   6.781 -0.5796  0.8521 -0.0625
 2255TIP3    H228401   3.192   4.142   6.756  0.5754  0.4454 -0.4729
 2256TIP3   OH228402   3.729   6.462   1.532 -0.1598 -0.1294  0.4179
 2256TIP3    H128403   3.666   6.459   1.604 -0.5022  0.6559  0.1633
 2256TIP3    H228404   3.692   6.525   1.470  1.8455  2.0124  1.2255
 2257TIP3   OH228405   3.231   4.020   0.177 -0.2756 -0.2744  0.3913
 2257TIP3    H128406   3.210   4.096   0.231 -1.5018 -0.4707  0.2200
 2257TIP3    H228407   3.157   3.961   0.188  0.4985 -1.3081  0.2459
 2258TIP3   OH228408   3.455   2.698   6.994  0.3995 -0.5825  0.5154
 2258TIP3    H128409   3.523   2.634   7.014 -0.4100 -1.5110  0.3717
 2258TIP3    H228410   3.387   2.648   6.949  0.7947  0.8587 -1.8045
 2259TIP3   OH228411   1.335   6.074   0.829  0.0232  0.0985 -0.2919
 2259TIP3    H128412   1.331   6.149   0.770  0.1763  0.2883 -0.0584
 2259TIP3    H228413   1.329   6.111   0.917 -0.3403 -0.1973 -0.1884
 2260TIP3   OH228414   2.996   2.098   7.859  0.3223 -0.6062 -0.4045
 2260TIP3    H128415   3.038   2.012   7.863  1.3209 -0.1236 -0.0244
 2260TIP3    H228416   3.069   2.160   7.854 -0.3528  0.2594  0.1070
 2261TIP3   OH228417   1.950   3.083   8.563  0.3303 -0.5252 -0.1823
 2261TIP3    H128418   2.033   3.113   8.526 -0.2697  1.6263  0.0865
 2261TIP3    H228419   1.972   3.002   8.608  2.2124 -0.1875 -0.4053
 2262TIP3   OH228420   6.033   4.510   7.187 -0.8094  0.3262 -0.0643
 2262TIP3    H128421   5.999   4.594   7.153  0.0810  0.5592 -0.4068
 2262TIP3    H228422   6.100   4.535   7.250  1.7983 -0.0345 -2.4596
 2263TIP3   OH228423   2.219   3.760   2.577  0.0204 -0.8865  0.1619
 2263TIP3    H128424   2.248   3.687   2.631 -0.7331 -1.2960  0.0256
 2263TIP3    H228425   2.125   3.766   2.593  0.3757  1.5013  1.9247
 2264TIP3   OH228426   1.008   6.110   2.277 -0.1450  0.3987 -0.3163
 2264TIP3    H128427   0.966   6.127   2.361  0.1086  2.8823 -0.6277
 2264TIP3    H228428   1.081   6.050   2.298  0.4465  1.6407  1.3809
 2265TIP3   OH228429   2.491   3.012   8.729 -0.0684  0.1000 -0.9529
 2265TIP3    H128430   2.507   3.070   8.654 -0.3969  2.5330  0.7480
 2265TIP3    H228431   2.571   3.018   8.781  0.1851 -1.6329 -1.0904
 2266TIP3   OH228432   0.808   3.138   0.665  0.1476  0.3180 -0.1194
 2266TIP3    H128433   0.756   3.065   0.700  1.0270 -0.9107 -1.3180
 2266TIP3    H228434   0.896   3.103   0.655  0.5269  1.4600 -1.0156
 2267TIP3   OH228435   6.840   3.572   7.597 -0.4425 -0.4543 -0.0512
 2267TIP3    H128436   6.863   3.503   7.660 -1.6216 -1.5606 -0.7889
 2267TIP3    H228437   6.748   3.592   7.615 -0.7527 -0.6703 -1.2797
 2268TIP3   OH228438   1.682   2.288   0.769 -0.4485 -0.0419 -0.3259
 2268TIP3    H128439   1.636   2.323   0.845  0.7628 -0.0583  0.4491
 2268TIP3    H228440   1.715   2.203   0.798 -0.0256 -0.0750 -0.8854
 2269TIP3   OH228441   0.553   4.664   8.678 -0.0514 -0.1620 -0.5314
 2269TIP3    H128442   0.485   4.681   8.742  1.1249  0.0442  0.6980
 2269TIP3    H228443   0.598   4.748   8.666  1.3956 -0.7729  0.3757
 2270TIP3   OH228444   6.654   6.481   0.379 -0.1706  0.6365  0.1522
 2270TIP3    H128445   6.683   6.474   0.470  1.1028  1.7289 -0.1247
 2270TIP3    H228446   6.734   6.470   0.328 -1.0018 -0.8689 -0.9067
 2271TIP3   OH228447   3.461   4.668   7.941 -0.2143 -0.1181  0.7887
 2271TIP3    H128448   3.548   4.640   7.970 -0.1633 -0.2348  0.5246
 2271TIP3    H228449   3.454   4.636   7.851 -0.9702 -1.1044  1.1733
 2272TIP3   OH228450   1.127   4.666   6.772 -0.2033  0.1598  0.5959
 2272TIP3    H128451   1.194   4.610   6.732  0.2832 -0.1567  1.8222
 2272TIP3    H228452   1.151   4.671   6.864 -1.0652  1.2261  0.7839
 2273TIP3   OH228453   0.365   2.200   7.481 -0.0764 -0.0903  0.0063
 2273TIP3    H128454   0.362   2.215   7.387  1.0740  0.6214  0.0559
 2273TIP3    H228455   0.320   2.275   7.519  0.4088  0.1846  0.0492
 2274TIP3   OH228456   4.342   3.504   6.425 -0.0870 -0.3960  0.1341
 2274TIP3    H128457   4.423   3.478   6.381  0.9618  1.1278  1.0853
 2274TIP3    H228458   4.279   3.436   6.400  0.4239  0.2921 -3.6140
 2275TIP3   OH228459   3.270   6.234   1.896  0.2419 -0.4343 -0.4528
 2275TIP3    H128460   3.177   6.247   1.918  0.0237 -0.3839 -1.3901
 2275TIP3    H228461   3.316   6.250   1.979 -0.4857  0.7050 -0.2417
 2276TIP3   OH228462   4.499   4.099   7.987  0.0654 -0.3325  0.5956
 2276TIP3    H128463   4.403   4.097   7.985  0.0699 -1.8332  0.4177
 2276TIP3    H228464   4.523   4.168   7.925 -0.8867 -0.5054  0.0143
 2277TIP3   OH228465   2.454   6.837   0.742 -0.7166 -0.2012  0.2196
 2277TIP3    H128466   2.480   6.829   0.650 -1.7956  0.5269 -0.1680
 2277TIP3    H228467   2.536   6.845   0.790 -0.1717  0.4538 -0.7984
 2278TIP3   OH228468   2.056   3.801   7.368  0.1705 -0.6214  1.2139
 2278TIP3    H128469   1.966   3.794   7.335 -0.5452 -1.3712  3.1918
 2278TIP3    H228470   2.104   3.842   7.296 -1.1151 -2.7323 -0.9928
 2279TIP3   OH228471   5.353   4.888   8.290 -0.4842 -0.1006  0.7729
 2279TIP3    H128472   5.423   4.910   8.351 -1.3586  2.4102  1.0207
 2279TIP3    H228473   5.303   4.970   8.281 -1.4666 -0.8852 -1.8950
 2280TIP3   OH228474   4.965   4.701   1.331  0.0299  0.0281  0.1100
 2280TIP3    H128475   5.036   4.741   1.282 -0.9151  0.5073 -0.9233
 2280TIP3    H228476   4.962   4.611   1.300 -0.4227  0.2709 -0.5794
 2281TIP3   OH228477   0.075   5.407   1.598 -0.0673 -0.0229 -0.2101
 2281TIP3    H128478   0.004   5.449   1.550 -0.3674  2.3304  2.0749
 2281TIP3    H228479   0.030   5.361   1.670  0.6225  1.3245  1.1405
 2282TIP3   OH228480   2.742   4.906   0.066  0.4614  0.6078  0.0427
 2282TIP3    H128481   2.740   4.992   0.106 -0.8249 -0.3098  2.1632
 2282TIP3    H228482   2.830   4.897   0.029  1.0308  2.3037  0.9260
 2283TIP3   OH228483   1.585   3.579   8.450  0.7453  0.2014  0.5063
 2283TIP3    H128484   1.645   3.505   8.445  0.8644  0.3262 -0.0026
 2283TIP3    H228485   1.538   3.567   8.531 -1.8986 -2.4475 -1.2480
 2284TIP3   OH228486   4.718   1.391   0.426 -0.1419 -0.2484 -0.1876
 2284TIP3    H128487   4.630   1.360   0.447  0.0953 -0.4447  0.5369
 2284TIP3    H228488   4.737   1.353   0.340 -0.8370 -0.0379 -0.4401
 2285TIP3   OH228489   3.765   3.557   8.700 -0.1804 -0.4919  0.7491
 2285TIP3    H128490   3.720   3.475   8.679  1.5016 -1.3937  0.4724
 2285TIP3    H228491   3.853   3.530   8.723  1.0058  1.3544 -1.2254
 2286TIP3   OH228492   2.452   1.988   0.343 -0.4135 -0.4911  0.0214
 2286TIP3    H128493   2.394   1.954   0.276 -0.2700  0.0832 -0.4077
 2286TIP3    H228494   2.538   1.991   0.302 -0.6094  1.4143 -0.3645
 2287TIP3   OH228495   5.808   1.093   0.489 -0.3441 -0.2240 -0.1921
 2287TIP3    H128496   5.781   1.039   0.563 -0.5159  1.8858  1.3856
 2287TIP3    H228497   5.733   1.093   0.430 -0.0886 -2.1944 -0.5930
 2288TIP3   OH228498   5.979   2.619   0.698 -0.8836 -0.2460  0.0005
 2288TIP3    H128499   5.920   2.628   0.623  1.4390 -0.5582 -1.9723
 2288TIP3    H228500   5.949   2.687   0.759 -1.9484  1.0367 -1.8335
 2289TIP3   OH228501   1.618   2.244   6.527 -0.5147 -0.8744  0.4890
 2289TIP3    H128502   1.697   2.241   6.474 -1.1699  1.1118 -0.7145
 2289TIP3    H228503   1.568   2.167   6.500 -0.7963  0.0306 -1.8149
 2290TIP3   OH228504   6.615   5.082   0.872  0.1349  0.2008 -0.2676
 2290TIP3    H128505   6.648   5.128   0.794 -1.7674  2.9306  0.3713
 2290TIP3    H228506   6.520   5.092   0.866 -0.0408  0.8465  2.5610
 2291TIP3   OH228507   0.621   2.265   0.856  0.1460 -0.3089 -0.4314
 2291TIP3    H128508   0.535   2.224   0.868  0.4879 -0.9902 -0.2556
 2291TIP3    H228509   0.626   2.330   0.926  0.2976 -1.1658  0.3735
 2292TIP3   OH228510   2.310   4.411   8.782  0.3373  0.4864  0.4909
 2292TIP3    H128511   2.313   4.483   8.846  4.1052 -0.4892  1.6751
 2292TIP3    H228512   2.293   4.333   8.835  0.6898 -0.0152 -0.1262
 2293TIP3   OH228513   1.564   1.371   6.646 -0.0440  0.1492  0.4881
 2293TIP3    H128514   1.633   1.368   6.579  0.3618  0.4110  0.8865
 2293TIP3    H228515   1.488   1.331   6.604 -0.3800  2.0086 -0.8062
 2294TIP3   OH228516   2.663   3.698   0.169  0.5694  0.4786 -0.0278
 2294TIP3    H128517   2.747   3.674   0.208  0.5416  1.2229  0.5176
 2294TIP3    H228518   2.607   3.622   0.182  1.4075 -0.3750 -1.1860
 2295TIP3   OH228519   3.788   1.768   8.716  0.4274 -0.3833  0.5209
 2295TIP3    H128520   3.842   1.779   8.794 -0.3793  1.3211  0.8752
 2295TIP3    H228521   3.812   1.841   8.659 -0.6562 -0.2562  0.1966
 2296TIP3   OH228522   5.206   2.657   0.583 -0.0129 -0.2266  0.3497
 2296TIP3    H128523   5.243   2.646   0.671  0.2398 -2.1507  0.0455
 2296TIP3    H228524   5.244   2.739   0.551  1.0349 -0.2433  1.4825
 2297TIP3   OH228525   6.603   4.118   8.263 -0.3242  0.0775 -0.2719
 2297TIP3    H128526   6.579   4.157   8.347 -1.6175 -1.0571 -0.0787
 2297TIP3    H228527   6.678   4.062   8.283 -0.0694  0.4812 -0.0650
 2298TIP3   OH228528   3.821   3.900   7.873  0.2769  0.2469  0.1193
 2298TIP3    H128529   3.839   3.993   7.866  2.1274 -0.0735  0.0381
 2298TIP3    H228530   3.749   3.894   7.935  0.3402  1.7140  0.3651
 2299TIP3   OH228531   1.128   5.387   1.861  0.8563 -0.1160 -0.1118
 2299TIP3    H128532   1.217   5.383   1.897  0.8835  1.2829  0.0244
 2299TIP3    H228533   1.097   5.474   1.885 -0.6773 -0.6995  0.0984
 2300TIP3   OH228534   1.202   0.594   1.274 -0.2906 -0.5724 -0.2953
 2300TIP3    H128535   1.287   0.627   1.243  0.1233  0.8623  2.1061
 2300TIP3    H228536   1.225   0.523   1.333 -0.7110  0.0634  0.6510
 2301TIP3   OH228537   3.545   0.960   0.039 -0.1600  0.1636 -0.0788
 2301TIP3    H128538   3.542   1.015   0.118 -0.6552 -2.3527  1.7955
 2301TIP3    H228539   3.473   0.898   0.051  0.5099 -1.0389 -1.9477
 2302TIP3   OH228540   5.913   6.026   1.794 -0.5247 -0.4145 -0.5792
 2302TIP3    H128541   5.945   5.947   1.752 -1.2703 -0.3505 -1.3091
 2302TIP3    H228542   5.933   6.096   1.732 -0.6968 -0.1654 -0.3568
 2303TIP3   OH228543   2.221   5.609   1.418  0.2866 -0.0081  0.0113
 2303TIP3    H128544   2.316   5.601   1.431  0.3221  0.8115  0.3509
 2303TIP3    H228545   2.202   5.700   1.441 -0.6917 -0.3612  0.6633
 2304TIP3   OH228546   5.541   5.396   7.636  0.0974  0.6831 -0.3761
 2304TIP3    H128547   5.621   5.346   7.654  0.0773  0.1140 -1.7208
 2304TIP3    H228548   5.498   5.347   7.566 -2.6236 -0.3312  1.8242
 2305TIP3   OH228549   1.982   4.896   7.608 -0.3240 -0.0929 -0.1335
 2305TIP3    H128550   1.906   4.841   7.629 -0.8378  0.2102 -1.1148
 2305TIP3    H228551   2.028   4.906   7.691 -0.0407 -2.2444  0.0235
 2306TIP3   OH228552   0.138   0.465   1.381 -0.1207  0.3543  0.2477
 2306TIP3    H128553   0.143   0.369   1.382  0.9804  0.3466 -1.6547
 2306TIP3    H228554   0.228   0.494   1.395 -0.2343  1.0655 -0.4373
 2307TIP3   OH228555   3.284   5.208   8.132 -0.0762  0.4746 -0.2305
 2307TIP3    H128556   3.246   5.121   8.146 -1.2042  0.9229 -0.3618
 2307TIP3    H228557   3.378   5.194   8.139 -0.2282 -0.7736 -0.3360
 2308TIP3   OH228558   3.528   0.620   0.737 -1.0250  0.0770  0.4741
 2308TIP3    H128559   3.539   0.633   0.642 -1.0577  1.9982  0.6869
 2308TIP3    H228560   3.483   0.536   0.744  1.6553 -1.6013 -1.0321
 2309TIP3   OH228561   0.855   6.674   1.490 -0.1281 -0.1969 -0.6300
 2309TIP3    H128562   0.870   6.581   1.471  2.2737  0.6533 -3.8986
 2309TIP3    H228563   0.768   6.692   1.455  0.9256 -0.5190 -3.7182
 2310TIP3   OH228564   0.235   5.302   1.397  0.3506 -0.7624  0.1444
 2310TIP3    H128565   0.201   5.222   1.356 -1.1650  0.5609 -1.3437
 2310TIP3    H228566   0.170   5.323   1.464  1.4869 -1.5079  1.5242
 2311TIP3   OH228567   3.889   3.775   1.490  0.0187 -0.4531  0.0483
 2311TIP3    H128568   3.952   3.829   1.537 -0.3262 -0.9820  1.1520
 2311TIP3    H228569   3.816   3.765   1.551 -1.9056  1.4581 -1.7627
 2312TIP3   OH228570   6.701   6.095   7.764  0.0594 -0.0602 -0.1724
 2312TIP3    H128571   6.630   6.131   7.818  0.2462  0.6466 -0.3890
 2312TIP3    H228572   6.776   6.150   7.785  0.3778 -0.3940 -0.4370
 2313TIP3   OH228573   5.645   5.434   1.454  0.0058  0.0929 -0.3485
 2313TIP3    H128574   5.692   5.394   1.527  0.0648  0.5932 -0.1133
 2313TIP3    H228575   5.682   5.392   1.376  0.5627  0.1950 -0.1430
 2314TIP3   OH228576   4.904   4.190   0.245  0.0797  0.0907  0.5331
 2314TIP3    H128577   4.888   4.101   0.215  2.1884 -0.9507  2.1948
 2314TIP3    H228578   4.827   4.212   0.297 -0.2161 -1.0177  0.5889
 2315TIP3   OH228579   1.927   2.615   6.786 -1.0571  0.4884 -0.6561
 2315TIP3    H128580   1.888   2.639   6.702  1.7078  0.7415 -1.9969
 2315TIP3    H228581   2.020   2.636   6.776 -0.6487  0.8428  2.6191
 2316TIP3   OH228582   5.124   4.957   7.717 -0.4607 -0.8746  0.0003
 2316TIP3    H128583   5.070   5.018   7.667  0.8314 -0.2392 -0.6800
 2316TIP3    H228584   5.062   4.892   7.750 -1.4491 -1.1544 -2.1811
 2317TIP3   OH228585   1.782   6.195   0.863 -0.5890 -0.1019 -0.2533
 2317TIP3    H128586   1.739   6.110   0.864  0.6859 -0.7591  1.0169
 2317TIP3    H228587   1.717   6.255   0.899 -1.7029 -0.3982 -1.6817
 2318TIP3   OH228588   2.943   1.978   0.468 -0.0548 -0.1705 -0.4835
 2318TIP3    H128589   3.003   2.020   0.531 -2.0432  1.1243  0.6565
 2318TIP3    H228590   2.936   2.041   0.396 -0.7317  0.0994 -0.1856
 2319TIP3   OH228591   4.051   4.821   7.864  0.4777 -0.0370  0.8159
 2319TIP3    H128592   4.056   4.868   7.781 -1.5604 -0.0381  0.6480
 2319TIP3    H228593   4.070   4.730   7.841 -1.0047 -0.2059  0.1447
 2320TIP3   OH228594   1.945   5.156   7.389  0.2679 -0.5271  0.0914
 2320TIP3    H128595   1.859   5.126   7.358  0.9480 -0.6436 -1.7958
 2320TIP3    H228596   1.958   5.109   7.471 -1.1217 -1.1054  0.0131
 2321TIP3   OH228597   0.129   3.485   1.952 -0.3556 -0.8338  0.2657
 2321TIP3    H128598   0.184   3.454   2.024  0.5112  0.8996  0.3995
 2321TIP3    H228599   0.040   3.487   1.988 -0.0922 -0.9942  0.9400
 2322TIP3   OH228600   2.079   0.340   2.217 -0.5691 -0.1938 -0.0010
 2322TIP3    H128601   2.151   0.335   2.153 -1.0656  0.6129 -0.6417
 2322TIP3    H228602   2.120   0.374   2.296  0.0852 -1.3272  0.1757
 2323TIP3   OH228603   2.240   3.537   7.364  0.3948  0.3041 -0.1709
 2323TIP3    H128604   2.211   3.520   7.453 -1.2833  0.2200 -0.7087
 2323TIP3    H228605   2.160   3.552   7.314  1.1363 -1.4664 -2.0645
 2324TIP3   OH228606   4.704   6.087   0.273  0.5067  0.0683  0.3250
 2324TIP3    H128607   4.668   6.059   0.189  1.3216  1.5167 -0.5518
 2324TIP3    H228608   4.698   6.009   0.329 -0.2238 -0.8736 -1.0005
 2325TIP3   OH228609   6.238   6.817   7.389  0.4127 -0.2623  0.2256
 2325TIP3    H128610   6.157   6.774   7.361 -0.3604 -0.6139  2.7933
 2325TIP3    H228611   6.294   6.746   7.420  1.8615 -0.0455 -1.7153
 2326TIP3   OH228612   5.411   2.709   8.648  0.7935  0.3186  0.0691
 2326TIP3    H128613   5.339   2.707   8.585  0.6149 -0.0874  0.2766
 2326TIP3    H228614   5.472   2.774   8.614 -0.3202  1.7007  0.6014
 2327TIP3   OH228615   6.779   1.765   6.745  0.6097 -0.4781  0.5880
 2327TIP3    H128616   6.710   1.830   6.759  1.2670  0.2187  0.6571
 2327TIP3    H228617   6.739   1.700   6.686 -0.2470 -0.3310  0.9919
 2328TIP3   OH228618   5.803   2.467   6.909  0.2404  0.1040 -0.5112
 2328TIP3    H128619   5.724   2.448   6.959  0.7168  0.0376  0.2234
 2328TIP3    H228620   5.808   2.396   6.845 -1.2673  1.0744 -1.7916
 2329TIP3   OH228621   6.474   4.969   8.114  0.2873 -0.0418  0.0842
 2329TIP3    H128622   6.484   4.875   8.096  2.3529  0.3969 -1.4168
 2329TIP3    H228623   6.379   4.983   8.115 -0.0500 -1.9313 -0.8641
 2330TIP3   OH228624   5.307   5.163   1.704 -0.1665 -0.4726  0.2095
 2330TIP3    H128625   5.309   5.259   1.700 -1.2657 -0.3891  1.1869
 2330TIP3    H228626   5.245   5.138   1.635 -1.1777 -0.3732  1.0691
 2331TIP3   OH228627   3.114   3.067   7.892 -0.2901  0.4509 -0.3540
 2331TIP3    H128628   3.119   3.151   7.848 -0.9750  0.2222 -0.8959
 2331TIP3    H228629   3.022   3.059   7.918 -0.0075  0.3388  0.6469
 2332TIP3   OH228630   0.553   3.189   7.552  0.2171 -0.2002 -0.2280
 2332TIP3    H128631   0.472   3.168   7.598 -0.5306 -1.0571 -1.8412
 2332TIP3    H228632   0.537   3.162   7.462  2.0373  0.3201 -0.7543
 2333TIP3   OH228633   6.042   0.821   6.695  0.0237 -0.5004  0.1946
 2333TIP3    H128634   6.018   0.730   6.710  0.8828 -0.6066  1.0062
 2333TIP3    H228635   6.100   0.819   6.619 -1.4413 -0.3862 -0.9798
 2334TIP3   OH228636   3.739   0.854   2.150  0.3895 -0.1838 -0.0783
 2334TIP3    H128637   3.760   0.851   2.243  0.3830 -0.5444 -0.0868
 2334TIP3    H228638   3.780   0.935   2.118  0.6210 -0.1994  0.1791
 2335TIP3   OH228639   6.342   1.275   0.206 -0.1119  1.0488  0.0964
 2335TIP3    H128640   6.318   1.209   0.141 -0.8095  0.5285  0.8587
 2335TIP3    H228641   6.438   1.272   0.210  0.0906  2.2456 -2.0621
 2336TIP3   OH228642   2.784   1.949   7.171  0.0216 -0.5403  0.1143
 2336TIP3    H128643   2.811   1.858   7.175  0.8437 -0.3199 -0.2627
 2336TIP3    H228644   2.689   1.946   7.170  0.0446 -1.3973  0.0119
 2337TIP3   OH228645   1.265   3.081   2.030  0.3791 -0.6077 -0.4256
 2337TIP3    H128646   1.193   3.138   2.005 -0.1091 -1.2617 -0.5445
 2337TIP3    H228647   1.266   3.085   2.126  0.7456  0.0782 -0.4567
 2338TIP3   OH228648   6.651   1.619   1.015 -0.3798  0.1260  0.1634
 2338TIP3    H128649   6.636   1.667   1.096  1.1823  0.4709  0.2690
 2338TIP3    H228650   6.738   1.647   0.986 -0.5088 -0.7276 -1.1202
 2339TIP3   OH228651   2.163   0.783   0.485 -0.5021 -0.2218  0.4871
 2339TIP3    H128652   2.200   0.871   0.495 -0.7374 -0.2775  2.0996
 2339TIP3    H228653   2.072   0.792   0.511 -0.2807 -1.1309  1.6471
 2340TIP3   OH228654   2.675   2.450   1.339 -0.0295 -1.1518  0.4842
 2340TIP3    H128655   2.726   2.377   1.373  1.2471 -1.1483 -1.2657
 2340TIP3    H228656   2.730   2.527   1.353  0.0176 -0.9934 -0.4553
 2341TIP3   OH228657   3.920   0.936   8.107  0.3088  0.7851  0.0104
 2341TIP3    H128658   3.998   0.931   8.052  0.4394 -0.1036  0.2637
 2341TIP3    H228659   3.954   0.952   8.195  0.1036  2.1463 -0.1427
 2342TIP3   OH228660   1.935   3.233   0.155  0.3426  0.0422  0.3556
 2342TIP3    H128661   1.962   3.313   0.110 -0.9599  0.6967  0.6907
 2342TIP3    H228662   2.000   3.222   0.225 -0.0266  1.4060  0.9556
 2343TIP3   OH228663   5.992   5.739   7.920 -0.1098 -0.2473  0.8480
 2343TIP3    H128664   5.929   5.673   7.951 -0.8335  0.1763  0.2900
 2343TIP3    H228665   6.068   5.688   7.892 -1.1265 -0.9746 -0.7321
 2344TIP3   OH228666   5.014   5.844   0.578 -0.3358  0.1953 -0.1511
 2344TIP3    H128667   4.989   5.820   0.668  0.1115 -1.2991 -0.3923
 2344TIP3    H228668   4.975   5.930   0.564  0.0825  0.7210  1.6763
 2345TIP3   OH228669   3.271   2.976   1.692 -0.1143 -0.5703  0.1768
 2345TIP3    H128670   3.323   2.942   1.765 -0.2903  1.0364  1.0930
 2345TIP3    H228671   3.324   3.047   1.655 -1.4219  0.8245  0.8694
 2346TIP3   OH228672   1.662   5.375   0.647  0.5028 -0.4821 -0.5457
 2346TIP3    H128673   1.615   5.331   0.576 -0.8329  0.2444 -0.1358
 2346TIP3    H228674   1.654   5.468   0.626  0.1528 -0.2650  0.5212
 2347TIP3   OH228675   0.985   1.389   8.807 -0.1245  0.0230  0.2559
 2347TIP3    H128676   1.026   1.455   8.751 -0.5666 -0.2555 -0.4016
 2347TIP3    H228677   0.902   1.429   8.834 -1.2674 -0.9465 -1.6312
 2348TIP3   OH228678   4.086   3.851   8.448  0.7428  0.1662 -0.8424
 2348TIP3    H128679   3.999   3.854   8.488  1.6164  0.2365  1.1918
 2348TIP3    H228680   4.069   3.850   8.354 -1.4854 -0.9600 -0.5062
 2349TIP3   OH228681   3.606   5.514   8.606  0.2582  0.6662  0.2045
 2349TIP3    H128682   3.518   5.525   8.571  0.3436  1.0810  0.1120
 2349TIP3    H228683   3.631   5.602   8.635  0.3074  0.3917  1.0226
 2350TIP3   OH228684   5.800   5.570   0.661 -0.3920 -0.3731  0.6039
 2350TIP3    H128685   5.808   5.635   0.731 -0.5063  0.4942 -0.1750
 2350TIP3    H228686   5.874   5.511   0.675  1.8010  1.8743 -0.6534
 2351TIP3   OH228687   5.679   3.782   0.746  0.4652  0.2374 -0.3377
 2351TIP3    H128688   5.629   3.732   0.810 -1.3768  1.7642 -0.4981
 2351TIP3    H228689   5.675   3.729   0.666  0.8269 -0.5868  0.1790
 2352TIP3   OH228690   0.368   1.473   0.741  0.1938 -0.4245 -0.2077
 2352TIP3    H128691   0.336   1.510   0.659 -0.4491  0.4460  0.4227
 2352TIP3    H228692   0.296   1.418   0.772  0.4311 -0.7404 -0.2149
 2353TIP3   OH228693   0.272   5.748   1.413  0.7269  0.0168 -0.5074
 2353TIP3    H128694   0.212   5.695   1.361  1.7278 -1.9581  0.2472
 2353TIP3    H228695   0.269   5.834   1.373 -4.0311  0.6467  0.5400
 2354TIP3   OH228696   5.466   1.520   0.250 -0.0920 -0.0104 -0.3642
 2354TIP3    H128697   5.443   1.435   0.213 -0.0554 -0.1971  0.0406
 2354TIP3    H228698   5.382   1.558   0.277  0.0610 -0.7659  1.2734
 2355TIP3   OH228699   2.843   5.613   1.569  0.0501  0.7977 -0.3667
 2355TIP3    H128700   2.825   5.562   1.648  1.0788 -0.9711 -1.2326
 2355TIP3    H228701   2.900   5.684   1.599 -0.2826  0.6621  0.6262
 2356TIP3   OH228702   2.270   5.355   2.407  0.0410 -0.1582  0.1135
 2356TIP3    H128703   2.227   5.315   2.483 -1.5741 -0.7208 -1.0413
 2356TIP3    H228704   2.325   5.424   2.444 -3.1277  1.7604  1.6061
 2357TIP3   OH228705   0.576   4.041   0.405  0.1617 -0.4784  0.0028
 2357TIP3    H128706   0.655   4.080   0.368 -0.7570  0.4512 -1.0539
 2357TIP3    H228707   0.599   4.019   0.495  1.7367 -0.6084 -0.4131
 2358TIP3   OH228708   0.094   0.588   6.864 -0.0730 -0.3104  0.0869
 2358TIP3    H128709   0.092   0.509   6.918 -0.2512  0.6844  1.5986
 2358TIP3    H228710   0.075   0.556   6.776 -1.7768 -1.7727  0.9001
 2359TIP3   OH228711   3.263   0.431   1.624  0.0325  0.6835 -0.3996
 2359TIP3    H128712   3.233   0.465   1.539 -0.6832  1.0112 -0.0235
 2359TIP3    H228713   3.275   0.337   1.609 -3.3896  0.0478 -0.0393
 2360TIP3   OH228714   6.821   5.313   0.074  0.3648  0.1589 -0.2235
 2360TIP3    H128715   6.816   5.261  -0.007 -0.2283 -0.0344 -0.0629
 2360TIP3    H228716   6.784   5.257   0.141  0.6169  0.4229  0.1399
 2361TIP3   OH228717   0.019   0.963   7.360 -0.9346 -0.2126 -0.2430
 2361TIP3    H128718  -0.057   0.906   7.351  0.5477 -2.1660 -0.9707
 2361TIP3    H228719   0.033   0.998   7.273  0.0846 -1.3518 -0.5573
 2362TIP3   OH228720   4.988   4.510   0.808 -0.1141 -0.5688 -0.3612
 2362TIP3    H128721   5.014   4.497   0.717  2.1047  1.1943 -0.0539
 2362TIP3    H228722   4.939   4.593   0.808  1.8129  0.6202  0.3167
 2363TIP3   OH228723   6.470   0.606   0.034  0.2414  0.9814 -0.2485
 2363TIP3    H128724   6.495   0.686  -0.012 -0.8273  1.1458 -0.5600
 2363TIP3    H228725   6.553   0.558   0.043  0.4448  0.6704 -2.8596
 2364TIP3   OH228726   3.364   0.313   8.538  0.0821  0.3485  0.3171
 2364TIP3    H128727   3.293   0.314   8.474  1.7934 -1.1011 -1.7408
 2364TIP3    H228728   3.364   0.224   8.573  0.1026  0.7038  1.2522
 2365TIP3   OH228729   3.537   4.031   6.614  0.7329 -0.3404  0.4453
 2365TIP3    H128730   3.446   4.013   6.639  0.7610 -0.3323  0.5545
 2365TIP3    H228731   3.564   3.955   6.562 -0.1401  0.7553 -1.7273
 2366TIP3   OH228732   5.489   6.816   7.940 -0.2694 -0.1760  0.1001
 2366TIP3    H128733   5.498   6.847   7.849 -1.3272 -0.7450 -0.2179
 2366TIP3    H228734   5.429   6.742   7.934  0.7863 -1.1430  1.0950
 2367TIP3   OH228735   4.385   2.970   7.270  0.1096  0.0522  0.3802
 2367TIP3    H128736   4.400   2.962   7.176 -1.9423 -1.3728  0.1160
 2367TIP3    H228737   4.468   3.004   7.305  0.9839  0.4025 -1.8845
 2368TIP3   OH228738   3.834   0.796   0.579  0.5188  0.3466  0.3585
 2368TIP3    H128739   3.833   0.725   0.513 -0.8034  1.3415 -0.7387
 2368TIP3    H228740   3.745   0.799   0.612  0.5657  1.4741  0.4081
 2369TIP3   OH228741   0.199   0.866   8.658  0.0811  0.5826  0.1450
 2369TIP3    H128742   0.258   0.847   8.586 -0.2425  0.2950 -0.0490
 2369TIP3    H228743   0.232   0.948   8.696  1.3553 -0.2172  0.8386
 2370TIP3   OH228744   3.150   0.284   7.068  0.1938 -0.2074  0.3633
 2370TIP3    H128745   3.121   0.216   7.007 -1.3800  1.4498 -0.8739
 2370TIP3    H228746   3.074   0.299   7.125  0.4438  0.6379  0.4860
 2371TIP3   OH228747   4.267   4.363   0.162  0.5933  0.6383  0.3141
 2371TIP3    H128748   4.190   4.335   0.211  0.8789 -0.0902  0.3633
 2371TIP3    H228749   4.233   4.405   0.083  0.1469  0.7991  0.5916
 2372TIP3   OH228750   6.582   2.033   2.295 -0.0361  0.6069  0.0088
 2372TIP3    H128751   6.573   2.124   2.324  2.5523  0.4807  1.4762
 2372TIP3    H228752   6.531   2.028   2.215  0.1840  3.4977 -0.3940
 2373TIP3   OH228753   0.252   2.720   0.456 -0.0239  0.0368 -0.2063
 2373TIP3    H128754   0.326   2.670   0.422  0.0519  1.4332 -2.3103
 2373TIP3    H228755   0.180   2.701   0.395 -0.4208  1.2594 -0.1486
 2374TIP3   OH228756   4.699   1.787   7.896 -0.1377  0.1627 -0.1735
 2374TIP3    H128757   4.779   1.737   7.878 -0.3095 -0.6796  1.2945
 2374TIP3    H228758   4.647   1.776   7.816 -0.3503 -2.4005  0.2171
 2375TIP3   OH228759   1.686   1.674   1.439  0.4859 -0.1190 -0.1745
 2375TIP3    H128760   1.631   1.646   1.366  1.4840  0.1588 -1.0606
 2375TIP3    H228761   1.666   1.768   1.448 -1.7564 -0.7037  1.8236
 2376TIP3   OH228762   0.968   4.408   1.068  0.4773  0.1246  0.1453
 2376TIP3    H128763   0.892   4.439   1.019 -0.0141  0.8324  1.3098
 2376TIP3    H228764   0.932   4.343   1.128  0.7523  0.5715  0.8097
 2377TIP3   OH228765   5.359   1.896   8.742 -0.2374 -0.0279  0.2762
 2377TIP3    H128766   5.371   1.803   8.763 -1.3279 -0.2128  0.1703
 2377TIP3    H228767   5.434   1.918   8.687  0.9324 -0.3953  1.6622
 2378TIP3   OH228768   4.580   4.924   8.768  0.1166 -0.3695  0.0354
 2378TIP3    H128769   4.655   4.866   8.761 -0.1680 -0.5596 -1.7923
 2378TIP3    H228770   4.617   5.011   8.783  0.5642 -0.8565  2.0166
 2379TIP3   OH228771   0.048   4.858   8.177 -0.1618 -0.3061  0.2487
 2379TIP3    H128772   0.020   4.857   8.269 -0.7665  1.2743  0.1147
 2379TIP3    H228773   0.120   4.920   8.175  0.3834 -0.9474 -0.2182
 2380TIP3   OH228774   3.632   4.316   8.403  0.1972  0.1065  0.0340
 2380TIP3    H128775   3.675   4.399   8.382 -0.9671  0.8355  0.4260
 2380TIP3    H228776   3.623   4.271   8.319  0.2147  0.6895 -0.2842
 2381TIP3   OH228777   6.461   2.310   7.611 -0.0573  0.2082 -0.0272
 2381TIP3    H128778   6.456   2.336   7.519  0.0676  1.7414  0.3655
 2381TIP3    H228779   6.547   2.341   7.640 -1.2235  2.4437  1.3372
 2382TIP3   OH228780   0.037   6.317   7.797  0.0260 -0.1603  0.4886
 2382TIP3    H128781   0.110   6.315   7.858 -1.3843  2.1411  2.4299
 2382TIP3    H228782   0.072   6.359   7.719  0.7419  1.2221  1.5111
 2383TIP3   OH228783   5.282   4.868   1.408 -0.6676 -0.0852 -0.0707
 2383TIP3    H128784   5.239   4.934   1.462  0.4739  0.2033  0.4920
 2383TIP3    H228785   5.365   4.850   1.451  0.4096  0.3388 -1.8577
 2384TIP3   OH228786   4.196   6.194   0.231  0.2880  0.3722  0.0103
 2384TIP3    H128787   4.117   6.146   0.256  0.0302  0.6721 -0.2148
 2384TIP3    H228788   4.263   6.127   0.220  0.3928  0.2121  1.4169
 2385TIP3   OH228789   6.087   5.527   8.087  0.1452  0.2510 -0.3751
 2385TIP3    H128790   6.179   5.542   8.068  0.0143  0.1247 -1.1126
 2385TIP3    H228791   6.077   5.556   8.178  1.3123 -1.3838  0.3429
 2386TIP3   OH228792   4.254   3.034   0.207  0.5751 -0.3367  0.1748
 2386TIP3    H128793   4.222   3.065   0.292 -3.6651  0.6998 -1.5289
 2386TIP3    H228794   4.260   2.939   0.217  0.5901 -0.1940  1.7300
 2387TIP3   OH228795   3.588   1.967   1.322  0.0591 -0.2132 -0.7236
 2387TIP3    H128796   3.516   2.014   1.364  0.2316  0.0117 -0.6784
 2387TIP3    H228797   3.599   2.010   1.237 -1.5837 -1.9018 -1.8701
 2388TIP3   OH228798   6.542   4.644   1.527  0.4437  0.0283  0.4366
 2388TIP3    H128799   6.580   4.600   1.603  0.7215  0.6580  0.6729
 2388TIP3    H228800   6.590   4.726   1.521  1.5568 -0.6929 -1.3932
 2389TIP3   OH228801   6.236   3.721   8.552  0.2888  0.2447 -0.7213
 2389TIP3    H128802   6.185   3.744   8.629  0.0310 -0.7334 -0.5838
 2389TIP3    H228803   6.188   3.759   8.479 -1.1510 -1.3934 -0.6883
 2390TIP3   OH228804   3.294   4.397   8.786 -0.1490  0.0325  0.1859
 2390TIP3    H128805   3.288   4.479   8.835  1.0939  0.3084 -0.0970
 2390TIP3    H228806   3.283   4.424   8.694  0.8773 -0.0180  0.0370
 2391TIP3   OH228807   0.968   1.611   0.441 -0.3024 -0.2014  0.2353
 2391TIP3    H128808   0.997   1.700   0.459 -1.8192  0.7370 -1.6965
 2391TIP3    H228809   0.898   1.595   0.505 -2.2494  1.2722 -1.3828
 2392TIP3   OH228810   1.638   0.775   1.327 -0.0541  0.1228 -0.7481
 2392TIP3    H128811   1.680   0.844   1.276  2.1737 -1.1637 -0.7973
 2392TIP3    H228812   1.568   0.819   1.374  0.8940  2.2949 -1.2461
 2393TIP3   OH228813   2.261   5.588   7.416  0.2144  0.6200  0.3604
 2393TIP3    H128814   2.280   5.516   7.476  1.7133  0.7057  0.0395
 2393TIP3    H228815   2.185   5.558   7.366  1.0471 -0.9564 -0.0419
 2394TIP3   OH228816   2.552   6.360   7.816  0.1827  0.2519 -0.0731
 2394TIP3    H128817   2.556   6.448   7.779  1.5497  1.1911  2.0996
 2394TIP3    H228818   2.623   6.312   7.771  0.7412  0.8613  0.1487
 2395TIP3   OH228819   6.333   0.435   7.518  0.2762 -0.4068  0.3739
 2395TIP3    H128820   6.419   0.424   7.479 -1.0388 -1.5193 -2.5208
 2395TIP3    H228821   6.292   0.349   7.509 -1.8953  0.6367 -0.4427
 2396TIP3   OH228822   5.862   0.798   0.025 -0.1279 -0.2913 -0.1104
 2396TIP3    H128823   5.784   0.746   0.045  0.2977 -0.9828 -0.1802
 2396TIP3    H228824   5.861   0.809  -0.070 -1.2129  1.4728  0.0667
 2397TIP3   OH228825   3.945   0.518   0.236  0.4451  0.0402  0.3315
 2397TIP3    H128826   4.030   0.531   0.278 -0.2069  0.1791  1.6612
 2397TIP3    H228827   3.954   0.560   0.150  1.3132  1.1861  0.9517
 2398TIP3   OH228828   1.514   0.048   1.474  0.3600 -0.1419  0.7402
 2398TIP3    H128829   1.584   0.054   1.539  0.4100  0.2935  0.6510
 2398TIP3    H228830   1.541   0.108   1.405  0.7217 -1.2141 -0.0784
 2399TIP3   OH228831   3.694   2.996   0.558  0.4713  0.0131 -0.3578
 2399TIP3    H128832   3.780   3.008   0.518  0.0716 -0.4566 -1.3903
 2399TIP3    H228833   3.704   2.918   0.613  0.8663  0.3235  0.0207
 2400TIP3   OH228834   5.789   0.355   8.801 -0.2031  0.0615 -0.0080
 2400TIP3    H128835   5.835   0.400   8.731  0.6753 -0.0065  0.5046
 2400TIP3    H228836   5.825   0.392   8.882  1.2684 -2.1514  0.4618
 2401TIP3   OH228837   2.228   4.957   1.885  0.3888  0.2420 -0.5224
 2401TIP3    H128838   2.243   4.943   1.979 -1.8686 -0.3304 -0.1878
 2401TIP3    H228839   2.270   4.883   1.843  0.6714  0.0345  0.1049
 2402TIP3   OH228840   4.973   2.695   8.105 -0.3791 -0.1270  0.4630
 2402TIP3    H128841   4.880   2.716   8.113  0.0625  1.7861  1.1423
 2402TIP3    H228842   5.001   2.737   8.024  0.0416 -0.0564  0.6419
 2403TIP3   OH228843   2.671   6.621   0.441  0.1481  0.0996  0.2512
 2403TIP3    H128844   2.610   6.572   0.386 -1.2404 -0.1366  1.9310
 2403TIP3    H228845   2.647   6.713   0.427 -0.7284  0.0040  0.9916
 2404TIP3   OH228846   2.208   1.836   8.372 -0.2675 -0.7322  0.5320
 2404TIP3    H128847   2.188   1.925   8.399  2.4835  0.1381 -0.0552
 2404TIP3    H228848   2.146   1.819   8.300  0.9108  1.7853 -1.2112
 2405TIP3   OH228849   2.059   5.666   8.414  0.1605 -0.0089  0.5960
 2405TIP3    H128850   1.971   5.629   8.408 -0.2325  0.8933  0.7076
 2405TIP3    H228851   2.049   5.744   8.469  1.1670 -0.3129  1.2402
 2406TIP3   OH228852   3.481   2.220   0.440  0.3672 -0.0702  0.1093
 2406TIP3    H128853   3.549   2.265   0.389 -0.6575  1.1927 -0.1653
 2406TIP3    H228854   3.455   2.147   0.384 -0.5357  1.1330 -1.0794
 2407TIP3   OH228855   0.682   6.259   1.882 -0.0474  0.3212 -0.2036
 2407TIP3    H128856   0.716   6.340   1.920  0.9974  0.3447 -1.1424
 2407TIP3    H228857   0.594   6.251   1.919  0.0628  1.5448  0.3959
 2408TIP3   OH228858   1.814   0.451   0.522 -0.2890  0.0084  0.2078
 2408TIP3    H128859   1.814   0.464   0.427 -3.0692  1.1047  0.2601
 2408TIP3    H228860   1.804   0.356   0.533 -0.6772 -0.0539 -0.6116
 2409TIP3   OH228861   5.414   1.102   0.394 -0.2808  0.0077 -0.1917
 2409TIP3    H128862   5.399   1.037   0.462 -0.0828 -0.9871 -1.0771
 2409TIP3    H228863   5.333   1.105   0.344 -0.4621  0.8082  0.1283
 2410TIP3   OH228864   2.525   3.241   1.594  0.3149  0.5584 -0.5231
 2410TIP3    H128865   2.437   3.276   1.608 -0.1179 -0.0827 -1.5002
 2410TIP3    H228866   2.582   3.317   1.600 -0.5955  1.4836 -2.5695
 2411TIP3   OH228867   0.705   0.631   0.215  0.6074 -0.1058 -0.0719
 2411TIP3    H128868   0.784   0.587   0.247  0.0540 -0.5611  0.7055
 2411TIP3    H228869   0.641   0.618   0.285  0.2077  1.3268 -0.1431
 2412TIP3   OH228870   1.430   3.846   2.246  0.7292 -0.3442 -0.8475
 2412TIP3    H128871   1.469   3.783   2.307  1.2432  0.9345  0.2075
 2412TIP3    H228872   1.340   3.857   2.277  0.5414 -0.7929 -1.2287
 2413TIP3   OH228873   5.156   3.392   8.106  0.2248 -0.1557  0.1328
 2413TIP3    H128874   5.116   3.362   8.024  0.2725  0.1769 -0.0116
 2413TIP3    H228875   5.248   3.404   8.085  0.0438  0.9859 -0.0563
 2414TIP3   OH228876   5.031   3.793   1.526  0.1363  0.0260  0.3615
 2414TIP3    H128877   4.974   3.839   1.587 -0.5555  0.7699 -0.7970
 2414TIP3    H228878   5.091   3.861   1.493 -0.6580  0.0612 -1.0881
 2415TIP3   OH228879   5.304   6.548   7.264 -0.4294  0.2811 -0.0151
 2415TIP3    H128880   5.231   6.608   7.279  1.0111  1.7113  1.8354
 2415TIP3    H228881   5.263   6.467   7.236 -2.7747  0.8650  1.4400
 2416TIP3   OH228882   3.721   6.517   8.105 -0.3155 -0.0417  0.0278
 2416TIP3    H128883   3.625   6.516   8.105 -0.3173  0.1827  0.1578
 2416TIP3    H228884   3.745   6.425   8.116 -0.5124 -0.1865 -0.6948
 2417TIP3   OH228885   0.009   1.965   8.736 -0.0437  0.5611 -0.4955
 2417TIP3    H128886   0.033   1.916   8.814  0.4814  0.7202 -0.5538
 2417TIP3    H228887   0.008   1.900   8.666  0.7573  0.6481 -0.5933
 2418TIP3   OH228888   2.323   5.086   6.904 -0.3215  0.7872 -0.2656
 2418TIP3    H128889   2.404   5.045   6.874  0.3046  3.2525 -2.3807
 2418TIP3    H228890   2.267   5.013   6.931  1.8831 -1.1269 -0.5372
 2419TIP3   OH228891   6.525   0.521   2.174  0.2423 -0.1561  0.0611
 2419TIP3    H128892   6.460   0.591   2.169 -1.9360 -2.1007 -1.0412
 2419TIP3    H228893   6.538   0.493   2.084 -0.0708 -2.0696  0.5510
 2420TIP3   OH228894   5.355   3.017   1.614 -0.0934  0.1691 -0.0595
 2420TIP3    H128895   5.377   2.926   1.591 -0.0501  0.3293 -0.6583
 2420TIP3    H228896   5.272   3.009   1.662 -1.1395 -0.0403 -1.7878
 2421TIP3   OH228897   6.093   6.667   0.711  0.1240 -0.3022 -0.1922
 2421TIP3    H128898   6.122   6.680   0.801  0.8432  1.4807 -0.6331
 2421TIP3    H228899   6.118   6.577   0.690  0.4588 -0.5478  1.2009
 2422TIP3   OH228900   3.977   1.695   0.617  0.4610  0.1440 -0.7817
 2422TIP3    H128901   4.066   1.730   0.625 -0.3528  1.8744  3.5972
 2422TIP3    H228902   3.975   1.620   0.676 -0.9493  0.0217 -0.9500
 2423TIP3   OH228903   0.988   2.020   2.081 -0.1796 -0.1142 -0.0419
 2423TIP3    H128904   1.072   1.974   2.087 -0.4096 -0.3522  2.3426
 2423TIP3    H228905   0.994   2.091   2.143 -1.0635  1.1136 -1.2904
 2424TIP3   OH228906   1.033   3.940   1.718 -0.5729 -0.7573 -0.1095
 2424TIP3    H128907   1.107   3.985   1.677  0.3465 -1.3683  0.8344
 2424TIP3    H228908   1.031   3.974   1.808 -2.6717  0.7062 -0.6594
 2425TIP3   OH228909   4.426   5.156   1.803 -0.0138  0.0605 -0.1141
 2425TIP3    H128910   4.361   5.226   1.807  2.2556  2.4270 -1.5433
 2425TIP3    H228911   4.491   5.180   1.870  1.5847  0.2477 -1.6671
 2426TIP3   OH228912   2.330   6.555   7.088  0.0885  0.3501 -0.7818
 2426TIP3    H128913   2.275   6.598   7.022  0.7406 -0.5779 -1.9577
 2426TIP3    H228914   2.282   6.475   7.110  0.5814 -0.0881 -1.2619
 2427TIP3   OH228915   1.747   3.061   6.594 -0.4706  0.0542  0.1376
 2427TIP3    H128916   1.800   3.136   6.619 -2.0460  0.9996  0.7956
 2427TIP3    H228917   1.670   3.099   6.551  0.1226 -1.3451 -2.3251
 2428TIP3   OH228918   2.715   2.216   0.006 -0.1455  0.5773 -0.3770
 2428TIP3    H128919   2.686   2.240   0.094 -2.6358 -4.2514  0.4846
 2428TIP3    H228920   2.636   2.220  -0.047  0.9807  1.8131 -2.0458
 2429TIP3   OH228921   1.125   6.288   1.810 -0.3911 -0.3949  0.1725
 2429TIP3    H128922   1.066   6.225   1.768 -1.1116  0.8224 -0.7174
 2429TIP3    H228923   1.128   6.260   1.902 -1.8977 -0.8460  0.1165
 2430TIP3   OH228924   2.763   1.171   8.294 -0.5572  0.6347 -0.3369
 2430TIP3    H128925   2.799   1.260   8.282  0.6231  0.0019 -1.9021
 2430TIP3    H228926   2.674   1.177   8.260  0.3611  0.6676 -2.9788
 2431TIP3   OH228927   3.498   2.767   1.260 -0.2092  0.0627  0.2831
 2431TIP3    H128928   3.539   2.744   1.176  1.9287  0.6108  1.1340
 2431TIP3    H228929   3.421   2.819   1.234  0.2745  0.0456 -1.3434
 2432TIP3   OH228930   5.386   1.651   8.365  0.2011  0.6324  0.0520
 2432TIP3    H128931   5.315   1.639   8.301  0.6978 -0.8352 -0.2670
 2432TIP3    H228932   5.369   1.584   8.432  0.4746  1.2371  0.7287
 2433TIP3   OH228933   4.015   2.014   8.807 -0.0361 -0.2852 -0.4118
 2433TIP3    H128934   3.997   1.922   8.828  1.0266 -0.4304 -0.0790
 2433TIP3    H228935   4.081   2.041   8.871  0.0698  0.5495 -0.8577
 2434TIP3   OH228936   5.934   3.985   1.553  0.3550 -0.1010 -0.4578
 2434TIP3    H128937   5.952   3.977   1.459  1.8064 -0.1996 -0.1953
 2434TIP3    H228938   5.981   4.064   1.580 -1.6920  1.0860 -0.1646
 2435TIP3   OH228939   5.763   3.574   6.551 -0.1037  0.0678 -0.2644
 2435TIP3    H128940   5.790   3.613   6.634 -1.6933 -1.5549  1.0948
 2435TIP3    H228941   5.815   3.494   6.545  0.6992  0.6528 -1.3419
 2436TIP3   OH228942   3.790   2.165   6.614  0.0978  0.5405 -0.0713
 2436TIP3    H128943   3.786   2.192   6.706  2.1762 -0.2720  0.3198
 2436TIP3    H228944   3.779   2.070   6.617  3.4362  0.0285 -0.2098
 2437TIP3   OH228945   1.671   3.052   8.586 -0.2687 -0.4845  0.3669
 2437TIP3    H128946   1.762   3.082   8.582 -0.7167  0.8126 -1.7995
 2437TIP3    H228947   1.634   3.097   8.662  0.5508  0.0293  0.4752
 2438TIP3   OH228948   1.802   5.789   7.415  0.0308  0.6191  0.0509
 2438TIP3    H128949   1.850   5.717   7.456  1.2120  1.7206  0.6406
 2438TIP3    H228950   1.866   5.830   7.357 -0.2005  2.0470  0.7675
 2439TIP3   OH228951   5.801   0.755   6.262  0.2050 -0.6366  0.5444
 2439TIP3    H128952   5.709   0.770   6.240  0.5600  0.8988  0.0137
 2439TIP3    H228953   5.805   0.764   6.357  0.2346  2.0545  0.3611
 2440TIP3   OH228954   2.313   0.247   8.351 -0.0750  0.7066  0.6323
 2440TIP3    H128955   2.311   0.163   8.398 -0.6640 -0.0046 -0.6060
 2440TIP3    H228956   2.221   0.273   8.345 -0.0959  0.3322 -0.8823
 2441TIP3   OH228957   1.329   0.375   1.950 -0.3928 -0.3247 -0.1542
 2441TIP3    H128958   1.239   0.389   1.921 -0.3251  1.6095  0.3943
 2441TIP3    H228959   1.321   0.328   2.033 -0.7650 -2.2154 -1.2277
 2442TIP3   OH228960   2.554   5.848   6.672  0.6046 -0.0965  0.2646
 2442TIP3    H128961   2.612   5.834   6.597  0.6769 -0.5359  0.4018
 2442TIP3    H228962   2.591   5.795   6.742  0.6908  0.5219  0.7024
 2443TIP3   OH228963   1.088   4.410   7.471 -0.4578  0.5266 -0.8338
 2443TIP3    H128964   1.021   4.451   7.416  1.3956  0.0383 -3.6078
 2443TIP3    H228965   1.074   4.316   7.461 -0.1184  0.4205 -0.3720
 2444TIP3   OH228966   3.696   5.396   2.216 -0.4399 -0.2557 -0.1233
 2444TIP3    H128967   3.660   5.365   2.299 -1.1455 -3.0351 -1.3376
 2444TIP3    H228968   3.779   5.349   2.207 -0.2453  0.2134 -0.8401
 2445TIP3   OH228969   1.074   1.856   8.094 -0.0611  0.2348 -0.1593
 2445TIP3    H128970   0.986   1.857   8.130 -0.4053  0.8627 -0.9770
 2445TIP3    H228971   1.097   1.763   8.088 -0.4125  0.0877  0.6346
 2446TIP3   OH228972   1.931   2.173   2.031  0.1516 -0.4605  0.5965
 2446TIP3    H128973   1.901   2.132   2.112 -1.2355 -2.0985 -0.6708
 2446TIP3    H228974   2.026   2.179   2.041  0.2826 -2.7827  1.4744
 2447TIP3   OH228975   3.753   3.121   1.077 -0.5400  0.3087  0.3843
 2447TIP3    H128976   3.820   3.059   1.107 -0.3368  0.6863  0.7074
 2447TIP3    H228977   3.684   3.065   1.040 -0.6430 -0.1473  1.2485
 2448TIP3   OH228978   0.665   6.539   1.243 -0.4322 -0.2735 -0.0297
 2448TIP3    H128979   0.629   6.463   1.291  0.2900  0.7910  2.3691
 2448TIP3    H228980   0.588   6.588   1.214 -0.9301 -0.3597  1.0961
 2449TIP3   OH228981   4.838   6.245   8.785 -0.4495 -0.3431  0.3039
 2449TIP3    H128982   4.919   6.227   8.833  1.9713  1.3410 -2.8056
 2449TIP3    H228983   4.817   6.163   8.740 -1.3158 -1.1684  2.1032
 2450TIP3   OH228984   5.372   4.819   7.598 -0.1995  0.1329  0.3681
 2450TIP3    H128985   5.331   4.734   7.581  0.6854 -0.7090  2.2016
 2450TIP3    H228986   5.339   4.844   7.684  0.1521  1.3093  0.1766
 2451TIP3   OH228987   5.936   5.758   1.080  0.0285  0.3212 -0.5606
 2451TIP3    H128988   6.028   5.742   1.056  0.1692 -1.2103  0.8160
 2451TIP3    H228989   5.928   5.853   1.085  1.7033  0.4615 -0.0793
 2452TIP3   OH228990   1.675   6.171   8.345  0.1892  0.1343  0.0838
 2452TIP3    H128991   1.689   6.181   8.439 -0.2565 -1.2752  0.3182
 2452TIP3    H228992   1.587   6.134   8.338  0.0494  0.6331 -0.9168
 2453TIP3   OH228993   2.643   6.607   8.662 -0.3679  0.2479 -0.6878
 2453TIP3    H128994   2.638   6.661   8.740 -2.1456 -0.3268 -0.3580
 2453TIP3    H228995   2.614   6.520   8.691 -0.1200 -0.2189 -1.7736
 2454TIP3   OH228996   3.791   6.848   2.177  0.2736  0.3299  0.4032
 2454TIP3    H128997   3.821   6.760   2.199 -0.8496 -0.3465 -0.6702
 2454TIP3    H228998   3.866   6.889   2.135  0.9519  0.0737  1.3187
 2455TIP3   OH228999   3.375   0.602   6.500 -0.0582  0.6478  0.3432
 2455TIP3    H129000   3.316   0.540   6.542 -1.1220  1.6982  0.4658
 2455TIP3    H229001   3.372   0.579   6.407  0.1945  0.0099  0.4908
 2456TIP3   OH229002   5.214   3.202   0.300 -0.0951  0.1731  0.6071
 2456TIP3    H129003   5.131   3.242   0.327  1.1383  1.5849  2.5248
 2456TIP3    H229004   5.229   3.132   0.364 -0.4770 -1.0787 -0.6152
 2457TIP3   OH229005   6.273   3.563   7.268  0.1265  0.2436  0.0697
 2457TIP3    H129006   6.205   3.543   7.332  0.8762 -1.5868  0.3585
 2457TIP3    H229007   6.273   3.659   7.262  0.4080  0.5558  3.2208
 2458TIP3   OH229008   2.375   1.738   7.988 -0.0761 -0.5050 -0.1251
 2458TIP3    H129009   2.318   1.793   7.934 -1.4213 -1.6193  0.0721
 2458TIP3    H229010   2.320   1.662   8.009  2.1108 -2.6553 -1.5793
 2459TIP3   OH229011   0.080   6.549   7.387 -0.2215 -0.2513 -0.0762
 2459TIP3    H129012   0.083   6.458   7.417 -2.5797 -0.7618 -1.1078
 2459TIP3    H229013   0.118   6.546   7.299  2.0675  0.3046  0.8304
 2460TIP3   OH229014   0.274   5.714   0.179  0.5708 -0.5684  0.3296
 2460TIP3    H129015   0.251   5.688   0.268  0.8454 -1.5353  0.1238
 2460TIP3    H229016   0.296   5.807   0.187  1.3507 -0.8253  1.4230
 2461TIP3   OH229017   2.783   2.368   8.285 -0.1397  0.3747 -0.3808
 2461TIP3    H129018   2.790   2.298   8.220 -2.0062  1.3143 -1.6935
 2461TIP3    H229019   2.791   2.449   8.235 -0.1927  1.1285  0.7762
 2462TIP3   OH229020   4.878   3.601   0.801  0.2202 -0.1316  0.2942
 2462TIP3    H129021   4.905   3.692   0.791  0.6221 -0.1351  1.1902
 2462TIP3    H229022   4.795   3.605   0.848 -0.1601 -0.2065 -0.3611
 2463TIP3   OH229023   1.827   4.091   0.737 -0.5225 -0.4676  0.1558
 2463TIP3    H129024   1.797   4.108   0.647  1.9928  1.4311 -0.4474
 2463TIP3    H229025   1.791   4.164   0.788 -0.8371 -0.8181  0.4448
 2464TIP3   OH229026   5.965   2.180   8.415 -0.5251 -0.1950 -0.0340
 2464TIP3    H129027   5.948   2.109   8.476  0.9822 -0.4619  0.1153
 2464TIP3    H229028   5.928   2.257   8.457  0.4577 -0.3754  1.2302
 2465TIP3   OH229029   5.018   0.225   8.671 -0.0651  0.0600  0.0566
 2465TIP3    H129030   5.107   0.192   8.656 -0.4254 -1.9808  1.8513
 2465TIP3    H229031   4.988   0.254   8.585  2.0165 -0.0417 -0.7609
 2466TIP3   OH229032   1.270   5.003   1.420  0.1351 -0.1377  0.1618
 2466TIP3    H129033   1.305   5.036   1.337 -2.6210  1.8587 -0.3696
 2466TIP3    H229034   1.210   4.932   1.393 -2.0390  1.5966  0.1435
 2467TIP3   OH229035   6.559   3.416   8.344 -0.0172  0.4510  0.9505
 2467TIP3    H129036   6.554   3.511   8.357 -1.4257  0.6146 -0.4276
 2467TIP3    H229037   6.480   3.395   8.294  1.1377 -1.1730 -0.3146
 2468TIP3   OH229038   0.435   0.504   1.442 -0.1148  0.4475 -0.1382
 2468TIP3    H129039   0.486   0.539   1.369  0.2615  0.0304 -0.0743
 2468TIP3    H229040   0.490   0.436   1.480 -0.0060  1.1084  0.9565
 2469TIP3   OH229041   3.909   1.291   8.057 -0.0175 -0.6768  0.1377
 2469TIP3    H129042   3.856   1.213   8.077  1.1280 -1.1659  1.3629
 2469TIP3    H229043   3.849   1.348   8.008 -1.7134 -1.1873  1.5178
 2470TIP3   OH229044   5.788   6.378   0.645  0.0863 -0.4236 -0.2606
 2470TIP3    H129045   5.795   6.414   0.557 -1.2290  0.1394 -0.1679
 2470TIP3    H229046   5.762   6.452   0.700  1.3755 -0.6616  0.7054
 2471TIP3   OH229047   5.049   1.507   0.119 -0.2026  0.2021 -0.3723
 2471TIP3    H129048   5.052   1.459   0.037 -2.7490 -0.5779 -0.1045
 2471TIP3    H229049   4.963   1.550   0.118  0.9296  2.6683  0.5615
 2472TIP3   OH229050   4.734   0.581   1.152  0.1795  0.4158  0.7923
 2472TIP3    H129051   4.798   0.583   1.222  0.2355 -1.4678  0.8306
 2472TIP3    H229052   4.653   0.614   1.192  0.4133  0.1176  1.5210
 2473TIP3   OH229053   6.172   3.171   8.473  0.1784 -0.3097 -0.6915
 2473TIP3    H129054   6.175   3.252   8.525  0.4445 -0.4959 -0.4133
 2473TIP3    H229055   6.243   3.118   8.508  1.1391  0.0321 -2.0478
 2474TIP3   OH229056   4.602   1.214   1.612 -0.4862 -0.1643 -0.6736
 2474TIP3    H129057   4.584   1.140   1.669  0.2636  0.0384 -0.1619
 2474TIP3    H229058   4.517   1.238   1.576 -0.7551 -1.1936 -0.7556
 2475TIP3   OH229059   6.099   4.991   8.639 -0.0285 -0.3338 -0.0032
 2475TIP3    H129060   6.154   4.998   8.562  0.0899 -0.1924  0.0944
 2475TIP3    H229061   6.098   4.897   8.659  1.1898 -0.2051  0.7314
 2476TIP3   OH229062   4.512   1.925   7.383  0.2589  0.0485 -0.2452
 2476TIP3    H129063   4.540   1.869   7.311 -0.0026  1.5270 -1.5491
 2476TIP3    H229064   4.440   1.977   7.347 -0.3682  0.3159  1.3113
 2477TIP3   OH229065   0.610   4.013   8.131 -0.1104 -0.3428  0.1843
 2477TIP3    H129066   0.598   3.937   8.074 -1.5790  0.9542 -1.3555
 2477TIP3    H229067   0.521   4.041   8.153  0.4204 -0.1287  2.2573
 2478TIP3   OH229068   6.058   4.259   1.949  0.5388 -0.3107 -0.3171
 2478TIP3    H129069   6.147   4.293   1.956  0.0756  1.3355 -1.5235
 2478TIP3    H229070   6.016   4.286   2.030  0.5906  0.7756 -0.6351
 2479TIP3   OH229071   3.129   4.043   1.300  0.3802  0.4012 -0.1203
 2479TIP3    H129072   3.152   4.124   1.347 -0.3825  1.6032 -1.7511
 2479TIP3    H229073   3.156   4.059   1.210 -0.4564 -0.9022 -0.6254
 2480TIP3   OH229074   5.523   4.745   8.059  0.6566 -0.1048  0.5341
 2480TIP3    H129075   5.437   4.774   8.029  0.3039 -0.9573  0.6981
 2480TIP3    H229076   5.559   4.820   8.106  0.9668  1.0568 -1.4526
 2481TIP3   OH229077   2.839   4.501   8.125  0.5309  0.1009  0.0407
 2481TIP3    H129078   2.878   4.426   8.080  1.1093 -0.5526  1.5791
 2481TIP3    H229079   2.756   4.468   8.159 -0.3722  0.8668 -1.3043
 2482TIP3   OH229080   0.375   1.481   0.334  0.2242  0.6140  0.0013
 2482TIP3    H129081   0.316   1.524   0.396 -0.6008 -0.3549 -0.0995
 2482TIP3    H229082   0.345   1.510   0.248 -0.0921  0.1398 -0.0491
 2483TIP3   OH229083   1.664   2.730   2.406 -0.3493 -0.0955  0.1513
 2483TIP3    H129084   1.666   2.821   2.436  0.5888  0.1610 -0.6242
 2483TIP3    H229085   1.743   2.721   2.352  0.3768 -1.8005  1.4304
 2484TIP3   OH229086   1.898   6.001   7.222  0.5022  0.3766  0.4364
 2484TIP3    H129087   1.929   6.038   7.139 -0.1375  0.7144  0.3402
 2484TIP3    H229088   1.811   6.038   7.233 -0.1007 -0.9681  0.4300
 2485TIP3   OH229089   2.185   2.101   8.423 -0.4478 -0.3877 -0.5572
 2485TIP3    H129090   2.101   2.111   8.379 -1.1694  0.1225  0.8940
 2485TIP3    H229091   2.234   2.180   8.400 -0.5489 -0.4591 -1.0193
 2486TIP3   OH229092   3.562   0.419   7.330 -0.3709 -0.1443  0.4899
 2486TIP3    H129093   3.510   0.344   7.361 -0.3331 -1.0937 -1.6085
 2486TIP3    H229094   3.560   0.412   7.235  2.1721  0.7956  0.2978
 2487TIP3   OH229095   0.047   0.176   8.444  0.4211 -0.2606  0.3168
 2487TIP3    H129096   0.075   0.085   8.439  0.3263 -0.2658 -0.1770
 2487TIP3    H229097   0.096   0.212   8.519  2.3610 -0.0722 -0.9580
 2488TIP3   OH229098   5.643   4.968   7.618 -0.3817 -0.1141  0.2655
 2488TIP3    H129099   5.729   4.988   7.581 -0.4313  0.5195  0.4905
 2488TIP3    H229100   5.591   4.939   7.542  0.0870 -0.7240  0.1639
 2489TIP3   OH229101   6.436   3.673   0.283 -0.0161  0.7854  0.1626
 2489TIP3    H129102   6.442   3.590   0.329  0.9221  1.0366  0.5137
 2489TIP3    H229103   6.454   3.739   0.350  1.0763  1.1715 -0.4974
 2490TIP3   OH229104   5.085   5.549   6.839 -0.0871  0.8194  0.3531
 2490TIP3    H129105   5.067   5.459   6.813 -0.2650  1.2349 -1.0064
 2490TIP3    H229106   5.174   5.566   6.808 -0.3904  1.3969 -0.2390
 2491TIP3   OH229107   5.469   3.540   2.137 -0.4001  0.2406 -0.0776
 2491TIP3    H129108   5.471   3.591   2.217  0.6837  1.9433 -1.1281
 2491TIP3    H229109   5.557   3.550   2.099 -0.4589 -1.6380 -0.8081
 2492TIP3   OH229110   3.116   0.894   0.749 -0.4627 -0.0432 -0.4232
 2492TIP3    H129111   3.100   0.874   0.657 -2.3431  0.7029 -0.2935
 2492TIP3    H229112   3.184   0.831   0.775  0.5300  0.1061 -2.4243
 2493TIP3   OH229113   2.019   5.363   0.861 -0.0355  0.1199  0.0616
 2493TIP3    H129114   1.982   5.275   0.874 -0.7881  0.3845 -0.2210
 2493TIP3    H229115   2.048   5.390   0.948 -0.3238 -0.1838  0.2556
 2494TIP3   OH229116   3.787   0.910   8.382 -0.0779  0.3365 -0.2041
 2494TIP3    H129117   3.852   0.980   8.385  0.5476 -0.2831  1.3388
 2494TIP3    H229118   3.711   0.945   8.429 -0.3688  0.5538 -0.8229
 2495TIP3   OH229119   6.701   4.053   1.128  0.1201  0.2512 -0.1889
 2495TIP3    H129120   6.785   4.089   1.099  0.3760 -0.8979 -0.9436
 2495TIP3    H229121   6.688   3.975   1.073 -0.8661 -0.2595  0.7338
 2496TIP3   OH229122   4.463   6.540   0.095 -0.1872  0.2944 -0.1435
 2496TIP3    H129123   4.407   6.526   0.172 -0.7053 -0.3769 -0.6374
 2496TIP3    H229124   4.472   6.454   0.055 -1.4856  0.9229 -1.8910
 2497TIP3   OH229125   4.841   6.794   8.753  0.4912 -0.1939  0.3324
 2497TIP3    H129126   4.906   6.735   8.791  1.5233  0.4729 -0.3427
 2497TIP3    H229127   4.889   6.844   8.687  0.1754  2.7074  2.0924
 2498TIP3   OH229128   4.401   3.563   6.714  0.0708  0.0623  0.1148
 2498TIP3    H129129   4.320   3.569   6.766 -0.0202  0.0246 -0.0242
 2498TIP3    H229130   4.374   3.523   6.632  0.0651  0.8478 -0.2787
 2499TIP3   OH229131   2.146   6.144   7.674  0.5863  0.5250 -0.2277
 2499TIP3    H129132   2.221   6.142   7.615 -0.0344 -1.0944 -1.0122
 2499TIP3    H229133   2.156   6.226   7.723  1.2101  1.8475 -2.4366
 2500TIP3   OH229134   4.164   1.526   1.948  0.2450  0.1707  0.9012
 2500TIP3    H129135   4.227   1.573   1.893  0.0873 -2.1476 -1.4275
 2500TIP3    H229136   4.218   1.476   2.009  0.8636 -2.3748 -1.5497
 2501TIP3   OH229137   5.917   2.920   7.890 -0.1399 -0.4826 -0.1543
 2501TIP3    H129138   5.936   2.974   7.814  0.9638 -0.2548  0.2568
 2501TIP3    H229139   5.968   2.840   7.875 -1.0261 -1.0321 -0.3125
 2502TIP3   OH229140   6.353   4.635   1.351  0.3970  0.2999 -0.7536
 2502TIP3    H129141   6.409   4.671   1.282  3.1970 -2.5629 -0.1989
 2502TIP3    H229142   6.404   4.647   1.431 -0.7871 -0.4446  0.1387
 2503TIP3   OH229143   4.070   3.846   7.718  0.2372  0.0972 -0.5553
 2503TIP3    H129144   3.992   3.844   7.773  0.0665  0.8449 -0.7598
 2503TIP3    H229145   4.140   3.813   7.775 -0.1779 -0.3451 -0.2959
 2504TIP3   OH229146   4.788   1.537   0.156  0.0093  0.0727 -0.1016
 2504TIP3    H129147   4.770   1.570   0.244  1.5208  0.0039  0.2555
 2504TIP3    H229148   4.764   1.610   0.099 -2.6850 -0.4892  0.1723
 2505TIP3   OH229149   6.205   3.836   8.125  0.3102  0.3879  0.5715
 2505TIP3    H129150   6.288   3.872   8.157  0.2693  1.3577 -0.3813
 2505TIP3    H229151   6.143   3.855   8.196  1.1328 -1.5537  1.9061
 2506TIP3   OH229152   1.173   1.590   7.517 -0.7838  0.2461 -0.4432
 2506TIP3    H129153   1.208   1.672   7.482 -1.3004 -0.0244 -1.6498
 2506TIP3    H229154   1.233   1.522   7.486 -0.8592  0.0717 -0.2119
 2507TIP3   OH229155   1.810   1.712   8.713 -0.3435 -0.2516  0.3283
 2507TIP3    H129156   1.795   1.806   8.721 -0.7967 -0.0853 -1.8390
 2507TIP3    H229157   1.850   1.686   8.797  3.5117  2.5802 -0.3640
 2508TIP3   OH229158   3.031   1.792   8.632  0.0219  0.3449 -0.3803
 2508TIP3    H129159   3.031   1.698   8.650 -0.1860  0.1877 -1.1795
 2508TIP3    H229160   3.119   1.821   8.655 -0.9856  0.7965  3.9674
 2509TIP3   OH229161   0.184   6.826   7.379  0.9690  0.5774  0.5952
 2509TIP3    H129162   0.115   6.760   7.375  1.4223  0.0603  1.0739
 2509TIP3    H229163   0.265   6.778   7.362  1.3492  0.9277  1.3372
 2510TIP3   OH229164   4.144   1.461   1.324  0.3332 -0.1112  0.3291
 2510TIP3    H129165   4.121   1.399   1.393 -0.4741 -0.2811 -0.0771
 2510TIP3    H229166   4.084   1.534   1.335  1.0740  0.4718  0.6089
 2511TIP3   OH229167   5.357   2.194   0.287 -0.1435  0.1418 -0.2798
 2511TIP3    H129168   5.293   2.123   0.287  0.3740 -0.3293 -0.6900
 2511TIP3    H229169   5.395   2.192   0.375 -1.6683  1.3431  0.4748
 2512TIP3   OH229170   2.891   4.909   0.719  0.9181 -0.2780  0.5046
 2512TIP3    H129171   2.943   4.982   0.753 -0.0529  0.2927  0.8099
 2512TIP3    H229172   2.902   4.914   0.624  0.6199  0.4639  0.4998
 2513TIP3   OH229173   4.349   5.860   8.687  0.2906  0.3183 -0.0184
 2513TIP3    H129174   4.332   5.789   8.749 -1.1529 -0.4643 -1.2367
 2513TIP3    H229175   4.345   5.940   8.740  2.6673 -0.4885  1.5247
 2514TIP3   OH229176   5.974   6.570   1.511  0.7958  0.3500  0.3830
 2514TIP3    H129177   5.905   6.619   1.467  0.6994  0.0273  0.1767
 2514TIP3    H229178   5.993   6.622   1.590  0.0989  0.2785  0.6023
 2515TIP3   OH229179   4.579   6.192   8.042 -0.1168 -0.7651 -0.2048
 2515TIP3    H129180   4.512   6.222   7.980 -0.1714  3.6129  1.6546
 2515TIP3    H229181   4.662   6.209   7.998 -0.1604  2.1061  0.6402
 2516TIP3   OH229182   5.547   1.136   1.289  0.6188  0.0419  0.2420
 2516TIP3    H129183   5.519   1.175   1.205  1.7322 -0.4891 -0.3928
 2516TIP3    H229184   5.547   1.042   1.273 -0.7463 -0.1822  1.3657
 2517TIP3   OH229185   0.398   2.102   0.785  0.1350 -0.0248 -0.0336
 2517TIP3    H129186   0.437   2.045   0.718 -0.4213  0.5786 -0.9024
 2517TIP3    H229187   0.310   2.067   0.798  0.7462 -1.0872  1.5635
 2518TIP3   OH229188   3.955   2.910   8.197 -0.2712 -0.2431  0.3953
 2518TIP3    H129189   3.918   2.824   8.181 -0.4142  0.1218 -1.3907
 2518TIP3    H229190   4.030   2.893   8.254 -1.0566 -1.3817  1.1291
 2519TIP3   OH229191   5.773   0.118   7.530 -0.0507  0.1389  0.8590
 2519TIP3    H129192   5.716   0.157   7.463 -0.4168  0.8382  1.5645
 2519TIP3    H229193   5.719   0.115   7.609  0.3388 -0.7889  1.1009
 2520TIP3   OH229194   2.418   2.329   1.927 -0.0409  0.2996  0.0500
 2520TIP3    H129195   2.365   2.409   1.927  0.7290  0.9574  3.2060
 2520TIP3    H229196   2.508   2.360   1.923  0.2296 -0.5621 -0.7598
 2521TIP3   OH229197   6.807   0.526   0.382 -1.2473 -0.7975 -0.4853
 2521TIP3    H129198   6.712   0.515   0.385 -1.5320  1.3386 -0.4284
 2521TIP3    H229199   6.836   0.506   0.471 -1.7733 -0.5304 -0.2490
 2522TIP3   OH229200   1.794   4.213   7.122 -0.0114 -0.8091  0.4016
 2522TIP3    H129201   1.772   4.211   7.029 -1.7566  2.9603  0.5479
 2522TIP3    H229202   1.715   4.182   7.166  0.4033 -1.4761  0.6981
 2523TIP3   OH229203   0.587   0.300   1.548 -0.1154  0.1423 -0.0658
 2523TIP3    H129204   0.681   0.284   1.550  0.0503  1.1131  0.5098
 2523TIP3    H229205   0.570   0.352   1.627 -1.1440 -0.1031 -0.1210
 2524TIP3   OH229206   1.537   1.106   0.154 -0.7835  0.0228  0.2676
 2524TIP3    H129207   1.609   1.049   0.181  0.6326  0.5993 -1.9737
 2524TIP3    H229208   1.491   1.056   0.087 -1.1528  0.4691  0.1863
 2525TIP3   OH229209   1.626   1.488   0.354 -0.1073 -0.7075 -0.0460
 2525TIP3    H129210   1.633   1.438   0.273 -0.3630 -1.6054  0.4626
 2525TIP3    H229211   1.595   1.574   0.327  0.5088 -0.7593 -0.9684
 2526TIP3   OH229212   1.237   2.279   7.790 -0.0242 -0.3024  0.0105
 2526TIP3    H129213   1.325   2.301   7.761  0.2346  1.0503  1.6433
 2526TIP3    H229214   1.246   2.195   7.836  0.4559 -0.1058  0.2846
 2527TIP3   OH229215   4.632   4.867   7.968  0.5078 -0.5436  0.1805
 2527TIP3    H129216   4.544   4.864   8.007  0.3603 -0.9492 -0.1689
 2527TIP3    H229217   4.620   4.829   7.881  1.0638 -0.7579  0.1960
 2528TIP3   OH229218   1.858   0.356   1.424  0.0351  0.6718 -0.5468
 2528TIP3    H129219   1.785   0.376   1.484  0.6446  1.2468  0.0204
 2528TIP3    H229220   1.925   0.316   1.480  0.5805  1.1417 -0.8533
 2529TIP3   OH229221   4.688   6.717   1.976 -0.6056 -0.0796  0.0840
 2529TIP3    H129222   4.776   6.754   1.984 -0.3058 -0.4126 -1.3740
 2529TIP3    H229223   4.699   6.625   2.002 -0.0897 -0.6001 -1.7583
 2530TIP3   OH229224   3.710   4.951   0.901 -0.3411 -0.1885  0.0649
 2530TIP3    H129225   3.777   5.003   0.948 -2.7926  1.7697  1.7050
 2530TIP3    H229226   3.756   4.917   0.825  2.1287  2.4489  0.1623
 2531TIP3   OH229227   5.092   6.813   7.784  0.5131 -0.2330 -0.0137
 2531TIP3    H129228   5.145   6.832   7.706  1.9637  0.4957  1.0855
 2531TIP3    H229229   5.152   6.828   7.857 -0.6769 -1.3471  1.2393
 2532TIP3   OH229230   5.452   6.320   7.842 -0.7645 -0.4896 -0.7181
 2532TIP3    H129231   5.433   6.240   7.891 -0.2998  0.0302  0.3749
 2532TIP3    H229232   5.547   6.319   7.831 -0.3570  1.2021  1.7796
 2533TIP3   OH229233   2.210   1.865   7.799 -0.3632 -0.0333  0.5424
 2533TIP3    H129234   2.149   1.807   7.753 -1.0988  0.7360  0.5001
 2533TIP3    H229235   2.287   1.870   7.742  0.2478 -1.9189  1.1291
 2534TIP3   OH229236   4.325   5.059   0.420  0.4923  0.9932 -0.2190
 2534TIP3    H129237   4.310   5.117   0.346 -1.3238 -0.4276 -1.0355
 2534TIP3    H229238   4.265   5.090   0.488 -0.5872  0.0233 -0.7082
 2535TIP3   OH229239   0.617   5.781   0.623 -0.2795 -0.0727  0.2450
 2535TIP3    H129240   0.645   5.861   0.579  1.1341 -0.7172 -0.0842
 2535TIP3    H229241   0.522   5.792   0.635 -0.1334  1.5838  0.1186
 2536TIP3   OH229242   3.955   5.350   0.867 -0.3166 -0.1378 -0.6171
 2536TIP3    H129243   4.015   5.326   0.938 -1.3006 -2.4704 -0.4706
 2536TIP3    H229244   3.990   5.432   0.832  0.7033  0.6210  1.9659
 2537TIP3   OH229245   0.528   0.100   7.189  0.4165 -0.1074 -0.0349
 2537TIP3    H129246   0.435   0.099   7.208 -0.0802 -1.9595 -2.2338
 2537TIP3    H229247   0.567   0.148   7.263 -1.7309 -3.0512  3.3530
 2538TIP3   OH229248   0.563   5.865   7.357 -0.2761 -0.0310 -0.2960
 2538TIP3    H129249   0.659   5.864   7.357 -0.2214 -0.1122  2.0290
 2538TIP3    H229250   0.538   5.783   7.315  0.7217 -0.8000  0.5591
 2539TIP3   OH229251   6.661   3.132   8.662  0.2093 -0.2530  0.7693
 2539TIP3    H129252   6.717   3.203   8.632  0.0508 -1.0743 -1.7318
 2539TIP3    H229253   6.584   3.136   8.606 -0.2337 -1.7969  1.2012
 2540TIP3   OH229254   0.309   6.002   8.637  0.7062  0.6306 -0.4624
 2540TIP3    H129255   0.249   6.062   8.592  0.2292  0.8306  0.4270
 2540TIP3    H229256   0.259   5.921   8.646 -0.0081  1.2367  1.5720
 2541TIP3   OH229257   1.589   6.232   7.964  0.1373 -0.2467 -0.0695
 2541TIP3    H129258   1.585   6.152   7.912 -0.6169 -0.4950  0.3601
 2541TIP3    H229259   1.677   6.231   8.003  0.0495 -0.9706  0.1133
 2542TIP3   OH229260   4.622   3.204   0.605  0.2586  0.4984 -0.4326
 2542TIP3    H129261   4.696   3.265   0.607  2.2227 -1.7632  1.0165
 2542TIP3    H229262   4.588   3.205   0.694  1.7266 -2.0082  0.2435
 2543TIP3   OH229263   0.309   1.530   7.381  0.0089  0.6795  0.5458
 2543TIP3    H129264   0.320   1.479   7.301 -1.2045 -0.7980  1.2768
 2543TIP3    H229265   0.397   1.563   7.401  0.5825 -0.0629 -0.6379
 2544TIP3   OH229266   6.804   0.058   2.533  0.4373 -0.2371 -0.2477
 2544TIP3    H129267   6.859   0.136   2.545 -0.6352  0.5676 -0.4251
 2544TIP3    H229268   6.849   0.008   2.465 -0.2406  1.5916 -2.1593
 2545TIP3   OH229269   3.864   1.096   1.105 -0.4272  0.2657 -0.4435
 2545TIP3    H129270   3.953   1.061   1.102 -0.3435  0.5361 -1.6711
 2545TIP3    H229271   3.808   1.019   1.097 -0.2577  0.2716 -1.9177
 2546TIP3   OH229272   5.501   3.388   6.418 -0.6014 -0.3837 -0.3766
 2546TIP3    H129273   5.596   3.381   6.408 -0.4544  0.8401  0.1180
 2546TIP3    H229274   5.475   3.455   6.355 -0.9699  0.1680  0.3508
 2547TIP3   OH229275   6.614   0.204   7.578 -0.3152 -0.7440 -1.0236
 2547TIP3    H129276   6.551   0.242   7.639  0.4530 -0.6231 -0.2958
 2547TIP3    H229277   6.596   0.247   7.494  1.1426  1.9595 -0.0436
 2548TIP3   OH229278   2.314   3.447   1.637 -1.0365  0.1108 -0.6123
 2548TIP3    H129279   2.224   3.477   1.641 -1.1243 -0.1763 -0.2797
 2548TIP3    H229280   2.347   3.460   1.726 -1.4396 -1.8304 -0.1306
 2549TIP3   OH229281   3.771   2.231   0.553 -0.0651  0.1125 -0.0551
 2549TIP3    H129282   3.740   2.256   0.466  0.5040 -0.8380 -0.5577
 2549TIP3    H229283   3.775   2.135   0.550  3.4274  0.1335 -0.2869
 2550TIP3   OH229284   3.084   5.532   8.323  0.9488  0.2945 -0.9007
 2550TIP3    H129285   3.096   5.462   8.258  2.6177 -0.5324  0.2250
 2550TIP3    H229286   3.009   5.504   8.375  1.4841 -0.5620 -0.5833
 2551TIP3   OH229287   0.089   2.944   0.538 -0.3519 -0.4977 -0.3003
 2551TIP3    H129288   0.153   2.877   0.518  0.1564 -0.0787 -0.1031
 2551TIP3    H229289   0.011   2.918   0.489  0.3509 -0.3498 -1.5547
 2552TIP3   OH229290   5.836   2.983   7.358  0.0924 -0.9670 -0.1241
 2552TIP3    H129291   5.856   3.075   7.340  0.6515 -0.8605  1.0046
 2552TIP3    H229292   5.884   2.935   7.291 -0.4823 -0.4336 -0.9393
 2553TIP3   OH229293   4.793   4.142   2.507 -0.0718 -0.0916 -0.0275
 2553TIP3    H129294   4.805   4.149   2.602  0.7677 -0.1138 -0.1232
 2553TIP3    H229295   4.853   4.206   2.470  0.7922 -1.1842 -0.5916
 2554TIP3   OH229296   2.726   5.218   6.915  0.2203  0.5102  0.4683
 2554TIP3    H129297   2.662   5.247   6.981 -0.8764  1.4970 -0.9660
 2554TIP3    H229298   2.788   5.291   6.909 -0.1783  0.8031 -0.1906
 2555TIP3   OH229299   4.798   2.094   6.385 -0.1122  0.4112  0.7306
 2555TIP3    H129300   4.739   2.062   6.454  0.1171 -1.3723  0.1420
 2555TIP3    H229301   4.811   2.019   6.328  1.3810  1.2665 -0.1082
 2556TIP3   OH229302   1.125   6.198   8.297  0.0651  0.0911  0.4203
 2556TIP3    H129303   1.048   6.213   8.352  0.0036  0.1076  0.3288
 2556TIP3    H229304   1.122   6.267   8.231 -2.3659 -2.4344 -2.4268
 2557TIP3   OH229305   4.319   2.012   0.881  0.1792  0.2508 -0.0919
 2557TIP3    H129306   4.379   1.939   0.899  2.0290  1.9029  0.7253
 2557TIP3    H229307   4.375   2.080   0.844 -1.8419  0.6217 -2.7380
 2558TIP3   OH229308   1.972   6.444   7.628 -0.0139 -0.7020  0.1311
 2558TIP3    H129309   1.895   6.496   7.607 -1.3086 -1.8683  1.7274
 2558TIP3    H229310   1.971   6.435   7.724  1.8546 -1.1276  0.1629
 2559TIP3   OH229311   4.403   4.405   7.024 -0.0872 -0.0851  0.5044
 2559TIP3    H129312   4.443   4.344   6.962  0.2751 -1.3678  1.9249
 2559TIP3    H229313   4.462   4.480   7.026  0.6713 -0.6654  0.3647
 2560TIP3   OH229314   4.223   0.572   7.886 -0.0589 -0.9155 -0.1600
 2560TIP3    H129315   4.161   0.593   7.956  1.4590 -0.8482  1.2493
 2560TIP3    H229316   4.207   0.479   7.867 -0.5926 -0.8979  0.1755
 2561TIP3   OH229317   2.847   6.762   7.214 -0.8888  0.5072  0.0398
 2561TIP3    H129318   2.769   6.707   7.225 -0.8518  0.2741 -0.8430
 2561TIP3    H229319   2.906   6.732   7.283 -0.5927 -1.0659 -0.8551
 2562TIP3   OH229320   1.779   1.268   6.467  0.1629 -0.5247 -0.0408
 2562TIP3    H129321   1.740   1.193   6.422 -1.2990  0.9286 -1.3373
 2562TIP3    H229322   1.841   1.304   6.403 -1.4190  1.1429 -0.7383
 2563TIP3   OH229323   2.257   1.875   1.744 -0.1020 -0.4139 -0.6163
 2563TIP3    H129324   2.288   1.785   1.741  0.3474 -0.2569 -1.0284
 2563TIP3    H229325   2.219   1.890   1.657 -0.9932 -0.4783 -0.2505
 2564TIP3   OH229326   5.430   2.095   0.530 -0.4277  0.6375  0.4312
 2564TIP3    H129327   5.465   2.007   0.544 -0.3866  0.5762 -0.0502
 2564TIP3    H229328   5.384   2.116   0.612  0.0688  0.4114  0.7696
 2565TIP3   OH229329   1.291   5.637   0.851  0.0370  0.4218  0.1974
 2565TIP3    H129330   1.340   5.706   0.807 -0.5207 -0.6518 -2.3550
 2565TIP3    H229331   1.315   5.557   0.803 -1.6126 -0.6472  1.0550
 2566TIP3   OH229332   1.518   6.165   1.946  0.5772 -0.5733 -0.0358
 2566TIP3    H129333   1.599   6.128   1.982  2.7087  4.3073  1.0209
 2566TIP3    H229334   1.469   6.194   2.023  0.2909  0.9043 -0.7311
 2567TIP3   OH229335   2.338   3.953   1.281  0.5330 -0.2098  0.2380
 2567TIP3    H129336   2.373   3.989   1.199 -0.3454 -2.9166 -1.4461
 2567TIP3    H229337   2.386   3.871   1.294 -1.2380 -1.1954  0.9027
 2568TIP3   OH229338   0.030   3.918   7.101 -0.1910 -0.0726 -0.5852
 2568TIP3    H129339   0.015   3.859   7.027  0.3210  1.1014 -1.6542
 2568TIP3    H229340   0.009   4.005   7.068  1.5869  0.6813  0.1357
 2569TIP3   OH229341   4.994   3.211   1.903 -0.2790  0.1170 -0.3825
 2569TIP3    H129342   4.947   3.295   1.900 -0.1457  0.1760 -0.8503
 2569TIP3    H229343   5.074   3.227   1.854 -0.8661 -0.6569 -1.6393
 2570TIP3   OH229344   2.512   4.933   8.394  0.1702 -0.4651  0.5112
 2570TIP3    H129345   2.465   4.860   8.433  0.1900  0.0858  1.6160
 2570TIP3    H229346   2.444   4.989   8.357  0.0310 -0.3089  0.9857
 2571TIP3   OH229347   3.093   6.549   1.773  0.6754 -0.4893 -0.4350
 2571TIP3    H129348   3.094   6.542   1.677 -0.1980  1.5896 -0.6354
 2571TIP3    H229349   3.010   6.509   1.799  0.4464 -0.1494 -0.6394
 2572TIP3   OH229350   5.550   5.515   1.880 -0.2331  0.0745  0.4578
 2572TIP3    H129351   5.572   5.468   1.800 -0.5105  0.8346 -0.0752
 2572TIP3    H229352   5.455   5.512   1.884 -0.1808 -1.1019  1.4747
 2573TIP3   OH229353   0.748   3.622   0.706 -0.2399 -0.4593  0.2668
 2573TIP3    H129354   0.671   3.678   0.706  0.6528  0.8246  0.5008
 2573TIP3    H229355   0.725   3.548   0.650 -1.0458  0.7499 -1.0396
 2574TIP3   OH229356   0.670   0.751   6.326  0.5692 -0.1043 -0.2354
 2574TIP3    H129357   0.715   0.801   6.393 -0.4377  1.6094 -0.7569
 2574TIP3    H229358   0.614   0.816   6.282  0.9922 -1.2092 -2.5337
 2575TIP3   OH229359   6.150   4.141   8.246 -0.5939 -0.2785  0.0704
 2575TIP3    H129360   6.191   4.215   8.290  1.1378 -1.4170  0.5039
 2575TIP3    H229361   6.186   4.143   8.157  2.6094 -2.6742  1.1009
 2576TIP3   OH229362   3.901   6.640   7.890 -0.2327 -0.6170 -0.3009
 2576TIP3    H129363   3.898   6.580   7.815  0.5288 -0.7861 -0.2065
 2576TIP3    H229364   3.834   6.607   7.950 -0.9044 -0.4299 -0.9357
 2577TIP3   OH229365   2.419   5.810   1.145 -0.4233  0.0518  0.1658
 2577TIP3    H129366   2.372   5.892   1.162 -0.7447 -0.2037  0.5231
 2577TIP3    H229367   2.350   5.748   1.122 -0.2574 -0.3058  0.6269
 2578TIP3   OH229368   4.527   4.215   6.857 -0.4315 -0.2545 -0.2046
 2578TIP3    H129369   4.602   4.158   6.842 -0.2247 -0.2091  0.6318
 2578TIP3    H229370   4.494   4.235   6.769  1.0532  0.4179 -0.6450
 2579TIP3   OH229371   3.499   4.263   1.818 -0.2799  0.6983 -0.0692
 2579TIP3    H129372   3.554   4.293   1.889  2.0896 -2.2486 -0.4302
 2579TIP3    H229373   3.433   4.207   1.860 -1.1548  1.8163  0.0832
 2580TIP3   OH229374   0.344   6.437   7.396 -0.5079  0.4353 -0.6572
 2580TIP3    H129375   0.433   6.411   7.373 -0.3430  0.7261 -0.3568
 2580TIP3    H229376   0.301   6.355   7.422  0.6792  0.6579  2.5135
 2581TIP3   OH229377   5.165   5.843   1.937  0.3132  0.3066 -0.3299
 2581TIP3    H129378   5.167   5.927   1.983 -0.7664  0.7630 -1.0833
 2581TIP3    H229379   5.079   5.806   1.958  0.6567 -0.4683 -0.2617
 2582TIP3   OH229380   1.663   6.103   8.677 -0.6216  0.3209 -0.5476
 2582TIP3    H129381   1.750   6.134   8.648 -1.3497  2.9030 -0.2521
 2582TIP3    H229382   1.611   6.183   8.685 -2.8497 -1.0975 -0.0164
 2583TIP3   OH229383   0.106   5.713   1.912 -0.2279 -0.1336 -0.0530
 2583TIP3    H129384   0.050   5.640   1.888  1.3674 -1.7313  0.8813
 2583TIP3    H229385   0.047   5.777   1.951 -1.3650 -1.9438  1.3067
 2584TIP3   OH229386   0.864   2.001   1.397  0.5914  0.5086 -1.1180
 2584TIP3    H129387   0.927   1.946   1.444 -1.1148 -1.9388 -1.5406
 2584TIP3    H229388   0.815   2.045   1.466 -1.5667 -2.6860 -0.3776
 2585TIP3   OH229389   3.495   2.540   7.533  0.2551 -0.4009  0.5320
 2585TIP3    H129390   3.581   2.522   7.495  0.0813  0.3583 -0.2539
 2585TIP3    H229391   3.458   2.453   7.550  1.2712 -0.7323  1.1200
 2586TIP3   OH229392   0.489   1.892   0.615 -0.0799 -0.0541  0.0086
 2586TIP3    H129393   0.538   1.901   0.533 -0.5597  1.9900 -0.1214
 2586TIP3    H229394   0.398   1.880   0.587 -0.4437  1.9782  0.1775
 2587TIP3   OH229395   0.573   5.519   0.510  0.4486  0.1546  0.0215
 2587TIP3    H129396   0.554   5.581   0.581 -1.8392  0.0395 -0.4370
 2587TIP3    H229397   0.616   5.573   0.443  0.2751  0.8235  0.4372
 2588TIP3   OH229398   3.207   1.273   1.840 -0.2959 -0.4037 -0.2578
 2588TIP3    H129399   3.297   1.242   1.855  0.1449  0.3916 -1.1341
 2588TIP3    H229400   3.183   1.316   1.922 -0.9013 -2.9091  0.9686
 2589TIP3   OH229401   3.120   0.063   1.762 -0.0176 -0.2728 -0.2523
 2589TIP3    H129402   3.145   0.137   1.706  2.5334 -0.3649  0.6379
 2589TIP3    H229403   3.108   0.101   1.849  0.2944 -0.7672  0.0092
 2590TIP3   OH229404   5.904   3.422   0.307 -0.6920  0.3086 -0.5137
 2590TIP3    H129405   5.912   3.482   0.382  0.4470 -1.7168  1.0758
 2590TIP3    H229406   5.823   3.449   0.263  0.2949  3.7019 -0.5732
 2591TIP3   OH229407   0.667   1.441   1.394 -0.0780  0.3277 -0.1803
 2591TIP3    H129408   0.656   1.530   1.429 -0.5048 -0.0819  0.7616
 2591TIP3    H229409   0.697   1.390   1.468 -0.1374 -0.3853 -0.6394
 2592TIP3   OH229410   2.790   3.251   7.590  0.4248  0.3940 -0.2434
 2592TIP3    H129411   2.795   3.282   7.499  1.2386 -0.3849 -0.4900
 2592TIP3    H229412   2.775   3.156   7.581 -3.7573  0.8258  0.4743
 2593TIP3   OH229413   4.411   6.148   8.712 -0.1220 -0.4302  0.4348
 2593TIP3    H129414   4.479   6.193   8.761  0.5688  0.0221 -0.8753
 2593TIP3    H229415   4.431   6.167   8.620 -1.4896 -1.0436 -0.0247
 2594TIP3   OH229416   4.049   5.443   8.570 -0.1160 -0.3998 -0.6757
 2594TIP3    H129417   4.065   5.385   8.645 -0.5876 -0.9014 -0.9597
 2594TIP3    H229418   4.063   5.531   8.605  0.4424 -0.6708 -0.1959
 2595TIP3   OH229419   3.038   1.453   7.682  0.0475 -0.3721 -0.5554
 2595TIP3    H129420   2.961   1.485   7.634 -0.3845 -0.3875  0.1068
 2595TIP3    H229421   3.006   1.376   7.729 -0.1058  0.7828  1.3555
 2596TIP3   OH229422   4.323   1.780   7.656 -0.4929 -0.0095 -0.2267
 2596TIP3    H129423   4.358   1.821   7.735 -0.6816 -0.0813 -0.1039
 2596TIP3    H229424   4.400   1.747   7.609 -0.5033 -3.1457  1.6620
 2597TIP3   OH229425   0.123   6.113   1.912 -0.6391 -0.0993 -0.0991
 2597TIP3    H129426   0.111   6.193   1.964  1.1266 -0.0614  0.3103
 2597TIP3    H229427   0.054   6.054   1.942 -0.6359  0.5044  1.1379
 2598TIP3   OH229428   1.641   4.025   2.251 -0.2515  0.2562  0.0510
 2598TIP3    H129429   1.574   3.960   2.231 -0.8130  0.8802 -0.1244
 2598TIP3    H229430   1.714   3.974   2.285 -0.6042 -0.4867 -0.2826
 2599TIP3   OH229431   0.618   3.756   7.984  0.8049  0.2426  0.0320
 2599TIP3    H129432   0.642   3.685   8.044  0.1813  0.0869  0.1109
 2599TIP3    H229433   0.621   3.716   7.897 -0.8164 -0.2656  0.1759
 2600TIP3   OH229434   5.164   0.424   1.665 -0.3463 -0.2285 -0.7054
 2600TIP3    H129435   5.114   0.357   1.619 -1.1597 -0.7533  0.8937
 2600TIP3    H229436   5.216   0.375   1.729 -1.1663  0.6648  0.6782
 2601TIP3   OH229437   0.079   6.796   0.426  0.3075 -0.6931  0.1374
 2601TIP3    H129438   0.077   6.787   0.331 -0.2714 -1.4692  0.2168
 2601TIP3    H229439  -0.001   6.844   0.447  1.3527  1.1997  0.0916
 2602TIP3   OH229440   5.248   5.907   6.989  0.2992 -0.2095  0.7444
 2602TIP3    H129441   5.271   6.000   6.987  1.5825 -0.1949  5.2966
 2602TIP3    H229442   5.328   5.862   6.962 -0.2983 -0.0781 -1.3827
 2603TIP3   OH229443   4.288   3.915   1.289 -0.3171  0.7230  0.8581
 2603TIP3    H129444   4.218   3.905   1.225  0.7565 -0.7057 -0.1327
 2603TIP3    H229445   4.367   3.927   1.237  0.5711 -0.3856  1.8941
 2604TIP3   OH229446   5.065   4.483   0.005 -0.2217 -0.0405 -0.0439
 2604TIP3    H129447   5.026   4.397  -0.010  0.2307 -0.3066  0.2792
 2604TIP3    H229448   5.073   4.490   0.100  1.8685 -0.6213 -0.1337
 2605TIP3   OH229449   6.012   3.134   0.131 -0.3631 -0.2466 -0.0548
 2605TIP3    H129450   5.948   3.139   0.202  1.1849  0.0352  1.4013
 2605TIP3    H229451   6.061   3.216   0.138 -0.5525  0.0474 -1.8597
 2606TIP3   OH229452   6.274   2.644   7.187 -0.5372 -0.5388 -0.1128
 2606TIP3    H129453   6.236   2.680   7.106 -0.8931  2.0699  1.1090
 2606TIP3    H229454   6.198   2.613   7.237 -0.5804  0.0464  0.1976
 2607TIP3   OH229455   0.009   1.063   1.312  0.7536 -0.3938  0.6887
 2607TIP3    H129456   0.024   1.082   1.405 -1.7872 -1.6216  1.4606
 2607TIP3    H229457  -0.042   1.138   1.281  1.4060 -0.0923  0.3424
 2608TIP3   OH229458   0.080   5.729   0.857 -0.2023  0.1396  0.1984
 2608TIP3    H129459   0.078   5.820   0.828 -0.8713 -0.2408 -0.9773
 2608TIP3    H229460   0.023   5.682   0.796  0.8189 -1.2261  0.2493
 2609TIP3   OH229461   5.693   2.647   2.207  0.1184 -0.2072 -0.2884
 2609TIP3    H129462   5.682   2.597   2.126  1.6012 -3.0930  1.1111
 2609TIP3    H229463   5.615   2.625   2.259  0.1895 -0.0827 -0.1277
 2610TIP3   OH229464   1.764   4.832   0.546 -0.4515 -0.1251 -0.0971
 2610TIP3    H129465   1.689   4.843   0.604 -0.2787  0.0623  0.0951
 2610TIP3    H229466   1.839   4.825   0.605  0.0983  2.7369 -0.2964
 2611TIP3   OH229467   4.424   3.710   1.440 -0.4945 -0.1835  0.1417
 2611TIP3    H129468   4.371   3.775   1.394 -0.0023 -0.2235 -0.4953
 2611TIP3    H229469   4.394   3.626   1.405 -2.1687 -0.4303  2.0306
 2612TIP3   OH229470   3.701   2.084   8.107 -0.2429 -0.0453  0.3520
 2612TIP3    H129471   3.711   2.176   8.082 -0.0487 -0.1855 -0.0960
 2612TIP3    H229472   3.679   2.087   8.201  0.0553  0.4441  0.4127
 2613TIP3   OH229473   5.739   3.090   6.665  0.3883 -0.2167 -0.0117
 2613TIP3    H129474   5.682   3.035   6.612 -1.3041  0.2909  1.2102
 2613TIP3    H229475   5.732   3.177   6.627 -1.6030  0.3637  1.5322
 2614TIP3   OH229476   6.097   0.094   1.859 -0.3450  0.1170 -0.6496
 2614TIP3    H129477   6.156   0.165   1.883 -0.8136  0.2873  0.0347
 2614TIP3    H229478   6.043   0.080   1.937  0.7162 -2.0236 -0.2209
 2615TIP3   OH229479   0.865   5.451   0.705  0.4370  0.0674  0.1691
 2615TIP3    H129480   0.770   5.446   0.700  0.4782 -0.2784 -0.2973
 2615TIP3    H229481   0.882   5.487   0.792 -0.1161  0.1043  0.2677
 2616TIP3   OH229482   3.950   2.800   1.801 -0.8250 -0.0280  0.0611
 2616TIP3    H129483   3.921   2.883   1.765 -0.6227 -0.7893 -1.9617
 2616TIP3    H229484   3.961   2.817   1.895 -2.0413  1.8492 -0.0918
 2617TIP3   OH229485   5.067   3.820   6.158 -0.5640  0.4380  0.2425
 2617TIP3    H129486   5.065   3.895   6.099  1.3860  1.9756  1.9953
 2617TIP3    H229487   4.979   3.784   6.153 -0.5096  0.3495 -3.6514
 2618TIP3   OH229488   1.490   4.790   8.209 -0.6601 -0.6312  0.0662
 2618TIP3    H129489   1.446   4.737   8.275 -1.1257  1.1028  1.2234
 2618TIP3    H229490   1.431   4.864   8.195  0.8147  0.5707 -0.0581
 2619TIP3   OH229491   2.457   5.784   0.678 -0.5548 -0.1488  0.2365
 2619TIP3    H129492   2.490   5.837   0.606  1.0960 -2.3831 -0.7723
 2619TIP3    H229493   2.396   5.842   0.725  0.2291  2.1820 -1.4440
 2620TIP3   OH229494   5.538   2.354   2.246  0.0070 -0.2353 -0.2057
 2620TIP3    H129495   5.506   2.439   2.276  0.1356 -0.2806  0.0663
 2620TIP3    H229496   5.627   2.348   2.280  0.3490 -0.0645 -1.0594
 2621TIP3   OH229497   3.071   1.523   2.078  0.0446 -0.5276  0.3733
 2621TIP3    H129498   3.099   1.469   2.152  1.0693  1.1857  1.3112
 2621TIP3    H229499   3.139   1.590   2.070 -1.2654  0.7649 -0.5685
 2622TIP3   OH229500   6.502   3.876   0.451  0.2520 -0.1970  0.7110
 2622TIP3    H129501   6.471   3.909   0.536  1.8244 -0.7206  1.5332
 2622TIP3    H229502   6.519   3.955   0.400  0.4724  0.1749  1.3392
 2623TIP3   OH229503   5.966   1.002   7.591  0.2322 -0.5956 -0.1066
 2623TIP3    H129504   5.973   0.949   7.512 -1.3487  0.2832 -0.8905
 2623TIP3    H229505   5.884   0.975   7.631  1.4171 -1.6422  1.7573
 2624TIP3   OH229506   0.498   5.210   7.057 -0.3239  0.1110  0.4837
 2624TIP3    H129507   0.499   5.300   7.025  0.6180 -0.2832 -0.6676
 2624TIP3    H229508   0.432   5.166   7.004 -0.6004  0.0514  0.8708
 2625TIP3   OH229509   6.007   2.319   8.140 -0.0802  0.6896 -0.0900
 2625TIP3    H129510   6.015   2.415   8.141 -0.3972  0.7247  1.2610
 2625TIP3    H229511   5.971   2.298   8.226  0.1719 -0.6721 -0.3086
 2626TIP3   OH229512   5.179   3.863   6.422  0.1152 -0.2692  0.2230
 2626TIP3    H129513   5.271   3.873   6.399  0.2544  2.0082  1.4663
 2626TIP3    H229514   5.133   3.859   6.338  1.2379 -0.2559 -0.4116
 2627TIP3   OH229515   6.197   6.586   8.276 -0.0161 -0.2958  0.0694
 2627TIP3    H129516   6.164   6.526   8.344 -0.6483 -2.7506 -2.2179
 2627TIP3    H229517   6.290   6.593   8.294 -0.3069 -0.1802  1.6737
 2628TIP3   OH229518   0.840   1.176   0.874  0.1443  0.3545  0.4072
 2628TIP3    H129519   0.934   1.171   0.857 -0.0942  2.1206 -1.8607
 2628TIP3    H229520   0.812   1.085   0.883  2.3211 -0.1863  3.1741
 2629TIP3   OH229521   1.982   5.827   8.805  0.5146 -0.7208  0.3418
 2629TIP3    H129522   1.932   5.756   8.765 -1.4008  1.0074 -0.5353
 2629TIP3    H229523   1.933   5.850   8.883 -0.1099  0.9649 -0.4943
 2630TIP3   OH229524   6.805   0.994   8.534 -0.2334 -0.5571 -0.2917
 2630TIP3    H129525   6.818   0.905   8.501  1.5560 -0.8373  1.0205
 2630TIP3    H229526   6.805   0.984   8.630 -1.4763  0.7011 -0.1185
 2631TIP3   OH229527   5.460   5.778   1.515 -0.3923  0.0395 -0.0903
 2631TIP3    H129528   5.378   5.812   1.549 -1.0693 -0.7073 -0.9171
 2631TIP3    H229529   5.504   5.740   1.591 -1.8925 -1.6423  0.0169
 2632TIP3   OH229530   3.317   4.246   1.366  0.1222 -0.0687 -0.0718
 2632TIP3    H129531   3.301   4.231   1.459 -2.4114 -2.7899 -0.7474
 2632TIP3    H229532   3.399   4.200   1.348  0.4223  0.1288  0.7481
 2633TIP3   OH229533   6.661   4.562   6.438 -0.2490  0.1420  0.0783
 2633TIP3    H129534   6.597   4.509   6.389 -0.4492 -0.5090  1.0229
 2633TIP3    H229535   6.740   4.560   6.384 -0.2245 -1.2227  0.1384
 2634TIP3   OH229536   1.395   6.388   8.037 -0.0401 -0.2236  0.5895
 2634TIP3    H129537   1.416   6.416   8.126 -0.2776 -0.1891  0.6370
 2634TIP3    H229538   1.465   6.328   8.013 -0.3381 -0.7663  1.0550
 2635TIP3   OH229539   2.065   1.669   2.044  0.3099 -0.1866  0.0268
 2635TIP3    H129540   2.066   1.580   2.008 -2.1504 -1.4199  2.5849
 2635TIP3    H229541   2.154   1.683   2.076  0.3590 -2.5426  1.1529
 2636TIP3   OH229542   4.616   0.701   6.615 -0.8763 -0.0045  0.2201
 2636TIP3    H129543   4.676   0.626   6.625  0.4267  1.1849  1.7527
 2636TIP3    H229544   4.604   0.708   6.520  1.3641 -0.3715 -0.1682
 2637TIP3   OH229545   1.592   4.108   7.552  0.0969 -0.2454 -0.1558
 2637TIP3    H129546   1.670   4.057   7.531 -0.6035 -2.0213  1.2784
 2637TIP3    H229547   1.526   4.076   7.490  0.0730  0.0491 -0.2815
 2638TIP3   OH229548   4.304   4.504   1.694 -0.3653  0.3793 -0.1866
 2638TIP3    H129549   4.293   4.410   1.679 -1.2036  0.7487 -2.3540
 2638TIP3    H229550   4.214   4.538   1.694 -0.0310  1.2938 -0.5857
 2639TIP3   OH229551   0.522   6.265   8.289  0.1207  0.0992 -0.1272
 2639TIP3    H129552   0.508   6.270   8.383 -0.0295 -0.8047 -0.0947
 2639TIP3    H229553   0.485   6.181   8.263 -1.9980  1.3131 -1.3825
 2640TIP3   OH229554   5.527   3.331   8.214  0.4600 -0.0352 -0.2381
 2640TIP3    H129555   5.557   3.420   8.230 -1.5117  0.5674  0.3557
 2640TIP3    H229556   5.471   3.310   8.289 -0.5066 -1.1057 -1.2080
 2641TIP3   OH229557   6.085   2.296   6.759 -0.8768 -0.0021 -0.1544
 2641TIP3    H129558   6.078   2.201   6.754 -1.8105  0.0220  0.4267
 2641TIP3    H229559   6.044   2.328   6.679 -1.2681 -0.0740  0.0136
 2642TIP3   OH229560   2.727   3.062   7.982 -0.5894 -0.4133  0.1523
 2642TIP3    H129561   2.701   3.108   8.062  0.4834  0.4182  0.0339
 2642TIP3    H229562   2.708   3.124   7.911  0.0237 -0.4946 -0.0858
 2643TIP3   OH229563   0.161   0.966   1.824 -0.4129  0.6896  0.1488
 2643TIP3    H129564   0.244   0.926   1.850 -0.4770  0.2905 -0.2508
 2643TIP3    H229565   0.187   1.043   1.772 -0.2889  1.2359  1.0029
 2644TIP3   OH229566   6.813   5.689   8.290 -1.1270 -0.2972 -0.3426
 2644TIP3    H129567   6.845   5.661   8.376 -1.7919 -0.5363 -0.1717
 2644TIP3    H229568   6.728   5.727   8.307 -0.8908  0.4463 -0.7874
 2645TIP3   OH229569   1.877   0.478   0.245 -0.5477 -0.2393 -0.0790
 2645TIP3    H129570   1.885   0.448   0.155 -3.2111 -2.2013  0.2280
 2645TIP3    H229571   1.968   0.484   0.276  0.4600  0.7537 -2.8791
 2646TIP3   OH229572   1.724   0.001   1.183 -0.2590  0.5201  0.0732
 2646TIP3    H129573   1.781  -0.021   1.257 -1.2629 -1.5591  0.2899
 2646TIP3    H229574   1.674   0.077   1.214 -0.5441 -0.2074  1.5160
 2647TIP3   OH229575   3.099   5.358   1.685  0.4445  0.2009  0.5824
 2647TIP3    H129576   3.081   5.267   1.659  1.8719 -0.1880  0.8665
 2647TIP3    H229577   3.148   5.394   1.612  0.7312  0.4369  0.8887
 2648TIP3   OH229578   1.468   1.622   8.062 -0.3909  0.5241  0.6455
 2648TIP3    H129579   1.555   1.583   8.077  0.0610  1.7795  1.3949
 2648TIP3    H229580   1.484   1.693   8.000 -1.1616 -0.2448 -0.4692
 2649TIP3   OH229581   1.832   2.465   0.619 -0.2372 -0.4269 -0.0791
 2649TIP3    H129582   1.769   2.406   0.661 -0.8598 -0.3721 -0.8993
 2649TIP3    H229583   1.806   2.466   0.526 -0.3760  1.2708 -0.0710
 2650TIP3   OH229584   3.189   3.618   1.425 -0.2515  0.5240 -0.1367
 2650TIP3    H129585   3.163   3.572   1.346 -0.2352  0.2229  0.0348
 2650TIP3    H229586   3.260   3.676   1.397 -1.5842  1.9373 -0.7778
 2651TIP3   OH229587   3.914   3.104   0.410  0.3988  0.2619 -0.4369
 2651TIP3    H129588   3.937   3.197   0.414  1.3214  0.0588 -0.8227
 2651TIP3    H229589   3.992   3.059   0.440  0.1434 -0.4199 -0.7840
 2652TIP3   OH229590   6.776   2.125   7.242 -0.2472  0.1099 -0.2806
 2652TIP3    H129591   6.787   2.165   7.156  0.6569 -0.2451 -0.3411
 2652TIP3    H229592   6.852   2.068   7.253 -1.2184 -1.1896  0.0427
 2653TIP3   OH229593   3.424   6.587   7.693  0.1829  0.5357 -0.6078
 2653TIP3    H129594   3.514   6.615   7.708  0.2448  0.3265 -0.5803
 2653TIP3    H229595   3.373   6.636   7.758  0.6538 -1.6360  1.5776
 2654TIP3   OH229596   5.281   6.218   7.644 -0.6068  0.0980  0.0940
 2654TIP3    H129597   5.345   6.288   7.630  0.2397 -1.0893 -2.7310
 2654TIP3    H229598   5.329   6.151   7.692 -0.7435  0.5200  0.8319
 2655TIP3   OH229599   6.041   0.202   6.969 -0.0792  0.3072  0.1081
 2655TIP3    H129600   5.976   0.257   6.927  1.1780  2.0872  0.3772
 2655TIP3    H229601   6.125   0.238   6.940  0.8136 -1.6939  0.0369
 2656TIP3   OH229602   6.109   2.825   1.708  0.0894  0.4693 -0.3098
 2656TIP3    H129603   6.048   2.885   1.750 -1.0155 -0.3404 -0.6848
 2656TIP3    H229604   6.130   2.761   1.776  0.4481  0.6993 -0.2057
 2657TIP3   OH229605   6.053   0.535   8.140  0.2395 -0.0254  0.2288
 2657TIP3    H129606   6.041   0.601   8.209  3.9512  0.8764  0.2303
 2657TIP3    H229607   6.065   0.586   8.060 -0.5337 -0.9268 -0.4835
 2658TIP3   OH229608   0.757   1.185   8.414  0.0382  0.3882 -0.5760
 2658TIP3    H129609   0.766   1.279   8.432 -2.8386  0.2171  2.9004
 2658TIP3    H229610   0.695   1.180   8.341 -0.2622  1.1973 -0.3858
 2659TIP3   OH229611   4.147   4.917   0.924  0.1990 -0.3963  0.2392
 2659TIP3    H129612   4.234   4.878   0.930 -0.7265 -2.7022 -0.3430
 2659TIP3    H229613   4.093   4.864   0.983 -0.6377  1.6510  1.4216
 2660TIP3   OH229614   5.480   0.791   8.638  0.2113  0.0610  0.7074
 2660TIP3    H129615   5.433   0.765   8.558  2.0898  0.1430 -0.4804
 2660TIP3    H229616   5.496   0.708   8.683  0.2742 -0.1426  0.3233
 2661TIP3   OH229617   3.204   6.334   7.935  0.9641  0.3089  0.2076
 2661TIP3    H129618   3.213   6.343   8.030  1.5542 -0.6611  0.2516
 2661TIP3    H229619   3.127   6.387   7.914  0.5281  0.1500  1.2951
 2662TIP3   OH229620   3.767   3.643   7.285  0.7188  0.1484  0.4963
 2662TIP3    H129621   3.786   3.594   7.365 -1.5918  0.9501  1.5940
 2662TIP3    H229622   3.741   3.576   7.222 -1.4094 -0.2091  1.6766
 2663TIP3   OH229623   3.415   0.957   8.489 -0.0913  0.1839 -0.5922
 2663TIP3    H129624   3.474   0.986   8.559 -0.8091  1.4043 -0.4663
 2663TIP3    H229625   3.386   0.870   8.516 -0.7709  0.8464  0.9090
 2664TIP3   OH229626   2.313   4.720   7.704 -0.0618  0.3403  0.5044
 2664TIP3    H129627   2.305   4.641   7.758 -1.5310  0.4113  0.4343
 2664TIP3    H229628   2.407   4.739   7.703  0.0628  0.1347  2.7309
 2665TIP3   OH229629   3.063   3.919   7.780  0.6355 -0.3626  0.9203
 2665TIP3    H129630   3.061   4.015   7.770 -0.0068 -0.5616 -1.5203
 2665TIP3    H229631   3.126   3.904   7.851 -0.9838  1.9226  3.0446
 2666TIP3   OH229632   2.869   6.328   2.679  0.3751 -0.1053 -0.2926
 2666TIP3    H129633   2.875   6.234   2.699  0.6589 -0.6047 -2.4017
 2666TIP3    H229634   2.776   6.344   2.667  0.4124 -0.4308 -1.1105
 2667TIP3   OH229635   6.662   6.786   0.118 -0.0308  0.7316 -0.5498
 2667TIP3    H129636   6.568   6.767   0.121  0.0672  0.3864  0.7623
 2667TIP3    H229637   6.667   6.882   0.125 -0.2913  0.7915 -1.1195
 2668TIP3   OH229638   1.735   1.418   7.152  0.4448  0.0427 -0.8668
 2668TIP3    H129639   1.738   1.493   7.212  0.5712  0.2687 -1.1551
 2668TIP3    H229640   1.683   1.353   7.199 -0.2973  0.5843 -0.9140
 2669TIP3   OH229641   1.848   3.697   6.661  0.3911  0.1333  0.9280
 2669TIP3    H129642   1.784   3.768   6.667 -0.3537 -0.5550  1.3748
 2669TIP3    H229643   1.928   3.733   6.698  0.2994  1.0462  0.2625
 2670TIP3   OH229644   6.347   6.312   0.234  0.9471  0.8327  0.1684
 2670TIP3    H129645   6.359   6.267   0.151 -1.2642  1.0913 -0.3661
 2670TIP3    H229646   6.357   6.243   0.300 -1.4605 -0.3750 -0.5844
 2671TIP3   OH229647   0.622   1.401   0.816  0.8821  0.2631  0.0756
 2671TIP3    H129648   0.539   1.446   0.801  0.6272  0.4454  1.8855
 2671TIP3    H229649   0.607   1.312   0.784  0.1191  0.4067  0.0179
 2672TIP3   OH229650   6.805   4.807   7.452 -0.2125 -0.8400 -0.3510
 2672TIP3    H129651   6.725   4.859   7.459  0.5171  0.3472 -0.4652
 2672TIP3    H229652   6.872   4.862   7.492  0.6200 -1.6492 -0.6074
 2673TIP3   OH229653   5.021   2.621   1.626 -0.2939  0.4696 -0.2380
 2673TIP3    H129654   4.950   2.614   1.689  0.5161  0.6893  0.7289
 2673TIP3    H229655   5.076   2.692   1.658  0.9571 -0.4007 -0.3417
 2674TIP3   OH229656   4.501   3.579   7.785 -0.0021 -0.3288 -0.1389
 2674TIP3    H129657   4.555   3.500   7.771 -1.6727 -1.2196 -2.0217
 2674TIP3    H229658   4.502   3.592   7.880  1.1964 -1.9860  0.1244
 2675TIP3   OH229659   5.753   5.236   1.276  0.3772 -0.1844  0.0948
 2675TIP3    H129660   5.751   5.316   1.224  1.2977 -1.0324 -1.3137
 2675TIP3    H229661   5.735   5.166   1.213 -0.5735 -1.0952  1.3201
 2676TIP3   OH229662   0.987   2.742   8.650 -0.6143 -0.4407 -1.0348
 2676TIP3    H129663   0.998   2.827   8.693 -0.1487 -0.8864 -0.2347
 2676TIP3    H229664   1.074   2.703   8.652 -1.0924 -1.5247 -0.0884
 2677TIP3   OH229665   2.299   3.002   1.773 -0.2837 -0.2237  0.3202
 2677TIP3    H129666   2.325   3.017   1.683 -0.6106 -2.8832 -0.2905
 2677TIP3    H229667   2.215   3.048   1.782 -0.9349 -1.0605 -1.1843
 2678TIP3   OH229668   0.457   4.662   0.695  0.3361  0.0180  0.3276
 2678TIP3    H129669   0.433   4.624   0.610 -0.9202  1.6385 -0.0898
 2678TIP3    H229670   0.379   4.650   0.749  0.4852  0.5814  0.6767
 2679TIP3   OH229671   5.727   6.432   7.480  0.0042 -0.8557  0.1557
 2679TIP3    H129672   5.631   6.438   7.481  0.0454  0.1745 -0.4067
 2679TIP3    H229673   5.756   6.521   7.460  1.0593 -1.3747 -0.7183
 2680TIP3   OH229674   2.342   0.951   6.341 -0.4841 -0.0214  0.1546
 2680TIP3    H129675   2.424   0.949   6.291  0.5842 -0.0171  1.8464
 2680TIP3    H229676   2.322   1.045   6.350 -0.3158  0.0032  0.2874
 2681TIP3   OH229677   4.547   0.836   0.792  0.3039 -0.4892  0.4229
 2681TIP3    H129678   4.502   0.834   0.877 -0.6101  0.2713 -0.0252
 2681TIP3    H229679   4.523   0.753   0.750  0.5218 -0.7366  0.7754
 2682TIP3   OH229680   0.703   2.854   0.452 -0.2164  0.0220  0.0540
 2682TIP3    H129681   0.682   2.808   0.533 -0.2225 -0.8344 -0.4279
 2682TIP3    H229682   0.621   2.851   0.402  0.4250 -1.5291 -0.9675
 2683TIP3   OH229683   2.277   3.774   0.966  0.1635 -0.0625  0.1517
 2683TIP3    H129684   2.191   3.766   0.923  0.5475  1.6399 -1.0414
 2683TIP3    H229685   2.277   3.706   1.033 -1.6995 -0.7974 -0.5360
 2684TIP3   OH229686   0.205   6.481   7.649  0.2226 -0.2970 -0.4469
 2684TIP3    H129687   0.299   6.489   7.661  0.0180  3.7066 -0.0369
 2684TIP3    H229688   0.187   6.531   7.569 -1.8277  2.9765  1.7954
 2685TIP3   OH229689   3.162   3.087   0.119 -0.1128  0.2559  0.3627
 2685TIP3    H129690   3.072   3.094   0.150 -0.4523 -1.1816 -0.2161
 2685TIP3    H229691   3.158   3.023   0.048  1.4653 -0.3875  0.8057
 2686TIP3   OH229692   4.196   1.288   0.364 -0.1288  0.1361 -0.1860
 2686TIP3    H129693   4.235   1.233   0.433  0.7155 -0.7878 -1.3488
 2686TIP3    H229694   4.155   1.360   0.411 -0.4709 -1.0055  1.3493
 2687TIP3   OH229695   5.951   3.721   7.224  0.4019  0.3705 -0.0724
 2687TIP3    H129696   6.001   3.724   7.306  2.1047  0.0482 -1.0416
 2687TIP3    H229697   5.978   3.800   7.177 -1.4007  1.1375  0.0953
 2688TIP3   OH229698   1.846   1.754   6.956 -0.0975 -0.8092 -0.0734
 2688TIP3    H129699   1.830   1.778   6.864 -1.2738 -1.8764 -0.1718
 2688TIP3    H229700   1.778   1.800   7.005  0.9197  0.2704  0.3609
 2689TIP3   OH229701   1.366   1.873   8.216  0.3367  0.1607 -0.0980
 2689TIP3    H129702   1.331   1.959   8.190 -0.3700  0.4096  1.5127
 2689TIP3    H229703   1.447   1.894   8.262  1.0778 -0.1840 -1.2419
 2690TIP3   OH229704   0.452   5.374   7.533  0.3779  0.9728  0.0852
 2690TIP3    H129705   0.408   5.377   7.448  0.8857  0.9297 -0.1793
 2690TIP3    H229706   0.483   5.284   7.541  1.7533  1.3811 -0.4144
 2691TIP3   OH229707   0.596   1.792   7.302 -0.4694  0.0389  0.2652
 2691TIP3    H129708   0.679   1.840   7.299 -0.7453  0.5663  0.8276
 2691TIP3    H229709   0.591   1.757   7.391 -1.0609  0.4173  0.3936
 2692TIP3   OH229710   4.247   3.512   7.330 -0.1995 -0.4007 -0.3322
 2692TIP3    H129711   4.269   3.543   7.242 -0.3311 -0.0888 -0.2572
 2692TIP3    H229712   4.263   3.588   7.386  0.3930 -0.7570 -0.0133
 2693TIP3   OH229713   3.388   1.936   8.397  0.2076  0.4485 -0.5296
 2693TIP3    H129714   3.347   1.858   8.435  1.4764 -0.2757 -0.5782
 2693TIP3    H229715   3.381   1.922   8.302  0.3189  0.4545 -0.5394
 2694TIP3   OH229716   4.972   1.952   7.585  0.5322  0.0390  0.8533
 2694TIP3    H129717   4.996   2.027   7.530 -1.6106 -1.2228 -2.0752
 2694TIP3    H229718   4.902   1.985   7.641 -0.3605  0.3263 -0.3779
 2695TIP3   OH229719   2.161   3.618   0.203  0.1228  0.5372  0.7043
 2695TIP3    H129720   2.185   3.698   0.250 -0.7449  1.0576  0.2900
 2695TIP3    H229721   2.219   3.551   0.238  0.1255  1.1150  1.8431
 2696TIP3   OH229722   5.633   1.322   8.801  0.1128  0.4209 -0.2247
 2696TIP3    H129723   5.683   1.397   8.835  1.4273  0.0941 -1.3225
 2696TIP3    H229724   5.595   1.281   8.879 -0.8714  2.3777  0.3633
 2697TIP3   OH229725   6.174   2.396   1.915 -0.2252 -0.2456 -0.2945
 2697TIP3    H129726   6.167   2.453   1.992 -1.2136 -0.6640 -0.0523
 2697TIP3    H229727   6.248   2.339   1.934 -1.4916 -1.5215  1.2023
 2698TIP3   OH229728   3.276   1.441   1.108  0.2320 -0.1933 -0.2820
 2698TIP3    H129729   3.354   1.473   1.152  0.0129 -0.8008  0.5726
 2698TIP3    H229730   3.210   1.436   1.177 -0.1775 -0.9566 -0.7171
 2699TIP3   OH229731   1.712   3.326   6.966 -0.0130 -0.4483  0.1967
 2699TIP3    H129732   1.731   3.359   6.878  0.4732  0.3437  0.5914
 2699TIP3    H229733   1.616   3.328   6.971 -0.0175  1.6373  0.4502
 2700TIP3   OH229734   1.077   2.067   8.468  0.4755 -0.0651  0.5374
 2700TIP3    H129735   0.988   2.102   8.468  0.2988 -0.5139  0.2493
 2700TIP3    H229736   1.070   1.982   8.425  1.3912  0.7786 -1.3975
 2701TIP3   OH229737   0.842   2.069   7.452 -0.1308 -0.9729  0.2218
 2701TIP3    H129738   0.906   2.140   7.445  0.0620 -1.0724  0.9010
 2701TIP3    H229739   0.763   2.111   7.487  0.2425 -1.2210  1.4271
 2702TIP3   OH229740   1.236   2.767   0.503  0.3195  0.5656 -0.5660
 2702TIP3    H129741   1.148   2.799   0.484 -0.2547 -0.6081  0.0690
 2702TIP3    H229742   1.292   2.815   0.441 -0.6144  2.0780 -0.2757
 2703TIP3   OH229743   6.280   0.058   1.347  0.2271 -0.1108  0.1694
 2703TIP3    H129744   6.269   0.153   1.350 -0.1210 -0.0162 -2.3255
 2703TIP3    H229745   6.198   0.026   1.311  0.2942 -1.4144  1.0883
 2704TIP3   OH229746   2.316   3.335   0.649 -0.3602 -0.4447  0.5875
 2704TIP3    H129747   2.350   3.332   0.739 -1.8558 -0.5720  1.1734
 2704TIP3    H229748   2.233   3.381   0.657 -0.6279 -0.6908 -0.7101
 2705TIP3   OH229749   2.932   0.048   0.639  0.4507  0.1083  0.6006
 2705TIP3    H129750   2.894   0.111   0.700  1.7089  1.0474  0.4445
 2705TIP3    H229751   2.945   0.098   0.558 -1.8952 -1.3014 -0.7410
 2706TIP3   OH229752   5.397   0.741   7.691  0.5414  0.0230 -0.2829
 2706TIP3    H129753   5.476   0.711   7.647 -0.0849  0.2373 -1.6060
 2706TIP3    H229754   5.360   0.662   7.731  0.2632 -0.5263 -1.5599
 2707TIP3   OH229755   5.521   6.216   7.064  0.2127  0.1037 -0.2048
 2707TIP3    H129756   5.500   6.307   7.043  0.3500  0.5253  1.3866
 2707TIP3    H229757   5.611   6.220   7.095  0.3538 -0.6551 -0.5042
 2708TIP3   OH229758   2.816   4.653   0.643  0.2520 -0.5250 -0.8045
 2708TIP3    H129759   2.849   4.705   0.717  0.5137 -1.7224 -0.0488
 2708TIP3    H229760   2.855   4.694   0.566 -1.5494  1.9828 -0.5414
 2709TIP3   OH229761   1.049   4.546   6.494 -0.3070 -0.1547 -0.3404
 2709TIP3    H129762   1.074   4.623   6.545  1.9281 -0.4519 -0.8717
 2709TIP3    H229763   1.018   4.582   6.411  1.0253  0.2026 -0.7084
 2710TIP3   OH229764   6.415   3.134   0.268  0.3157  0.9092  0.2564
 2710TIP3    H129765   6.471   3.078   0.214  0.7493  0.0761  1.5244
 2710TIP3    H229766   6.330   3.091   0.268  0.7307  0.0142  1.4918
 2711TIP3   OH229767   6.830   3.194   1.860 -0.4570 -0.2917 -0.3313
 2711TIP3    H129768   6.882   3.267   1.824  0.9129 -1.2259 -0.2985
 2711TIP3    H229769   6.811   3.139   1.784  2.1036 -2.0608  0.1676
 2712TIP3   OH229770   5.983   1.840   1.396  0.2531  0.2637  0.1807
 2712TIP3    H129771   6.012   1.900   1.327  0.7293 -0.6859 -0.4788
 2712TIP3    H229772   5.977   1.755   1.352 -0.0406 -0.2426  1.1728
 2713TIP3   OH229773   1.828   6.616   0.407  0.0108  0.0601  0.4197
 2713TIP3    H129774   1.820   6.689   0.345  2.0050  0.0411  0.0632
 2713TIP3    H229775   1.739   6.600   0.436 -0.9989  0.2139 -2.2948
 2714TIP3   OH229776   1.639   1.419   0.102 -0.0258  0.2899 -0.7321
 2714TIP3    H129777   1.615   1.327   0.118  0.1896  0.5765  1.5194
 2714TIP3    H229778   1.563   1.455   0.056 -0.4050 -0.8330 -1.0314
 2715TIP3   OH229779   0.665   4.259   1.363 -0.7658 -0.0683  0.4615
 2715TIP3    H129780   0.707   4.344   1.370 -0.7893  0.0200 -0.3906
 2715TIP3    H229781   0.701   4.208   1.436 -0.4184  0.5246  0.7060
 2716TIP3   OH229782   3.464   1.550   1.511 -0.7984  0.2144  0.1784
 2716TIP3    H129783   3.425   1.618   1.456 -2.4675 -1.2326 -0.5406
 2716TIP3    H229784   3.392   1.522   1.568  0.2448  0.0045  1.4406
 2717TIP3   OH229785   3.585   6.542   1.323 -0.1533  0.1924 -0.3307
 2717TIP3    H129786   3.588   6.447   1.311  0.0821  0.0619  0.6586
 2717TIP3    H229787   3.653   6.576   1.264  0.9340 -0.4045  0.5392
 2718TIP3   OH229788   1.253   0.096   0.540 -0.0982 -0.1174  0.1828
 2718TIP3    H129789   1.214   0.100   0.628 -1.0192 -0.5713 -0.1975
 2718TIP3    H229790   1.179   0.105   0.480  0.4813 -0.1867 -0.5561
 2719TIP3   OH229791   0.431   3.263   0.809 -0.2977 -0.1900  0.3295
 2719TIP3    H129792   0.443   3.178   0.766  1.1219  0.5988 -0.9010
 2719TIP3    H229793   0.339   3.263   0.835  0.2623 -3.2807  2.9770
 2720TIP3   OH229794   1.471   3.553   1.704 -0.4090  0.0021  0.6100
 2720TIP3    H129795   1.392   3.567   1.756 -1.1723 -2.3887  0.2546
 2720TIP3    H229796   1.451   3.475   1.652  1.6154  0.2744 -0.6879
 2721TIP3   OH229797   1.602   5.945   1.574 -0.0021 -0.1758 -0.7237
 2721TIP3    H129798   1.667   5.875   1.566 -0.2527 -0.2237 -3.1157
 2721TIP3    H229799   1.519   5.899   1.588  0.1598 -0.2073  0.2116
 2722TIP3   OH229800   3.355   1.196   7.902  0.3842 -0.5465 -0.0070
 2722TIP3    H129801   3.396   1.195   7.988 -0.1763  0.3702  0.2848
 2722TIP3    H229802   3.420   1.158   7.844  0.1504 -2.7889  1.0799
 2723TIP3   OH229803   1.508   6.382   8.765  0.3992  0.2592  0.0727
 2723TIP3    H129804   1.481   6.467   8.801 -1.2571  0.0648 -0.6594
 2723TIP3    H229805   1.563   6.344   8.834  3.8998  3.1957 -0.7326
 2724TIP3   OH229806   0.613   3.612   7.750 -0.3551  0.3875  0.4711
 2724TIP3    H129807   0.652   3.670   7.685 -1.6845  0.4289 -0.3179
 2724TIP3    H229808   0.659   3.529   7.737  1.0707  1.0386  1.1431
 2725TIP3   OH229809   1.271   2.914   1.796  0.3413 -0.4008  0.0966
 2725TIP3    H129810   1.238   2.976   1.862  0.3267 -0.6094  0.2871
 2725TIP3    H229811   1.290   2.835   1.846  1.6489 -0.1116  0.0907
 2726TIP3   OH229812   5.789   3.344   6.845  0.1945 -0.2064  0.1546
 2726TIP3    H129813   5.816   3.290   6.771 -0.7360  0.1004 -0.4248
 2726TIP3    H229814   5.840   3.424   6.836  0.2251 -0.2479 -0.0502
 2727TIP3   OH229815   4.496   6.275   8.486 -0.0658 -0.3238 -0.2023
 2727TIP3    H129816   4.502   6.365   8.519 -0.1011 -0.0171 -1.0071
 2727TIP3    H229817   4.582   6.257   8.448 -0.3368 -0.3013 -0.8439
 2728TIP3   OH229818   2.756   4.678   0.948 -0.6774  0.7460 -0.2466
 2728TIP3    H129819   2.845   4.682   0.982  0.6859  0.5539 -3.3996
 2728TIP3    H229820   2.723   4.767   0.955  0.8234  1.4329 -1.4686
 2729TIP3   OH229821   6.250   2.113   0.669  0.1454 -0.4688  0.0625
 2729TIP3    H129822   6.252   2.178   0.599  1.5927 -0.4011  0.1457
 2729TIP3    H229823   6.211   2.035   0.628 -0.6604  0.1120 -0.3112
 2730TIP3   OH229824   5.748   6.843   6.320 -0.3456  0.5425 -0.2464
 2730TIP3    H129825   5.744   6.757   6.277 -1.8437  0.8779 -0.8566
 2730TIP3    H229826   5.781   6.825   6.407 -0.0467 -0.5763 -0.5723
 2731TIP3   OH229827   1.638   0.366   8.771 -0.0315 -0.1669 -0.6544
 2731TIP3    H129828   1.636   0.351   8.865  1.6399  1.8732 -0.2190
 2731TIP3    H229829   1.731   0.378   8.751 -0.5123  1.4341 -2.1747
 2732TIP3   OH229830   3.764   2.438   7.505  0.2547  0.4384 -0.6003
 2732TIP3    H129831   3.742   2.352   7.540  1.2471  0.5643  0.4101
 2732TIP3    H229832   3.807   2.483   7.578 -0.7977  2.0278 -0.9110
 2733TIP3   OH229833   4.937   1.831   0.846 -0.2308  0.3287 -0.0732
 2733TIP3    H129834   4.979   1.916   0.855 -0.7712  0.9787 -2.7787
 2733TIP3    H229835   4.860   1.836   0.903 -0.0087  1.4607  0.1457
 2734TIP3   OH229836   5.912   4.493   1.056  0.4459  0.3822 -0.3791
 2734TIP3    H129837   5.966   4.453   0.988 -0.3091 -0.2410 -0.6262
 2734TIP3    H229838   5.935   4.586   1.053  1.6831  0.0952 -0.3037
 2735TIP3   OH229839   4.443   3.905   0.305 -0.3889 -0.5303 -0.5964
 2735TIP3    H129840   4.407   3.894   0.393  1.3197 -1.3308  0.0486
 2735TIP3    H229841   4.456   4.000   0.297  0.3796 -0.5241  0.4429
 2736TIP3   OH229842   5.184   6.686   6.668  0.4170 -0.1419  0.4275
 2736TIP3    H129843   5.112   6.737   6.630  1.3472  0.7262 -0.2401
 2736TIP3    H229844   5.147   6.599   6.680  0.1207 -0.6224 -2.9115
 2737TIP3   OH229845   0.690   1.613   8.624 -0.0497  0.3721  0.2378
 2737TIP3    H129846   0.597   1.596   8.610  0.1548 -0.7752  0.1738
 2737TIP3    H229847   0.703   1.605   8.718 -0.1271  1.1740  0.3230
 2738TIP3   OH229848   1.975   6.168   2.463  0.0894  0.5071 -0.3577
 2738TIP3    H129849   1.956   6.211   2.546 -0.8625 -0.6025  0.0090
 2738TIP3    H229850   1.979   6.241   2.400 -1.6983  1.1484  0.2110
 2739TIP3   OH229851   3.281   6.141   6.867  0.1809  0.3378  0.0205
 2739TIP3    H129852   3.265   6.189   6.786  2.3550 -0.5746 -1.0462
 2739TIP3    H229853   3.268   6.049   6.844 -0.8569  0.1712  1.1863
 2740TIP3   OH229854   5.063   6.277   8.469  0.1014 -0.1735 -0.6340
 2740TIP3    H129855   5.149   6.314   8.448  0.2424 -0.0493  0.1228
 2740TIP3    H229856   5.021   6.345   8.522  0.0967 -0.8119  0.2015
 2741TIP3   OH229857   0.495   0.182   6.929 -0.2786 -0.1260  0.6362
 2741TIP3    H129858   0.410   0.224   6.918  0.0801  0.3702 -0.3022
 2741TIP3    H229859   0.497   0.157   7.022 -1.3651  0.0136  0.7098
 2742TIP3   OH229860   0.554   0.346   0.202  0.2586 -0.7494 -0.1034
 2742TIP3    H129861   0.493   0.293   0.150  0.0825  0.5864 -1.3300
 2742TIP3    H229862   0.499   0.383   0.271 -0.0136 -0.7068 -0.3382
 2743TIP3   OH229863   3.360   6.614   2.197 -0.4919 -0.2230 -0.0984
 2743TIP3    H129864   3.292   6.679   2.211 -1.7031 -1.5696  0.5185
 2743TIP3    H229865   3.418   6.623   2.272 -1.7960 -1.1825  1.0748
 2744TIP3   OH229866   6.510   0.028   6.791  0.0856 -0.1830 -0.0696
 2744TIP3    H129867   6.540  -0.005   6.706  1.3022 -2.9131  1.2721
 2744TIP3    H229868   6.433  -0.024   6.811  0.1447  0.0292  0.7373
 2745TIP3   OH229869   4.733   4.250   0.456  0.2571  0.3660 -1.1837
 2745TIP3    H129870   4.734   4.340   0.489 -2.1011  0.7737 -2.0240
 2745TIP3    H229871   4.774   4.198   0.525 -1.8512  1.5607  1.1170
 2746TIP3   OH229872   5.699   0.622   0.716  0.0307  0.0468 -0.2464
 2746TIP3    H129873   5.654   0.542   0.742  0.2522  0.1326  0.4412
 2746TIP3    H229874   5.723   0.663   0.799 -1.1052  1.4144 -0.5487
 2747TIP3   OH229875   5.218   3.632   7.737 -0.0244 -0.1512 -0.6485
 2747TIP3    H129876   5.221   3.541   7.707  0.0073 -0.7201  0.9687
 2747TIP3    H229877   5.143   3.635   7.796  0.5660  0.6055  0.0954
 2748TIP3   OH229878   5.786   6.642   0.577  0.0917 -0.1548  0.0652
 2748TIP3    H129879   5.723   6.702   0.616 -0.2678  0.2941 -1.1548
 2748TIP3    H229880   5.871   6.680   0.598 -0.0293 -0.5030  1.2980
 2749TIP3   OH229881   4.518   0.032   1.830  0.0568 -0.3235  0.7120
 2749TIP3    H129882   4.583   0.052   1.763 -1.2880  2.2871  0.0343
 2749TIP3    H229883   4.547  -0.051   1.869  2.3127 -0.5605 -1.2816
 2750TIP3   OH229884   4.225   2.052   8.371  0.1762 -0.2542  0.4625
 2750TIP3    H129885   4.149   2.055   8.314  1.3431  0.6851 -1.1290
 2750TIP3    H229886   4.299   2.069   8.312  1.5199 -0.1839  2.1155
 2751TIP3   OH229887   1.972   4.132   2.072 -0.3875  0.0742 -0.1387
 2751TIP3    H129888   2.027   4.181   2.134  0.3904 -0.0778 -0.7005
 2751TIP3    H229889   1.997   4.040   2.086 -0.9963 -0.0636  0.0796
 2752TIP3   OH229890   6.127   1.308   6.973  0.1351  0.0105  0.4886
 2752TIP3    H129891   6.042   1.342   7.001  0.3630  0.2186  0.9476
 2752TIP3    H229892   6.120   1.213   6.986 -0.4920 -0.1287 -0.7657
 2753TIP3   OH229893   5.098   2.779   7.881 -0.1517  0.4270  0.0856
 2753TIP3    H129894   5.070   2.846   7.818 -2.1176 -2.7901 -2.8722
 2753TIP3    H229895   5.181   2.747   7.847 -0.3482 -0.1263  0.1087
 2754TIP3   OH229896   1.254   2.246   0.198 -0.0016  0.8961 -0.0439
 2754TIP3    H129897   1.314   2.179   0.165  0.7845  0.8997  1.2982
 2754TIP3    H229898   1.251   2.231   0.293  0.3114  2.8207  0.3156
 2755TIP3   OH229899   4.199   4.030   1.711 -0.3199 -0.4114 -0.9246
 2755TIP3    H129900   4.285   4.006   1.745 -0.5348 -1.3579 -1.0283
 2755TIP3    H229901   4.139   3.969   1.753 -1.2800  1.6022  0.8789
 2756TIP3   OH229902   2.788   3.524   1.902  0.3998  0.2770 -0.1106
 2756TIP3    H129903   2.780   3.481   1.987 -2.8010 -0.5127 -0.6601
 2756TIP3    H229904   2.743   3.608   1.915 -1.2007 -0.3630 -1.2737
 2757TIP3   OH229905   1.234   6.785   8.111 -0.4095  0.3178  0.3530
 2757TIP3    H129906   1.258   6.736   8.032  1.4711  0.1309  1.0161
 2757TIP3    H229907   1.313   6.787   8.164 -1.6219  0.4954  2.2462
 2758TIP3   OH229908   0.229   5.984   0.763 -0.4359  0.7460  0.2038
 2758TIP3    H129909   0.258   5.987   0.854  1.1457  1.5589 -0.2867
 2758TIP3    H229910   0.220   6.076   0.738 -0.9138  0.5272 -0.4482
 2759TIP3   OH229911   0.138   1.469   8.332 -0.2330 -0.0850 -0.1511
 2759TIP3    H129912   0.178   1.549   8.297 -1.7355  0.7695 -0.0324
 2759TIP3    H229913   0.080   1.439   8.262 -0.3173 -0.5934  0.1305
 2760TIP3   OH229914   0.166   0.069   7.955  0.1037  0.1726 -0.0194
 2760TIP3    H129915   0.163   0.112   8.040 -0.1516 -1.3152  0.7548
 2760TIP3    H229916   0.166   0.140   7.891 -1.0062  1.2844  1.1878
 2761TIP3   OH229917   6.803   6.650   7.079  0.7951 -0.1567  0.3622
 2761TIP3    H129918   6.742   6.589   7.036  0.1343  0.7097  0.0523
 2761TIP3    H229919   6.890   6.615   7.058  0.4546 -0.4049 -0.7154
 2762TIP3   OH229920   0.330   4.069   8.221  0.3058  0.1884 -0.0533
 2762TIP3    H129921   0.309   4.044   8.131  1.5194  1.9546 -0.9014
 2762TIP3    H229922   0.251   4.113   8.253 -0.6333 -1.6596  0.2868
 2763TIP3   OH229923   4.261   5.615   8.243 -0.0894  0.2833  0.6242
 2763TIP3    H129924   4.341   5.650   8.205 -0.4998  1.2846  0.6571
 2763TIP3    H229925   4.261   5.522   8.219  0.8085  0.3934  0.1755
 2764TIP3   OH229926   6.160   1.306   1.820 -0.4981 -0.1295  0.1634
 2764TIP3    H129927   6.236   1.317   1.763  0.4267 -1.2457  1.1129
 2764TIP3    H229928   6.190   1.335   1.906 -0.7217 -1.6758  0.8080
 2765TIP3   OH229929   3.304   6.325   0.765  0.1963  0.4317 -0.1602
 2765TIP3    H129930   3.289   6.250   0.708 -0.9384  1.9769 -2.0494
 2765TIP3    H229931   3.399   6.328   0.777  0.1939 -1.8420  0.8274
 2766TIP3   OH229932   4.542   3.890   1.209  0.0486  0.0174 -0.2196
 2766TIP3    H129933   4.553   3.910   1.116 -0.8793  0.0998 -0.3179
 2766TIP3    H229934   4.552   3.795   1.215 -2.2525 -0.3235 -0.7916
 2767TIP3   OH229935   2.904   5.630   7.083 -0.1859  0.5782  0.2647
 2767TIP3    H129936   2.980   5.596   7.130  0.8761  0.8858 -1.1444
 2767TIP3    H229937   2.907   5.725   7.098  0.3817  0.7278 -0.6624
 2768TIP3   OH229938   0.161   5.051   1.261 -0.1119 -0.5528  0.0994
 2768TIP3    H129939   0.068   5.075   1.263  0.4978  2.1603  0.1021
 2768TIP3    H229940   0.165   4.965   1.301 -2.8953 -1.8094 -1.9939
 2769TIP3   OH229941   1.165   4.771   8.084  0.1539 -0.4770 -0.0518
 2769TIP3    H129942   1.176   4.688   8.131  1.7175 -0.1749  0.1686
 2769TIP3    H229943   1.145   4.745   7.994  0.3105 -1.0948  0.0848
 2770TIP3   OH229944   1.145   0.374   1.712 -0.5096 -0.7647 -0.4225
 2770TIP3    H129945   1.064   0.357   1.761 -0.8538 -0.1912 -0.7672
 2770TIP3    H229946   1.122   0.448   1.655  0.2068 -0.7207 -0.6583
 2771TIP3   OH229947   6.755   3.043   7.588  0.3135  0.7223  0.8008
 2771TIP3    H129948   6.682   3.034   7.650 -1.2061 -1.9469 -1.1650
 2771TIP3    H229949   6.805   2.962   7.597 -1.0917 -0.7194 -2.6562
 2772TIP3   OH229950   0.951   1.959   7.686 -0.3366  0.6179  0.8454
 2772TIP3    H129951   0.897   1.989   7.614 -0.3607  0.8579  0.9616
 2772TIP3    H229952   1.040   1.986   7.662 -0.1229 -0.6061  0.2095
 2773TIP3   OH229953   2.073   3.210   0.395  0.0320 -0.4186  0.3462
 2773TIP3    H129954   2.099   3.123   0.425 -2.1912 -1.8133 -1.3784
 2773TIP3    H229955   2.016   3.243   0.464  0.2232 -0.7080  0.6424
 2774TIP3   OH229956   1.225   1.212   7.975 -0.0422  0.1432  0.2635
 2774TIP3    H129957   1.164   1.205   8.048 -1.4921 -1.4678 -1.0204
 2774TIP3    H229958   1.218   1.304   7.946  0.5462  0.7971  2.0643
 2775TIP3   OH229959   3.694   2.385   1.413  0.3453 -0.2550  0.6634
 2775TIP3    H129960   3.638   2.333   1.356  0.9551 -1.8032  1.4291
 2775TIP3    H229961   3.661   2.474   1.403 -0.4182 -0.6823 -1.0589
 2776TIP3   OH229962   1.121   4.239   7.128  0.2253 -0.1274  0.0951
 2776TIP3    H129963   1.167   4.322   7.115  2.2806 -1.2628 -0.3089
 2776TIP3    H229964   1.051   4.239   7.063  1.3082  0.5368 -1.0993
 2777TIP3   OH229965   0.514   4.925   0.578  0.2671 -0.0639  0.3007
 2777TIP3    H129966   0.517   4.837   0.614 -1.0340 -1.0054 -1.7208
 2777TIP3    H229967   0.519   4.983   0.654 -1.8062 -1.9109  1.9579
 2778TIP3   OH229968   4.954   1.492   1.122  0.2482  0.3057 -0.0248
 2778TIP3    H129969   4.945   1.434   1.046 -0.0453  1.3976 -0.8501
 2778TIP3    H229970   5.036   1.540   1.107  0.8047 -0.2999  0.9514
 2779TIP3   OH229971   6.383   5.172   2.611 -0.1726 -0.0233  0.3241
 2779TIP3    H129972   6.343   5.193   2.526  2.5648  0.5244 -0.9568
 2779TIP3    H229973   6.420   5.255   2.641  0.5683 -0.6003  1.0631
 2780TIP3   OH229974   5.142   4.762   0.958 -0.4433  0.1579 -0.0262
 2780TIP3    H129975   5.181   4.821   1.022  1.7247  0.9447 -1.9016
 2780TIP3    H229976   5.071   4.812   0.918 -0.7066  0.2775  0.5845
 2781TIP3   OH229977   0.885   4.774   6.398 -0.1743  0.2690  0.0209
 2781TIP3    H129978   0.865   4.860   6.362  1.1934  0.6007  0.0175
 2781TIP3    H229979   0.958   4.789   6.458 -1.2298 -0.5679  1.5794
 2782TIP3   OH229980   4.727   6.332   1.032 -0.8245 -0.4312  0.5005
 2782TIP3    H129981   4.680   6.251   1.013  0.8592 -1.1474 -0.8789
 2782TIP3    H229982   4.737   6.333   1.127 -0.7079 -1.9372  0.5189
 2783TIP3   OH229983   4.236   1.353   7.286  0.2044  0.2083  0.0127
 2783TIP3    H129984   4.217   1.273   7.237 -1.8913 -0.7157  2.1629
 2783TIP3    H229985   4.204   1.423   7.229 -0.0538 -0.6353 -0.9198
 2784TIP3   OH229986   2.015   5.486   1.579 -0.0610 -0.6512  0.5563
 2784TIP3    H129987   2.030   5.463   1.671  2.7681 -0.6488  0.1767
 2784TIP3    H229988   2.102   5.493   1.541 -1.1000  0.7591 -1.8233
 2785TIP3   OH229989   4.242   0.044   0.456 -0.4642  0.1711 -0.1594
 2785TIP3    H129990   4.305   0.112   0.434  0.9031 -0.6336  1.0478
 2785TIP3    H229991   4.242  -0.015   0.381  0.4948  0.0182 -0.0527
 2786TIP3   OH229992   3.204   4.899   7.607  0.0130 -0.2087  0.5591
 2786TIP3    H129993   3.227   4.859   7.523 -1.8830  1.8505 -1.0637
 2786TIP3    H229994   3.242   4.987   7.603  0.0948 -0.1519  1.9959
 2787TIP3   OH229995   2.562   0.948   8.063 -0.1771 -0.4105  0.6403
 2787TIP3    H129996   2.528   0.914   8.146  0.1321  0.5359  1.1803
 2787TIP3    H229997   2.657   0.954   8.076 -0.2063  0.5088  0.5292
 2788TIP3   OH229998   0.857   2.594   8.434  0.1941 -0.3678  0.0847
 2788TIP3    H129999   0.839   2.675   8.387  1.5584 -0.4663 -0.6679
 2788TIP3    H230000   0.874   2.621   8.524  1.0304  0.2446 -0.2427
 2789TIP3   OH230001   6.545   4.125   0.312 -0.1403 -0.3664 -0.7959
 2789TIP3    H130002   6.568   4.200   0.256 -0.5379 -0.7936 -1.5539
 2789TIP3    H230003   6.450   4.131   0.320 -0.3698 -1.6659 -2.1703
 2790TIP3   OH230004   6.799   1.863   2.206 -0.3229  0.1813  0.1700
 2790TIP3    H130005   6.733   1.929   2.227 -0.5184 -0.0919  0.4326
 2790TIP3    H230006   6.877   1.892   2.252 -0.2304  0.5619 -0.2274
 2791TIP3   OH230007   4.980   3.381   0.096 -0.5173  0.4393 -0.3093
 2791TIP3    H130008   4.908   3.409   0.040 -1.0606 -0.6084 -0.1528
 2791TIP3    H230009   4.997   3.290   0.071  1.0228  0.7773 -0.6155
 2792TIP3   OH230010   3.196   3.135   1.174  0.2650  0.2424 -0.8533
 2792TIP3    H130011   3.111   3.092   1.169  0.0953  0.2684  1.2415
 2792TIP3    H230012   3.241   3.108   1.093 -0.8873 -1.5657 -0.9374
 2793TIP3   OH230013   2.698   6.626   7.506  0.2067 -0.0834  0.5908
 2793TIP3    H130014   2.608   6.625   7.475  0.0219 -2.0110  1.0136
 2793TIP3    H230015   2.718   6.718   7.522 -2.2566  0.2694  2.0753
 2794TIP3   OH230016   4.791   6.183   8.396  0.1533  0.3971  0.1009
 2794TIP3    H130017   4.795   6.119   8.326  0.4086  1.1813 -0.6220
 2794TIP3    H230018   4.882   6.198   8.421  0.1784  1.2246 -0.4458
 2795TIP3   OH230019   1.103   3.427   1.564 -0.3605  0.5116  0.8466
 2795TIP3    H130020   1.041   3.432   1.491  1.9219 -2.3649 -1.5383
 2795TIP3    H230021   1.112   3.518   1.593 -2.4517  1.6093 -1.4995
 2796TIP3   OH230022   3.438   5.659   0.792 -0.6203  0.3771  0.3359
 2796TIP3    H130023   3.502   5.656   0.863 -0.4707  0.2457  0.1956
 2796TIP3    H230024   3.402   5.570   0.788 -0.0652  0.1707 -0.2662
 2797TIP3   OH230025   1.179   4.581   8.553 -0.0029  0.2517  0.2058
 2797TIP3    H130026   1.259   4.579   8.500  0.4587  0.2313  0.8969
 2797TIP3    H230027   1.110   4.605   8.490  0.2519 -1.3681 -0.7388
 2798TIP3   OH230028   3.994   6.479   1.473  0.0571  0.6235 -0.5356
 2798TIP3    H130029   4.024   6.483   1.382 -0.4480  1.9318 -0.6631
 2798TIP3    H230030   3.909   6.435   1.468  0.7647 -0.8197 -0.4694
 2799TIP3   OH230031   0.497   5.597   0.084 -0.1139 -0.0985 -0.6247
 2799TIP3    H130032   0.411   5.621   0.118  0.0014 -0.9974  0.3495
 2799TIP3    H230033   0.557   5.609   0.158  0.3540 -0.8413 -0.8664
 2800TIP3   OH230034   6.860   0.336   7.593 -0.3328  0.7315 -0.4288
 2800TIP3    H130035   6.778   0.290   7.608  1.2012 -2.4021 -0.8779
 2800TIP3    H230036   6.859   0.359   7.500 -0.3060 -0.2643 -0.6889
 2801TIP3   OH230037   4.980   6.842   8.497  0.4999  0.7170 -0.2628
 2801TIP3    H130038   5.050   6.824   8.434  0.5516  0.2216 -0.0712
 2801TIP3    H230039   4.901   6.853   8.443  0.0431 -2.0967 -0.3432
 2802TIP3   OH230040   6.228   5.411   0.447  0.2837 -0.8307  0.4850
 2802TIP3    H130041   6.212   5.397   0.354  0.4654  1.7310  0.0021
 2802TIP3    H230042   6.175   5.487   0.470  2.2600  0.2469  1.7991
 2803TIP3   OH230043   2.019   0.781   2.309 -0.0542 -0.0310  0.4696
 2803TIP3    H130044   1.947   0.763   2.369  1.3638 -1.5832  1.8198
 2803TIP3    H230045   1.999   0.729   2.231 -2.6270  3.0891 -1.1289
 2804TIP3   OH230046   5.862   2.496   8.722 -0.8270  0.6211 -0.3134
 2804TIP3    H130047   5.858   2.480   8.816 -1.3697 -0.1221 -0.4494
 2804TIP3    H230048   5.833   2.587   8.712  1.9885  1.7021  0.4517
 2805TIP3   OH230049   4.292   0.244   1.292 -0.2864 -0.2907  0.5115
 2805TIP3    H130050   4.290   0.298   1.371 -1.6295 -0.7043  0.7964
 2805TIP3    H230051   4.295   0.154   1.326 -1.4011 -0.4915  0.1286
 2806TIP3   OH230052   5.769   0.320   7.232 -0.2507  0.3706  0.3452
 2806TIP3    H130053   5.673   0.323   7.233 -0.2998 -0.7775  1.0018
 2806TIP3    H230054   5.794   0.373   7.157 -1.4451 -0.1383 -0.4382
 2807TIP3   OH230055   0.086   1.542   0.796  0.1765 -0.1042  0.0491
 2807TIP3    H130056   0.069   1.597   0.873  0.3608  0.0002  0.0166
 2807TIP3    H230057   0.124   1.462   0.831  2.2770  0.7767 -0.0638
 2808TIP3   OH230058   5.975   0.606   1.789  0.2073 -0.0728  0.2280
 2808TIP3    H130059   6.052   0.614   1.733 -0.2906 -0.3324 -0.5034
 2808TIP3    H230060   5.940   0.695   1.794  0.9561  0.1902  1.1676
 2809TIP3   OH230061   5.483   5.806   8.100 -0.5991  0.2867  0.2289
 2809TIP3    H130062   5.500   5.719   8.137  0.5059  0.9603  1.3883
 2809TIP3    H230063   5.445   5.789   8.014 -0.4994 -1.3439  0.4859
 2810TIP3   OH230064   6.074   5.816   6.619 -0.3358 -0.1090 -0.5620
 2810TIP3    H130065   6.134   5.824   6.545  1.4610 -0.0377  0.8158
 2810TIP3    H230066   6.132   5.818   6.696 -2.2325  1.1956  0.9022
 2811TIP3   OH230067   3.187   4.446   1.748 -0.7722  0.4675  0.1443
 2811TIP3    H130068   3.195   4.354   1.724 -1.3354  0.3818  0.2729
 2811TIP3    H230069   3.261   4.462   1.807 -1.8240 -0.4469  1.7850
 2812TIP3   OH230070   2.378   6.061   6.575 -0.6190 -0.4211 -0.1754
 2812TIP3    H130071   2.317   6.069   6.648  1.8184  1.2201  1.8754
 2812TIP3    H230072   2.426   5.980   6.593 -0.4358 -0.3455 -0.3165
 2813TIP3   OH230073   1.133   6.456   2.130  0.9183 -0.4212 -0.1229
 2813TIP3    H130074   1.226   6.476   2.131  0.8240  0.1320  1.8573
 2813TIP3    H230075   1.114   6.423   2.217 -0.5926 -1.3771 -0.7612
 2814TIP3   OH230076   6.252   5.421   8.559 -0.2998  0.4660  0.0316
 2814TIP3    H130077   6.195   5.354   8.520  0.1186  1.2464 -2.0493
 2814TIP3    H230078   6.324   5.371   8.597 -0.9079 -0.3622  0.1307
 2815TIP3   OH230079   3.405   1.490   7.949 -0.2571  0.2131  0.5383
 2815TIP3    H130080   3.420   1.397   7.967  3.4060  0.8925  1.9957
 2815TIP3    H230081   3.360   1.491   7.865 -1.1128 -2.8667  0.8318
 2816TIP3   OH230082   2.820   4.841   7.881  0.2561  0.3478 -0.2654
 2816TIP3    H130083   2.887   4.796   7.828 -0.6229 -1.1552 -0.1754
 2816TIP3    H230084   2.852   4.835   7.971  1.0578  1.6301 -0.4441
 2817TIP3   OH230085   0.341   4.188   7.426  0.3127 -0.0236 -0.3467
 2817TIP3    H130086   0.273   4.193   7.493 -1.6611  0.2045 -2.2842
 2817TIP3    H230087   0.422   4.207   7.474 -0.5980 -2.3980  2.4900
 2818TIP3   OH230088   1.022   5.544   0.944 -0.0411  0.2583  0.4399
 2818TIP3    H130089   1.104   5.562   0.898 -0.2520 -0.3725 -0.1997
 2818TIP3    H230090   1.047   5.539   1.036  0.8939 -1.2911  0.1391
 2819TIP3   OH230091   1.733   6.823   1.631 -0.0500 -0.0535 -0.2574
 2819TIP3    H130092   1.772   6.737   1.644 -1.2570 -1.1039 -2.9538
 2819TIP3    H230093   1.641   6.812   1.656 -0.1676  0.5303 -0.4128
 2820TIP3   OH230094   0.852   3.247   1.348 -0.3911 -0.3832 -0.3919
 2820TIP3    H130095   0.830   3.162   1.385  0.7040 -0.0889  1.0497
 2820TIP3    H230096   0.945   3.239   1.324 -0.1454  0.5156  0.1964
 2821TIP3   OH230097   4.882   4.558   1.923  0.2158  0.0544  0.4003
 2821TIP3    H130098   4.959   4.613   1.908 -0.3881  1.0504  0.8610
 2821TIP3    H230099   4.817   4.616   1.962 -0.3845 -1.0356  1.0969
 2822TIP3   OH230100   1.279   4.069   1.742 -0.3517 -0.2941 -0.4471
 2822TIP3    H130101   1.273   4.030   1.829  0.7588  0.3593 -0.0573
 2822TIP3    H230102   1.366   4.109   1.739 -1.4911  2.3823 -0.7202
 2823TIP3   OH230103   0.476   3.993   0.951  0.0570  0.0633  0.5911
 2823TIP3    H130104   0.494   4.064   0.889  0.1655  0.3847  0.9924
 2823TIP3    H230105   0.383   4.003   0.972 -0.4377 -1.0968 -0.8438
 2824TIP3   OH230106   5.759   5.461   7.193 -0.2255  0.2059  1.1373
 2824TIP3    H130107   5.716   5.479   7.277 -2.3121 -0.3309  0.2582
 2824TIP3    H230108   5.797   5.374   7.204 -0.4447  0.1588  1.5522
 2825TIP3   OH230109   3.729   1.238   6.973 -0.2825 -0.2111  1.0105
 2825TIP3    H130110   3.793   1.180   7.014  0.0468 -0.3534  0.3010
 2825TIP3    H230111   3.730   1.213   6.881  0.9143  1.8982  0.3994
 2826TIP3   OH230112   3.944   6.507   6.996  0.5556  0.3414  0.4815
 2826TIP3    H130113   3.890   6.587   6.998  1.0073  0.6876 -0.5342
 2826TIP3    H230114   3.957   6.490   6.903 -1.4464 -2.2421  0.5747
 2827TIP3   OH230115   5.023   2.076   7.987  0.0596 -0.3806  0.4580
 2827TIP3    H130116   5.003   1.987   8.015 -1.0044  0.1417  1.4144
 2827TIP3    H230117   5.082   2.110   8.054  0.7669 -0.4751 -0.1027
 2828TIP3   OH230118   1.691   0.983   8.183 -0.0822 -0.5283 -0.2414
 2828TIP3    H130119   1.605   1.009   8.217  0.2385  1.1746 -0.6155
 2828TIP3    H230120   1.753   1.011   8.250  0.2886 -0.4227 -0.6228
 2829TIP3   OH230121   2.798   6.037   2.556 -0.2262 -0.3789  0.1415
 2829TIP3    H130122   2.877   6.065   2.602 -0.8203  1.5980  0.0245
 2829TIP3    H230123   2.827   5.962   2.504  1.9176  1.0831 -0.9278
 2830TIP3   OH230124   6.460   2.475   7.984  0.0467  0.6753 -0.1605
 2830TIP3    H130125   6.445   2.569   7.972 -1.3990  0.2406 -2.2789
 2830TIP3    H230126   6.386   2.433   7.941  1.9021 -1.4842 -1.4612
 2831TIP3   OH230127   5.982   1.923   8.522 -0.7677  0.3202  0.4862
 2831TIP3    H130128   6.024   1.881   8.447 -0.5300  2.1300 -0.4428
 2831TIP3    H230129   6.038   1.903   8.596  0.6653  1.0331 -0.3766
 2832TIP3   OH230130   1.685   5.785   2.020 -0.1566 -0.2489  0.2605
 2832TIP3    H130131   1.758   5.728   2.043  0.8619  1.4726  1.4664
 2832TIP3    H230132   1.630   5.731   1.963  1.7132 -1.7918 -0.1754
 2833TIP3   OH230133   0.820   1.536   7.798 -0.1776 -0.3759 -0.6836
 2833TIP3    H130134   0.803   1.496   7.883  1.9127  0.5035  0.2128
 2833TIP3    H230135   0.786   1.473   7.734 -1.6633 -1.1179  0.7596
 2834TIP3   OH230136   0.201   4.627   8.299 -0.1440 -0.0029  0.1590
 2834TIP3    H130137   0.187   4.714   8.260  2.0641  0.8179  1.0194
 2834TIP3    H230138   0.256   4.581   8.236  0.6612  0.1023  0.7784
 2835TIP3   OH230139   1.876   4.796   0.825 -0.1675 -0.1407 -0.5087
 2835TIP3    H130140   1.929   4.717   0.814 -1.6782 -1.0770 -1.4694
 2835TIP3    H230141   1.938   4.863   0.854  1.1935 -1.6203  0.1557
 2836TIP3   OH230142   2.136   5.874   7.726  0.4189 -0.2572  0.3552
 2836TIP3    H130143   2.049   5.834   7.713  0.0926  0.5451 -0.0280
 2836TIP3    H230144   2.120   5.968   7.718  0.6488  0.2458  3.9717
 2837TIP3   OH230145   4.234   1.251   6.573  0.0898  0.2272 -0.2763
 2837TIP3    H130146   4.317   1.215   6.542  0.5919  1.7335 -0.7815
 2837TIP3    H230147   4.179   1.257   6.495 -0.0765  0.3069 -0.1538
 2838TIP3   OH230148   6.205   6.389   0.600  0.4816 -0.0353  0.0877
 2838TIP3    H130149   6.246   6.317   0.552 -0.5807 -0.2329 -0.5751
 2838TIP3    H230150   6.277   6.448   0.622  1.3928 -1.3531  0.7618
 2839TIP3   OH230151   4.770   6.542   8.061  0.6479  0.6819  0.3705
 2839TIP3    H130152   4.822   6.584   7.993 -1.5145  0.9116 -1.2711
 2839TIP3    H230153   4.783   6.448   8.047 -0.7414  0.6868 -1.2556
 2840TIP3   OH230154   1.144   1.099   7.596 -0.2357  0.0315 -0.2085
 2840TIP3    H130155   1.134   1.193   7.611 -2.4187  0.0106 -1.1562
 2840TIP3    H230156   1.149   1.061   7.683  1.7765  1.0839  0.1837
 2841TIP3   OH230157   4.478   3.370   1.975  0.3618 -0.0645 -0.5778
 2841TIP3    H130158   4.497   3.314   1.900  1.8918 -0.5482  0.1399
 2841TIP3    H230159   4.540   3.443   1.967 -0.0821  0.3566 -0.2690
 2842TIP3   OH230160   2.111   6.624   0.181  0.2175 -0.3315  0.6469
 2842TIP3    H130161   2.019   6.620   0.154  1.4834 -0.3337 -4.7000
 2842TIP3    H230162   2.142   6.534   0.174  1.3109  0.1227 -1.1297
 2843TIP3   OH230163   3.473   6.046   0.312  0.1515  0.8658  0.0085
 2843TIP3    H130164   3.510   6.132   0.292 -1.2654  1.9709  1.7912
 2843TIP3    H230165   3.394   6.066   0.363 -1.3755 -1.4485 -1.3052
 2844TIP3   OH230166   3.996   2.564   0.832 -0.8412 -0.0723 -0.1282
 2844TIP3    H130167   3.975   2.489   0.776 -1.2610  0.1841 -0.3196
 2844TIP3    H230168   4.087   2.586   0.810 -0.8296 -0.3073 -0.3230
 2845TIP3   OH230169   3.968   6.063   0.267 -0.1193 -0.3318 -0.0100
 2845TIP3    H130170   3.927   6.142   0.231 -0.9582 -0.5949  0.3483
 2845TIP3    H230171   3.927   6.052   0.353  0.1625 -1.0247  0.0409
 2846TIP3   OH230172   5.454   3.910   1.931 -0.1714  0.8237  0.6129
 2846TIP3    H130173   5.520   3.855   1.889  0.0142 -0.3914  2.3757
 2846TIP3    H230174   5.504   3.983   1.967  0.0755  0.4527  1.0363
 2847TIP3   OH230175   4.395   0.024   8.664  0.1123  0.0479  0.8015
 2847TIP3    H130176   4.349  -0.057   8.644 -0.7046  0.6898  0.0136
 2847TIP3    H230177   4.483   0.011   8.627 -0.4700  0.0774 -0.6639
 2848TIP3   OH230178   0.660   2.483   0.010 -0.1947  0.2579  0.0648
 2848TIP3    H130179   0.719   2.542   0.057 -0.7578  0.8543  0.0385
 2848TIP3    H230180   0.575   2.496   0.052 -0.1743 -1.1273  0.5826
 2849TIP3   OH230181   2.382   6.553   1.830 -0.7296 -0.7873 -0.0453
 2849TIP3    H130182   2.426   6.491   1.772 -0.7041 -0.3851 -0.4718
 2849TIP3    H230183   2.449   6.580   1.893 -0.4457 -0.4302 -0.4874
 2850TIP3   OH230184   1.231   2.872   6.438  0.5508 -0.4743 -0.0369
 2850TIP3    H130185   1.314   2.831   6.461  0.7903 -0.0972 -0.1987
 2850TIP3    H230186   1.166   2.803   6.447  0.6891 -0.4381  1.3536
 2851TIP3   OH230187   6.602   6.305   1.681 -0.1658  0.1991 -0.1198
 2851TIP3    H130188   6.594   6.210   1.674  1.4912 -0.2271  2.4449
 2851TIP3    H230189   6.515   6.335   1.706 -0.4590 -0.7788  0.0568
 2852TIP3   OH230190   4.791   3.365   8.714 -0.1592  0.2207 -0.4747
 2852TIP3    H130191   4.775   3.386   8.622 -1.3792  0.3325 -0.2545
 2852TIP3    H230192   4.763   3.274   8.723  0.6761 -0.0299 -0.3782
 2853TIP3   OH230193   2.990   3.975   0.354  0.0082 -0.5179  0.8409
 2853TIP3    H130194   3.019   4.046   0.412 -0.7526  1.1796 -0.7858
 2853TIP3    H230195   2.940   3.917   0.411 -0.8648  1.1802  1.8748
 2854TIP3   OH230196   6.461   2.868   1.783  0.4341 -0.2693  0.3658
 2854TIP3    H130197   6.490   2.873   1.692  0.5678  0.0451  0.4249
 2854TIP3    H230198   6.395   2.799   1.783 -0.5244  0.6295 -0.2302
 2855TIP3   OH230199   5.103   4.638   0.556 -0.3706  0.2121  0.6939
 2855TIP3    H130200   5.055   4.704   0.505  1.2472  0.5373 -0.4801
 2855TIP3    H230201   5.112   4.564   0.495 -1.7976 -0.9826  1.8573
 2856TIP3   OH230202   5.278   5.001   8.564  0.6146 -0.3495  0.2136
 2856TIP3    H130203   5.253   4.934   8.626 -0.8687 -0.0481 -0.0299
 2856TIP3    H230204   5.199   5.018   8.512  1.5460  0.0539 -1.1536
 2857TIP3   OH230205   2.325   0.542   7.430  0.3096  0.3285  0.1520
 2857TIP3    H130206   2.281   0.550   7.345 -0.1763 -0.4816  0.3150
 2857TIP3    H230207   2.370   0.458   7.426 -1.1721 -0.5819  1.3252
 2858TIP3   OH230208   3.406   0.045   7.131  0.1303 -0.2149  0.2925
 2858TIP3    H130209   3.413   0.137   7.155  0.2101  0.0913 -0.8535
 2858TIP3    H230210   3.462  -0.000   7.194  0.9888  0.6444  0.1759
 2859TIP3   OH230211   1.294   5.301   0.284  0.6846  0.1568 -0.4275
 2859TIP3    H130212   1.316   5.223   0.233  0.0427 -0.9137  0.8600
 2859TIP3    H230213   1.208   5.327   0.252  0.5625 -0.1268 -0.3295
 2860TIP3   OH230214   2.762   1.829   0.611 -0.1549 -0.6235 -0.4949
 2860TIP3    H130215   2.692   1.893   0.598 -0.0960 -0.6283 -0.8356
 2860TIP3    H230216   2.837   1.865   0.565  0.3915 -0.0861  0.7869
 2861TIP3   OH230217   4.741   3.549   6.333  0.0681 -0.5653 -0.3275
 2861TIP3    H130218   4.672   3.483   6.332 -0.1384 -0.3931  0.9947
 2861TIP3    H230219   4.823   3.499   6.324 -0.1397 -0.8982 -0.3778
 2862TIP3   OH230220   5.931   5.566   6.618 -0.2154 -0.3974 -0.0121
 2862TIP3    H130221   5.983   5.525   6.688 -0.1272 -0.9902 -0.4163
 2862TIP3    H230222   5.974   5.649   6.601  1.3257 -1.3786 -1.1500
 2863TIP3   OH230223   3.186   2.716   7.053  0.1277 -0.1921 -0.1192
 2863TIP3    H130224   3.177   2.802   7.014 -0.0598 -0.0474  0.2386
 2863TIP3    H230225   3.178   2.655   6.979 -1.6812  0.0111 -0.1469
 2864TIP3   OH230226   0.615   1.941   0.357  0.4928  0.3708  0.2930
 2864TIP3    H130227   0.638   1.873   0.293 -0.8274  0.6322 -0.4940
 2864TIP3    H230228   0.696   1.991   0.367  0.8348  0.1090 -0.9086
 2865TIP3   OH230229   3.288   5.458   0.165  0.3396  0.0898  0.7161
 2865TIP3    H130230   3.363   5.415   0.126  0.7228 -0.1366  1.6838
 2865TIP3    H230231   3.219   5.450   0.099  0.6587 -1.2094  0.5158
 2866TIP3   OH230232   0.692   0.036   7.653  0.2302 -0.7689 -0.1047
 2866TIP3    H130233   0.645  -0.023   7.594 -0.0686 -0.1882 -0.4472
 2866TIP3    H230234   0.759  -0.020   7.693  0.6627 -1.0994 -1.2509
 2867TIP3   OH230235   4.691   2.794   8.142  0.0621 -0.1957  0.1596
 2867TIP3    H130236   4.617   2.733   8.148 -0.4212  0.2292 -1.0423
 2867TIP3    H230237   4.709   2.799   8.048  1.4048 -0.0264  0.4148
 2868TIP3   OH230238   6.302   4.259   0.015 -0.6885  0.0435 -0.2738
 2868TIP3    H130239   6.370   4.275   0.081 -0.2169 -1.2625 -0.4043
 2868TIP3    H230240   6.342   4.197  -0.046 -0.7694  1.9144 -2.3725
 2869TIP3   OH230241   1.477   4.021   8.545  0.5979  0.2495  0.1321
 2869TIP3    H130242   1.480   4.064   8.631  0.4954  0.1381  0.1929
 2869TIP3    H230243   1.434   4.085   8.488  1.0646  0.4977  0.0580
 2870TIP3   OH230244   5.403   5.657   7.299 -0.1762 -0.5849  0.6235
 2870TIP3    H130245   5.440   5.737   7.261 -1.2580 -0.5488 -0.4190
 2870TIP3    H230246   5.479   5.602   7.318  0.7192  1.3045  2.9050
 2871TIP3   OH230247   2.199   6.333   7.266 -0.4594 -0.2082  0.1682
 2871TIP3    H130248   2.245   6.260   7.305 -0.1974  0.4125  1.0481
 2871TIP3    H230249   2.107   6.319   7.288 -0.3243  0.0873  0.9226
 2872TIP3   OH230250   1.727   2.850   6.766 -0.2939  0.0101 -0.1216
 2872TIP3    H130251   1.705   2.926   6.821 -3.4195 -0.2234 -0.8984
 2872TIP3    H230252   1.738   2.886   6.678  0.2490 -0.1967 -0.1437
 2873TIP3   OH230253   5.999   2.754   0.037 -0.8421 -0.0376 -0.0765
 2873TIP3    H130254   6.000   2.803  -0.046 -0.3716  0.4558  0.2117
 2873TIP3    H230255   5.911   2.769   0.072 -0.3409  1.5606  0.5545
 2874TIP3   OH230256   4.516   1.684   8.404  0.1573 -0.4952 -0.1676
 2874TIP3    H130257   4.562   1.653   8.326  0.4567  1.2218 -0.7204
 2874TIP3    H230258   4.423   1.680   8.379  0.3000  3.6660 -2.2287
 2875TIP3   OH230259   2.834   0.212   7.958 -0.1077  0.3746  0.2848
 2875TIP3    H130260   2.759   0.205   8.018  0.1426 -0.5346  0.5102
 2875TIP3    H230261   2.881   0.129   7.969 -0.3047 -0.0237 -1.5108
 2876TIP3   OH230262   6.051   5.746   2.077  0.8218 -0.2270  0.0860
 2876TIP3    H130263   6.139   5.746   2.039  2.2548 -0.2349  3.0844
 2876TIP3    H230264   6.035   5.654   2.100 -0.2520 -0.3194 -0.9546
 2877TIP3   OH230265   0.842   5.899   1.252  0.0371 -0.2460 -0.0359
 2877TIP3    H130266   0.804   5.874   1.337  0.2526  0.3239  0.2305
 2877TIP3    H230267   0.902   5.827   1.231  1.6380  0.5948  1.3461
 2878TIP3   OH230268   1.430   2.125   1.235  0.1240  0.0547 -0.0251
 2878TIP3    H130269   1.457   2.213   1.209  3.4337  0.0312  2.6141
 2878TIP3    H230270   1.456   2.069   1.163 -0.9218  1.0345 -1.2168
 2879TIP3   OH230271   0.878   0.545   8.245 -0.5529  0.0688 -0.0620
 2879TIP3    H130272   0.812   0.615   8.241  0.5572  1.0821 -1.8856
 2879TIP3    H230273   0.917   0.544   8.158  2.0015 -0.3581  1.0092
 2880TIP3   OH230274   0.055   6.499   1.126  0.1191 -0.1007 -0.6448
 2880TIP3    H130275   0.060   6.445   1.047  0.0573  0.8952 -1.3537
 2880TIP3    H230276  -0.032   6.540   1.122 -0.9556 -1.9713  1.2742
 2881TIP3   OH230277   1.087   0.108   0.759  0.0559  0.3943  0.3022
 2881TIP3    H130278   1.155   0.070   0.814  0.1642  0.8455  0.4799
 2881TIP3    H230279   1.014   0.125   0.818 -0.6341 -1.0786 -0.0689
 2882TIP3   OH230280   0.378   0.118   1.560  0.4793 -0.6926  0.4549
 2882TIP3    H130281   0.461   0.156   1.530 -0.4723  0.4749 -0.8297
 2882TIP3    H230282   0.397   0.084   1.647  2.1449  0.0958  0.4346
 2883TIP3   OH230283   0.900   3.331   8.252 -0.2321 -0.9011  0.1684
 2883TIP3    H130284   0.840   3.348   8.179  1.3239  0.8902 -0.7673
 2883TIP3    H230285   0.842   3.322   8.328 -1.7317  1.3063 -0.5901
 2884TIP3   OH230286   3.664   3.512   0.777 -0.2603 -0.2505 -0.4671
 2884TIP3    H130287   3.616   3.593   0.762  0.7035  0.7873  1.5803
 2884TIP3    H230288   3.747   3.524   0.729 -0.4333 -0.3558 -0.7929
 2885TIP3   OH230289   3.441   5.311   0.634 -0.2944 -0.0516 -0.1583
 2885TIP3    H130290   3.383   5.366   0.686  0.1120 -0.9069  1.2474
 2885TIP3    H230291   3.448   5.229   0.683  0.6606 -0.6376 -1.2102
 2886TIP3   OH230292   6.011   1.782   7.156 -0.1618 -0.5111 -0.3045
 2886TIP3    H130293   5.921   1.800   7.183 -0.5415 -0.5870 -1.4950
 2886TIP3    H230294   6.005   1.702   7.104  0.3697  0.3022 -1.6508
 2887TIP3   OH230295   5.407   4.975   7.393  0.1630 -0.2448  0.0781
 2887TIP3    H130296   5.469   4.921   7.343 -2.0034 -1.3566 -1.5898
 2887TIP3    H230297   5.391   4.925   7.473 -0.0694 -0.9654 -0.4028
 2888TIP3   OH230298   2.790   5.008   7.142 -0.0617 -0.0136  0.3597
 2888TIP3    H130299   2.803   4.931   7.195 -1.5847  0.0634  0.9071
 2888TIP3    H230300   2.723   4.982   7.078 -0.1086  0.6512  0.1278
 2889TIP3   OH230301   5.021   5.407   1.017  0.7682  0.2461  0.4006
 2889TIP3    H130302   5.071   5.488   1.018  0.4495  0.4593 -0.0990
 2889TIP3    H230303   5.084   5.339   0.995  1.4939  0.0085  2.9405
 2890TIP3   OH230304   1.231   3.820   0.859  0.2863  0.2490 -0.2387
 2890TIP3    H130305   1.282   3.800   0.781 -2.0513  1.3706 -2.2011
 2890TIP3    H230306   1.293   3.861   0.920  2.1524 -0.5910 -1.4914
 2891TIP3   OH230307   4.187   1.261   8.107  0.8903 -0.0127  0.3677
 2891TIP3    H130308   4.219   1.350   8.093  1.5584 -0.2318  0.4397
 2891TIP3    H230309   4.097   1.262   8.075  0.7759  0.7777  0.6937
 2892TIP3   OH230310   0.149   1.082   7.997  0.1172 -0.1769 -0.0823
 2892TIP3    H130311   0.119   0.993   7.977  4.6350 -1.7011 -1.4809
 2892TIP3    H230312   0.125   1.134   7.921 -1.5683 -0.4480  0.2377
 2893TIP3   OH230313   0.332   3.567   8.334  0.6421  0.5227  0.2609
 2893TIP3    H130314   0.376   3.650   8.353  1.1477  0.0280  1.3808
 2893TIP3    H230315   0.263   3.561   8.400  1.1763 -0.3341  0.7761
 2894TIP3   OH230316   2.936   5.645   2.020  0.2642  0.7942 -0.2013
 2894TIP3    H130317   2.989   5.678   2.092  0.5264  1.5731 -0.7330
 2894TIP3    H230318   2.987   5.667   1.942  0.8803 -1.6618 -0.5612
 2895TIP3   OH230319   6.323   2.589   7.507  0.8525 -0.5438 -0.4608
 2895TIP3    H130320   6.383   2.583   7.433  0.8239 -2.1715 -0.3724
 2895TIP3    H230321   6.379   2.612   7.581  1.2010 -0.9582 -0.5938
 2896TIP3   OH230322   5.617   4.717   0.119  0.4421  0.2731 -0.2304
 2896TIP3    H130323   5.530   4.684   0.097 -0.6086  1.8672  1.2398
 2896TIP3    H230324   5.625   4.701   0.213  1.8099  0.0369 -0.3715
 2897TIP3   OH230325   5.336   4.319   8.293  0.7528 -0.0808 -0.1854
 2897TIP3    H130326   5.337   4.226   8.269 -0.5108  0.0227 -0.7271
 2897TIP3    H230327   5.382   4.363   8.222 -0.4304 -0.0957 -0.9962
 2898TIP3   OH230328   1.190   0.432   0.477 -0.2439 -0.6914 -0.0544
 2898TIP3    H130329   1.149   0.355   0.516  1.0595 -0.8684  1.0588
 2898TIP3    H230330   1.213   0.487   0.552 -0.8745  0.6371 -0.8201
 2899TIP3   OH230331   0.725   4.283   7.261  0.2032 -0.5251  0.1805
 2899TIP3    H130332   0.790   4.335   7.307 -0.6229  0.9657 -0.2739
 2899TIP3    H230333   0.665   4.252   7.329 -0.0440  0.2372  0.3191
 2900TIP3   OH230334   3.137   6.530   8.448  0.2280  0.1160  0.0513
 2900TIP3    H130335   3.042   6.529   8.440  0.2941 -1.9322 -1.0333
 2900TIP3    H230336   3.153   6.497   8.537 -0.0515 -0.2063 -0.0163
 2901TIP3   OH230337   1.897   1.473   0.079 -0.1809  0.6580  0.8450
 2901TIP3    H130338   1.911   1.447  -0.012  0.8046  1.1508  0.8436
 2901TIP3    H230339   1.807   1.448   0.098  0.7156 -2.9809  0.9224
 2902TIP3   OH230340   5.817   3.101   8.746  0.2687 -0.0315  0.6676
 2902TIP3    H130341   5.891   3.141   8.791  1.2701  0.5324 -1.3856
 2902TIP3    H230342   5.756   3.173   8.732  0.0904 -0.1468  0.8476
 2903TIP3   OH230343   1.845   4.658   6.970  0.0515 -0.2272  0.1547
 2903TIP3    H130344   1.863   4.752   6.962  0.2305 -0.3552 -1.3230
 2903TIP3    H230345   1.861   4.624   6.882  4.0494 -2.3890  1.4741
 2904TIP3   OH230346   6.629   1.547   8.584  0.2065  0.1921  0.2410
 2904TIP3    H130347   6.709   1.498   8.564 -0.4068 -0.3982 -0.8568
 2904TIP3    H230348   6.626   1.615   8.517 -1.3851 -1.2176 -1.2105
 2905TIP3   OH230349   1.491   5.100   1.886 -0.6633  0.4947  0.7212
 2905TIP3    H130350   1.513   5.021   1.936  0.7609  0.2782 -0.1865
 2905TIP3    H230351   1.428   5.069   1.820  1.0472 -0.2658 -0.6240
 2906TIP3   OH230352   3.897   0.287   8.305 -0.5576 -0.2639 -0.2997
 2906TIP3    H130353   3.944   0.216   8.348  0.7503  0.1922 -0.9319
 2906TIP3    H230354   3.964   0.352   8.286 -1.0302 -0.4386 -2.9912
 2907TIP3   OH230355   5.914   4.038   8.195  0.3235 -0.3140  0.0121
 2907TIP3    H130356   5.855   4.102   8.237  1.1083  1.0902 -0.9499
 2907TIP3    H230357   6.000   4.058   8.230  0.7788 -0.0033 -1.2263
 2908TIP3   OH230358   4.820   4.076   7.686  0.5631  0.2773  0.3483
 2908TIP3    H130359   4.731   4.044   7.705  0.4217 -0.4847 -1.3705
 2908TIP3    H230360   4.845   4.126   7.763 -0.6603 -1.0103  1.6246
 2909TIP3   OH230361   0.814   0.830   1.481 -0.7431  0.2486 -0.1718
 2909TIP3    H130362   0.853   0.785   1.406 -0.7333  0.7024 -0.4443
 2909TIP3    H230363   0.872   0.904   1.498  0.6873 -1.2281  1.8928
 2910TIP3   OH230364   4.436   4.186   7.344 -0.3081 -0.6519 -0.6951
 2910TIP3    H130365   4.379   4.263   7.338  0.7225  0.1030 -1.3378
 2910TIP3    H230366   4.398   4.133   7.413 -1.6124 -0.0364 -0.9059
 2911TIP3   OH230367   1.133   6.253   7.759 -0.5106 -0.4066 -0.6480
 2911TIP3    H130368   1.204   6.218   7.812 -0.6889  1.6749  1.0662
 2911TIP3    H230369   1.145   6.211   7.673  1.0244 -2.2754  0.3994
 2912TIP3   OH230370   0.017   4.305   0.226 -0.0684 -0.2722  0.2968
 2912TIP3    H130371   0.026   4.211   0.244 -2.1250 -0.4887  0.3836
 2912TIP3    H230372  -0.024   4.310   0.140  2.7468  0.6667 -1.1198
 2913TIP3   OH230373   0.291   3.739   1.382 -0.2363  0.3124 -0.0045
 2913TIP3    H130374   0.319   3.749   1.473 -0.6942 -0.3163  0.2120
 2913TIP3    H230375   0.198   3.764   1.383  0.1784  1.9793 -0.6333
 2914TIP3   OH230376   4.517   5.716   8.106  0.5844 -0.9692  0.1449
 2914TIP3    H130377   4.589   5.671   8.149  1.5014 -0.4636 -0.8217
 2914TIP3    H230378   4.519   5.804   8.143 -0.0778 -1.1881  0.7241
 2915TIP3   OH230379   6.630   0.230   1.694 -0.2984  0.1132 -0.0784
 2915TIP3    H130380   6.671   0.200   1.613  1.9480 -1.5528  1.5772
 2915TIP3    H230381   6.655   0.322   1.700  2.1643 -0.4980  0.1625
 2916TIP3   OH230382   4.726   4.263   8.084 -0.2009  0.4554  0.0093
 2916TIP3    H130383   4.735   4.291   7.993  0.4575 -1.3031 -0.4894
 2916TIP3    H230384   4.662   4.192   8.081 -0.2139  0.4214  0.9301
 2917TIP3   OH230385   0.957   0.241   8.713  0.5242  0.4521 -0.1111
 2917TIP3    H130386   0.917   0.254   8.628 -2.3214 -3.4001  0.4005
 2917TIP3    H230387   1.018   0.168   8.700 -0.2843 -0.4859  1.2132
 2918TIP3   OH230388   2.863   6.650   0.225 -0.4713 -0.2597 -0.6667
 2918TIP3    H130389   2.937   6.589   0.223  0.2914  0.5165  1.2690
 2918TIP3    H230390   2.810   6.620   0.299 -1.1374  0.2515 -0.9311
 2919TIP3   OH230391   1.681   0.577   7.688  0.2458 -0.0565 -0.2639
 2919TIP3    H130392   1.628   0.634   7.631 -0.6253  0.7763  1.3323
 2919TIP3    H230393   1.760   0.628   7.705 -0.6047  0.7957  1.2967
 2920TIP3   OH230394   1.906   6.029   7.861 -0.8813 -0.0334 -0.0689
 2920TIP3    H130395   1.887   6.105   7.806 -1.0396  0.7351  1.0318
 2920TIP3    H230396   1.888   5.954   7.804 -0.5949  0.7422 -1.2128
 2921TIP3   OH230397   4.732   5.610   8.240 -0.9724  0.0846  0.5337
 2921TIP3    H130398   4.764   5.699   8.257 -1.5955  0.2614  0.8136
 2921TIP3    H230399   4.783   5.555   8.301 -1.2993  0.3810  1.0843
 2922TIP3   OH230400   5.014   3.048   6.780  0.4827 -0.0297 -0.0243
 2922TIP3    H130401   4.941   3.110   6.776  0.4024 -0.1093  0.2081
 2922TIP3    H230402   5.012   3.015   6.870  2.1763  1.6256  0.6734
 2923TIP3   OH230403   4.024   2.153   6.841 -0.3736  0.5876 -0.3204
 2923TIP3    H130404   4.024   2.245   6.815  0.1418  0.9874  1.0537
 2923TIP3    H230405   4.115   2.133   6.861 -0.7836  0.4208  1.5265
 2924TIP3   OH230406   6.825   1.838   0.744 -0.2022 -0.5749  0.1538
 2924TIP3    H130407   6.827   1.770   0.677  0.3094 -0.7054  0.3002
 2924TIP3    H230408   6.732   1.859   0.754 -0.2922 -0.6673 -0.4784
 2925TIP3   OH230409   0.477   3.770   0.676  0.3600 -0.2558  0.4354
 2925TIP3    H130410   0.434   3.841   0.629  0.5431 -0.2874  0.2134
 2925TIP3    H230411   0.417   3.747   0.747  0.1687 -0.0760  0.3321
 2926TIP3   OH230412   5.679   4.736   7.818 -0.4050 -0.3598  0.5368
 2926TIP3    H130413   5.590   4.735   7.853  0.0744  0.9022  1.9257
 2926TIP3    H230414   5.672   4.783   7.735 -0.8534  0.9587  1.2916
 2927TIP3   OH230415   2.532   5.171   7.644 -0.7860 -0.0740  0.0552
 2927TIP3    H130416   2.573   5.098   7.599 -1.4780 -0.3487 -0.1388
 2927TIP3    H230417   2.563   5.163   7.735  1.3429  1.0131 -0.5002
 2928TIP3   OH230418   6.685   6.302   7.987 -0.8634  0.2938 -0.4577
 2928TIP3    H130419   6.777   6.309   7.965 -0.7821 -1.8462 -0.9435
 2928TIP3    H230420   6.661   6.390   8.018  2.1302  0.1532  2.8558
 2929TIP3   OH230421   3.127   5.258   2.230 -0.2853 -0.0265 -0.7322
 2929TIP3    H130422   3.109   5.205   2.152 -0.3705  0.5168 -1.0875
 2929TIP3    H230423   3.044   5.302   2.249  0.0271  0.6971 -0.9969
 2930TIP3   OH230424   0.514   5.918   7.100 -0.3825  0.3186 -0.5051
 2930TIP3    H130425   0.513   5.851   7.168  0.2819  0.6166 -0.1885
 2930TIP3    H230426   0.598   5.906   7.055 -1.4019 -0.7725 -2.2074
 2931TIP3   OH230427   2.259   5.610   1.097  0.3904  0.1299  0.0888
 2931TIP3    H130428   2.172   5.571   1.099  0.7136 -0.5957  0.3673
 2931TIP3    H230429   2.290   5.595   1.008 -0.8993  2.9861 -0.9382
 2932TIP3   OH230430   4.670   1.241   2.119  0.1464 -0.0517 -0.5541
 2932TIP3    H130431   4.620   1.319   2.146 -0.2080 -0.3686 -0.2868
 2932TIP3    H230432   4.616   1.200   2.052  0.4237  0.0309 -0.8325
 2933TIP3   OH230433   4.527   2.934   7.559 -0.4506 -0.3381  0.0906
 2933TIP3    H130434   4.602   2.949   7.502  0.8089  1.8678  2.1652
 2933TIP3    H230435   4.548   2.981   7.640 -3.4471 -0.8423  1.2912
 2934TIP3   OH230436   0.158   1.978   2.871  0.1265  0.0281  0.2689
 2934TIP3    H130437   0.117   2.017   2.793 -1.1097 -1.4594  0.1096
 2934TIP3    H230438   0.194   1.895   2.839 -1.1788 -1.0374  1.4063
 2935TIP3   OH230439   3.639   0.273   8.219  0.1478  0.5224  0.3825
 2935TIP3    H130440   3.726   0.270   8.259 -0.1163 -1.6375  0.9295
 2935TIP3    H230441   3.626   0.186   8.183 -2.2457  0.3974  1.3481
 2936TIP3   OH230442   4.930   1.826   8.103 -0.1223 -0.5506  0.0258
 2936TIP3    H130443   4.873   1.786   8.038 -2.1780  0.6331  1.0061
 2936TIP3    H230444   4.937   1.760   8.173  0.1044 -0.8770 -0.3022
 2937TIP3   OH230445   2.513   6.500   0.248 -0.1436  0.0369  0.1584
 2937TIP3    H130446   2.421   6.524   0.246  0.0181  0.6434 -1.6013
 2937TIP3    H230447   2.542   6.507   0.157  1.7851  0.4618  0.7527
 2938TIP3   OH230448   5.121   1.775   1.796 -0.2534 -0.1237  0.4216
 2938TIP3    H130449   5.032   1.799   1.771 -0.2758 -2.0638 -1.7474
 2938TIP3    H230450   5.177   1.831   1.743 -0.2578 -0.8536 -0.3861
 2939TIP3   OH230451   1.421   0.882   8.008 -0.5980 -0.0740 -0.1422
 2939TIP3    H130452   1.374   0.909   8.087  0.3951 -0.0556  0.4645
 2939TIP3    H230453   1.422   0.787   8.011  0.4968 -0.0577  0.5331
 2940TIP3   OH230454   5.434   3.298   7.206 -0.2725 -0.2096  0.3114
 2940TIP3    H130455   5.380   3.269   7.279  0.6148  0.4680  1.2549
 2940TIP3    H230456   5.431   3.393   7.211  0.4352 -0.1662 -0.0696
 2941TIP3   OH230457   6.459   3.402   0.433 -0.1967 -0.1507  0.5870
 2941TIP3    H130458   6.465   3.345   0.357  0.0388 -1.4904  1.5660
 2941TIP3    H230459   6.549   3.409   0.465 -0.4195 -0.4188  1.2983
 2942TIP3   OH230460   3.858   1.900   8.494  0.7534  0.0499  0.0611
 2942TIP3    H130461   3.811   1.844   8.432 -1.3268 -0.8183  2.2449
 2942TIP3    H230462   3.943   1.858   8.506 -0.1574 -1.8027  0.4149
 2943TIP3   OH230463   2.990   2.227   1.160  0.3701 -0.0769 -0.4621
 2943TIP3    H130464   3.057   2.166   1.190  0.2546  0.3192  0.6590
 2943TIP3    H230465   2.957   2.268   1.240  2.6087  3.7819 -1.2684
 2944TIP3   OH230466   6.526   1.230   1.750 -0.1990 -0.5361  0.0166
 2944TIP3    H130467   6.473   1.310   1.746 -0.6671 -0.8873 -1.2871
 2944TIP3    H230468   6.612   1.260   1.781 -0.0126  0.6883 -1.5543
 2945TIP3   OH230469   3.911   3.069   1.727  0.2064  0.1226  0.0121
 2945TIP3    H130470   3.977   3.118   1.678 -0.4256  1.0297  0.0512
 2945TIP3    H230471   3.891   3.125   1.803  0.3637 -0.7542  0.7185
 2946TIP3   OH230472   3.424   4.787   6.555  0.2150 -0.9213  0.0164
 2946TIP3    H130473   3.434   4.725   6.482  1.0128 -2.3196  1.2572
 2946TIP3    H230474   3.410   4.732   6.632 -1.2764  0.5446  0.8489
 2947TIP3   OH230475   5.891   4.545   6.553 -0.2111  0.4117 -0.3061
 2947TIP3    H130476   5.846   4.531   6.469 -0.3879  1.3914 -0.3933
 2947TIP3    H230477   5.895   4.640   6.562 -2.9732  0.4359  2.2319
 2948TIP3   OH230478   5.617   4.211   1.919 -0.2604  0.5088  0.3288
 2948TIP3    H130479   5.595   4.187   2.009 -0.6133  2.6649  0.8630
 2948TIP3    H230480   5.695   4.267   1.927  0.3388 -0.1171 -0.8212
 2949TIP3   OH230481   1.701   1.537   8.346  0.3749 -0.1556  0.1064
 2949TIP3    H130482   1.669   1.551   8.435 -1.1727  1.4264 -0.6494
 2949TIP3    H230483   1.695   1.442   8.333  1.6745 -0.5659  2.0158
 2950TIP3   OH230484   1.519   2.400   1.133 -0.6346  0.2324  0.2414
 2950TIP3    H130485   1.530   2.437   1.220 -0.3192  0.4875  0.0949
 2950TIP3    H230486   1.596   2.430   1.084  0.9419 -2.5693  0.7699
 2951TIP3   OH230487   4.743   0.888   8.502  0.0320 -0.9811  0.3630
 2951TIP3    H130488   4.787   0.926   8.579 -1.7145  2.5148 -0.1582
 2951TIP3    H230489   4.669   0.840   8.539 -0.5336  0.2898  0.9732
 2952TIP3   OH230490   2.686   0.296   0.844 -0.6778  0.1529  0.1810
 2952TIP3    H130491   2.685   0.366   0.909 -1.8274 -1.0506  1.5501
 2952TIP3    H230492   2.767   0.309   0.795 -1.0648  2.6698  0.0734
 2953TIP3   OH230493   3.629   4.367   8.683  0.5992 -0.1501  0.0312
 2953TIP3    H130494   3.611   4.284   8.728  0.0369  0.0046  0.1006
 2953TIP3    H230495   3.646   4.341   8.592 -0.1759 -0.2894 -0.0786
 2954TIP3   OH230496   2.767   5.316   6.615  0.6307 -0.3242 -0.8725
 2954TIP3    H130497   2.759   5.318   6.710 -0.2218  0.7704 -0.9579
 2954TIP3    H230498   2.843   5.259   6.599  1.5248  0.4311  0.5011
 2955TIP3   OH230499   2.200   2.765   2.459  0.4865 -0.2343 -0.0748
 2955TIP3    H130500   2.119   2.786   2.505  0.5100  0.8559 -0.4988
 2955TIP3    H230501   2.175   2.695   2.398 -0.3251  0.5683 -0.6977
 2956TIP3   OH230502   4.328   6.460   6.899  0.3919 -0.3766 -0.2305
 2956TIP3    H130503   4.249   6.448   6.847 -1.5897  4.4925  1.0835
 2956TIP3    H230504   4.393   6.495   6.837  0.4113 -1.1200 -0.6451
 2957TIP3   OH230505   5.294   2.242   6.523 -0.4547  0.3508 -0.5854
 2957TIP3    H130506   5.208   2.213   6.494  0.2002 -1.3573 -0.9864
 2957TIP3    H230507   5.354   2.177   6.487  0.8647  0.7424  0.7791
 2958TIP3   OH230508   4.223   3.566   7.689 -0.0051  0.2246  0.1132
 2958TIP3    H130509   4.143   3.559   7.741  0.0196 -0.0291  0.1183
 2958TIP3    H230510   4.294   3.562   7.754  0.0306 -0.2757  0.0451
 2959TIP3   OH230511   6.170   1.056   6.302  0.3438 -0.5678  0.1934
 2959TIP3    H130512   6.113   1.104   6.242  0.8855  0.3325  0.3886
 2959TIP3    H230513   6.224   1.002   6.245  0.7382  0.1536 -0.1329
 2960TIP3   OH230514   4.710   4.829   1.430  0.1090  0.0578 -0.0218
 2960TIP3    H130515   4.737   4.917   1.403  0.4232 -0.7475 -2.5588
 2960TIP3    H230516   4.788   4.775   1.419 -0.3945 -0.7855  0.3932
 2961TIP3   OH230517   2.656   4.317   7.364 -0.0708  0.3400  0.4663
 2961TIP3    H130518   2.622   4.274   7.286  0.1316 -0.7435  0.9501
 2961TIP3    H230519   2.727   4.259   7.394  3.0313  3.0080 -1.1071
 2962TIP3   OH230520   5.734   0.552   8.120 -0.1521  0.2433  0.1327
 2962TIP3    H130521   5.798   0.501   8.070  0.0802  0.6129  0.0469
 2962TIP3    H230522   5.736   0.639   8.080 -0.2863  0.4184  0.5026
 2963TIP3   OH230523   6.287   2.009   8.719  0.3377  0.4621  0.1530
 2963TIP3    H130524   6.326   1.962   8.645 -2.8494  0.7904 -1.9605
 2963TIP3    H230525   6.229   1.945   8.760  0.1305  0.9960  0.7082
 2964TIP3   OH230526   1.350   1.943   1.459 -0.7513 -0.0294 -0.3345
 2964TIP3    H130527   1.377   2.027   1.423 -0.8222  0.0640 -0.1711
 2964TIP3    H230528   1.255   1.945   1.456 -0.7394 -0.5480 -1.3431
 2965TIP3   OH230529   6.245   2.287   7.932 -0.2163 -0.2792 -0.1147
 2965TIP3    H130530   6.223   2.287   7.839 -1.7428 -0.5038  0.2086
 2965TIP3    H230531   6.180   2.229   7.972 -0.2915  0.6772  1.2355
 2966TIP3   OH230532   5.963   4.582   0.116 -0.3435 -0.1442  0.6325
 2966TIP3    H130533   5.985   4.517   0.183  2.2063  0.7074  0.7159
 2966TIP3    H230534   5.926   4.655   0.165  1.7082  0.5628  1.2135
 2967TIP3   OH230535   1.502   0.329   7.393 -0.3088  0.5092 -0.0810
 2967TIP3    H130536   1.476   0.277   7.469  1.9114 -0.7326 -0.0743
 2967TIP3    H230537   1.572   0.385   7.425  1.3899 -0.7704 -1.3545
 2968TIP3   OH230538   1.645   2.591   8.390  0.2650 -0.3771  0.0090
 2968TIP3    H130539   1.640   2.664   8.328 -0.2461 -0.1819  0.2675
 2968TIP3    H230540   1.606   2.626   8.470 -0.8236 -1.2118 -0.1327
 2969TIP3   OH230541   1.257   4.629   7.313  0.0659 -0.4340  0.3771
 2969TIP3    H130542   1.211   4.580   7.380  0.3270 -0.5893  0.4448
 2969TIP3    H230543   1.330   4.573   7.288  1.0889  0.4246  1.3243
 2970TIP3   OH230544   2.734   2.619   0.718 -0.2244 -0.1493 -0.2569
 2970TIP3    H130545   2.793   2.675   0.668 -0.3610  0.5837  0.3700
 2970TIP3    H230546   2.678   2.578   0.652  1.5491 -1.5973 -0.9463
 2971TIP3   OH230547   4.973   3.929   6.601 -0.0782 -0.0248 -0.3634
 2971TIP3    H130548   5.049   3.911   6.545  0.1485 -1.6037  0.4084
 2971TIP3    H230549   4.901   3.882   6.561  0.2894 -1.9813  1.0967
 2972TIP3   OH230550   4.409   2.882   8.492 -0.1826 -0.1139 -0.3060
 2972TIP3    H130551   4.482   2.829   8.524  0.4938 -0.2190 -1.9299
 2972TIP3    H230552   4.451   2.953   8.444 -1.1009  1.5023  1.1744
 2973TIP3   OH230553   5.532   4.174   7.122 -0.4350  0.2673  0.5397
 2973TIP3    H130554   5.581   4.234   7.178  0.4478  0.7519 -0.6930
 2973TIP3    H230555   5.584   4.170   7.041 -0.8219 -1.6488  0.3383
 2974TIP3   OH230556   1.891   1.836   0.588  0.8398  0.2792  0.1501
 2974TIP3    H130557   1.908   1.783   0.665 -0.0391 -1.7487 -0.9678
 2974TIP3    H230558   1.879   1.773   0.517  2.1623  2.0676 -1.8025
 2975TIP3   OH230559   1.400   0.600   8.016 -0.0909  0.3755  0.4556
 2975TIP3    H130560   1.494   0.611   8.029  0.3266 -0.8806 -1.0898
 2975TIP3    H230561   1.391   0.509   7.988 -1.9535  0.0585  1.9440
 2976TIP3   OH230562   6.349   6.744   1.963  0.5222  0.0741 -0.3474
 2976TIP3    H130563   6.287   6.671   1.961  0.1043  0.4046  0.3015
 2976TIP3    H230564   6.377   6.754   1.872  0.2841 -0.6340 -0.5081
 2977TIP3   OH230565   3.631   5.282   0.252 -0.1289 -0.2040  0.1543
 2977TIP3    H130566   3.612   5.321   0.167  1.3330  0.7767  0.2374
 2977TIP3    H230567   3.703   5.221   0.236 -0.0069 -0.1965  0.6329
 2978TIP3   OH230568   1.681   4.595   0.859  0.0360 -0.2470 -0.2874
 2978TIP3    H130569   1.754   4.645   0.896 -0.1104  0.1853 -0.5650
 2978TIP3    H230570   1.631   4.660   0.808 -0.7296 -0.4576  0.1733
 2979TIP3   OH230571   1.883   1.813   2.167  0.2625 -0.1557 -1.2579
 2979TIP3    H130572   1.932   1.893   2.183  1.8813 -1.2127 -0.7022
 2979TIP3    H230573   1.950   1.746   2.150 -1.0527 -1.2757 -2.3151
 2980TIP3   OH230574   5.360   1.257   7.256 -0.5546 -0.6422 -0.6381
 2980TIP3    H130575   5.418   1.216   7.192  1.2587 -1.1948  1.2478
 2980TIP3    H230576   5.291   1.297   7.203  1.1202 -0.5948 -2.9566
 2981TIP3   OH230577   0.160   0.280   7.799  0.3318  0.0504  0.3329
 2981TIP3    H130578   0.227   0.348   7.802  0.5586 -0.1974  1.1633
 2981TIP3    H230579   0.101   0.307   7.728  0.6750  0.8632  0.3472
 2982TIP3   OH230580   4.241   6.811   2.184 -0.2876  0.0902 -0.2507
 2982TIP3    H130581   4.336   6.820   2.175 -0.2501 -1.1218 -1.5161
 2982TIP3    H230582   4.228   6.718   2.202 -1.3474 -0.2461 -2.4899
 2983TIP3   OH230583   1.252   1.986   0.776  0.4541 -0.2000  0.4676
 2983TIP3    H130584   1.247   2.080   0.761  0.0506 -0.3623 -0.4354
 2983TIP3    H230585   1.341   1.962   0.748 -0.0934 -0.4013 -1.1764
 2984TIP3   OH230586   0.871   5.229   1.988  0.7580  0.8092  0.5100
 2984TIP3    H130587   0.945   5.239   2.048  0.9099  0.5316  0.3706
 2984TIP3    H230588   0.809   5.296   2.015  1.7793  2.1970 -0.4649
 2985TIP3   OH230589   0.266   0.878   2.083 -0.2503 -0.4719  0.1306
 2985TIP3    H130590   0.340   0.916   2.038  0.4566 -1.7860  0.1323
 2985TIP3    H230591   0.261   0.926   2.166  0.2094  0.0272 -0.1231
 2986TIP3   OH230592   0.132   1.293   2.026 -0.1196  0.1994 -0.3827
 2986TIP3    H130593   0.187   1.272   1.951  0.1090  1.7567 -0.6858
 2986TIP3    H230594   0.192   1.329   2.091 -0.5618  0.5605 -0.1650
 2987TIP3   OH230595   6.364   6.126   1.217  0.8719 -0.2366 -0.0455
 2987TIP3    H130596   6.454   6.098   1.202  0.6739 -0.7665 -0.2530
 2987TIP3    H230597   6.313   6.083   1.149  0.1861 -1.4305  1.1665
 2988TIP3   OH230598   0.956   5.548   0.104 -0.4199  0.3936 -0.0465
 2988TIP3    H130599   0.977   5.634   0.067  2.0380  1.5949  3.5484
 2988TIP3    H230600   0.963   5.561   0.199 -1.0337 -3.5696  0.7102
 2989TIP3   OH230601   6.346   6.715   0.885  0.1525  0.6688 -0.9854
 2989TIP3    H130602   6.328   6.800   0.846 -0.6566  0.3457 -1.3497
 2989TIP3    H230603   6.438   6.718   0.910  0.3440  1.3542 -1.7468
 2990TIP3   OH230604   4.864   2.864   6.448 -0.1111  0.0767  0.6145
 2990TIP3    H130605   4.891   2.929   6.514 -0.6019 -0.3456  1.2439
 2990TIP3    H230606   4.769   2.868   6.449 -0.1270  0.1490 -0.1749
 2991TIP3   OH230607   6.554   0.033   1.289 -0.3735 -0.1796  0.6224
 2991TIP3    H130608   6.573  -0.055   1.256 -0.2196 -0.3287  1.1080
 2991TIP3    H230609   6.461   0.030   1.310 -0.8588  0.3942 -1.2695
 2992TIP3   OH230610   5.971   2.313   7.103 -0.3770 -0.0207  0.3891
 2992TIP3    H130611   6.038   2.371   7.066 -0.7534  0.0525 -0.1860
 2992TIP3    H230612   5.902   2.310   7.037 -0.1799 -1.4755  0.2095
 2993TIP3   OH230613   4.828   3.635   8.221 -0.5393  0.1260  0.0534
 2993TIP3    H130614   4.867   3.548   8.230 -0.6840 -0.2242 -2.1636
 2993TIP3    H230615   4.902   3.695   8.220 -0.2286 -0.2504 -1.0866
 2994TIP3   OH230616   1.529   0.234   8.001  0.3962  0.2157  0.8117
 2994TIP3    H130617   1.576   0.153   7.981  1.0306  0.4870  1.1908
 2994TIP3    H230618   1.592   0.304   7.984  0.4092  0.5402  2.0972
 2995TIP3   OH230619   1.212   2.023   6.621 -0.2698 -0.1612  0.4694
 2995TIP3    H130620   1.205   2.116   6.601  1.8702 -0.3594 -1.5873
 2995TIP3    H230621   1.282   2.018   6.687 -0.3619 -0.3239  0.5559
 2996TIP3   OH230622   3.565   5.564   2.545  0.1017 -0.0282 -0.3888
 2996TIP3    H130623   3.498   5.632   2.549 -0.8203 -0.8709 -0.8360
 2996TIP3    H230624   3.630   5.589   2.610  0.0543  1.5450 -0.9045
 2997TIP3   OH230625   4.417   0.532   0.165  0.3693 -0.4246  0.6266
 2997TIP3    H130626   4.376   0.446   0.176  1.2522 -0.6816  2.1567
 2997TIP3    H230627   4.496   0.513   0.113  0.5701 -0.5497  0.9727
 2998TIP3   OH230628   5.768   0.793   1.810  0.4784 -0.1764  0.3166
 2998TIP3    H130629   5.676   0.801   1.833 -0.2826 -0.4135 -2.2666
 2998TIP3    H230630   5.769   0.795   1.714  3.4262  2.5911  0.2401
 2999TIP3   OH230631   3.100   1.657   0.706 -0.4369  0.1768  0.0764
 2999TIP3    H130632   3.044   1.645   0.629 -0.2990 -0.2325  0.0407
 2999TIP3    H230633   3.045   1.629   0.779 -0.0264 -0.9511 -0.0326
 3000TIP3   OH230634   1.821   4.305   1.079 -0.2275  0.2514  0.1632
 3000TIP3    H130635   1.778   4.314   0.993 -1.1130  1.8325  0.7291
 3000TIP3    H230636   1.910   4.334   1.064  0.1720 -1.2366 -0.6002
 3001TIP3   OH230637   5.085   1.586   8.599  0.3843  0.2251  0.4739
 3001TIP3    H130638   5.129   1.628   8.526  2.5247 -2.1462  0.2814
 3001TIP3    H230639   5.084   1.653   8.668 -0.6114  2.0878 -1.2634
 3002TIP3   OH230640   4.369   5.734   1.808 -0.0896 -0.1672 -0.1378
 3002TIP3    H130641   4.290   5.697   1.848 -0.1276 -0.5763 -0.5687
 3002TIP3    H230642   4.349   5.827   1.795 -0.9688 -0.4847 -1.2999
 3003TIP3   OH230643   2.127   4.440   2.077 -0.7006  0.5690  0.2040
 3003TIP3    H130644   2.127   4.366   2.138 -0.6586 -1.1583 -1.7780
 3003TIP3    H230645   2.118   4.517   2.133  1.5781 -0.7277  2.5717
 3004TIP3   OH230646   2.346   0.277   8.062  0.1918  0.3121  0.0267
 3004TIP3    H130647   2.316   0.241   8.146 -2.7979  2.2131 -0.1040
 3004TIP3    H230648   2.297   0.228   7.996 -0.1167  1.2016 -0.4135
 3005TIP3   OH230649   2.784   2.979   7.696  0.0016  0.0562 -0.1579
 3005TIP3    H130650   2.869   2.940   7.679 -1.1952 -2.4825 -0.7610
 3005TIP3    H230651   2.771   2.971   7.790  0.7621  1.2824  0.0728
 3006TIP3   OH230652   6.850   4.464   8.359 -0.0763  0.3782 -0.0274
 3006TIP3    H130653   6.780   4.485   8.421 -0.0357 -0.8548  0.4554
 3006TIP3    H230654   6.912   4.537   8.368 -1.7545  2.0619 -1.2379
 3007TIP3   OH230655   6.095   4.733   0.533 -0.4646  0.3720  0.1467
 3007TIP3    H130656   6.010   4.774   0.550 -1.1312  0.5532 -3.1095
 3007TIP3    H230657   6.123   4.701   0.619 -3.9490  0.0484  1.3213
 3008TIP3   OH230658   6.491   3.080   6.595 -0.0476 -0.2125  0.0695
 3008TIP3    H130659   6.449   3.166   6.594 -0.7288 -0.5414 -0.0085
 3008TIP3    H230660   6.574   3.093   6.549 -0.4903  0.2247 -0.6201
 3009TIP3   OH230661   6.377   3.156   1.630 -0.0121  0.5669 -0.7756
 3009TIP3    H130662   6.335   3.212   1.695  1.0230 -1.1331  1.5365
 3009TIP3    H230663   6.312   3.089   1.609  0.1395  0.2697 -0.3180
 3010TIP3   OH230664   6.254   0.343   1.346 -0.1305 -0.3772  0.6483
 3010TIP3    H130665   6.160   0.358   1.350  0.1305  1.5764  0.5959
 3010TIP3    H230666   6.282   0.343   1.438  0.2272  2.5758  0.6426
 3011TIP3   OH230667   0.234   5.758   1.121  0.2110  0.0504 -0.6497
 3011TIP3    H130668   0.196   5.810   1.051 -1.4375 -0.3082 -0.0505
 3011TIP3    H230669   0.235   5.668   1.088 -1.1792 -0.2272 -0.0139
 3012TIP3   OH230670   4.399   3.174   6.611  0.0209  0.8415  0.6941
 3012TIP3    H130671   4.481   3.173   6.562  0.1873 -1.2853  0.9146
 3012TIP3    H230672   4.425   3.189   6.702  0.1724  0.2045  0.7586
 3013TIP3   OH230673   5.345   2.453   1.655 -0.1220 -0.3655  0.1364
 3013TIP3    H130674   5.435   2.460   1.686 -0.2250  0.5016  0.2497
 3013TIP3    H230675   5.292   2.454   1.735 -0.4213  2.3311 -0.0060
 3014TIP3   OH230676   2.716   5.565   0.518  0.3561 -0.3678  0.3069
 3014TIP3    H130677   2.647   5.630   0.514  0.0897 -0.6833 -0.2428
 3014TIP3    H230678   2.792   5.613   0.552 -0.3284 -0.1957  1.6523
 3015TIP3   OH230679   2.463   6.037   7.821  0.0546 -0.1022  0.1030
 3015TIP3    H130680   2.556   6.057   7.834 -0.0923  0.0379  1.0026
 3015TIP3    H230681   2.461   5.946   7.793  0.5026  0.0657 -0.4770
 3016TIP3   OH230682   2.274   5.228   1.919 -1.0036 -0.2442  0.3556
 3016TIP3    H130683   2.292   5.233   1.825  0.3943 -1.7073  0.5098
 3016TIP3    H230684   2.277   5.135   1.940  1.0971  0.1585  2.2679
 3017TIP3   OH230685   0.072   3.155   1.516 -0.1405 -0.2005 -0.2969
 3017TIP3    H130686   0.020   3.094   1.568 -0.4646 -0.3974 -0.8383
 3017TIP3    H230687   0.115   3.212   1.580  0.9566 -1.6139  0.2951
 3018TIP3   OH230688   6.204   4.822   0.194  0.0770 -0.2712 -0.2125
 3018TIP3    H130689   6.249   4.748   0.153  2.1361  0.0957  1.2126
 3018TIP3    H230690   6.135   4.782   0.246  0.3564 -1.0965 -0.4532
 3019TIP3   OH230691   6.748   2.434   7.942 -0.0619  0.3637 -0.1886
 3019TIP3    H130692   6.653   2.431   7.930  0.0968  1.3619 -1.9465
 3019TIP3    H230693   6.779   2.349   7.912 -0.5981 -1.2172  3.2675
 3020TIP3   OH230694   2.713   0.773   8.436 -0.4462  0.3275 -0.3255
 3020TIP3    H130695   2.758   0.717   8.372  0.2923 -0.0997  0.5423
 3020TIP3    H230696   2.757   0.754   8.519 -0.3690  1.9797  0.0477
 3021TIP3   OH230697   0.038   6.100   0.051  0.0260 -0.8596 -0.9122
 3021TIP3    H130698   0.008   6.108  -0.039 -0.1263 -1.2146 -0.8947
 3021TIP3    H230699  -0.001   6.018   0.082  3.7427 -3.3172 -1.9985
 3022TIP3   OH230700   5.828   6.682   1.038  0.9922  0.1072 -0.2480
 3022TIP3    H130701   5.924   6.686   1.037  1.0682 -1.1562 -1.6811
 3022TIP3    H230702   5.801   6.763   1.081  2.7210 -0.2309  1.5794
 3023TIP3   OH230703   1.016   0.061   1.637 -0.0708 -0.0990  0.0396
 3023TIP3    H130704   1.110   0.071   1.645 -0.0646 -1.4724  2.4433
 3023TIP3    H230705   0.980   0.124   1.700 -0.6666 -0.8980  0.5151
 3024TIP3   OH230706   5.865   2.044   8.122  0.1534  0.2627 -0.0918
 3024TIP3    H130707   5.947   2.016   8.081 -0.4129 -0.6335 -0.6530
 3024TIP3    H230708   5.892   2.089   8.202  1.2038  0.3863 -0.4972
 3025TIP3   OH230709   1.914   6.321   1.102 -0.4188  0.7608  0.7845
 3025TIP3    H130710   1.927   6.271   1.022 -0.4098  0.3913  1.0162
 3025TIP3    H230711   1.821   6.312   1.121 -0.4397  0.9286  0.7637
 3026TIP3   OH230712   3.810   2.474   7.237  0.5199 -0.3327 -0.2674
 3026TIP3    H130713   3.784   2.469   7.329 -0.7777  0.0362 -0.5962
 3026TIP3    H230714   3.888   2.529   7.237 -0.2453  0.7802  0.4811
 3027TIP3   OH230715   5.769   4.562   1.534  0.0564 -0.4850 -0.4694
 3027TIP3    H130716   5.732   4.477   1.555  3.0486 -1.7694  0.0621
 3027TIP3    H230717   5.810   4.551   1.449  0.1629  0.5407 -0.5738
 3028TIP3   OH230718   4.224   4.427   1.069  0.1912  0.3502 -0.3689
 3028TIP3    H130719   4.293   4.397   1.011  2.1267  4.2926 -0.4435
 3028TIP3    H230720   4.155   4.459   1.010 -0.3226 -0.6392 -0.3311
 3029TIP3   OH230721   5.935   1.607   0.292  0.1221 -0.0334 -0.3188
 3029TIP3    H130722   5.996   1.547   0.250  0.8669  1.2072 -1.0682
 3029TIP3    H230723   5.902   1.559   0.368 -0.0124 -1.7215 -1.3936
 3030TIP3   OH230724   6.852   0.371   8.004 -0.6447  0.2261  0.1022
 3030TIP3    H130725   6.885   0.392   7.917  1.7464 -0.7343  0.7111
 3030TIP3    H230726   6.794   0.296   7.991 -0.1486 -0.0324 -0.6276
 3031TIP3   OH230727   5.260   4.633   7.901 -0.1318  0.0793  0.9060
 3031TIP3    H130728   5.259   4.594   7.989  0.5790 -0.7398  0.5681
 3031TIP3    H230729   5.248   4.727   7.917  0.0667 -0.0434  1.8918
 3032TIP3   OH230730   1.794   6.552   1.946 -0.1298  0.2282  0.1202
 3032TIP3    H130731   1.701   6.571   1.936 -0.5135 -0.4499  1.9910
 3032TIP3    H230732   1.817   6.589   2.031  1.1594 -0.1638 -0.0405
 3033TIP3   OH230733   2.000   4.122   7.316 -0.2736  0.6156  0.2885
 3033TIP3    H130734   2.069   4.112   7.250  0.0373  0.0105  0.6993
 3033TIP3    H230735   1.934   4.176   7.273 -1.0432 -1.4395 -1.3218
 3034TIP3   OH230736   0.641   5.946   0.253  0.2592  0.7694 -0.4134
 3034TIP3    H130737   0.573   5.992   0.302  0.5710 -0.2256  1.0368
 3034TIP3    H230738   0.610   5.947   0.163 -0.3047  2.7429 -0.2368
 3035TIP3   OH230739   4.646   3.938   0.950 -0.3468 -0.2647 -0.3154
 3035TIP3    H130740   4.645   4.015   0.892 -0.4832 -0.2148 -0.2466
 3035TIP3    H230741   4.737   3.909   0.948  0.1437  1.0392  1.1771
 3036TIP3   OH230742   4.267   6.449   0.289 -0.0805  0.3004 -0.5966
 3036TIP3    H130743   4.233   6.371   0.244 -0.9851  0.8096 -0.8338
 3036TIP3    H230744   4.349   6.420   0.327 -1.0017 -1.1404  0.4240
 3037TIP3   OH230745   3.326   0.650   8.551 -0.2024  0.3472  0.3537
 3037TIP3    H130746   3.389   0.584   8.522 -0.0842  0.7728 -0.3766
 3037TIP3    H230747   3.248   0.599   8.573  0.1936 -0.1227  0.6873
 3038TIP3   OH230748   2.977   1.012   6.873 -0.1130  0.3901 -0.6304
 3038TIP3    H130749   2.898   1.058   6.901  0.8344  1.5996  0.1753
 3038TIP3    H230750   2.996   1.045   6.785 -1.5671 -1.3825 -1.6769
 3039TIP3   OH230751   3.647   1.416   8.250  0.4579  0.1424 -0.2793
 3039TIP3    H130752   3.602   1.416   8.335  0.1137  0.2874 -0.4647
 3039TIP3    H230753   3.737   1.440   8.272  0.8142 -1.5384  0.2892
 3040TIP3   OH230754   1.074   1.068   6.824 -0.3033 -0.0160  0.6086
 3040TIP3    H130755   1.120   1.066   6.739  0.4715  1.1189  0.9848
 3040TIP3    H230756   0.987   1.034   6.804  1.0600 -3.6958  0.1346
 3041TIP3   OH230757   2.780   6.845   1.588 -0.3971  0.4202 -0.4124
 3041TIP3    H130758   2.772   6.785   1.662  1.5722  1.5953  0.8628
 3041TIP3    H230759   2.730   6.805   1.518 -1.2475 -1.4027  1.1675
 3042TIP3   OH230760   0.636   2.073   8.245  0.0054 -0.5366  0.0165
 3042TIP3    H130761   0.726   2.106   8.243 -0.8735  2.1999  0.8483
 3042TIP3    H230762   0.614   2.058   8.153  0.0873  2.6658 -0.6279
 3043TIP3   OH230763   3.637   1.734   1.677 -0.6324  0.5071  0.1237
 3043TIP3    H130764   3.626   1.674   1.603  0.5871  0.6080 -0.1584
 3043TIP3    H230765   3.549   1.768   1.693 -0.7668  1.3192 -2.0020
 3044TIP3   OH230766   2.537   0.375   1.781 -0.0147 -0.3062  0.1099
 3044TIP3    H130767   2.603   0.321   1.739 -0.6787 -0.8446 -0.2499
 3044TIP3    H230768   2.463   0.375   1.721 -0.2556  0.4951  0.3915
 3045TIP3   OH230769   5.979   6.250   0.806 -0.2495 -0.2891  0.4606
 3045TIP3    H130770   5.917   6.320   0.783  0.1319  0.6827  2.2237
 3045TIP3    H230771   6.044   6.293   0.862  1.6984 -1.4079 -0.8025
 3046TIP3   OH230772   0.067   5.169   8.410 -0.1288  0.2463  0.7230
 3046TIP3    H130773   0.003   5.195   8.344 -0.7417  0.2089  1.2764
 3046TIP3    H230774   0.151   5.195   8.375 -0.3325 -0.6488 -0.5056
 3047TIP3   OH230775   0.752   5.861   1.553 -0.2721 -0.4257  0.0368
 3047TIP3    H130776   0.838   5.836   1.587 -0.7970  0.6927  2.4464
 3047TIP3    H230777   0.740   5.951   1.585 -1.1794  0.4971 -2.6500
 3048TIP3   OH230778   5.176   3.806   0.124 -0.0068 -0.1673  0.1480
 3048TIP3    H130779   5.194   3.759   0.042 -1.3171  1.3830 -1.0797
 3048TIP3    H230780   5.187   3.739   0.192  1.1097 -1.5028 -1.2579
 3049TIP3   OH230781   0.175   2.572   8.745 -0.4164  0.1514 -0.3057
 3049TIP3    H130782   0.219   2.490   8.721 -1.0085 -0.2040 -0.1953
 3049TIP3    H230783   0.246   2.631   8.771 -0.0487 -0.6267  0.5082
 3050TIP3   OH230784   6.791   5.880   0.189 -0.1100 -0.4558 -0.2954
 3050TIP3    H130785   6.752   5.793   0.201 -0.5045 -0.2580 -0.1304
 3050TIP3    H230786   6.837   5.897   0.272  0.4876 -0.7618 -0.5522
 3051TIP3   OH230787   5.879   2.828   0.920  0.1362  0.1428 -0.4894
 3051TIP3    H130788   5.939   2.782   0.979  2.3380  1.9547 -1.2181
 3051TIP3    H230789   5.926   2.906   0.893 -2.4786  1.5406 -1.3374
 3052TIP3   OH230790   0.615   4.837   6.708  0.4514  0.1141 -0.5122
 3052TIP3    H130791   0.548   4.809   6.770 -0.7620 -1.0046 -2.2394
 3052TIP3    H230792   0.586   4.923   6.678  1.1073  0.7142  0.5153
 3053TIP3   OH230793   2.075   5.169   7.713 -0.3650  0.1959  0.4719
 3053TIP3    H130794   2.044   5.095   7.765  1.0533  0.6695  2.0766
 3053TIP3    H230795   1.995   5.209   7.678 -1.1485 -2.4877 -1.0972
 3054TIP3   OH230796   4.480   0.821   8.290 -0.7124  0.0862 -1.0545
 3054TIP3    H130797   4.506   0.792   8.202 -0.7252  0.8271 -1.3092
 3054TIP3    H230798   4.451   0.911   8.277  0.4113  0.5977 -0.0701
 3055TIP3   OH230799   2.418   2.853   8.042 -0.0243 -0.0263 -0.3685
 3055TIP3    H130800   2.443   2.939   8.009 -1.1414  0.0956 -0.9267
 3055TIP3    H230801   2.322   2.856   8.049  0.0453 -0.5573  1.4691
 3056TIP3   OH230802   0.609   4.821   1.715  0.4155 -0.0022 -0.0897
 3056TIP3    H130803   0.519   4.854   1.713  0.1365 -0.7424 -0.0067
 3056TIP3    H230804   0.654   4.879   1.777 -0.6115 -1.1053  1.8032
 3057TIP3   OH230805   5.728   2.761   2.532 -0.0458  0.2532 -0.0679
 3057TIP3    H130806   5.796   2.799   2.476  0.0456 -1.6057 -1.3295
 3057TIP3    H230807   5.699   2.683   2.484 -2.1556  0.2656  1.0628
 3058TIP3   OH230808   1.994   6.173   0.394  0.3142  0.6623  0.1556
 3058TIP3    H130809   2.022   6.125   0.471 -0.2149  1.4648  0.8679
 3058TIP3    H230810   1.914   6.129   0.365  0.5015  0.3754  0.0663
 3059TIP3   OH230811   2.662   5.991   0.859  0.0068  0.2462 -0.0484
 3059TIP3    H130812   2.694   5.902   0.870 -1.2094  0.0456  2.9292
 3059TIP3    H230813   2.567   5.984   0.862 -0.1346  1.7640  3.0848
 3060TIP3   OH230814   5.255   3.615   0.314  0.0889  0.1059 -0.0805
 3060TIP3    H130815   5.299   3.554   0.255  1.4526  1.2949 -0.3382
 3060TIP3    H230816   5.215   3.559   0.381  0.9538 -1.0915 -0.5354
 3061TIP3   OH230817   6.549   4.715   6.651  0.0851  0.1044  0.2759
 3061TIP3    H130818   6.564   4.661   6.573 -1.1800 -0.9386  0.7016
 3061TIP3    H230819   6.634   4.721   6.693  0.9139  1.1724 -1.4695
 3062TIP3   OH230820   5.008   4.659   1.597 -0.1543  0.1750  0.2148
 3062TIP3    H130821   4.981   4.574   1.633  0.0294 -0.8940 -2.0203
 3062TIP3    H230822   4.973   4.659   1.508  0.7854  2.0031 -0.1811
 3063TIP3   OH230823   4.477   0.715   0.424 -0.1686 -0.0041 -0.0244
 3063TIP3    H130824   4.553   0.772   0.409 -0.1893  0.2407  0.7222
 3063TIP3    H230825   4.488   0.643   0.362  0.2128  0.4730 -0.5229
 3064TIP3   OH230826   1.824   2.859   7.661  0.2656  0.1131  0.1238
 3064TIP3    H130827   1.856   2.949   7.646  1.8602 -0.4162  0.0979
 3064TIP3    H230828   1.779   2.836   7.580 -0.8098  1.1271  0.4024
 3065TIP3   OH230829   4.288   0.343   1.567  0.1095 -0.0893  0.4752
 3065TIP3    H130830   4.292   0.320   1.660 -1.0340 -0.4464  0.4525
 3065TIP3    H230831   4.269   0.437   1.567  0.7868  0.0506  0.5945
 3066TIP3   OH230832   0.876   6.724   1.179  0.1302 -0.0278 -0.3029
 3066TIP3    H130833   0.854   6.805   1.132  0.6210 -0.4414 -1.2818
 3066TIP3    H230834   0.791   6.681   1.194 -0.2243  1.0910  1.0597
 3067TIP3   OH230835   1.416   0.923   6.940  0.2053 -0.2185 -0.1026
 3067TIP3    H130836   1.416   1.003   6.992  0.5387  0.6769 -1.4074
 3067TIP3    H230837   1.508   0.906   6.922  0.1872 -1.3548  0.8085
 3068TIP3   OH230838   5.912   6.171   1.549  0.1622 -0.0845 -0.3797
 3068TIP3    H130839   5.928   6.095   1.493  0.8459  0.3861 -0.8389
 3068TIP3    H230840   5.891   6.241   1.488 -1.4435 -0.1238  0.0919
 3069TIP3   OH230841   5.645   4.928   8.408  0.4236  0.1209  0.1098
 3069TIP3    H130842   5.699   4.987   8.461 -0.4521 -0.2846  1.5267
 3069TIP3    H230843   5.637   4.850   8.462 -0.4821 -0.3215 -0.6551
 3070TIP3   OH230844   2.793   0.353   2.477  0.0947  0.6917  0.0030
 3070TIP3    H130845   2.726   0.290   2.504 -1.0142  0.7915 -2.2773
 3070TIP3    H230846   2.858   0.301   2.429 -0.6797  1.1871 -1.6459
 3071TIP3   OH230847   2.657   2.771   7.884  0.2694  0.2531 -0.5288
 3071TIP3    H130848   2.605   2.827   7.941  1.2799  1.2574 -0.5399
 3071TIP3    H230849   2.746   2.780   7.917  1.1237  1.8776 -2.9431
 3072TIP3   OH230850   4.254   3.222   6.365 -0.3194  0.3774 -0.1511
 3072TIP3    H130851   4.298   3.165   6.428 -2.1392 -1.8391 -0.7711
 3072TIP3    H230852   4.294   3.201   6.281 -0.2236  0.8721 -0.2359
 3073TIP3   OH230853   4.387   2.162   1.750  0.1285 -0.2275 -0.4591
 3073TIP3    H130854   4.436   2.103   1.693 -0.3487 -1.4317  0.3406
 3073TIP3    H230855   4.439   2.166   1.831 -0.4247 -0.4629 -0.0909
 3074TIP3   OH230856   4.796   1.607   1.434  0.2571  0.4490 -0.2981
 3074TIP3    H130857   4.780   1.513   1.425  0.0230  0.5489 -1.0355
 3074TIP3    H230858   4.891   1.616   1.425  0.5105  0.1127  1.5946
 3075TIP3   OH230859   5.137   6.818   0.849  0.3158 -0.5859 -0.2620
 3075TIP3    H130860   5.166   6.833   0.759 -0.1027 -1.4016 -0.5393
 3075TIP3    H230861   5.087   6.896   0.871 -0.5405 -0.8673 -1.1412
 3076TIP3   OH230862   4.696   4.103   1.334 -0.0007  0.1993  0.2612
 3076TIP3    H130863   4.626   4.048   1.301 -0.5193 -0.5727  2.4445
 3076TIP3    H230864   4.718   4.161   1.261 -1.0821 -1.2894 -1.3244
 3077TIP3   OH230865   1.397   0.984   8.754 -0.3210 -0.1760 -0.4770
 3077TIP3    H130866   1.435   0.950   8.673  2.5190  0.8071  0.3435
 3077TIP3    H230867   1.368   1.072   8.732 -2.1995 -0.8740 -1.0617
 3078TIP3   OH230868   6.621   4.639   0.259 -0.6893  0.1586 -0.1947
 3078TIP3    H130869   6.694   4.701   0.264  0.7778 -1.4937 -0.1347
 3078TIP3    H230870   6.565   4.661   0.333  1.7696 -0.9042  2.1257
 3079TIP3   OH230871   6.072   1.851   0.427 -0.2098  0.2149  0.1893
 3079TIP3    H130872   6.038   1.762   0.421 -1.1657  0.5842  0.0119
 3079TIP3    H230873   6.141   1.845   0.493  0.6327 -0.9129 -0.7471
 3080TIP3   OH230874   5.008   6.112   1.649  0.7189  0.0949 -0.4337
 3080TIP3    H130875   4.945   6.041   1.637  2.0590 -0.8920 -1.9285
 3080TIP3    H230876   4.962   6.175   1.705 -1.1464 -1.1232 -0.5064
 3081TIP3   OH230877   2.640   0.176   1.120 -0.0442  0.2563  0.4423
 3081TIP3    H130878   2.663   0.207   1.207  0.6669  0.1783  0.2821
 3081TIP3    H230879   2.637   0.255   1.066 -2.6376  0.6274  0.9629
 3082TIP3   OH230880   0.213   0.510   8.753  0.7362  0.2787 -0.4828
 3082TIP3    H130881   0.295   0.526   8.801  0.9190  0.4049 -0.8368
 3082TIP3    H230882   0.155   0.581   8.781 -0.6046 -1.8212  2.7128
 3083TIP3   OH230883   5.215   0.654   0.418  0.1227  0.7427 -0.2016
 3083TIP3    H130884   5.149   0.586   0.406 -1.2627  1.6851  1.5733
 3083TIP3    H230885   5.206   0.710   0.341 -1.7963  1.3092  0.3613
 3084TIP3   OH230886   1.647   0.877   0.532 -0.3853 -0.1599  0.3400
 3084TIP3    H130887   1.589   0.941   0.573 -0.9752 -1.0463  0.9137
 3084TIP3    H230888   1.611   0.792   0.556  1.3760 -0.7597  1.0781
 3085TIP3   OH230889   4.353   2.818   0.934  0.0548 -0.3606  0.4821
 3085TIP3    H130890   4.303   2.899   0.924 -0.7029 -0.9612 -0.7851
 3085TIP3    H230891   4.366   2.810   1.028 -0.1183  1.0739  0.6564
 3086TIP3   OH230892   1.489   1.897   0.632 -0.3512 -0.3764 -0.1800
 3086TIP3    H130893   1.462   1.852   0.552  0.1375  0.3288 -0.7594
 3086TIP3    H230894   1.544   1.969   0.601  2.4666 -1.9041  0.9371
 3087TIP3   OH230895   0.325   0.816   0.880 -0.3926  0.4287 -0.3149
 3087TIP3    H130896   0.278   0.844   0.959 -0.6528  1.3515 -0.7837
 3087TIP3    H230897   0.282   0.863   0.809  0.3157  0.1680 -0.9237
 3088TIP3   OH230898   0.679   6.446   6.914  0.6842 -0.0700  0.2825
 3088TIP3    H130899   0.712   6.357   6.921 -2.4814 -1.3582  0.8299
 3088TIP3    H230900   0.641   6.451   6.826  0.2155  0.4772  0.5053
 3089TIP3   OH230901   4.090   1.259   1.532  0.2090  0.9043  0.0359
 3089TIP3    H130902   4.085   1.272   1.627 -0.3856 -2.2837  0.5611
 3089TIP3    H230903   3.999   1.252   1.504  0.3507 -1.9991 -0.0156
 3090TIP3   OH230904   6.618   1.769   1.276 -0.6652 -0.7792 -0.2583
 3090TIP3    H130905   6.656   1.741   1.359 -1.8600 -0.3095  0.4758
 3090TIP3    H230906   6.645   1.860   1.267 -0.0975 -0.9825 -0.6582
 3091TIP3   OH230907   0.847   4.778   7.775 -0.2329 -0.6593 -0.8640
 3091TIP3    H130908   0.925   4.723   7.772 -0.5573 -1.1708 -0.1452
 3091TIP3    H230909   0.824   4.783   7.868  0.1700  1.2342 -0.8109
 3092TIP3   OH230910   2.003   6.787   7.762 -0.3792 -0.3413 -0.1519
 3092TIP3    H130911   2.029   6.786   7.670 -0.5861 -0.7557 -0.2114
 3092TIP3    H230912   2.053   6.859   7.801  1.4342 -1.5629 -0.0889
 3093TIP3   OH230913   6.538   0.170   1.027 -0.5315  0.3717  0.1954
 3093TIP3    H130914   6.497   0.178   1.114  0.5331 -0.5195  0.8075
 3093TIP3    H230915   6.627   0.203   1.039 -0.7552  1.4115 -0.8861
 3094TIP3   OH230916   5.890   6.026   7.951 -0.0495 -0.5597  0.1993
 3094TIP3    H130917   5.942   5.947   7.961  2.5739  1.2605  3.2770
 3094TIP3    H230918   5.953   6.092   7.921 -1.8085  0.6819 -0.9223
 3095TIP3   OH230919   2.145   5.992   2.615  0.0862 -0.5909  0.4233
 3095TIP3    H130920   2.237   6.013   2.628  0.4989 -1.1292 -1.3426
 3095TIP3    H230921   2.100   6.076   2.620  1.0246  0.0472 -1.2443
 3096TIP3   OH230922   1.062   3.438   0.720  0.6630  0.1319 -0.2503
 3096TIP3    H130923   1.009   3.493   0.777  1.5389  0.0026  0.7330
 3096TIP3    H230924   1.089   3.365   0.777  2.5621  0.6262 -0.4639
 3097TIP3   OH230925   1.124   4.825   6.480  0.1681  0.1533  0.4034
 3097TIP3    H130926   1.170   4.793   6.402  0.8696  0.6679  0.5966
 3097TIP3    H230927   1.141   4.919   6.481 -1.0439  0.3818  0.3956
 3098TIP3   OH230928   6.749   5.620   0.132  0.5377 -0.1298  0.2322
 3098TIP3    H130929   6.735   5.681   0.060  1.3565 -0.1081  0.0870
 3098TIP3    H230930   6.750   5.534   0.089  2.9829  0.0051 -0.0920
 3099TIP3   OH230931   3.269   4.073   1.898 -0.3409 -0.4447  0.5434
 3099TIP3    H130932   3.234   4.014   1.831  0.9288  1.2452 -1.7765
 3099TIP3    H230933   3.330   4.019   1.948 -1.5594 -1.8413  0.5787
 3100TIP3   OH230934   5.263   4.629   8.196  0.1825 -0.0263 -0.0720
 3100TIP3    H130935   5.177   4.624   8.239  0.4469  0.1903  0.4891
 3100TIP3    H230936   5.299   4.713   8.223  1.1470 -0.6947  0.7945
 3101TIP3   OH230937   0.574   4.344   1.751  0.2080  0.3879 -0.3202
 3101TIP3    H130938   0.644   4.404   1.727 -0.4580  0.4042 -2.3643
 3101TIP3    H230939   0.493   4.391   1.731 -0.3514 -0.5356 -0.3123
 3102TIP3   OH230940   6.609   2.569   0.404  0.4690  0.4179  0.4175
 3102TIP3    H130941   6.582   2.659   0.386  0.0130  0.2926  0.4588
 3102TIP3    H230942   6.526   2.520   0.412  0.6838  0.2005  1.4150
 3103TIP3   OH230943   4.933   4.253   8.791 -0.1355  0.2612 -0.0317
 3103TIP3    H130944   4.842   4.233   8.770 -0.2995  2.1445 -1.4166
 3103TIP3    H230945   4.940   4.241   8.885 -1.2028 -2.0701 -0.1773
 3104TIP3   OH230946   2.745   0.650   7.777 -0.0884 -0.1309  0.3962
 3104TIP3    H130947   2.688   0.724   7.798  0.3377  0.4050 -0.2757
 3104TIP3    H230948   2.822   0.691   7.737 -0.1907 -0.9875 -0.7096
 3105TIP3   OH230949   6.188   3.212   2.732  0.9020 -0.0595  0.3915
 3105TIP3    H130950   6.156   3.202   2.822  1.3304 -2.3650  0.3527
 3105TIP3    H230951   6.140   3.146   2.682 -0.5490  2.2676 -1.4829
 3106TIP3   OH230952   6.554   0.571   6.427  0.1630  0.4493 -0.5832
 3106TIP3    H130953   6.646   0.576   6.453 -0.5495 -0.6080  2.6968
 3106TIP3    H230954   6.513   0.646   6.472 -0.7467  0.2608 -1.0739
 3107TIP3   OH230955   1.603   1.836   0.228 -0.3373  0.4625 -0.5761
 3107TIP3    H130956   1.662   1.795   0.164 -0.0280  1.9094 -1.2737
 3107TIP3    H230957   1.617   1.930   0.216 -0.5741  0.7807  1.3699
 3108TIP3   OH230958   3.162   1.415   1.362  0.5435 -0.1331  0.2592
 3108TIP3    H130959   3.113   1.494   1.341  1.5933  0.1251 -1.3837
 3108TIP3    H230960   3.161   1.411   1.458  0.3582  1.8107  0.3772
 3109TIP3   OH230961   3.175   5.401   1.006 -0.5217  0.2734 -0.6935
 3109TIP3    H130962   3.135   5.427   0.923  0.0028  2.4250 -0.3337
 3109TIP3    H230963   3.134   5.458   1.072 -0.8641 -1.3191  0.5477
 3110TIP3   OH230964   5.381   6.173   0.651  0.6189 -0.0753 -0.6411
 3110TIP3    H130965   5.452   6.223   0.691  0.3365 -0.3644  0.2377
 3110TIP3    H230966   5.333   6.236   0.598  0.9079  0.3452 -0.3999
 3111TIP3   OH230967   5.797   2.203   7.519 -0.6952  0.2948 -0.2644
 3111TIP3    H130968   5.838   2.232   7.437 -0.2471 -1.5106 -0.7349
 3111TIP3    H230969   5.768   2.283   7.561  1.0311  1.4507 -1.1562
 3112TIP3   OH230970   0.717   6.348   6.612  0.2538  0.3318  0.4364
 3112TIP3    H130971   0.744   6.418   6.553 -0.9517 -1.4481 -2.4886
 3112TIP3    H230972   0.630   6.374   6.641 -0.4739 -0.1359 -1.1694
 3113TIP3   OH230973   4.103   4.170   1.175 -0.1965  0.3405 -0.4838
 3113TIP3    H130974   4.119   4.239   1.111 -0.5296  0.1115 -0.8205
 3113TIP3    H230975   4.176   4.176   1.236  1.3738 -0.8699 -2.1412
 3114TIP3   OH230976   0.692   3.523   8.149  0.0277 -0.5610 -0.2675
 3114TIP3    H130977   0.784   3.547   8.144 -0.1901  0.4759  0.3692
 3114TIP3    H230978   0.656   3.578   8.218 -0.5400 -2.7380  1.2724
 3115TIP3   OH230979   3.428   1.927   8.123  0.4848 -0.1049  0.2190
 3115TIP3    H130980   3.435   1.831   8.120 -0.2783 -0.2254  1.4882
 3115TIP3    H230981   3.509   1.958   8.083 -0.6327 -1.2344 -3.3136
 3116TIP3   OH230982   3.792   2.014   0.838 -0.2299 -0.1124  0.1421
 3116TIP3    H130983   3.831   2.009   0.751  1.8876  1.1819  0.9414
 3116TIP3    H230984   3.799   1.925   0.872  3.9641  0.2921  0.9203
 3117TIP3   OH230985   6.062   6.308   8.193 -0.4229  0.3475 -0.3806
 3117TIP3    H130986   5.979   6.348   8.220 -0.2457  0.0802  0.5741
 3117TIP3    H230987   6.079   6.346   8.107 -1.1281  1.0206 -0.2383
 3118TIP3   OH230988   5.950   0.312   0.387  0.0920 -0.5931 -0.2688
 3118TIP3    H130989   6.002   0.263   0.323 -0.5488 -2.2478  0.4262
 3118TIP3    H230990   5.864   0.270   0.385 -0.7279  1.0107 -0.1712
 3119TIP3   OH230991   1.885   5.040   8.388  0.4167  0.4353  0.0570
 3119TIP3    H130992   1.829   5.060   8.464  1.4438  0.1276  0.9096
 3119TIP3    H230993   1.823   5.014   8.320 -0.4988  0.1712  0.9538
 3120TIP3   OH230994   1.875   6.221   8.561  0.1962 -0.1210  0.5461
 3120TIP3    H130995   1.910   6.284   8.624  0.3172  0.1055  0.2557
 3120TIP3    H230996   1.948   6.202   8.502 -0.1690  0.3836 -0.0812
 3121TIP3   OH230997   4.259   6.462   6.345 -0.0531  0.6671  0.2915
 3121TIP3    H130998   4.269   6.414   6.263 -0.5050  0.6791  0.2246
 3121TIP3    H230999   4.180   6.426   6.384 -1.4097  2.5189 -0.5830
 3122TIP3   OH231000   6.175   4.691   2.099  0.2358  0.0466 -0.1078
 3122TIP3    H131001   6.141   4.650   2.178 -1.6283  0.6291 -0.5544
 3122TIP3    H231002   6.251   4.638   2.075  0.1403 -0.8262  1.4191
 3123TIP3   OH231003   1.442   3.410   1.440  0.5280 -0.5875 -0.0625
 3123TIP3    H131004   1.486   3.368   1.366  1.9276 -0.5664  0.7222
 3123TIP3    H231005   1.476   3.499   1.441  0.7181 -0.6555  0.7382
 3124TIP3   OH231006   5.961   3.350   7.373 -0.1660  0.5537  0.0195
 3124TIP3    H131007   5.996   3.358   7.284  1.7666 -1.7342  0.4911
 3124TIP3    H231008   6.006   3.419   7.422  0.6527  0.2372 -0.2680
 3125TIP3   OH231009   4.940   1.161   8.520  0.0119 -0.7194  0.2832
 3125TIP3    H131010   4.918   1.069   8.509 -0.5675 -0.5290 -0.2105
 3125TIP3    H231011   4.878   1.207   8.463  1.9900 -0.1718 -1.5564
 3126TIP3   OH231012   5.659   3.220   8.002 -0.0838  0.5734 -0.1621
 3126TIP3    H131013   5.745   3.259   8.013 -0.1668  0.3404  1.5726
 3126TIP3    H231014   5.604   3.261   8.068 -1.2669  0.5441 -1.0740
 3127TIP3   OH231015   2.778   0.795   6.398 -0.2189 -0.0212 -0.0610
 3127TIP3    H131016   2.865   0.833   6.386  0.3543 -1.6576 -1.4813
 3127TIP3    H231017   2.720   0.850   6.346  0.0464  0.7523  0.4453
 3128TIP3   OH231018   0.898   2.229   0.817  0.0188  0.1730 -0.4405
 3128TIP3    H131019   0.803   2.219   0.806  0.1162 -0.8767 -0.4843
 3128TIP3    H231020   0.921   2.162   0.881  0.7776  0.1988 -0.6807
 3129TIP3   OH231021   5.578   3.059   2.369 -0.1804 -0.7749  0.0670
 3129TIP3    H131022   5.563   2.998   2.441  0.6648 -0.7921  0.2340
 3129TIP3    H231023   5.499   3.113   2.367  0.6250  0.5998  2.3434
 3130TIP3   OH231024   1.614   1.861   8.025  0.1557 -0.0836  0.1364
 3130TIP3    H131025   1.615   1.948   8.065 -0.5115 -0.7391  1.6303
 3130TIP3    H231026   1.668   1.807   8.082 -0.8341 -1.0525  0.1799
 3131TIP3   OH231027   5.891   1.449   8.464  0.0121  0.1502  0.1521
 3131TIP3    H131028   5.866   1.537   8.438 -0.8776 -0.1695 -0.1094
 3131TIP3    H231029   5.975   1.434   8.421 -1.3737 -0.3631 -2.6316
 3132TIP3   OH231030   0.345   0.566   1.026 -0.0667 -0.2050 -0.2618
 3132TIP3    H131031   0.347   0.647   0.974  0.0205  1.2221  1.8556
 3132TIP3    H231032   0.435   0.534   1.023  0.4896  1.1360  0.8450
 3133TIP3   OH231033   0.335   5.021   6.442 -0.1285 -0.4941  0.6351
 3133TIP3    H131034   0.344   5.017   6.537 -0.1600 -1.0097  0.6228
 3133TIP3    H231035   0.401   4.961   6.409  0.6631  0.5481  0.2687
 3134TIP3   OH231036   2.595   3.495   8.275 -0.1359  0.0034 -0.1135
 3134TIP3    H131037   2.572   3.562   8.210 -1.5844 -0.2831  0.0597
 3134TIP3    H231038   2.536   3.422   8.255  1.8107 -1.4969 -0.6827
 3135TIP3   OH231039   2.197   0.123   7.900  0.3431  0.3447  0.3908
 3135TIP3    H131040   2.190   0.046   7.956  0.7492  0.5461  0.7199
 3135TIP3    H231041   2.256   0.097   7.829 -0.8845 -0.2110 -0.4632
 3136TIP3   OH231042   5.364   5.581   6.850  0.0420 -0.1269  0.3519
 3136TIP3    H131043   5.350   5.654   6.910  1.2810  2.1653 -1.9274
 3136TIP3    H231044   5.456   5.558   6.860  0.0146 -0.3971  0.0335
 3137TIP3   OH231045   5.354   2.635   0.840  0.1482  0.1520  0.0491
 3137TIP3    H131046   5.392   2.702   0.897 -2.6712  0.3047  1.9941
 3137TIP3    H231047   5.379   2.552   0.881  0.9657  0.1207 -0.5004
 3138TIP3   OH231048   1.194   5.781   7.721  0.2457 -0.7042  0.3706
 3138TIP3    H131049   1.254   5.842   7.678 -0.6236  0.5758  0.9087
 3138TIP3    H231050   1.197   5.702   7.667  0.6539  0.1536 -0.9061
 3139TIP3   OH231051   0.522   1.630   7.547  0.1011 -0.1970 -0.0398
 3139TIP3    H131052   0.465   1.580   7.605 -0.3653 -0.5902 -0.8227
 3139TIP3    H231053   0.547   1.707   7.598 -0.8479 -0.1996  0.4429
 3140TIP3   OH231054   0.510   3.063   1.994 -0.1471  0.3714 -0.1277
 3140TIP3    H131055   0.577   3.037   1.932 -0.7825 -1.2157 -0.1783
 3140TIP3    H231056   0.428   3.030   1.957 -0.6012 -0.1844  1.2907
 3141TIP3   OH231057   5.546   5.776   1.825 -0.0003  0.6036  0.3961
 3141TIP3    H131058   5.457   5.762   1.859  0.3692  0.5991  1.3812
 3141TIP3    H231059   5.588   5.690   1.832 -0.2387  0.3244 -1.1138
 3142TIP3   OH231060   6.028   2.232   1.275  0.3150  0.8269  0.2460
 3142TIP3    H131061   6.110   2.275   1.250 -0.2454  0.8212 -1.7156
 3142TIP3    H231062   6.043   2.139   1.257  0.6210  0.4943  2.0309
 3143TIP3   OH231063   2.105   4.022   6.448  0.1311  0.1663 -0.2082
 3143TIP3    H131064   2.055   4.035   6.367 -0.5648 -2.7944 -0.3738
 3143TIP3    H231065   2.181   3.970   6.420  0.7286  0.4562  0.8324
 3144TIP3   OH231066   6.162   1.789   6.146 -0.3395 -0.5441  0.1144
 3144TIP3    H131067   6.104   1.769   6.073  0.6804  0.2444 -0.9485
 3144TIP3    H231068   6.151   1.882   6.162  0.5359 -0.4065 -0.0270
 3145TIP3   OH231069   2.460   5.913   0.001  0.0974  0.4113  0.4556
 3145TIP3    H131070   2.394   5.898   0.069 -1.3620  0.6472 -0.8465
 3145TIP3    H231071   2.506   5.829  -0.007 -0.7188 -0.0643  0.6779
 3146TIP3   OH231072   5.805   2.653   7.281 -0.3897  0.0444  0.3978
 3146TIP3    H131073   5.723   2.640   7.232  0.9056 -2.9692 -1.2018
 3146TIP3    H231074   5.844   2.731   7.242 -0.5042 -0.9649 -1.8365
 3147TIP3   OH231075   5.674   1.957   7.809  0.0261  0.4355 -0.5624
 3147TIP3    H131076   5.702   1.936   7.720 -1.5164  1.3781 -1.3246
 3147TIP3    H231077   5.651   1.873   7.848  1.0002 -0.0146 -0.9547
 3148TIP3   OH231078   5.011   0.699   0.766 -0.4331  0.1092 -0.2608
 3148TIP3    H131079   5.009   0.783   0.720  0.6342  0.9057  1.0680
 3148TIP3    H231080   4.938   0.704   0.829 -1.8126 -0.9271 -1.6997
 3149TIP3   OH231081   3.236   1.050   7.508 -0.3105  0.3309  0.0067
 3149TIP3    H131082   3.173   1.043   7.580 -1.9985 -2.3785 -1.5601
 3149TIP3    H231083   3.320   1.029   7.547 -1.0286 -0.0958  1.3847
 3150TIP3   OH231084   4.807   4.631   8.050 -0.1983  0.1860  0.4939
 3150TIP3    H131085   4.719   4.669   8.047 -0.5895 -0.7441 -1.3802
 3150TIP3    H231086   4.792   4.537   8.051  0.7742  0.0154  0.0653
 3151TIP3   OH231087   1.694   5.547   7.791 -0.1162 -0.0335 -0.3919
 3151TIP3    H131088   1.632   5.596   7.737  0.5660 -0.2548 -1.3987
 3151TIP3    H231089   1.711   5.605   7.866  0.5163  1.2159 -1.4607
 3152TIP3   OH231090   0.577   5.026   0.839 -0.3133  0.3007  0.4457
 3152TIP3    H131091   0.663   5.069   0.834 -0.2790  0.1011 -1.5213
 3152TIP3    H231092   0.588   4.958   0.906  0.5936  1.2559  1.2937
 3153TIP3   OH231093   1.420   5.309   1.620 -0.0740  0.2152 -0.1032
 3153TIP3    H131094   1.368   5.229   1.629  2.6639 -1.7144 -0.2215
 3153TIP3    H231095   1.411   5.353   1.705 -0.6464 -0.8321  0.3904
 3154TIP3   OH231096   6.368   3.306   6.531 -0.3433 -0.5606  0.3912
 3154TIP3    H131097   6.319   3.304   6.613 -2.2277 -2.5927 -0.6729
 3154TIP3    H231098   6.306   3.337   6.466  0.5983 -0.5889 -0.5573
 3155TIP3   OH231099   0.874   4.459   2.210  0.2835  0.0147 -0.4445
 3155TIP3    H131100   0.911   4.453   2.298 -1.0643  0.8021  0.2069
 3155TIP3    H231101   0.892   4.373   2.171  0.4745 -0.5263  0.7797
 3156TIP3   OH231102   6.456   1.591   0.540 -0.2173 -0.2190  0.2853
 3156TIP3    H131103   6.496   1.560   0.459 -1.9089 -1.1450 -0.2572
 3156TIP3    H231104   6.380   1.533   0.553  0.4728 -0.6619  2.9987
 3157TIP3   OH231105   5.189   2.342   8.332  0.3481  0.3312 -0.6027
 3157TIP3    H131106   5.123   2.299   8.386 -1.0981  1.1626 -1.6423
 3157TIP3    H231107   5.139   2.388   8.265  1.8848  2.5241 -0.3447
 3158TIP3   OH231108   0.072   4.321   1.725 -0.3831 -0.6575  0.5129
 3158TIP3    H131109   0.139   4.386   1.702  0.2205 -1.5764 -0.3994
 3158TIP3    H231110  -0.007   4.373   1.739  0.2855  0.3637  0.6708
 3159TIP3   OH231111   0.835   2.186   8.457 -0.3372 -0.1353  0.1547
 3159TIP3    H131112   0.767   2.202   8.522 -0.3790 -1.1753  0.3892
 3159TIP3    H231113   0.808   2.238   8.381 -1.0142  0.0239  0.4919
 3160TIP3   OH231114   3.436   3.899   2.047 -0.0832  0.1035  0.0508
 3160TIP3    H131115   3.518   3.899   1.998  1.3176 -0.0262  2.2455
 3160TIP3    H231116   3.444   3.825   2.107  0.3690  2.7426  3.5799
 3161TIP3   OH231117   1.191   1.159   0.004  0.2212 -0.0227  0.1062
 3161TIP3    H131118   1.268   1.215  -0.001 -1.0210  1.6910 -0.9701
 3161TIP3    H231119   1.117   1.217  -0.017 -1.2915 -1.7539  0.3372
 3162TIP3   OH231120   3.972   3.027   8.514 -1.0518  0.0480  0.5883
 3162TIP3    H131121   4.061   3.007   8.485  0.1167  2.6365  2.0487
 3162TIP3    H231122   3.952   2.960   8.578 -0.2248 -0.6812  0.1077
 3163TIP3   OH231123   2.371   1.145   0.084  0.0400 -0.5420  0.2496
 3163TIP3    H131124   2.297   1.100   0.126  0.6405 -0.3026  1.6200
 3163TIP3    H231125   2.445   1.086   0.097  0.3391 -0.2279 -0.0395
 3164TIP3   OH231126   3.453   5.737   7.958 -0.2127  0.0182  0.0003
 3164TIP3    H131127   3.450   5.805   7.891 -0.4342  0.4778  0.4648
 3164TIP3    H231128   3.363   5.707   7.965 -0.2191  0.0793  0.1950
 3165TIP3   OH231129   0.714   0.868   0.522 -0.3625 -0.2477 -0.3435
 3165TIP3    H131130   0.731   0.785   0.566 -0.5574 -0.9486 -1.5360
 3165TIP3    H231131   0.679   0.843   0.436 -0.3825  1.0685 -0.7479
 3166TIP3   OH231132   3.978   0.876   7.492 -0.1555  0.4039  0.2560
 3166TIP3    H131133   4.023   0.793   7.476 -1.4817  0.0052 -1.8710
 3166TIP3    H231134   4.046   0.942   7.486  0.4960 -0.3394 -0.8507
 3167TIP3   OH231135   0.155   1.679   1.477 -0.2150  0.4950  0.4354
 3167TIP3    H131136   0.127   1.680   1.568 -2.5854 -2.0478 -0.1087
 3167TIP3    H231137   0.241   1.637   1.478 -0.7948 -0.7204  1.4328
 3168TIP3   OH231138   6.701   2.343   8.700 -0.0856  0.1964  0.4987
 3168TIP3    H131139   6.734   2.302   8.780 -0.3756  1.4935  1.3198
 3168TIP3    H231140   6.696   2.437   8.722 -0.3375  0.5503 -0.9844
 3169TIP3   OH231141   6.340   1.960   0.336 -0.3762  0.3115  0.5261
 3169TIP3    H131142   6.262   2.013   0.353 -0.2872  0.6323 -0.0383
 3169TIP3    H231143   6.323   1.877   0.381 -1.0868  0.3435  0.3292
 3170TIP3   OH231144   1.204   3.458   7.729  0.3165 -0.9408  0.1777
 3170TIP3    H131145   1.200   3.391   7.798  2.0300 -2.3967 -1.0565
 3170TIP3    H231146   1.227   3.410   7.650  0.2712  0.9541 -1.0526
 3171TIP3   OH231147   5.067   1.865   6.819  0.2797 -0.7667 -0.3118
 3171TIP3    H131148   5.044   1.773   6.831  1.6449 -1.0714  0.2381
 3171TIP3    H231149   5.003   1.913   6.872  1.9286 -1.6906  2.7917
 3172TIP3   OH231150   0.110   1.861   6.593 -0.1788 -0.7502  0.1897
 3172TIP3    H131151   0.062   1.808   6.657 -1.8843  0.8019  0.2786
 3172TIP3    H231152   0.085   1.824   6.508 -1.7102  0.1172  0.2279
 3173TIP3   OH231153   0.091   2.757   2.211  0.2003 -0.6076 -0.9067
 3173TIP3    H131154   0.035   2.785   2.283  2.4847  0.0481  0.7404
 3173TIP3    H231155   0.057   2.671   2.185 -2.0639  0.1560 -0.6228
 3174TIP3   OH231156   5.005   1.245   8.219 -0.2903  0.2716 -0.4159
 3174TIP3    H131157   5.019   1.315   8.282 -0.2755 -0.6509  0.6485
 3174TIP3    H231158   5.011   1.164   8.271  0.0332 -0.5379 -1.6558
 3175TIP3   OH231159   1.920   2.707   0.405  0.0554 -0.4135  0.3078
 3175TIP3    H131160   1.995   2.712   0.345  1.3010 -0.1296  1.8176
 3175TIP3    H231161   1.866   2.636   0.370 -0.4425  1.1305 -2.3719
 3176TIP3   OH231162   4.452   0.763   2.260 -0.3159 -0.0395 -0.5442
 3176TIP3    H131163   4.506   0.842   2.261  0.0162 -0.2359 -1.4985
 3176TIP3    H231164   4.455   0.731   2.350  1.3995 -0.1806 -0.6103
 3177TIP3   OH231165   0.851   4.161   1.552  0.1149 -0.4383  0.5035
 3177TIP3    H131166   0.910   4.208   1.494 -1.0676  1.3115  0.6551
 3177TIP3    H231167   0.891   4.074   1.562  0.6977 -0.5973 -2.3780
 3178TIP3   OH231168   3.703   1.866   1.988  0.4259 -0.0626  0.3611
 3178TIP3    H131169   3.638   1.888   2.055  1.9148  2.6677  1.0477
 3178TIP3    H231170   3.709   1.944   1.933  1.9363 -0.8567 -0.6728
 3179TIP3   OH231171   1.009   0.933   2.108 -0.6054 -0.0783  0.0129
 3179TIP3    H131172   1.039   0.845   2.084  1.7827  0.5694  0.3598
 3179TIP3    H231173   1.066   0.992   2.059 -1.2557  1.2745  0.8425
 3180TIP3   OH231174   6.357   6.249   8.152  0.0334  0.3613  0.0343
 3180TIP3    H131175   6.262   6.251   8.164 -0.1031 -0.5577 -0.7151
 3180TIP3    H231176   6.392   6.301   8.224 -1.0541  0.9559  0.1469
 3181TIP3   OH231177   6.433   4.011   7.489 -0.2897 -0.1174  0.0864
 3181TIP3    H131178   6.492   4.033   7.561  0.4788  0.0401 -0.5697
 3181TIP3    H231179   6.400   4.096   7.458  2.4847  0.2776 -2.2850
 3182TIP3   OH231180   1.544   5.770   7.709 -0.0335  0.5677 -0.0740
 3182TIP3    H131181   1.528   5.786   7.801  1.2456  3.2282 -0.2044
 3182TIP3    H231182   1.484   5.828   7.663  1.3707  1.5096 -0.8003
 3183TIP3   OH231183   2.328   0.741   7.937  0.1788  0.3625 -0.7222
 3183TIP3    H131184   2.341   0.820   7.885  0.7102  0.4302 -0.4908
 3183TIP3    H231185   2.416   0.704   7.948 -0.0054  0.0107 -0.4057
 3184TIP3   OH231186   1.536   6.184   0.513  0.5872  0.1163 -0.0289
 3184TIP3    H131187   1.457   6.235   0.532  1.3041  0.7533  1.4285
 3184TIP3    H231188   1.561   6.211   0.425 -0.2498  0.6903 -0.1035
 3185TIP3   OH231189   6.103   5.253   7.714 -0.5427  0.3206 -1.0266
 3185TIP3    H131190   6.086   5.253   7.808 -3.3291 -0.9718 -1.4501
 3185TIP3    H231191   6.147   5.169   7.699  2.7569  1.7781 -0.5887
 3186TIP3   OH231192   2.267   0.877   6.583 -0.4918 -0.2219  0.1636
 3186TIP3    H131193   2.319   0.866   6.503  1.0881 -2.1302  1.3470
 3186TIP3    H231194   2.273   0.971   6.603 -0.3718  0.1716 -1.5605
 3187TIP3   OH231195   2.236   5.923   0.158 -0.0344 -0.1358 -0.5549
 3187TIP3    H131196   2.209   5.835   0.134 -1.8496 -0.2915  1.6568
 3187TIP3    H231197   2.159   5.978   0.142  0.3426  0.6280  0.1359
 3188TIP3   OH231198   5.019   2.402   6.642 -0.1155 -0.6416  0.3546
 3188TIP3    H131199   5.041   2.489   6.608 -1.8309  0.1906  1.2579
 3188TIP3    H231200   5.026   2.344   6.566 -0.1360  0.5000 -0.5458
 3189TIP3   OH231201   0.857   6.756   0.609  0.3094  0.0921  0.0455
 3189TIP3    H131202   0.907   6.786   0.534  0.4880  0.1607  0.1908
 3189TIP3    H231203   0.898   6.673   0.633 -1.1081 -1.0333 -1.2685
 3190TIP3   OH231204   0.845   2.232   8.122 -0.0010 -0.3888 -0.3300
 3190TIP3    H131205   0.852   2.188   8.038  2.2606 -1.4717  0.3414
 3190TIP3    H231206   0.927   2.282   8.130 -1.8636  2.9920 -0.4708
 3191TIP3   OH231207   6.162   6.737   0.379  0.2830  0.0912 -0.1492
 3191TIP3    H131208   6.243   6.728   0.430  1.2290 -3.0178 -1.9500
 3191TIP3    H231209   6.094   6.756   0.444  2.0534  0.4627  1.6953
 3192TIP3   OH231210   2.871   2.254   1.431  0.3475 -0.5473  0.4698
 3192TIP3    H131211   2.818   2.279   1.507  2.4081 -1.1645  2.2059
 3192TIP3    H231212   2.960   2.278   1.456  0.8691  1.7409 -2.8640
 3193TIP3   OH231213   2.836   2.979   8.565  0.2306 -0.0418 -1.1047
 3193TIP3    H131214   2.931   2.983   8.576  0.2124 -0.0872 -0.9355
 3193TIP3    H231215   2.804   2.945   8.648  0.0601  0.0468 -1.1349
 3194TIP3   OH231216   0.986   2.930   2.159 -0.3048 -0.0369  0.4354
 3194TIP3    H131217   1.004   2.842   2.126 -0.6848 -0.0252  0.1896
 3194TIP3    H231218   1.029   2.933   2.245 -1.5787 -0.9826  1.1322
 3195TIP3   OH231219   4.889   4.912   1.713  0.5925  0.1099 -0.2478
 3195TIP3    H131220   4.945   4.842   1.679 -0.5523  0.0421 -2.0960
 3195TIP3    H231221   4.848   4.874   1.791  1.5715 -0.5330 -0.0296
 3196TIP3   OH231222   4.496   5.389   8.397 -0.5294  0.1622 -0.1153
 3196TIP3    H131223   4.584   5.359   8.416 -0.6902 -0.5168 -0.3962
 3196TIP3    H231224   4.497   5.483   8.416 -0.1108 -0.0750  1.1310
 3197TIP3   OH231225   6.042   4.709   7.881  0.5481  0.2335  0.0890
 3197TIP3    H131226   6.074   4.624   7.911  1.5250  0.4654 -0.2474
 3197TIP3    H231227   5.951   4.711   7.908  0.9131 -0.2831  1.4839
 3198TIP3   OH231228   4.031   3.871   8.126  0.1697  0.4537  0.1823
 3198TIP3    H131229   3.995   3.943   8.177  0.9268  0.9033  0.0964
 3198TIP3    H231230   4.092   3.912   8.065 -0.2111 -0.1473 -0.6282
 3199TIP3   OH231231   3.368   5.626   8.421 -0.1288  0.3179  0.7642
 3199TIP3    H131232   3.284   5.668   8.442 -2.5718 -1.7821 -3.4928
 3199TIP3    H231233   3.422   5.696   8.385 -0.5013  1.4462  2.2931
 3200TIP3   OH231234   0.940   6.141   7.371 -0.5042  0.3345 -0.9367
 3200TIP3    H131235   0.879   6.177   7.436  1.4887  0.4790  0.9711
 3200TIP3    H231236   0.956   6.214   7.311 -0.9416  0.8053 -0.5023
 3201TIP3   OH231237   0.812   3.356   8.766  0.2106 -0.5738 -0.0436
 3201TIP3    H131238   0.888   3.331   8.818  0.9337 -0.4474 -0.9986
 3201TIP3    H231239   0.775   3.274   8.735  0.5133 -0.5981 -0.3394
 3202TIP3   OH231240   2.936   2.788   0.590  0.3073 -0.4976 -0.3144
 3202TIP3    H131241   2.875   2.861   0.589  0.1279 -0.5674  1.4097
 3202TIP3    H231242   3.021   2.829   0.608 -0.1944 -0.7942  3.7843
 3203TIP3   OH231243   5.305   4.609   0.280  0.2341 -0.3244 -0.3143
 3203TIP3    H131244   5.352   4.541   0.233 -0.5294 -1.1636  0.1061
 3203TIP3    H231245   5.362   4.632   0.353 -0.5114 -2.2763  0.9657
 3204TIP3   OH231246   5.300   6.673   8.554  0.0886 -0.3203 -0.4077
 3204TIP3    H131247   5.246   6.710   8.623  2.6713  1.3471  0.8809
 3204TIP3    H231248   5.350   6.603   8.597  0.2789 -0.6090 -1.0763
 3205TIP3   OH231249   5.784   4.639   0.559  0.3815 -0.4819 -0.4932
 3205TIP3    H131250   5.777   4.547   0.584  3.1337 -0.5486  0.3677
 3205TIP3    H231251   5.792   4.686   0.643  2.4886  0.1159 -0.9887
 3206TIP3   OH231252   2.742   0.235   1.673  0.0006 -0.1757 -0.0546
 3206TIP3    H131253   2.770   0.143   1.670 -2.0013 -0.8149 -1.8650
 3206TIP3    H231254   2.791   0.277   1.602  0.4089  0.0234  0.3368
 3207TIP3   OH231255   4.545   3.484   0.706 -0.1982  0.2608  0.5928
 3207TIP3    H131256   4.532   3.397   0.746  1.4544  0.0978  0.8662
 3207TIP3    H231257   4.565   3.541   0.780  1.9901  0.1526  0.1373
 3208TIP3   OH231258   0.881   4.333   8.462  0.6662  0.3808 -0.2184
 3208TIP3    H131259   0.910   4.287   8.541  2.2849  0.8584 -0.4871
 3208TIP3    H231260   0.862   4.422   8.491 -2.9928 -0.4730  0.4058
 3209TIP3   OH231261   5.108   4.164   8.589 -0.0814  0.1263  0.0403
 3209TIP3    H131262   5.194   4.173   8.630  0.0743  1.9120 -0.5744
 3209TIP3    H231263   5.048   4.207   8.650 -0.0045  1.8270 -1.0013
 3210TIP3   OH231264   5.152   2.912   6.592 -0.3286  0.1806 -0.0447
 3210TIP3    H131265   5.119   2.943   6.677  1.1118  1.8435 -0.0403
 3210TIP3    H231266   5.228   2.858   6.614 -0.3784  0.0251 -0.2529
 3211TIP3   OH231267   1.565   4.546   1.096 -0.1386 -0.2260  0.3820
 3211TIP3    H131268   1.639   4.549   1.035 -0.0334  0.1813  0.5231
 3211TIP3    H231269   1.588   4.476   1.158 -1.6869 -2.8652 -1.8277
 3212TIP3   OH231270   1.912   0.813   7.419 -0.3166 -0.0673  0.8041
 3212TIP3    H131271   1.825   0.853   7.415 -0.2709  0.0851  1.2249
 3212TIP3    H231272   1.926   0.796   7.513  0.0209 -0.2792  0.7187
 3213TIP3   OH231273   0.719   0.767   7.463 -0.0590 -0.1089  0.0992
 3213TIP3    H131274   0.749   0.681   7.492  1.4565  0.2023 -0.4885
 3213TIP3    H231275   0.689   0.810   7.543 -0.6457 -1.0860  0.4269
 3214TIP3   OH231276   1.303   5.688   2.078  0.6941 -0.2737  0.0812
 3214TIP3    H131277   1.378   5.634   2.102  1.6092  0.9442  0.0034
 3214TIP3    H231278   1.340   5.770   2.047 -0.5569 -0.5653 -2.4849
 3215TIP3   OH231279   3.595   0.616   0.065  0.1035  0.1116  0.6929
 3215TIP3    H131280   3.648   0.670   0.123 -0.8530  0.0010  1.7157
 3215TIP3    H231281   3.648   0.604  -0.014  0.6553  1.8649  0.7695
 3216TIP3   OH231282   1.414   6.434   1.191  0.0780 -0.0506  0.1746
 3216TIP3    H131283   1.322   6.413   1.173  0.0800 -0.4065  0.5706
 3216TIP3    H231284   1.430   6.401   1.279  0.2758  1.0174  0.5632
 3217TIP3   OH231285   1.245   0.431   8.272 -0.1744  0.4657 -0.1473
 3217TIP3    H131286   1.223   0.422   8.365  0.3723  2.7828  0.2689
 3217TIP3    H231287   1.340   0.420   8.269 -0.0982  1.1322 -0.3008
 3218TIP3   OH231288   5.060   0.183   0.124 -0.3929 -0.1553 -0.1651
 3218TIP3    H131289   5.139   0.214   0.080 -0.7591 -0.6040 -1.1562
 3218TIP3    H231290   5.004   0.151   0.053 -1.3527 -0.0883  0.5499
 3219TIP3   OH231291   0.102   3.141   8.749  0.2251  0.0928 -0.3739
 3219TIP3    H131292   0.031   3.083   8.722 -0.1054  1.3371 -2.4194
 3219TIP3    H231293   0.182   3.092   8.734 -0.1305 -1.0426  1.2136
 3220TIP3   OH231294   0.034   1.911   6.946 -0.4254  0.2338  0.1701
 3220TIP3    H131295  -0.014   1.993   6.954  0.1776  0.7062 -0.9272
 3220TIP3    H231296   0.011   1.877   6.860 -0.7205 -0.8044  0.6358
 3221TIP3   OH231297   4.273   1.488   7.968  0.2370 -0.2493 -0.2299
 3221TIP3    H131298   4.247   1.425   7.900 -2.2367 -1.6789  1.8553
 3221TIP3    H231299   4.212   1.561   7.957 -0.5139 -0.7133  0.6970
 3222TIP3   OH231300   2.338   6.563   8.490 -0.2491  0.4713  0.3388
 3222TIP3    H131301   2.287   6.635   8.529  0.0204  0.8244  0.0460
 3222TIP3    H231302   2.383   6.603   8.416 -2.6118 -0.6794 -1.8926
 3223TIP3   OH231303   1.260   2.624   8.632  0.5379  0.3907  0.6537
 3223TIP3    H131304   1.308   2.696   8.674  1.1045  0.1481  0.4311
 3223TIP3    H231305   1.303   2.545   8.665  0.1399  0.1643  0.6270
 3224TIP3   OH231306   2.641   1.358   1.614 -0.0758 -0.2052  0.5608
 3224TIP3    H131307   2.718   1.307   1.637  0.0401 -0.5149 -0.4668
 3224TIP3    H231308   2.585   1.297   1.567  0.2754  0.7055 -1.1127
 3225TIP3   OH231309   4.976   6.453   8.668 -0.0920 -0.2732 -0.4105
 3225TIP3    H131310   4.920   6.401   8.725 -1.0290  0.6626 -0.4441
 3225TIP3    H231311   5.030   6.505   8.728  1.4035 -1.8006 -0.3636
 3226TIP3   OH231312   3.634   2.108   1.872  0.0601 -0.1036  0.6379
 3226TIP3    H131313   3.577   2.170   1.916  1.5126  0.8940  1.1866
 3226TIP3    H231314   3.688   2.161   1.813  1.3182 -0.8091  1.1026
 3227TIP3   OH231315   5.758   5.304   7.978  0.5992  0.1912  0.2379
 3227TIP3    H131316   5.696   5.251   7.927  0.0265 -0.4235  1.5449
 3227TIP3    H231317   5.712   5.386   7.993  0.4678  0.0860  0.4125
 3228TIP3   OH231318   3.670   6.107   7.745  0.4649  0.1697 -0.8201
 3228TIP3    H131319   3.605   6.041   7.722 -0.1454  0.9964 -1.5342
 3228TIP3    H231320   3.620   6.176   7.790  0.9537  0.5117 -0.7926
 3229TIP3   OH231321   5.757   4.471   8.776 -0.0845  0.2111 -0.0620
 3229TIP3    H131322   5.677   4.522   8.782 -0.2452 -0.0191 -0.2203
 3229TIP3    H231323   5.818   4.513   8.836 -0.5097  0.0559  0.4808
 3230TIP3   OH231324   5.631   2.445   1.170 -0.6118  0.0409  0.2432
 3230TIP3    H131325   5.721   2.421   1.150 -0.5488  1.8408 -2.0862
 3230TIP3    H231326   5.638   2.514   1.235  0.0346  2.5401 -2.2732
 3231TIP3   OH231327   1.530   4.804   0.732  0.3977 -0.6001 -0.4136
 3231TIP3    H131328   1.454   4.775   0.781  0.1010  0.5408 -0.1547
 3231TIP3    H231329   1.562   4.881   0.780  0.3212  0.3287 -1.7772
 3232TIP3   OH231330   2.483   2.324   1.208  0.6108  0.0585  0.3000
 3232TIP3    H131331   2.559   2.366   1.246  1.0448 -0.8027  0.4156
 3232TIP3    H231332   2.489   2.233   1.237 -1.0500  0.2103  1.2363
 3233TIP3   OH231333   2.654   1.050   7.070  0.2820  0.3535 -0.0685
 3233TIP3    H131334   2.587   1.115   7.094 -0.1075 -0.3977  0.9318
 3233TIP3    H231335   2.623   1.014   6.987 -0.4644  0.1689  0.2784
 3234TIP3   OH231336   4.277   6.215   7.328  0.3143 -0.0403 -0.2450
 3234TIP3    H131337   4.243   6.134   7.291 -0.8411  0.3574 -0.0760
 3234TIP3    H231338   4.204   6.252   7.377  1.1143  0.6291  0.4730
 3235TIP3   OH231339   2.501   6.499   6.719 -0.0976 -0.2021  0.0553
 3235TIP3    H131340   2.462   6.472   6.636 -0.1516 -0.7664  0.2568
 3235TIP3    H231341   2.583   6.449   6.724 -0.1748 -0.2909  0.4180
 3236TIP3   OH231342   4.508   0.278   8.358  0.1131  0.6446  0.2408
 3236TIP3    H131343   4.414   0.283   8.370  0.0538 -0.6106  0.4299
 3236TIP3    H231344   4.522   0.201   8.303  1.1645 -1.1103  2.7604
 3237TIP3   OH231345   5.511   3.268   2.103 -0.2208  0.4303 -0.0176
 3237TIP3    H131346   5.476   3.254   2.015 -0.2369 -0.9147  0.1872
 3237TIP3    H231347   5.472   3.351   2.131 -0.6725  0.5835 -1.0495
 3238TIP3   OH231348   5.319   2.321   2.081 -0.3012  0.4574  0.2500
 3238TIP3    H131349   5.338   2.231   2.054 -1.3334 -0.2672  1.7771
 3238TIP3    H231350   5.393   2.345   2.137  1.5114  1.7282 -2.4608
 3239TIP3   OH231351   4.977   3.513   1.630  0.2585 -0.3106  0.6634
 3239TIP3    H131352   5.012   3.493   1.544 -1.1547 -0.6917  0.1401
 3239TIP3    H231353   5.052   3.543   1.681  0.6533  2.9037 -1.5770
 3240TIP3   OH231354   4.241   3.277   0.556 -0.0307  0.9090 -0.0155
 3240TIP3    H131355   4.223   3.291   0.649  0.1089  1.1536 -0.0242
 3240TIP3    H231356   4.287   3.356   0.528  0.5690  0.5266 -0.1255
 3241TIP3   OH231357   0.575   6.699   7.519 -0.5297  0.2381  0.0592
 3241TIP3    H131358   0.552   6.620   7.568  0.6829  0.4409  0.9906
 3241TIP3    H231359   0.508   6.705   7.451 -1.0647 -1.1787  0.4310
 3242TIP3   OH231360   3.822   6.315   0.768  0.3965 -0.6389  0.3980
 3242TIP3    H131361   3.749   6.341   0.712  0.6297 -1.0250 -0.0825
 3242TIP3    H231362   3.831   6.221   0.755  1.9387 -0.3727 -0.6884
 3243TIP3   OH231363   4.517   1.887   8.579  0.2019  0.2587  0.0371
 3243TIP3    H131364   4.472   1.846   8.653  1.9115 -0.0922  0.9500
 3243TIP3    H231365   4.523   1.817   8.513  0.7718 -0.1870  0.5430
 3244TIP3   OH231366   0.086   0.240   2.279 -0.4187  1.2144 -0.2216
 3244TIP3    H131367   0.103   0.146   2.288 -1.2466  1.1066  0.3764
 3244TIP3    H231368   0.139   0.280   2.348 -3.2186  0.7846  2.3925
 3245TIP3   OH231369   3.952   3.195   7.864 -0.1556  0.2239 -0.2061
 3245TIP3    H131370   3.961   3.133   7.791 -0.1508  0.1989 -0.1843
 3245TIP3    H231371   3.857   3.204   7.876 -0.3560  3.0032 -2.6109
 3246TIP3   OH231372   0.137   2.020   2.030  0.6678 -0.9191 -0.4880
 3246TIP3    H131373   0.072   1.958   2.062  0.4267 -0.1069  0.6479
 3246TIP3    H231374   0.105   2.106   2.058  2.9561 -0.6079  1.4792
 3247TIP3   OH231375   2.866   3.797   1.120  0.2153 -0.1399  0.2318
 3247TIP3    H131376   2.960   3.790   1.107  0.4041 -0.7158  1.6822
 3247TIP3    H231377   2.833   3.708   1.105 -0.2126  0.2019 -0.9577
 3248TIP3   OH231378   6.714   3.335   0.804 -0.1115  0.7298 -0.3757
 3248TIP3    H131379   6.697   3.404   0.868 -0.7571  2.4142 -2.2151
 3248TIP3    H231380   6.754   3.381   0.730  1.9936 -1.3604 -0.6580
 3249TIP3   OH231381   3.887   3.156   1.445  0.1058 -0.4218 -0.2770
 3249TIP3    H131382   3.897   3.241   1.489 -1.0834 -0.0981 -0.5773
 3249TIP3    H231383   3.970   3.143   1.399  0.2900  0.6256 -0.2867
 3250TIP3   OH231384   1.323   3.240   7.211 -0.0905 -0.6163  0.4074
 3250TIP3    H131385   1.258   3.259   7.144  1.1869 -3.0907 -1.7286
 3250TIP3    H231386   1.307   3.148   7.234  1.5711 -0.7779  1.0666
 3251TIP3   OH231387   4.039   6.575   7.239  0.6292  0.0757  0.2839
 3251TIP3    H131388   4.026   6.557   7.146 -1.5781  1.7739  0.1897
 3251TIP3    H231389   3.973   6.520   7.283  1.8375 -0.9236  0.9031
 3252TIP3   OH231390   6.568   3.001   0.080  0.0692 -1.0238 -0.2026
 3252TIP3    H131391   6.607   3.049   0.007 -0.0736 -1.1425 -0.3585
 3252TIP3    H231392   6.603   2.912   0.072  0.6849 -0.8318  0.3507
 3253TIP3   OH231393   4.060   1.212   0.132 -0.0678  0.0739  0.4280
 3253TIP3    H131394   4.103   1.234   0.214  0.4089  0.7999  0.0048
 3253TIP3    H231395   4.129   1.173   0.078 -0.6612 -1.5373  0.7852
 3254TIP3   OH231396   5.972   5.615   7.102  0.5252 -0.0174  0.5093
 3254TIP3    H131397   6.049   5.560   7.106  0.9267  0.5275  0.4490
 3254TIP3    H231398   5.898   5.555   7.107  0.9460 -0.6383 -0.5231
 3255TIP3   OH231399   3.790   5.867   8.421  0.0698 -0.7704  0.3694
 3255TIP3    H131400   3.731   5.942   8.415  1.0523 -0.0408 -0.6386
 3255TIP3    H231401   3.789   5.828   8.333  1.7782 -0.1701  0.0440
 3256TIP3   OH231402   2.607   2.109   0.550  0.0953  0.2990  0.4414
 3256TIP3    H131403   2.663   2.172   0.504 -1.6694  1.0786 -0.7608
 3256TIP3    H231404   2.540   2.086   0.486 -0.8385 -0.7707  1.7605
 3257TIP3   OH231405   1.456   4.473   0.320 -0.3102 -0.3644 -0.0530
 3257TIP3    H131406   1.537   4.523   0.310  0.0446 -1.0452 -0.6711
 3257TIP3    H231407   1.388   4.532   0.289  0.1216 -0.2852 -0.9082
 3258TIP3   OH231408   3.766   2.040   0.306  0.5745 -0.0063 -0.3043
 3258TIP3    H131409   3.784   2.074   0.218  3.1756 -2.1991 -0.7542
 3258TIP3    H231410   3.679   1.999   0.297 -0.3323  1.9632 -1.0912
 3259TIP3   OH231411   1.850   4.527   2.189 -0.0779 -0.4840 -0.0668
 3259TIP3    H131412   1.828   4.552   2.279  0.1960 -2.2094  0.5191
 3259TIP3    H231413   1.911   4.596   2.160 -1.6698  1.1625  0.3298
 3260TIP3   OH231414   5.778   6.295   7.145 -0.2434  0.5711 -0.1858
 3260TIP3    H131415   5.832   6.285   7.066 -0.0380  0.2234 -0.0038
 3260TIP3    H231416   5.761   6.389   7.151  0.2089  0.6655 -0.3338
 3261TIP3   OH231417   6.763   3.710   0.506 -0.0104  0.4922  0.3638
 3261TIP3    H131418   6.858   3.702   0.496  0.1938  1.9215  0.8926
 3261TIP3    H231419   6.740   3.789   0.458 -0.5077  1.6406  2.3607
 3262TIP3   OH231420   2.277   5.646   0.032  0.0562 -0.1945 -0.1432
 3262TIP3    H131421   2.239   5.571   0.078 -0.2120 -1.3786 -2.2029
 3262TIP3    H231422   2.260   5.629  -0.060  1.2394  1.7294 -0.7663
 3263TIP3   OH231423   2.495   1.597   1.267 -0.0573  0.1447  0.0350
 3263TIP3    H131424   2.541   1.541   1.204  0.6207  2.5703 -1.7619
 3263TIP3    H231425   2.409   1.614   1.226 -0.2196  0.4698  0.5049
 3264TIP3   OH231426   6.661   1.284   8.800 -0.3470  0.1430  0.5583
 3264TIP3    H131427   6.637   1.193   8.785  0.2445 -0.0738  0.9158
 3264TIP3    H231428   6.600   1.334   8.745 -1.0492 -0.4315  0.7916
 3265TIP3   OH231429   3.478   3.234   7.861  0.2766  0.4288 -0.0099
 3265TIP3    H131430   3.550   3.280   7.818 -0.1273  0.5719 -0.5540
 3265TIP3    H231431   3.402   3.290   7.846  0.0227  0.1993  0.4120
 3266TIP3   OH231432   3.459   1.097   1.574 -0.3774 -0.0837 -0.2336
 3266TIP3    H131433   3.548   1.132   1.565 -0.6813  0.4381 -1.6026
 3266TIP3    H231434   3.426   1.135   1.655 -0.2095  1.8061 -0.9865
 3267TIP3   OH231435   6.418   1.088   7.537 -0.7974 -0.3774 -0.6814
 3267TIP3    H131436   6.357   1.052   7.472 -0.8360 -0.1746 -0.7598
 3267TIP3    H231437   6.473   1.148   7.487 -1.6724  0.7723 -0.2908
 3268TIP3   OH231438   4.219   5.181   0.626  0.2292  0.2097  0.5659
 3268TIP3    H131439   4.205   5.194   0.720 -0.3394 -1.7883  0.8010
 3268TIP3    H231440   4.227   5.270   0.591  0.7287  1.0006  2.5218
 3269TIP3   OH231441   5.669   5.184   1.020 -0.3484 -0.3499 -0.2014
 3269TIP3    H131442   5.745   5.173   0.963  0.9625  0.7919  1.2290
 3269TIP3    H231443   5.632   5.269   0.996 -1.0746 -0.8089 -0.7521
 3270TIP3   OH231444   2.366   0.970   1.164  0.9196 -0.0380  0.2453
 3270TIP3    H131445   2.362   0.926   1.079 -0.1061 -1.0959  0.8032
 3270TIP3    H231446   2.374   0.898   1.227 -2.0139  0.3786  1.2749
 3271TIP3   OH231447   0.775   3.794   1.496  0.1767  0.0351 -0.5733
 3271TIP3    H131448   0.699   3.736   1.503  0.7103 -0.9284 -2.0454
 3271TIP3    H231449   0.809   3.800   1.585  0.0661 -1.9080 -0.3486
 3272TIP3   OH231450   1.057   5.911   6.319  0.1520 -0.2520  0.2658
 3272TIP3    H131451   1.140   5.867   6.301  0.4600  0.5228 -0.2550
 3272TIP3    H231452   1.037   5.886   6.409  1.1215 -0.1822  0.5201
 3273TIP3   OH231453   3.821   2.287   1.096 -0.2440 -0.4019 -0.0452
 3273TIP3    H131454   3.894   2.250   1.046  0.2021 -0.9368  0.9668
 3273TIP3    H231455   3.860   2.354   1.150 -0.1224 -1.9290  1.8669
 3274TIP3   OH231456   5.916   2.967   1.945 -0.0721  0.8389 -0.7689
 3274TIP3    H131457   5.868   2.890   1.976 -1.1827  2.1541  0.9351
 3274TIP3    H231458   5.850   3.022   1.904  0.4313  1.5526 -0.6468
 3275TIP3   OH231459   5.419   1.427   1.892 -0.1720  0.3530  0.0020
 3275TIP3    H131460   5.325   1.429   1.909  0.0630  1.0036  1.3530
 3275TIP3    H231461   5.459   1.422   1.979  1.0302 -0.9020 -0.5838
 3276TIP3   OH231462   4.008   2.579   7.863  0.4496 -0.0084 -0.0365
 3276TIP3    H131463   3.982   2.542   7.948 -0.5686 -1.4845 -0.9403
 3276TIP3    H231464   4.070   2.516   7.827 -0.9046 -0.6356 -1.3801
 3277TIP3   OH231465   0.629   6.108   7.520 -0.2189 -0.2931  0.3762
 3277TIP3    H131466   0.648   6.026   7.475 -0.3798 -0.8141  1.2338
 3277TIP3    H231467   0.558   6.087   7.580  1.2966 -0.1597  2.3271
 3278TIP3   OH231468   6.733   0.991   8.791  0.4476 -0.5068 -0.1107
 3278TIP3    H131469   6.816   1.006   8.836 -0.7021  0.0063  2.0154
 3278TIP3    H231470   6.676   0.955   8.859 -0.5378 -2.7445 -1.9870
 3279TIP3   OH231471   2.417   0.453   1.263 -0.0142 -0.0370 -0.4027
 3279TIP3    H131472   2.439   0.390   1.332  1.9018  1.4119  0.3766
 3279TIP3    H231473   2.356   0.405   1.206  2.0024 -2.9275 -0.3560
 3280TIP3   OH231474   0.463   2.433   6.962 -1.0142 -0.1244  0.1422
 3280TIP3    H131475   0.546   2.446   7.007 -1.6861  2.9172  0.7748
 3280TIP3    H231476   0.477   2.357   6.907  1.6293 -0.7032  1.4331
 3281TIP3   OH231477   3.650   1.497   7.503 -1.1487 -0.2335  0.1067
 3281TIP3    H131478   3.726   1.542   7.467 -1.1383 -0.5532 -0.2633
 3281TIP3    H231479   3.670   1.404   7.496 -0.7199 -0.3119  1.8332
 3282TIP3   OH231480   3.975   2.891   7.676  0.3912 -0.2904  0.2353
 3282TIP3    H131481   3.932   2.815   7.714 -0.0412 -0.4821 -0.5938
 3282TIP3    H231482   4.031   2.855   7.607 -2.5453  0.2840 -2.6991
 3283TIP3   OH231483   1.738   6.174   1.681 -0.0932  0.7850  1.3275
 3283TIP3    H131484   1.693   6.249   1.720 -2.1547 -0.5253  1.6279
 3283TIP3    H231485   1.668   6.119   1.647  1.3709 -0.8532  0.7985
 3284TIP3   OH231486   2.483   2.855   1.471 -0.2517  0.3631 -0.3158
 3284TIP3    H131487   2.476   2.766   1.506 -2.1106  1.0922  1.4062
 3284TIP3    H231488   2.564   2.889   1.509  0.6135 -0.6472 -1.1988
 3285TIP3   OH231489   1.544   2.826   8.511 -0.1168  1.4251 -0.7557
 3285TIP3    H131490   1.537   2.758   8.577 -3.6314  1.5109 -0.8301
 3285TIP3    H231491   1.571   2.904   8.559 -2.0725  1.3596  0.5808
 3286TIP3   OH231492   2.167   5.107   0.402 -0.0150 -0.2027 -0.2400
 3286TIP3    H131493   2.106   5.053   0.352  0.5416  1.1069 -2.4647
 3286TIP3    H231494   2.113   5.145   0.472 -1.5114  0.0417 -1.4760
 3287TIP3   OH231495   2.777   2.366   1.661 -0.3058  0.1352 -0.3589
 3287TIP3    H131496   2.856   2.407   1.696 -0.1318 -0.5019  0.0135
 3287TIP3    H231497   2.706   2.401   1.714 -0.0056 -1.0969  0.9083
 3288TIP3   OH231498   2.933   6.248   8.006 -0.0346 -0.4049  0.0387
 3288TIP3    H131499   2.862   6.190   7.978  0.8116 -1.6496  0.4405
 3288TIP3    H231500   2.989   6.194   8.062  1.8117  0.2534 -1.0839
 3289TIP3   OH231501   1.439   0.602   1.532 -0.3061  0.5540  0.1822
 3289TIP3    H131502   1.358   0.570   1.571  0.0387  0.5254  0.8821
 3289TIP3    H231503   1.425   0.697   1.521 -0.2939  0.6073  0.6397
 3290TIP3   OH231504   2.254   5.471   8.533  0.2515  0.5038  0.1314
 3290TIP3    H131505   2.194   5.509   8.469 -1.1317 -3.1937 -1.0106
 3290TIP3    H231506   2.202   5.406   8.580  2.6940 -1.0347  0.9416
 3291TIP3   OH231507   1.394   5.492   1.065 -0.3517 -0.0622 -0.2794
 3291TIP3    H131508   1.319   5.542   1.031 -0.0477  0.4478 -0.1988
 3291TIP3    H231509   1.455   5.488   0.991  0.3935  1.2072  0.2498
 3292TIP3   OH231510   3.545   5.594   1.172  0.3667  0.1378  0.2087
 3292TIP3    H131511   3.461   5.636   1.193 -0.2197 -0.9602  0.1255
 3292TIP3    H231512   3.588   5.656   1.113 -0.3732  0.7406  0.2859
 3293TIP3   OH231513   5.726   4.753   2.550 -0.3780  0.2914  0.7889
 3293TIP3    H131514   5.652   4.802   2.583 -0.6095 -0.6888  1.7604
 3293TIP3    H231515   5.802   4.791   2.594 -0.3063  1.0841  0.0282
 3294TIP3   OH231516   6.540   2.117   8.477 -0.4519 -0.2910  0.2868
 3294TIP3    H131517   6.500   2.033   8.499  0.0336 -0.6126 -0.0244
 3294TIP3    H231518   6.468   2.180   8.481 -0.8711 -0.7633  0.2790
 3295TIP3   OH231519   5.702   0.675   7.623  0.1226 -0.0751 -0.2393
 3295TIP3    H131520   5.706   0.697   7.716  0.7569  0.7944 -0.4596
 3295TIP3    H231521   5.734   0.585   7.618 -0.6774 -0.4215  0.4657
 3296TIP3   OH231522   4.418   6.552   1.215  0.0737  0.1934  0.0959
 3296TIP3    H131523   4.376   6.636   1.198  1.1111  0.5639 -0.7405
 3296TIP3    H231524   4.395   6.498   1.139 -0.9652 -0.4375  0.8465
 3297TIP3   OH231525   4.765   2.484   7.871  0.3414 -0.0550 -0.1088
 3297TIP3    H131526   4.676   2.510   7.847  1.0931  0.5710 -2.6035
 3297TIP3    H231527   4.821   2.541   7.819  2.1704 -1.9726 -0.3938
 3298TIP3   OH231528   4.239   3.226   2.193  0.6688  0.1155 -0.1753
 3298TIP3    H131529   4.168   3.286   2.168 -0.9873 -0.5968  2.4516
 3298TIP3    H231530   4.210   3.141   2.161  1.3159  0.1170 -0.7925
 3299TIP3   OH231531   1.361   3.127   8.793  0.1531 -0.0788 -0.3821
 3299TIP3    H131532   1.344   3.159   8.882  3.2866  0.7449  0.0526
 3299TIP3    H231533   1.407   3.199   8.750  2.1638 -1.8190 -1.3303
 3300TIP3   OH231534   5.267   6.382   6.416 -0.1564 -0.0627 -0.3148
 3300TIP3    H131535   5.265   6.310   6.479 -1.8183 -0.1198 -0.3688
 3300TIP3    H231536   5.175   6.405   6.404  0.3331  1.9161 -0.5053
 3301TIP3   OH231537   3.648   0.652   7.450 -0.7925  0.3951  0.0774
 3301TIP3    H131538   3.666   0.633   7.542  2.4992 -0.5490 -0.6312
 3301TIP3    H231539   3.606   0.572   7.417  1.6138 -0.8901 -0.0504
 3302TIP3   OH231540   0.979   0.592   8.783 -0.4528 -0.3360 -0.1680
 3302TIP3    H131541   0.918   0.520   8.800  0.7032 -1.0079  1.3057
 3302TIP3    H231542   1.036   0.594   8.859 -0.0864  1.7991 -0.4339
 3303TIP3   OH231543   3.013   2.651   0.130 -0.5948 -0.3622 -0.1150
 3303TIP3    H131544   3.026   2.564   0.091  2.8509 -0.1678  0.2717
 3303TIP3    H231545   3.018   2.635   0.225  1.4641  0.3440 -0.0629
 3304TIP3   OH231546   2.232   2.290   7.234  0.3626 -0.0133  0.3296
 3304TIP3    H131547   2.297   2.243   7.286  0.3253  2.3566  2.7656
 3304TIP3    H231548   2.279   2.317   7.155  1.7398 -0.1588  1.0664
 3305TIP3   OH231549   5.358   2.694   7.726 -0.3403 -0.4121  0.0430
 3305TIP3    H131550   5.441   2.689   7.680 -0.5840 -0.4556 -0.3930
 3305TIP3    H231551   5.293   2.716   7.659 -0.5883  0.2503  0.4873
 3306TIP3   OH231552   5.562   5.919   1.312 -0.0486  0.1884 -0.7369
 3306TIP3    H131553   5.536   5.871   1.392 -0.9775  0.6282 -0.7625
 3306TIP3    H231554   5.656   5.904   1.305 -0.4953 -2.8754 -1.5498
 3307TIP3   OH231555   4.544   0.696   7.475 -0.3021 -0.6120  0.0807
 3307TIP3    H131556   4.507   0.692   7.387  2.7063 -1.9618 -1.2550
 3307TIP3    H231557   4.613   0.762   7.470 -0.3439 -0.4051  1.5576
 3308TIP3   OH231558   6.223   0.191   7.494  0.0060 -0.1425  0.0046
 3308TIP3    H131559   6.212   0.162   7.584  1.3160  0.9804  0.5619
 3308TIP3    H231560   6.227   0.110   7.443 -0.6647 -0.7887  0.9480
 3309TIP3   OH231561   3.178   0.458   7.404  0.0909  0.0049 -0.7362
 3309TIP3    H131562   3.118   0.412   7.345 -0.7417 -0.1957  0.2358
 3309TIP3    H231563   3.125   0.478   7.481  1.3506 -0.4567  0.2870
 3310TIP3   OH231564   2.997   0.109   0.159  0.1166 -0.4533  0.0796
 3310TIP3    H131565   2.945   0.043   0.112 -1.0054  0.6307 -0.2730
 3310TIP3    H231566   3.039   0.160   0.089  0.6339 -0.5247  0.3364
 3311TIP3   OH231567   2.799   1.914   8.514 -0.3078  0.1991  0.2578
 3311TIP3    H131568   2.884   1.881   8.541 -0.3868  0.6353  1.0458
 3311TIP3    H231569   2.740   1.891   8.586 -0.6355  0.8887  0.2127
 3312TIP3   OH231570   3.702   1.452   6.261  0.4121 -0.3373  0.1789
 3312TIP3    H131571   3.781   1.499   6.234  0.3899 -0.9212 -0.9797
 3312TIP3    H231572   3.709   1.367   6.217 -0.6865 -0.5409  0.3674
 3313TIP3   OH231573   1.266   3.782   7.986 -0.2750  0.0774  0.0002
 3313TIP3    H131574   1.211   3.712   7.950  1.3298 -0.7168 -1.0300
 3313TIP3    H231575   1.306   3.743   8.063 -0.1859  0.2224  0.0273
 3314TIP3   OH231576   1.015   4.637   8.310 -0.2355 -0.1505  0.5464
 3314TIP3    H131577   0.933   4.601   8.343 -1.3461 -0.5376 -2.2889
 3314TIP3    H231578   1.055   4.564   8.262  3.0074 -0.6842  3.6685
 3315TIP3   OH231579   0.226   3.636   0.799  0.4964 -0.3113 -0.0637
 3315TIP3    H131580   0.134   3.628   0.774  0.7995 -2.3745 -0.7294
 3315TIP3    H231581   0.251   3.548   0.829  2.0357  0.4050  0.9157
 3316TIP3   OH231582   6.173   6.444   7.884  0.2885  0.0981  0.2716
 3316TIP3    H131583   6.095   6.484   7.921 -2.3984 -1.7326 -2.8567
 3316TIP3    H231584   6.174   6.473   7.792  1.3472 -2.5161 -0.6407
 3317TIP3   OH231585   0.118   5.235   0.937 -0.4940 -0.4327 -0.0212
 3317TIP3    H131586   0.027   5.247   0.962 -0.1191 -1.4609  2.0353
 3317TIP3    H231587   0.168   5.270   1.010  0.6928 -3.0393  0.5212
 3318TIP3   OH231588   5.114   3.999   7.381  0.0006  0.0666 -0.2508
 3318TIP3    H131589   5.172   3.981   7.307 -1.5200  0.3238 -1.5629
 3318TIP3    H231590   5.135   4.088   7.408  0.9146 -0.2087 -0.0147
 3319TIP3   OH231591   4.912   1.648   8.334  0.3042  0.1629  0.1971
 3319TIP3    H131592   4.888   1.705   8.407 -1.0113  1.2868 -1.0391
 3319TIP3    H231593   4.829   1.607   8.309  0.2641  1.3760 -1.9262
 3320TIP3   OH231594   3.297   2.705   8.145  0.3129 -0.2989 -0.2313
 3320TIP3    H131595   3.257   2.740   8.225  0.4221  0.4935 -0.5064
 3320TIP3    H231596   3.311   2.783   8.090 -2.1533 -1.0291 -2.1089
 3321TIP3   OH231597   2.239   3.409   0.918  0.2349  0.0339  0.4418
 3321TIP3    H131598   2.175   3.338   0.923  0.1860 -0.0854 -1.1707
 3321TIP3    H231599   2.213   3.471   0.986 -0.1886 -1.1059  1.3564
 3322TIP3   OH231600   4.911   3.294   0.343  0.5106  0.6283 -0.3865
 3322TIP3    H131601   4.907   3.201   0.322  1.9036  0.2233  0.9953
 3322TIP3    H231602   4.931   3.337   0.260 -2.3833 -0.0040 -1.5382
 3323TIP3   OH231603   6.792   2.674   7.830 -0.6595  0.3425  0.1776
 3323TIP3    H131604   6.750   2.713   7.907  2.7121  0.5902  2.0901
 3323TIP3    H231605   6.817   2.586   7.859  2.3731  1.1082  0.1979
 3324TIP3   OH231606   3.569   5.505   0.429  0.0250  0.3468 -0.6637
 3324TIP3    H131607   3.622   5.445   0.376 -0.0464 -0.9250  0.6417
 3324TIP3    H231608   3.529   5.450   0.495 -1.7481  1.5383 -0.6831
 3325TIP3   OH231609   1.105   0.960   1.630 -0.2517 -0.0442  0.1963
 3325TIP3    H131610   1.128   0.893   1.566 -0.7286 -1.0181  1.0224
 3325TIP3    H231611   1.087   1.038   1.578 -1.8627 -1.1427 -0.9753
 3326TIP3   OH231612   3.949   5.260   6.456 -0.1348 -0.3978  0.4244
 3326TIP3    H131613   4.040   5.275   6.481  0.3282  0.5305 -1.5936
 3326TIP3    H231614   3.941   5.165   6.452  1.0669 -0.4819 -0.3775
 3327TIP3   OH231615   6.512   1.605   0.001 -0.6992 -0.2021 -0.3238
 3327TIP3    H131616   6.574   1.558  -0.055  0.0618  0.8890 -0.4335
 3327TIP3    H231617   6.528   1.698  -0.017 -1.0727  0.1539  1.0114
 3328TIP3   OH231618   4.049   6.058   1.263  0.1527  0.1412  1.1430
 3328TIP3    H131619   4.010   5.978   1.298  1.5127 -0.9056  0.3382
 3328TIP3    H231620   3.992   6.128   1.294 -1.1463 -1.1466  1.7442
 3329TIP3   OH231621   4.380   4.903   6.899 -0.1596  0.5461 -0.1269
 3329TIP3    H131622   4.411   4.957   6.826  0.8204  1.2370  0.7635
 3329TIP3    H231623   4.358   4.819   6.860  1.0932  0.6453 -1.1160
 3330TIP3   OH231624   3.919   1.960   1.695  0.7404  0.5789  0.2382
 3330TIP3    H131625   3.846   2.009   1.658  1.1365  2.0125  1.2702
 3330TIP3    H231626   3.993   1.980   1.637 -0.1645 -3.1523 -2.5444
 3331TIP3   OH231627   1.746   4.379   7.967 -0.0614  0.1275 -0.3873
 3331TIP3    H131628   1.799   4.450   7.931  1.1514  0.0749  1.1499
 3331TIP3    H231629   1.711   4.333   7.891 -1.9681  3.1002 -1.4778
 3332TIP3   OH231630   0.568   0.977   7.582  0.2083  0.1490  0.3547
 3332TIP3    H131631   0.507   0.963   7.655  0.7578  0.6469  0.9178
 3332TIP3    H231632   0.516   1.022   7.516  0.0111  0.7836  0.9253
 3333TIP3   OH231633   3.540   3.665   8.138 -0.2719  0.1092 -0.3074
 3333TIP3    H131634   3.452   3.680   8.105  0.2457  1.1715 -1.2575
 3333TIP3    H231635   3.531   3.587   8.194 -2.5300  2.1954  2.5826
 3334TIP3   OH231636   3.353   5.778   6.741  0.2035  0.2380 -0.2155
 3334TIP3    H131637   3.283   5.745   6.798  0.7252 -0.4511  0.0425
 3334TIP3    H231638   3.307   5.814   6.665 -0.3868 -1.5753 -0.7665
 3335TIP3   OH231639   4.587   3.895   7.749 -0.0816 -0.1085 -0.7455
 3335TIP3    H131640   4.628   3.832   7.808 -2.1884 -1.9589 -1.1152
 3335TIP3    H231641   4.529   3.946   7.806  0.0905  0.0838 -0.7468
 3336TIP3   OH231642   2.450   2.627   8.209  0.0444  0.1095  0.5652
 3336TIP3    H131643   2.456   2.694   8.277 -0.8691  0.0228  0.7536
 3336TIP3    H231644   2.447   2.676   8.127  0.9287  0.2253  0.5979
 3337TIP3   OH231645   0.598   3.356   1.656  0.5825  0.3907 -0.2565
 3337TIP3    H131646   0.551   3.435   1.630 -0.4254  0.2201  0.9263
 3337TIP3    H231647   0.565   3.288   1.598 -2.0805 -0.1200  1.6338
 3338TIP3   OH231648   6.499   2.810   6.546  0.4764 -0.0247 -0.0925
 3338TIP3    H131649   6.486   2.902   6.566  2.5965  0.1918  0.4851
 3338TIP3    H231650   6.582   2.787   6.588  0.4738 -1.9463 -1.0168
 3339TIP3   OH231651   2.622   1.034   1.241  0.4129 -0.3969 -0.1372
 3339TIP3    H131652   2.548   1.008   1.187  0.2465 -0.7790  0.2662
 3339TIP3    H231653   2.682   0.959   1.239  1.4133  0.3899 -1.5027
 3340TIP3   OH231654   2.711   3.015   0.570  0.4390  0.2740  0.0995
 3340TIP3    H131655   2.617   3.019   0.556  0.3481 -0.1093  0.5748
 3340TIP3    H231656   2.747   3.081   0.511 -0.0406 -0.3173 -0.8904
 3341TIP3   OH231657   4.007   4.744   8.208  0.2744 -0.4101  0.2070
 3341TIP3    H131658   3.963   4.829   8.200  1.6200  0.2396 -0.7345
 3341TIP3    H231659   4.100   4.767   8.218  0.5587 -1.7646  0.9013
 3342TIP3   OH231660   3.054   2.491   8.441 -0.2667 -0.2389 -0.1089
 3342TIP3    H131661   3.147   2.477   8.459 -0.7847 -1.6028  1.8789
 3342TIP3    H231662   3.021   2.533   8.520 -1.4433 -0.2937 -0.5592
 3343TIP3   OH231663   2.783   0.470   2.007  0.2806 -0.3427  0.4962
 3343TIP3    H131664   2.795   0.563   1.985 -1.7843  0.2451  1.6332
 3343TIP3    H231665   2.777   0.426   1.922  0.3518  0.6908 -0.0656
 3344TIP3   OH231666   6.245   5.056   8.415  0.2882 -0.7852  0.3507
 3344TIP3    H131667   6.219   5.007   8.336 -0.6367 -1.4951  1.0754
 3344TIP3    H231668   6.195   5.137   8.410  0.8510 -0.4646 -0.2003
 3345TIP3   OH231669   2.339   3.749   0.356 -0.2613 -0.0494  0.2383
 3345TIP3    H131670   2.434   3.740   0.350 -0.1620  1.2426 -0.4719
 3345TIP3    H231671   2.321   3.744   0.450  0.6578  0.8816  0.4865
 3346TIP3   OH231672   5.637   1.369   0.434 -0.2426 -0.1713  0.8709
 3346TIP3    H131673   5.575   1.416   0.378  0.7126  0.4395  0.2963
 3346TIP3    H231674   5.658   1.290   0.385  1.2845  0.7834 -0.1300
 3347TIP3   OH231675   2.929   0.333   7.277 -0.0195  0.2247  0.6154
 3347TIP3    H131676   2.916   0.324   7.371 -0.3614  1.4601  0.7097
 3347TIP3    H231677   2.857   0.285   7.237 -0.1022  0.0331  0.9960
 3348TIP3   OH231678   6.121   2.638   0.244 -0.2951  0.2237 -0.8921
 3348TIP3    H131679   6.071   2.686   0.178  0.9026  0.4135 -1.6869
 3348TIP3    H231680   6.110   2.546   0.221  1.7163  0.3400 -2.6231
 3349TIP3   OH231681   6.237   6.603   1.351  0.9712 -0.9485 -0.1382
 3349TIP3    H131682   6.221   6.675   1.290  0.9669 -1.4327 -0.7102
 3349TIP3    H231683   6.152   6.587   1.392  0.7620 -1.2198 -0.6660
 3350TIP3   OH231684   2.239   0.748   8.412  0.2573 -0.7770 -0.0841
 3350TIP3    H131685   2.248   0.779   8.503  1.2934 -2.4269  0.4103
 3350TIP3    H231686   2.165   0.688   8.415 -0.2239 -0.2214 -0.5292
 3351TIP3   OH231687   3.035   2.559   0.860  0.4427 -0.0963  0.2787
 3351TIP3    H131688   2.987   2.628   0.905  0.2709 -0.5188  0.7490
 3351TIP3    H231689   2.993   2.478   0.889 -1.7834 -0.3024 -2.9749
 3352TIP3   OH231690   4.352   4.336   8.340 -0.1814 -0.0668 -0.2837
 3352TIP3    H131691   4.436   4.307   8.307 -1.1638 -0.1226 -2.9746
 3352TIP3    H231692   4.353   4.312   8.433  3.1657  1.0101  0.0981
 3353TIP3   OH231693   5.446   1.312   8.071  0.6603 -0.1222  0.3051
 3353TIP3    H131694   5.364   1.334   8.028 -0.8789 -0.1690  2.9550
 3353TIP3    H231695   5.490   1.252   8.011 -1.4866 -0.4995 -0.9996
 3354TIP3   OH231696   0.261   6.834   1.043  0.2272  0.3374 -0.4952
 3354TIP3    H131697   0.178   6.799   1.011  0.3790 -1.6368  1.0422
 3354TIP3    H231698   0.288   6.898   0.977 -1.1896 -0.9044 -2.3799
 3355TIP3   OH231699   2.852   6.017   8.806  0.3893  0.2412  0.0993
 3355TIP3    H131700   2.910   6.061   8.743 -0.7909  1.0943 -0.4155
 3355TIP3    H231701   2.768   6.011   8.761 -0.5241  1.0094  1.6542
 3356TIP3   OH231702   6.438   5.262   0.169  0.2358 -0.2847  0.4086
 3356TIP3    H131703   6.373   5.332   0.171  0.5753  0.1494 -1.6156
 3356TIP3    H231704   6.409   5.204   0.098  0.7117 -1.4469  1.1329
 3357TIP3   OH231705   1.035   5.551   6.529 -0.5036 -0.1864 -0.6072
 3357TIP3    H131706   0.941   5.540   6.543 -0.6837  0.7673 -0.9427
 3357TIP3    H231707   1.064   5.466   6.496 -1.7172  0.1573 -2.8186
 3358TIP3   OH231708   4.605   3.629   0.920  0.6798 -0.1653  0.4770
 3358TIP3    H131709   4.604   3.621   1.016 -0.0630 -1.0344  0.4092
 3358TIP3    H231710   4.526   3.679   0.899  0.1658 -1.0389  0.2543
 3359TIP3   OH231711   5.066   6.037   8.167  0.0664 -0.6152 -0.0252
 3359TIP3    H131712   5.119   6.053   8.089  0.5912 -2.3259 -0.0573
 3359TIP3    H231713   5.115   5.972   8.217 -1.4378 -1.4146  0.5058
 3360TIP3   OH231714   6.425   6.468   0.747 -0.0173  0.2973  0.0933
 3360TIP3    H131715   6.392   6.549   0.786 -1.7987  0.6235 -1.9231
 3360TIP3    H231716   6.396   6.399   0.807  0.1528  1.0156  1.0253
 3361TIP3   OH231717   6.415   2.994   6.829 -0.2774  0.0152 -0.0303
 3361TIP3    H131718   6.492   2.990   6.886  0.0085 -3.2947 -0.4110
 3361TIP3    H231719   6.449   3.024   6.744  0.6884 -1.5266 -0.2298
 3362TIP3   OH231720   5.783   1.458   7.588  0.0743 -0.6847  0.1997
 3362TIP3    H131721   5.698   1.502   7.591  1.1705  1.5408  1.0616
 3362TIP3    H231722   5.777   1.398   7.514 -1.2652  1.5924 -1.6660
 3363TIP3   OH231723   0.999   0.092   7.624 -0.0366 -0.6835  0.5387
 3363TIP3    H131724   1.042   0.093   7.710 -1.2378  0.1415  1.1601
 3363TIP3    H231725   0.994   0.185   7.599  0.1944 -0.9084 -0.3857
 3364TIP3   OH231726   0.611   4.986   6.439 -0.4622  0.1551  0.1130
 3364TIP3    H131727   0.666   4.994   6.361 -0.4199 -0.8614  0.0161
 3364TIP3    H231728   0.578   4.896   6.435 -1.0680  0.3350  0.8727
 3365TIP3   OH231729   4.099   0.361   1.127  0.3754  0.2018 -0.0231
 3365TIP3    H131730   4.033   0.362   1.197  0.4306 -0.9762  0.0804
 3365TIP3    H231731   4.166   0.301   1.160 -0.4844 -1.8945 -1.8437
 3366TIP3   OH231732   4.411   2.962   1.465  0.2493  0.9712 -0.0848
 3366TIP3    H131733   4.372   3.043   1.498  0.8992  0.3721  2.3958
 3366TIP3    H231734   4.448   2.920   1.543 -0.9331 -2.2222 -1.0913
 3367TIP3   OH231735   1.117   1.442   0.830 -0.0604  0.1641  0.2887
 3367TIP3    H131736   1.139   1.510   0.767  0.0638  0.0254  0.1807
 3367TIP3    H231737   1.192   1.382   0.828 -0.3134 -0.1502  0.1403
 3368TIP3   OH231738   2.848   5.130   1.020  0.1296  0.3038  0.2695
 3368TIP3    H131739   2.901   5.069   0.970  0.7491 -0.3778  1.6893
 3368TIP3    H231740   2.844   5.209   0.966  1.6237 -0.0360 -0.3940
 3369TIP3   OH231741   6.318   6.764   8.592 -0.7782 -0.4315 -0.2335
 3369TIP3    H131742   6.315   6.753   8.687 -2.2622  1.8604  0.0544
 3369TIP3    H231743   6.406   6.736   8.567  0.2231  0.4878  2.0550
 3370TIP3   OH231744   6.754   6.519   2.322  0.1826 -0.0014 -0.1003
 3370TIP3    H131745   6.761   6.575   2.246 -1.0907 -1.1366 -1.1107
 3370TIP3    H231746   6.785   6.433   2.293 -0.4624 -0.4928  0.5995
 3371TIP3   OH231747   6.523   2.789   1.500  0.1860  0.2387  0.3515
 3371TIP3    H131748   6.472   2.712   1.474  1.6966 -0.9281  0.7022
 3371TIP3    H231749   6.614   2.762   1.490  0.7791  2.5579 -1.1066
 3372TIP3   OH231750   4.557   3.367   1.408  0.2717  0.4863 -0.1458
 3372TIP3    H131751   4.625   3.307   1.437 -0.2830 -0.8425 -1.4478
 3372TIP3    H231752   4.484   3.353   1.469 -0.6185 -1.7464 -1.5886
 3373TIP3   OH231753   0.865   1.124   1.539 -0.0484  0.0416  0.2697
 3373TIP3    H131754   0.940   1.179   1.514  0.6000 -0.3855  1.1907
 3373TIP3    H231755   0.853   1.143   1.632 -1.4245  0.4849  0.0156
 3374TIP3   OH231756   1.425   1.120   7.116  0.6082  0.0759  0.8832
 3374TIP3    H131757   1.367   1.156   7.183  0.1980  1.0931  0.0089
 3374TIP3    H231758   1.512   1.124   7.155  0.2717 -0.1604  1.6819
 3375TIP3   OH231759   2.214   2.130   0.422  0.0451 -0.0800  1.4992
 3375TIP3    H131760   2.286   2.068   0.423  0.1351 -0.0238  0.4259
 3375TIP3    H231761   2.250   2.211   0.458  0.5082 -0.0716  1.0253
 3376TIP3   OH231762   1.764   2.715   8.749  0.3326  0.6288 -0.4166
 3376TIP3    H131763   1.737   2.774   8.819  1.6297  2.4137 -1.3168
 3376TIP3    H231764   1.708   2.638   8.759 -1.0961  1.7903  1.1338
 3377TIP3   OH231765   1.256   1.038   0.428  0.7485 -0.1721 -0.4471
 3377TIP3    H131766   1.263   0.948   0.460 -1.9027 -0.1794  0.4068
 3377TIP3    H231767   1.197   1.032   0.352 -1.4494  1.0187  1.0421
 3378TIP3   OH231768   2.324   4.969   1.306 -0.1744 -0.2756 -0.1812
 3378TIP3    H131769   2.253   5.031   1.322  0.8340  0.8385  0.1186
 3378TIP3    H231770   2.377   5.009   1.237  0.7728 -0.5499  0.3598
 3379TIP3   OH231771   5.664   6.850   1.815  0.0884  0.0924  0.0807
 3379TIP3    H131772   5.572   6.865   1.837  0.3394  2.0832 -0.0920
 3379TIP3    H231773   5.704   6.827   1.899 -0.2112  1.1934  0.5506
 3380TIP3   OH231774   3.303   1.671   6.459  0.4235  0.2039 -0.2198
 3380TIP3    H131775   3.335   1.703   6.375 -0.1661  1.1438 -0.1076
 3380TIP3    H231776   3.276   1.581   6.442  2.8783 -0.5606 -0.3483
 3381TIP3   OH231777   2.781   4.488   1.342 -0.6122  0.5719  0.1106
 3381TIP3    H131778   2.718   4.535   1.286 -0.9478 -0.0933 -0.0792
 3381TIP3    H231779   2.862   4.489   1.292 -0.8113  0.3133 -0.2244
 3382TIP3   OH231780   5.199   6.574   7.007 -0.2786 -0.4056  0.0440
 3382TIP3    H131781   5.274   6.515   6.999 -1.7687 -2.2680 -1.0958
 3382TIP3    H231782   5.223   6.650   6.955  0.8041 -0.9604 -0.3065
 3383TIP3   OH231783   4.862   4.638   7.034  0.0411 -0.3062 -0.1349
 3383TIP3    H131784   4.891   4.707   7.094 -1.6157  1.6202 -1.4085
 3383TIP3    H231785   4.904   4.558   7.067 -1.5875  0.3659  4.1874
 3384TIP3   OH231786   5.664   1.163   7.986  0.3060 -0.0387 -0.2364
 3384TIP3    H131787   5.744   1.156   7.935 -0.2329 -2.6012 -0.8530
 3384TIP3    H231788   5.681   1.113   8.066 -0.2813  0.4082  0.1832
 3385TIP3   OH231789   0.326   6.716   1.457  0.0475 -0.2269 -0.1892
 3385TIP3    H131790   0.385   6.664   1.512  1.1841  1.2728  0.0775
 3385TIP3    H231791   0.353   6.807   1.471 -0.7927  0.3372 -1.8789
 3386TIP3   OH231792   4.320   4.738   2.141  0.4509 -0.0647 -0.3534
 3386TIP3    H131793   4.296   4.709   2.053 -0.4314 -1.6298  0.3621
 3386TIP3    H231794   4.413   4.757   2.135  0.4094 -0.1580 -1.6190
 3387TIP3   OH231795   2.553   2.735   8.603  0.4142  0.1127 -0.1035
 3387TIP3    H131796   2.551   2.830   8.616  0.3016  0.0696  0.2148
 3387TIP3    H231797   2.611   2.722   8.528  1.2966  0.3694  0.5132
 3388TIP3   OH231798   0.889   1.228   0.229 -0.3261  0.1081 -0.4541
 3388TIP3    H131799   0.921   1.198   0.314  0.4475  0.2812 -0.6776
 3388TIP3    H231800   0.966   1.264   0.186 -0.8950  0.8469 -0.8727
 3389TIP3   OH231801   6.466   4.597   1.812 -0.1120  0.0510 -0.2395
 3389TIP3    H131802   6.414   4.532   1.765  1.3102 -0.7846 -0.7216
 3389TIP3    H231803   6.458   4.571   1.904  0.0901 -0.5562 -0.3871
 3390TIP3   OH231804   5.180   2.981   8.094 -0.3434 -0.1802  0.6085
 3390TIP3    H131805   5.088   2.996   8.072 -0.5016 -0.7575  0.8765
 3390TIP3    H231806   5.206   2.907   8.040 -0.6024 -1.3093  1.9802
 3391TIP3   OH231807   2.534   5.076   8.119 -0.6519  0.8147  0.3771
 3391TIP3    H131808   2.500   5.060   8.031  2.3881 -0.3180 -0.7232
 3391TIP3    H231809   2.472   5.031   8.177 -0.6082 -2.0107 -1.5487
 3392TIP3   OH231810   1.954   6.267   7.321  0.6743 -0.2794  0.5315
 3392TIP3    H131811   1.877   6.309   7.360 -0.9144 -0.0608 -2.4621
 3392TIP3    H231812   1.924   6.179   7.299  2.1575 -1.0889  1.6196
 3393TIP3   OH231813   0.399   6.623   8.421  0.2763  0.0780  0.2513
 3393TIP3    H131814   0.469   6.666   8.370 -0.9009  3.1418  0.9801
 3393TIP3    H231815   0.440   6.602   8.505  1.1824 -1.3914 -0.5151
 3394TIP3   OH231816   0.371   2.084   0.377  0.0903 -0.7522 -0.0502
 3394TIP3    H131817   0.385   2.170   0.416 -1.2005 -1.1637  1.4072
 3394TIP3    H231818   0.459   2.054   0.355  0.4991  1.4403 -1.8034
 3395TIP3   OH231819   1.693   0.868   7.085  0.0694 -0.2340 -0.5148
 3395TIP3    H131820   1.734   0.854   7.170 -0.2003  0.8385 -0.1883
 3395TIP3    H231821   1.713   0.959   7.064 -2.9404  0.6917  0.1266
 3396TIP3   OH231822   0.560   5.260   2.710  0.0284 -0.3258  0.3574
 3396TIP3    H131823   0.623   5.331   2.721 -1.0996  0.6546  0.6766
 3396TIP3    H231824   0.598   5.204   2.642  0.2225  1.4191 -1.0438
 3397TIP3   OH231825   3.803   6.719   1.573 -0.3103  0.4483  0.4097
 3397TIP3    H131826   3.758   6.719   1.658 -1.2233 -0.6296 -0.0362
 3397TIP3    H231827   3.863   6.644   1.579 -1.6020 -0.7124 -0.4608
 3398TIP3   OH231828   5.629   2.789   0.620 -0.1442  0.5230  0.7046
 3398TIP3    H131829   5.696   2.857   0.621  0.4428  0.0564 -1.4593
 3398TIP3    H231830   5.607   2.775   0.712  1.6146  1.7685  1.3640
 3399TIP3   OH231831   6.008   1.136   1.393 -0.2259 -0.7590  0.6386
 3399TIP3    H131832   6.087   1.094   1.358  0.5098  0.6651  0.5202
 3399TIP3    H231833   5.967   1.177   1.317 -1.8884 -2.6761  0.4424
 3400TIP3   OH231834   5.726   6.741   8.121  0.9425  0.1144  0.1926
 3400TIP3    H131835   5.709   6.701   8.206  1.5201  3.0921  1.8500
 3400TIP3    H231836   5.639   6.749   8.081  0.0377  2.3526  2.3577
 3401TIP3   OH231837   0.219   1.310   7.499  0.7265  0.1434  0.1914
 3401TIP3    H131838   0.246   1.380   7.439 -2.2559 -1.1302 -2.9426
 3401TIP3    H231839   0.281   1.238   7.481  0.3079  0.0338 -0.8934
 3402TIP3   OH231840   1.476   3.661   8.717  0.0716 -0.2590  0.9294
 3402TIP3    H131841   1.528   3.738   8.740 -1.3892  0.0834  3.6766
 3402TIP3    H231842   1.407   3.695   8.659  0.3186  0.2030  0.9031
 3403TIP3   OH231843   6.775   3.111   6.584 -0.0927 -0.1331  0.2080
 3403TIP3    H131844   6.777   3.088   6.677  2.2967  0.8091  0.4713
 3403TIP3    H231845   6.863   3.090   6.553 -0.8295 -0.3539 -1.8502
 3404TIP3   OH231846   5.671   1.481   7.167  0.1293 -0.2495 -0.4754
 3404TIP3    H131847   5.742   1.507   7.108  0.3433  1.8976  0.6220
 3404TIP3    H231848   5.591   1.498   7.117  0.3301 -2.2558 -1.5537
 3405TIP3   OH231849   4.241   1.761   0.321  0.0057 -0.0181  0.6167
 3405TIP3    H131850   4.317   1.703   0.318  0.8327  1.0735 -1.3784
 3405TIP3    H231851   4.244   1.809   0.238 -2.4865  0.5527  0.7765
 3406TIP3   OH231852   1.804   3.793   7.215  0.4883  0.2850 -0.0150
 3406TIP3    H131853   1.842   3.828   7.134 -1.1969  2.1522 -0.0864
 3406TIP3    H231854   1.806   3.698   7.203  1.0136  0.4956 -1.9201
 3407TIP3   OH231855   2.019   3.856   1.646  0.0522 -0.0879 -0.1238
 3407TIP3    H131856   2.032   3.949   1.667 -0.5305 -0.1687  0.6590
 3407TIP3    H231857   1.999   3.855   1.553 -0.9109  0.6865  0.0520
 3408TIP3   OH231858   6.410   5.354   7.401  0.9493  0.3059 -0.2543
 3408TIP3    H131859   6.436   5.274   7.356 -1.9965 -0.6798 -0.4179
 3408TIP3    H231860   6.485   5.413   7.392  3.0305 -2.2371 -0.5238
 3409TIP3   OH231861   1.997   4.519   7.167 -0.3113 -0.0377  0.3620
 3409TIP3    H131862   1.938   4.561   7.105  0.9363  2.0925  0.5127
 3409TIP3    H231863   1.958   4.536   7.253  0.8493  2.0949  0.5251
 3410TIP3   OH231864   4.112   0.314   7.852  0.5402 -0.6253  0.5973
 3410TIP3    H131865   4.032   0.334   7.804 -0.5466  0.5720  2.7793
 3410TIP3    H231866   4.099   0.224   7.883 -0.1279 -0.3312  1.2041
 3411TIP3   OH231867   3.668   4.125   0.038  0.3545 -0.9441 -0.5811
 3411TIP3    H131868   3.577   4.102   0.023  0.3716 -1.6663  0.3523
 3411TIP3    H231869   3.712   4.041   0.051  0.8413 -0.5236  0.6072
 3412TIP3   OH231870   3.668   1.415   6.526 -0.4226  0.2871  0.2041
 3412TIP3    H131871   3.686   1.440   6.436  2.0283  1.0465  0.8185
 3412TIP3    H231872   3.657   1.499   6.572  0.4610  0.0120  0.9554
 3413TIP3   OH231873   1.894   6.556   8.486 -0.0890 -0.2967  0.2386
 3413TIP3    H131874   1.805   6.522   8.492  0.3048 -2.3237 -3.0724
 3413TIP3    H231875   1.939   6.517   8.562 -1.1701 -2.3565 -0.0961
 3414TIP3   OH231876   3.730   5.735   0.070 -0.7237 -0.3145  0.4384
 3414TIP3    H131877   3.675   5.730  -0.008 -2.7900 -1.8744  1.9026
 3414TIP3    H231878   3.803   5.792   0.044 -1.8268 -0.0032 -2.2933
 3415TIP3   OH231879   0.724   5.156   1.636  0.4754  0.6099 -0.3807
 3415TIP3    H131880   0.708   5.105   1.556  0.5864  0.5687 -0.3780
 3415TIP3    H231881   0.649   5.214   1.643 -0.1422 -0.2352  0.1462
 3416TIP3   OH231882   4.279   2.596   1.773 -0.3784 -0.3296 -0.2569
 3416TIP3    H131883   4.288   2.521   1.714 -0.5520  0.6361 -1.5441
 3416TIP3    H231884   4.204   2.574   1.828 -1.0244 -0.6844 -1.2549
 3417TIP3   OH231885   3.998   2.062   8.221 -0.1703  0.2638 -0.3596
 3417TIP3    H131886   3.983   2.145   8.266  3.4797  0.0942  1.5439
 3417TIP3    H231887   3.916   2.045   8.174 -1.0125  5.0137 -1.1156
 3418TIP3   OH231888   3.063   3.609   2.250  0.2179 -0.1683 -0.8550
 3418TIP3    H131889   3.080   3.635   2.340 -0.8105  0.1751 -0.7384
 3418TIP3    H231890   3.147   3.618   2.205  0.3596  1.3873 -0.3254
 3419TIP3   OH231891   0.414   4.530   2.007  0.2766  0.3945  0.5506
 3419TIP3    H131892   0.501   4.558   2.035 -0.3020  1.1505  1.7136
 3419TIP3    H231893   0.363   4.530   2.088 -0.7471 -0.2444 -0.0829
 3420TIP3   OH231894   2.879   2.327   0.908 -0.0480 -0.0019 -0.6449
 3420TIP3    H131895   2.834   2.257   0.862 -0.8538  0.6777 -0.9109
 3420TIP3    H231896   2.920   2.284   0.983 -0.6683 -0.7223 -0.7083
 3421TIP3   OH231897   0.564   5.816   1.758  0.4173 -0.0021  0.0286
 3421TIP3    H131898   0.481   5.837   1.716  0.5697  0.6555  0.0303
 3421TIP3    H231899   0.625   5.806   1.685  1.5757  4.8715 -0.0443
 3422TIP3   OH231900   5.166   4.034   2.379 -0.0870 -0.6229  0.0840
 3422TIP3    H131901   5.212   4.114   2.357  0.1161 -0.7846 -0.0750
 3422TIP3    H231902   5.229   3.983   2.430  0.7902 -1.9062 -2.1527
 3423TIP3   OH231903   0.285   2.060   7.039  0.6231 -0.1441 -0.0989
 3423TIP3    H131904   0.227   2.036   6.968  1.5616 -0.0772 -0.9151
 3423TIP3    H231905   0.240   2.032   7.118 -1.2959  1.4373 -0.5657
 3424TIP3   OH231906   2.559   6.342   0.625 -0.2569 -0.1674  0.6724
 3424TIP3    H131907   2.508   6.269   0.590 -1.9805  1.3571 -0.1254
 3424TIP3    H231908   2.517   6.420   0.590  2.7482  1.2007 -0.1543
 3425TIP3   OH231909   0.720   0.024   1.770  0.2886 -0.1639 -0.0412
 3425TIP3    H131910   0.728   0.102   1.824  0.7969 -0.3159  0.1147
 3425TIP3    H231911   0.634  -0.011   1.790  0.1379  0.2464  0.0383
 3426TIP3   OH231912   1.328   4.723   6.295  0.4729 -0.0119  0.5412
 3426TIP3    H131913   1.362   4.660   6.359 -0.7865 -1.5834 -0.2569
 3426TIP3    H231914   1.320   4.672   6.214 -1.9672  0.7539  0.2265
 3427TIP3   OH231915   2.983   4.618   1.202  0.1216  0.0596 -0.1559
 3427TIP3    H131916   3.019   4.706   1.218 -1.1585  0.9998 -2.1087
 3427TIP3    H231917   3.060   4.565   1.181  0.7450  1.2174 -0.9521
 3428TIP3   OH231918   5.281   1.662   1.274  0.0238  0.3949  0.8387
 3428TIP3    H131919   5.241   1.707   1.200 -1.1935 -2.6425 -0.5088
 3428TIP3    H231920   5.213   1.661   1.341 -0.0620  0.2257  0.7464
 3429TIP3   OH231921   1.945   5.997   1.721  0.3748 -0.1591  0.5591
 3429TIP3    H131922   1.866   6.045   1.744  0.7602  0.7787 -0.0156
 3429TIP3    H231923   1.918   5.905   1.721 -0.6447  0.1291  0.6415
 3430TIP3   OH231924   3.740   3.465   7.109 -0.3560  0.6299 -0.1954
 3430TIP3    H131925   3.656   3.439   7.071 -0.1327 -2.2365  0.9652
 3430TIP3    H231926   3.805   3.441   7.042 -0.3316  0.8075 -0.2346
 3431TIP3   OH231927   0.641   6.180   2.522 -0.1792  0.3708  0.7049
 3431TIP3    H131928   0.583   6.182   2.598 -1.9742 -2.5915 -0.3860
 3431TIP3    H231929   0.601   6.242   2.460 -1.1050 -0.1906  0.7165
 3432TIP3   OH231930   6.673   0.202   2.297  0.0856 -0.6782  0.7737
 3432TIP3    H131931   6.762   0.237   2.302 -0.2535  0.4293 -0.3336
 3432TIP3    H231932   6.684   0.115   2.258  0.6009 -0.1287 -0.3500
 3433TIP3   OH231933   5.418   5.540   0.741 -0.2387  0.8445 -0.1313
 3433TIP3    H131934   5.342   5.482   0.737  1.6560 -1.7376 -1.6013
 3433TIP3    H231935   5.429   5.570   0.650 -1.7212  4.4694  0.7187
 3434TIP3   OH231936   0.632   0.355   7.745  0.3309 -0.3549 -0.2495
 3434TIP3    H131937   0.585   0.273   7.733  2.6366 -1.4496 -2.9065
 3434TIP3    H231938   0.645   0.389   7.656  1.6462  1.5616  0.6061
 3435TIP3   OH231939   3.763   2.533   6.595  0.0292 -0.2309  0.3416
 3435TIP3    H131940   3.755   2.463   6.530  0.3326  0.1450 -0.1062
 3435TIP3    H231941   3.675   2.572   6.598  0.3879  0.7465 -0.9914
 3436TIP3   OH231942   0.769   4.939   1.924  0.2158  0.4554  0.1582
 3436TIP3    H131943   0.688   4.966   1.967  0.9620  1.1151  1.1807
 3436TIP3    H231944   0.815   5.021   1.906  0.2851  0.1487 -1.2265
 3437TIP3   OH231945   6.602   5.300   0.411  0.4029 -0.3968 -0.0297
 3437TIP3    H131946   6.539   5.367   0.384  1.2427 -0.3723 -2.1345
 3437TIP3    H231947   6.616   5.247   0.333  1.3605 -1.7345  1.0026
 3438TIP3   OH231948   5.958   2.084   7.235  0.9398  0.3188  0.8512
 3438TIP3    H131949   6.001   2.144   7.174 -0.3397 -0.0705 -0.5010
 3438TIP3    H231950   5.906   2.026   7.179  0.5080 -0.7212  2.2632
 3439TIP3   OH231951   3.291   6.844   1.296  0.2031 -0.1968 -0.6477
 3439TIP3    H131952   3.231   6.778   1.262  0.8461 -1.1912  0.0966
 3439TIP3    H231953   3.340   6.799   1.364  2.0709  0.4851 -1.4907
 3440TIP3   OH231954   4.930   3.904   0.986 -0.0023  0.4496 -0.2875
 3440TIP3    H131955   4.922   3.844   1.060 -2.3963  0.0433 -0.8040
 3440TIP3    H231956   5.011   3.877   0.942  1.2027  0.3805  1.8336
 3441TIP3   OH231957   5.231   6.263   1.574 -0.2739 -0.1650 -0.5200
 3441TIP3    H131958   5.259   6.209   1.501 -1.8301  0.8322 -1.9244
 3441TIP3    H231959   5.155   6.217   1.611 -0.0154 -0.2356 -0.0718
 3442TIP3   OH231960   6.670   3.815   0.952  0.1237 -0.2984 -0.0707
 3442TIP3    H131961   6.737   3.779   0.893  0.1303 -0.3706 -0.0205
 3442TIP3    H231962   6.587   3.784   0.915  0.1590 -0.8034  0.2651
 3443TIP3   OH231963   1.565   4.150   1.752  0.0594 -0.1005  0.0931
 3443TIP3    H131964   1.594   4.207   1.823 -0.0364  0.5256 -0.3620
 3443TIP3    H231965   1.583   4.061   1.784  1.3969  0.2196  0.2899
 3444TIP3   OH231966   0.017   0.670   2.426  0.3832 -0.1530 -0.1806
 3444TIP3    H131967   0.024   0.614   2.349  1.7382 -0.4586  0.1393
 3444TIP3    H231968  -0.075   0.664   2.451  0.4884 -2.3891 -0.0687
 3445TIP3   OH231969   5.682   0.061   1.531  0.1839 -0.5485  0.0107
 3445TIP3    H131970   5.588   0.057   1.513  0.4499 -1.2805 -1.4242
 3445TIP3    H231971   5.690   0.034   1.622 -0.9159 -1.6951 -0.1889
 3446TIP3   OH231972   0.565   4.232   8.446 -0.5998 -0.3525  0.0040
 3446TIP3    H131973   0.599   4.306   8.495 -0.0642  0.4479 -1.4988
 3446TIP3    H231974   0.616   4.157   8.475 -1.4271 -0.2608  1.8510
 3447TIP3   OH231975   1.341   4.384   2.072  0.1790  0.0884  0.5203
 3447TIP3    H131976   1.390   4.414   1.996 -1.0472  1.1054  0.0874
 3447TIP3    H231977   1.257   4.354   2.036  0.8559 -2.7865  1.0788
 3448TIP3   OH231978   3.350   1.712   1.315  0.4138 -0.1498 -0.2063
 3448TIP3    H131979   3.416   1.736   1.249  0.7499  0.2019  0.2499
 3448TIP3    H231980   3.341   1.790   1.369 -1.7801  0.4933 -1.3865
 3449TIP3   OH231981   4.588   1.558   8.645 -0.2368 -0.6195  0.3145
 3449TIP3    H131982   4.640   1.619   8.698 -0.4638  0.5976 -0.8120
 3449TIP3    H231983   4.553   1.611   8.574 -1.5724 -1.7960  0.0379
 3450TIP3   OH231984   3.071   2.839   7.555 -0.5569 -0.1256 -0.4001
 3450TIP3    H131985   3.143   2.900   7.567  1.3885 -1.9925 -1.9273
 3450TIP3    H231986   3.074   2.782   7.633  0.5605 -1.0499 -1.0858
 3451TIP3   OH231987   1.728   5.780   6.610  0.5620 -0.2910  0.0789
 3451TIP3    H131988   1.797   5.840   6.638  0.2947 -0.1620  0.4603
 3451TIP3    H231989   1.674   5.767   6.688  0.3536 -0.6656 -0.1249
 3452TIP3   OH231990   3.877   2.428   2.359 -0.7784  0.3948  0.1492
 3452TIP3    H131991   3.890   2.338   2.387 -0.4639  0.1723 -0.6780
 3452TIP3    H231992   3.795   2.427   2.310 -0.6853  0.5195 -0.0106
 3453TIP3   OH231993   2.036   1.977   8.029  0.0476 -0.0576  0.1252
 3453TIP3    H131994   2.055   2.071   8.035  0.2058 -0.1412  1.1391
 3453TIP3    H231995   2.071   1.950   7.944  2.8730  0.1647  1.1370
 3454TIP3   OH231996   3.706   5.937   8.128 -0.2850  0.7196 -0.0340
 3454TIP3    H131997   3.724   5.906   8.039 -2.6598  2.0305 -1.0664
 3454TIP3    H231998   3.719   6.032   8.124 -0.1161  0.7585  1.1142
 3455TIP3   OH231999   5.699   4.407   0.846  0.1419 -0.1565  0.0014
 3455TIP3    H132000   5.776   4.463   0.834 -0.0501  0.7189  2.3559
 3455TIP3    H232001   5.635   4.463   0.889 -0.8499 -1.5964  0.4690
 3456TIP3   OH232002   2.104   5.497   7.037  0.8107 -0.2082 -0.2624
 3456TIP3    H132003   2.061   5.582   7.045  1.3733  0.0877 -0.3064
 3456TIP3    H232004   2.033   5.433   7.045  0.7053  0.1333  3.0863
 3457TIP3   OH232005   0.773   5.368   0.026 -0.3810 -0.0441  0.0123
 3457TIP3    H132006   0.741   5.405  -0.056 -0.4104 -0.5990 -0.2342
 3457TIP3    H232007   0.855   5.414   0.043 -1.4200  1.5945  0.8038
 3458TIP3   OH232008   5.299   5.753   7.883  0.2862 -0.2200 -0.2981
 3458TIP3    H132009   5.268   5.692   7.816  0.5779 -0.3437 -0.3220
 3458TIP3    H232010   5.231   5.752   7.950 -0.1643  0.1436 -0.7395
 3459TIP3   OH232011   3.543   3.072   1.746 -0.1499  0.3653  0.8954
 3459TIP3    H132012   3.545   3.000   1.683 -1.3439  0.1890  1.0302
 3459TIP3    H232013   3.627   3.065   1.792  1.8115  1.9082 -2.1280
 3460TIP3   OH232014   3.890   5.059   7.212 -0.0497 -0.3810 -0.3399
 3460TIP3    H132015   3.935   5.061   7.297  1.0298  0.9985 -0.9122
 3460TIP3    H232016   3.805   5.020   7.232  0.6622 -1.3165  1.1218
 3461TIP3   OH232017   4.345   0.916   0.245  0.3346 -0.1474 -0.4331
 3461TIP3    H132018   4.393   0.995   0.219  0.9478 -0.5324 -0.5047
 3461TIP3    H232019   4.389   0.887   0.325 -2.8196  2.2217  2.4605
 3462TIP3   OH232020   1.435   5.218   1.126  0.1191  0.3759  0.1139
 3462TIP3    H132021   1.433   5.152   1.057  1.3742  0.2325  0.1866
 3462TIP3    H232022   1.447   5.301   1.080  1.6809  0.2086  0.1575
 3463TIP3   OH232023   5.878   6.066   0.454  0.3298 -0.1726 -0.3266
 3463TIP3    H132024   5.949   6.032   0.509  0.4112  1.4596  0.6550
 3463TIP3    H232025   5.873   6.005   0.381  2.2273 -0.7819 -0.0144
 3464TIP3   OH232026   6.670   4.669   2.125 -0.1185  0.3987  0.1830
 3464TIP3    H132027   6.674   4.580   2.088 -1.2512 -0.1878  1.3786
 3464TIP3    H232028   6.746   4.674   2.183  0.2629  0.4189 -0.3140
 3465TIP3   OH232029   2.067   4.480   6.430  0.0979  0.3020 -0.1722
 3465TIP3    H132030   2.126   4.422   6.381 -0.5484  0.3222 -1.0077
 3465TIP3    H232031   2.007   4.420   6.475  0.0611  0.3009 -0.2224
 3466TIP3   OH232032   6.668   1.570   1.784  0.1421 -0.0047  0.0215
 3466TIP3    H132033   6.590   1.539   1.830  0.2324 -0.9259 -0.4216
 3466TIP3    H232034   6.717   1.618   1.851 -0.8814  0.7548  0.2564
 3467TIP3   OH232035   0.386   3.943   6.977  0.0731  0.4061  0.4765
 3467TIP3    H132036   0.342   3.983   6.902  1.7443  1.8548  0.1988
 3467TIP3    H232037   0.467   3.907   6.940 -0.3389 -1.3195  1.1437
 3468TIP3   OH232038   1.059   2.538   8.063 -0.6980 -0.4693  0.3547
 3468TIP3    H132039   1.013   2.618   8.089  1.6716  0.8712  0.7165
 3468TIP3    H232040   1.069   2.489   8.145 -0.9569 -0.4617  0.3902
 3469TIP3   OH232041   3.740   4.935   1.879  0.5035  0.2977  0.1741
 3469TIP3    H132042   3.751   5.023   1.915  1.8767  0.0365  0.4707
 3469TIP3    H232043   3.646   4.923   1.871  0.1672  0.7862  2.6678
 3470TIP3   OH232044   0.066   5.150   8.670  0.2211  0.4857 -0.0752
 3470TIP3    H132045   0.157   5.175   8.655  0.1760  0.5004 -0.3262
 3470TIP3    H232046   0.020   5.178   8.591  0.1192 -0.1437 -0.2450
 3471TIP3   OH232047   4.512   1.723   0.639 -0.3053 -0.0141 -0.3060
 3471TIP3    H132048   4.538   1.801   0.688  0.5941  0.6283 -1.7410
 3471TIP3    H232049   4.591   1.669   0.635 -1.3523 -1.9020  2.1802
 3472TIP3   OH232050   2.366   0.162   7.463 -0.2991  0.5436 -0.3994
 3472TIP3    H132051   2.360   0.111   7.382  0.1924 -0.2990  0.0820
 3472TIP3    H232052   2.436   0.225   7.448  0.2435 -0.0548 -0.3971
 3473TIP3   OH232053   5.469   4.478   8.098  0.4584 -0.1687  0.4234
 3473TIP3    H132054   5.545   4.537   8.100  0.3268  0.0180 -0.1420
 3473TIP3    H232055   5.394   4.535   8.113  0.4123 -0.3420  0.8873
 3474TIP3   OH232056   4.725   1.581   0.950  0.5251  0.1515  0.4313
 3474TIP3    H132057   4.788   1.593   0.879  1.0612  0.5865  0.9673
 3474TIP3    H232058   4.749   1.498   0.990 -1.5286 -1.5843 -1.6101
 3475TIP3   OH232059   6.105   5.792   7.265 -0.1255  0.5055 -0.0436
 3475TIP3    H132060   6.058   5.739   7.201  1.1185  0.5965 -1.0614
 3475TIP3    H232061   6.048   5.868   7.280  0.2230  1.2501 -2.1991
 3476TIP3   OH232062   4.059   0.963   1.606 -0.4909 -0.8147 -0.0431
 3476TIP3    H132063   4.041   1.052   1.576 -0.4292 -1.1068 -0.9706
 3476TIP3    H232064   4.122   0.975   1.678 -0.9409 -0.0796  0.2415
 3477TIP3   OH232065   4.815   6.003   2.239  0.6065  0.2382  0.3171
 3477TIP3    H132066   4.795   6.076   2.298  0.2931  2.7854 -2.7248
 3477TIP3    H232067   4.906   6.017   2.213 -0.0377  0.7790 -1.8145
 3478TIP3   OH232068   0.776   3.018   7.359  0.7143 -0.0338 -0.6237
 3478TIP3    H132069   0.734   3.001   7.443  0.1421 -1.6661 -1.1903
 3478TIP3    H232070   0.795   3.112   7.360  2.0263 -0.2236  1.8931
 3479TIP3   OH232071   2.735   1.149   0.885  0.0790 -0.4012 -0.4234
 3479TIP3    H132072   2.641   1.158   0.898 -0.2983 -0.3080 -2.7595
 3479TIP3    H232073   2.767   1.239   0.874  0.1122 -0.5060 -1.3328
 3480TIP3   OH232074   2.804   5.166   1.881  0.6279  0.0934 -0.1452
 3480TIP3    H132075   2.893   5.135   1.866  1.1780  0.9771  1.1068
 3480TIP3    H232076   2.814   5.244   1.936 -0.9505 -0.1686  0.5899
 3481TIP3   OH232077   1.001   1.946   0.621  0.2081  0.0485  0.6843
 3481TIP3    H132078   0.934   1.963   0.687 -0.8020 -1.3301  0.0699
 3481TIP3    H232079   1.083   1.944   0.671 -0.2935  0.8773  1.5897
 3482TIP3   OH232080   1.221   6.339   1.560 -0.2631 -0.0147  0.2430
 3482TIP3    H132081   1.248   6.265   1.505 -0.4470  1.6595 -2.2833
 3482TIP3    H232082   1.219   6.303   1.649  1.1333 -2.6198 -0.6534
 3483TIP3   OH232083   2.650   0.038   0.336  0.5742  0.2853  0.2768
 3483TIP3    H132084   2.653   0.133   0.349  0.2350  0.2025  1.0166
 3483TIP3    H232085   2.649   0.027   0.241 -2.7824  1.1660  0.0715
 3484TIP3   OH232086   2.882   1.511   8.012 -0.4287  0.3512 -0.7446
 3484TIP3    H132087   2.839   1.593   8.036 -0.6618  0.1723 -0.5453
 3484TIP3    H232088   2.929   1.484   8.091 -0.1402  0.4279 -0.8924
 3485TIP3   OH232089   1.811   3.896   8.228 -0.5386  1.0177 -0.3206
 3485TIP3    H132090   1.734   3.904   8.172 -0.4291  2.2646 -0.3173
 3485TIP3    H232091   1.880   3.863   8.170 -0.8933  0.5347 -0.4737
 3486TIP3   OH232092   4.959   4.974   0.179 -0.0647 -0.6668 -0.1830
 3486TIP3    H132093   4.961   5.048   0.240  0.2130 -0.7136 -0.1362
 3486TIP3    H232094   5.049   4.943   0.176 -0.3428 -1.5988  0.5222
 3487TIP3   OH232095   2.273   6.370   7.818 -0.4603 -0.2295 -0.5203
 3487TIP3    H132096   2.364   6.393   7.838 -0.1756 -0.3445 -1.5888
 3487TIP3    H232097   2.221   6.443   7.851  0.2754  1.2090 -2.3302
 3488TIP3   OH232098   3.877   2.879   1.113 -0.1671 -0.2052 -0.1290
 3488TIP3    H132099   3.855   2.856   1.203  0.6571 -0.4446  0.0205
 3488TIP3    H232100   3.950   2.822   1.091  2.1907  2.4274  0.3491
 3489TIP3   OH232101   0.048   5.594   7.549 -0.0928  0.5721 -0.0171
 3489TIP3    H132102   0.035   5.686   7.570  1.2613  0.6828  0.4542
 3489TIP3    H232103  -0.033   5.567   7.505 -0.8163  1.7672  0.5475
 3490TIP3   OH232104   5.221   5.851   8.537  0.3762  0.5343  0.4476
 3490TIP3    H132105   5.200   5.862   8.444  0.9305  0.5801  0.3226
 3490TIP3    H232106   5.193   5.932   8.578 -0.4296  0.2718  0.4225
 3491TIP3   OH232107   5.210   3.886   0.516  0.3532  0.2114  0.2137
 3491TIP3    H132108   5.279   3.821   0.500 -1.5644 -1.7028 -0.9006
 3491TIP3    H232109   5.225   3.953   0.449  0.7956 -0.4629 -0.3832
 3492TIP3   OH232110   2.445   3.239   1.297 -0.2312 -0.2036  0.2384
 3492TIP3    H132111   2.357   3.211   1.325 -0.0246 -1.3456 -0.2038
 3492TIP3    H232112   2.450   3.212   1.205  0.9748 -1.1547  0.5614
 3493TIP3   OH232113   3.995   2.930   7.073 -0.8079 -0.0763 -0.1754
 3493TIP3    H132114   3.937   2.890   7.007 -1.3880  0.5109 -0.0412
 3493TIP3    H232115   4.075   2.949   7.025  0.0100 -2.5667  0.0644
 3494TIP3   OH232116   2.848   1.236   1.768 -0.4648 -0.1231 -0.1660
 3494TIP3    H132117   2.870   1.270   1.855  2.7648 -0.8984 -0.5366
 3494TIP3    H232118   2.811   1.150   1.785 -3.2894  1.1201  0.5092
 3495TIP3   OH232119   1.800   6.830   6.158 -0.7053 -0.6550 -0.0881
 3495TIP3    H132120   1.809   6.888   6.234 -0.9592  0.2531 -0.7336
 3495TIP3    H232121   1.709   6.838   6.132 -0.7919 -1.5043 -0.0876
 3496TIP3   OH232122   0.816   6.430   2.076  0.8922  0.3694  0.0042
 3496TIP3    H132123   0.904   6.415   2.111  0.1099  0.4557  2.1521
 3496TIP3    H232124   0.791   6.516   2.111 -0.0907  0.3134 -0.5321
 3497TIP3   OH232125   4.034   3.423   2.179 -0.0312  0.6629 -0.2605
 3497TIP3    H132126   4.003   3.508   2.148  1.0010  0.8491 -0.8257
 3497TIP3    H232127   3.967   3.394   2.241 -1.9120  0.5619 -2.1928
 3498TIP3   OH232128   2.836   0.639   2.553  0.1408  0.0765 -0.1290
 3498TIP3    H132129   2.906   0.613   2.611  0.6606 -0.5908 -1.0255
 3498TIP3    H232130   2.798   0.557   2.522 -0.3243  0.4165 -0.4827
 3499TIP3   OH232131   1.709   2.015   7.636 -0.4053 -0.1021 -0.0259
 3499TIP3    H132132   1.738   2.103   7.613  0.9642 -1.0827 -2.3864
 3499TIP3    H232133   1.670   1.981   7.556 -1.2281 -1.5340  0.9402
 3500TIP3   OH232134   1.569   0.723   0.274 -0.6047 -0.0166  0.8297
 3500TIP3    H132135   1.580   0.815   0.297  2.0003 -0.1506  0.3294
 3500TIP3    H232136   1.576   0.720   0.179 -1.0911 -0.7113  0.8011
 3501TIP3   OH232137   0.757   3.958   1.292 -0.0492 -0.6030 -0.3214
 3501TIP3    H132138   0.788   3.906   1.366 -0.9155  1.2513  1.4722
 3501TIP3    H232139   0.662   3.946   1.292 -0.0461 -0.6670 -1.2070
 3502TIP3   OH232140   0.680   3.354   7.749  0.5997 -0.0845 -0.0388
 3502TIP3    H132141   0.665   3.308   7.667 -0.4381 -2.5152  1.3929
 3502TIP3    H232142   0.770   3.331   7.774  0.6613  0.0596 -0.1238
 3503TIP3   OH232143   2.342   1.941   2.354 -0.2665  0.0294 -0.2852
 3503TIP3    H132144   2.393   1.861   2.369 -0.5875 -0.4077 -1.4348
 3503TIP3    H232145   2.397   1.994   2.295  0.6892  1.4291  1.7255
 3504TIP3   OH232146   4.442   4.466   7.333 -0.2851 -0.5189 -0.1220
 3504TIP3    H132147   4.537   4.469   7.327 -0.3503  0.5791 -0.9592
 3504TIP3    H232148   4.413   4.447   7.244 -0.8723  0.7158 -0.2193
 3505TIP3   OH232149   6.036   0.663   1.340 -0.2941 -0.1758 -0.4189
 3505TIP3    H132150   6.044   0.568   1.331  2.5075 -0.0077 -0.4424
 3505TIP3    H232151   6.126   0.696   1.338 -1.0889  2.3888  0.8107
 3506TIP3   OH232152   1.867   1.170   1.550 -0.0270 -0.5044 -0.1720
 3506TIP3    H132153   1.808   1.164   1.625  1.0264  0.6482  0.8004
 3506TIP3    H232154   1.809   1.179   1.475 -1.2005  2.7737  0.9385
 3507TIP3   OH232155   3.976   1.654   0.345  0.3044  0.2464  0.1989
 3507TIP3    H132156   4.071   1.664   0.348  0.1993  1.0647  2.6277
 3507TIP3    H232157   3.947   1.674   0.434 -2.1438 -0.0816 -0.4649
 3508TIP3   OH232158   3.314   3.330   8.173  0.0764  0.1927  0.0781
 3508TIP3    H132159   3.273   3.407   8.133  0.5474  1.5310  2.0291
 3508TIP3    H232160   3.244   3.266   8.180 -0.0966 -0.0028 -2.4960
 3509TIP3   OH232161   2.510   4.492   1.518  0.0811  0.0506 -0.5161
 3509TIP3    H132162   2.591   4.502   1.468  0.8994  2.6754  1.1328
 3509TIP3    H232163   2.453   4.562   1.485 -0.7598 -0.5092 -0.2747
 3510TIP3   OH232164   4.920   5.939   1.374  0.1903 -0.3690 -0.0590
 3510TIP3    H132165   4.854   5.870   1.374  0.6930 -0.8586  0.6055
 3510TIP3    H232166   4.932   5.960   1.466  0.8108 -0.1319 -0.1951
 3511TIP3   OH232167   3.047   3.616   8.435  0.3791 -0.2514  0.2297
 3511TIP3    H132168   3.073   3.680   8.501 -0.8697  0.5906 -0.0600
 3511TIP3    H232169   2.951   3.625   8.429  0.1937 -2.0070  0.0430
 3512TIP3   OH232170   4.538   6.305   0.326 -0.5310  0.1238  0.9763
 3512TIP3    H132171   4.600   6.233   0.335 -0.3486  0.4690  3.1149
 3512TIP3    H232172   4.593   6.382   0.314 -0.6835  0.0702 -0.1469
 3513TIP3   OH232173   1.693   5.106   7.176  0.0202  0.1181  0.7847
 3513TIP3    H132174   1.650   5.107   7.261  1.5869 -0.5245  1.6167
 3513TIP3    H232175   1.659   5.184   7.131 -0.9865  0.3418  1.8930
 3514TIP3   OH232176   6.258   1.003   7.304 -0.1242 -0.0136  0.2804
 3514TIP3    H132177   6.307   0.930   7.342 -1.1362  0.2313  2.1615
 3514TIP3    H232178   6.188   0.962   7.254 -1.5129 -0.4256  2.4229
 3515TIP3   OH232179   2.740   4.715   0.278  0.2164  0.1191  0.3119
 3515TIP3    H132180   2.779   4.629   0.263  0.5793  0.3905 -0.3654
 3515TIP3    H232181   2.734   4.754   0.191  0.8857  1.1248  0.6947
 3516TIP3   OH232182   6.328   0.724   1.288  0.0467 -0.0692 -0.0204
 3516TIP3    H132183   6.300   0.816   1.295  0.5236  0.1290 -0.6396
 3516TIP3    H232184   6.422   0.727   1.302 -0.2546 -0.8353  2.9181
 3517TIP3   OH232185   0.846   4.605   0.006  0.0910  0.4958  0.4382
 3517TIP3    H132186   0.874   4.690   0.039  1.6498 -0.3419  1.3787
 3517TIP3    H232187   0.763   4.589   0.050  0.6116  0.7958  1.5712
 3518TIP3   OH232188   4.447   1.113   8.140  0.2275  0.0717 -0.5749
 3518TIP3    H132189   4.482   1.135   8.054  0.7459  1.8736  0.0371
 3518TIP3    H232190   4.376   1.176   8.154 -0.5699 -0.9029 -0.1152
 3519TIP3   OH232191   1.480   6.325   2.174  0.5306  0.1337 -0.8962
 3519TIP3    H132192   1.459   6.400   2.118 -0.1223  0.4784 -0.2105
 3519TIP3    H232193   1.563   6.348   2.214 -0.0490  0.8853 -0.0665
 3520TIP3   OH232194   4.984   1.357   2.236  0.1545 -0.5241  0.3580
 3520TIP3    H132195   5.008   1.340   2.326 -0.2555 -0.8140  0.4158
 3520TIP3    H232196   5.031   1.437   2.213  1.2437 -1.1298  0.4301
 3521TIP3   OH232197   3.449   2.793   7.263  0.5499 -0.1793  0.0626
 3521TIP3    H132198   3.540   2.779   7.238  0.4137  1.0202 -1.2297
 3521TIP3    H232199   3.403   2.806   7.180 -0.7592 -0.5463  0.7105
 3522TIP3   OH232200   4.268   1.175   8.465  0.1800 -0.9385  0.1613
 3522TIP3    H132201   4.192   1.192   8.519 -0.6972 -2.7354 -0.4276
 3522TIP3    H232202   4.342   1.211   8.514 -0.5655 -2.4688  2.5645
 3523TIP3   OH232203   0.599   1.221   7.173  0.3573 -0.0514  0.2932
 3523TIP3    H132204   0.666   1.197   7.237  0.0534  1.1133  1.0776
 3523TIP3    H232205   0.601   1.150   7.109  0.4613 -1.4397  1.7569
 3524TIP3   OH232206   1.447   1.932   8.601  0.0483  0.5722  0.2186
 3524TIP3    H132207   1.515   1.967   8.659  1.2039  0.5327 -1.0606
 3524TIP3    H232208   1.473   1.962   8.514 -1.2196 -0.0238 -0.3798
 3525TIP3   OH232209   6.597   6.304   8.715 -0.6040  0.1924 -0.2950
 3525TIP3    H132210   6.511   6.341   8.734  0.0765  0.5047  2.7355
 3525TIP3    H232211   6.654   6.381   8.706 -0.0500  0.0259  1.3398
 3526TIP3   OH232212   4.169   2.844   7.460 -0.0268 -0.1850 -0.0400
 3526TIP3    H132213   4.222   2.830   7.382  0.2552 -1.4531  0.3517
 3526TIP3    H232214   4.187   2.935   7.486 -0.1531  0.2656 -1.4422
 3527TIP3   OH232215   3.024   6.351   7.146  0.0290 -1.0383 -0.5995
 3527TIP3    H132216   2.976   6.368   7.227 -0.2922 -1.5713 -0.6696
 3527TIP3    H232217   2.976   6.279   7.105  0.2095 -0.7918 -1.2488
 3528TIP3   OH232218   5.886   5.990   2.068 -0.3914 -0.1877 -0.8235
 3528TIP3    H132219   5.911   5.898   2.074 -2.2391 -0.6602  0.5395
 3528TIP3    H232220   5.879   6.007   1.974  1.2688 -1.0248 -1.1390
 3529TIP3   OH232221   5.997   2.331   0.707  0.3147 -0.0770  0.3313
 3529TIP3    H132222   6.074   2.381   0.731 -0.4080  1.7085 -0.8721
 3529TIP3    H232223   5.928   2.396   0.696 -1.1027 -1.5077  0.3304
 3530TIP3   OH232224   6.640   2.447   6.656 -0.2162 -0.1978 -0.1994
 3530TIP3    H132225   6.662   2.481   6.743 -0.1099 -4.9480  1.9634
 3530TIP3    H232226   6.724   2.432   6.613 -0.1596 -0.1443 -0.1067
 3531TIP3   OH232227   6.431   3.114   1.920  0.0001  0.0741 -0.2899
 3531TIP3    H132228   6.425   3.033   1.869 -0.7134 -0.4107  0.5438
 3531TIP3    H232229   6.513   3.106   1.969 -0.0998 -0.1744 -0.1641
 3532TIP3   OH232230   5.528   2.558   0.051 -0.2239  0.2232  0.2899
 3532TIP3    H132231   5.507   2.593  -0.036  1.7800  1.0137  0.0528
 3532TIP3    H232232   5.511   2.631   0.111  0.4093  0.3907  0.2737
 3533TIP3   OH232233   0.246   1.254   1.195 -0.4964  0.3264 -0.1594
 3533TIP3    H132234   0.288   1.207   1.123  2.0982  3.2228 -0.7095
 3533TIP3    H232235   0.306   1.245   1.269 -0.9123  1.1739  0.2957
 3534TIP3   OH232236   2.308   0.409   1.627 -0.0573  0.2269  0.3245
 3534TIP3    H132237   2.262   0.338   1.671 -0.5109  1.1344  1.3757
 3534TIP3    H232238   2.238   0.463   1.590  0.1724  1.0774  1.0822
 3535TIP3   OH232239   5.878   3.605   6.791 -0.1211 -0.1679  0.0936
 3535TIP3    H132240   5.965   3.646   6.789  0.4336 -1.3529 -1.4580
 3535TIP3    H232241   5.839   3.637   6.873  1.7246  0.4727  0.7786
 3536TIP3   OH232242   3.509   5.200   8.266  0.3288 -0.0230  0.1824
 3536TIP3    H132243   3.490   5.148   8.344  0.2740  1.0004  0.8796
 3536TIP3    H232244   3.605   5.207   8.264  0.4707 -1.6520 -0.9557
 3537TIP3   OH232245   3.129   5.979   1.841  0.4085 -0.3408  0.0460
 3537TIP3    H132246   3.167   5.986   1.928 -2.1226 -0.0936  1.2102
 3537TIP3    H232247   3.140   6.065   1.802 -1.7536  0.7400  1.6455
 3538TIP3   OH232248   5.217   6.389   1.023 -0.3235 -0.0068  0.1373
 3538TIP3    H132249   5.162   6.466   1.010 -0.3792 -0.2146 -0.9932
 3538TIP3    H232250   5.161   6.326   1.068 -0.4095  0.4463  0.6791
 3539TIP3   OH232251   5.966   1.423   7.262  0.1931 -0.5871 -0.3892
 3539TIP3    H132252   5.944   1.452   7.174 -1.0350 -2.7884 -0.8915
 3539TIP3    H232253   5.903   1.467   7.319  0.2193 -0.0857 -0.7426
 3540TIP3   OH232254   4.058   5.629   1.137 -0.4214 -0.4565 -0.2109
 3540TIP3    H132255   4.015   5.543   1.133  1.2678 -1.3071 -1.5090
 3540TIP3    H232256   4.017   5.679   1.067  1.8509 -1.9165 -2.7651
 3541TIP3   OH232257   4.927   6.465   7.040  0.1297 -0.3033 -0.5181
 3541TIP3    H132258   4.887   6.463   6.953  0.6791  0.4017 -0.7999
 3541TIP3    H232259   5.016   6.496   7.024  0.2199 -0.1233  0.3017
 3542TIP3   OH232260   0.389   4.972   1.101  0.1071 -0.0773  0.1743
 3542TIP3    H132261   0.468   5.026   1.107  0.0437  0.1148 -0.6565
 3542TIP3    H232262   0.323   5.021   1.149  0.4067 -0.0860  0.6024
 3543TIP3   OH232263   2.472   6.459   1.460 -0.2889 -0.5905  0.2229
 3543TIP3    H132264   2.545   6.398   1.473  0.2049 -0.5676 -1.9761
 3543TIP3    H232265   2.506   6.524   1.398 -1.0945  1.4425  1.7974
 3544TIP3   OH232266   0.472   2.069   7.685 -0.1353  0.4925 -0.2254
 3544TIP3    H132267   0.466   2.146   7.742  1.1384  0.0840  0.5112
 3544TIP3    H232268   0.433   2.097   7.602  0.5367  2.0363 -0.0578
 3545TIP3   OH232269   2.115   4.971   8.805  0.1178 -0.6410 -0.1003
 3545TIP3    H132270   2.028   5.006   8.787 -1.6706 -4.0304  1.2178
 3545TIP3    H232271   2.103   4.876   8.808  3.7488 -1.2067  0.8639
 3546TIP3   OH232272   1.195   3.289   0.503  0.4033 -0.2761 -0.1146
 3546TIP3    H132273   1.234   3.348   0.566  1.7087 -1.3108  0.1001
 3546TIP3    H232274   1.170   3.345   0.429  0.6634  0.6578  0.4941
 3547TIP3   OH232275   5.345   2.403   8.030 -0.2972 -0.0613 -0.2645
 3547TIP3    H132276   5.262   2.361   8.050 -0.7218  1.6552  1.9132
 3547TIP3    H232277   5.323   2.475   7.972 -0.2902  0.2270  0.0902
 3548TIP3   OH232278   0.361   3.711   7.632 -0.3307  0.0665  0.1875
 3548TIP3    H132279   0.418   3.666   7.696 -1.9002 -0.7496  1.0730
 3548TIP3    H232280   0.381   3.804   7.644  0.7028 -0.1815  0.5748
 3549TIP3   OH232281   3.524   2.224   8.704 -0.2140  0.3590 -0.1873
 3549TIP3    H132282   3.574   2.146   8.726  1.5309  1.1078 -1.2843
 3549TIP3    H232283   3.436   2.192   8.685  0.3631 -1.2901 -0.2366
 3550TIP3   OH232284   1.024   4.547   7.708  0.4563  0.5206 -0.2956
 3550TIP3    H132285   1.002   4.466   7.753 -0.5431  1.0123  0.1443
 3550TIP3    H232286   1.051   4.520   7.620  1.1192 -0.3512  0.1639
 3551TIP3   OH232287   3.556   5.732   8.238 -0.5498 -0.5714  0.0984
 3551TIP3    H132288   3.596   5.819   8.230 -1.5852 -0.0375  0.5350
 3551TIP3    H232289   3.512   5.718   8.154 -1.3582 -0.1634  0.4488
 3552TIP3   OH232290   1.265   0.677   8.533  0.2514 -0.4926 -0.4663
 3552TIP3    H132291   1.348   0.706   8.569 -0.5671 -0.1057  1.1963
 3552TIP3    H232292   1.264   0.582   8.547  0.6251 -0.5884 -1.0156
 3553TIP3   OH232293   4.531   2.566   1.886  0.2155  0.1108 -0.6814
 3553TIP3    H132294   4.595   2.558   1.815 -2.6566  1.1096 -3.6540
 3553TIP3    H232295   4.446   2.559   1.842 -1.8051 -1.0808  2.9959
 3554TIP3   OH232296   2.020   5.383   7.976 -0.0421 -0.3195 -0.1617
 3554TIP3    H132297   2.103   5.371   7.931 -0.3319 -1.7398 -0.3585
 3554TIP3    H232298   1.983   5.462   7.937  0.7744 -0.2183 -0.7548
 3555TIP3   OH232299   0.019   4.804   7.909 -0.0033 -0.4492 -0.1483
 3555TIP3    H132300  -0.041   4.737   7.942  0.0103 -0.5950 -0.4175
 3555TIP3    H232301   0.031   4.864   7.983 -1.2479  0.1196 -0.3826
 3556TIP3   OH232302   2.253   4.409   7.780 -0.4996  0.2367 -0.9092
 3556TIP3    H132303   2.200   4.334   7.809 -0.3232  0.0717 -1.0103
 3556TIP3    H232304   2.311   4.427   7.854 -1.1849  0.8741 -0.5211
 3557TIP3   OH232305   6.667   0.430   7.059  0.5557 -0.0275 -0.7683
 3557TIP3    H132306   6.617   0.384   6.991 -0.0084 -0.9745  0.2453
 3557TIP3    H232307   6.752   0.388   7.059  0.3781 -0.3910 -0.5332
 3558TIP3   OH232308   2.995   2.851   1.735 -0.4845 -0.3680 -0.1089
 3558TIP3    H132309   2.990   2.914   1.664  0.3196 -0.1530  0.0213
 3558TIP3    H232310   2.968   2.768   1.695 -2.4416  0.1900 -0.0675
 3559TIP3   OH232311   5.085   3.179   0.782  0.1743 -0.3365  0.8052
 3559TIP3    H132312   5.070   3.150   0.872 -1.2416 -1.1659  0.3449
 3559TIP3    H232313   5.113   3.100   0.736 -1.8488 -0.6153 -0.0521
 3560TIP3   OH232314   6.435   2.328   7.042  0.2740 -0.2686  0.2718
 3560TIP3    H132315   6.444   2.367   6.955 -1.0447 -0.2071  0.1345
 3560TIP3    H232316   6.503   2.370   7.095  0.9605 -0.1652 -0.6692
 3561TIP3   OH232317   2.803   5.254   0.524 -0.2297 -0.6923  0.7375
 3561TIP3    H132318   2.765   5.252   0.612  1.1982 -0.2218  1.4009
 3561TIP3    H232319   2.797   5.346   0.498 -0.4303 -0.7893  0.4411
 3562TIP3   OH232320   5.711   2.208   6.850  0.1259  0.0070 -0.3390
 3562TIP3    H132321   5.741   2.226   6.761  1.2605  1.9700  0.3640
 3562TIP3    H232322   5.616   2.220   6.846  0.3849  2.4016 -0.8704
 3563TIP3   OH232323   0.466   4.602   0.418 -0.3826  0.4144 -0.0808
 3563TIP3    H132324   0.546   4.575   0.373 -0.5617 -0.9847  0.3888
 3563TIP3    H232325   0.396   4.583   0.356 -0.2820  3.9142 -1.5128
 3564TIP3   OH232326   1.611   4.817   1.168  0.0252 -0.5275  0.1689
 3564TIP3    H132327   1.616   4.725   1.144 -2.2928 -0.5245 -0.6242
 3564TIP3    H232328   1.611   4.817   1.264 -1.0654 -1.4903  0.1937
 3565TIP3   OH232329   5.225   0.352   8.437 -0.1890 -0.4752  0.2763
 3565TIP3    H132330   5.158   0.420   8.429  0.5836  0.2230 -0.4628
 3565TIP3    H232331   5.268   0.369   8.521 -0.4420 -0.4666  0.4035
 3566TIP3   OH232332   6.395   2.420   6.769 -0.0582  0.6236 -0.1914
 3566TIP3    H132333   6.331   2.435   6.699 -0.0448 -1.0323 -0.6049
 3566TIP3    H232334   6.480   2.418   6.725  0.0738  0.7724  0.0515
 3567TIP3   OH232335   5.421   2.106   1.917 -0.2570 -0.6271  0.4771
 3567TIP3    H132336   5.367   2.095   1.838  2.1160 -0.5313 -1.2659
 3567TIP3    H232337   5.474   2.026   1.921  1.2706  0.3510  0.6051
 3568TIP3   OH232338   3.288   4.496   0.925  0.6804 -0.6429 -0.4241
 3568TIP3    H132339   3.211   4.479   0.871  0.8540  2.6576 -1.8920
 3568TIP3    H232340   3.362   4.478   0.867  0.9745 -0.8356  0.0056
 3569TIP3   OH232341   6.091   3.440   0.093  0.5431 -0.3657 -0.0822
 3569TIP3    H132342   6.144   3.520   0.092  2.3498 -1.4477  1.5321
 3569TIP3    H232343   6.034   3.451   0.169 -0.7466  0.2533 -1.0957
 3570TIP3   OH232344   5.665   2.186   0.826  0.1630  0.3218  0.3919
 3570TIP3    H132345   5.666   2.228   0.912 -0.9224 -0.4858  0.8186
 3570TIP3    H232346   5.612   2.244   0.771 -0.5791 -0.0202  0.7370
 3571TIP3   OH232347   6.773   3.025   1.324 -0.5548 -0.0804 -0.2399
 3571TIP3    H132348   6.866   3.002   1.319 -1.0741 -2.3138 -0.9191
 3571TIP3    H232349   6.770   3.105   1.376  1.7641  0.1905 -0.4370
 3572TIP3   OH232350   3.487   4.449   0.748  0.3678  0.8001  0.6333
 3572TIP3    H132351   3.461   4.503   0.673  0.4551  0.3482  0.2743
 3572TIP3    H232352   3.575   4.418   0.726 -0.2336 -0.6705  0.1581
 3573TIP3   OH232353   3.467   6.654   7.391  0.3991  0.0944 -0.4964
 3573TIP3    H132354   3.496   6.737   7.429  1.4232  0.9507 -2.9055
 3573TIP3    H232355   3.378   6.672   7.361  0.9316  0.6701 -1.8164
 3574TIP3   OH232356   6.682   6.520   7.465 -0.0751  0.0297 -0.2427
 3574TIP3    H132357   6.775   6.535   7.445  0.2161 -0.7461  0.4545
 3574TIP3    H232358   6.678   6.516   7.560 -0.6257 -1.0720 -0.2895
 3575TIP3   OH232359   2.720   3.221   7.165  0.0749  0.7597 -0.4977
 3575TIP3    H132360   2.695   3.144   7.217 -2.0270  2.4736  1.2290
 3575TIP3    H232361   2.641   3.241   7.114  0.2248  2.3274 -0.1579
 3576TIP3   OH232362   5.177   5.181   0.949 -0.6003 -0.2994  0.5051
 3576TIP3    H132363   5.254   5.158   1.001  0.0870 -1.0268 -0.7737
 3576TIP3    H232364   5.209   5.182   0.858 -2.1499 -0.8519 -0.0848
 3577TIP3   OH232365   0.630   1.432   6.814 -0.1959  0.1616 -0.1801
 3577TIP3    H132366   0.563   1.383   6.766  1.8259 -1.7801 -1.1590
 3577TIP3    H232367   0.669   1.490   6.748 -0.0744  0.3867  0.0879
 3578TIP3   OH232368   3.531   6.854   0.040  0.8185  0.0996  0.4218
 3578TIP3    H132369   3.474   6.895   0.106 -0.7435 -3.2474  1.3908
 3578TIP3    H232370   3.618   6.858   0.079  0.5624  1.5091  0.9211
 3579TIP3   OH232371   5.819   3.840   7.868 -0.4658  0.0153 -0.2525
 3579TIP3    H132372   5.749   3.846   7.934 -0.5767 -2.0427 -0.1107
 3579TIP3    H232373   5.779   3.873   7.788 -1.5678 -0.8723 -0.1059
 3580TIP3   OH232374   5.652   0.786   2.331 -0.0960  0.2587 -0.0212
 3580TIP3    H132375   5.590   0.720   2.301 -0.4566  0.6455 -0.1364
 3580TIP3    H232376   5.668   0.840   2.254 -1.2699  1.4468  0.5228
 3581TIP3   OH232377   6.673   2.845   0.352  0.0262  0.9602 -0.0021
 3581TIP3    H132378   6.680   2.930   0.395  0.6553  1.8401 -1.7349
 3581TIP3    H232379   6.591   2.850   0.303  0.8805  1.2621 -1.4558
 3582TIP3   OH232380   3.739   5.401   7.477 -0.2370  0.2531 -0.6867
 3582TIP3    H132381   3.776   5.338   7.538 -1.5511  0.7999  0.7780
 3582TIP3    H232382   3.686   5.459   7.533 -0.8158  1.3045 -2.2564
 3583TIP3   OH232383   1.821   5.605   0.270  0.6149 -0.5587  0.0604
 3583TIP3    H132384   1.837   5.660   0.347 -0.4025 -1.4338  0.9200
 3583TIP3    H232385   1.758   5.656   0.218  1.5285  0.1677 -0.3638
 3584TIP3   OH232386   6.437   3.116   0.561 -0.5124  0.6115  0.6525
 3584TIP3    H132387   6.522   3.074   0.549  0.0670  1.4560  1.5855
 3584TIP3    H232388   6.422   3.163   0.479  0.4273  1.2854  0.8468
 3585TIP3   OH232389   5.766   1.966   0.592  0.0822  0.2666  0.1734
 3585TIP3    H132390   5.856   1.934   0.584  0.6017  1.6067  0.4107
 3585TIP3    H232391   5.773   2.041   0.651 -0.8581  1.6193 -1.3552
 3586TIP3   OH232392   3.567   1.803   7.131  0.1722  0.3987 -0.1814
 3586TIP3    H132393   3.528   1.738   7.190  2.8001 -0.8846  0.2603
 3586TIP3    H232394   3.558   1.765   7.044  0.7225 -0.0521 -0.0440
 3587TIP3   OH232395   3.504   5.373   0.025 -0.7387  0.2884  0.2743
 3587TIP3    H132396   3.482   5.301  -0.034  0.2589 -0.0206  0.2669
 3587TIP3    H232397   3.565   5.427  -0.025  1.4804 -0.8760  1.5400
 3588TIP3   OH232398   3.178   4.065   2.263 -0.2352  0.3198 -0.2376
 3588TIP3    H132399   3.167   4.136   2.326  1.6257  1.1748 -0.7730
 3588TIP3    H232400   3.130   4.094   2.185 -0.1700  0.6244 -0.1670
 3589TIP3   OH232401   5.686   6.743   6.641  0.2385  0.1605 -0.5293
 3589TIP3    H132402   5.632   6.682   6.590 -2.3645  1.7829  0.0967
 3589TIP3    H232403   5.658   6.730   6.732 -0.7784  2.5510 -0.4273
 3590TIP3   OH232404   0.357   4.999   6.703 -0.1627 -0.2221  0.2235
 3590TIP3    H132405   0.359   4.908   6.734  1.2101 -0.6430 -1.0026
 3590TIP3    H232406   0.329   5.049   6.779 -1.7130 -1.7290  0.7233
 3591TIP3   OH232407   4.080   2.405   7.505 -0.2371 -0.4751  0.2553
 3591TIP3    H132408   4.124   2.417   7.421 -1.5130  1.6698 -0.1965
 3591TIP3    H232409   3.996   2.366   7.482 -0.9753  0.9600  0.3507
 3592TIP3   OH232410   1.040   2.936   6.766  0.7887 -0.6338 -0.3632
 3592TIP3    H132411   1.012   3.023   6.738 -0.0632 -1.5980 -2.8397
 3592TIP3    H232412   1.136   2.939   6.758  0.9477  0.6043  1.4582
 3593TIP3   OH232413   5.623   2.018   1.397  0.3880 -0.6631 -0.3260
 3593TIP3    H132414   5.617   1.939   1.451  1.2694  1.0904  2.5793
 3593TIP3    H232415   5.697   2.002   1.338  0.6668 -1.9397  0.3514
 3594TIP3   OH232416   4.303   0.179   8.175 -0.7798  0.3361  1.0824
 3594TIP3    H132417   4.309   0.258   8.121 -0.8516 -0.0138  0.5514
 3594TIP3    H232418   4.212   0.177   8.203 -1.2039 -0.4260 -0.2680
 3595TIP3   OH232419   4.826   3.431   1.874  0.1122  0.4861  0.8191
 3595TIP3    H132420   4.834   3.441   1.780  2.0929  1.1465  0.9993
 3595TIP3    H232421   4.766   3.500   1.901  0.5877  1.1650  0.1773
 3596TIP3   OH232422   4.835   0.195   7.413  0.6832  0.1416  0.0534
 3596TIP3    H132423   4.748   0.167   7.384  1.5201 -0.1048 -2.4347
 3596TIP3    H232424   4.820   0.280   7.453 -0.5491  0.7501 -1.5966
 3597TIP3   OH232425   0.791   3.533   1.163  0.0180 -0.0009 -0.1919
 3597TIP3    H132426   0.868   3.548   1.219  0.3191 -0.7718 -0.3857
 3597TIP3    H232427   0.717   3.564   1.216  0.2858 -0.8368  0.7034
 3598TIP3   OH232428   3.660   3.760   6.610 -0.1824 -0.4895  0.0135
 3598TIP3    H132429   3.743   3.735   6.570  0.2599  0.5655  0.2467
 3598TIP3    H232430   3.632   3.682   6.658 -0.0957 -1.3594 -1.2879
 3599TIP3   OH232431   3.770   4.777   0.179 -0.2737  0.3104 -0.0648
 3599TIP3    H132432   3.728   4.783   0.093  0.1860 -1.4357 -0.4469
 3599TIP3    H232433   3.855   4.819   0.166 -0.0683 -0.2500 -0.5621
 3600TIP3   OH232434   5.082   2.100   0.517 -0.2767  0.1439  0.2548
 3600TIP3    H132435   5.099   2.185   0.557 -0.8004 -0.1180  1.0689
 3600TIP3    H232436   5.037   2.121   0.435 -0.2341  0.6572  0.3585
 3601TIP3   OH232437   0.754   5.971   6.747 -0.0484 -0.0684  0.0943
 3601TIP3    H132438   0.787   5.999   6.661  0.6123  2.1029  0.9777
 3601TIP3    H232439   0.773   5.877   6.750  0.1105 -0.1653 -2.0312
 3602TIP3   OH232440   6.437   1.484   0.861  0.1579  0.1447 -0.1785
 3602TIP3    H132441   6.498   1.528   0.921 -0.7466  1.0349  0.1049
 3602TIP3    H232442   6.382   1.430   0.919 -1.5303  1.9419 -0.0030
 3603TIP3   OH232443   1.789   4.611   8.785 -0.1249 -0.0819  0.4427
 3603TIP3    H132444   1.701   4.626   8.750 -0.1143 -0.3922  0.2813
 3603TIP3    H232445   1.839   4.688   8.757 -0.3911  0.1842  0.6930
 3604TIP3   OH232446   1.856   6.709   8.103 -0.8825 -0.2365 -0.0050
 3604TIP3    H132447   1.947   6.738   8.090 -0.9052  1.3192  2.5152
 3604TIP3    H232448   1.862   6.644   8.172 -1.6148 -0.8009 -0.4714
 3605TIP3   OH232449   5.919   5.985   1.317  0.3951  0.4509  0.4425
 3605TIP3    H132450   5.996   6.031   1.351  0.9246 -0.5836  0.6786
 3605TIP3    H232451   5.901   6.028   1.234 -0.2889  2.3391  1.5001
 3606TIP3   OH232452   3.327   4.673   0.087  0.1877 -0.6710  0.1494
 3606TIP3    H132453   3.253   4.690   0.029  1.2885 -1.1061 -1.4167
 3606TIP3    H232454   3.339   4.756   0.134 -1.1633 -0.5394  0.3122
 3607TIP3   OH232455   3.155   2.026   0.916  0.1070 -0.0392  0.1593
 3607TIP3    H132456   3.076   1.975   0.901 -0.4083  1.1145 -1.2308
 3607TIP3    H232457   3.185   1.999   1.003 -2.1824 -0.0147  1.0050
 3608TIP3   OH232458   6.734   0.493   1.480  0.2157 -0.3221  0.0645
 3608TIP3    H132459   6.811   0.500   1.424  0.7723  1.2762  0.9533
 3608TIP3    H232460   6.768   0.457   1.562 -0.2296 -0.7997  0.0457
 3609TIP3   OH232461   0.236   4.328   8.757 -0.1038  0.1226 -0.0295
 3609TIP3    H132462   0.140   4.327   8.755 -0.1059 -1.1252  0.1132
 3609TIP3    H232463   0.260   4.390   8.688 -1.0219  2.0855  1.3125
 3610TIP3   OH232464   6.482   2.144   1.478  0.1197 -0.2058  0.1569
 3610TIP3    H132465   6.437   2.201   1.540  2.5654 -0.0908  2.0013
 3610TIP3    H232466   6.541   2.091   1.532  0.6228 -1.8518 -1.8598
 3611TIP3   OH232467   0.430   0.952   1.398  0.4898 -0.4154  0.1495
 3611TIP3    H132468   0.463   0.941   1.487 -1.0371  1.0497  0.9575
 3611TIP3    H232469   0.351   0.897   1.395  0.2401 -0.0456 -0.1142
 3612TIP3   OH232470   5.149   4.814   2.317 -0.0180 -0.5277 -0.2231
 3612TIP3    H132471   5.100   4.845   2.393  1.4597  1.3476  0.0696
 3612TIP3    H232472   5.150   4.719   2.325 -0.0178 -0.3851  2.0562
 3613TIP3   OH232473   3.107   3.416   6.588 -0.0743  0.4718  0.2318
 3613TIP3    H132474   3.094   3.368   6.507 -0.2356  3.6838 -1.8505
 3613TIP3    H232475   3.192   3.387   6.621  1.2284  0.8958 -2.5401
 3614TIP3   OH232476   2.583   2.865   1.128  0.3084 -0.0589  0.1749
 3614TIP3    H132477   2.527   2.858   1.205 -0.4736  0.7340 -0.2969
 3614TIP3    H232478   2.618   2.777   1.115 -1.2929 -0.7294  0.1622
 3615TIP3   OH232479   0.157   3.318   0.466  0.4740 -0.0017 -0.4564
 3615TIP3    H132480   0.251   3.336   0.461  0.5800 -0.6092 -0.7629
 3615TIP3    H232481   0.144   3.242   0.408 -0.3523  0.6501 -1.1509
 3616TIP3   OH232482   3.639   3.531   6.778 -0.3300 -0.0746 -0.0733
 3616TIP3    H132483   3.730   3.501   6.781 -0.6384 -0.9391  1.7908
 3616TIP3    H232484   3.594   3.477   6.842 -1.8607  1.3904  0.1384
 3617TIP3   OH232485   5.173   1.245   7.724 -0.8436  0.6038  0.2232
 3617TIP3    H132486   5.223   1.165   7.740  2.0227  2.7873  3.4436
 3617TIP3    H232487   5.163   1.248   7.628 -1.7050 -3.7696 -0.0294
 3618TIP3   OH232488   3.795   4.509   6.981 -0.0602  0.3105  0.1267
 3618TIP3    H132489   3.824   4.422   6.952  1.7138  1.0397 -0.3648
 3618TIP3    H232490   3.794   4.503   7.077 -0.7785 -0.4937  0.0818
 3619TIP3   OH232491   1.966   2.153   0.597 -0.2083 -0.1685 -0.4754
 3619TIP3    H132492   1.991   2.156   0.505  1.0999 -0.8025 -0.1680
 3619TIP3    H232493   2.048   2.171   0.644 -0.5671 -1.1882  0.5800
 3620TIP3   OH232494   4.661   2.718   6.691 -0.1614  0.2144 -0.0571
 3620TIP3    H132495   4.651   2.786   6.757  0.1320  0.8238 -0.6255
 3620TIP3    H232496   4.635   2.760   6.609 -1.7426 -0.8861 -0.1706
 3621TIP3   OH232497   2.082   0.174   7.254 -0.5735 -0.4162  0.8779
 3621TIP3    H132498   2.008   0.211   7.206 -0.0602 -0.7130 -0.1777
 3621TIP3    H232499   2.076   0.080   7.238 -0.5213 -0.5482  1.5970
 3622TIP3   OH232500   1.140   5.636   1.197 -0.4946  0.6367 -0.0755
 3622TIP3    H132501   1.051   5.623   1.230 -0.3153  0.6704  0.4305
 3622TIP3    H232502   1.188   5.674   1.270  0.0071  0.3685 -0.2539
 3623TIP3   OH232503   4.018   6.356   6.411 -0.2462  0.8078 -0.1256
 3623TIP3    H132504   4.013   6.261   6.421  0.1082  0.5946 -1.7544
 3623TIP3    H232505   3.927   6.386   6.410 -0.3966  0.3458 -0.6880
 3624TIP3   OH232506   4.693   2.198   7.944  0.6458 -0.0609  0.3158
 3624TIP3    H132507   4.746   2.279   7.943 -1.4517  1.4064 -1.2954
 3624TIP3    H232508   4.603   2.229   7.948 -0.3205 -2.2319 -2.1463
 3625TIP3   OH232509   3.353   4.226   8.271  0.0548 -0.0081  0.3551
 3625TIP3    H132510   3.381   4.279   8.346  0.4476 -0.1029  0.2805
 3625TIP3    H232511   3.434   4.185   8.239 -0.4924 -2.2347  1.6204
 3626TIP3   OH232512   5.009   4.446   7.175 -0.1864 -0.0973  0.3714
 3626TIP3    H132513   5.013   4.351   7.162  0.1170 -0.2418  1.3827
 3626TIP3    H232514   5.086   4.466   7.229 -1.7486  0.2641  2.6179
 3627TIP3   OH232515   1.698   2.912   0.979  0.6792 -0.1912 -0.6209
 3627TIP3    H132516   1.650   2.862   1.044  0.3382  0.3975 -0.4145
 3627TIP3    H232517   1.789   2.881   0.987  0.2483 -1.7669 -1.4544
 3628TIP3   OH232518   3.430   5.673   1.830 -0.5213 -0.0166 -0.2319
 3628TIP3    H132519   3.396   5.612   1.765  0.9929 -0.4711 -0.6368
 3628TIP3    H232520   3.495   5.726   1.783 -1.0581  1.2268  0.3639
 3629TIP3   OH232521   5.592   4.061   8.373  0.1572  0.2590 -0.4472
 3629TIP3    H132522   5.530   4.002   8.417  0.5652 -1.6875 -2.3248
 3629TIP3    H232523   5.558   4.069   8.284  1.6037  0.6581 -0.9913
 3630TIP3   OH232524   3.185   1.588   1.652 -0.0434 -0.5496  0.7034
 3630TIP3    H132525   3.146   1.670   1.621  1.8150  0.9092  1.9957
 3630TIP3    H232526   3.130   1.560   1.724  0.1395  0.4032  1.2249
 3631TIP3   OH232527   2.175   0.460   8.604 -0.4220  0.5958 -0.7293
 3631TIP3    H132528   2.129   0.455   8.520 -2.1423  0.5705  0.1684
 3631TIP3    H232529   2.113   0.425   8.667  1.2323 -0.3500  0.4370
 3632TIP3   OH232530   2.988   2.585   0.393  0.5294 -0.0876 -0.6365
 3632TIP3    H132531   2.970   2.501   0.436  0.7463  0.7848  1.2756
 3632TIP3    H232532   3.003   2.646   0.465 -1.6606  2.0834 -1.8527
 3633TIP3   OH232533   1.853   6.094   0.078  0.1182 -0.1375 -0.6309
 3633TIP3    H132534   1.922   6.151   0.044  3.0769 -3.2579 -0.3520
 3633TIP3    H232535   1.786   6.093   0.009  0.8451  2.0676 -1.4407
 3634TIP3   OH232536   6.474   4.568   0.864 -0.7982  0.2076 -0.4782
 3634TIP3    H132537   6.522   4.650   0.877 -0.9310  0.1600  0.2958
 3634TIP3    H232538   6.407   4.567   0.931  0.7002 -1.6450  1.1335
 3635TIP3   OH232539   1.315   4.973   8.124 -0.2063 -0.2272  0.0455
 3635TIP3    H132540   1.235   4.928   8.101 -0.5942  0.2972  0.3361
 3635TIP3    H232541   1.372   4.962   8.048 -0.5594 -0.5789 -0.1713
 3636TIP3   OH232542   5.099   5.936   0.270  0.2934 -0.0506  0.5109
 3636TIP3    H132543   5.149   6.016   0.288  2.3148 -1.3520  1.0848
 3636TIP3    H232544   5.036   5.929   0.341  0.0989  1.0060  0.4557
 3637TIP3   OH232545   0.311   5.514   1.720 -0.6618 -0.2681 -0.0727
 3637TIP3    H132546   0.222   5.510   1.685 -1.2261  0.1746  1.2582
 3637TIP3    H232547   0.367   5.493   1.645 -1.8976 -0.9850 -0.8305
 3638TIP3   OH232548   2.633   3.831   6.689 -0.3583  0.5796  0.2754
 3638TIP3    H132549   2.557   3.775   6.671 -0.3332  0.1818  1.3773
 3638TIP3    H232550   2.625   3.902   6.625 -0.5523 -0.5056 -0.9416
 3639TIP3   OH232551   0.286   3.452   0.189  0.3411  0.0474  0.1754
 3639TIP3    H132552   0.247   3.388   0.248  0.7294 -0.6656 -0.3284
 3639TIP3    H232553   0.238   3.442   0.107 -0.5375  1.3893  0.4939
 3640TIP3   OH232554   5.556   2.921   8.567 -0.2095  0.4873  0.2168
 3640TIP3    H132555   5.619   2.977   8.523 -0.6603  0.8633  0.0421
 3640TIP3    H232556   5.581   2.923   8.659  1.0733 -0.7324 -0.0643
 3641TIP3   OH232557   3.765   6.643   0.909  0.0450  0.2646 -0.1442
 3641TIP3    H132558   3.806   6.614   0.827  0.2308 -4.5934  1.3175
 3641TIP3    H232559   3.672   6.627   0.896  0.1339 -1.0422  0.6925
 3642TIP3   OH232560   0.493   3.677   0.406  0.0075 -0.1639 -0.1962
 3642TIP3    H132561   0.499   3.692   0.500 -1.7319 -0.9756  0.0821
 3642TIP3    H232562   0.434   3.744   0.374 -0.2132 -0.5140 -0.5366
 3643TIP3   OH232563   5.047   5.615   1.675 -0.5195 -0.1262  0.1292
 3643TIP3    H132564   4.999   5.600   1.757  0.9520 -0.7574  0.9302
 3643TIP3    H232565   4.980   5.644   1.613 -1.4486  1.9684  1.9560
 3644TIP3   OH232566   2.050   5.408   7.386  0.5263 -0.9310 -0.1211
 3644TIP3    H132567   1.969   5.436   7.345  1.5409 -0.7882 -2.1814
 3644TIP3    H232568   2.035   5.316   7.411 -0.2828 -0.8789 -0.4115
 3645TIP3   OH232569   5.204   5.575   7.151 -0.2907  0.3147  0.0091
 3645TIP3    H132570   5.146   5.652   7.156 -0.5964  0.0425  0.7383
 3645TIP3    H232571   5.277   5.597   7.208 -0.0968  0.2981 -0.2332
 3646TIP3   OH232572   3.013   1.941   8.289 -0.1708  0.9406  0.1317
 3646TIP3    H132573   2.936   1.912   8.338 -0.1042  0.6823  0.0872
 3646TIP3    H232574   3.018   2.035   8.305 -0.4367  0.9409  0.2182
 3647TIP3   OH232575   2.382   2.244   7.717  0.6031 -0.0969  0.3210
 3647TIP3    H132576   2.391   2.161   7.763 -1.6678 -1.2760 -1.2031
 3647TIP3    H232577   2.315   2.292   7.765 -0.0227 -0.3037 -0.3297
 3648TIP3   OH232578   5.280   5.141   7.836 -0.4205 -0.0763 -0.2137
 3648TIP3    H132579   5.262   5.222   7.787  0.4118  0.5161  0.4360
 3648TIP3    H232580   5.233   5.074   7.788  0.8582  0.3704 -2.2292
 3649TIP3   OH232581   4.345   5.837   2.290  0.1182 -0.0490 -0.6746
 3649TIP3    H132582   4.439   5.819   2.286  0.0012 -1.2745  1.0138
 3649TIP3    H232583   4.304   5.754   2.264 -0.5172  0.5854 -1.7448
 3650TIP3   OH232584   0.602   2.972   8.183 -0.4115 -0.8759  0.1236
 3650TIP3    H132585   0.577   3.059   8.152  0.6897  0.2794  2.2239
 3650TIP3    H232586   0.524   2.919   8.172 -0.7497 -0.0180 -2.3751
 3651TIP3   OH232587   1.754   6.596   7.258 -0.1353  0.3462  0.8814
 3651TIP3    H132588   1.810   6.571   7.184 -0.7525 -0.9848  0.8310
 3651TIP3    H232589   1.686   6.650   7.219  0.8882  1.7201  0.8949
 3652TIP3   OH232590   4.178   4.815   0.287  0.6220  0.2419 -0.2572
 3652TIP3    H132591   4.272   4.794   0.286  0.9367  1.5820 -0.8368
 3652TIP3    H232592   4.158   4.828   0.379  0.9532 -0.2335 -0.1111
 3653TIP3   OH232593   5.077   3.956   7.657  0.3079  0.1790 -0.6535
 3653TIP3    H132594   4.984   3.981   7.661 -0.0282 -1.1044  0.0485
 3653TIP3    H232595   5.088   3.920   7.569  0.2659  0.7510 -0.8994
 3654TIP3   OH232596   2.442   1.293   7.813  0.1328 -0.4143  0.1509
 3654TIP3    H132597   2.536   1.309   7.823 -0.0827  0.8469  0.2624
 3654TIP3    H232598   2.411   1.362   7.756 -0.6960 -0.9633 -0.0839
 3655TIP3   OH232599   1.736   1.966   8.779  0.0625 -0.1590  0.0341
 3655TIP3    H132600   1.742   2.011   8.863 -1.1865 -1.6159  0.9535
 3655TIP3    H232601   1.761   2.032   8.714  1.3473  0.9082  1.5469
 3656TIP3   OH232602   1.716   0.844   7.818 -0.4080 -0.0254  0.5294
 3656TIP3    H132603   1.728   0.760   7.862 -0.5707 -0.5806 -0.4837
 3656TIP3    H232604   1.690   0.903   7.889  0.8580 -0.5295  1.4623
 3657TIP3   OH232605   5.515   2.243   7.879 -0.5621 -0.2007  0.4523
 3657TIP3    H132606   5.557   2.310   7.825 -0.9869  0.3224  0.7577
 3657TIP3    H232607   5.448   2.291   7.928 -1.1002 -0.9124  0.4255
 3658TIP3   OH232608   5.911   3.836   7.518 -0.1228 -0.0748 -0.0253
 3658TIP3    H132609   5.829   3.794   7.493 -0.8070 -0.2222  2.2102
 3658TIP3    H232610   5.885   3.923   7.550  0.6041 -0.0175  0.4364
 3659TIP3   OH232611   1.353   3.038   7.846 -0.3160 -0.5368 -0.3424
 3659TIP3    H132612   1.367   3.068   7.756 -0.3417  2.0139  0.4431
 3659TIP3    H232613   1.262   3.061   7.866  0.4217  1.4066  1.1443
 3660TIP3   OH232614   0.824   2.921   1.171 -0.0699  0.5453 -0.0309
 3660TIP3    H132615   0.920   2.921   1.170 -0.0602  0.3797 -1.2976
 3660TIP3    H232616   0.800   3.008   1.141 -0.2826  0.1236 -1.1511
 3661TIP3   OH232617   3.503   4.021   0.323 -0.4937  0.3588 -0.5129
 3661TIP3    H132618   3.468   4.090   0.266  1.2142  1.2415 -0.5385
 3661TIP3    H232619   3.425   3.973   0.353 -1.6793  1.9633 -0.9114
 3662TIP3   OH232620   0.152   1.987   7.325 -0.4083  0.2144  0.0511
 3662TIP3    H132621   0.247   2.000   7.320 -0.4138  0.3486  0.3280
 3662TIP3    H232622   0.137   1.949   7.411 -0.7630  1.5781  0.6201
 3663TIP3   OH232623   4.555   5.051   7.380 -0.4231  0.0282  0.0263
 3663TIP3    H132624   4.478   5.010   7.340 -1.3789  0.7840  1.0236
 3663TIP3    H232625   4.519   5.119   7.437  0.9228 -0.4853  1.5700
 3664TIP3   OH232626   0.087   6.801   0.153 -0.1110 -0.8055 -0.0081
 3664TIP3    H132627   0.139   6.858   0.096 -0.2287 -0.5076  0.1765
 3664TIP3    H232628   0.005   6.788   0.106  1.1101 -3.5644 -1.6273
 3665TIP3   OH232629   6.557   5.382   7.834 -0.3371  0.2773 -0.2732
 3665TIP3    H132630   6.624   5.449   7.829  0.3617 -0.2299  1.4805
 3665TIP3    H232631   6.596   5.312   7.887 -0.8796 -1.7118 -2.3125
 3666TIP3   OH232632   1.368   5.071   0.149 -0.4279 -0.0698 -0.2957
 3666TIP3    H132633   1.341   5.091   0.059 -1.2321  0.5100  0.0629
 3666TIP3    H232634   1.370   4.976   0.153 -0.0971 -0.0984 -1.0073
 3667TIP3   OH232635   6.748   2.447   7.568  0.3626 -0.2431 -0.3907
 3667TIP3    H132636   6.799   2.442   7.487  1.3413  0.2970  0.1642
 3667TIP3    H232637   6.702   2.531   7.562  0.6628 -0.0688 -0.2600
 3668TIP3   OH232638   0.928   0.052   6.947 -0.7063 -0.1681  0.3953
 3668TIP3    H132639   0.921  -0.043   6.950 -0.7798 -0.1652  0.3168
 3668TIP3    H232640   1.023   0.069   6.944 -0.6617 -0.2100  1.3339
 3669TIP3   OH232641   1.815   5.423   1.198  0.0393 -0.1484 -0.4559
 3669TIP3    H132642   1.903   5.456   1.181 -0.5051  1.8640  0.4184
 3669TIP3    H232643   1.804   5.429   1.293 -0.4987 -1.8880 -0.3660
 3670TIP3   OH232644   2.782   3.701   1.409 -0.1343  0.3081  0.1656
 3670TIP3    H132645   2.853   3.765   1.413  0.0788  0.0689  0.1723
 3670TIP3    H232646   2.825   3.618   1.389 -0.3167 -0.0059  1.0692
 3671TIP3   OH232647   4.050   1.682   8.182 -0.1442 -0.0859  0.3242
 3671TIP3    H132648   4.042   1.774   8.154  0.9907  0.0363  0.3678
 3671TIP3    H232649   4.016   1.632   8.107 -1.1218  0.3639  0.4425
 3672TIP3   OH232650   6.513   6.402   1.262 -0.8070  0.8998  0.2011
 3672TIP3    H132651   6.480   6.405   1.352  1.3396 -0.8767  1.1516
 3672TIP3    H232652   6.487   6.316   1.229 -0.4861  1.0229 -0.3956
 3673TIP3   OH232653   4.272   2.645   7.968  0.3126  0.6229  0.0173
 3673TIP3    H132654   4.242   2.595   7.892  0.8013  0.7103 -0.2337
 3673TIP3    H232655   4.221   2.726   7.964  1.6542  1.4528 -1.2997
 3674TIP3   OH232656   0.902   1.293   6.740 -0.4476 -0.6931  0.1814
 3674TIP3    H132657   0.877   1.202   6.753 -3.0596 -0.2823 -1.2949
 3674TIP3    H232658   0.839   1.343   6.792  0.7623  0.3217  0.7352
 3675TIP3   OH232659   6.438   6.409   7.747 -0.4511 -0.7159  0.0759
 3675TIP3    H132660   6.427   6.455   7.831 -1.3284  1.4687 -1.1655
 3675TIP3    H232661   6.366   6.346   7.745  0.2578 -1.6117  1.4406
 3676TIP3   OH232662   5.521   0.167   8.112 -0.5578  0.6846  0.9978
 3676TIP3    H132663   5.515   0.127   8.025  0.6548  0.9450  0.7718
 3676TIP3    H232664   5.454   0.122   8.164 -1.4132  0.6379 -0.1050
 3677TIP3   OH232665   0.304   5.841   1.692  0.4081  0.0803 -0.4083
 3677TIP3    H132666   0.233   5.801   1.742  2.5891 -2.5953  0.7784
 3677TIP3    H232667   0.288   5.814   1.602  0.1566 -0.9049 -0.0838
 3678TIP3   OH232668   1.063   2.837   7.502  0.4150  0.6981  0.1778
 3678TIP3    H132669   0.984   2.783   7.503 -0.0188  1.2899  2.3286
 3678TIP3    H232670   1.033   2.924   7.475  0.6600  0.5086 -0.7333
 3679TIP3   OH232671   5.780   6.223   2.461 -0.2220 -0.1195  0.0501
 3679TIP3    H132672   5.704   6.277   2.438 -2.6113 -2.9678  0.6828
 3679TIP3    H232673   5.821   6.202   2.376  0.2517  1.8694 -0.2572
 3680TIP3   OH232674   0.188   4.901   8.453  0.5705  1.1282  0.1489
 3680TIP3    H132675   0.176   4.961   8.527 -1.4489 -0.8622  1.5576
 3680TIP3    H232676   0.183   4.814   8.491  0.2498  0.0148 -2.2323
 3681TIP3   OH232677   0.231   6.290   8.003  0.0513 -0.4244 -0.7887
 3681TIP3    H132678   0.218   6.203   8.041 -0.6002 -0.4715 -1.1062
 3681TIP3    H232679   0.326   6.302   8.002  0.0837  0.0362  1.8629
 3682TIP3   OH232680   2.364   6.149   0.531  0.7240 -0.3455  0.1525
 3682TIP3    H132681   2.363   6.063   0.489 -0.8047 -0.4231  0.2689
 3682TIP3    H232682   2.271   6.168   0.547  1.0896  1.0053  0.7823
 3683TIP3   OH232683   5.311   0.953   1.257 -0.2481  0.0521 -0.2987
 3683TIP3    H132684   5.373   0.905   1.312 -1.0491 -0.4415  0.1978
 3683TIP3    H232685   5.267   0.884   1.206 -1.0714  0.2973  0.0673
 3684TIP3   OH232686   3.381   0.149   0.225 -0.0592 -0.2542  0.1311
 3684TIP3    H132687   3.319   0.087   0.264 -1.2522  0.3889 -0.7082
 3684TIP3    H232688   3.385   0.220   0.289 -0.1991 -0.2926  0.1847
 3685TIP3   OH232689   0.146   0.227   8.201 -0.3162  0.6116  0.0450
 3685TIP3    H132690   0.121   0.206   8.291  1.3423  2.8025  1.1522
 3685TIP3    H232691   0.077   0.286   8.170 -0.0181  1.2689  0.5856
 3686TIP3   OH232692   4.816   5.396   0.772  0.0023 -0.5527  0.3506
 3686TIP3    H132693   4.810   5.480   0.816  1.8622 -1.1606  1.9177
 3686TIP3    H232694   4.785   5.332   0.836  0.0780 -1.1888 -0.2323
 3687TIP3   OH232695   1.818   2.034   0.817  0.3864  0.2222 -0.7865
 3687TIP3    H132696   1.860   2.047   0.732 -1.7360  3.5472 -1.5526
 3687TIP3    H232697   1.779   1.947   0.812  1.9217 -0.4279 -2.4401
 3688TIP3   OH232698   2.882   4.455   2.082 -0.1440 -0.3642  0.1697
 3688TIP3    H132699   2.854   4.443   1.991 -0.7930  1.6934  0.0459
 3688TIP3    H232700   2.813   4.509   2.121  0.5129 -0.5737  1.6811
 3689TIP3   OH232701   4.100   3.949   0.590 -0.2957  0.4311  0.1405
 3689TIP3    H132702   4.190   3.928   0.613 -0.7986 -0.3439  1.5176
 3689TIP3    H232703   4.085   4.036   0.626 -0.2876  0.3086  0.4371
 3690TIP3   OH232704   2.639   1.785   8.682 -0.3015 -0.0322  0.3746
 3690TIP3    H132705   2.549   1.809   8.660 -0.1118 -0.2424 -0.6978
 3690TIP3    H232706   2.632   1.697   8.720 -0.5181 -0.1910 -0.0239
 3691TIP3   OH232707   0.910   5.960   0.420  0.1869 -0.9753 -0.2510
 3691TIP3    H132708   0.871   5.992   0.339 -0.9425  1.4777  1.1635
 3691TIP3    H232709   0.840   5.968   0.485  1.8378 -0.2415  1.5396
 3692TIP3   OH232710   3.534   2.992   0.347 -0.2378 -0.9683 -0.4008
 3692TIP3    H132711   3.576   2.967   0.429 -0.5570 -1.9698 -0.5241
 3692TIP3    H232712   3.457   3.042   0.373 -1.0122 -2.2970 -0.0120
 3693TIP3   OH232713   2.156   6.285   0.882  0.2565 -0.1010  0.3539
 3693TIP3    H132714   2.073   6.286   0.834  0.1588  1.2706  0.5052
 3693TIP3    H232715   2.162   6.373   0.920  1.6188 -0.2936  0.6229
 3694TIP3   OH232716   1.678   3.333   0.327 -0.2249  0.0091 -0.0746
 3694TIP3    H132717   1.652   3.398   0.262  1.6238  1.2554  0.3608
 3694TIP3    H232718   1.748   3.283   0.284  0.5562  0.4164  0.7002
 3695TIP3   OH232719   4.669   3.462   7.216 -0.7484 -0.1224 -0.2057
 3695TIP3    H132720   4.699   3.535   7.163  3.4835  0.7982  2.8958
 3695TIP3    H232721   4.696   3.384   7.168  1.6237  0.6352 -0.2170
 3696TIP3   OH232722   2.335   5.417   1.708  0.2419  0.0937 -0.1421
 3696TIP3    H132723   2.378   5.447   1.788 -1.4135 -1.5004  1.4308
 3696TIP3    H232724   2.400   5.361   1.666  0.8837  0.3695  0.4565
 3697TIP3   OH232725   1.799   3.518   0.872  0.0652  0.0737  0.3802
 3697TIP3    H132726   1.766   3.490   0.958 -1.4097  1.5455  0.3517
 3697TIP3    H232727   1.782   3.444   0.814  0.8120 -0.8292  1.2670
 3698TIP3   OH232728   4.508   3.199   0.852  0.0242  0.5097 -0.1857
 3698TIP3    H132729   4.565   3.159   0.918 -0.8173  1.3640  1.1240
 3698TIP3    H232730   4.423   3.156   0.865  0.5228 -1.5305 -2.8340
 3699TIP3   OH232731   4.747   5.361   8.486  0.5567  0.3482  0.4768
 3699TIP3    H132732   4.772   5.271   8.507 -0.0526  0.3420  1.2123
 3699TIP3    H232733   4.829   5.410   8.491  0.7552 -0.0180  0.9092
 3700TIP3   OH232734   3.111   6.706   2.541 -0.1690 -0.4160 -0.1201
 3700TIP3    H132735   3.144   6.779   2.488  0.4383 -0.8973 -0.4144
 3700TIP3    H232736   3.107   6.632   2.481  0.1847 -0.8776  0.4161
 3701TIP3   OH232737   6.479   5.120   7.262 -0.0606 -0.2364 -0.4189
 3701TIP3    H132738   6.551   5.062   7.238 -2.1187 -1.9062 -3.3594
 3701TIP3    H232739   6.411   5.061   7.296 -0.7778  0.9994  0.3560
 3702TIP3   OH232740   2.807   1.018   1.554 -0.1797  0.5262 -0.1636
 3702TIP3    H132741   2.789   0.997   1.646  0.9961  1.0961  0.2159
 3702TIP3    H232742   2.723   1.046   1.519 -0.9661 -1.0895  0.3382
 3703TIP3   OH232743   6.508   3.895   2.541 -0.3075  0.4032 -0.3926
 3703TIP3    H132744   6.563   3.831   2.587  0.1888  0.6073 -0.6924
 3703TIP3    H232745   6.468   3.947   2.611  0.5994  0.8432 -0.1883
 3704TIP3   OH232746   0.258   2.929   1.918 -0.2918  0.0940  0.5282
 3704TIP3    H132747   0.189   2.863   1.925  0.3217 -0.5682  0.5184
 3704TIP3    H232748   0.281   2.929   1.825 -0.3019  0.3353  0.5263
 3705TIP3   OH232749   4.712   3.852   8.549 -0.0569 -0.5515 -0.0196
 3705TIP3    H132750   4.634   3.875   8.599 -1.1612 -0.3932 -1.7259
 3705TIP3    H232751   4.761   3.934   8.541 -1.0817 -0.0150 -1.1729
 3706TIP3   OH232752   1.500   6.377   8.319 -0.4005 -0.3572 -0.2571
 3706TIP3    H132753   1.446   6.339   8.388  0.2561  1.9450  1.6217
 3706TIP3    H232754   1.574   6.317   8.312  0.4082  0.2376  2.3272
 3707TIP3   OH232755   0.174   3.647   2.544  0.4135  0.2985  0.6177
 3707TIP3    H132756   0.247   3.652   2.607  1.1771  1.3387 -0.3114
 3707TIP3    H232757   0.214   3.613   2.464 -0.5030 -0.7621  0.5850
 3708TIP3   OH232758   2.989   5.094   7.507  0.4221  0.2816 -0.4442
 3708TIP3    H132759   2.945   5.008   7.503 -0.3357  0.6959 -1.6657
 3708TIP3    H232760   3.069   5.078   7.557 -0.6795 -0.7015  1.0880
 3709TIP3   OH232761   2.111   4.219   0.493 -0.3801  0.2882 -0.2429
 3709TIP3    H132762   2.160   4.167   0.431 -1.1989  0.8980 -1.4406
 3709TIP3    H232763   2.118   4.309   0.460 -2.9533  0.3055 -0.9781
 3710TIP3   OH232764   4.805   0.127   1.346  0.1262 -0.2331  0.1702
 3710TIP3    H132765   4.738   0.191   1.368  0.8943  0.0032  1.9332
 3710TIP3    H232766   4.850   0.165   1.270  0.0207  0.9052  0.6588
 3711TIP3   OH232767   0.632   5.103   2.471 -0.2104 -0.3593  0.3112
 3711TIP3    H132768   0.689   5.145   2.406 -0.1359 -1.8433 -0.6234
 3711TIP3    H232769   0.544   5.133   2.448 -0.1193 -0.3782 -0.0686
 3712TIP3   OH232770   6.740   4.585   7.608  0.2380 -0.1681 -0.0268
 3712TIP3    H132771   6.763   4.662   7.556 -0.3050  0.9150  1.2812
 3712TIP3    H232772   6.822   4.557   7.648  0.3759 -0.0625 -0.2357
 3713TIP3   OH232773   3.144   1.863   6.572  0.0474 -0.6780  0.4778
 3713TIP3    H132774   3.196   1.934   6.609 -0.2742 -1.1655  1.9294
 3713TIP3    H232775   3.205   1.815   6.516  0.0550  1.1993 -1.2187
 3714TIP3   OH232776   1.921   0.397   8.143 -0.2467 -0.1055  0.1451
 3714TIP3    H132777   1.856   0.361   8.082  0.7426 -0.0469 -0.9783
 3714TIP3    H232778   1.957   0.321   8.187 -2.1645 -0.0378  1.9562
 3715TIP3   OH232779   4.822   3.064   0.227 -0.2371  0.1421 -0.1230
 3715TIP3    H132780   4.845   2.982   0.182 -0.1900  0.0500  0.0707
 3715TIP3    H232781   4.762   3.038   0.296  1.6383 -0.0788  1.5188
 3716TIP3   OH232782   1.427   2.753   7.879 -0.4397 -0.8080  0.3222
 3716TIP3    H132783   1.442   2.724   7.789  0.9725  0.1985  0.1995
 3716TIP3    H232784   1.431   2.848   7.875 -0.0792 -0.7585  1.4941
 3717TIP3   OH232785   4.503   5.256   2.038 -0.2486  0.2344 -0.4828
 3717TIP3    H132786   4.512   5.351   2.027 -1.0466  0.5242  1.0158
 3717TIP3    H232787   4.538   5.239   2.126 -0.5986 -0.7685 -0.5292
 3718TIP3   OH232788   0.293   0.484   7.089  0.1151 -0.0062  0.0050
 3718TIP3    H132789   0.334   0.570   7.080 -3.2025  1.6027 -1.5552
 3718TIP3    H232790   0.280   0.474   7.183  0.5580  1.1849  0.2157
 3719TIP3   OH232791   2.647   2.203   7.392  0.4328 -0.4880 -0.5677
 3719TIP3    H132792   2.680   2.272   7.450  0.6269 -1.6538  0.7569
 3719TIP3    H232793   2.716   2.137   7.392  0.3009 -0.6531 -1.9119
 3720TIP3   OH232794   6.628   2.897   0.699 -0.3170 -0.2190  0.3717
 3720TIP3    H132795   6.713   2.925   0.731 -0.1389  0.3468 -0.5724
 3720TIP3    H232796   6.583   2.863   0.777  0.5184  0.0807  0.9947
 3721TIP3   OH232797   5.693   0.986   0.724 -0.7924 -0.1046  0.1276
 3721TIP3    H132798   5.764   0.963   0.783  0.7443 -0.8783 -1.9169
 3721TIP3    H232799   5.671   1.076   0.748 -0.1512 -0.3365  1.7485
 3722TIP3   OH232800   2.936   0.317   0.735 -0.3636  0.2683  0.5215
 3722TIP3    H132801   3.014   0.307   0.790  2.4921 -2.4121 -3.4613
 3722TIP3    H232802   2.963   0.376   0.665 -1.4067 -1.5910 -1.5672
 3723TIP3   OH232803   5.145   5.451   8.717  0.0723  0.3536 -0.3074
 3723TIP3    H132804   5.179   5.379   8.770 -0.3732  0.1208 -0.3323
 3723TIP3    H232805   5.108   5.512   8.781  0.0406  0.3387 -0.3113
 3724TIP3   OH232806   2.498   4.661   8.174 -0.1662 -0.1396 -0.9647
 3724TIP3    H132807   2.490   4.672   8.269 -0.6974 -1.0566 -0.8955
 3724TIP3    H232808   2.586   4.691   8.154 -0.5519  1.4628 -0.4012
 3725TIP3   OH232809   6.628   5.975   8.417  0.6485 -0.3790  0.0914
 3725TIP3    H132810   6.604   5.889   8.382  1.9833 -0.9002  0.3768
 3725TIP3    H232811   6.666   6.021   8.343  0.8792 -0.4244  0.1808
 3726TIP3   OH232812   3.712   5.333   6.573  0.0204 -0.3701  0.5570
 3726TIP3    H132813   3.632   5.354   6.524 -1.9269 -1.9603  2.7818
 3726TIP3    H232814   3.779   5.322   6.506 -1.3536  1.9650 -1.3640
 3727TIP3   OH232815   2.036   3.103   7.993  0.8894  0.1729  0.1091
 3727TIP3    H132816   1.959   3.068   8.037 -1.6890  0.5773 -3.5510
 3727TIP3    H232817   2.082   3.026   7.959  0.1199 -0.0154 -0.5489
 3728TIP3   OH232818   6.238   5.261   1.044  0.0251  0.0557 -0.3037
 3728TIP3    H132819   6.145   5.281   1.042 -0.6094 -2.0291  1.9973
 3728TIP3    H232820   6.272   5.313   1.117  0.4304  0.0038 -0.4522
 3729TIP3   OH232821   0.516   5.995   8.226  0.4401 -0.4729 -0.4034
 3729TIP3    H132822   0.522   5.901   8.243  1.5760 -0.2355  0.6027
 3729TIP3    H232823   0.606   6.025   8.227 -0.0055  0.9473  1.1741
 3730TIP3   OH232824   1.708   2.114   2.198 -0.4196 -0.5704  0.3647
 3730TIP3    H132825   1.656   2.034   2.192  1.3964 -1.7313 -1.1783
 3730TIP3    H232826   1.730   2.121   2.291 -0.2098 -2.1831  0.4698
 3731TIP3   OH232827   6.532   4.484   7.794 -0.6042  0.1984  0.3257
 3731TIP3    H132828   6.618   4.468   7.833 -1.2116  0.5938  1.9263
 3731TIP3    H232829   6.551   4.508   7.703  1.2354  2.9203  1.2682
 3732TIP3   OH232830   0.909   3.911   7.403  0.2381 -0.2130 -0.0875
 3732TIP3    H132831   0.844   3.874   7.343 -2.6497  2.5070  1.0338
 3732TIP3    H232832   0.885   3.875   7.488 -0.5960  1.5727  0.4970
 3733TIP3   OH232833   6.072   6.746   1.675 -0.1732 -0.0081  0.1116
 3733TIP3    H132834   6.083   6.826   1.726 -0.5319  0.1850 -0.1046
 3733TIP3    H232835   6.159   6.728   1.639 -0.7432  2.5288 -3.0939
 3734TIP3   OH232836   1.398   3.644   7.709 -0.2264  0.1345  0.2415
 3734TIP3    H132837   1.477   3.591   7.702 -1.1256 -1.0390 -2.4560
 3734TIP3    H232838   1.328   3.581   7.723 -0.8518  1.0614  1.5265
 3735TIP3   OH232839   3.111   1.361   7.136 -0.4754  0.4969 -0.0872
 3735TIP3    H132840   3.092   1.342   7.227  0.4815  2.0514  0.4858
 3735TIP3    H232841   3.142   1.278   7.100 -0.2509  0.0067  1.1833
 3736TIP3   OH232842   3.679   0.584   7.105 -0.2688  0.6350 -0.2144
 3736TIP3    H132843   3.701   0.598   7.197  0.3324  0.2296 -0.2888
 3736TIP3    H232844   3.764   0.572   7.062 -0.4191  2.2694 -1.0777
 3737TIP3   OH232845   6.858   3.884   8.091 -0.3297 -0.2233 -0.2314
 3737TIP3    H132846   6.880   3.815   8.029 -3.3564  0.1995 -2.0083
 3737TIP3    H232847   6.861   3.841   8.177 -2.6323 -2.8625 -1.3080
 3738TIP3   OH232848   5.516   0.583   6.736 -0.6013  0.5085  0.1583
 3738TIP3    H132849   5.460   0.534   6.796 -0.8809  1.8954  1.0812
 3738TIP3    H232850   5.455   0.640   6.689 -0.1441  0.8528 -0.0226
 3739TIP3   OH232851   1.374   1.831   7.428  0.7974  0.0824  0.3465
 3739TIP3    H132852   1.336   1.890   7.493  1.0858  0.6040  0.0456
 3739TIP3    H232853   1.339   1.861   7.344  1.6744  0.4270  0.0898
 3740TIP3   OH232854   6.758   5.149   1.300  0.3005 -0.2266  0.0920
 3740TIP3    H132855   6.777   5.197   1.381  2.4631 -0.2626 -0.3403
 3740TIP3    H232856   6.696   5.081   1.327 -0.1400  0.6540  1.4092
 3741TIP3   OH232857   0.158   3.384   0.940 -0.3971  0.1648 -0.3945
 3741TIP3    H132858   0.115   3.413   1.020  1.2444  0.5173  0.3959
 3741TIP3    H232859   0.112   3.304   0.916 -0.6835 -0.1442  1.1039
 3742TIP3   OH232860   6.852   4.811   0.262 -0.1386 -0.2373  0.3414
 3742TIP3    H132861   6.880   4.774   0.346 -2.2684  0.2976  1.3710
 3742TIP3    H232862   6.832   4.903   0.282 -0.6501 -0.0978 -0.7443
 3743TIP3   OH232863   2.539   3.234   7.795  0.0726 -0.1085 -0.6818
 3743TIP3    H132864   2.523   3.199   7.707 -1.0037  0.3122 -0.6663
 3743TIP3    H232865   2.516   3.326   7.789 -0.6723 -0.2204  0.2012
 3744TIP3   OH232866   3.018   4.378   7.896 -0.0195 -0.3861 -0.0059
 3744TIP3    H132867   3.059   4.453   7.938  1.5646 -0.8518 -0.6547
 3744TIP3    H232868   2.950   4.416   7.840 -0.2950  0.4231  0.8495
 3745TIP3   OH232869   0.554   0.139   1.268 -0.3617 -0.4415  0.0431
 3745TIP3    H132870   0.591   0.092   1.343  1.2417 -4.0223 -2.6851
 3745TIP3    H232871   0.460   0.124   1.274 -0.2642 -0.6749  1.3038
 3746TIP3   OH232872   0.634   4.649   7.480  0.0822 -0.3098 -0.2029
 3746TIP3    H132873   0.633   4.623   7.573  1.4554  1.7172  0.4421
 3746TIP3    H232874   0.544   4.679   7.463  0.5454  2.3819  1.5013
 3747TIP3   OH232875   1.502   1.364   7.790  0.5544 -0.2656 -0.2056
 3747TIP3    H132876   1.542   1.279   7.811  0.8558 -0.1486 -0.3135
 3747TIP3    H232877   1.573   1.417   7.756  1.5131  1.5926  4.0425
 3748TIP3   OH232878   3.281   6.325   2.442  0.0907  0.1346 -0.1951
 3748TIP3    H132879   3.292   6.336   2.536  0.2965  0.1607 -0.2227
 3748TIP3    H232880   3.359   6.279   2.413  0.4903  0.9714 -0.5026
 3749TIP3   OH232881   4.413   5.195   7.605  0.4934  0.3573  0.1007
 3749TIP3    H132882   4.418   5.291   7.615  0.4119  0.7010 -2.4605
 3749TIP3    H232883   4.321   5.174   7.619  0.1018  0.9862 -1.3385
 3750TIP3   OH232884   0.080   2.194   8.566  0.4321 -0.5425  0.3137
 3750TIP3    H132885   0.144   2.262   8.586 -0.5295  0.3727  0.4312
 3750TIP3    H232886   0.053   2.161   8.652 -0.5151  0.3191  0.3697
 3751TIP3   OH232887   4.516   2.693   7.382  0.9733  0.3477  0.1858
 3751TIP3    H132888   4.518   2.767   7.444  0.6097  0.3132  0.2437
 3751TIP3    H232889   4.556   2.727   7.303  2.2721  0.1266  0.7163
 3752TIP3   OH232890   3.165   4.843   1.173 -0.1328 -0.0906  0.1465
 3752TIP3    H132891   3.099   4.896   1.219  1.2004  1.3187  0.5186
 3752TIP3    H232892   3.162   4.874   1.083 -0.4800 -0.5496 -0.0025
 3753TIP3   OH232893   3.015   4.195   2.079 -0.0923  0.0234  0.5219
 3753TIP3    H132894   2.994   4.287   2.098  0.5878  0.4165 -0.5387
 3753TIP3    H232895   2.989   4.182   1.988  0.0213 -0.7744  0.5926
 3754TIP3   OH232896   1.151   6.143   0.291 -0.1958  0.0143 -0.2296
 3754TIP3    H132897   1.148   6.124   0.385 -1.8202  0.0879 -0.2365
 3754TIP3    H232898   1.202   6.224   0.285  1.5090 -0.9586  0.3763
 3755TIP3   OH232899   0.827   5.373   7.813  0.3977  0.4758 -0.1047
 3755TIP3    H132900   0.787   5.371   7.726 -1.3090  1.2211  0.6082
 3755TIP3    H232901   0.789   5.298   7.859  2.6164 -0.9765 -0.4808
 3756TIP3   OH232902   3.869   5.490   1.412  0.6092 -0.3189  0.1089
 3756TIP3    H132903   3.869   5.460   1.321  0.2910 -0.5907  0.1966
 3756TIP3    H232904   3.809   5.565   1.413  0.7773 -0.1832  0.0527
 3757TIP3   OH232905   1.749   1.287   7.556 -0.3521 -0.3605  0.2229
 3757TIP3    H132906   1.798   1.208   7.579 -0.0413 -0.9157 -2.0818
 3757TIP3    H232907   1.741   1.335   7.638 -2.4485 -3.7787  2.2516
 3758TIP3   OH232908   3.542   6.395   0.316 -0.1292  0.0403  0.5733
 3758TIP3    H132909   3.553   6.371   0.224 -0.3083  1.0677  0.2704
 3758TIP3    H232910   3.504   6.483   0.313 -1.3304 -0.4032  1.6170
 3759TIP3   OH232911   4.163   2.813   8.384 -0.1562  0.0438  0.5902
 3759TIP3    H132912   4.153   2.718   8.387 -0.3309  0.0376 -0.0876
 3759TIP3    H232913   4.248   2.829   8.426 -0.9563 -0.2454  2.4222
 3760TIP3   OH232914   4.619   6.244   6.535  0.1745 -0.5315 -0.0065
 3760TIP3    H132915   4.576   6.219   6.617  0.8278  0.7738  0.7722
 3760TIP3    H232916   4.702   6.283   6.563  1.0135 -1.2596 -1.3700
 3761TIP3   OH232917   3.266   6.692   7.908 -0.0786 -0.0214 -0.8113
 3761TIP3    H132918   3.319   6.747   7.966  1.3476 -0.4283 -1.6830
 3761TIP3    H232919   3.190   6.667   7.961  0.9778 -0.0496  0.7368
 3762TIP3   OH232920   2.375   1.477   1.649 -0.3102  0.6264  0.1244
 3762TIP3    H132921   2.406   1.508   1.734  2.7731 -2.8381  0.5296
 3762TIP3    H232922   2.284   1.451   1.664 -1.2297  3.9306  1.0835
 3763TIP3   OH232923   0.155   0.196   1.427  0.3967 -0.1088  0.6902
 3763TIP3    H132924   0.079   0.195   1.486  0.4617  0.4287  0.7837
 3763TIP3    H232925   0.228   0.169   1.482  0.6498  1.3960  1.1372
 3764TIP3   OH232926   4.577   0.361   8.618  0.1549  0.2612  0.4822
 3764TIP3    H132927   4.518   0.335   8.689  0.1007  4.2867  2.1750
 3764TIP3    H232928   4.529   0.340   8.538 -2.1253  0.3174  1.7417
 3765TIP3   OH232929   1.590   2.344   1.523 -0.1976 -0.4133  0.0542
 3765TIP3    H132930   1.617   2.395   1.446  1.7580  0.8928  1.5216
 3765TIP3    H232931   1.654   2.273   1.529  1.1715  0.8599  1.7368
 3766TIP3   OH232932   0.951   3.222   1.669 -0.0549  0.0850  0.1382
 3766TIP3    H132933   1.020   3.278   1.635  0.4702 -0.4152  0.3585
 3766TIP3    H232934   0.932   3.256   1.756  0.4544 -0.2338  0.3795
 3767TIP3   OH232935   5.357   1.200   6.935  0.0111  0.0777 -0.0012
 3767TIP3    H132936   5.407   1.231   6.859 -0.1885 -0.7430 -0.4822
 3767TIP3    H232937   5.307   1.277   6.963 -0.3558  0.2532 -1.0709
 3768TIP3   OH232938   5.806   3.355   7.784 -0.3033 -0.0437  0.0360
 3768TIP3    H132939   5.713   3.341   7.802 -0.5228  1.1400 -0.0908
 3768TIP3    H232940   5.819   3.448   7.798  1.2409 -0.4498  1.6923
 3769TIP3   OH232941   0.923   4.147   6.923  0.7660 -0.4418 -0.0164
 3769TIP3    H132942   0.914   4.227   6.870  2.5416  0.1100  0.4175
 3769TIP3    H232943   0.834   4.113   6.931  0.0203  1.2229 -0.6389
 3770TIP3   OH232944   3.323   2.979   2.307  0.8417 -1.2301  0.4550
 3770TIP3    H132945   3.272   2.904   2.339  3.6818 -2.9749  1.3167
 3770TIP3    H232946   3.329   3.037   2.383 -0.4447 -0.6195  0.1147
 3771TIP3   OH232947   2.971   5.701   7.660  0.3304  0.3234 -0.2976
 3771TIP3    H132948   2.993   5.731   7.572  3.4343  0.2710  0.3625
 3771TIP3    H232949   2.953   5.607   7.649 -1.6519  0.7482 -1.1584
 3772TIP3   OH232950   2.426   6.626   7.442 -0.1177 -0.4113  0.0912
 3772TIP3    H132951   2.341   6.584   7.454 -0.5776  0.4990  0.1265
 3772TIP3    H232952   2.412   6.687   7.370  0.5755 -0.4278 -0.0630
 3773TIP3   OH232953   4.780   4.224   1.098  0.6995  0.0046 -0.0659
 3773TIP3    H132954   4.725   4.291   1.058  0.8746  0.0346 -0.2593
 3773TIP3    H232955   4.809   4.169   1.024  3.0431  1.5013 -0.3771
 3774TIP3   OH232956   3.881   5.690   0.306 -0.3437  0.1493 -0.0077
 3774TIP3    H132957   3.826   5.692   0.227  0.9191  0.0551 -0.9171
 3774TIP3    H232958   3.827   5.733   0.373 -1.3057  0.5702 -1.0052
 3775TIP3   OH232959   0.565   3.146   8.734 -0.9755  0.3657 -0.1924
 3775TIP3    H132960   0.478   3.125   8.698 -1.1861  0.4869  0.2355
 3775TIP3    H232961   0.550   3.156   8.828 -1.1066  3.5097 -0.4549
 3776TIP3   OH232962   1.010   6.170   0.737  0.2480 -0.0261  0.0994
 3776TIP3    H132963   1.066   6.242   0.766  0.3955  0.6727 -1.8296
 3776TIP3    H232964   0.928   6.211   0.711  0.5394 -0.4638 -1.5746
 3777TIP3   OH232965   1.907   5.331   8.248 -0.2975 -0.4742  0.5484
 3777TIP3    H132966   1.891   5.381   8.167  1.6723  1.5047  1.2527
 3777TIP3    H232967   2.002   5.319   8.249 -0.3105 -0.6182  2.4700
 3778TIP3   OH232968   4.628   5.741   6.964  0.5009  0.1468 -0.3704
 3778TIP3    H132969   4.722   5.743   6.982  0.5743  2.0056 -0.7183
 3778TIP3    H232970   4.587   5.724   7.049  1.1628 -2.4599 -0.5079
 3779TIP3   OH232971   6.850   6.413   8.552  0.4174 -0.1162  0.1665
 3779TIP3    H132972   6.800   6.359   8.490  0.2922  1.6412 -1.3751
 3779TIP3    H232973   6.829   6.503   8.527  1.9661  0.6630  1.4881
 3780TIP3   OH232974   4.439   2.828   1.722 -0.5502  0.3699 -1.1087
 3780TIP3    H132975   4.391   2.747   1.740  1.4626 -0.9859 -1.3818
 3780TIP3    H232976   4.531   2.803   1.733  0.0937  3.0997  0.5240
 3781TIP3   OH232977   6.730   5.234   1.055 -0.0747  0.1324 -0.1058
 3781TIP3    H132978   6.744   5.189   1.138  0.1504 -0.8348 -0.6577
 3781TIP3    H232979   6.684   5.170   1.000  1.0486  0.2322 -1.2118
 3782TIP3   OH232980   0.827   4.136   8.237 -0.3887  0.0867 -0.4101
 3782TIP3    H132981   0.809   4.183   8.318 -0.9094  0.6794 -0.8584
 3782TIP3    H232982   0.747   4.086   8.220 -1.1649  1.6534 -1.6776
 3783TIP3   OH232983   2.134   0.534   0.303 -0.4089  0.2149 -0.7709
 3783TIP3    H132984   2.165   0.589   0.231  0.0189 -0.1403 -0.8591
 3783TIP3    H232985   2.118   0.595   0.375  1.0220  0.3578 -0.5375
 3784TIP3   OH232986   6.574   2.179   0.308  0.1766  0.2397  0.6963
 3784TIP3    H132987   6.529   2.262   0.324 -1.0826 -0.1482 -0.6001
 3784TIP3    H232988   6.515   2.112   0.343  0.7053 -0.1724  0.8237
 3785TIP3   OH232989   6.416   0.455   0.722 -0.4613  0.0248  0.5058
 3785TIP3    H132990   6.320   0.458   0.728 -0.5171 -0.8658  0.2387
 3785TIP3    H232991   6.434   0.376   0.672  0.3734  1.0263 -0.8324
 3786TIP3   OH232992   3.943   4.386   6.555 -0.4681 -0.1194 -0.2941
 3786TIP3    H132993   3.889   4.458   6.587 -0.6123  0.1558 -1.1142
 3786TIP3    H232994   3.889   4.308   6.565 -0.9877  0.1362 -0.9849
 3787TIP3   OH232995   3.609   6.631   8.704 -0.0868  0.1863  0.8337
 3787TIP3    H132996   3.603   6.553   8.759 -1.9650  0.0317  0.4916
 3787TIP3    H232997   3.565   6.700   8.755 -0.6279  0.3861  0.1071
 3788TIP3   OH232998   6.518   1.563   8.141 -0.3431 -0.4174  0.6920
 3788TIP3    H132999   6.450   1.630   8.136 -2.7000 -2.5433  1.8659
 3788TIP3    H233000   6.542   1.545   8.050 -2.3467 -0.4847  0.1232
 3789TIP3   OH233001   3.939   2.759   0.535 -0.2713 -0.1262  0.2395
 3789TIP3    H133002   3.926   2.784   0.443 -1.0424  0.3130  0.4651
 3789TIP3    H233003   4.025   2.716   0.535  1.1654  2.5197 -0.1652
 3790TIP3   OH233004   1.916   2.467   7.407 -0.1386 -0.6269 -0.0459
 3790TIP3    H133005   1.839   2.505   7.364  0.3861  0.9628  0.3569
 3790TIP3    H233006   1.915   2.375   7.381 -0.7615 -0.0850 -2.1336
 3791TIP3   OH233007   4.934   2.559   8.613  0.0046  0.2455 -0.2016
 3791TIP3    H133008   4.843   2.531   8.608 -0.0387  0.2332  0.5923
 3791TIP3    H233009   4.935   2.644   8.569 -0.0001 -0.6284 -1.9693
 3792TIP3   OH233010   2.438   0.600   1.931 -0.3592 -0.0632  0.3235
 3792TIP3    H133011   2.483   0.524   1.896 -0.8207 -0.3830  0.4157
 3792TIP3    H233012   2.506   0.666   1.941 -0.0677 -0.2657 -0.3250
 3793TIP3   OH233013   5.264   3.342   2.675  0.3256  0.3973  0.2332
 3793TIP3    H133014   5.171   3.349   2.651  0.5203  1.1006 -0.3397
 3793TIP3    H233015   5.281   3.421   2.726  0.2485 -0.4463  1.6237
 3794TIP3   OH233016   0.765   3.336   0.336  0.2795 -0.8144 -0.2790
 3794TIP3    H133017   0.802   3.362   0.420 -1.6039  1.1451  0.0601
 3794TIP3    H233018   0.787   3.408   0.277 -1.5345 -0.3215 -0.4357
 3795TIP3   OH233019   1.559   2.540   8.696  0.2414  0.1313 -0.1798
 3795TIP3    H133020   1.582   2.459   8.651  1.2800  0.2063  0.1903
 3795TIP3    H233021   1.504   2.511   8.770  0.7295 -0.2552  0.0367
 3796TIP3   OH233022   3.837   4.931   6.461 -0.1962 -0.7852 -0.1847
 3796TIP3    H133023   3.773   4.968   6.400 -0.9148 -0.8926  0.4803
 3796TIP3    H233024   3.839   4.838   6.438 -0.7619 -0.8979  0.2038
 3797TIP3   OH233025   1.691   4.239   6.860 -0.6857  0.7101 -0.0392
 3797TIP3    H133026   1.611   4.187   6.867  0.1549 -0.4344  2.1705
 3797TIP3    H233027   1.660   4.328   6.843 -2.3746  0.1581 -0.0531
 3798TIP3   OH233028   1.873   2.203   6.409  0.4162 -0.7999 -0.4845
 3798TIP3    H133029   1.874   2.150   6.489  0.7231 -0.7322 -0.4402
 3798TIP3    H233030   1.961   2.193   6.373  0.2121 -0.9989 -0.9280
 3799TIP3   OH233031   3.410   4.929   8.087  0.3919 -0.5382 -0.3588
 3799TIP3    H133032   3.319   4.923   8.117  1.3200 -1.9160  2.4968
 3799TIP3    H233033   3.415   4.868   8.014 -0.9911 -0.2991 -0.6901
 3800TIP3   OH233034   2.334   5.901   1.520 -0.3494  0.2702  0.2599
 3800TIP3    H133035   2.248   5.873   1.490 -0.9325 -0.7905  2.6431
 3800TIP3    H233036   2.317   5.952   1.600  1.1553  1.5320 -0.1485
 3801TIP3   OH233037   1.945   2.900   1.611  0.3476  0.0368 -0.7303
 3801TIP3    H133038   1.890   2.822   1.598 -0.2017  0.5016 -1.2978
 3801TIP3    H233039   1.966   2.929   1.522  2.9611 -1.0938 -0.5817
 3802TIP3   OH233040   5.326   0.495   7.750  0.4703  0.0823 -0.2836
 3802TIP3    H133041   5.327   0.399   7.752  1.3259  0.0304 -1.4977
 3802TIP3    H233042   5.372   0.521   7.830  1.8594 -0.5871 -0.8219
 3803TIP3   OH233043   2.143   6.756   8.054 -0.0784 -0.8659  0.7394
 3803TIP3    H133044   2.155   6.773   8.148 -0.6027 -0.2980  0.7088
 3803TIP3    H233045   2.196   6.678   8.037  1.2962 -0.0757  1.1935
 3804TIP3   OH233046   1.881   4.129   8.375 -0.5232  0.0368  0.0285
 3804TIP3    H133047   1.850   4.155   8.288  3.3269 -0.7379 -1.7901
 3804TIP3    H233048   1.874   4.034   8.375  0.9297 -0.0947 -0.1387
 3805TIP3   OH233049   4.409   3.675   7.510 -0.1003 -0.1612 -1.2646
 3805TIP3    H133050   4.500   3.658   7.488  0.2415  0.1200 -0.0840
 3805TIP3    H233051   4.392   3.623   7.588 -0.6359  0.6215 -0.8459
 3806TIP3   OH233052   2.038   4.318   6.774 -0.1259  0.0019 -0.7377
 3806TIP3    H133053   2.031   4.293   6.866  1.4643 -2.6783 -1.2407
 3806TIP3    H233054   2.111   4.379   6.771 -0.9986  1.1036 -0.0805
 3807TIP3   OH233055   3.067   0.493   7.649 -0.1088 -0.0322  0.5088
 3807TIP3    H133056   3.006   0.564   7.665 -0.3653 -0.5021  1.7006
 3807TIP3    H233057   3.140   0.508   7.709 -0.2441 -0.8515  0.8968
 3808TIP3   OH233058   6.144   6.047   2.173 -0.0505 -0.0170 -0.7724
 3808TIP3    H133059   6.063   6.031   2.124 -2.5699  3.1728  1.8147
 3808TIP3    H233060   6.180   6.127   2.135  1.6414 -1.0556 -1.4733
 3809TIP3   OH233061   2.597   3.094   8.484 -0.0468 -0.2392 -0.0997
 3809TIP3    H133062   2.669   3.031   8.488 -1.3297 -1.7880 -0.5608
 3809TIP3    H233063   2.596   3.121   8.392 -0.7701 -1.1045 -0.3543
 3810TIP3   OH233064   4.475   6.382   7.836 -0.0240 -0.2019 -0.0717
 3810TIP3    H133065   4.538   6.367   7.765 -1.4760  0.1783 -1.4995
 3810TIP3    H233066   4.391   6.355   7.800 -1.0441  1.3763  0.9765
 3811TIP3   OH233067   6.783   1.973   8.136  0.1578  0.3802  0.3565
 3811TIP3    H133068   6.701   1.951   8.181 -0.1234 -0.4911 -0.5553
 3811TIP3    H233069   6.823   1.889   8.117  1.5361  0.8103  1.2255
 3812TIP3   OH233070   6.172   2.445   6.969 -0.0966  0.1177  0.2371
 3812TIP3    H133071   6.268   2.440   6.969 -0.1112 -1.9916  2.6434
 3812TIP3    H233072   6.146   2.387   6.898  0.4116 -0.4314  0.4905
 3813TIP3   OH233073   1.677   4.641   0.376  0.1634  0.8575  0.1599
 3813TIP3    H133074   1.759   4.643   0.326  0.7833  0.3881  1.1235
 3813TIP3    H233075   1.693   4.699   0.450 -0.6353  1.3091 -0.0156
 3814TIP3   OH233076   1.831   6.406   8.774 -0.3364 -0.2082 -0.0219
 3814TIP3    H133077   1.862   6.395   8.864  0.6360  1.3135 -0.1425
 3814TIP3    H233078   1.752   6.460   8.782  0.4268  0.9624 -0.1403
 3815TIP3   OH233079   6.801   5.036   6.734 -0.1657  0.0490  0.2647
 3815TIP3    H133080   6.896   5.040   6.750 -0.3799  0.1617  1.5507
 3815TIP3    H233081   6.794   4.989   6.651  1.0396  0.4166 -0.0770
 3816TIP3   OH233082   4.767   5.094   8.069  0.6258  0.7102 -0.5085
 3816TIP3    H133083   4.731   5.006   8.063 -0.1173  0.9739 -0.0344
 3816TIP3    H233084   4.693   5.152   8.054  0.6738  1.2707  1.2144
 3817TIP3   OH233085   3.663   1.409   7.192 -0.1173 -0.7711  0.4844
 3817TIP3    H133086   3.680   1.370   7.107 -0.7629 -0.2864  0.1255
 3817TIP3    H233087   3.683   1.339   7.255  3.2333 -0.2655  0.1517
 3818TIP3   OH233088   2.050   4.532   0.444 -0.0070  0.2097  0.0611
 3818TIP3    H133089   2.145   4.542   0.436  0.0088 -0.1534 -0.1898
 3818TIP3    H233090   2.014   4.585   0.373  0.0775 -1.4008 -1.2409
 3819TIP3   OH233091   2.533   5.081   1.780  0.0237 -0.0192 -0.6202
 3819TIP3    H133092   2.627   5.077   1.799  0.0632 -0.9812 -0.9415
 3819TIP3    H233093   2.491   5.083   1.866  0.3108 -0.6737 -0.4601
 3820TIP3   OH233094   0.745   6.102   6.495 -0.7429  0.1107 -0.6724
 3820TIP3    H133095   0.668   6.046   6.501 -1.8457  1.4113 -1.8839
 3820TIP3    H233096   0.715   6.187   6.529 -0.0349  0.7770 -1.6574
 3821TIP3   OH233097   1.142   3.278   1.218 -0.6277  0.6490  0.0845
 3821TIP3    H133098   1.209   3.226   1.263 -1.1328  1.2489  1.5879
 3821TIP3    H233099   1.153   3.367   1.252 -1.2840  1.0526 -0.7069
 3822TIP3   OH233100   4.079   4.338   8.070  0.1248  0.2728 -0.0555
 3822TIP3    H133101   4.052   4.392   8.145  0.1675  0.3241 -0.0768
 3822TIP3    H233102   4.129   4.398   8.015 -0.7735  0.5190 -0.6409
 3823TIP3   OH233103   5.128   6.260   0.401 -0.6587 -0.2306  0.1560
 3823TIP3    H133104   5.193   6.320   0.438 -0.0669 -0.6918 -0.1098
 3823TIP3    H233105   5.080   6.226   0.476  0.6063 -1.2462  0.5324
 3824TIP3   OH233106   2.521   5.586   6.313  0.0412  0.4950 -0.0628
 3824TIP3    H133107   2.612   5.576   6.287  0.2886 -1.1859  1.3257
 3824TIP3    H233108   2.521   5.576   6.408 -1.4681  1.5819  0.0973
 3825TIP3   OH233109   4.063   5.970   8.379  0.5255  0.8138 -0.8086
 3825TIP3    H133110   4.076   6.041   8.442 -0.0657  0.9553 -0.8337
 3825TIP3    H233111   3.972   5.942   8.393  0.7372  0.1007 -0.8397
 3826TIP3   OH233112   5.054   4.260   6.850  0.1390 -0.4506  0.4310
 3826TIP3    H133113   5.098   4.342   6.828 -0.9429  0.0104 -0.0624
 3826TIP3    H233114   4.989   4.248   6.781 -0.3787 -1.2225  1.0344
 3827TIP3   OH233115   5.695   2.446   1.958 -0.0070 -0.0550  0.1786
 3827TIP3    H133116   5.698   2.358   1.995  1.6408 -0.2322 -0.3073
 3827TIP3    H233117   5.676   2.432   1.866 -1.0390  0.1919  0.3477
 3828TIP3   OH233118   2.231   1.318   7.553  0.2336 -0.1665 -0.6373
 3828TIP3    H133119   2.251   1.409   7.577 -1.9636  0.3934 -0.7519
 3828TIP3    H233120   2.174   1.325   7.477 -1.3778 -1.5568  0.3925
 3829TIP3   OH233121   4.962   6.583   7.872 -0.5954  0.2890  0.6784
 3829TIP3    H133122   4.981   6.670   7.836 -3.2861  0.5822 -0.2979
 3829TIP3    H233123   5.048   6.543   7.886  0.6950  2.6956  0.1568
 3830TIP3   OH233124   5.585   1.642   1.817  0.3738 -0.6641  0.1983
 3830TIP3    H133125   5.521   1.571   1.830 -1.4085  0.7151 -0.5751
 3830TIP3    H233126   5.640   1.638   1.895 -1.3623 -1.2349  1.4800
 3831TIP3   OH233127   5.954   4.418   0.341  0.3562  0.2497 -0.0126
 3831TIP3    H133128   6.028   4.425   0.401  0.2909  1.3892 -0.0479
 3831TIP3    H233129   5.899   4.349   0.379  1.4202 -0.6014  0.0149
 3832TIP3   OH233130   0.835   3.373   0.888  0.1283  0.1672  0.6099
 3832TIP3    H133131   0.883   3.309   0.941 -0.4012 -0.0159  0.8714
 3832TIP3    H233132   0.855   3.348   0.797  0.1029 -0.2344  0.7118
 3833TIP3   OH233133   1.151   1.973   0.404  0.2272 -0.5740 -0.0622
 3833TIP3    H133134   1.173   2.064   0.422 -0.7634 -0.1617 -0.8560
 3833TIP3    H233135   1.098   1.946   0.480  0.3579 -0.4288  0.0810
 3834TIP3   OH233136   4.454   6.189   6.731  0.1994 -0.6367  0.0808
 3834TIP3    H133137   4.363   6.218   6.736  0.0709 -1.1610  1.0351
 3834TIP3    H233138   4.459   6.115   6.792  0.9154 -1.5389 -1.0434
 3835TIP3   OH233139   3.808   6.122   6.363  0.8275  0.0941  0.2194
 3835TIP3    H133140   3.819   6.102   6.455 -1.4995 -2.5519  0.0340
 3835TIP3    H233141   3.844   6.047   6.317  0.9814  0.8838 -1.0052
 3836TIP3   OH233142   5.950   0.024   2.520 -0.0614  0.0602 -0.4054
 3836TIP3    H133143   5.923  -0.058   2.561  0.9408  0.0028  0.1640
 3836TIP3    H233144   5.894   0.031   2.442 -0.6457 -0.7966 -0.0821
 3837TIP3   OH233145   6.701   2.779   6.767 -0.1944 -0.5631 -0.7733
 3837TIP3    H133146   6.762   2.716   6.804 -1.9313 -2.6852 -1.3286
 3837TIP3    H233147   6.713   2.858   6.820  1.3141 -1.6739  0.6335
 3838TIP3   OH233148   2.382   5.745   6.839 -0.1919  0.6147 -0.1028
 3838TIP3    H133149   2.440   5.808   6.796  0.4081  0.3672  0.3276
 3838TIP3    H233150   2.298   5.755   6.794  0.9847 -1.3400 -3.0337
 3839TIP3   OH233151   6.156   0.111   2.374  1.2447  0.2817 -0.0336
 3839TIP3    H133152   6.099   0.092   2.448 -0.0612 -0.8063 -1.2647
 3839TIP3    H233153   6.102   0.094   2.296  2.2535  2.3246 -1.2768
 3840TIP3   OH233154   2.772   0.144   7.127 -0.2604 -0.1728  0.7056
 3840TIP3    H133155   2.688   0.113   7.093 -0.3372  0.9958 -0.2298
 3840TIP3    H233156   2.816   0.065   7.158 -0.6112 -1.1888 -1.2337
 3841TIP3   OH233157   3.365   0.254   7.454 -0.5985 -0.1290  0.1843
 3841TIP3    H133158   3.316   0.334   7.435  0.8208  1.1538  1.6125
 3841TIP3    H233159   3.320   0.216   7.530 -0.4461  0.0761  0.3780
 3842TIP3   OH233160   0.345   2.214   2.844 -0.5034 -0.4549 -0.5690
 3842TIP3    H133161   0.265   2.165   2.863 -0.5485 -0.6641 -1.3063
 3842TIP3    H233162   0.414   2.148   2.840 -1.0956 -1.1038 -5.3307
 3843TIP3   OH233163   6.257   1.811   7.269 -0.2173  0.2140  0.5502
 3843TIP3    H133164   6.241   1.885   7.327 -0.8437 -0.9507  1.8879
 3843TIP3    H233165   6.171   1.784   7.238  0.1033  0.8772 -1.0603
 3844TIP3   OH233166   3.585   4.721   0.718 -0.1318  0.0448 -0.0886
 3844TIP3    H133167   3.611   4.801   0.672  0.8744  0.3362  0.9282
 3844TIP3    H233168   3.518   4.681   0.662  0.3071  0.9069 -1.2595
 3845TIP3   OH233169   4.580   6.621   7.297 -0.1044 -0.0466 -0.0122
 3845TIP3    H133170   4.495   6.591   7.329 -0.4372  1.7321  0.8803
 3845TIP3    H233171   4.567   6.634   7.203 -0.5587 -0.6042 -0.0290
 3846TIP3   OH233172   2.978   1.239   8.607  0.3958  0.2567 -0.6815
 3846TIP3    H133173   3.022   1.190   8.538 -0.2682  2.7765 -3.1214
 3846TIP3    H233174   3.045   1.255   8.673  1.3352 -1.4212 -1.1883
 3847TIP3   OH233175   2.075   1.270   8.381 -0.3969 -0.8112  0.7019
 3847TIP3    H133176   2.047   1.351   8.338  0.1867  0.2472  2.2147
 3847TIP3    H233177   2.092   1.296   8.472  3.7953 -1.6482  0.3591
 3848TIP3   OH233178   6.658   1.349   7.666 -0.0023  0.2306  0.0921
 3848TIP3    H133179   6.708   1.291   7.609  0.6619  0.2177  0.6757
 3848TIP3    H233180   6.640   1.426   7.611  1.6370  0.7259  0.1969
 3849TIP3   OH233181   2.573   5.443   7.272  0.0348  0.6981  0.4351
 3849TIP3    H133182   2.516   5.400   7.208  2.5571 -1.3679 -0.6085
 3849TIP3    H233183   2.651   5.387   7.277  1.6899  2.9320  2.3365
 3850TIP3   OH233184   3.078   0.395   2.033  0.4452 -0.2342  0.3218
 3850TIP3    H133185   3.050   0.421   2.121  2.2825 -2.1395  1.5545
 3850TIP3    H233186   3.099   0.302   2.040  0.5509 -0.4781 -2.1901
 3851TIP3   OH233187   0.496   4.045   7.246 -0.5700 -0.3551 -0.1278
 3851TIP3    H133188   0.449   4.098   7.311  1.6759 -0.1573  1.4545
 3851TIP3    H233189   0.431   4.028   7.178 -2.3417  1.5417  0.9565
 3852TIP3   OH233190   0.947   5.419   7.034  0.5919  0.9321  0.0347
 3852TIP3    H133191   0.990   5.334   7.024  0.5580  0.9712 -0.4383
 3852TIP3    H233192   1.002   5.480   6.985 -0.9055  0.6920 -2.0445
 3853TIP3   OH233193   2.143   1.858   6.986 -0.3253 -0.1090  0.2386
 3853TIP3    H133194   2.063   1.805   6.983  0.9483 -2.1637  0.6723
 3853TIP3    H233195   2.149   1.886   7.078  0.8628 -2.3777  0.9334
 3854TIP3   OH233196   1.046   5.092   0.657  0.3454 -0.0922  0.2217
 3854TIP3    H133197   1.070   5.178   0.692  0.0438 -0.8110  2.3254
 3854TIP3    H233198   1.031   5.108   0.564  1.5937  1.8618  0.2908
 3855TIP3   OH233199   0.800   0.402   2.342 -0.5844 -0.0327 -0.5967
 3855TIP3    H133200   0.818   0.457   2.266  1.6957  0.3487  0.1419
 3855TIP3    H233201   0.758   0.324   2.305 -0.8845  0.7807 -2.0556
 3856TIP3   OH233202   5.782   6.542   7.062  0.7547 -0.3479  0.2598
 3856TIP3    H133203   5.834   6.508   6.989 -0.7792 -0.8157 -0.6675
 3856TIP3    H233204   5.780   6.636   7.048 -0.7706 -0.5472 -1.2297
 3857TIP3   OH233205   3.578   5.824   1.641  0.2977 -0.3388 -0.2562
 3857TIP3    H133206   3.669   5.853   1.649 -0.3999  2.6585 -1.7340
 3857TIP3    H233207   3.528   5.886   1.694 -1.0784 -0.4202 -1.3936
 3858TIP3   OH233208   3.766   3.382   2.288  0.1610  0.2248 -0.4502
 3858TIP3    H133209   3.773   3.338   2.373  3.4476  0.1677 -0.6278
 3858TIP3    H233210   3.803   3.468   2.303 -1.1333  0.9887 -1.4164
 3859TIP3   OH233211   5.189   0.971   7.021 -0.5729 -0.4020  0.2987
 3859TIP3    H133212   5.219   1.061   7.005  0.5565 -0.5990  1.2204
 3859TIP3    H233213   5.096   0.981   7.042 -0.6105  0.4837 -0.2314
 3860TIP3   OH233214   2.070   4.722   2.162  0.0042 -0.3419  0.0510
 3860TIP3    H133215   2.043   4.768   2.241 -1.9965  0.1179 -0.8364
 3860TIP3    H233216   2.145   4.772   2.130  0.3739 -0.0983  1.2328
 3861TIP3   OH233217   2.929   5.342   7.590  0.0858 -0.2516 -0.1096
 3861TIP3    H133218   2.970   5.259   7.568 -1.0402 -0.7276 -0.4757
 3861TIP3    H233219   2.900   5.331   7.681 -1.0578 -0.6814 -0.5159
 3862TIP3   OH233220   2.973   2.145   0.223 -0.0464  0.0199 -0.4152
 3862TIP3    H133221   3.058   2.187   0.220  0.1803 -0.4478 -0.6124
 3862TIP3    H233222   2.969   2.093   0.142 -1.2908  1.5354 -1.3987
 3863TIP3   OH233223   6.624   1.862   8.757  0.4174 -0.3783  0.1473
 3863TIP3    H133224   6.707   1.891   8.719 -0.6442  0.5394 -1.5642
 3863TIP3    H233225   6.632   1.884   8.850  1.8702  0.1975 -0.0782
 3864TIP3   OH233226   5.380   3.308   2.409 -0.5344  0.0553  0.4619
 3864TIP3    H133227   5.414   3.384   2.361  0.8769 -1.3595 -0.8940
 3864TIP3    H233228   5.381   3.335   2.500 -0.6956  1.8867 -0.0317
 3865TIP3   OH233229   3.032   2.919   8.185 -0.3845 -0.5468  0.7403
 3865TIP3    H133230   3.057   3.011   8.190 -0.3763 -0.4537 -0.6475
 3865TIP3    H233231   3.075   2.878   8.260  1.7443  0.0915 -0.0790
 3866TIP3   OH233232   1.512   6.653   1.658 -0.4662  0.1096 -0.1229
 3866TIP3    H133233   1.519   6.579   1.719 -0.2304  0.7449  0.6443
 3866TIP3    H233234   1.428   6.640   1.615 -0.2092 -0.8721 -0.3683
 3867TIP3   OH233235   5.743   1.925   7.530 -0.1892 -0.3569  0.0451
 3867TIP3    H133236   5.740   2.020   7.521  1.1775 -0.1798  1.0423
 3867TIP3    H233237   5.735   1.892   7.440 -1.6478  0.6302 -0.2237
 3868TIP3   OH233238   4.110   0.496   8.210  0.6526 -0.0295  0.3352
 3868TIP3    H133239   4.109   0.550   8.288 -0.1565  0.0605  0.2776
 3868TIP3    H233240   4.057   0.545   8.146  0.5243 -0.5344  0.0462
 3869TIP3   OH233241   3.128   4.508   2.164 -0.6052  0.6397  0.1839
 3869TIP3    H133242   3.142   4.602   2.160 -1.8414  0.8280 -0.1719
 3869TIP3    H233243   3.042   4.495   2.125 -0.5127 -0.6267  0.3551
 3870TIP3   OH233244   5.500   2.776   1.156  0.0110  0.0571 -0.1331
 3870TIP3    H133245   5.537   2.738   1.236 -0.8282 -2.6698 -0.9273
 3870TIP3    H233246   5.429   2.832   1.186  0.1453 -0.3935  1.0848
 3871TIP3   OH233247   5.351   5.925   1.148  0.2332  0.5793 -0.5719
 3871TIP3    H133248   5.369   5.845   1.098  0.5214  0.6189 -0.5317
 3871TIP3    H233249   5.425   5.933   1.208  0.4328  1.1203 -0.8814
 3872TIP3   OH233250   0.768   3.084   2.275 -0.0495  0.3109 -0.1604
 3872TIP3    H133251   0.782   3.076   2.369 -1.4571 -0.0638  0.0326
 3872TIP3    H233252   0.829   3.021   2.237 -0.1042 -0.1899  0.5567
 3873TIP3   OH233253   5.724   3.469   7.143  0.6583  0.7521  0.6525
 3873TIP3    H133254   5.809   3.468   7.100  0.2035  1.3494 -0.2961
 3873TIP3    H233255   5.661   3.461   7.071 -0.0844  0.0361  1.3597
 3874TIP3   OH233256   5.490   3.652   6.598 -0.0677  0.6160 -0.1105
 3874TIP3    H133257   5.581   3.671   6.573  0.6175 -1.4404  0.5429
 3874TIP3    H233258   5.444   3.642   6.515  0.1989  2.0268 -0.4499
 3875TIP3   OH233259   0.037   1.407   1.186  0.1155  0.0541 -0.6951
 3875TIP3    H133260   0.051   1.446   1.100  1.2972 -1.7500 -1.3625
 3875TIP3    H233261   0.114   1.353   1.201 -1.8233 -2.7974 -0.2767
 3876TIP3   OH233262   4.299   3.341   7.536 -0.3110  0.0447  0.1975
 3876TIP3    H133263   4.293   3.418   7.592 -0.1070  0.9705 -1.0294
 3876TIP3    H233264   4.255   3.365   7.455  0.2311 -0.9337 -0.4198
 3877TIP3   OH233265   5.625   5.029   6.598 -0.5747 -0.3317 -0.1591
 3877TIP3    H133266   5.614   4.943   6.638 -0.4033  0.2067  1.1083
 3877TIP3    H233267   5.563   5.085   6.645 -1.7891 -0.0605 -2.0002
 3878TIP3   OH233268   0.403   5.447   6.894  1.0749  0.0379 -0.2856
 3878TIP3    H133269   0.337   5.438   6.825 -0.5891 -0.4619  1.2980
 3878TIP3    H233270   0.474   5.497   6.853  0.2875 -0.4780 -2.4173
 3879TIP3   OH233271   6.235   1.290   0.911 -0.3608 -0.2007  0.0347
 3879TIP3    H133272   6.187   1.239   0.845  0.9154  1.1988 -2.1057
 3879TIP3    H233273   6.303   1.230   0.941  0.5100 -0.1707 -1.7281
 3880TIP3   OH233274   1.223   2.509   1.213  0.2628  0.1566 -0.4265
 3880TIP3    H133275   1.200   2.545   1.298 -2.6095 -1.3916 -0.4314
 3880TIP3    H233276   1.237   2.585   1.156  0.6857  1.1877  1.0117
 3881TIP3   OH233277   0.012   4.175   7.028  0.1298 -0.4105  0.0148
 3881TIP3    H133278   0.029   4.230   6.951  0.4693 -0.7504 -0.1631
 3881TIP3    H233279   0.042   4.227   7.102 -0.9839  0.2681  0.0135
 3882TIP3   OH233280   5.944   0.446   8.583 -0.1125  0.1448  0.3819
 3882TIP3    H133281   6.004   0.519   8.600  0.5368 -0.6402  1.5151
 3882TIP3    H233282   5.933   0.447   8.487  1.3108  0.6016  0.1967
 3883TIP3   OH233283   5.153   5.339   7.027 -0.3637  0.2811  0.7429
 3883TIP3    H133284   5.233   5.286   7.025 -1.4678 -1.4340 -0.9688
 3883TIP3    H233285   5.184   5.426   7.052  2.0443 -0.3134  0.1572
 3884TIP3   OH233286   3.668   4.736   6.922 -0.2204 -0.1447  0.2367
 3884TIP3    H133287   3.740   4.673   6.930  2.9784  2.5801 -3.1882
 3884TIP3    H233288   3.610   4.699   6.856 -2.6770 -2.6703  3.4747
 3885TIP3   OH233289   6.550   5.784   7.736 -0.3122  0.3035  0.1453
 3885TIP3    H133290   6.512   5.750   7.817  2.5546 -0.4614  1.3004
 3885TIP3    H233291   6.611   5.853   7.765  3.3251 -2.1999 -0.8074
 3886TIP3   OH233292   3.363   1.470   0.643  0.0919  0.2106  0.2664
 3886TIP3    H133293   3.414   1.430   0.714  1.1043  0.1523 -0.4624
 3886TIP3    H233294   3.272   1.457   0.668  0.4132 -1.0694  0.8657
 3887TIP3   OH233295   0.439   2.942   6.766  0.2733  0.2547  0.4066
 3887TIP3    H133296   0.366   2.957   6.826  0.9518  0.8833  1.0896
 3887TIP3    H233297   0.502   2.890   6.817  0.7893  0.6690  0.2056
 3888TIP3   OH233298   2.247   3.373   8.611 -0.1839 -0.5406  0.0069
 3888TIP3    H133299   2.341   3.393   8.608 -0.1835 -0.5745 -0.2679
 3888TIP3    H233300   2.221   3.391   8.701  0.0819 -0.5043  0.0765
 3889TIP3   OH233301   0.229   1.629   0.509  0.3573  0.0680 -0.2858
 3889TIP3    H133302   0.135   1.613   0.516  0.0517  1.2138 -1.3251
 3889TIP3    H233303   0.238   1.684   0.431  2.0483 -1.3270 -1.1627
 3890TIP3   OH233304   6.661   3.513   1.323 -0.5629  1.1616 -0.2725
 3890TIP3    H133305   6.597   3.455   1.363  0.2223  0.9135  0.6597
 3890TIP3    H233306   6.714   3.545   1.396  1.9626 -0.5773 -1.2179
 3891TIP3   OH233307   5.455   6.515   8.738 -0.4134  0.4659 -0.1673
 3891TIP3    H133308   5.548   6.533   8.726 -0.5621  0.7158 -0.9506
 3891TIP3    H233309   5.447   6.421   8.724 -0.1813  0.3257  0.5664
 3892TIP3   OH233310   4.638   3.610   1.954  0.1521 -0.1221  0.4096
 3892TIP3    H133311   4.583   3.640   1.882  0.8261  0.5339  0.1516
 3892TIP3    H233312   4.636   3.683   2.017  1.0626  0.0828  0.2047
 3893TIP3   OH233313   2.499   5.573   8.480 -0.0144 -0.1287  0.0140
 3893TIP3    H133314   2.413   5.532   8.492  0.4958 -1.8521 -1.6813
 3893TIP3    H233315   2.486   5.639   8.412  0.0178 -0.5123 -0.3697
 3894TIP3   OH233316   2.454   1.697   1.523  0.1838  0.5721 -0.6189
 3894TIP3    H133317   2.493   1.654   1.447  1.5729 -0.1695  0.4710
 3894TIP3    H233318   2.429   1.625   1.581 -1.7604  1.0876 -0.7566
 3895TIP3   OH233319   0.181   4.690   8.623 -0.5420  0.0760  0.3232
 3895TIP3    H133320   0.240   4.667   8.694  1.7661  2.9912 -0.4873
 3895TIP3    H233321   0.107   4.732   8.665 -0.8905 -1.3102  1.1633
 3896TIP3   OH233322   1.816   1.086   6.696 -0.1802  0.0286  0.3585
 3896TIP3    H133323   1.810   1.170   6.650  0.0799 -0.9341 -1.5383
 3896TIP3    H233324   1.733   1.079   6.744 -0.6540  0.8996 -0.2994
 3897TIP3   OH233325   5.803   2.188   1.105  0.0381 -0.3318 -0.1328
 3897TIP3    H133326   5.862   2.215   1.175  0.0258 -2.4129  0.7588
 3897TIP3    H233327   5.792   2.094   1.118 -2.8728 -0.1725 -0.7048
 3898TIP3   OH233328   2.463   0.479   7.789  0.2554  0.3880 -0.0636
 3898TIP3    H133329   2.490   0.483   7.880  1.1488  1.4554 -0.3493
 3898TIP3    H233330   2.528   0.530   7.742 -0.2928  0.0194 -1.2836
 3899TIP3   OH233331   4.283   4.697   6.753  0.8277 -0.2486  0.2533
 3899TIP3    H133332   4.271   4.617   6.701  0.8178 -0.4968  0.6366
 3899TIP3    H233333   4.226   4.761   6.711 -0.1105 -0.7825  0.6675
 3900TIP3   OH233334   3.994   2.343   0.201 -0.4407  0.1892  0.2536
 3900TIP3    H133335   3.931   2.297   0.145  0.2978 -0.8708  0.2564
 3900TIP3    H233336   3.999   2.288   0.280  1.0550 -0.1629 -0.0645
 3901TIP3   OH233337   4.064   5.637   7.824  0.3193 -0.2408 -0.0749
 3901TIP3    H133338   4.022   5.703   7.879 -0.1230 -0.4816 -0.1201
 3901TIP3    H233339   4.158   5.652   7.837  0.2602  1.4406 -1.3336
 3902TIP3   OH233340   0.939   0.590   6.342  0.1465 -0.0938  0.0646
 3902TIP3    H133341   1.011   0.615   6.285  0.8671  1.1442  1.4351
 3902TIP3    H233342   0.920   0.669   6.393 -0.2964 -1.1942  1.6958
 3903TIP3   OH233343   0.592   1.405   7.940  0.1749 -0.2754  0.5767
 3903TIP3    H133344   0.503   1.371   7.953  0.2869 -0.7726  0.0844
 3903TIP3    H233345   0.648   1.327   7.944  0.1546 -0.8031 -3.9826
 3904TIP3   OH233346   5.367   1.862   0.298  0.8202  0.1884 -0.2526
 3904TIP3    H133347   5.432   1.869   0.367  1.0859  0.6080 -0.5361
 3904TIP3    H233348   5.332   1.774   0.306  2.0280 -0.3432 -0.6285
 3905TIP3   OH233349   4.326   5.373   0.855 -0.1510 -0.2933  0.2345
 3905TIP3    H133350   4.384   5.298   0.867  1.1788  0.8196  0.8833
 3905TIP3    H233351   4.349   5.409   0.770 -1.1401 -0.8824 -0.3098
 3906TIP3   OH233352   2.632   5.542   6.561  0.7742 -0.3041  0.7022
 3906TIP3    H133353   2.560   5.529   6.624 -0.0737  1.3384  0.1431
 3906TIP3    H233354   2.681   5.460   6.563 -0.4118 -1.0270  2.0115
 3907TIP3   OH233355   3.424   6.229   6.438  0.0925 -0.1972  0.1919
 3907TIP3    H133356   3.491   6.242   6.505  1.2826  1.1299 -1.1912
 3907TIP3    H233357   3.470   6.243   6.356 -1.3823 -1.5656 -0.9216
 3908TIP3   OH233358   6.189   6.854   8.371 -0.4076 -0.1105 -0.3022
 3908TIP3    H133359   6.238   6.841   8.452  1.4571  0.1629 -1.3250
 3908TIP3    H233360   6.155   6.768   8.349 -2.2838  0.0765  1.5198
 3909TIP3   OH233361   2.153   5.464   0.198  0.8373  0.2795 -0.4749
 3909TIP3    H133362   2.070   5.510   0.185  2.0237  2.4187 -0.7755
 3909TIP3    H233363   2.132   5.372   0.181 -1.6861  0.6031  0.4408
 3910TIP3   OH233364   6.476   4.702   8.021 -0.0228 -0.2504  0.1528
 3910TIP3    H133365   6.409   4.685   7.955 -0.5822 -0.0455  0.6606
 3910TIP3    H233366   6.542   4.634   8.006 -0.5799 -0.7624 -0.0330
 3911TIP3   OH233367   4.756   3.539   0.370  0.1683 -0.6025 -0.0052
 3911TIP3    H133368   4.743   3.534   0.275 -1.8589 -2.1178  0.2856
 3911TIP3    H233369   4.768   3.448   0.398 -0.3978 -0.2964  1.3106
 3912TIP3   OH233370   6.705   4.903   6.963 -0.0627  0.3904 -0.0160
 3912TIP3    H133371   6.740   4.819   6.934  0.9551  0.8545 -0.1487
 3912TIP3    H233372   6.705   4.958   6.884 -0.2886  0.6619  0.1701
 3913TIP3   OH233373   3.747   4.384   0.630 -0.2584  0.1983 -0.2091
 3913TIP3    H133374   3.797   4.305   0.651  0.2215  0.4443 -0.4025
 3913TIP3    H233375   3.792   4.454   0.678 -2.7827 -0.1266  2.9733
 3914TIP3   OH233376   5.369   5.433   1.600  0.0666  0.4237  0.1512
 3914TIP3    H133377   5.456   5.441   1.560 -0.0850 -1.1428 -0.5628
 3914TIP3    H233378   5.308   5.451   1.528 -0.2035 -0.1584  0.2315
 3915TIP3   OH233379   4.498   5.529   1.984 -0.0015  0.3299 -0.1478
 3915TIP3    H133380   4.576   5.549   2.036 -0.6487  0.1961  0.8930
 3915TIP3    H233381   4.474   5.613   1.944  0.4321  0.4639 -0.1311
 3916TIP3   OH233382   0.235   2.916   0.204  0.3583 -0.4847  0.7148
 3916TIP3    H133383   0.301   2.856   0.170  0.5241 -0.7481  1.4714
 3916TIP3    H233384   0.165   2.860   0.235 -0.1254 -0.2146  0.1317
 3917TIP3   OH233385   6.274   3.495   1.724 -0.3651  0.1514  0.2112
 3917TIP3    H133386   6.193   3.485   1.674 -1.4959 -0.4589  2.0431
 3917TIP3    H233387   6.256   3.449   1.807  0.8253  2.4165  1.8220
 3918TIP3   OH233388   0.638   6.105   1.665  0.1783 -0.3581 -0.3645
 3918TIP3    H133389   0.631   6.157   1.745  1.1466 -0.8111  0.0370
 3918TIP3    H233390   0.548   6.095   1.635 -0.1030  0.8688 -0.0230
 3919TIP3   OH233391   1.240   6.618   7.902 -0.1568 -0.1459  0.8145
 3919TIP3    H133392   1.320   6.566   7.896  0.8137  1.1912  1.6394
 3919TIP3    H233393   1.187   6.590   7.827  1.0431 -1.1041  0.2965
 3920TIP3   OH233394   4.452   5.133   7.078 -0.2942  0.0901  0.4018
 3920TIP3    H133395   4.413   5.056   7.118 -0.8799  0.7509  1.1235
 3920TIP3    H233396   4.380   5.196   7.072  0.2486  0.6928  0.1104
 3921TIP3   OH233397   3.948   0.635   8.010 -0.0040 -0.3261  0.0751
 3921TIP3    H133398   3.924   0.674   7.926  0.1800  2.4545  1.1850
 3921TIP3    H233399   3.889   0.561   8.020  1.1254 -1.8630 -3.2058
 3922TIP3   OH233400   5.437   0.484   0.380 -0.1008  0.2303 -0.2690
 3922TIP3    H133401   5.351   0.486   0.338  0.4620  1.5356 -1.4659
 3922TIP3    H233402   5.454   0.575   0.405  0.9583  0.0138 -0.1373
 3923TIP3   OH233403   5.484   0.820   0.335  0.2734  0.2264  0.6866
 3923TIP3    H133404   5.513   0.857   0.418 -2.8931  0.9927  1.6202
 3923TIP3    H233405   5.493   0.892   0.272  2.7025 -0.3645  0.2723
 3924TIP3   OH233406   3.806   5.950   1.391  0.3829  0.1376 -0.5269
 3924TIP3    H133407   3.756   5.872   1.365 -1.4519  1.0111  0.1966
 3924TIP3    H233408   3.742   6.005   1.437  1.0595  3.0138 -2.7792
 3925TIP3   OH233409   6.528   4.708   1.163 -0.8733 -0.3525 -0.2637
 3925TIP3    H133410   6.544   4.763   1.086 -2.7444  0.5096 -0.0990
 3925TIP3    H233411   6.580   4.747   1.233  1.5755 -1.6806 -1.2373
 3926TIP3   OH233412   0.621   2.379   8.105  0.0834  0.0378  0.5611
 3926TIP3    H133413   0.692   2.317   8.087 -0.8291 -0.8004 -0.2652
 3926TIP3    H233414   0.625   2.394   8.199 -1.0299 -3.0491  1.2126
 3927TIP3   OH233415   5.745   5.627   8.306 -0.0893  0.7310 -0.4542
 3927TIP3    H133416   5.711   5.577   8.233  0.2383  0.7221 -0.5993
 3927TIP3    H233417   5.761   5.714   8.270  1.4809  0.3315 -0.7747
 3928TIP3   OH233418   4.998   4.887   8.437  0.1954 -0.0922 -0.2540
 3928TIP3    H133419   5.026   4.855   8.351  2.4984 -0.4515  0.5501
 3928TIP3    H233420   4.968   4.808   8.483  0.3177 -0.1362 -0.2493
 3929TIP3   OH233421   3.965   4.440   7.270 -0.6041  0.2609  0.6911
 3929TIP3    H133422   4.001   4.498   7.203  0.4420 -0.8475  0.2562
 3929TIP3    H233423   3.870   4.447   7.260 -0.4672  0.7440 -0.3621
 3930TIP3   OH233424   0.676   5.603   1.488 -0.1805 -0.0984 -0.4125
 3930TIP3    H133425   0.591   5.558   1.488 -0.2244 -0.0631  0.8531
 3930TIP3    H233426   0.656   5.692   1.460 -0.3958 -0.3605 -1.1068
 3931TIP3   OH233427   2.342   0.061   1.211  0.6482  0.0156 -0.2297
 3931TIP3    H133428   2.393  -0.017   1.189  1.4181  0.0194  1.3635
 3931TIP3    H233429   2.390   0.134   1.172  1.6321 -0.0296  0.8513
 3932TIP3   OH233430   4.266   4.079   8.212 -0.3915  0.3460  0.4025
 3932TIP3    H133431   4.286   4.169   8.235  0.0106  0.3498  0.0514
 3932TIP3    H233432   4.210   4.086   8.134 -0.3378  0.2946  0.3583
 3933TIP3   OH233433   5.666   3.383   8.741  0.8932 -0.5047 -0.6081
 3933TIP3    H133434   5.726   3.418   8.675  0.8469 -0.1475 -0.4672
 3933TIP3    H233435   5.586   3.435   8.729  1.3335  0.5085  0.6124
 3934TIP3   OH233436   5.863   3.136   2.765  0.3845 -0.1775 -0.1454
 3934TIP3    H133437   5.943   3.097   2.731  1.3716  1.7149 -0.1458
 3934TIP3    H233438   5.816   3.063   2.805  1.6277 -1.5179 -1.0255
 3935TIP3   OH233439   4.904   4.346   7.493 -0.5455 -0.5602  0.2951
 3935TIP3    H133440   4.995   4.324   7.475 -0.3118  0.2338  0.4907
 3935TIP3    H233441   4.908   4.427   7.542 -1.3843 -0.2660 -0.1055
 3936TIP3   OH233442   4.777   0.595   7.735 -0.3746  0.2876 -0.6332
 3936TIP3    H133443   4.767   0.552   7.650 -1.3851  2.4660 -1.6911
 3936TIP3    H233444   4.872   0.602   7.747 -0.2065 -0.8143 -1.1439
 3937TIP3   OH233445   3.312   6.350   0.150 -0.2687 -0.1152  0.1287
 3937TIP3    H133446   3.322   6.416   0.219 -0.7558  1.2180 -1.0149
 3937TIP3    H233447   3.264   6.279   0.192 -1.4323  1.0854  0.9359
 3938TIP3   OH233448   4.295   5.791   0.815  0.0069  0.4856 -0.0543
 3938TIP3    H133449   4.210   5.802   0.857 -0.6486 -0.7384 -0.9558
 3938TIP3    H233450   4.304   5.867   0.758 -0.7144  0.3910 -0.3050
 3939TIP3   OH233451   3.039   2.150   0.680 -0.0201 -0.0014 -0.3968
 3939TIP3    H133452   3.082   2.129   0.762  1.0545  1.2715 -0.6143
 3939TIP3    H233453   2.946   2.157   0.703  0.1173 -0.7506  0.4645
 3940TIP3   OH233454   0.332   0.113   0.783  0.3396 -0.2484  0.4030
 3940TIP3    H133455   0.412   0.089   0.738  0.1335 -1.5646  0.7046
 3940TIP3    H233456   0.360   0.174   0.852  0.7474  1.1767 -0.9815
 3941TIP3   OH233457   4.838   3.146   0.913  0.1242 -0.0175  0.1691
 3941TIP3    H133458   4.790   3.186   0.986  1.9955  1.5372  0.6419
 3941TIP3    H233459   4.833   3.211   0.843  0.6121 -0.3069 -0.1373
 3942TIP3   OH233460   3.135   2.663   7.773  0.2966 -0.7443  0.2208
 3942TIP3    H133461   3.227   2.689   7.767  0.3137 -1.0498 -1.3534
 3942TIP3    H233462   3.132   2.575   7.737 -0.3586 -1.4917  1.9610
 3943TIP3   OH233463   6.786   1.247   2.193  0.1062  0.1608  0.2381
 3943TIP3    H133464   6.819   1.170   2.239 -0.4186  0.2272  0.7544
 3943TIP3    H233465   6.844   1.259   2.119  1.1575  0.2015  1.0432
 3944TIP3   OH233466   5.390   4.536   8.496  0.1920 -0.0556  0.0930
 3944TIP3    H133467   5.472   4.576   8.466  1.7544 -2.6308  0.6600
 3944TIP3    H233468   5.365   4.476   8.426 -0.1795 -0.6720  0.7409
 3945TIP3   OH233469   0.794   5.905   1.863 -0.0005 -0.2836 -0.2492
 3945TIP3    H133470   0.709   5.892   1.822  0.0695  1.2161 -0.9246
 3945TIP3    H233471   0.839   5.967   1.807  0.9684  0.1004  0.9081
 3946TIP3   OH233472   6.830   1.295   0.463  0.7746  0.4444 -0.3811
 3946TIP3    H133473   6.810   1.349   0.540 -0.5481  0.8415 -0.9714
 3946TIP3    H233474   6.907   1.245   0.488  0.6532  0.9179  1.0320
 3947TIP3   OH233475   0.266   4.070   8.801 -0.3535  0.2749  0.1064
 3947TIP3    H133476   0.322   4.068   8.724  3.1567 -1.3702  2.4542
 3947TIP3    H233477   0.246   4.163   8.814  2.4891  1.0566 -0.4799
 3948TIP3   OH233478   3.449   2.879   2.084  0.1610  0.1963  0.6101
 3948TIP3    H133479   3.421   2.922   2.165 -3.1628  0.2802 -0.4218
 3948TIP3    H233480   3.368   2.849   2.044  1.9479 -2.9232 -1.0645
 3949TIP3   OH233481   0.610   0.576   7.901 -0.7187 -0.0051 -0.3062
 3949TIP3    H133482   0.535   0.625   7.868  0.8475  1.4614 -1.8757
 3949TIP3    H233483   0.606   0.492   7.856 -0.9177  0.4032 -1.0647
 3950TIP3   OH233484   6.401   4.874   0.703 -0.4984 -0.2020  0.0200
 3950TIP3    H133485   6.419   4.858   0.610 -1.9013 -0.7003 -0.1936
 3950TIP3    H233486   6.449   4.954   0.723  0.3771 -0.4597 -0.9517
 3951TIP3   OH233487   4.604   4.677   8.572 -0.0418  0.1389  0.4143
 3951TIP3    H133488   4.578   4.604   8.628  0.3469 -1.9031 -1.8682
 3951TIP3    H233489   4.699   4.682   8.582  0.3243 -1.5849 -1.3924
 3952TIP3   OH233490   4.065   6.860   8.167  0.6275  0.0097  0.4310
 3952TIP3    H133491   3.978   6.867   8.206  0.8004 -0.0844  0.8414
 3952TIP3    H233492   4.114   6.804   8.228  0.9624  0.0317  0.1843
 3953TIP3   OH233493   3.037   4.755   7.759  0.2521 -0.0553  0.0544
 3953TIP3    H133494   3.097   4.808   7.708 -1.3998  2.4268  0.5086
 3953TIP3    H233495   3.092   4.713   7.825  1.8136  0.0167 -1.1516
 3954TIP3   OH233496   5.183   2.724   8.796 -0.1126  0.2742 -0.7293
 3954TIP3    H133497   5.232   2.662   8.742 -0.3322  0.4601 -1.1510
 3954TIP3    H233498   5.247   2.758   8.858  0.4965  1.0885 -1.7657
 3955TIP3   OH233499   4.140   3.678   0.030  0.0704 -0.0778 -1.1296
 3955TIP3    H133500   4.215   3.656   0.085  0.9027  1.3482 -1.6406
 3955TIP3    H233501   4.166   3.758  -0.016 -1.3626 -0.1294 -2.1125
 3956TIP3   OH233502   3.366   0.444   6.842 -0.6199 -0.4317  0.2348
 3956TIP3    H133503   3.361   0.349   6.833 -0.3309 -0.3165 -1.4593
 3956TIP3    H233504   3.280   0.475   6.813 -0.2422 -0.1149 -0.5776
 3957TIP3   OH233505   0.173   3.317   1.725  0.4593 -0.5360  0.0759
 3957TIP3    H133506   0.186   3.385   1.792  0.9548 -0.4320 -0.1180
 3957TIP3    H233507   0.246   3.256   1.740  0.2389 -0.8179 -0.0012
 3958TIP3   OH233508   1.004   0.197   1.224 -0.3350 -0.3010 -0.7948
 3958TIP3    H133509   1.097   0.196   1.204 -0.3581  0.9333 -1.0334
 3958TIP3    H233510   0.992   0.126   1.287  1.1845  0.8945  0.9591
 3959TIP3   OH233511   2.872   3.721   6.740  0.0130 -0.2306 -0.0742
 3959TIP3    H133512   2.792   3.772   6.723  0.5669  0.2738 -1.2407
 3959TIP3    H233513   2.939   3.786   6.758  0.3513 -0.6281  0.1350
 3960TIP3   OH233514   5.377   5.489   8.572  0.2293 -0.5664  0.2950
 3960TIP3    H133515   5.411   5.430   8.640  0.3116 -1.1109 -0.2091
 3960TIP3    H233516   5.283   5.492   8.589  0.2425 -0.7295  0.4119
 3961TIP3   OH233517   3.633   6.210   1.920 -0.4423 -0.1443 -0.5982
 3961TIP3    H133518   3.583   6.130   1.902 -0.7468 -0.2529  0.6085
 3961TIP3    H233519   3.594   6.245   2.000  1.0474  0.0671  0.0769
 3962TIP3   OH233520   0.295   2.806   0.711 -0.5986 -0.1042 -0.2416
 3962TIP3    H133521   0.295   2.782   0.619  0.6840  0.2298 -0.3522
 3962TIP3    H233522   0.352   2.742   0.753 -0.3518  0.3449  0.1290
 3963TIP3   OH233523   0.011   6.154   1.108  0.2327  0.3884  0.4556
 3963TIP3    H133524   0.015   6.160   1.012  1.9623  2.5995  0.5951
 3963TIP3    H233525  -0.030   6.235   1.136 -0.0417 -0.1353  1.6153
 3964TIP3   OH233526   1.166   0.848   1.380  0.3265  0.5897 -0.0244
 3964TIP3    H133527   1.200   0.777   1.326 -0.1541 -0.1305  0.5940
 3964TIP3    H233528   1.148   0.919   1.318  1.9112  0.6119 -0.4984
 3965TIP3   OH233529   3.993   0.827   7.793  0.2735 -0.2527  0.2447
 3965TIP3    H133530   4.066   0.847   7.735 -0.1634  0.5372 -0.0444
 3965TIP3    H233531   3.980   0.906   7.845  0.0624 -0.6248  0.7768
 3966TIP3   OH233532   5.795   6.194   7.373 -0.4798 -0.0546 -0.3907
 3966TIP3    H133533   5.775   6.269   7.429  0.2770 -0.2017  0.0841
 3966TIP3    H233534   5.792   6.229   7.284 -2.0943  0.0928 -0.3061
 3967TIP3   OH233535   4.037   6.854   0.173  0.5378 -0.1772  0.1786
 3967TIP3    H133536   4.123   6.894   0.163  0.7964 -1.0649 -1.4168
 3967TIP3    H233537   3.982   6.901   0.111 -0.0217  0.0371  0.8215
 3968TIP3   OH233538   5.430   0.542   6.418 -0.1697 -0.0314  0.0403
 3968TIP3    H133539   5.410   0.619   6.471 -0.7443  0.2950 -0.6351
 3968TIP3    H233540   5.345   0.498   6.406  0.2388 -1.0975  0.9143
 3969TIP3   OH233541   0.690   5.782   7.851  0.6909 -0.0850  0.0693
 3969TIP3    H133542   0.657   5.780   7.761 -1.3220  0.6863  0.7236
 3969TIP3    H233543   0.679   5.874   7.878  2.0051 -0.1414  0.8527
 3970TIP3   OH233544   6.091   1.658   1.985  0.3181  0.1109  0.4698
 3970TIP3    H133545   6.013   1.625   1.941  0.2553 -0.8969  1.2907
 3970TIP3    H233546   6.128   1.581   2.028  0.1288  1.1189  2.5439
 3971TIP3   OH233547   3.420   3.749   1.610 -0.2232  0.0229  0.5543
 3971TIP3    H133548   3.432   3.842   1.631  0.0515  0.4467 -1.2775
 3971TIP3    H233549   3.353   3.719   1.671 -1.2481  1.7649  0.3569
 3972TIP3   OH233550   0.857   2.158   1.185 -0.6667  0.4208  0.1263
 3972TIP3    H133551   0.854   2.096   1.258  0.1182  0.8546  0.5340
 3972TIP3    H233552   0.879   2.104   1.109 -1.4706 -0.0314  0.2042
 3973TIP3   OH233553   6.647   5.782   8.743  0.3271  0.0255  0.0185
 3973TIP3    H133554   6.668   5.870   8.712  0.9895 -0.1554 -0.0558
 3973TIP3    H233555   6.551   5.782   8.751  0.3811  1.1503  1.1790
 3974TIP3   OH233556   4.989   5.904   0.022 -0.4419  0.0432 -0.2755
 3974TIP3    H133557   5.013   5.974  -0.038 -1.4436  0.4578 -0.2047
 3974TIP3    H233558   5.031   5.927   0.105  1.0488 -0.5936 -0.8150
 3975TIP3   OH233559   4.603   6.763   0.100  0.0220  0.1179 -0.2382
 3975TIP3    H133560   4.583   6.673   0.077 -1.0778  0.6308 -1.3738
 3975TIP3    H233561   4.676   6.787   0.042  1.6491 -0.6082  1.4030
 3976TIP3   OH233562   3.852   1.142   1.405 -0.0784 -0.2426 -0.2595
 3976TIP3    H133563   3.889   1.127   1.318 -0.9760 -0.6547 -0.5790
 3976TIP3    H233564   3.765   1.177   1.388  0.5780  1.9268  0.4679
 3977TIP3   OH233565   3.361   0.051   8.622 -0.1002  0.0109  0.1481
 3977TIP3    H133566   3.293  -0.006   8.658  0.3574 -0.7383 -0.1683
 3977TIP3    H233567   3.431   0.050   8.687 -1.0763  2.2271  1.3709
 3978TIP3   OH233568   0.883   1.375   2.278 -0.0430  0.3429  0.0476
 3978TIP3    H133569   0.886   1.280   2.265 -1.1863  0.1165  1.1904
 3978TIP3    H233570   0.950   1.393   2.344  1.3279  0.5955 -1.3583
 3979TIP3   OH233571   4.150   5.530   7.185  0.1109  0.3215  0.2184
 3979TIP3    H133572   4.115   5.455   7.138 -1.7710  0.8931  0.5960
 3979TIP3    H233573   4.192   5.584   7.118 -2.4539  1.0945 -0.8893
 3980TIP3   OH233574   2.951   5.424   8.550 -0.1089  0.4415 -1.0215
 3980TIP3    H133575   2.896   5.347   8.563 -0.5874  0.3299 -3.2503
 3980TIP3    H233576   2.919   5.488   8.614 -0.7398 -0.6745 -0.1943
 3981TIP3   OH233577   4.399   0.268   8.779  0.7761  0.3137 -0.0790
 3981TIP3    H133578   4.309   0.294   8.796  0.4390 -0.9221  0.1241
 3981TIP3    H233579   4.392   0.183   8.736  1.8538 -0.0599  0.4356
 3982TIP3   OH233580   2.063   4.098   1.792 -0.5151 -0.2026  0.4293
 3982TIP3    H133581   2.017   4.118   1.874 -0.6049 -3.6882  1.3830
 3982TIP3    H233582   2.156   4.106   1.813 -0.5531 -0.1220  0.5646
 3983TIP3   OH233583   3.884   0.604   1.995 -0.2782 -0.3308 -0.3531
 3983TIP3    H133584   3.926   0.689   1.983  3.1983 -1.8268 -0.1194
 3983TIP3    H233585   3.850   0.607   2.085  0.8613  0.4583  0.0841
 3984TIP3   OH233586   0.339   0.515   0.304 -0.3790 -0.3213 -0.4311
 3984TIP3    H133587   0.281   0.445   0.273  1.2799 -1.3787 -1.2964
 3984TIP3    H233588   0.288   0.560   0.371 -1.3574 -2.6316  0.5038
 3985TIP3   OH233589   2.685   3.768   1.971 -0.3396 -0.6752  0.3627
 3985TIP3    H133590   2.617   3.830   1.946  0.4544  0.3041  0.6079
 3985TIP3    H233591   2.653   3.728   2.051 -1.0042 -0.8375  0.0241
 3986TIP3   OH233592   4.906   1.445   8.067  0.3913 -0.0663  0.7372
 3986TIP3    H133593   4.846   1.479   8.133 -1.8408 -1.7820 -0.2569
 3986TIP3    H233594   4.912   1.351   8.086 -1.0684 -0.8104 -1.9383
 3987TIP3   OH233595   3.347   3.863   2.363  0.5081 -0.2609 -0.7898
 3987TIP3    H133596   3.269   3.814   2.390  0.9390 -1.1276 -1.0916
 3987TIP3    H233597   3.318   3.955   2.363  0.0772 -0.3346  1.1653
 3988TIP3   OH233598   3.871   6.310   0.140 -0.2470 -0.1232 -0.1521
 3988TIP3    H133599   3.893   6.350   0.056  0.6140  0.3748  0.3054
 3988TIP3    H233600   3.944   6.332   0.198 -1.2030  0.2361  0.9573
 3989TIP3   OH233601   1.413   6.336   7.208  0.0784  0.2095 -0.2571
 3989TIP3    H133602   1.429   6.384   7.290 -1.1358  2.4414 -1.2413
 3989TIP3    H233603   1.321   6.309   7.214  0.1636 -0.1690 -0.6365
 3990TIP3   OH233604   2.537   6.840   8.001 -0.5188 -0.1630  0.1606
 3990TIP3    H133605   2.521   6.776   7.932 -1.5548 -0.5035  0.7081
 3990TIP3    H233606   2.617   6.885   7.973 -1.0271 -0.1571 -1.3532
 3991TIP3   OH233607   6.846   1.387   8.520  0.3293 -0.5226 -0.0505
 3991TIP3    H133608   6.918   1.347   8.570 -0.2098 -0.2925  0.9353
 3991TIP3    H233609   6.890   1.446   8.458  0.9896  0.6698  1.4656
 3992TIP3   OH233610   6.241   1.119   7.904 -0.1781 -0.2181 -0.5977
 3992TIP3    H133611   6.289   1.184   7.854 -0.0550 -0.2420 -0.5112
 3992TIP3    H233612   6.269   1.132   7.994 -0.9183  0.2844 -0.4321
 3993TIP3   OH233613   1.363   3.954   1.098 -0.1015 -0.1259  0.5407
 3993TIP3    H133614   1.352   4.044   1.129  0.0159 -0.0785  0.4453
 3993TIP3    H233615   1.457   3.945   1.083 -0.1575 -0.1410  0.1803
 3994TIP3   OH233616   4.201   4.622   1.422  0.2951  0.3328 -0.4647
 3994TIP3    H133617   4.174   4.544   1.374  0.8434  0.2856 -0.7064
 3994TIP3    H233618   4.120   4.656   1.460 -0.1497  0.3205 -1.3555
 3995TIP3   OH233619   0.922   2.524   0.310 -0.4079  0.9954 -0.4217
 3995TIP3    H133620   0.973   2.580   0.369 -0.1093  0.5578 -0.2603
 3995TIP3    H233621   0.908   2.578   0.232 -0.2431  1.3444 -0.2132
 3996TIP3   OH233622   0.986   5.444   8.392 -0.6504  0.0855  0.2056
 3996TIP3    H133623   1.034   5.479   8.317 -0.3038  0.6911  0.6982
 3996TIP3    H233624   0.917   5.390   8.353 -1.0767  1.1569 -0.5934
 3997TIP3   OH233625   4.855   4.074   0.698  0.6401 -0.3414  0.3738
 3997TIP3    H133626   4.910   4.141   0.738  0.4225  0.9767 -1.4327
 3997TIP3    H233627   4.908   3.995   0.701  1.2895  0.1128  1.6625
 3998TIP3   OH233628   5.130   5.401   0.734 -0.6186  0.1536  0.3060
 3998TIP3    H133629   5.085   5.424   0.653 -0.5529 -0.8381 -0.0257
 3998TIP3    H233630   5.061   5.398   0.801 -0.6669  1.0084  0.3122
 3999TIP3   OH233631   4.299   1.909   2.536  0.3367  0.3905  0.6204
 3999TIP3    H133632   4.251   1.991   2.523  1.1733  0.8334  0.2348
 3999TIP3    H233633   4.346   1.895   2.454 -1.0867 -1.3851  0.0370
 4000TIP3   OH233634   3.871   1.890   7.673  0.2281 -0.0839 -0.3394
 4000TIP3    H133635   3.941   1.893   7.737 -1.4955  0.4974  1.6099
 4000TIP3    H233636   3.832   1.977   7.675 -1.0379 -0.6144 -0.8177
 4001TIP3   OH233637   0.285   2.194   1.823 -0.3167 -0.5162  0.0110
 4001TIP3    H133638   0.235   2.251   1.881  0.8145 -0.1510  0.6599
 4001TIP3    H233639   0.364   2.172   1.873 -0.0321 -1.4317 -0.8117
 4002TIP3   OH233640   4.398   6.104   7.669 -0.5623  0.1947 -0.4897
 4002TIP3    H133641   4.306   6.126   7.657 -0.6839  1.2214  1.9330
 4002TIP3    H233642   4.398   6.014   7.702 -0.6000 -0.1600 -1.4135
 4003TIP3   OH233643   3.437   4.600   7.174 -0.2819  0.1207  0.1961
 4003TIP3    H133644   3.456   4.686   7.136  2.0166 -0.4783 -0.1714
 4003TIP3    H233645   3.440   4.540   7.099 -0.4084 -0.4659  0.6569
 4004TIP3   OH233646   1.065   3.689   1.607  0.3410  0.3538  0.1021
 4004TIP3    H133647   1.081   3.757   1.673  1.6063  1.7713 -1.5899
 4004TIP3    H233648   1.117   3.716   1.532 -2.3823 -0.2330 -2.1503
 4005TIP3   OH233649   2.053   3.218   0.997  0.4106 -0.7155  0.4268
 4005TIP3    H133650   2.084   3.140   0.949  0.4506 -1.4326  1.5785
 4005TIP3    H233651   1.960   3.201   1.013  0.4434 -0.5748  0.7717
 4006TIP3   OH233652   1.146   4.910   7.810 -0.5848 -0.5251  0.8199
 4006TIP3    H133653   1.069   4.954   7.774  2.1076  3.8686 -0.3462
 4006TIP3    H233654   1.178   4.970   7.877  1.9216 -2.1160  1.1483
 4007TIP3   OH233655   2.745   4.333   0.671 -0.7204  0.2107 -0.0187
 4007TIP3    H133656   2.757   4.332   0.766 -0.2713  0.2097 -0.0729
 4007TIP3    H233657   2.688   4.409   0.655 -2.1004 -0.7086  0.3880
 4008TIP3   OH233658   1.342   2.006   7.199 -0.2709  0.1383  0.4000
 4008TIP3    H133659   1.254   2.043   7.195 -0.5497 -0.3469  1.6213
 4008TIP3    H233660   1.389   2.049   7.127 -1.1755  1.2519  0.4376
 4009TIP3   OH233661   0.591   3.599   8.598 -0.4198 -0.1067  0.6150
 4009TIP3    H133662   0.553   3.559   8.677 -0.7863 -0.8185  0.0847
 4009TIP3    H233663   0.656   3.661   8.632 -0.7285 -0.2471  1.4837
 4010TIP3   OH233664   2.338   4.482   7.466  0.0249  0.5248 -0.1819
 4010TIP3    H133665   2.293   4.414   7.518 -0.5804 -0.1275 -1.5239
 4010TIP3    H233666   2.268   4.533   7.427  0.3684 -0.5056 -2.3070
 4011TIP3   OH233667   5.978   3.858   2.313  0.1060 -0.4306 -0.4496
 4011TIP3    H133668   5.993   3.900   2.228 -0.8660  0.3830 -0.2332
 4011TIP3    H233669   5.890   3.823   2.308  0.6131 -1.7857 -0.3289
 4012TIP3   OH233670   4.922   0.944   8.702  0.1824  0.4935  0.1015
 4012TIP3    H133671   4.972   0.988   8.772 -0.7512  0.8340  0.5727
 4012TIP3    H233672   4.965   0.860   8.692  2.0635  1.5036 -0.8697
 4013TIP3   OH233673   0.227   1.625   7.994  0.8040  0.6970  0.2808
 4013TIP3    H133674   0.290   1.582   8.052 -0.6342 -0.0977  1.3193
 4013TIP3    H233675   0.234   1.718   8.015  1.2779  0.5601  0.7408
 4014TIP3   OH233676   4.213   2.732   8.769 -0.1997  0.2619 -0.4323
 4014TIP3    H133677   4.253   2.789   8.704 -0.0214  0.8188  0.1577
 4014TIP3    H233678   4.269   2.739   8.846 -0.5168 -0.2324 -0.1470
 4015TIP3   OH233679   1.650   3.863   8.695 -0.2433  0.0588  0.5811
 4015TIP3    H133680   1.711   3.931   8.721 -0.0988  0.1468  0.0160
 4015TIP3    H233681   1.619   3.889   8.609  0.9702 -1.3563 -0.3398
 4016TIP3   OH233682   1.718   2.254   1.881 -0.3994  0.1089  0.7346
 4016TIP3    H133683   1.724   2.220   1.791  0.2387  0.4911  0.6216
 4016TIP3    H233684   1.785   2.205   1.929 -0.3445  0.3081  0.8614
 4017TIP3   OH233685   2.472   5.713   7.283 -0.3110  0.2033  0.1016
 4017TIP3    H133686   2.535   5.642   7.272 -0.6422 -0.4926  2.2464
 4017TIP3    H233687   2.413   5.682   7.352  0.4587  3.1332  2.2824
 4018TIP3   OH233688   5.242   5.198   8.781  0.3836  0.5929 -0.5533
 4018TIP3    H133689   5.241   5.162   8.692 -0.8150 -0.5057 -0.1312
 4018TIP3    H233690   5.317   5.157   8.823 -0.4770 -0.8462 -0.3409
 4019TIP3   OH233691   5.948   4.173   7.092 -0.3813 -0.5325 -0.1134
 4019TIP3    H133692   6.021   4.215   7.046  0.2721 -0.8564  0.5931
 4019TIP3    H233693   5.870   4.220   7.062  0.0814 -0.3985 -1.1346
 4020TIP3   OH233694   6.756   2.925   8.323 -0.2934  0.1293 -0.2488
 4020TIP3    H133695   6.769   3.004   8.271 -0.4141  0.9259  0.8926
 4020TIP3    H233696   6.677   2.885   8.286  0.1342  0.1757 -1.2528
 4021TIP3   OH233697   0.033   1.768   0.152  0.2949 -0.4545 -0.2323
 4021TIP3    H133698   0.052   1.679   0.183  1.8215 -0.3175 -0.7035
 4021TIP3    H233699  -0.011   1.810   0.226 -0.0699 -1.4784  0.1422
 4022TIP3   OH233700   1.071   2.270   7.523 -0.3555 -0.1978 -0.1936
 4022TIP3    H133701   1.098   2.277   7.615 -0.1481 -0.0375 -0.2656
 4022TIP3    H233702   1.147   2.234   7.478 -0.5243 -0.4649 -0.2728
 4023TIP3   OH233703   0.684   0.151   6.387  0.3017  0.2035 -0.3940
 4023TIP3    H133704   0.705   0.244   6.383 -0.9184  0.5448  0.5253
 4023TIP3    H233705   0.598   0.144   6.346 -0.6225 -0.1409  1.4839
 4024TIP3   OH233706   3.217   4.430   7.265  0.7652  0.0870  0.3648
 4024TIP3    H133707   3.292   4.490   7.260 -0.2446  1.2675 -1.5311
 4024TIP3    H233708   3.247   4.351   7.219  0.5404  0.9631 -1.3770
 4025TIP3   OH233709   1.048   1.898   8.693  0.0179 -0.2737 -0.2665
 4025TIP3    H133710   1.081   1.956   8.624 -0.4994  0.2355 -0.0990
 4025TIP3    H233711   0.985   1.952   8.741 -0.3948 -0.9442 -0.0403
 4026TIP3   OH233712   1.239   6.610   0.950 -0.1889 -0.1627  0.1397
 4026TIP3    H133713   1.206   6.693   0.985  0.6588 -0.1649  1.0042
 4026TIP3    H233714   1.334   6.619   0.956 -0.0289 -0.3644 -1.7580
 4027TIP3   OH233715   5.787   6.352   8.583 -0.2967 -0.3227 -0.0401
 4027TIP3    H133716   5.753   6.308   8.505  1.0545 -2.0216  0.2853
 4027TIP3    H233717   5.801   6.282   8.647 -2.3684  1.1043  2.1973
 4028TIP3   OH233718   6.463   2.817   2.140 -0.4881  0.0393 -0.4382
 4028TIP3    H133719   6.492   2.751   2.077  0.2101 -0.1306  0.0416
 4028TIP3    H233720   6.372   2.836   2.115 -0.5470 -0.7579 -0.8755
 4029TIP3   OH233721   0.416   6.189   7.765 -0.3541  0.3389 -0.0777
 4029TIP3    H133722   0.396   6.107   7.811  0.6977  0.1217  0.0047
 4029TIP3    H233723   0.459   6.244   7.831 -1.1683  1.0175 -0.0959
 4030TIP3   OH233724   5.944   5.509   1.765  0.3249  0.2810  0.1657
 4030TIP3    H133725   5.957   5.537   1.855  0.7130  0.2460  0.1208
 4030TIP3    H233726   5.953   5.588   1.712 -1.8400  0.6739  0.3113
 4031TIP3   OH233727   6.065   3.988   1.309 -0.5202 -0.3141 -0.4353
 4031TIP3    H133728   6.025   4.019   1.228  2.4971  1.6073 -1.4021
 4031TIP3    H233729   6.082   3.895   1.294 -0.4161 -0.0881 -1.8572
 4032TIP3   OH233730   4.858   5.599   0.355  0.0935  0.1879  0.0152
 4032TIP3    H133731   4.946   5.622   0.384 -0.2365 -0.2017  1.4438
 4032TIP3    H233732   4.812   5.577   0.436 -0.8990 -1.0272 -0.8388
 4033TIP3   OH233733   5.743   1.811   7.244  1.0026 -0.8084  0.2723
 4033TIP3    H133734   5.663   1.774   7.282  0.7211  0.1377  0.6347
 4033TIP3    H233735   5.717   1.840   7.157  1.1348 -1.1349  0.1220
 4034TIP3   OH233736   6.311   4.100   7.129 -0.2568 -0.3421  0.0019
 4034TIP3    H133737   6.399   4.101   7.092 -0.2646 -1.5175 -0.0825
 4034TIP3    H233738   6.256   4.145   7.064  0.3342  0.8136  0.2643
 4035TIP3   OH233739   4.087   3.885   1.079  0.3071  0.5640 -0.0377
 4035TIP3    H133740   4.019   3.951   1.097  0.9523  1.0640  0.6215
 4035TIP3    H233741   4.044   3.801   1.098  0.6712  0.9732  3.3672
 4036TIP3   OH233742   2.189   4.231   2.246  0.3118  0.2005  0.0822
 4036TIP3    H133743   2.157   4.186   2.324  0.7157 -0.5002 -0.1439
 4036TIP3    H233744   2.244   4.166   2.202  0.5253  0.7658 -0.5029
 4037TIP3   OH233745   6.128   1.566   7.860 -0.6030 -0.2326  0.7325
 4037TIP3    H133746   6.165   1.501   7.919 -2.6132 -1.0688  1.1500
 4037TIP3    H233747   6.092   1.633   7.918 -1.2927 -0.3283  0.4294
 4038TIP3   OH233748   4.736   5.268   1.005 -0.1059  0.0828 -0.4920
 4038TIP3    H133749   4.812   5.222   1.042 -1.5179 -1.6628  0.4359
 4038TIP3    H233750   4.696   5.313   1.079 -0.6078  0.0240 -0.7170
 4039TIP3   OH233751   5.156   6.551   0.699  0.0259 -0.0592 -0.6227
 4039TIP3    H133752   5.122   6.581   0.783  1.0225 -1.6773  0.4188
 4039TIP3    H233753   5.237   6.601   0.687  0.0089 -0.0043 -0.5118
 4040TIP3   OH233754   6.190   2.958   0.349 -0.2903 -0.6073  0.0134
 4040TIP3    H133755   6.128   2.962   0.421 -2.2219 -0.5258 -1.5765
 4040TIP3    H233756   6.138   2.930   0.274  1.6432 -0.6979 -1.3676
 4041TIP3   OH233757   0.840   4.578   8.544  0.2194  0.0264  0.3383
 4041TIP3    H133758   0.840   4.561   8.638  0.3913 -0.6160  0.2260
 4041TIP3    H233759   0.817   4.671   8.536  0.0665  0.0460  1.0042
 4042TIP3   OH233760   2.798   2.415   7.537 -0.5325 -0.6438 -0.0563
 4042TIP3    H133761   2.887   2.427   7.570 -0.3401  1.0139 -1.0752
 4042TIP3    H233762   2.742   2.427   7.614  0.0786 -0.8190  0.4206
 4043TIP3   OH233763   3.641   2.516   7.042  0.4594  0.4411  0.0985
 4043TIP3    H133764   3.697   2.523   7.119  1.0925  0.4271 -0.3549
 4043TIP3    H233765   3.690   2.560   6.972  0.8075 -1.2595 -0.7834
 4044TIP3   OH233766   4.244   0.838   1.217  0.8869 -0.2157  0.1522
 4044TIP3    H133767   4.298   0.832   1.296  2.0736 -0.6565 -0.6640
 4044TIP3    H233768   4.189   0.760   1.220  1.6962 -0.8024  0.0059
 4045TIP3   OH233769   0.734   6.352   8.613 -0.2114  0.0946  0.0118
 4045TIP3    H133770   0.716   6.446   8.614 -1.5859 -0.1454  0.6677
 4045TIP3    H233771   0.648   6.311   8.603  0.4744 -1.0857 -1.4857
 4046TIP3   OH233772   6.695   6.493   0.657 -0.4894 -0.0475 -0.6280
 4046TIP3    H133773   6.717   6.407   0.692  0.4152 -0.1711 -1.4589
 4046TIP3    H233774   6.600   6.499   0.666 -0.4705 -0.7959  0.1822
 4047TIP3   OH233775   5.535   5.082   2.474  0.1731 -0.3523  0.0996
 4047TIP3    H133776   5.524   5.002   2.526  0.0032  0.0891  0.7556
 4047TIP3    H233777   5.629   5.086   2.458  0.5017  0.4279  1.9155
 4048TIP3   OH233778   2.412   1.167   0.923 -0.0068 -0.7620  0.1050
 4048TIP3    H133779   2.333   1.221   0.919 -0.6931 -1.0274  4.8814
 4048TIP3    H233780   2.383   1.079   0.898 -0.8363 -0.5497  0.3210
 4049TIP3   OH233781   5.758   2.165   6.148  0.2398  0.3063  0.3372
 4049TIP3    H133782   5.695   2.098   6.176 -1.3341  1.6977  0.2811
 4049TIP3    H233783   5.761   2.227   6.220  0.3889  1.0377 -0.2861
 4050TIP3   OH233784   3.324   4.285   2.107 -0.2651 -0.5497  0.0469
 4050TIP3    H133785   3.264   4.244   2.045 -0.0556 -0.0695 -0.4858
 4050TIP3    H233786   3.274   4.357   2.145 -0.1044 -0.2903 -0.2289
 4051TIP3   OH233787   3.317   1.519   7.690  0.7102  0.0288 -0.4033
 4051TIP3    H133788   3.221   1.523   7.692  0.5258 -2.2670 -1.3626
 4051TIP3    H233789   3.337   1.460   7.618  2.8634  0.2812 -0.0741
 4052TIP3   OH233790   1.522   3.446   7.243  0.1041 -0.4189  0.0812
 4052TIP3    H133791   1.469   3.370   7.220  0.7374 -0.9549  0.3822
 4052TIP3    H233792   1.468   3.521   7.218 -0.0025 -0.9574 -1.4316
 4053TIP3   OH233793   1.309   5.154   7.370  0.3579 -0.2170  1.0411
 4053TIP3    H133794   1.242   5.205   7.416  0.2125 -0.3807  1.0077
 4053TIP3    H233795   1.310   5.070   7.414  0.4558 -0.2582  0.9607
 4054TIP3   OH233796   3.029   3.259   1.992  0.5784 -0.2106 -0.2135
 4054TIP3    H133797   2.986   3.294   2.070  1.7154  0.7635 -0.0064
 4054TIP3    H233798   3.052   3.169   2.017 -2.1453 -1.1258 -0.6718
 4055TIP3   OH233799   4.354   0.120   7.810 -0.2113 -0.4799 -0.1520
 4055TIP3    H133800   4.308   0.133   7.892 -0.0097 -0.4483 -0.0426
 4055TIP3    H233801   4.289   0.083   7.750 -0.3803 -0.4172 -0.0045
 4056TIP3   OH233802   1.698   3.140   7.914 -0.3768 -0.0203  0.5441
 4056TIP3    H133803   1.729   3.201   7.980  1.4464  0.6902 -0.9147
 4056TIP3    H233804   1.746   3.059   7.932  2.6465  1.0927 -1.7441
 4057TIP3   OH233805   5.902   4.968   0.484  0.1415 -0.3526 -0.1265
 4057TIP3    H133806   5.959   5.029   0.438  0.2594  0.3581  0.9436
 4057TIP3    H233807   5.910   4.991   0.576 -0.7090 -1.2290  0.1891
 4058TIP3   OH233808   2.077   1.058   7.402 -0.1450 -0.1978 -0.1713
 4058TIP3    H133809   2.108   1.050   7.492  1.2204  0.0729 -0.5953
 4058TIP3    H233810   2.052   0.969   7.377  0.1591 -0.4016  0.2382
 4059TIP3   OH233811   5.875   4.764   0.322  0.2049  0.0099 -0.1328
 4059TIP3    H133812   5.860   4.701   0.393 -0.8894  1.3370  0.8538
 4059TIP3    H233813   5.891   4.847   0.366  0.1349  0.7435 -1.4421
 4060TIP3   OH233814   4.942   6.823   2.024 -0.2663  0.0454 -0.9625
 4060TIP3    H133815   5.006   6.858   1.962  0.0749 -0.7770 -1.0906
 4060TIP3    H233816   4.964   6.730   2.031 -1.1983 -0.1687 -0.7077
 4061TIP3   OH233817   3.020   6.079   8.303 -0.4472 -0.0047  0.0102
 4061TIP3    H133818   3.042   6.019   8.374  2.1942  1.7384  0.8105
 4061TIP3    H233819   3.024   6.025   8.223  0.9012 -1.1298  0.7880
 4062TIP3   OH233820   5.081   4.521   6.835  0.1147 -0.3540 -0.0564
 4062TIP3    H133821   5.142   4.549   6.903  1.0677 -1.8970 -0.2050
 4062TIP3    H233822   5.109   4.569   6.757 -1.6942  2.2764  0.8156
 4063TIP3   OH233823   2.108   1.976   2.264  0.2269  0.2142 -0.4006
 4063TIP3    H133824   2.149   1.981   2.178 -0.5075 -2.2740 -0.9570
 4063TIP3    H233825   2.181   1.960   2.324  0.6422  1.0956 -0.6549
 4064TIP3   OH233826   3.340   5.088   7.059  0.5604 -0.0012 -0.3613
 4064TIP3    H133827   3.250   5.058   7.043  0.4243 -0.3663  0.9703
 4064TIP3    H233828   3.393   5.008   7.057  0.5961 -0.0108  0.5098
 4065TIP3   OH233829   6.103   3.264   7.816  1.2374 -0.0161 -0.6523
 4065TIP3    H133830   6.153   3.317   7.754 -0.3037  0.6733 -1.3564
 4065TIP3    H233831   6.066   3.193   7.763 -0.3254  0.7381 -0.6547
 4066TIP3   OH233832   2.399   6.795   6.833  0.6064 -0.1090 -0.9191
 4066TIP3    H133833   2.331   6.731   6.852  1.0218 -0.1520  0.5851
 4066TIP3    H233834   2.353   6.868   6.790 -0.2151 -0.5312 -0.7754
 4067TIP3   OH233835   6.316   4.163   2.305  0.0542 -0.7518 -0.0262
 4067TIP3    H133836   6.275   4.222   2.369  0.1490 -0.7031 -0.0100
 4067TIP3    H233837   6.384   4.216   2.264 -1.6263  0.0667 -1.9840
 4068TIP3   OH233838   1.482   2.755   6.510  0.1442  0.0368  0.3969
 4068TIP3    H133839   1.534   2.819   6.560  0.3464 -0.5254  0.9199
 4068TIP3    H233840   1.547   2.695   6.474 -0.0871 -0.1907  0.3623
 4069TIP3   OH233841   4.814   3.729   6.147 -0.6915 -0.2233 -0.2266
 4069TIP3    H133842   4.737   3.783   6.160 -0.0319  0.2205  2.4381
 4069TIP3    H233843   4.803   3.656   6.208  1.1877  0.1267  0.6076
 4070TIP3   OH233844   0.195   6.541   0.101  0.2212 -0.3231  0.9068
 4070TIP3    H133845   0.127   6.494   0.150 -0.3230 -0.2890  0.1988
 4070TIP3    H233846   0.174   6.634   0.114 -0.8030 -0.3124 -0.5486
 4071TIP3   OH233847   4.301   0.478   2.484  0.7326  0.7600  0.5187
 4071TIP3    H133848   4.378   0.459   2.431  0.6248  1.7805 -0.0253
 4071TIP3    H233849   4.228   0.474   2.423  0.4932  0.9830  0.7889
 4072TIP3   OH233850   1.161   1.985   1.191  0.8512  0.8930  0.1323
 4072TIP3    H133851   1.141   2.078   1.183  0.3127  0.7952  0.2475
 4072TIP3    H233852   1.256   1.980   1.186  0.8349  1.3297 -1.0389
 4073TIP3   OH233853   0.964   1.586   2.645  0.6149 -0.0317  0.0588
 4073TIP3    H133854   1.050   1.599   2.684  1.4382 -0.5415 -1.4959
 4073TIP3    H233855   0.964   1.643   2.567 -0.9346  0.8940  0.6881
 4074TIP3   OH233856   0.656   2.365   2.672 -0.5171  0.5787  0.5229
 4074TIP3    H133857   0.741   2.344   2.711 -0.6244  1.1368  1.0668
 4074TIP3    H233858   0.644   2.299   2.603 -0.2971 -0.3901  1.3856
 4075TIP3   OH233859   3.518   1.702   7.671 -0.4038  0.0043 -0.3969
 4075TIP3    H133860   3.572   1.641   7.621  1.2136  1.7653 -0.9335
 4075TIP3    H233861   3.444   1.650   7.702  1.4706 -2.4796  0.1770
 4076TIP3   OH233862   5.018   1.961   1.543  0.6006 -0.2745 -0.0525
 4076TIP3    H133863   5.047   2.052   1.536 -1.0784  0.3135  0.1913
 4076TIP3    H233864   4.978   1.955   1.630  2.0230 -1.6745  0.5433
 4077TIP3   OH233865   5.602   0.214   6.339  0.1727 -0.5046  0.2412
 4077TIP3    H133866   5.532   0.226   6.275  1.9412  2.2701 -1.3643
 4077TIP3    H233867   5.666   0.157   6.296 -0.1178 -1.3806  0.9203
 4078TIP3   OH233868   3.710   0.203   1.633 -0.2088 -0.1841 -0.0325
 4078TIP3    H133869   3.767   0.278   1.614 -0.2173  0.3714  1.9818
 4078TIP3    H233870   3.734   0.176   1.721 -0.8042 -2.0477 -0.3987
 4079TIP3   OH233871   1.595   5.635   0.616  0.6037  0.1986 -0.1382
 4079TIP3    H133872   1.508   5.617   0.583  1.6214 -1.5806 -2.0892
 4079TIP3    H233873   1.633   5.696   0.553  0.8091  0.9203  0.6662
 4080TIP3   OH233874   5.194   2.740   6.848  0.5539 -0.6855 -0.1215
 4080TIP3    H133875   5.192   2.831   6.880  0.6500 -1.6697  2.9909
 4080TIP3    H233876   5.102   2.720   6.830  0.6014  0.2016 -1.4734
 4081TIP3   OH233877   6.289   6.098   0.792  0.7134  0.0616  0.4312
 4081TIP3    H133878   6.306   6.175   0.846  1.1101  0.0777  0.2905
 4081TIP3    H233879   6.289   6.025   0.855  2.2369 -0.0528  0.3423
 4082TIP3   OH233880   6.148   5.973   1.657 -0.2441  0.1382 -0.2385
 4082TIP3    H133881   6.225   6.013   1.697 -1.5108  2.1701  0.3473
 4082TIP3    H233882   6.128   6.030   1.582 -1.7054  0.2519  0.2013
 4083TIP3   OH233883   4.772   4.337   7.833 -0.0795  0.0106 -0.2982
 4083TIP3    H133884   4.863   4.354   7.806 -0.8044  3.0080 -1.2124
 4083TIP3    H233885   4.720   4.367   7.759 -1.8874 -2.4938 -0.1717
 4084TIP3   OH233886   1.820   2.834   8.396  0.0493 -0.1904  0.6302
 4084TIP3    H133887   1.737   2.863   8.433 -1.2180 -0.0030 -2.1335
 4084TIP3    H233888   1.810   2.740   8.384 -0.5167  0.0538 -1.2358
 4085TIP3   OH233889   1.073   1.095   1.860 -0.4710 -0.4203  0.2435
 4085TIP3    H133890   1.080   1.043   1.780 -1.9194 -0.8505  0.3823
 4085TIP3    H233891   1.160   1.087   1.901  0.7331  0.8452 -1.8786
 4086TIP3   OH233892   4.973   1.513   7.449 -0.3578  0.1969 -0.0067
 4086TIP3    H133893   5.027   1.568   7.506 -0.8887  0.7627 -0.0451
 4086TIP3    H233894   5.023   1.431   7.441 -0.5818 -0.1811  1.8339
 4087TIP3   OH233895   6.134   1.417   0.268 -0.3405 -0.1067  0.0050
 4087TIP3    H133896   6.107   1.402   0.359 -1.2192 -0.6261 -0.3300
 4087TIP3    H233897   6.219   1.374   0.261 -0.3194 -0.1656  0.5499
 4088TIP3   OH233898   3.359   1.967   1.102 -0.4517 -0.0369 -0.2143
 4088TIP3    H133899   3.446   2.003   1.082  0.8361 -1.4923  2.2793
 4088TIP3    H233900   3.358   1.882   1.059 -0.2273 -0.4451  0.5797
 4089TIP3   OH233901   2.932   3.023   1.199 -0.4786  0.1824  0.4647
 4089TIP3    H133902   2.916   3.002   1.107 -2.2420 -2.3639  1.2356
 4089TIP3    H233903   2.853   3.070   1.226  0.4840  1.8567  0.4793
 4090TIP3   OH233904   0.709   0.746   8.345 -0.2748  0.0641 -0.3989
 4090TIP3    H133905   0.747   0.818   8.396 -2.0836  0.2409  0.7968
 4090TIP3    H233906   0.692   0.678   8.411 -0.4876 -0.6509 -1.1830
 4091TIP3   OH233907   6.101   1.662   7.490 -0.0420  0.3445 -0.7567
 4091TIP3    H133908   6.058   1.725   7.432 -2.2639  0.6161  1.0176
 4091TIP3    H233909   6.123   1.712   7.568  0.6377 -0.5096 -0.3810
 4092TIP3   OH233910   2.139   1.759   8.757  0.3254  0.4148  0.2375
 4092TIP3    H133911   2.083   1.683   8.743  0.5542  0.6573 -2.4694
 4092TIP3    H233912   2.079   1.832   8.773  0.1105 -0.4365  4.4990
 4093TIP3   OH233913   4.176   6.794   0.714 -0.2509  0.7146 -0.0649
 4093TIP3    H133914   4.259   6.761   0.748  0.1212  0.8944 -0.7732
 4093TIP3    H233915   4.196   6.823   0.625 -0.9974  1.0820 -0.1257
 4094TIP3   OH233916   6.225   2.670   6.537 -0.1899 -0.5288  0.1719
 4094TIP3    H133917   6.308   2.706   6.505 -0.5066 -0.6524 -0.8080
 4094TIP3    H233918   6.237   2.575   6.532 -0.2740 -0.5491  0.3516
 4095TIP3   OH233919   6.147   4.194   7.852 -0.2394 -0.1738  0.2223
 4095TIP3    H133920   6.199   4.187   7.772  1.9422 -0.7175  1.6036
 4095TIP3    H233921   6.114   4.105   7.866 -0.0056 -0.2497  0.3037
 4096TIP3   OH233922   4.933   6.627   8.253  0.0269  0.0812 -0.0835
 4096TIP3    H133923   4.894   6.592   8.174 -2.3330  0.0048  1.0217
 4096TIP3    H233924   4.859   6.638   8.314  1.8485 -0.8782  2.4878
 4097TIP3   OH233925   2.822   5.027   8.148  0.2919 -0.4157  0.1579
 4097TIP3    H133926   2.846   4.934   8.152 -0.9602 -0.8659 -1.4387
 4097TIP3    H233927   2.727   5.026   8.136  0.2693  1.0780  0.0885
 4098TIP3   OH233928   2.428   5.424   6.694 -0.3173  0.5231  0.0172
 4098TIP3    H133929   2.398   5.428   6.785  0.9632 -1.0360  0.5369
 4098TIP3    H233930   2.481   5.345   6.689 -1.2522 -0.0502 -2.3792
 4099TIP3   OH233931   4.653   3.454   6.833 -1.1541  0.2115  0.1297
 4099TIP3    H133932   4.580   3.497   6.789  1.2750  2.8478 -1.6851
 4099TIP3    H233933   4.701   3.526   6.874  1.7043 -1.0386 -0.8319
 4100TIP3   OH233934   6.476   2.210   8.119 -0.7814 -0.6853  0.0780
 4100TIP3    H133935   6.556   2.259   8.099 -0.7361 -0.9194 -0.3077
 4100TIP3    H233936   6.407   2.260   8.075 -0.8949 -0.3211  0.6472
 4101TIP3   OH233937   1.907   6.838   8.764  0.3214  0.7597 -0.1128
 4101TIP3    H133938   1.900   6.934   8.768  0.4206  0.8414 -1.5233
 4101TIP3    H233939   1.829   6.807   8.811  0.1856  1.5277  0.1920
 4102TIP3   OH233940   4.074   4.962   0.077 -0.0682  0.1144 -0.1149
 4102TIP3    H133941   4.121   4.933  -0.002 -1.9532 -0.8564 -0.9315
 4102TIP3    H233942   4.098   4.898   0.144 -2.2026 -1.9852 -1.2319
 4103TIP3   OH233943   0.535   4.747   8.269 -0.2167 -0.0612 -0.3677
 4103TIP3    H133944   0.590   4.710   8.200 -0.1607 -0.8568  0.0873
 4103TIP3    H233945   0.479   4.810   8.224  0.2013 -0.1657 -1.0458
 4104TIP3   OH233946   0.315   2.610   2.000 -0.0648 -0.7949 -0.2780
 4104TIP3    H133947   0.357   2.695   1.984 -0.0113 -0.7593  0.0575
 4104TIP3    H233948   0.369   2.547   1.952 -0.5499 -0.5445 -1.1812
 4105TIP3   OH233949   3.094   2.687   8.642 -0.0748  0.0842 -0.8520
 4105TIP3    H133950   3.009   2.705   8.683  0.2789  0.1481 -0.1356
 4105TIP3    H233951   3.146   2.647   8.711  0.3085 -0.4577 -1.4426
 4106TIP3   OH233952   2.331   1.743   0.166  0.2524  0.1611  0.0229
 4106TIP3    H133953   2.290   1.753   0.080 -1.1895 -0.5472  0.5894
 4106TIP3    H233954   2.411   1.694   0.149 -0.6983 -1.1724 -0.7756
 4107TIP3   OH233955   1.526   6.168   0.211  0.3038 -0.6231 -0.1485
 4107TIP3    H133956   1.499   6.083   0.174  0.0776 -1.2144  1.3104
 4107TIP3    H233957   1.449   6.224   0.201 -0.4564 -1.3872  1.2277
 4108TIP3   OH233958   0.629   2.149   7.250  0.2625 -0.2494 -0.3188
 4108TIP3    H133959   0.708   2.197   7.277  0.9197 -1.3341 -0.2577
 4108TIP3    H233960   0.661   2.086   7.186 -0.9914  1.0841 -2.3493
 4109TIP3   OH233961   1.373   2.480   7.355  0.6096  0.5052  0.3110
 4109TIP3    H133962   1.381   2.537   7.279  0.2592  0.8822  0.5489
 4109TIP3    H233963   1.304   2.521   7.408 -0.1319 -0.5188  0.1569
 4110TIP3   OH233964   6.802   0.484   7.361  0.2154  0.3763  0.3876
 4110TIP3    H133965   6.847   0.472   7.277 -1.9575 -0.2870 -0.7495
 4110TIP3    H233966   6.794   0.579   7.369 -0.0007  0.4412 -0.4312
 4111TIP3   OH233967   2.195   2.664   6.798  0.3219 -0.4477 -0.0498
 4111TIP3    H133968   2.264   2.705   6.746 -0.1049 -0.3875 -0.5759
 4111TIP3    H233969   2.236   2.647   6.883  1.1651 -0.9795 -0.5559
 4112TIP3   OH233970   1.440   1.742   1.650  0.0868  0.1066  0.0249
 4112TIP3    H133971   1.524   1.788   1.659  0.2477 -0.1991  0.1268
 4112TIP3    H233972   1.393   1.791   1.583  0.3545  0.2744 -0.0436
 4113TIP3   OH233973   1.434   0.903   1.773  0.2695  0.2154  0.3650
 4113TIP3    H133974   1.425   0.833   1.838 -0.0212  0.2145  0.3244
 4113TIP3    H233975   1.348   0.945   1.771  0.1682 -0.0087 -0.2680
 4114TIP3   OH233976   2.504   0.500   8.344 -0.3827  0.2702 -0.4307
 4114TIP3    H133977   2.442   0.453   8.289 -1.2356  0.4015  0.3976
 4114TIP3    H233978   2.486   0.469   8.432  0.1452  0.9559 -0.0747
 4115TIP3   OH233979   3.593   5.037   8.456  0.4089 -0.2116  0.0100
 4115TIP3    H133980   3.676   5.040   8.504  1.4223  1.6580 -1.7110
 4115TIP3    H233981   3.604   4.965   8.393  0.5708 -0.2221  0.0508
 4116TIP3   OH233982   1.830   6.169   7.628 -0.0523 -0.0487 -0.4070
 4116TIP3    H133983   1.913   6.195   7.589  1.5840  1.2356  3.4296
 4116TIP3    H233984   1.773   6.246   7.618  0.3450  0.2602 -0.2970
 4117TIP3   OH233985   3.588   2.513   0.724  0.2917  0.1484 -0.0067
 4117TIP3    H133986   3.601   2.418   0.735  0.7109  0.1978 -0.0590
 4117TIP3    H233987   3.597   2.527   0.630  0.9359  0.3383  0.0762
 4118TIP3   OH233988   5.478   2.388   0.951  0.0454  0.1405  0.3798
 4118TIP3    H133989   5.422   2.329   1.000  0.1478  0.4468  0.8704
 4118TIP3    H233990   5.544   2.416   1.014  0.6297 -0.0532 -0.1333
 4119TIP3   OH233991   2.802   4.037   0.958 -0.3858 -0.1520  0.2926
 4119TIP3    H133992   2.723   4.063   1.005 -0.5816 -1.0601  0.4903
 4119TIP3    H233993   2.842   3.970   1.014 -1.4828 -2.4795 -1.5235
 4120TIP3   OH233994   0.301   4.761   0.931  0.1450 -0.2098  0.1608
 4120TIP3    H133995   0.336   4.689   0.984 -1.3683 -0.8119  0.3899
 4120TIP3    H233996   0.340   4.839   0.969  0.6156 -0.7911  0.9153
 4121TIP3   OH233997   6.385   0.240   2.185  0.5629 -0.4244  0.1651
 4121TIP3    H133998   6.475   0.273   2.186  0.1985  0.6231  1.7218
 4121TIP3    H233999   6.337   0.302   2.131  0.0549  1.2489  2.3964
 4122TIP3   OH234000   4.241   2.655   0.740 -0.1605  0.3247 -0.1903
 4122TIP3    H134001   4.261   2.709   0.816 -0.9319 -0.0255  0.2857
 4122TIP3    H234002   4.317   2.598   0.730 -0.7026 -0.7683  1.3653
 4123TIP3   OH234003   5.095   2.227   1.633 -0.0673 -0.4062 -0.2713
 4123TIP3    H134004   5.188   2.224   1.610 -0.1283 -2.0126 -0.4108
 4123TIP3    H234005   5.092   2.273   1.717  1.1193 -2.0907  0.7696
 4124TIP3   OH234006   6.340   0.114   0.834 -0.4584  0.1429 -0.0362
 4124TIP3    H134007   6.390   0.107   0.916 -2.4283 -3.1980  1.0634
 4124TIP3    H234008   6.265   0.169   0.857  0.3293  1.4610 -0.4597
 4125TIP3   OH234009   1.454   5.900   7.992  0.0028  0.0391 -0.3649
 4125TIP3    H134010   1.538   5.924   8.030 -0.4431 -0.1859  0.8121
 4125TIP3    H234011   1.423   5.827   8.046 -0.7783 -0.1175 -1.0030
 4126TIP3   OH234012   5.453   0.117   0.507  0.2323 -0.0055  0.1781
 4126TIP3    H134013   5.396   0.055   0.553 -0.5564  1.5749  1.4576
 4126TIP3    H234014   5.443   0.199   0.556  0.2994  1.4695 -2.0979
 4127TIP3   OH234015   3.076   5.953   7.794 -0.3195  0.3400  0.1135
 4127TIP3    H134016   3.047   5.872   7.752 -1.2791  1.0130 -0.5676
 4127TIP3    H234017   3.102   6.010   7.721 -0.7172  1.0471  0.5117
 4128TIP3   OH234018   6.134   1.971   1.222  0.5668  0.2108 -0.2933
 4128TIP3    H134019   6.228   1.960   1.236  0.5343 -0.1346 -0.3477
 4128TIP3    H234020   6.123   1.959   1.128  0.3715 -0.4628 -0.1891
 4129TIP3   OH234021   5.456   5.521   2.309 -0.6613  0.3699  0.0437
 4129TIP3    H134022   5.472   5.597   2.364 -1.7892 -0.1314  1.0962
 4129TIP3    H234023   5.383   5.476   2.350 -0.4383 -0.9418 -0.9219
 4130TIP3   OH234024   2.826   6.665   0.667 -0.1796 -0.6940 -0.0772
 4130TIP3    H134025   2.854   6.757   0.661  3.3558 -1.6570 -0.6591
 4130TIP3    H234026   2.778   6.649   0.586 -0.9904  0.6414  0.1043
 4131TIP3   OH234027   4.933   0.789   8.323 -0.3909 -0.4102 -0.2793
 4131TIP3    H134028   4.883   0.837   8.390  1.3979 -0.8381  1.4701
 4131TIP3    H234029   5.003   0.849   8.297 -0.0693 -0.8712 -0.4964
 4132TIP3   OH234030   1.607   4.961   1.515 -0.0132 -0.2343 -0.3648
 4132TIP3    H134031   1.573   4.955   1.604  1.1452  0.6752  0.1809
 4132TIP3    H234032   1.565   5.039   1.478 -0.1798 -0.3730 -0.4682
 4133TIP3   OH234033   0.781   6.597   8.462  0.0698 -0.1686  0.0591
 4133TIP3    H134034   0.797   6.668   8.525  2.7982 -0.3103 -0.3285
 4133TIP3    H234035   0.847   6.531   8.484 -2.2896 -2.6197  0.3207
 4134TIP3   OH234036   6.721   0.895   8.052 -0.0778  0.7637  0.5466
 4134TIP3    H134037   6.805   0.879   8.096 -0.0059  0.3574  0.2623
 4134TIP3    H234038   6.745   0.922   7.964 -0.2636 -1.3180 -0.1923
 4135TIP3   OH234039   6.596   3.918   1.992  0.2513  0.3801 -0.3133
 4135TIP3    H134040   6.614   3.859   2.065  3.4101 -0.9051 -1.9276
 4135TIP3    H234041   6.654   3.993   2.007  1.8954 -0.4617 -1.9877
 4136TIP3   OH234042   6.026   3.417   7.108 -0.1239 -0.0763  0.4079
 4136TIP3    H134043   6.078   3.497   7.123  1.0006 -0.6639 -0.2242
 4136TIP3    H234044   6.087   3.357   7.064 -1.5077 -0.5979 -0.8628
 4137TIP3   OH234045   1.443   0.245   6.977 -0.6861 -0.1481 -0.0212
 4137TIP3    H134046   1.476   0.324   6.935 -1.4636  0.0146 -0.3491
 4137TIP3    H234047   1.513   0.218   7.036  1.0938 -1.1991 -2.4312
 4138TIP3   OH234048   5.282   2.074   0.754  0.0073  0.3644 -0.2571
 4138TIP3    H134049   5.192   2.107   0.755  0.3652  1.4354  1.5784
 4138TIP3    H234050   5.320   2.105   0.837  2.0932 -0.0085 -1.0098
 4139TIP3   OH234051   3.124   3.315   8.760 -0.4662 -0.1376 -0.2201
 4139TIP3    H134052   3.188   3.295   8.691 -0.0114 -1.3545  0.5218
 4139TIP3    H234053   3.144   3.253   8.830 -2.9981 -1.1277 -0.2808
 4140TIP3   OH234054   2.543   0.364   7.430 -0.1914  0.4217  0.3900
 4140TIP3    H134055   2.602   0.328   7.496  0.4029 -0.3536 -0.5409
 4140TIP3    H234056   2.593   0.434   7.389 -0.7250  1.2016  1.0510
 4141TIP3   OH234057   4.516   1.733   7.208  1.1623  0.4197 -0.7094
 4141TIP3    H134058   4.515   1.675   7.285  0.4605  2.1320  0.6420
 4141TIP3    H234059   4.487   1.677   7.136  0.2219 -0.8557  0.5794
 4142TIP3   OH234060   5.741   0.595   1.412 -0.3322 -0.3650  0.2962
 4142TIP3    H134061   5.834   0.613   1.397 -0.5780  0.5454 -0.2304
 4142TIP3    H234062   5.737   0.501   1.430  0.6256 -0.5058 -0.1772
 4143TIP3   OH234063   3.077   1.589   8.322  0.2304  0.2832  0.4669
 4143TIP3    H134064   3.164   1.551   8.316  0.1621  0.3100 -1.3937
 4143TIP3    H234065   3.082   1.651   8.395  1.3326 -0.7456  1.2957
 4144TIP3   OH234066   3.128   5.674   6.893  0.6881  0.3472  0.2380
 4144TIP3    H134067   3.102   5.610   6.827  0.0135  0.1847  0.6453
 4144TIP3    H234068   3.082   5.754   6.868  1.7409  0.7671 -0.4245
 4145TIP3   OH234069   5.535   2.977   0.044 -0.2860 -0.1732 -0.2398
 4145TIP3    H134070   5.492   3.062   0.039 -0.7227 -0.1343  2.4997
 4145TIP3    H234071   5.464   2.914   0.055  0.1116 -0.6959 -0.5967
 4146TIP3   OH234072   3.824   2.579   8.507  0.3039  0.2258 -0.4341
 4146TIP3    H134073   3.883   2.549   8.576 -0.8182  1.3351  1.0845
 4146TIP3    H234074   3.774   2.501   8.483  0.6075 -0.1523  0.1396
 4147TIP3   OH234075   1.291   1.081   7.375 -0.0664 -0.5107 -0.1286
 4147TIP3    H134076   1.243   1.157   7.344  1.4484  0.2297 -0.7563
 4147TIP3    H234077   1.258   1.067   7.464 -0.7299  0.5516 -0.1889
 4148TIP3   OH234078   6.220   0.868   1.523 -0.2156  0.0850 -0.3488
 4148TIP3    H134079   6.199   0.792   1.576 -0.9957  0.2051 -0.4730
 4148TIP3    H234080   6.299   0.904   1.563  0.4692 -1.0880 -0.6191
 4149TIP3   OH234081   6.823   0.968   7.794 -0.5121 -0.3440 -0.2499
 4149TIP3    H134082   6.893   0.903   7.795 -2.5061 -2.6157  0.1492
 4149TIP3    H234083   6.780   0.958   7.709 -0.4550  0.9480 -0.4601
 4150TIP3   OH234084   1.773   0.165   6.347 -0.1427 -0.3144  0.6121
 4150TIP3    H134085   1.855   0.208   6.370  0.1973  1.5368 -3.2500
 4150TIP3    H234086   1.707   0.235   6.353 -1.6457 -1.7579  3.6561
 4151TIP3   OH234087   5.677   6.781   8.639  0.0896  0.2240 -0.1013
 4151TIP3    H134088   5.721   6.829   8.708  0.5363 -0.4534  0.0972
 4151TIP3    H234089   5.687   6.689   8.663  0.6944 -0.0550 -1.3090
 4152TIP3   OH234090   3.463   4.331   0.208  0.0910  0.0543 -0.2472
 4152TIP3    H134091   3.397   4.371   0.265  0.3484  0.5477 -0.2917
 4152TIP3    H234092   3.429   4.346   0.119  0.7144  1.1535 -0.3203
 4153TIP3   OH234093   4.679   1.715   0.357 -0.5627  0.0131 -0.0245
 4153TIP3    H134094   4.609   1.651   0.370 -0.1936 -0.8811 -2.0366
 4153TIP3    H234095   4.642   1.778   0.295  0.1016  0.0251 -0.4187
 4154TIP3   OH234096   2.943   1.076   1.336  0.0738  0.4908  0.0751
 4154TIP3    H134097   2.902   1.034   1.412  0.4152  0.0548  0.0236
 4154TIP3    H234098   3.003   1.140   1.374 -0.8315  1.3247  0.1480
 4155TIP3   OH234099   1.428   2.304   8.337 -0.4279 -0.5417 -0.3917
 4155TIP3    H134100   1.426   2.242   8.263  1.2001 -0.9726 -0.1079
 4155TIP3    H234101   1.413   2.249   8.414  3.4784 -1.1680  0.1401
 4156TIP3   OH234102   0.658   0.621   8.610  0.1846 -0.2570 -0.1537
 4156TIP3    H134103   0.568   0.601   8.585 -0.1791 -0.1435  1.0069
 4156TIP3    H234104   0.680   0.555   8.676  0.2632  0.8543  0.9818
 4157TIP3   OH234105   1.767   5.499   1.881  0.4105  0.1921  0.3561
 4157TIP3    H134106   1.858   5.469   1.877  0.1229 -0.7605  0.5598
 4157TIP3    H234107   1.742   5.487   1.973  0.6803  2.3587  0.7545
 4158TIP3   OH234108   0.612   6.345   2.301  0.6359 -0.0580 -0.2887
 4158TIP3    H134109   0.706   6.339   2.281  0.3195 -0.1324 -1.9142
 4158TIP3    H234110   0.571   6.367   2.217 -0.8311 -0.2349  0.3502
 4159TIP3   OH234111   2.673   5.456   0.135 -0.0119  0.1365 -1.0291
 4159TIP3    H134112   2.630   5.533   0.173  0.6377  1.6813 -3.1564
 4159TIP3    H234113   2.618   5.382   0.160 -1.2883  1.4307  0.1851
 4160TIP3   OH234114   4.449   3.467   0.438  0.5171  0.2597  0.3453
 4160TIP3    H134115   4.506   3.409   0.388  0.3094  0.8481 -0.5911
 4160TIP3    H234116   4.497   3.482   0.519  1.5805  0.5280 -0.3134
 4161TIP3   OH234117   5.566   3.342   7.598 -0.2414  0.6205 -0.4250
 4161TIP3    H134118   5.618   3.324   7.520 -0.9653 -0.0249 -0.7753
 4161TIP3    H234119   5.478   3.311   7.576  0.0571 -1.9938  1.4835
 4162TIP3   OH234120   6.403   6.614   6.600 -0.4812 -0.2404  0.3862
 4162TIP3    H134121   6.478   6.556   6.613 -1.1919 -1.1981  0.3141
 4162TIP3    H234122   6.342   6.563   6.546 -0.4025  1.2088 -1.1388
 4163TIP3   OH234123   4.023   3.445   7.186 -0.4686  0.0583 -0.1567
 4163TIP3    H134124   3.963   3.466   7.258 -1.8206 -1.1232 -0.9178
 4163TIP3    H234125   4.110   3.461   7.224 -1.1907  1.0292  1.2192
 4164TIP3   OH234126   0.579   3.233   1.390 -0.2071 -0.0393  0.7929
 4164TIP3    H134127   0.669   3.256   1.367 -0.0540 -0.7699  0.6567
 4164TIP3    H234128   0.527   3.266   1.316  0.4099 -3.5185 -1.3943
 4165TIP3   OH234129   2.125   6.216   1.353 -0.5831 -0.3902  0.0016
 4165TIP3    H134130   2.037   6.222   1.390 -0.8945  0.9912 -0.9378
 4165TIP3    H234131   2.143   6.121   1.352 -1.7948 -0.6568  0.7507
 4166TIP3   OH234132   1.738   1.307   8.609 -0.2745  0.0784  0.3552
 4166TIP3    H134133   1.705   1.396   8.611  0.5234  0.4460 -1.4161
 4166TIP3    H234134   1.776   1.296   8.522  0.4367 -1.7049  0.8254
 4167TIP3   OH234135   2.127   5.139   1.359 -0.1277 -0.0390  0.4121
 4167TIP3    H134136   2.108   5.233   1.351  1.8725  0.4499  0.9416
 4167TIP3    H234137   2.129   5.123   1.453 -0.0694 -0.5286  0.3295
 4168TIP3   OH234138   1.196   3.152   7.597  0.3034  0.0579  0.5343
 4168TIP3    H134139   1.275   3.192   7.561 -1.4879  1.6582 -1.9154
 4168TIP3    H234140   1.218   3.059   7.604  2.9415  0.6687  1.6630
 4169TIP3   OH234141   6.603   4.896   1.377 -0.4027 -0.0736 -0.3295
 4169TIP3    H134142   6.651   4.913   1.458  0.8330 -2.0047 -0.5918
 4169TIP3    H234143   6.519   4.940   1.389 -0.5476 -0.9009  2.3251
 4170TIP3   OH234144   0.231   0.420   7.350  0.5877  0.0569  0.0189
 4170TIP3    H134145   0.297   0.417   7.418  0.5343 -0.9315  0.0409
 4170TIP3    H234146   0.191   0.507   7.358  2.7418  1.1827 -0.8337
 4171TIP3   OH234147   4.377   3.800   8.442  0.5372  0.0453 -0.1676
 4171TIP3    H134148   4.286   3.789   8.471  0.6726 -0.9195 -0.0854
 4171TIP3    H234149   4.418   3.850   8.513 -0.2048  1.5639 -0.7581
 4172TIP3   OH234150   0.901   5.598   1.321  0.3946 -0.8107  0.6347
 4172TIP3    H134151   0.939   5.510   1.325  2.3054 -0.0126  1.2589
 4172TIP3    H234152   0.823   5.593   1.376  0.0706 -2.2825  0.0805
 4173TIP3   OH234153   5.580   2.118   7.239  0.1456  0.0628 -0.3445
 4173TIP3    H134154   5.672   2.130   7.260  0.4657 -0.9557 -1.0942
 4173TIP3    H234155   5.533   2.150   7.316  1.1557 -0.3282  0.4529
 4174TIP3   OH234156   5.580   1.392   8.291  0.1776 -0.5526 -0.1039
 4174TIP3    H134157   5.520   1.359   8.224  1.4956 -0.0539 -1.6036
 4174TIP3    H234158   5.572   1.487   8.286  0.7356 -0.4972  0.0195
 4175TIP3   OH234159   3.123   0.565   1.097  0.0513  0.3426 -0.0465
 4175TIP3    H134160   3.158   0.512   1.026  0.6463  0.5694  0.0668
 4175TIP3    H234161   3.196   0.623   1.122 -0.1121  0.1942  0.8095
 4176TIP3   OH234162   4.345   5.345   8.174 -0.0119 -0.4696 -0.0578
 4176TIP3    H134163   4.394   5.358   8.255 -0.8390  1.2508  0.1977
 4176TIP3    H234164   4.343   5.250   8.162  2.5073 -0.6461  0.4400
 4177TIP3   OH234165   1.984   2.210   7.321  0.1849  0.2854  0.1368
 4177TIP3    H134166   2.078   2.220   7.308  0.3586 -1.5247 -0.2419
 4177TIP3    H234167   1.948   2.208   7.232 -0.4619  2.5825  0.2737
 4178TIP3   OH234168   3.771   4.161   1.539 -0.2578 -0.1737  0.1979
 4178TIP3    H134169   3.833   4.130   1.605  0.2666 -0.3653 -0.3716
 4178TIP3    H234170   3.738   4.244   1.574 -0.5679 -0.6475  1.0519
 4179TIP3   OH234171   4.250   1.341   1.098 -0.0912  0.2257  0.3421
 4179TIP3    H134172   4.207   1.259   1.076  0.7614 -0.2647  0.4845
 4179TIP3    H234173   4.187   1.387   1.154 -0.4993 -0.3970  0.3968
 4180TIP3   OH234174   1.002   3.642   8.132  0.0391  0.2501  0.3669
 4180TIP3    H134175   1.073   3.580   8.148 -0.4855  0.1129  2.4675
 4180TIP3    H234176   1.016   3.712   8.196 -0.2276  1.5829 -0.9718
 4181TIP3   OH234177   1.059   6.552   1.769 -0.2279  0.1896 -0.0028
 4181TIP3    H134178   1.099   6.466   1.782  0.1559  0.5159  1.0300
 4181TIP3    H234179   1.098   6.608   1.836 -0.6867  1.1054 -0.4761
 4182TIP3   OH234180   4.399   4.735   7.766  0.3870 -0.7579 -0.6160
 4182TIP3    H134181   4.376   4.785   7.687 -0.1897  0.3762  0.2297
 4182TIP3    H234182   4.326   4.675   7.779  0.7433 -1.3434 -1.2352
 4183TIP3   OH234183   1.142   6.182   6.214  0.9848 -0.8387 -0.0447
 4183TIP3    H134184   1.064   6.222   6.252  0.8074 -0.0670 -1.1972
 4183TIP3    H234185   1.122   6.089   6.210 -0.1558 -0.5643 -0.9642
 4184TIP3   OH234186   1.918   2.315   1.397 -0.0580  0.1964  0.0368
 4184TIP3    H134187   2.007   2.348   1.410 -0.3279  0.6846  0.6701
 4184TIP3    H234188   1.924   2.221   1.418  0.7997 -0.3033 -2.1882
 4185TIP3   OH234189   6.532   5.388   8.386 -0.3425 -0.1280  0.3230
 4185TIP3    H134190   6.596   5.317   8.377  0.5902  0.8314 -1.2563
 4185TIP3    H234191   6.519   5.397   8.481  1.6522 -0.5680  0.6866
 4186TIP3   OH234192   0.827   4.486   1.458  0.0979 -0.6078  0.2462
 4186TIP3    H134193   0.919   4.505   1.439 -0.5866  1.9856 -0.9424
 4186TIP3    H234194   0.811   4.530   1.542 -0.8061  2.0345 -1.1833
 4187TIP3   OH234195   2.739   2.139   6.339 -0.4221  0.1247  0.1633
 4187TIP3    H134196   2.702   2.052   6.356 -1.7763  0.7573  0.6268
 4187TIP3    H234197   2.677   2.179   6.277  1.2502  0.0579 -1.6472
 4188TIP3   OH234198   2.199   4.182   0.750 -0.8298 -0.2760  0.0224
 4188TIP3    H134199   2.163   4.205   0.664 -3.2452 -0.3312  0.9325
 4188TIP3    H234200   2.166   4.094   0.767  0.1403 -0.5097  0.7525
 4189TIP3   OH234201   0.804   1.277   7.639 -0.1293  0.3893  0.2297
 4189TIP3    H134202   0.898   1.294   7.641 -0.3697  1.9690 -0.2523
 4189TIP3    H234203   0.791   1.207   7.702  1.3676  0.1446  0.3026
 4190TIP3   OH234204   3.749   3.227   8.452 -0.3695 -0.1644  0.1235
 4190TIP3    H134205   3.809   3.241   8.379  1.2751  0.9860  1.6074
 4190TIP3    H234206   3.791   3.158   8.504 -0.3448  0.5929  1.1350
 4191TIP3   OH234207   3.333   1.144   1.261 -0.1348  0.2403 -0.3133
 4191TIP3    H134208   3.272   1.218   1.258 -1.8083 -1.0739 -0.1449
 4191TIP3    H234209   3.369   1.147   1.350  1.2515  1.9078 -0.8788
 4192TIP3   OH234210   3.818   1.647   7.166 -0.3941  0.1769 -0.7662
 4192TIP3    H134211   3.770   1.565   7.176  0.2706  0.0536  3.6536
 4192TIP3    H234212   3.754   1.708   7.129 -2.3086 -1.2852 -0.0379
 4193TIP3   OH234213   3.616   5.239   7.765  0.0353  0.5046  0.4718
 4193TIP3    H134214   3.604   5.308   7.831 -0.2465 -0.1899  1.1620
 4193TIP3    H234215   3.607   5.158   7.814 -2.1766 -0.0534 -0.7663
 4194TIP3   OH234216   3.431   2.882   8.520 -0.4792 -0.1937 -1.0812
 4194TIP3    H134217   3.451   2.971   8.490  1.0398 -0.0815  0.1182
 4194TIP3    H234218   3.515   2.838   8.522 -1.1447 -1.5108 -1.1263
 4195TIP3   OH234219   0.895   1.603   7.520 -0.1300  0.2526 -0.2862
 4195TIP3    H134220   0.987   1.632   7.527 -0.7329  2.3044 -0.1833
 4195TIP3    H234221   0.867   1.588   7.610  0.2948 -1.1114 -0.3630
 4196TIP3   OH234222   1.131   3.088   8.594  0.1584  0.4313 -0.3398
 4196TIP3    H134223   1.105   3.034   8.519  1.3765 -0.9377  0.1706
 4196TIP3    H234224   1.224   3.107   8.578  0.4251  0.1454  0.7908
 4197TIP3   OH234225   4.827   2.841   7.411 -0.1561 -0.3831 -0.4744
 4197TIP3    H134226   4.846   2.758   7.368  0.5990  0.0530 -1.0101
 4197TIP3    H234227   4.795   2.898   7.341 -2.9055 -0.8744  0.2770
 4198TIP3   OH234228   6.762   2.735   0.968 -0.1716 -0.1825 -0.7246
 4198TIP3    H134229   6.707   2.730   1.046  1.2072  0.5626  0.3360
 4198TIP3    H234230   6.764   2.646   0.934 -1.9243 -0.2427 -0.7328
 4199TIP3   OH234231   6.554   0.355   7.348 -0.0250  0.3072 -0.4620
 4199TIP3    H134232   6.502   0.357   7.268 -0.5969 -1.8305 -0.2077
 4199TIP3    H234233   6.631   0.409   7.329 -0.4031  0.2656 -2.2398
 4200TIP3   OH234234   2.532   1.115   1.497 -0.2582 -0.0615 -0.9188
 4200TIP3    H134235   2.557   1.110   1.404  0.7746 -1.6125 -0.5826
 4200TIP3    H234236   2.481   1.036   1.513 -1.5339  0.8199 -0.4393
 4201TIP3   OH234237   0.409   1.979   7.268  0.7393 -0.1300  0.2592
 4201TIP3    H134238   0.481   2.038   7.292  1.6406 -0.1609 -2.1354
 4201TIP3    H234239   0.451   1.894   7.254  0.1876 -0.2510 -0.7315
 4202TIP3   OH234240   6.563   0.668   7.941 -0.2420  0.3134  0.4529
 4202TIP3    H134241   6.599   0.755   7.961  0.9211  0.5252 -2.1594
 4202TIP3    H234242   6.636   0.620   7.902 -1.3749 -1.1721  0.0500
 4203TIP3   OH234243   4.042   1.288   1.814 -0.1813  0.4104 -0.2102
 4203TIP3    H134244   3.968   1.282   1.874 -0.8935  0.5271 -1.0528
 4203TIP3    H234245   4.097   1.358   1.851 -0.9196  0.9051 -0.0246
 4204TIP3   OH234246   1.661   6.839   7.943 -0.3907 -0.0200  0.0960
 4204TIP3    H134247   1.647   6.773   7.875  1.9243  1.6860 -2.2476
 4204TIP3    H234248   1.738   6.807   7.991 -0.0272  0.3497 -0.2348
 4205TIP3   OH234249   6.267   1.821   0.635  0.6368 -0.2462 -0.0261
 4205TIP3    H134250   6.361   1.812   0.622  1.1759 -1.5609  3.5502
 4205TIP3    H234251   6.245   1.751   0.697 -2.3325  1.2163  0.7528
 4206TIP3   OH234252   6.004   1.175   0.760  0.4203 -0.1001 -0.1779
 4206TIP3    H134253   6.067   1.127   0.706 -1.0556 -0.3792 -1.7300
 4206TIP3    H234254   5.973   1.109   0.822  1.6892  0.0671  0.6771
 4207TIP3   OH234255   5.604   4.047   8.714 -0.3656 -0.2489 -0.1057
 4207TIP3    H134256   5.680   4.087   8.757 -0.3344  0.2117 -0.5830
 4207TIP3    H234257   5.560   4.120   8.672 -0.3714 -0.7043 -0.8995
 4208TIP3   OH234258   3.405   2.280   7.621 -0.0271 -0.1943 -0.0163
 4208TIP3    H134259   3.342   2.269   7.693 -0.7425 -0.8879 -0.7218
 4208TIP3    H234260   3.473   2.215   7.638  0.2298  0.1883  0.4554
 4209TIP3   OH234261   5.217   1.024   2.384 -0.4261 -0.7907  0.4928
 4209TIP3    H134262   5.300   0.991   2.416  0.1286  1.1592  1.1905
 4209TIP3    H234263   5.211   1.113   2.417 -1.5593  0.0634 -1.7405
 4210TIP3   OH234264   6.097   4.248   1.447  0.2901 -0.3242 -0.1503
 4210TIP3    H134265   6.073   4.167   1.403 -1.2833 -0.1946  0.3812
 4210TIP3    H234266   6.052   4.244   1.531 -2.0367  2.1741 -1.1051
 4211TIP3   OH234267   4.941   0.993   1.949  0.3602 -0.1096 -0.0159
 4211TIP3    H134268   4.926   0.952   2.034 -2.8384  1.2214  0.1793
 4211TIP3    H234269   4.950   0.919   1.889  0.7128 -1.0731  1.1836
 4212TIP3   OH234270   0.588   4.922   0.291  0.0806 -0.1826 -0.9643
 4212TIP3    H134271   0.551   4.911   0.379 -0.0698 -0.5556 -1.0757
 4212TIP3    H234272   0.582   5.016   0.275  1.9621  0.2094  0.2385
 4213TIP3   OH234273   3.822   6.237   1.347  0.0700 -0.0195  0.0231
 4213TIP3    H134274   3.813   6.205   1.437 -0.8960 -1.2545 -0.4889
 4213TIP3    H234275   3.741   6.283   1.329  1.0892  2.0527  0.4415
 4214TIP3   OH234276   2.251   4.994   0.908 -0.6044 -0.4149 -1.0675
 4214TIP3    H134277   2.296   4.957   0.832  2.7758  1.2844 -0.1296
 4214TIP3    H234278   2.214   4.918   0.953  0.3317 -1.8607 -2.6025
 4215TIP3   OH234279   2.159   1.611   1.130  0.5025 -0.0072  0.3131
 4215TIP3    H134280   2.086   1.650   1.177  1.1784 -0.0828  1.4729
 4215TIP3    H234281   2.211   1.685   1.099 -0.6292  0.0799 -1.5123
 4216TIP3   OH234282   3.208   4.777   1.661 -0.3255  0.1247 -0.3519
 4216TIP3    H134283   3.195   4.864   1.700 -0.9174 -0.2938  0.4428
 4216TIP3    H234284   3.253   4.793   1.579 -0.0528  1.1518 -0.0159
 4217TIP3   OH234285   3.247   0.720   2.314  0.2091  0.0408  0.1071
 4217TIP3    H134286   3.238   0.812   2.293 -0.5375  0.8107  3.2371
 4217TIP3    H234287   3.339   0.710   2.340  0.0203  0.1837  0.8446
 4218TIP3   OH234288   5.560   2.930   2.640  0.1739 -0.0228 -0.0303
 4218TIP3    H134289   5.630   2.867   2.623 -0.3818 -0.3564 -1.2107
 4218TIP3    H234290   5.480   2.886   2.611 -0.1136  1.5498 -1.8581
 4219TIP3   OH234291   3.113   5.291   6.839 -0.3630 -0.3011  0.0866
 4219TIP3    H134292   3.108   5.251   6.752  0.3427 -1.4739  0.5626
 4219TIP3    H234293   3.152   5.224   6.895 -0.1052  0.6927  1.1577
 4220TIP3   OH234294   1.600   6.801   0.836  0.8761  0.7388  0.1953
 4220TIP3    H134295   1.689   6.811   0.870  0.7290  0.8314  0.5648
 4220TIP3    H234296   1.546   6.850   0.898  0.4686 -0.0218  0.4669
 4221TIP3   OH234297   0.381   3.789   8.676  0.1471 -0.1658 -0.0819
 4221TIP3    H134298   0.417   3.876   8.696 -0.8788  0.9295 -2.5317
 4221TIP3    H234299   0.456   3.730   8.679  0.9455  0.8701  1.2129
 4222TIP3   OH234300   6.276   0.591   7.228 -0.3865 -0.0027  0.1982
 4222TIP3    H134301   6.285   0.499   7.253  0.3250 -0.1874 -0.6783
 4222TIP3    H234302   6.340   0.603   7.157 -1.8265  0.6687 -1.0451
 4223TIP3   OH234303   5.602   0.024   0.943 -0.1410 -0.2453  0.8043
 4223TIP3    H134304   5.561  -0.062   0.956  0.7113 -0.6698  0.7529
 4223TIP3    H234305   5.631   0.023   0.852 -1.1081  0.5375  0.4784
 4224TIP3   OH234306   1.087   4.551   1.439  0.3030  0.1433 -0.3645
 4224TIP3    H134307   1.160   4.489   1.432  0.1411  0.1202 -2.3397
 4224TIP3    H234308   1.093   4.585   1.528  0.5060 -2.5528  0.7540
 4225TIP3   OH234309   4.291   4.169   1.410 -0.4787  0.2817  0.2704
 4225TIP3    H134310   4.274   4.074   1.410 -0.0484  0.2004  0.1531
 4225TIP3    H234311   4.298   4.192   1.503  0.4081  0.0067  0.2840
 4226TIP3   OH234312   2.416   6.861   0.467  0.4853  0.6585 -0.1972
 4226TIP3    H134313   2.354   6.917   0.421 -0.9420 -0.5946  0.1150
 4226TIP3    H234314   2.502   6.884   0.431 -0.2259  1.9884 -1.0922
 4227TIP3   OH234315   6.374   0.709   0.377 -0.0616 -0.6380 -0.2447
 4227TIP3    H134316   6.305   0.645   0.393 -0.7803 -0.1076 -1.1082
 4227TIP3    H234317   6.340   0.791   0.414 -0.0821 -0.2789 -1.0352
 4228TIP3   OH234318   5.549   5.153   7.851  0.4553 -0.4893 -0.1401
 4228TIP3    H134319   5.561   5.064   7.818 -0.0722 -1.7520  2.8230
 4228TIP3    H234320   5.455   5.165   7.856  0.5105  0.5041 -1.0681
 4229TIP3   OH234321   6.148   3.723   1.239  0.0414 -0.2349 -0.2081
 4229TIP3    H134322   6.105   3.727   1.153  0.1779  1.1518 -0.2365
 4229TIP3    H234323   6.204   3.646   1.234  1.4149  0.8083 -2.0614
 4230TIP3   OH234324   1.054   3.991   8.098 -0.2867 -0.3598 -0.3785
 4230TIP3    H134325   1.069   3.959   8.186 -1.1755 -0.1104 -0.1300
 4230TIP3    H234326   0.964   4.025   8.099 -0.3283 -0.3997 -1.3864
 4231TIP3   OH234327   6.652   6.470   6.942  0.5615  0.2513 -0.6118
 4231TIP3    H134328   6.586   6.405   6.967  2.2778 -1.9781 -1.5516
 4231TIP3    H234329   6.624   6.500   6.856 -0.1577  0.6602 -0.2453
 4232TIP3   OH234330   6.652   0.819   7.346  0.3516  0.1007 -0.1847
 4232TIP3    H134331   6.629   0.775   7.264  0.9681  1.2163 -1.0099
 4232TIP3    H234332   6.572   0.863   7.373  0.4656  0.8071 -0.9336
 4233TIP3   OH234333   2.566   2.434   2.301 -0.6028  0.7083 -0.0116
 4233TIP3    H134334   2.514   2.505   2.339 -1.5805 -0.3170  0.6485
 4233TIP3    H234335   2.532   2.355   2.344  1.2385 -0.0482  0.1305
 4234TIP3   OH234336   4.674   2.740   1.196 -0.0283 -0.1629  0.2373
 4234TIP3    H134337   4.640   2.651   1.191 -0.1637 -0.2476  1.9979
 4234TIP3    H234338   4.659   2.766   1.287  0.5516  1.4411 -0.0966
 4235TIP3   OH234339   5.384   4.072   8.188 -0.3635 -0.1514 -0.0781
 4235TIP3    H134340   5.325   4.008   8.228 -0.5993  0.0898 -0.0357
 4235TIP3    H234341   5.346   4.089   8.102  0.1741 -0.7079 -0.4247
 4236TIP3   OH234342   0.003   3.706   8.279  0.2986  0.5702 -0.0007
 4236TIP3    H134343   0.084   3.727   8.326  1.0885 -0.2669 -0.9562
 4236TIP3    H234344   0.005   3.611   8.268 -1.6932  0.2750  1.4999
 4237TIP3   OH234345   1.566   4.266   2.439  0.1901  0.1289  0.2934
 4237TIP3    H134346   1.560   4.197   2.374  1.0973  0.5711 -0.2801
 4237TIP3    H234347   1.657   4.263   2.470  0.1591  0.8565  0.4819
 4238TIP3   OH234348   0.525   0.412   7.335  0.1591 -1.0683  0.0648
 4238TIP3    H134349   0.577   0.473   7.283  1.2861 -1.6904  0.4449
 4238TIP3    H234350   0.588   0.348   7.368 -0.8165 -1.7278  0.6962
 4239TIP3   OH234351   0.329   1.879   2.173 -0.1389  0.1220 -0.1676
 4239TIP3    H134352   0.294   1.907   2.258 -3.4525  0.8311 -1.6079
 4239TIP3    H234353   0.297   1.944   2.111  2.6237 -0.0698 -1.9912
 4240TIP3   OH234354   1.572   0.225   0.800  0.1792 -0.0354 -0.1449
 4240TIP3    H134355   1.645   0.184   0.844 -0.5065 -1.1430 -0.0063
 4240TIP3    H234356   1.558   0.172   0.721  0.8678  1.4233 -1.3055
 4241TIP3   OH234357   3.798   0.311   7.131 -0.0462  0.4130  0.0369
 4241TIP3    H134358   3.733   0.264   7.079  0.5097  0.0197 -0.3133
 4241TIP3    H234359   3.849   0.359   7.067 -0.3282  1.1532  0.3580
 4242TIP3   OH234360   2.854   1.007   8.076 -0.5804  0.1060  0.1388
 4242TIP3    H134361   2.939   1.013   8.033  0.0925 -0.8342  1.2972
 4242TIP3    H234362   2.849   1.086   8.131 -0.3544  0.0493  0.2420
 4243TIP3   OH234363   6.345   6.682   1.598 -0.1513  0.4112  0.6711
 4243TIP3    H134364   6.320   6.650   1.511  1.2345 -0.3957  0.5430
 4243TIP3    H234365   6.377   6.771   1.582 -1.5519  0.9255  0.6346
 4244TIP3   OH234366   0.562   1.273   0.399 -0.0259 -0.0709 -0.5005
 4244TIP3    H134367   0.507   1.342   0.363 -2.1161 -1.1910  0.3713
 4244TIP3    H234368   0.644   1.317   0.423 -0.0824  1.4444 -2.8333
 4245TIP3   OH234369   0.307   2.577   7.268  0.3055 -0.3633 -0.1231
 4245TIP3    H134370   0.318   2.583   7.363 -1.2960 -1.7354  0.2032
 4245TIP3    H234371   0.358   2.500   7.242 -0.8782 -1.2015 -0.0316
 4246TIP3   OH234372   2.024   3.353   7.871  0.7067 -0.4439  0.7581
 4246TIP3    H134373   2.026   3.267   7.912 -0.1265 -1.4655 -1.2524
 4246TIP3    H234374   2.096   3.351   7.808  0.4067  0.1545  0.3875
 4247TIP3   OH234375   2.048   6.575   0.940  0.0599  0.1341  0.1497
 4247TIP3    H134376   2.122   6.617   0.898  1.7516 -0.3045  2.4976
 4247TIP3    H234377   1.972   6.627   0.914  1.5910  2.4731  0.1457
 4248TIP3   OH234378   3.820   6.439   7.727 -0.5647  0.4731  0.3710
 4248TIP3    H134379   3.725   6.442   7.716 -0.4695 -1.6880 -1.7265
 4248TIP3    H234380   3.843   6.347   7.716  1.7760  0.8751  1.2193
 4249TIP3   OH234381   3.231   4.484   7.647 -0.2012 -0.5584 -0.1943
 4249TIP3    H134382   3.173   4.552   7.683  0.3473  0.4294 -1.1170
 4249TIP3    H234383   3.177   4.440   7.581  0.1765  0.6318 -1.3462
 4250TIP3   OH234384   2.676   6.731   2.667  0.1175 -0.0984  0.4965
 4250TIP3    H134385   2.631   6.648   2.650  0.7358  0.0949 -2.5510
 4250TIP3    H234386   2.762   6.705   2.700  1.0334 -0.8538 -2.2430
 4251TIP3   OH234387   1.441   1.636   7.004  0.5725  0.6274  0.0485
 4251TIP3    H134388   1.528   1.636   7.043  0.7496  0.0958 -0.3294
 4251TIP3    H234389   1.385   1.593   7.069  0.8327 -0.1051 -0.1965
 4252TIP3   OH234390   1.929   6.270   1.941  0.8526 -0.2218  0.2423
 4252TIP3    H134391   1.924   6.238   1.851  0.9698 -1.9889  0.8218
 4252TIP3    H234392   1.881   6.352   1.941  1.0732 -0.0688 -1.4837
 4253TIP3   OH234393   1.958   0.925   8.585 -0.6071 -0.6765  0.4696
 4253TIP3    H134394   1.953   0.844   8.534 -0.6405 -0.4249  0.0709
 4253TIP3    H234395   1.917   0.903   8.668  0.5020 -1.4314  0.8369
 4254TIP3   OH234396   2.472   2.685   2.413 -0.4177 -0.0221 -0.0073
 4254TIP3    H134397   2.450   2.677   2.320 -0.0806  1.1972 -0.2056
 4254TIP3    H234398   2.391   2.715   2.455 -0.0472  1.3422 -0.2318
 4255TIP3   OH234399   0.724   4.832   8.487  0.9324 -0.1614  0.4000
 4255TIP3    H134400   0.646   4.885   8.468  0.5929 -0.5969  0.5576
 4255TIP3    H234401   0.794   4.875   8.439  0.6937  0.5318  0.6552
 4256TIP3   OH234402   6.832   4.979   0.486 -0.1334  0.2431  0.1208
 4256TIP3    H134403   6.841   4.905   0.546  0.6122  0.3655  0.1730
 4256TIP3    H234404   6.813   5.054   0.543 -0.6961  0.1298  0.0852
 4257TIP3   OH234405   2.771   3.666   8.433 -0.2241  0.0670 -0.1835
 4257TIP3    H134406   2.776   3.646   8.526 -0.5523  0.7387 -0.0173
 4257TIP3    H234407   2.708   3.604   8.398 -1.3670  0.8963  0.3564
 4258TIP3   OH234408   2.202   2.165   1.223 -0.0496  0.4736  0.2122
 4258TIP3    H134409   2.205   2.229   1.153 -1.5086  0.9416  0.5398
 4258TIP3    H234410   2.215   2.216   1.303  2.4657 -0.1615  0.2941
 4259TIP3   OH234411   3.853   6.177   7.496  0.3306  0.1723  0.0577
 4259TIP3    H134412   3.924   6.114   7.489 -0.1913 -0.4649  0.3477
 4259TIP3    H234413   3.797   6.143   7.566 -0.2998  0.6116 -0.2157
 4260TIP3   OH234414   3.115   6.779   1.523 -0.3429  0.4440 -0.5895
 4260TIP3    H134415   3.198   6.741   1.496 -1.5668 -0.8573 -2.7662
 4260TIP3    H234416   3.127   6.798   1.616  2.4015  0.4314 -0.8631
 4261TIP3   OH234417   1.500   1.315   1.504 -0.4745  0.3094  0.0250
 4261TIP3    H134418   1.572   1.333   1.564 -0.0295 -1.1278 -0.0380
 4261TIP3    H234419   1.424   1.357   1.545 -0.0684 -0.1458  1.3054
 4262TIP3   OH234420   6.667   0.727   1.913  0.1939 -0.4588 -0.0223
 4262TIP3    H134421   6.677   0.814   1.950 -0.5659  0.0062 -0.8636
 4262TIP3    H234422   6.709   0.732   1.827  1.3444 -1.3249  0.4557
 4263TIP3   OH234423   6.801   0.479   1.760 -0.5030  0.3983  0.7879
 4263TIP3    H134424   6.887   0.444   1.781 -0.1943  1.2451  0.9656
 4263TIP3    H234425   6.815   0.573   1.749 -1.2686  0.4389  0.0748
 4264TIP3   OH234426   0.508   6.638   6.522  0.0872 -0.3930  0.1091
 4264TIP3    H134427   0.443   6.572   6.549 -0.0101 -0.2267  0.2818
 4264TIP3    H234428   0.469   6.678   6.444  0.4306 -0.9671 -0.3653
 4265TIP3   OH234429   2.716   2.656   2.538  0.3379 -0.2668 -0.4693
 4265TIP3    H134430   2.636   2.654   2.486 -0.0369  1.0344  0.0392
 4265TIP3    H234431   2.760   2.574   2.516 -2.2968 -2.2967  1.0896
 4266TIP3   OH234432   0.618   5.028   1.381  0.3206  0.4178  0.8149
 4266TIP3    H134433   0.604   5.071   1.296  1.4247 -0.0254  0.3869
 4266TIP3    H234434   0.563   4.949   1.377  0.8006  0.0999  0.2607
 4267TIP3   OH234435   0.576   3.571   1.348  0.1103 -0.6296 -0.3084
 4267TIP3    H134436   0.519   3.541   1.418 -0.6029  1.5494  0.1429
 4267TIP3    H234437   0.516   3.607   1.282  0.8594 -0.3421 -0.8478
 4268TIP3   OH234438   4.149   3.337   0.861  0.5953 -0.6779 -0.0123
 4268TIP3    H134439   4.067   3.315   0.905  0.6898 -1.0128 -0.0042
 4268TIP3    H234440   4.160   3.431   0.877  0.2682 -0.6516  0.0743
 4269TIP3   OH234441   4.193   5.151   6.727 -0.0060  0.3340 -0.6276
 4269TIP3    H134442   4.171   5.222   6.667 -2.9166 -0.4408 -0.6706
 4269TIP3    H234443   4.162   5.072   6.682  1.8753 -0.8240  0.0132
 4270TIP3   OH234444   2.238   4.837   7.261 -0.5615  0.4135  0.1359
 4270TIP3    H134445   2.261   4.930   7.267  2.0593 -0.1142 -0.1479
 4270TIP3    H234446   2.196   4.817   7.344 -0.1292  1.6038  0.6643
 4271TIP3   OH234447   2.617   1.912   1.533 -0.0572  0.3693 -0.9436
 4271TIP3    H134448   2.545   1.848   1.531 -0.4034  0.7612 -1.5570
 4271TIP3    H234449   2.691   1.867   1.493  0.1815 -0.1952  0.1109
 4272TIP3   OH234450   5.708   4.046   0.667 -0.2828  0.3213 -0.3843
 4272TIP3    H134451   5.697   3.957   0.700 -1.8470  0.6476  0.0509
 4272TIP3    H234452   5.622   4.069   0.630  0.8698  0.6377 -3.0849
 4273TIP3   OH234453   3.340   1.692   0.493 -0.0260  0.2899 -0.2056
 4273TIP3    H134454   3.370   1.609   0.530 -0.1272 -0.3314 -1.4608
 4273TIP3    H234455   3.319   1.747   0.569  0.1000 -0.8063  0.6357
 4274TIP3   OH234456   4.654   4.829   7.145  0.1725  0.6231 -0.0345
 4274TIP3    H134457   4.702   4.909   7.125 -0.1892  0.9788  0.4922
 4274TIP3    H234458   4.639   4.833   7.240 -0.6436  0.3711 -0.1437
 4275TIP3   OH234459   5.561   2.797   1.889  0.0569 -0.0136 -0.0409
 4275TIP3    H134460   5.513   2.721   1.923  0.7358  0.0597  1.1348
 4275TIP3    H234461   5.652   2.779   1.910  0.5780 -0.0901 -2.1475
 4276TIP3   OH234462   3.726   0.153   0.935 -0.2258  0.2068  0.1673
 4276TIP3    H134463   3.788   0.095   0.890 -0.5845 -0.0420 -0.0128
 4276TIP3    H234464   3.696   0.213   0.866  1.2211  1.5543  0.6474
 4277TIP3   OH234465   3.565   6.094   1.426  0.0746 -0.0815  0.1267
 4277TIP3    H134466   3.560   6.159   1.355  1.0773 -1.0545 -0.8668
 4277TIP3    H234467   3.603   6.142   1.500  1.9423  0.2146 -0.9545
 4278TIP3   OH234468   0.403   2.513   7.740  0.3570  0.5770 -0.0424
 4278TIP3    H134469   0.455   2.555   7.671  0.3805  2.0621  0.8170
 4278TIP3    H234470   0.326   2.479   7.696  0.4761  1.3215 -0.8452
 4279TIP3   OH234471   5.878   6.215   2.212  0.1296  0.2164  0.1935
 4279TIP3    H134472   5.878   6.135   2.160 -0.4308  0.4411 -0.1600
 4279TIP3    H234473   5.928   6.277   2.159 -0.3255  0.4057 -0.0168
 4280TIP3   OH234474   1.846   3.700   8.417 -0.4739  0.3323 -0.0637
 4280TIP3    H134475   1.762   3.667   8.449  0.3558  0.3631  2.3000
 4280TIP3    H234476   1.822   3.772   8.358 -2.1122 -0.4009 -0.3591
 4281TIP3   OH234477   3.502   5.060   0.746  0.4346  0.4176 -0.1896
 4281TIP3    H134478   3.545   5.022   0.822 -0.0893 -2.3311 -1.1506
 4281TIP3    H234479   3.552   5.027   0.671  0.1351  1.9621 -1.1164
 4282TIP3   OH234480   4.070   0.673   1.591 -0.5579  0.1439  0.7129
 4282TIP3    H134481   4.055   0.767   1.596 -1.6742 -0.0191  0.5476
 4282TIP3    H234482   4.158   0.661   1.629 -1.2377  1.0261  2.7278
 4283TIP3   OH234483   4.560   2.026   1.539 -0.2480  0.4910  0.2064
 4283TIP3    H134484   4.598   1.980   1.613  0.4189  1.2551  0.3472
 4283TIP3    H234485   4.535   1.956   1.478 -0.4850 -0.1260  0.9863
 4284TIP3   OH234486   3.341   6.213   8.687  0.1996  0.3553  0.5359
 4284TIP3    H134487   3.402   6.264   8.634 -0.8223  1.0847  0.0167
 4284TIP3    H234488   3.347   6.253   8.774 -0.5883  1.4012  0.1357
 4285TIP3   OH234489   6.601   0.211   8.096  0.1858 -0.6994  0.1263
 4285TIP3    H134490   6.521   0.262   8.082 -0.7751 -2.0176  0.5172
 4285TIP3    H234491   6.627   0.232   8.186  0.0717 -0.5374  0.1224
 4286TIP3   OH234492   0.820   4.968   6.938 -0.0500 -0.0021  0.3716
 4286TIP3    H134493   0.748   4.914   6.970  0.5321 -0.5208  0.8322
 4286TIP3    H234494   0.873   4.908   6.885 -0.7698  0.7397 -1.2542
 4287TIP3   OH234495   1.058   4.658   1.074 -0.3590 -0.4226  0.0310
 4287TIP3    H134496   1.031   4.566   1.075  2.1010 -1.2239  0.7219
 4287TIP3    H234497   1.081   4.676   0.983 -1.0334 -0.4358 -0.1400
 4288TIP3   OH234498   5.949   3.075   6.987 -0.3074 -0.4499 -0.3744
 4288TIP3    H134499   5.882   3.141   6.972 -0.1055  0.0224  0.7192
 4288TIP3    H234500   5.920   3.027   7.065  1.4008  0.8434  1.1511
 4289TIP3   OH234501   2.994   3.810   8.673 -0.1651 -0.1892  0.2076
 4289TIP3    H134502   2.918   3.753   8.680  0.8330 -1.6415 -0.2741
 4289TIP3    H234503   3.023   3.823   8.763 -1.3773  0.9757  0.4553
 4290TIP3   OH234504   4.210   3.863   7.208  0.4610 -0.6169  0.3138
 4290TIP3    H134505   4.275   3.873   7.278 -0.0887  1.2584  0.6013
 4290TIP3    H234506   4.142   3.808   7.247  0.9621 -1.0110  0.6541
 4291TIP3   OH234507   2.915   6.610   2.719  0.1452  0.4524  0.0349
 4291TIP3    H134508   2.910   6.514   2.712  1.9599  0.2588  0.8299
 4291TIP3    H234509   2.997   6.632   2.674 -0.0278  1.5783  0.2625
 4292TIP3   OH234510   3.821   5.647   0.602  0.4788  0.5642 -0.8125
 4292TIP3    H134511   3.909   5.612   0.589  0.5666  1.2003 -2.1159
 4292TIP3    H234512   3.768   5.604   0.535  0.4408  2.3389 -1.9836
 4293TIP3   OH234513   6.620   2.473   2.059  0.0015 -0.3338  0.1382
 4293TIP3    H134514   6.596   2.408   1.993 -2.0987 -1.3164  1.7486
 4293TIP3    H234515   6.630   2.555   2.010 -0.7518 -1.1688 -1.4754
 4294TIP3   OH234516   1.993   0.990   6.982  1.0699  1.0225 -0.5159
 4294TIP3    H134517   1.917   1.048   6.973 -0.0663 -0.2866  0.2581
 4294TIP3    H234518   1.995   0.941   6.899 -0.6206 -0.8226  0.4352
 4295TIP3   OH234519   5.375   3.425   0.175 -0.4887  0.1108 -0.0526
 4295TIP3    H134520   5.314   3.357   0.204  0.5012 -0.7768  0.0518
 4295TIP3    H234521   5.405   3.394   0.090  1.1158 -0.4138  0.6510
 4296TIP3   OH234522   3.342   3.301   0.762  0.2969 -0.2247 -0.5288
 4296TIP3    H134523   3.419   3.293   0.707  0.2633  2.0077 -0.9645
 4296TIP3    H234524   3.367   3.360   0.832 -0.6755 -0.3946 -0.0074
 4297TIP3   OH234525   5.472   2.668   7.983  0.6185  0.5514 -0.7982
 4297TIP3    H134526   5.460   2.741   8.045 -0.1015 -0.1118 -0.1306
 4297TIP3    H234527   5.432   2.699   7.902 -2.7882 -0.2851  0.3970
 4298TIP3   OH234528   3.232   2.564   6.820  0.5076 -0.6672 -0.6982
 4298TIP3    H134529   3.225   2.476   6.856 -2.6817 -0.3030 -0.1834
 4298TIP3    H234530   3.229   2.551   6.725 -0.1044 -1.1337 -0.6222
 4299TIP3   OH234531   0.653   4.611   2.113 -0.2763 -0.2334  0.3988
 4299TIP3    H134532   0.728   4.556   2.139 -0.6656 -0.5307  0.9094
 4299TIP3    H234533   0.621   4.648   2.195 -0.7749 -0.2189  0.2012
 4300TIP3   OH234534   0.031   1.776   8.522 -0.2511 -0.1658  0.2161
 4300TIP3    H134535  -0.045   1.754   8.470 -0.0947 -3.2059  1.0899
 4300TIP3    H234536   0.105   1.766   8.462 -0.3620  0.7786 -0.0963
 4301TIP3   OH234537   1.296   6.714   7.437 -0.0075  0.0267 -0.8315
 4301TIP3    H134538   1.208   6.741   7.410 -0.9697 -0.5912  1.4509
 4301TIP3    H234539   1.316   6.768   7.513  0.9480 -0.8919 -0.4010
 4302TIP3   OH234540   1.072   5.973   6.905 -0.1458  0.1821 -0.1716
 4302TIP3    H134541   1.069   5.877   6.908  0.6911  0.1606  0.3614
 4302TIP3    H234542   1.047   5.996   6.816 -0.5736 -0.5230 -0.2383
 4303TIP3   OH234543   0.808   5.656   1.925 -0.1536 -0.0095  0.2273
 4303TIP3    H134544   0.800   5.747   1.894  0.9309 -0.3938 -1.3022
 4303TIP3    H234545   0.902   5.639   1.926 -0.2549 -0.6154  2.1385
 4304TIP3   OH234546   4.269   4.504   6.538  0.2935  0.1600 -0.0385
 4304TIP3    H134547   4.225   4.569   6.483  4.1671  1.1344 -2.3067
 4304TIP3    H234548   4.357   4.538   6.551  1.4853 -3.0889  1.5565
 4305TIP3   OH234549   1.189   0.657   0.277  0.7001 -0.1543  0.2158
 4305TIP3    H134550   1.113   0.601   0.263  1.7778 -1.4149 -0.8949
 4305TIP3    H234551   1.152   0.741   0.303 -0.9878 -1.2059  1.3957
 4306TIP3   OH234552   2.235   5.612   8.204  0.0093  0.2254  0.3786
 4306TIP3    H134553   2.262   5.669   8.132 -0.0522  1.2744  1.1699
 4306TIP3    H234554   2.162   5.659   8.245 -0.4594 -0.7270  0.6565
 4307TIP3   OH234555   4.933   2.884   8.793 -0.5256  0.1414 -0.5503
 4307TIP3    H134556   4.966   2.931   8.717 -0.0141 -0.5761 -0.7792
 4307TIP3    H234557   4.986   2.804   8.797  0.5300  0.8572  1.4461
 4308TIP3   OH234558   1.979   0.320   7.884  0.5970 -0.1000  0.3068
 4308TIP3    H134559   2.010   0.387   7.822 -0.8606 -1.7603 -2.3580
 4308TIP3    H234560   2.053   0.260   7.892  0.3949 -0.5153 -0.8053
 4309TIP3   OH234561   5.251   0.452   1.233 -0.0409  0.2121 -0.1881
 4309TIP3    H134562   5.314   0.441   1.161 -0.6364 -0.2530 -0.6426
 4309TIP3    H234563   5.303   0.492   1.303  1.1656 -1.5426 -0.0027
 4310TIP3   OH234564   3.638   2.091   8.372  0.0562 -0.2698 -0.3991
 4310TIP3    H134565   3.569   2.030   8.398 -0.4584 -0.3235 -1.7776
 4310TIP3    H234566   3.713   2.066   8.425 -0.8077 -0.5810  0.7279
 4311TIP3   OH234567   5.398   5.757   0.949 -0.3747  0.4225  0.1081
 4311TIP3    H134568   5.368   5.826   0.890 -1.5380  0.4153  0.6691
 4311TIP3    H234569   5.429   5.687   0.890  1.0141  1.4672 -0.4648
 4312TIP3   OH234570   3.760   0.074   7.924  0.1698 -0.0291  0.5013
 4312TIP3    H134571   3.845   0.113   7.906  0.1001 -0.6806 -1.3814
 4312TIP3    H234572   3.772   0.027   8.006  1.5041  0.2070  0.4600
 4313TIP3   OH234573   4.098   4.483   0.469  0.4435  0.5128  0.0554
 4313TIP3    H134574   4.076   4.504   0.378  1.4347  0.7214 -0.1539
 4313TIP3    H234575   4.015   4.461   0.510  0.1277 -0.8332 -1.2283
 4314TIP3   OH234576   1.183   0.605   7.440 -0.1098  0.0899 -0.0116
 4314TIP3    H134577   1.250   0.671   7.420 -0.8692  1.3474  1.3716
 4314TIP3    H234578   1.193   0.588   7.534 -0.3502 -1.3262 -0.2179
 4315TIP3   OH234579   1.013   3.528   1.949 -0.3640  0.1436 -0.3586
 4315TIP3    H134580   0.964   3.551   1.871 -1.8266  1.6537  0.9261
 4315TIP3    H234581   1.017   3.609   2.000  2.3712 -0.2532  0.2190
 4316TIP3   OH234582   6.070   3.392   1.551 -0.1730  0.3414 -0.4628
 4316TIP3    H134583   6.062   3.471   1.498 -0.6540  0.5692 -0.0535
 4316TIP3    H234584   5.979   3.368   1.573 -0.1638 -1.2014 -1.8650
 4317TIP3   OH234585   0.590   2.603   7.538  0.4243 -0.1380 -1.0743
 4317TIP3    H134586   0.671   2.586   7.490  0.6753 -1.9267 -0.0974
 4317TIP3    H234587   0.589   2.698   7.549  2.2215 -0.0374 -1.3983
 4318TIP3   OH234588   1.305   6.414   0.580 -0.5622  0.8076 -0.2579
 4318TIP3    H134589   1.385   6.458   0.607 -0.6428  0.4373  0.6124
 4318TIP3    H234590   1.307   6.418   0.484  0.7374  0.3813 -0.2688
 4319TIP3   OH234591   0.222   4.513   0.229  0.1884 -0.1079 -0.3432
 4319TIP3    H134592   0.135   4.492   0.196  0.5861  0.9317 -2.2464
 4319TIP3    H234593   0.255   4.432   0.267 -2.0689 -0.2029  1.6181
 4320TIP3   OH234594   0.989   6.429   1.440  0.2355 -0.0506 -0.1465
 4320TIP3    H134595   1.057   6.416   1.506 -0.4944  0.3154  0.7076
 4320TIP3    H234596   1.023   6.387   1.361  1.2193 -0.3220  0.4090
 4321TIP3   OH234597   1.755   5.145   7.809 -0.8310  0.3058 -0.4420
 4321TIP3    H134598   1.671   5.170   7.847 -1.3506 -0.8044 -0.8165
 4321TIP3    H234599   1.788   5.225   7.768 -1.5851  0.8108 -0.0733
 4322TIP3   OH234600   1.224   0.938   8.199 -0.0789 -0.8457 -0.0579
 4322TIP3    H134601   1.151   0.944   8.138  1.0516 -1.7413 -1.5517
 4322TIP3    H234602   1.207   0.858   8.249 -0.8617 -0.2516  0.6816
 4323TIP3   OH234603   5.689   5.779   7.575  0.3403 -0.2652  0.1472
 4323TIP3    H134604   5.661   5.830   7.498 -2.3858 -1.8399 -0.0517
 4323TIP3    H234605   5.771   5.820   7.602 -0.5315  2.7794 -1.2970
 4324TIP3   OH234606   3.974   0.026   0.864  0.1728 -0.2001 -0.2409
 4324TIP3    H134607   3.919  -0.053   0.868 -0.8574  0.3157 -2.6696
 4324TIP3    H234608   4.043   0.004   0.801  0.0817  0.7071 -0.6658
 4325TIP3   OH234609   4.544   2.098   6.944  0.0059  0.6273 -0.0663
 4325TIP3    H134610   4.552   2.153   7.022  1.0253 -0.4732  0.6320
 4325TIP3    H234611   4.629   2.054   6.936 -0.5392 -0.3061 -1.0113
 4326TIP3   OH234612   6.843   0.749   6.608  0.2726 -0.1911  0.1889
 4326TIP3    H134613   6.812   0.667   6.569  0.6123  0.0691 -0.6426
 4326TIP3    H234614   6.824   0.816   6.542  1.3179  0.1780  0.2431
 4327TIP3   OH234615   0.394   5.428   7.831 -0.2243  0.0005  0.0573
 4327TIP3    H134616   0.484   5.425   7.863 -0.6226 -2.1815  1.2217
 4327TIP3    H234617   0.397   5.383   7.746 -0.1949 -0.0328  0.0760
 4328TIP3   OH234618   1.410   6.447   7.461  0.2173 -0.0816  0.5901
 4328TIP3    H134619   1.371   6.533   7.442 -1.0228 -0.8494 -0.5129
 4328TIP3    H234620   1.399   6.436   7.555 -1.5914  0.0798  0.4350
 4329TIP3   OH234621   5.492   0.901   6.844 -0.1253  0.1313  0.3131
 4329TIP3    H134622   5.550   0.973   6.821 -0.4340  0.4016  0.3720
 4329TIP3    H234623   5.417   0.910   6.785 -0.8925  0.7923  1.3403
 4330TIP3   OH234624   5.375   3.081   7.955  0.0388  0.2896 -0.1344
 4330TIP3    H134625   5.455   3.028   7.962 -0.4270 -0.8613 -2.4095
 4330TIP3    H234626   5.316   3.044   8.020  0.6450 -0.2597  0.1132
 4331TIP3   OH234627   6.835   1.823   7.782 -0.2152 -0.0387 -0.4357
 4331TIP3    H134628   6.918   1.841   7.737  0.4100 -0.5569  0.4757
 4331TIP3    H234629   6.821   1.900   7.837  0.3881 -0.5356  0.4419
 4332TIP3   OH234630   2.676   0.287   8.459  0.4267 -0.2619 -0.1235
 4332TIP3    H134631   2.607   0.318   8.517  1.5551 -0.4710  1.3794
 4332TIP3    H234632   2.657   0.194   8.447 -0.2697 -0.0495 -0.8021
 4333TIP3   OH234633   2.471   3.969   0.673 -0.4097 -0.1970 -0.5340
 4333TIP3    H134634   2.464   4.031   0.745  0.2516  0.2156 -0.8163
 4333TIP3    H234635   2.546   3.999   0.622 -0.5655 -0.7685 -1.1213
 4334TIP3   OH234636   0.675   0.424   6.302 -0.1176 -0.0467  0.2387
 4334TIP3    H134637   0.721   0.503   6.274 -0.2142 -0.5077 -1.3563
 4334TIP3    H234638   0.615   0.405   6.229 -1.9268 -0.1906  1.6816
 4335TIP3   OH234639   4.465   5.706   7.441  0.0418  0.0059  0.1167
 4335TIP3    H134640   4.456   5.613   7.465 -0.0914  0.1661  0.7175
 4335TIP3    H234641   4.423   5.753   7.513 -1.4527  0.4931 -1.0416
 4336TIP3   OH234642   5.374   0.193   1.040 -0.2800 -0.3058 -0.0106
 4336TIP3    H134643   5.445   0.128   1.042 -1.3359 -1.5099 -0.2638
 4336TIP3    H234644   5.373   0.230   1.128 -1.1829 -2.3935  0.9286
 4337TIP3   OH234645   2.654   3.910   8.387 -0.2724 -0.2646 -0.0734
 4337TIP3    H134646   2.715   3.944   8.453 -1.4221 -0.8454  1.3229
 4337TIP3    H234647   2.657   3.815   8.398  1.2764 -0.5786 -2.4874
 4338TIP3   OH234648   6.572   1.608   0.285  0.2516  0.5798  0.1838
 4338TIP3    H134649   6.552   1.586   0.194 -0.6046 -0.2805  0.5663
 4338TIP3    H234650   6.663   1.579   0.296  0.3874  0.7507 -0.4071
 4339TIP3   OH234651   5.228   3.866   0.909 -0.0180 -0.5290 -0.3840
 4339TIP3    H134652   5.310   3.852   0.863 -0.5153  0.5641 -1.6795
 4339TIP3    H234653   5.252   3.871   1.001  1.4737  0.4205 -0.7885
 4340TIP3   OH234654   1.043   2.324   1.599 -0.1559  0.4078  0.1952
 4340TIP3    H134655   1.077   2.411   1.617  0.5886 -0.2295  2.1093
 4340TIP3    H234656   1.062   2.310   1.506 -0.3657  2.2834 -0.1693
 4341TIP3   OH234657   4.684   0.558   1.979 -0.0605  0.1869  0.7111
 4341TIP3    H134658   4.763   0.514   1.947  0.6670  0.6863  1.7784
 4341TIP3    H234659   4.716   0.637   2.022 -1.2422  1.0203  0.1253
 4342TIP3   OH234660   0.692   6.734   7.138 -0.4177  0.3974  0.3050
 4342TIP3    H134661   0.638   6.810   7.160 -0.3457  0.2408  1.0276
 4342TIP3    H234662   0.683   6.725   7.043 -3.6265 -1.0421  0.6059
 4343TIP3   OH234663   6.129   3.941   0.419  0.2068 -0.7853 -0.2507
 4343TIP3    H134664   6.194   4.000   0.380  1.0723 -1.3819  0.2484
 4343TIP3    H234665   6.123   3.868   0.357  0.2277 -0.8710 -0.1509
 4344TIP3   OH234666   1.875   3.693   8.782 -0.6671 -0.1189  0.0030
 4344TIP3    H134667   1.836   3.680   8.869  0.1872  0.8591  0.5585
 4344TIP3    H234668   1.802   3.722   8.727 -1.0163  0.2526  0.6515
 4345TIP3   OH234669   0.545   6.165   1.110 -0.1633 -0.1520  0.3484
 4345TIP3    H134670   0.492   6.245   1.103  0.2001  0.3504  2.5734
 4345TIP3    H234671   0.597   6.178   1.189 -0.8179 -3.0428  1.3373
 4346TIP3   OH234672   5.468   3.575   8.732 -0.0336 -0.0274  0.1589
 4346TIP3    H134673   5.475   3.666   8.762  0.1658 -0.2717  0.8548
 4346TIP3    H234674   5.374   3.562   8.716 -0.1775  0.0291  0.9252
 4347TIP3   OH234675   1.088   4.053   0.928  0.1569  0.4571  0.0545
 4347TIP3    H134676   1.135   3.990   0.873  1.2335  1.2833 -0.0021
 4347TIP3    H234677   1.118   4.033   1.017 -2.4129 -1.6142  0.5752
 4348TIP3   OH234678   5.651   5.547   7.437  0.6931 -0.1720  0.2371
 4348TIP3    H134679   5.633   5.474   7.496  4.0105 -1.3974 -0.0415
 4348TIP3    H234680   5.665   5.622   7.495  0.0843 -0.4243  0.7202
 4349TIP3   OH234681   5.276   0.491   8.674  0.5277 -1.0748  0.2999
 4349TIP3    H134682   5.276   0.572   8.723  1.8100  0.1809 -1.6316
 4349TIP3    H234683   5.322   0.428   8.730  1.4360  0.1309  0.9336
 4350TIP3   OH234684   3.245   2.789   1.079 -0.1825  0.0790  0.0489
 4350TIP3    H134685   3.263   2.695   1.076  0.6822  0.2042  0.8470
 4350TIP3    H234686   3.293   2.825   1.005  0.3353  0.0169  0.3501
 4351TIP3   OH234687   2.901   5.787   0.516 -0.1416 -0.6276  0.0511
 4351TIP3    H134688   2.860   5.872   0.532  0.2354 -0.4109 -0.1290
 4351TIP3    H234689   2.959   5.802   0.442 -0.6423 -1.2272 -0.4761
 4352TIP3   OH234690   3.914   0.243   1.362  0.0711 -0.1298  0.1413
 4352TIP3    H134691   3.956   0.161   1.388 -1.1650 -0.8008  0.1291
 4352TIP3    H234692   3.888   0.284   1.445 -3.6058 -2.1280  0.2074
 4353TIP3   OH234693   3.515   0.745   2.449 -0.0841 -0.0897  0.2920
 4353TIP3    H134694   3.487   0.737   2.540 -1.0828  0.3657  0.0371
 4353TIP3    H234695   3.600   0.789   2.454  0.5928 -1.4114  1.0775
 4354TIP3   OH234696   1.080   6.392   6.993 -0.3251  0.8381  0.2369
 4354TIP3    H134697   1.067   6.366   6.901 -1.7248 -0.6351  0.8058
 4354TIP3    H234698   1.162   6.441   6.992 -0.4237  1.0758 -1.8396
 4355TIP3   OH234699   5.071   3.932   1.292 -0.1384 -0.2517 -0.2635
 4355TIP3    H134700   5.063   4.028   1.287  0.8293 -0.1537 -0.0977
 4355TIP3    H234701   4.981   3.901   1.292 -0.4597  0.6344 -0.8422
 4356TIP3   OH234702   1.517   2.284   0.553 -0.0214 -0.1817 -0.1611
 4356TIP3    H134703   1.569   2.286   0.634 -0.8569  0.0960  0.3762
 4356TIP3    H234704   1.537   2.199   0.514 -0.2079 -0.6515  0.7418
 4357TIP3   OH234705   4.976   2.846   6.979  0.3556 -0.5285  0.3319
 4357TIP3    H134706   4.932   2.800   6.908  1.1287 -0.3666 -0.2685
 4357TIP3    H234707   5.038   2.783   7.015 -0.1263 -0.6496  0.9430
 4358TIP3   OH234708   4.646   5.020   0.808  0.3268  0.0860 -0.2593
 4358TIP3    H134709   4.560   5.036   0.768  0.1598 -1.4776 -0.5937
 4358TIP3    H234710   4.666   5.102   0.853 -2.5690 -0.3287  2.0919
 4359TIP3   OH234711   0.489   4.223   0.820  0.1356 -0.7433 -0.7326
 4359TIP3    H134712   0.454   4.255   0.736  0.0688 -0.1318 -0.4766
 4359TIP3    H234713   0.583   4.236   0.813 -0.0152  1.1983  0.0316
 4360TIP3   OH234714   4.586   5.469   6.250  0.1439 -0.6904 -0.3097
 4360TIP3    H134715   4.550   5.557   6.240  1.7743  0.1226  0.6310
 4360TIP3    H234716   4.509   5.413   6.262 -0.9205  0.6018 -0.8250
 4361TIP3   OH234717   3.354   3.583   0.618  0.1852  0.0814  0.1702
 4361TIP3    H134718   3.402   3.524   0.560 -0.7477  0.4063 -0.9783
 4361TIP3    H234719   3.411   3.659   0.628  1.2453 -0.8347  1.3768
 4362TIP3   OH234720   5.614   0.932   2.078  0.0272  0.1346  0.0034
 4362TIP3    H134721   5.705   0.908   2.092  0.2574  1.1477  0.3139
 4362TIP3    H234722   5.608   1.024   2.105 -1.4372 -0.3589  1.5518
 4363TIP3   OH234723   6.259   1.525   8.795  0.4046  0.0465  0.2181
 4363TIP3    H134724   6.248   1.455   8.860 -0.2845  3.1615  3.8476
 4363TIP3    H234725   6.348   1.557   8.810  1.1513 -0.6784 -2.2360
 4364TIP3   OH234726   0.300   2.692   1.131 -0.1184  0.0730  0.5500
 4364TIP3    H134727   0.362   2.697   1.204  2.1301  0.5603 -1.2756
 4364TIP3    H234728   0.290   2.783   1.103 -0.5529 -0.1682 -0.0791
 4365TIP3   OH234729   6.528   5.418   1.299  0.0598 -0.1421  0.0227
 4365TIP3    H134730   6.606   5.473   1.290  2.8034 -3.7422 -0.8203
 4365TIP3    H234731   6.489   5.418   1.211  0.0364  0.4313  0.0305
 4366TIP3   OH234732   3.010   2.826   7.284  0.2731 -0.0719  0.2949
 4366TIP3    H134733   3.021   2.808   7.377 -1.5192 -2.0051  0.2161
 4366TIP3    H234734   3.079   2.774   7.242 -0.5907 -1.3872  0.4448
 4367TIP3   OH234735   4.495   6.584   8.020 -0.0787  0.0125  0.6913
 4367TIP3    H134736   4.583   6.572   8.053  0.5723  1.6077 -0.3381
 4367TIP3    H234737   4.495   6.543   7.933 -0.5363 -0.5044  0.9291
 4368TIP3   OH234738   4.870   2.890   0.720 -0.3337  0.2325 -0.4076
 4368TIP3    H134739   4.857   2.977   0.757  0.5896 -0.6390  2.1997
 4368TIP3    H234740   4.885   2.834   0.796  2.3278 -1.6316 -2.1316
 4369TIP3   OH234741   0.838   2.684   0.088  0.1691  0.1701 -0.5047
 4369TIP3    H134742   0.909   2.746   0.103 -1.6464  2.3905 -0.4912
 4369TIP3    H234743   0.835   2.673  -0.007 -1.5795  2.9436 -0.9079
 4370TIP3   OH234744   2.504   5.409   0.980  0.2530  0.1343 -0.3912
 4370TIP3    H134745   2.438   5.475   0.958  0.3085  0.5413  0.6174
 4370TIP3    H234746   2.580   5.432   0.928  0.4192  1.1433  0.2672
 4371TIP3   OH234747   0.836   5.863   7.391 -0.3831 -0.0694  0.4069
 4371TIP3    H134748   0.876   5.948   7.408 -0.0984 -0.1226  0.0081
 4371TIP3    H234749   0.899   5.817   7.336 -0.5834 -0.5000  0.5304
 4372TIP3   OH234750   0.975   4.902   8.244  0.1860  0.3801 -0.3721
 4372TIP3    H134751   1.065   4.929   8.224  0.4790  0.1026  0.5147
 4372TIP3    H234752   0.980   4.807   8.250  0.3577  0.4875  2.0049
 4373TIP3   OH234753   1.384   5.351   1.952 -0.5622 -0.2037 -0.2933
 4373TIP3    H134754   1.362   5.364   2.044 -0.0631  0.1861 -0.2265
 4373TIP3    H234755   1.410   5.259   1.946  0.4423  0.0354  0.1734
 4374TIP3   OH234756   2.574   0.388   6.588 -0.0073 -0.0926 -0.4495
 4374TIP3    H134757   2.481   0.391   6.614  0.0681  0.5380 -0.2177
 4374TIP3    H234758   2.595   0.479   6.568  0.5937 -0.2209 -0.4003
 4375TIP3   OH234759   3.791   3.931   6.780  0.2394  0.1180 -0.3208
 4375TIP3    H134760   3.827   3.874   6.847 -1.4136 -1.0934 -0.4084
 4375TIP3    H234761   3.749   3.872   6.718 -0.2314  1.3508 -1.2181
 4376TIP3   OH234762   4.892   0.831   6.898 -0.1989 -0.1034  0.1097
 4376TIP3    H134763   4.898   0.915   6.943  1.0294  1.1187 -2.1368
 4376TIP3    H234764   4.799   0.818   6.883 -0.4020  0.8747  0.4509
 4377TIP3   OH234765   4.497   2.434   7.393  0.4239  0.3390  0.0783
 4377TIP3    H134766   4.411   2.429   7.351  0.7476  0.4078 -0.6136
 4377TIP3    H234767   4.519   2.527   7.392  0.7028  0.2729 -0.1677
 4378TIP3   OH234768   2.529   0.123   6.650 -0.1955 -0.3085  0.0977
 4378TIP3    H134769   2.550   0.212   6.620  2.9312 -0.4963  1.4108
 4378TIP3    H234770   2.441   0.131   6.689 -0.5079  1.8946 -0.9075
 4379TIP3   OH234771   1.183   1.784   0.931  0.0058  0.1712 -0.5882
 4379TIP3    H134772   1.219   1.787   1.019 -0.0748 -0.5261 -0.5302
 4379TIP3    H234773   1.210   1.867   0.891  0.8618  0.0716 -0.2338
 4380TIP3   OH234774   4.054   6.496   1.164  0.3308  0.0647 -0.3775
 4380TIP3    H134775   4.091   6.545   1.091 -0.3414 -0.0358 -0.8010
 4380TIP3    H234776   3.986   6.442   1.123 -0.4385  0.4237  0.4094
 4381TIP3   OH234777   6.628   6.463   6.663 -0.1714 -0.0270 -0.4673
 4381TIP3    H134778   6.717   6.488   6.688 -0.4952 -1.1006  2.1298
 4381TIP3    H234779   6.632   6.369   6.650 -0.8725 -0.0340 -0.6462
 4382TIP3   OH234780   3.268   6.070   7.964  0.0173  0.5462 -0.4501
 4382TIP3    H134781   3.235   6.160   7.970  0.7242  0.8352 -0.8320
 4382TIP3    H234782   3.198   6.022   7.920 -0.4824  0.8443  0.0009
 4383TIP3   OH234783   2.123   0.057   0.620 -0.6607  0.4350 -0.8203
 4383TIP3    H134784   2.196   0.053   0.682 -2.4788 -0.4759  1.3834
 4383TIP3    H234785   2.133  -0.022   0.566 -0.6805 -0.3227  0.2649
 4384TIP3   OH234786   2.320   1.898   0.829 -0.8490  0.2990  0.0511
 4384TIP3    H134787   2.252   1.879   0.764 -1.2034  1.7049 -0.0080
 4384TIP3    H234788   2.367   1.815   0.838 -3.8721 -1.3963  1.6751
 4385TIP3   OH234789   2.256   6.323   1.567  0.3920 -0.4778  0.1876
 4385TIP3    H134790   2.338   6.355   1.528 -1.4358  2.3106 -1.7091
 4385TIP3    H234791   2.206   6.289   1.493 -1.5223  1.1025  0.6904
 4386TIP3   OH234792   1.072   4.812   0.608 -0.1535  0.1372 -0.1342
 4386TIP3    H134793   0.990   4.860   0.603  0.0193  0.3305 -2.4044
 4386TIP3    H234794   1.140   4.877   0.591  0.5640  0.0917  2.2852
 4387TIP3   OH234795   5.321   3.032   7.003  0.2973 -0.1345 -0.2798
 4387TIP3    H134796   5.264   3.097   6.961 -0.9038 -0.4997  0.7193
 4387TIP3    H234797   5.404   3.077   7.016  0.2876  0.4026 -1.8239
 4388TIP3   OH234798   2.385   3.076   0.592  0.7259 -0.3132 -0.4904
 4388TIP3    H134799   2.312   3.037   0.543  1.3494 -0.4423 -1.3234
 4388TIP3    H234800   2.364   3.170   0.595  0.0146 -0.4805  0.1667
 4389TIP3   OH234801   6.773   1.909   1.055  0.0105  0.0124 -0.2525
 4389TIP3    H134802   6.724   1.945   0.981  1.2275  2.0393 -0.1420
 4389TIP3    H234803   6.744   1.961   1.130 -0.4590 -1.3509  0.5472
 4390TIP3   OH234804   3.793   6.812   7.433 -0.5711  0.1829  0.1529
 4390TIP3    H134805   3.722   6.853   7.482 -1.2994 -0.5139 -0.2982
 4390TIP3    H234806   3.766   6.818   7.341 -0.6542 -1.1611  0.0594
 4391TIP3   OH234807   5.063   3.342   7.802  0.3335 -0.6380 -0.5245
 4391TIP3    H134808   5.061   3.357   7.708 -0.7234 -0.5290 -0.4928
 4391TIP3    H234809   4.985   3.385   7.836  0.1722 -1.5171  0.2732
 4392TIP3   OH234810   2.076   4.912   7.872 -0.3898 -0.0374  0.4642
 4392TIP3    H134811   2.008   4.928   7.937 -1.1903 -1.4142  0.0241
 4392TIP3    H234812   2.122   4.834   7.904 -0.5109 -0.4716 -0.3791
 4393TIP3   OH234813   4.709   0.884   1.716  0.3203 -0.0393 -0.2139
 4393TIP3    H134814   4.678   0.947   1.781  0.1125  0.0557 -0.4013
 4393TIP3    H234815   4.636   0.823   1.705  0.4348 -0.1795 -0.2026
 4394TIP3   OH234816   2.604   6.578   7.180 -0.3008 -0.0747 -0.0521
 4394TIP3    H134817   2.515   6.592   7.148 -1.0045 -0.2850  1.7077
 4394TIP3    H234818   2.640   6.511   7.122 -0.8275  0.8778 -1.5433
 4395TIP3   OH234819   4.038   6.308   8.107  0.6967 -0.0560  0.3199
 4395TIP3    H134820   4.085   6.387   8.081  1.0041 -0.1727  0.5075
 4395TIP3    H234821   4.107   6.244   8.125  0.4487 -0.6449 -0.6728
 4396TIP3   OH234822   5.975   5.031   1.242  0.7625  0.3629  0.3179
 4396TIP3    H134823   5.921   5.096   1.198  0.2133  0.2589  0.8266
 4396TIP3    H234824   6.062   5.040   1.202  1.3857  3.1034  2.0378
 4397TIP3   OH234825   4.109   0.474   6.719 -0.7257  0.1037  0.5371
 4397TIP3    H134826   4.191   0.484   6.767  0.3249 -0.6484 -1.0071
 4397TIP3    H234827   4.104   0.381   6.698 -1.6766  0.2358  0.1126
 4398TIP3   OH234828   1.672   2.489   6.636  0.9628 -0.3279 -0.4503
 4398TIP3    H134829   1.701   2.546   6.564 -0.8440  1.1853 -0.0699
 4398TIP3    H234830   1.658   2.404   6.596  0.2333  0.4289 -1.8604
 4399TIP3   OH234831   4.044   4.707   1.935  0.4144  0.0766 -0.1773
 4399TIP3    H134832   4.133   4.710   1.899  0.9550 -1.0172  0.9334
 4399TIP3    H234833   4.004   4.630   1.894 -0.9967  1.9852 -2.6254
 4400TIP3   OH234834   2.932   5.499   0.238 -0.2909  0.0272 -0.6199
 4400TIP3    H134835   2.842   5.466   0.241  0.2240 -1.4316  0.3303
 4400TIP3    H234836   2.925   5.591   0.262 -1.4519 -0.3365  0.5902
 4401TIP3   OH234837   3.060   1.291   1.597 -0.0224 -0.2646  0.0785
 4401TIP3    H134838   3.124   1.322   1.662 -1.8870  1.5396  1.1747
 4401TIP3    H234839   2.978   1.285   1.646 -1.6378  1.7135 -2.1626
 4402TIP3   OH234840   1.550   3.318   2.021  0.0336  0.2781 -0.2505
 4402TIP3    H134841   1.487   3.382   2.053 -0.3869  0.5742 -1.6312
 4402TIP3    H234842   1.547   3.247   2.086 -1.4054  0.4710 -0.0897
 4403TIP3   OH234843   6.807   2.597   8.593 -0.3912  0.4648 -0.1252
 4403TIP3    H134844   6.877   2.579   8.656 -0.0189  2.0035 -0.0597
 4403TIP3    H234845   6.800   2.693   8.592 -1.6530  0.3852 -1.0573
 4404TIP3   OH234846   0.521   3.514   0.949 -0.5197 -0.2367  0.2636
 4404TIP3    H134847   0.466   3.455   0.898 -1.0252  0.7384 -0.3423
 4404TIP3    H234848   0.461   3.556   1.010 -0.1073 -0.5544  0.9097
 4405TIP3   OH234849   6.096   4.068   7.510 -0.4935 -0.1363  0.1508
 4405TIP3    H134850   6.160   4.119   7.460 -0.4392 -0.3766 -0.0263
 4405TIP3    H234851   6.135   3.981   7.516 -1.1405 -0.4876 -0.6013
 4406TIP3   OH234852   0.103   1.695   1.020 -0.3719 -0.1892 -0.1960
 4406TIP3    H134853   0.063   1.776   1.052 -1.2764 -1.2857  1.5918
 4406TIP3    H234854   0.197   1.708   1.033 -0.5655  0.2689  0.8652
 4407TIP3   OH234855   2.172   5.234   2.638  0.1072 -0.0080  0.6830
 4407TIP3    H134856   2.223   5.154   2.626  0.2951  0.2151 -0.0468
 4407TIP3    H234857   2.084   5.203   2.659 -0.1613 -0.4368 -0.9535
 4408TIP3   OH234858   5.539   0.983   0.074 -0.1158  0.8721 -0.5000
 4408TIP3    H134859   5.591   0.905   0.056  0.1011  0.9966 -0.4254
 4408TIP3    H234860   5.480   0.991  -0.001  0.3874  1.0655 -0.8843
 4409TIP3   OH234861   6.426   5.657   2.112 -0.0299 -0.0958  0.0369
 4409TIP3    H134862   6.461   5.604   2.184  0.5585  1.3438  0.8470
 4409TIP3    H234863   6.421   5.745   2.147 -0.1096  0.5761 -1.5821
 4410TIP3   OH234864   0.244   0.216   0.109  0.2568 -0.6261 -0.5957
 4410TIP3    H134865   0.309   0.181   0.048 -1.3522 -1.4802 -1.8998
 4410TIP3    H234866   0.189   0.272   0.055  0.3345  0.7104  0.6470
 4411TIP3   OH234867   5.545   1.739   1.559 -0.2804 -0.0877 -0.1037
 4411TIP3    H134868   5.608   1.737   1.632 -1.4165 -0.5241  0.8939
 4411TIP3    H234869   5.521   1.648   1.546  0.2383 -0.0653 -1.3509
 4412TIP3   OH234870   3.908   6.548   8.367 -0.3852  0.3385  0.1684
 4412TIP3    H134871   3.899   6.640   8.390  2.5081  0.6668  0.3586
 4412TIP3    H234872   3.991   6.542   8.321 -0.8596 -2.0755 -0.5567
 4413TIP3   OH234873   4.484   4.891   1.189  0.2214  0.2403 -0.1060
 4413TIP3    H134874   4.577   4.916   1.184  0.1038  0.6812 -0.1723
 4413TIP3    H234875   4.464   4.857   1.102  0.7872 -1.5835  0.4360
 4414TIP3   OH234876   6.503   5.019   8.404 -0.3815  0.8489 -0.6328
 4414TIP3    H134877   6.411   5.026   8.427 -0.2889  0.4781 -0.1300
 4414TIP3    H234878   6.505   5.031   8.309 -1.1782 -1.0265 -0.9357
 4415TIP3   OH234879   1.497   6.066   7.037  0.3504 -0.0133 -0.3866
 4415TIP3    H134880   1.546   6.086   7.117 -1.3437 -1.5469  1.1172
 4415TIP3    H234881   1.428   6.132   7.034 -0.3631 -0.7212  0.1474
 4416TIP3   OH234882   1.070   4.181   1.397  0.0017 -0.5901  0.0087
 4416TIP3    H134883   1.151   4.233   1.402 -1.0142  0.9542  2.9289
 4416TIP3    H234884   1.099   4.095   1.367  2.3074  0.6295 -1.5636
 4417TIP3   OH234885   0.743   3.934   7.189 -0.5309 -0.0364  0.2759
 4417TIP3    H134886   0.729   3.964   7.100  2.1415  3.1811  0.7177
 4417TIP3    H234887   0.674   3.976   7.241 -0.4552  0.3748  0.0484
 4418TIP3   OH234888   3.303   0.185   1.517  0.1886  0.0027 -0.5627
 4418TIP3    H134889   3.359   0.108   1.528 -0.4887 -0.1730  2.9417
 4418TIP3    H234890   3.289   0.191   1.423  3.7381 -1.5863 -1.3873
 4419TIP3   OH234891   3.712   0.357   8.493  0.1190  0.1567  0.3009
 4419TIP3    H134892   3.786   0.334   8.436  1.0237  1.2231  1.0160
 4419TIP3    H234893   3.637   0.362   8.434  0.3383 -2.0727 -0.2828
 4420TIP3   OH234894   1.544   6.406   6.977 -0.5476 -0.6912 -0.3668
 4420TIP3    H134895   1.490   6.391   7.055 -3.2083 -0.6464 -2.0873
 4420TIP3    H234896   1.593   6.324   6.967 -0.9854 -1.1188  0.7211
 4421TIP3   OH234897   5.926   0.534   0.139 -0.1907  0.8999 -0.0197
 4421TIP3    H134898   5.942   0.529   0.233  0.2658  0.5600 -0.1184
 4421TIP3    H234899   5.959   0.620   0.114 -1.1631  1.3899  0.2896
 4422TIP3   OH234900   4.975   5.172   7.566  0.3556  0.6132  0.0244
 4422TIP3    H134901   4.897   5.212   7.605 -1.4309 -2.3683 -0.1624
 4422TIP3    H234902   4.940   5.108   7.504  3.0035 -0.2860 -0.6373
 4423TIP3   OH234903   2.485   1.121   7.526 -0.1715 -0.1711  0.0244
 4423TIP3    H134904   2.415   1.183   7.547 -0.7665 -0.6283 -0.5397
 4423TIP3    H234905   2.440   1.050   7.478  0.7162 -0.3696 -0.5378
 4424TIP3   OH234906   1.447   4.102   1.334 -0.1521 -0.0059 -0.1960
 4424TIP3    H134907   1.500   4.181   1.327  0.2475 -0.0832  1.4937
 4424TIP3    H234908   1.393   4.116   1.412  0.1985 -1.5130  0.3595
 4425TIP3   OH234909   2.592   0.128   2.618  0.0607 -0.2608 -0.0384
 4425TIP3    H134910   2.634   0.054   2.662  1.2100 -0.8259 -1.9586
 4425TIP3    H234911   2.504   0.096   2.598  0.2699 -0.7996 -0.1110
 4426TIP3   OH234912   2.733   2.176   7.796 -0.3456  0.0257  0.3051
 4426TIP3    H134913   2.720   2.268   7.818  0.1162  0.0306  0.5602
 4426TIP3    H234914   2.823   2.157   7.821 -0.4502 -0.5094  0.2998
 4427TIP3   OH234915   4.361   1.381   8.304 -0.2910  0.1597  0.0750
 4427TIP3    H134916   4.307   1.447   8.347  0.5069  1.2343 -0.5583
 4427TIP3    H234917   4.310   1.300   8.312 -1.8313  1.0745 -0.2020
 4428TIP3   OH234918   1.194   6.792   6.545  0.1568  0.3131 -0.2754
 4428TIP3    H134919   1.127   6.804   6.477  0.2487  1.0993 -0.2372
 4428TIP3    H234920   1.229   6.880   6.559  1.4565 -0.1325 -0.5588
 4429TIP3   OH234921   3.558   2.944   6.968  0.2237  0.3599 -0.3590
 4429TIP3    H134922   3.506   2.998   7.027 -0.2235  0.3484 -0.7370
 4429TIP3    H234923   3.532   2.855   6.988 -0.0109  0.3617 -0.6440
 4430TIP3   OH234924   2.952   2.819   0.960 -0.0755  0.1507 -0.4256
 4430TIP3    H134925   2.959   2.902   0.913 -1.8047  2.0130  2.3020
 4430TIP3    H234926   3.033   2.814   1.012 -1.2254  1.8431  1.7234
 4431TIP3   OH234927   2.515   2.234   8.655 -0.5109  0.8486 -0.0754
 4431TIP3    H134928   2.521   2.328   8.640  0.2188  1.0654  1.4061
 4431TIP3    H234929   2.547   2.195   8.573  0.1102  1.8994 -0.3535
 4432TIP3   OH234930   1.475   5.238   7.814  0.2235  0.8264 -0.2735
 4432TIP3    H134931   1.443   5.279   7.733 -0.4030 -2.0536 -1.6056
 4432TIP3    H234932   1.395   5.214   7.861  0.4819 -0.7857 -0.6107
 4433TIP3   OH234933   6.816   0.907   2.325  0.0564 -0.6415 -0.0922
 4433TIP3    H134934   6.866   0.829   2.350  0.6107 -0.7354 -1.3988
 4433TIP3    H234935   6.735   0.901   2.375  0.0842 -2.0639 -0.1800
 4434TIP3   OH234936   0.142   3.157   1.146 -0.4957 -0.0089  0.1627
 4434TIP3    H134937   0.060   3.152   1.096 -0.2826  2.3573 -0.5729
 4434TIP3    H234938   0.131   3.235   1.201  0.6245 -0.6259  1.3190
 4435TIP3   OH234939   2.879   4.826   7.518 -0.2065  0.4618  0.3717
 4435TIP3    H134940   2.915   4.798   7.602  2.0908 -0.4368 -0.8339
 4435TIP3    H234941   2.857   4.745   7.473  2.2270  0.6583 -1.3570
 4436TIP3   OH234942   5.080   0.207   7.334 -0.2526 -0.3446 -0.2756
 4436TIP3    H134943   5.089   0.276   7.400  1.2956 -2.2162  1.6044
 4436TIP3    H234944   4.989   0.178   7.343 -0.0945 -0.5089  1.0270
 4437TIP3   OH234945   1.463   3.042   6.863  0.3766 -0.0349  0.0207
 4437TIP3    H134946   1.392   3.024   6.801 -0.3887 -2.4168  1.4339
 4437TIP3    H234947   1.456   3.135   6.882 -0.9640  0.2188 -1.5255
 4438TIP3   OH234948   5.742   3.415   1.303 -0.0732 -0.3254 -0.7704
 4438TIP3    H134949   5.713   3.348   1.240  0.8988 -2.3604  0.8060
 4438TIP3    H234950   5.837   3.404   1.307 -0.0481  0.2471  0.5048
 4439TIP3   OH234951   5.589   5.698   0.141 -0.2023 -0.1009 -0.5006
 4439TIP3    H134952   5.642   5.778   0.152 -0.9851  0.3889 -0.1731
 4439TIP3    H234953   5.510   5.728   0.097 -1.2993 -0.3439  1.1906
 4440TIP3   OH234954   1.464   6.706   1.095  0.7467 -0.4896 -0.2525
 4440TIP3    H134955   1.552   6.737   1.115  1.2825 -0.7386 -2.0259
 4440TIP3    H234956   1.437   6.657   1.172  1.1030  1.7513  1.3768
 4441TIP3   OH234957   5.627   4.757   2.177 -0.2456 -0.6064  0.4602
 4441TIP3    H134958   5.614   4.717   2.091  2.8669  1.2328 -1.0110
 4441TIP3    H234959   5.672   4.690   2.228  0.4006 -0.7502 -0.2868
 4442TIP3   OH234960   3.017   6.573   2.116 -0.5359  0.6786 -0.1962
 4442TIP3    H134961   3.036   6.534   2.202 -1.8231  0.1597 -0.1321
 4442TIP3    H234962   3.056   6.660   2.121  0.6391  0.1454  0.3906
 4443TIP3   OH234963   0.945   3.737   0.078  0.0744  0.1290  0.2209
 4443TIP3    H134964   0.965   3.735   0.172 -0.7296 -1.6100  0.3964
 4443TIP3    H234965   0.862   3.690   0.070 -0.3992  1.1465 -1.2641
 4444TIP3   OH234966   2.046   4.379   8.350  0.0474 -0.3294 -0.4602
 4444TIP3    H134967   2.002   4.405   8.432 -0.1492 -0.4008 -0.5420
 4444TIP3    H234968   2.037   4.284   8.348  1.2953 -0.4750  0.1376
 4445TIP3   OH234969   0.870   2.219   2.687 -0.3392  0.5073 -0.0754
 4445TIP3    H134970   0.935   2.207   2.756 -1.1255  0.5434  0.6982
 4445TIP3    H234971   0.850   2.131   2.657  0.7991  0.5610 -1.0311
 4446TIP3   OH234972   0.623   2.787   1.697  0.2216  0.1330  0.4517
 4446TIP3    H134973   0.642   2.736   1.776 -0.2596 -0.0054  0.4792
 4446TIP3    H234974   0.588   2.723   1.635 -0.9730  0.5312  0.6960
 4447TIP3   OH234975   1.879   4.820   8.586  0.8523 -0.6001 -0.0100
 4447TIP3    H134976   1.880   4.890   8.651  1.2599 -1.3642  0.8154
 4447TIP3    H234977   1.859   4.865   8.503 -1.6965  0.1298  0.9228
 4448TIP3   OH234978   5.183   5.289   6.679  0.2298 -0.0820  0.1322
 4448TIP3    H134979   5.231   5.345   6.618  0.2524  0.4981  0.6677
 4448TIP3    H234980   5.252   5.248   6.733  0.1339  0.9096  1.0358
 4449TIP3   OH234981   1.087   5.649   1.890  0.3877  0.1713 -0.7965
 4449TIP3    H134982   1.134   5.671   1.970 -1.8473  0.5042  0.5072
 4449TIP3    H234983   1.096   5.727   1.834  0.0985  0.8501  0.0797
 4450TIP3   OH234984   3.702   0.605   8.619  0.3272  0.3087  0.3417
 4450TIP3    H134985   3.686   0.510   8.620 -1.9697  0.6340 -0.5498
 4450TIP3    H234986   3.657   0.636   8.541  1.0893  2.1538  0.5919
 4451TIP3   OH234987   5.371   3.558   7.345  0.4500  0.3231  0.0721
 4451TIP3    H134988   5.390   3.638   7.393  1.2351  1.4851 -2.0349
 4451TIP3    H234989   5.277   3.545   7.357  0.6474  0.4597  1.9947
 4452TIP3   OH234990   2.153   0.623   0.052  0.0194 -0.1640 -0.5431
 4452TIP3    H134991   2.074   0.649   0.005  0.4042  0.7373 -0.7135
 4452TIP3    H234992   2.165   0.531   0.028 -1.8521 -0.8025  0.7673
 4453TIP3   OH234993   2.506   6.699   8.276  0.3661  0.4921  0.1950
 4453TIP3    H134994   2.452   6.752   8.218  0.0420 -0.7350 -0.6545
 4453TIP3    H234995   2.537   6.627   8.221  0.6581 -0.2948  1.3573
 4454TIP3   OH234996   1.164   4.640   0.812 -0.4693 -0.2085  0.0157
 4454TIP3    H134997   1.228   4.597   0.757 -0.7631  0.6461 -1.0278
 4454TIP3    H234998   1.127   4.709   0.757 -1.2491  0.2440  1.0640
 4455TIP3   OH234999   2.506   2.360   0.793 -0.1274 -0.5790  0.3403
 4455TIP3    H135000   2.597   2.385   0.807 -0.5896  0.4727  1.6637
 4455TIP3    H235001   2.493   2.282   0.847  0.1015 -1.0374 -0.2487
 4456TIP3   OH235002   2.112   6.775   8.325 -0.6508 -0.3687  0.4787
 4456TIP3    H135003   2.075   6.687   8.332  0.6405 -1.0258 -0.4272
 4456TIP3    H235004   2.157   6.789   8.408 -1.2084 -0.3838  0.7893
 4457TIP3   OH235005   6.614   0.919   1.102 -0.2252 -0.0509 -0.0108
 4457TIP3    H135006   6.651   1.007   1.111 -1.6264  0.7071 -1.1964
 4457TIP3    H235007   6.686   0.867   1.066  0.6675  0.5559  0.8389
 4458TIP3   OH235008   5.038   6.308   1.225  0.2103  0.8247  0.0317
 4458TIP3    H135009   5.000   6.242   1.167  1.1352  0.7163 -0.4732
 4458TIP3    H235010   4.979   6.310   1.301  0.8800 -1.6016  0.7174
 4459TIP3   OH235011   0.266   5.873   2.345  0.0715 -0.2916 -0.2538
 4459TIP3    H135012   0.302   5.864   2.433  1.1202 -0.8860 -0.7239
 4459TIP3    H235013   0.269   5.784   2.309  1.6719  0.2571 -1.6323
 4460TIP3   OH235014   5.684   3.869   6.511  0.1297 -0.3268 -0.2036
 4460TIP3    H135015   5.674   3.887   6.604 -1.1821 -0.5998 -0.2724
 4460TIP3    H235016   5.757   3.807   6.506  1.8802  1.5794  0.3965
 4461TIP3   OH235017   6.440   3.598   0.630 -0.7815 -0.5124  0.0844
 4461TIP3    H135018   6.429   3.526   0.568 -2.5375 -0.9206  0.8129
 4461TIP3    H235019   6.367   3.657   0.611  1.0466  1.5293 -1.0126
 4462TIP3   OH235020   5.339   0.955   0.974  0.2678 -0.5552  0.3524
 4462TIP3    H135021   5.304   0.866   0.976 -0.3336 -0.3353  0.0109
 4462TIP3    H235022   5.395   0.961   1.051  2.5224 -2.1069 -1.0209
 4463TIP3   OH235023   1.649   0.670   8.394  0.1510  0.3476 -0.1548
 4463TIP3    H135024   1.600   0.674   8.311 -0.9490 -1.5361  0.3501
 4463TIP3    H235025   1.603   0.605   8.446  2.8575 -1.1317  0.6012
 4464TIP3   OH235026   2.383   2.159   7.444 -0.8467  0.0419  0.1798
 4464TIP3    H135027   2.476   2.169   7.424 -0.8895 -0.5002 -0.3115
 4464TIP3    H235028   2.376   2.183   7.536 -0.4161  1.2376 -0.0806
 4465TIP3   OH235029   1.066   5.033   1.093  0.4068 -0.0815 -0.8841
 4465TIP3    H135030   1.082   5.024   1.187  0.3017  2.7579 -0.5074
 4465TIP3    H235031   0.986   4.983   1.078  1.0034 -1.4553  0.3121
 4466TIP3   OH235032   4.350   2.352   2.106  0.0883  0.3367 -0.2034
 4466TIP3    H135033   4.394   2.437   2.116 -1.8516  1.4295 -0.4231
 4466TIP3    H235034   4.395   2.311   2.032  2.3740  0.2605  1.1511
 4467TIP3   OH235035   0.432   2.155   8.456  0.4815  0.7876  0.4737
 4467TIP3    H135036   0.502   2.178   8.395 -0.5900  1.6204 -0.4783
 4467TIP3    H235037   0.447   2.063   8.476  0.2920  0.1773 -1.8701
 4468TIP3   OH235038   5.668   4.315   7.714 -0.1146  0.0494 -0.2310
 4468TIP3    H135039   5.712   4.303   7.799 -1.8455 -2.3921  0.4417
 4468TIP3    H235040   5.736   4.294   7.650  0.8491  0.5389  0.5992
 4469TIP3   OH235041   5.935   5.000   8.104 -1.1139  0.2317 -0.8102
 4469TIP3    H135042   5.845   4.990   8.135 -0.2269 -0.2909  1.7634
 4469TIP3    H235043   5.961   5.088   8.133 -0.0888 -0.4699  0.5030
 4470TIP3   OH235044   1.687   1.063   1.731  0.1877  0.3707  1.2610
 4470TIP3    H135045   1.598   1.056   1.697 -0.6199  2.6579  2.6693
 4470TIP3    H235046   1.687   1.008   1.810  1.5258 -3.4185 -1.0698
 4471TIP3   OH235047   1.857   4.013   0.018 -0.2933 -0.0546  0.1296
 4471TIP3    H135048   1.821   3.957   0.086 -1.7436 -0.3654 -0.8487
 4471TIP3    H235049   1.950   3.991   0.016 -0.2746 -0.2396  1.7958
 4472TIP3   OH235050   2.755   5.619   2.365  0.2577 -0.1591 -0.0883
 4472TIP3    H135051   2.823   5.682   2.388  0.3858 -0.8221  1.4442
 4472TIP3    H235052   2.675   5.657   2.402 -0.0152  0.0601 -0.8905
 4473TIP3   OH235053   0.468   6.121   0.378  0.3443 -0.4751  0.7927
 4473TIP3    H135054   0.514   6.173   0.313  1.4235 -0.0317  1.8667
 4473TIP3    H235055   0.527   6.120   0.454  0.0933 -2.7636  1.0238
 4474TIP3   OH235056   2.539   4.450   7.668 -0.2813  0.4454 -1.0158
 4474TIP3    H135057   2.504   4.465   7.580  1.2413  0.7801 -1.5888
 4474TIP3    H235058   2.461   4.439   7.723 -1.3155  2.2707 -2.0264
 4475TIP3   OH235059   4.331   1.332   6.996  0.4149 -0.5653 -0.0945
 4475TIP3    H135060   4.257   1.284   7.033  0.4134 -0.2523  0.3323
 4475TIP3    H235061   4.379   1.268   6.945 -0.3060 -0.7075 -0.6086
 4476TIP3   OH235062   0.380   5.103   8.403 -0.2589 -0.1342  0.5953
 4476TIP3    H135063   0.414   5.116   8.491  0.3675 -2.4759  0.7548
 4476TIP3    H235064   0.320   5.029   8.410 -1.7864  0.9158 -0.5971
 4477TIP3   OH235065   1.453   4.441   7.233 -0.1681 -0.0645 -0.3479
 4477TIP3    H135066   1.513   4.472   7.301 -2.5238  4.4218  0.0587
 4477TIP3    H235067   1.491   4.473   7.151 -0.8132  0.8500 -0.3094
 4478TIP3   OH235068   6.372   4.446   6.690  0.1931  0.0269 -0.3647
 4478TIP3    H135069   6.307   4.472   6.624  0.9889  1.2233 -0.7162
 4478TIP3    H235070   6.413   4.368   6.653  0.2526  0.3689 -1.0378
 4479TIP3   OH235071   6.342   4.231   1.996  0.2644 -0.2534  0.0468
 4479TIP3    H135072   6.397   4.206   2.070 -0.4484  0.2650  0.7769
 4479TIP3    H235073   6.357   4.163   1.931  2.3524  0.2933 -0.1013
 4480TIP3   OH235074   6.385   6.719   0.125 -0.0307  0.9503  0.0797
 4480TIP3    H135075   6.367   6.676   0.208 -1.8916  0.2664 -0.6129
 4480TIP3    H235076   6.346   6.806   0.134 -2.2580  0.1138 -0.7768
 4481TIP3   OH235077   4.853   2.390   7.557  0.3913  0.1384  0.5767
 4481TIP3    H135078   4.774   2.337   7.553  1.1269 -1.0366  1.1493
 4481TIP3    H235079   4.885   2.379   7.647  2.5291 -1.4092 -0.3071
 4482TIP3   OH235080   4.793   0.759   0.925 -0.3064 -0.6862 -0.1953
 4482TIP3    H135081   4.765   0.706   0.999  0.0873  0.6934  1.0043
 4482TIP3    H235082   4.712   0.796   0.890 -0.3561  0.3581  0.9408
 4483TIP3   OH235083   6.728   6.796   1.662 -0.3065  0.3469 -0.0724
 4483TIP3    H135084   6.666   6.820   1.593  1.4497  1.0142 -1.5160
 4483TIP3    H235085   6.740   6.702   1.652  1.2904  0.6773 -1.9861
 4484TIP3   OH235086   6.118   1.935   0.941 -0.2395 -0.5262 -0.5812
 4484TIP3    H135087   6.065   1.995   0.888  2.2048  0.9612 -1.4748
 4484TIP3    H235088   6.119   1.853   0.891 -0.9844 -0.3244 -0.9380
 4485TIP3   OH235089   4.918   0.219   1.846  0.2053  0.4004 -0.0912
 4485TIP3    H135090   5.003   0.177   1.845  0.0249 -0.0698  1.5174
 4485TIP3    H235091   4.859   0.154   1.884 -1.5833 -0.4267 -3.7861
 4486TIP3   OH235092   3.493   1.082   0.279 -0.4341  0.6549  0.4742
 4486TIP3    H135093   3.467   1.166   0.317 -0.5284  1.2737 -0.9077
 4486TIP3    H235094   3.474   1.018   0.347 -2.3596  1.5035  0.7965
 4487TIP3   OH235095   4.239   4.747   8.393 -0.0025 -0.4610  0.1831
 4487TIP3    H135096   4.318   4.775   8.441  0.7367 -1.8336 -0.1753
 4487TIP3    H235097   4.192   4.692   8.455 -1.3475  1.2966  0.8136
 4488TIP3   OH235098   0.318   4.488   1.757 -0.5279 -0.3103  0.5622
 4488TIP3    H135099   0.359   4.510   1.840  0.4017  0.0315  0.0319
 4488TIP3    H235100   0.239   4.543   1.754  0.4731  1.1897  0.3502
 4489TIP3   OH235101   4.222   3.165   7.153  0.4677  0.1276 -0.0438
 4489TIP3    H135102   4.255   3.096   7.096 -0.1260 -0.8375  0.7414
 4489TIP3    H235103   4.286   3.172   7.223  0.0919 -0.2629  0.3484
 4490TIP3   OH235104   0.868   6.655   7.323 -0.2546 -0.0095  0.4189
 4490TIP3    H135105   0.799   6.693   7.270 -0.3023 -1.9075 -0.9915
 4490TIP3    H235106   0.822   6.619   7.399 -0.7054 -0.4309 -0.0449
 4491TIP3   OH235107   0.294   6.295   1.265 -0.3614 -0.1695 -0.2411
 4491TIP3    H135108   0.303   6.324   1.175  1.3493 -0.1543 -0.1026
 4491TIP3    H235109   0.232   6.356   1.304 -0.6949  0.1554 -1.2617
 4492TIP3   OH235110   3.045   4.182   7.726 -0.6075 -0.0683  0.0558
 4492TIP3    H135111   2.993   4.245   7.677 -0.8361 -0.7032 -0.5431
 4492TIP3    H235112   3.081   4.231   7.799 -0.1932  0.9337 -0.7997
 4493TIP3   OH235113   6.281   3.364   8.273  0.1939 -0.6735  0.2753
 4493TIP3    H135114   6.222   3.299   8.314  0.1680 -0.0927  1.1933
 4493TIP3    H235115   6.222   3.431   8.239  0.1998 -1.2961 -1.0090
 4494TIP3   OH235116   4.247   1.187   2.035  0.3743  0.2157 -0.2730
 4494TIP3    H135117   4.298   1.265   2.057 -0.1750  0.0578  1.7578
 4494TIP3    H235118   4.312   1.117   2.029  0.6756  0.5021 -0.4187
 4495TIP3   OH235119   5.076   1.869   6.456  0.1100  0.7776  0.0485
 4495TIP3    H135120   5.017   1.816   6.510  2.1795 -0.1408  1.5928
 4495TIP3    H235121   5.030   1.882   6.374 -0.4366 -3.7512 -0.5791
 4496TIP3   OH235122   3.791   5.012   1.241  0.2197  0.8866  0.4977
 4496TIP3    H135123   3.867   4.964   1.276  0.5650 -0.0504 -1.3918
 4496TIP3    H235124   3.822   5.048   1.158 -0.9331  1.9214  0.4918
 4497TIP3   OH235125   4.044   4.377   8.344 -0.0394 -0.6806  0.1108
 4497TIP3    H135126   4.017   4.336   8.426  0.1832  1.4951  1.3396
 4497TIP3    H235127   4.140   4.376   8.348 -0.0305 -0.2875  0.0491
 4498TIP3   OH235128   1.878   2.612   1.123  0.3285 -0.1700  0.1210
 4498TIP3    H135129   1.916   2.660   1.049  1.2468 -1.7783 -0.4991
 4498TIP3    H235130   1.813   2.554   1.084 -0.0901 -0.1336  0.7385
 4499TIP3   OH235131   4.236   5.375   1.809 -0.5710 -0.0027 -0.2737
 4499TIP3    H135132   4.223   5.410   1.721 -2.2609 -2.0101 -0.9122
 4499TIP3    H235133   4.190   5.436   1.867 -0.8650  0.4342 -0.9618
 4500TIP3   OH235134   6.298   3.833   1.724  0.1887  0.3767 -0.4388
 4500TIP3    H135135   6.221   3.855   1.776  1.0873  0.5262  0.8813
 4500TIP3    H235136   6.292   3.738   1.712  1.0464 -0.0373  1.8470
 4501TIP3   OH235137   6.354   6.451   0.006  0.1679  0.0991  0.2325
 4501TIP3    H135138   6.284   6.442   0.070 -0.2573  0.0553 -0.2327
 4501TIP3    H235139   6.387   6.540   0.020 -1.4719  0.9580 -1.0137
 4502TIP3   OH235140   6.187   4.725   0.831 -0.0738  0.2830 -0.0497
 4502TIP3    H135141   6.219   4.667   0.900  0.6485  0.3754 -0.3060
 4502TIP3    H235142   6.264   4.774   0.802 -0.4213  0.4267 -0.7518
 4503TIP3   OH235143   2.232   0.963   7.644 -0.2112  0.0218  0.0892
 4503TIP3    H135144   2.304   0.911   7.607 -0.1634  0.8776 -1.1019
 4503TIP3    H235145   2.266   0.996   7.727  0.8610  0.5270 -0.5179
 4504TIP3   OH235146   4.901   2.537   7.311 -0.2272  0.4124  0.2248
 4504TIP3    H135147   4.871   2.477   7.379  1.2953 -0.9873 -0.2736
 4504TIP3    H235148   4.855   2.507   7.232 -1.0192  1.2249  0.3662
 4505TIP3   OH235149   6.366   1.090   1.051  0.8087 -0.4790 -0.0096
 4505TIP3    H135150   6.425   1.023   1.017  0.2809 -1.4086  0.8673
 4505TIP3    H235151   6.305   1.043   1.107 -0.2440  0.5879 -0.2077
 4506TIP3   OH235152   0.900   3.256   7.306  0.6195  0.1016 -0.5400
 4506TIP3    H135153   0.895   3.351   7.298  2.7361  0.5708  2.1018
 4506TIP3    H235154   0.940   3.226   7.224 -0.2673  1.4303 -1.4889
 4507TIP3   OH235155   4.791   5.079   8.464 -0.0970  0.0426  0.3103
 4507TIP3    H135156   4.722   5.028   8.421 -0.5907 -1.4404  2.6939
 4507TIP3    H235157   4.869   5.025   8.457  0.1218  0.3610  0.2433
 4508TIP3   OH235158   3.815   5.130   8.084  0.2479  0.1035 -0.1271
 4508TIP3    H135159   3.786   5.206   8.134  1.1857 -0.6854  1.7431
 4508TIP3    H235160   3.872   5.083   8.145  0.6114 -1.4828 -1.6311
 4509TIP3   OH235161   4.765   6.090   7.405  0.2190 -0.2441 -0.6870
 4509TIP3    H135162   4.797   6.180   7.396 -2.8804  1.2506  1.4768
 4509TIP3    H235163   4.685   6.087   7.352  0.8727 -2.1579 -1.6711
 4510TIP3   OH235164   0.356   1.864   2.732  0.6545  0.2807 -0.2323
 4510TIP3    H135165   0.411   1.920   2.786 -0.4581  0.3026  0.9207
 4510TIP3    H235166   0.329   1.919   2.659  0.5120  0.8978  0.2823
 4511TIP3   OH235167   5.338   6.416   0.449 -0.8698  0.4612 -0.1760
 4511TIP3    H135168   5.353   6.493   0.396  0.7094  0.4830  0.2647
 4511TIP3    H235169   5.425   6.381   0.467 -1.5332 -1.4247 -0.3536
 4512TIP3   OH235170   2.476   0.420   8.603  0.2574 -0.7837 -0.5358
 4512TIP3    H135171   2.391   0.378   8.588 -0.0956 -0.3240  0.1531
 4512TIP3    H235172   2.467   0.465   8.686  0.6460  0.6137 -1.2170
 4513TIP3   OH235173   3.794   2.943   0.236  0.2760 -0.1698  0.5594
 4513TIP3    H135174   3.872   2.995   0.253  0.9053 -1.3456  1.4053
 4513TIP3    H235175   3.725   2.985   0.286  0.6766  0.1016  0.8826
 4514TIP3   OH235176   6.732   2.517   2.451 -0.2304 -0.5097 -0.2279
 4514TIP3    H135177   6.799   2.485   2.511 -0.5220  0.3371  0.5822
 4514TIP3    H235178   6.654   2.527   2.506 -0.5534  0.1043 -0.7899
 4515TIP3   OH235179   2.706   5.444   1.724  0.4517  0.4046 -0.3416
 4515TIP3    H135180   2.770   5.374   1.711  1.1184  0.8749  0.3149
 4515TIP3    H235181   2.671   5.428   1.812 -0.3781  0.1266 -0.7138
 4516TIP3   OH235182   2.261   2.568   7.352 -0.1016  0.0311 -0.0113
 4516TIP3    H135183   2.252   2.475   7.333 -0.4984  0.3359 -1.5019
 4516TIP3    H235184   2.348   2.577   7.389 -0.3814 -1.0372  0.9601
 4517TIP3   OH235185   3.769   5.182   2.001  0.5939 -0.3268  0.1415
 4517TIP3    H135186   3.831   5.200   2.072  1.0393 -0.8976 -0.0997
 4517TIP3    H235187   3.689   5.229   2.027  0.6274 -0.8154  1.1999
 4518TIP3   OH235188   4.867   4.148   1.581  0.4550  0.0472 -0.2010
 4518TIP3    H135189   4.919   4.161   1.502  0.7275  0.6779  0.0779
 4518TIP3    H235190   4.777   4.139   1.549  0.4705  1.0268 -0.5313
 4519TIP3   OH235191   3.918   3.554   8.332  0.4583 -0.0647 -0.6241
 4519TIP3    H135192   3.875   3.614   8.393 -0.4095 -1.1900 -0.0888
 4519TIP3    H235193   3.969   3.495   8.388 -0.0831 -0.8956 -0.9776
 4520TIP3   OH235194   5.501   5.082   0.037  0.0919  0.2329  0.5256
 4520TIP3    H135195   5.453   5.052   0.114  0.6251 -0.6122  0.5457
 4520TIP3    H235196   5.563   5.011   0.018  0.1092  0.5167 -0.5630
 4521TIP3   OH235197   3.985   2.537   8.713  0.2864 -0.2058 -0.0044
 4521TIP3    H135198   3.939   2.527   8.796  0.6510 -0.2841  0.1893
 4521TIP3    H235199   4.051   2.604   8.731  3.1283 -3.0360  0.9801
 4522TIP3   OH235200   2.998   6.559   7.410 -0.1656 -0.2537 -0.6611
 4522TIP3    H135201   3.049   6.510   7.474 -1.6716  0.3048  1.0460
 4522TIP3    H235202   2.929   6.499   7.382  0.2212 -0.3456 -1.4493
 4523TIP3   OH235203   4.933   1.059   7.064 -0.3533  0.5038  0.1785
 4523TIP3    H135204   4.971   1.141   7.097  1.4478 -0.1747 -0.1545
 4523TIP3    H235205   4.840   1.066   7.087  0.2055  1.5477  2.3710
 4524TIP3   OH235206   4.000   0.384   0.607 -0.1835 -0.1052  0.1133
 4524TIP3    H135207   4.086   0.425   0.599  0.3209 -0.9186  1.1412
 4524TIP3    H235208   3.992   0.363   0.700 -0.8663 -1.3551 -0.2081
 4525TIP3   OH235209   3.454   6.403   8.132  0.7323 -0.3086  0.1503
 4525TIP3    H135210   3.431   6.392   8.040  0.2338 -0.8916  0.3374
 4525TIP3    H235211   3.435   6.318   8.171  1.1590 -0.1349  0.7484
 4526TIP3   OH235212   0.172   0.914   0.639  0.1445 -0.0663 -0.2486
 4526TIP3    H135213   0.242   0.976   0.617 -0.0546  0.9052  1.7086
 4526TIP3    H235214   0.130   0.896   0.555  1.3962  0.9730 -1.1467
 4527TIP3   OH235215   0.445   4.296   2.375  0.5184  0.0211  0.2781
 4527TIP3    H135216   0.406   4.297   2.462  0.8375  0.8643  0.4235
 4527TIP3    H235217   0.381   4.249   2.321 -0.5637  1.0916  0.5824
 4528TIP3   OH235218   2.224   0.719   1.770 -0.3995 -0.5487 -0.1169
 4528TIP3    H135219   2.259   0.651   1.828  0.9754  1.2444  1.2444
 4528TIP3    H235220   2.197   0.790   1.829 -0.2844  0.7676 -1.5833
 4529TIP3   OH235221   5.905   3.027   8.166 -0.1380  0.1463  0.6168
 4529TIP3    H135222   5.920   2.992   8.078  0.1544 -0.6556  0.9769
 4529TIP3    H235223   5.929   3.119   8.159  1.7904 -0.3358  0.3222
 4530TIP3   OH235224   5.833   5.243   8.257 -0.1242  0.3532  0.7245
 4530TIP3    H135225   5.848   5.304   8.184 -1.8080 -0.4482 -0.3378
 4530TIP3    H235226   5.739   5.227   8.256  0.0043 -0.6574  2.3106
 4531TIP3   OH235227   5.688   3.138   0.600  0.3779 -0.8436  0.0951
 4531TIP3    H135228   5.739   3.187   0.665 -0.5809 -0.6959  0.7516
 4531TIP3    H235229   5.604   3.122   0.643 -0.1511 -1.0281 -0.9944
 4532TIP3   OH235230   5.202   6.299   7.244 -0.2904  0.5531 -0.5745
 4532TIP3    H135231   5.217   6.268   7.155 -0.9728 -0.5734 -0.3134
 4532TIP3    H235232   5.171   6.222   7.292  0.7869  0.9464  0.8284
 4533TIP3   OH235233   4.874   3.347   0.688 -0.3178 -0.5796 -0.5560
 4533TIP3    H135234   4.882   3.441   0.702 -0.1783 -0.7498  0.5891
 4533TIP3    H235235   4.964   3.316   0.676 -0.3466 -0.6070 -0.7103
 4534TIP3   OH235236   2.323   6.415   2.329 -0.0611 -0.2444 -0.2441
 4534TIP3    H135237   2.337   6.417   2.235 -2.8214 -0.3666 -0.7426
 4534TIP3    H235238   2.345   6.326   2.355  1.7553  0.0822 -0.5287
 4535TIP3   OH235239   2.635   4.091   6.832 -0.4554  0.3775 -0.0470
 4535TIP3    H135240   2.632   4.008   6.784  0.2256  0.2860  0.0601
 4535TIP3    H235241   2.728   4.109   6.843 -0.5493 -0.0715  2.0186
 4536TIP3   OH235242   6.564   5.628   6.597  0.7788  0.0193  0.2225
 4536TIP3    H135243   6.599   5.604   6.683 -0.7200 -0.5929  0.6877
 4536TIP3    H235244   6.613   5.574   6.536  1.2074 -0.2210  0.7648
 4537TIP3   OH235245   5.457   2.524   8.260  0.3520 -0.1664 -0.2443
 4537TIP3    H135246   5.385   2.586   8.251  0.2988 -0.3809 -1.4930
 4537TIP3    H235247   5.458   2.476   8.176  1.9177 -0.1818 -0.2444
 4538TIP3   OH235248   6.036   5.289   7.964  0.2577 -0.4069 -0.3066
 4538TIP3    H135249   6.056   5.371   8.009 -0.1042  1.1396 -2.7636
 4538TIP3    H235250   5.941   5.280   7.971  0.2024 -0.1727 -0.6964
 4539TIP3   OH235251   5.072   3.714   7.475  0.6529  0.2396  0.0209
 4539TIP3    H135252   5.162   3.739   7.493  0.6162  0.6942 -0.4221
 4539TIP3    H235253   5.044   3.772   7.404 -0.0630  0.2602  0.3138
 4540TIP3   OH235254   5.460   1.863   0.983 -0.4387  0.0523 -0.2188
 4540TIP3    H135255   5.470   1.820   1.068  1.3581  0.0555 -0.3776
 4540TIP3    H235256   5.499   1.950   0.996 -1.0225  0.4009 -0.7847
 4541TIP3   OH235257   1.703   2.535   0.929  0.3378 -0.3480 -0.2447
 4541TIP3    H135258   1.624   2.571   0.889  0.3921 -0.0980 -0.1269
 4541TIP3    H235259   1.764   2.523   0.856  0.5485  0.4002 -0.1931
 4542TIP3   OH235260   1.080   6.715   8.405  0.2055 -0.0548  0.0934
 4542TIP3    H135261   1.075   6.734   8.311 -0.8798  0.2700  0.2035
 4542TIP3    H235262   1.138   6.639   8.410 -0.0874 -0.3731 -0.8978
 4543TIP3   OH235263   6.493   3.032   7.724  0.3813 -0.6502  0.3790
 4543TIP3    H135264   6.400   3.009   7.718  0.1087 -0.2644  2.4611
 4543TIP3    H235265   6.496   3.102   7.789  1.9284  0.7819 -1.1470
 4544TIP3   OH235266   0.303   4.606   1.461  0.3613 -0.3487 -0.0336
 4544TIP3    H135267   0.221   4.653   1.445  0.8144  0.9670  1.2432
 4544TIP3    H235268   0.292   4.565   1.547  0.7129 -0.9113 -0.2508
 4545TIP3   OH235269   6.335   3.156   0.805 -0.2594 -0.2020  0.6347
 4545TIP3    H135270   6.374   3.146   0.892  0.6785 -1.5322  0.0792
 4545TIP3    H235271   6.405   3.137   0.744 -0.7141  1.4348 -0.4672
 4546TIP3   OH235272   5.962   2.684   2.243  0.1064 -0.2340 -0.4416
 4546TIP3    H135273   5.978   2.723   2.328  1.7425  0.4716 -1.0243
 4546TIP3    H235274   5.867   2.681   2.234 -0.0775 -0.0874  1.2816
 4547TIP3   OH235275   4.045   2.897   0.782  0.0346 -0.1575  0.3870
 4547TIP3    H135276   4.019   2.830   0.719 -0.7269  1.1337 -0.7094
 4547TIP3    H235277   3.992   2.880   0.860  0.5291 -1.3744  0.4828
 4548TIP3   OH235278   6.385   2.966   7.378 -0.4011  0.1837  0.1980
 4548TIP3    H135279   6.350   2.982   7.290  0.0688  0.5717  0.0752
 4548TIP3    H235280   6.331   2.895   7.413  0.9499 -1.7058 -1.3312
 4549TIP3   OH235281   6.265   0.490   7.780 -0.3250  0.1137  0.0292
 4549TIP3    H135282   6.304   0.478   7.693 -0.5856 -1.3340  0.0836
 4549TIP3    H235283   6.174   0.463   7.769 -0.7319  1.2670  0.4408
 4550TIP3   OH235284   5.393   3.132   6.720  0.4666  0.0811 -0.2833
 4550TIP3    H135285   5.422   3.044   6.697 -1.2101 -0.5298 -0.2373
 4550TIP3    H235286   5.429   3.148   6.807 -1.9019 -1.9654  1.2163
 4551TIP3   OH235287   1.533   4.158   7.846  0.0738  0.6564 -0.1620
 4551TIP3    H135288   1.474   4.151   7.921 -0.4211  0.0956 -0.5978
 4551TIP3    H235289   1.543   4.069   7.814  0.3835  0.8727 -0.6928
 4552TIP3   OH235290   3.918   5.368   1.172 -0.4627  0.0328 -0.0743
 4552TIP3    H135291   3.977   5.331   1.106 -0.3074  0.3931 -0.1357
 4552TIP3    H235292   3.837   5.317   1.163  0.5797 -2.0973  1.5949
 4553TIP3   OH235293   4.842   5.107   0.629 -0.1410  0.1279  0.6989
 4553TIP3    H135294   4.749   5.087   0.629  0.0932 -1.6048 -2.6190
 4553TIP3    H235295   4.848   5.196   0.664 -3.2514  1.0328 -0.7673
 4554TIP3   OH235296   3.785   0.495   0.465  0.0402 -0.1444 -0.8213
 4554TIP3    H135297   3.863   0.481   0.519 -0.8944  0.1331  0.6688
 4554TIP3    H235298   3.818   0.503   0.376  1.7094 -0.0680 -0.2251
 4555TIP3   OH235299   4.476   5.819   7.204  0.6094  0.1724  0.4351
 4555TIP3    H135300   4.474   5.772   7.288  1.1922 -1.2042 -0.2937
 4555TIP3    H235301   4.541   5.888   7.216  0.2750  0.3497  1.2941
 4556TIP3   OH235302   1.880   5.129   6.686 -0.3047 -0.3904 -0.6528
 4556TIP3    H135303   1.806   5.075   6.658 -1.1067  0.4654 -0.2125
 4556TIP3    H235304   1.845   5.183   6.756  0.6275  0.3374 -0.7337
 4557TIP3   OH235305   4.939   3.852   2.345  0.0578  0.5996  0.1249
 4557TIP3    H135306   4.971   3.942   2.336 -2.0151  1.5100  0.9688
 4557TIP3    H235307   4.959   3.828   2.436 -0.2854  0.6132  0.2070
 4558TIP3   OH235308   4.486   1.354   0.548 -0.9108  0.4557 -0.0509
 4558TIP3    H135309   4.412   1.294   0.550 -0.4942 -0.1001 -0.7098
 4558TIP3    H235310   4.531   1.341   0.631 -1.1998  0.3378  0.0862
 4559TIP3   OH235311   3.882   5.147   7.655  0.3712 -0.1396  0.6225
 4559TIP3    H135312   3.787   5.155   7.665  0.0614  2.0937 -2.4458
 4559TIP3    H235313   3.914   5.238   7.655  2.5502 -0.8234  1.4740
 4560TIP3   OH235314   1.202   4.484   8.116  0.0585  0.6424  0.4685
 4560TIP3    H135315   1.221   4.435   8.036  1.0734 -0.0829  1.1230
 4560TIP3    H235316   1.177   4.417   8.180 -3.5010  1.4204  0.0889
 4561TIP3   OH235317   4.804   2.512   7.034 -0.1771 -0.2877  0.0702
 4561TIP3    H135318   4.885   2.460   7.028  0.8125  1.3249 -1.6527
 4561TIP3    H235319   4.752   2.484   6.958 -0.0736  0.5102 -0.3017
 4562TIP3   OH235320   0.961   3.286   7.573 -0.0268  0.4457 -0.3647
 4562TIP3    H135321   1.047   3.258   7.604  0.9577  2.1336 -1.4521
 4562TIP3    H235322   0.957   3.256   7.482  0.4780  2.4853 -1.1053
 4563TIP3   OH235323   6.071   5.210   8.809 -0.1350 -0.0572  0.5632
 4563TIP3    H135324   6.091   5.142   8.744 -0.1181 -0.3456  0.8642
 4563TIP3    H235325   5.982   5.237   8.789  0.2074  0.5517 -0.1907
 4564TIP3   OH235326   1.318   2.983   2.284 -0.0337 -0.5118 -0.1483
 4564TIP3    H135327   1.318   2.889   2.262 -1.0566 -0.3555 -0.8913
 4564TIP3    H235328   1.410   3.006   2.286  0.2321 -1.5044 -0.1235
 4565TIP3   OH235329   2.195   3.345   7.628  0.2391  0.0534 -0.0778
 4565TIP3    H135330   2.116   3.333   7.576 -0.5552  0.5822  0.9813
 4565TIP3    H235331   2.257   3.281   7.592 -0.6993 -0.4571 -0.8353
 4566TIP3   OH235332   0.815   1.827   6.685  0.2896  0.7462  0.0038
 4566TIP3    H135333   0.723   1.815   6.662  0.6579 -0.7970 -0.8047
 4566TIP3    H235334   0.863   1.771   6.623  1.7792  1.6065  0.3332
 4567TIP3   OH235335   3.653   2.840   6.710  0.2467  0.2753  0.0437
 4567TIP3    H135336   3.599   2.877   6.780  0.0879  0.6902 -0.2909
 4567TIP3    H235337   3.589   2.811   6.644  0.2698 -1.8630  0.8603
 4568TIP3   OH235338   3.757   0.568   1.305 -0.3205 -0.3178  0.1966
 4568TIP3    H135339   3.676   0.576   1.356 -0.4724  0.5674 -0.1484
 4568TIP3    H235340   3.752   0.481   1.265 -0.0639 -1.1428  1.8731
 4569TIP3   OH235341   5.041   3.436   7.500 -0.5210 -0.4577  0.3911
 4569TIP3    H135342   5.038   3.532   7.496 -4.0063 -0.4630 -0.2814
 4569TIP3    H235343   5.030   3.407   7.410  1.0120 -1.5460  0.5170
 4570TIP3   OH235344   0.060   1.058   0.891  0.0773  0.0803  0.4692
 4570TIP3    H135345   0.120   1.014   0.950 -0.9361 -0.4459  1.1389
 4570TIP3    H235346   0.037   0.992   0.826 -0.5649 -0.0451  0.8150
 4571TIP3   OH235347   6.716   6.571   8.763  0.0605  0.0410 -0.1763
 4571TIP3    H135348   6.669   6.642   8.805 -0.3405  0.0477 -0.6208
 4571TIP3    H235349   6.747   6.608   8.680 -1.0256 -0.5788 -0.8826
 4572TIP3   OH235350   3.062   5.341   8.078  0.1621  0.9102  0.1672
 4572TIP3    H135351   3.005   5.304   8.145  0.0929 -0.0291 -0.3924
 4572TIP3    H235352   3.139   5.283   8.077 -0.4372  0.0697 -1.5017
 4573TIP3   OH235353   5.132   3.153   0.043 -0.7038  0.0067 -0.2030
 4573TIP3    H135354   5.107   3.060   0.045 -0.7505 -0.0056 -1.0318
 4573TIP3    H235355   5.188   3.164   0.120  1.5445 -1.3508 -1.5533
 4574TIP3   OH235356   1.861   0.179   0.268  0.0590 -0.4241 -0.0094
 4574TIP3    H135357   1.923   0.212   0.202 -0.5762 -0.6094 -0.7153
 4574TIP3    H235358   1.826   0.099   0.229  0.4503 -1.1193  1.0250
 4575TIP3   OH235359   0.062   2.050   0.408 -0.6591  0.2086 -0.3112
 4575TIP3    H135360   0.155   2.063   0.426 -0.7745  0.6110 -0.0055
 4575TIP3    H235361   0.033   2.131   0.367 -0.7860 -0.0653 -0.7625
 4576TIP3   OH235362   6.044   3.712   2.695  0.3352 -0.3605  0.5105
 4576TIP3    H135363   6.113   3.723   2.760  0.9368 -0.0710 -0.1771
 4576TIP3    H235364   6.046   3.792   2.644 -0.3236 -0.4717  0.2992
 4577TIP3   OH235365   2.481   5.585   7.768 -0.1734  0.2355 -0.0096
 4577TIP3    H135366   2.421   5.523   7.726  1.5982 -0.3416 -1.8481
 4577TIP3    H235367   2.567   5.545   7.760  0.5237  1.0518  2.5437
 4578TIP3   OH235368   4.918   6.032   0.844  0.3215 -0.0298 -0.3885
 4578TIP3    H135369   4.919   6.068   0.933  0.0697  0.4890 -0.5926
 4578TIP3    H235370   4.989   6.077   0.798  1.4102 -1.3336 -0.0658
 4579TIP3   OH235371   0.202   5.056   8.052  0.1749 -0.5039 -0.3513
 4579TIP3    H135372   0.204   5.072   7.958  0.5243  1.1481 -0.0862
 4579TIP3    H235373   0.143   5.122   8.087  0.4224 -0.7901  0.6490
 4580TIP3   OH235374   6.705   3.834   8.653  0.3606 -0.2618  0.0337
 4580TIP3    H135375   6.797   3.808   8.651  0.4612  0.0225  0.6567
 4580TIP3    H235376   6.669   3.787   8.729  0.1473  0.1104  0.1657
 4581TIP3   OH235377   4.391   6.801   1.427  0.1222  0.3330  0.0810
 4581TIP3    H135378   4.324   6.851   1.474  0.3665  0.2119  0.5631
 4581TIP3    H235379   4.356   6.712   1.425 -0.2091  0.4764 -0.5800
 4582TIP3   OH235380   3.168   4.401   0.694  0.5324  0.2849  0.4600
 4582TIP3    H135381   3.097   4.402   0.630  0.5870  0.0901  0.3976
 4582TIP3    H235382   3.222   4.326   0.670  2.2727  1.9414 -1.1168
 4583TIP3   OH235383   0.178   3.042   6.556 -0.5720  0.0291 -0.2063
 4583TIP3    H135384   0.259   3.087   6.535 -1.2688  1.4198 -0.0542
 4583TIP3    H235385   0.205   2.958   6.591  1.0179  1.8233  3.3799
 4584TIP3   OH235386   1.863   6.241   1.457  0.4264 -0.0266 -0.2752
 4584TIP3    H135387   1.822   6.221   1.541  0.1392 -0.4738 -0.5181
 4584TIP3    H235388   1.817   6.186   1.394  1.6285 -0.7972 -0.5065
 4585TIP3   OH235389   3.914   5.344   7.074 -0.3204  0.0166  0.3523
 4585TIP3    H135390   3.893   5.266   7.127  1.2130 -0.2116  0.6680
 4585TIP3    H235391   3.904   5.314   6.984  1.0666 -0.8187  0.4491
 4586TIP3   OH235392   3.697   1.259   7.399  0.4012 -0.6998 -0.3719
 4586TIP3    H135393   3.753   1.182   7.413  1.1389  0.0779  1.2253
 4586TIP3    H235394   3.613   1.223   7.373  0.8464 -2.0347 -0.0390
 4587TIP3   OH235395   4.224   1.763   1.139 -0.1314  0.1274  0.0328
 4587TIP3    H135396   4.285   1.691   1.151  0.2105  0.3639 -0.2794
 4587TIP3    H235397   4.176   1.741   1.059  0.7606  0.8017 -0.6964
 4588TIP3   OH235398   2.356   2.794   8.409 -0.2769  0.1431  0.0101
 4588TIP3    H135399   2.281   2.846   8.377 -0.0425  0.4131 -0.1061
 4588TIP3    H235400   2.377   2.832   8.494 -0.1891  0.1543 -0.0165
 4589TIP3   OH235401   2.258   1.940   2.017 -0.6998 -0.4794  0.2019
 4589TIP3    H135402   2.273   1.906   1.929 -0.9180  1.1763 -0.4963
 4589TIP3    H235403   2.294   1.872   2.075  1.6435 -0.5099 -1.1832
 4590TIP3   OH235404   3.214   6.672   7.298 -0.5583  0.1541 -0.0603
 4590TIP3    H135405   3.183   6.721   7.221 -0.9276  0.8642  0.5229
 4590TIP3    H235406   3.136   6.629   7.332 -0.0688 -1.6131 -1.0920
 4591TIP3   OH235407   3.723   3.761   1.713  0.1484  0.3909 -0.0895
 4591TIP3    H135408   3.714   3.762   1.809 -0.2780 -2.0026 -0.0629
 4591TIP3    H235409   3.634   3.773   1.680  0.2801  1.0971 -0.2050
 4592TIP3   OH235410   5.687   0.754   8.439  0.2548 -0.3787 -0.0545
 4592TIP3    H135411   5.674   0.664   8.468 -0.5186 -0.2429  0.0287
 4592TIP3    H235412   5.674   0.807   8.518  3.2255 -0.3243  0.5154
 4593TIP3   OH235413   0.603   1.684   1.484  0.1852  0.2689  0.0462
 4593TIP3    H135414   0.624   1.749   1.417 -0.6016 -0.0224 -0.5060
 4593TIP3    H235415   0.535   1.726   1.538 -0.4334 -0.1266 -0.4010
 4594TIP3   OH235416   4.175   6.837   1.700 -0.0024 -0.4377  0.4193
 4594TIP3    H135417   4.204   6.926   1.723  2.3313 -0.6370 -1.3963
 4594TIP3    H235418   4.112   6.851   1.629 -0.6095 -0.1999  0.9953
 4595TIP3   OH235419   0.008   0.521   1.147 -0.0331 -0.3857  0.4172
 4595TIP3    H135420   0.067   0.534   1.221  2.1481 -0.6684 -1.1872
 4595TIP3    H235421  -0.028   0.433   1.160  1.2299 -0.9011  0.5778
 4596TIP3   OH235422   5.279   0.725   8.438 -0.0312  0.3815  0.7811
 4596TIP3    H135423   5.290   0.635   8.406 -1.6210 -1.0859  3.8843
 4596TIP3    H235424   5.206   0.719   8.500  0.1130  3.7577  1.4439
 4597TIP3   OH235425   4.051   4.891   6.681  0.2074 -0.1872  0.0864
 4597TIP3    H135426   4.019   4.829   6.747  0.5110 -0.5879 -0.1346
 4597TIP3    H235427   3.973   4.910   6.628  0.4139 -1.5911 -0.7905
 4598TIP3   OH235428   5.928   1.765   7.988 -0.9332 -0.3551 -0.5462
 4598TIP3    H135429   5.834   1.758   7.969 -1.1753 -0.1576  0.5517
 4598TIP3    H235430   5.942   1.711   8.065  0.0432 -1.1197 -1.2267
 4599TIP3   OH235431   3.936   2.316   8.344  0.4160  0.3191  0.0381
 4599TIP3    H135432   3.999   2.325   8.416 -0.0089  0.8721  0.3427
 4599TIP3    H235433   3.850   2.317   8.386  0.1924 -2.0829 -0.1945
 4600TIP3   OH235434   6.393   0.111   0.212  0.1520  0.1495 -0.5320
 4600TIP3    H135435   6.375   0.149   0.299  2.7621 -0.1433  0.2396
 4600TIP3    H235436   6.461   0.168   0.176  0.7020 -1.0419 -1.4145
 4601TIP3   OH235437   5.919   6.041   7.112  0.1611 -0.3225 -0.2635
 4601TIP3    H135438   5.936   6.088   7.194  3.6723 -0.6578 -0.6394
 4601TIP3    H235439   5.944   6.103   7.043 -0.6357 -0.8110 -1.0066
 4602TIP3   OH235440   5.240   6.504   7.809 -0.9211 -0.1863  0.0154
 4602TIP3    H135441   5.206   6.518   7.721  0.8011  1.0187 -0.4933
 4602TIP3    H235442   5.283   6.418   7.805 -2.4022 -0.9806  0.2339
 4603TIP3   OH235443   5.781   6.663   0.280 -0.3247 -0.7032 -0.0792
 4603TIP3    H135444   5.869   6.685   0.249 -0.2457  0.6227  1.0070
 4603TIP3    H235445   5.790   6.658   0.375 -1.8289  1.6031  0.2455
 4604TIP3   OH235446   4.196   6.273   1.330 -0.7689  0.4472 -0.0616
 4604TIP3    H135447   4.145   6.337   1.280 -0.2904  0.2474 -0.8147
 4604TIP3    H235448   4.176   6.189   1.290 -0.2587  0.3053 -0.0219
 4605TIP3   OH235449   4.070   3.743   0.413 -0.1495  0.4949 -0.3654
 4605TIP3    H135450   4.092   3.827   0.453  2.0348 -0.3303  0.3150
 4605TIP3    H235451   4.004   3.705   0.471 -1.1491  1.6918 -0.6747
 4606TIP3   OH235452   3.290   2.412   0.501 -0.3830  0.6068  0.2954
 4606TIP3    H135453   3.356   2.349   0.473 -2.4938 -1.1498 -1.1285
 4606TIP3    H235454   3.296   2.413   0.596  0.5570 -0.7989  0.2792
 4607TIP3   OH235455   2.921   4.935   1.291  0.0720 -0.3278  0.0335
 4607TIP3    H135456   2.836   4.959   1.252  0.4220  0.3586 -0.3291
 4607TIP3    H235457   2.952   5.017   1.330  0.9049 -0.3980 -0.4742
 4608TIP3   OH235458   0.881   4.174   1.164 -0.2682  0.4728 -1.0904
 4608TIP3    H135459   0.809   4.121   1.198  0.0721 -0.2933 -1.5373
 4608TIP3    H235460   0.932   4.197   1.242  0.2665 -0.9143 -1.0000
 4609TIP3   OH235461   2.201   0.534   7.714  0.0116  0.8096 -0.3534
 4609TIP3    H135462   2.280   0.503   7.758 -0.8897 -0.4472  0.4503
 4609TIP3    H235463   2.228   0.547   7.623  0.4967 -2.5266 -0.8135
 4610TIP3   OH235464   0.303   2.970   8.678  0.1894 -0.0289 -0.1820
 4610TIP3    H135465   0.267   2.889   8.715 -0.1358  0.6523  1.0284
 4610TIP3    H235466   0.315   2.950   8.585  0.7241 -1.6772  0.2038
 4611TIP3   OH235467   5.948   0.319   7.421  0.6733  0.0217 -0.1838
 4611TIP3    H135468   5.917   0.354   7.338  1.7186  0.3486 -0.4458
 4611TIP3    H235469   5.945   0.224   7.410 -0.0963  0.0430 -0.2423
 4612TIP3   OH235470   3.922   3.393   0.388  0.1832  0.0793 -0.1038
 4612TIP3    H135471   3.879   3.463   0.437  0.5173  1.1346 -1.2564
 4612TIP3    H235472   4.005   3.431   0.360  0.6743 -1.0176 -0.1768
 4613TIP3   OH235473   0.610   1.379   7.462  0.1291  0.0341 -0.9764
 4613TIP3    H135474   0.607   1.472   7.486  0.3534 -0.2320  0.1158
 4613TIP3    H235475   0.675   1.341   7.521 -1.0086 -1.1002 -0.4111
 4614TIP3   OH235476   5.469   1.135   1.546 -0.0332 -0.2440  0.2771
 4614TIP3    H135477   5.376   1.149   1.528 -0.3767 -1.4000  1.0461
 4614TIP3    H235478   5.511   1.140   1.460 -0.9341 -0.6349 -0.1982
 4615TIP3   OH235479   3.155   6.108   0.177 -0.5413  0.6969 -0.0983
 4615TIP3    H135480   3.067   6.109   0.216 -0.3417 -0.0278  0.4033
 4615TIP3    H235481   3.146   6.053   0.099 -0.2939 -0.3381  0.5853
 4616TIP3   OH235482   3.309   5.724   7.629 -0.8874 -0.4342 -0.1257
 4616TIP3    H135483   3.369   5.660   7.667  0.5514  0.4673 -0.7894
 4616TIP3    H235484   3.261   5.675   7.562 -0.2463 -0.9723 -0.2052
 4617TIP3   OH235485   2.651   2.109   6.811 -0.7945  0.1107 -0.0291
 4617TIP3    H135486   2.650   2.014   6.816  1.1314 -0.0307 -1.2791
 4617TIP3    H235487   2.564   2.136   6.840 -1.8171 -2.0899 -0.8896
 4618TIP3   OH235488   0.572   5.111   8.630  0.1329 -0.2745 -0.2468
 4618TIP3    H135489   0.653   5.125   8.581  0.6603  0.9780  0.9098
 4618TIP3    H235490   0.594   5.043   8.693  0.0984 -0.3747 -0.3432
 4619TIP3   OH235491   6.061   5.122   7.314 -0.3802 -0.3208 -0.0126
 4619TIP3    H135492   6.109   5.201   7.339 -0.2244 -0.3457 -0.2259
 4619TIP3    H235493   6.130   5.056   7.303 -0.2768  0.0424 -1.9418
 4620TIP3   OH235494   3.616   2.063   1.065  0.2443 -0.2293 -0.0660
 4620TIP3    H135495   3.635   2.156   1.080 -0.8657 -0.2451  1.7760
 4620TIP3    H235496   3.692   2.031   1.017  1.3396  1.3140  0.5256
 4621TIP3   OH235497   6.536   2.055   0.682  0.4862 -0.2015  0.1367
 4621TIP3    H135498   6.448   2.079   0.653  1.0942  0.7989 -0.9703
 4621TIP3    H235499   6.538   1.960   0.678 -0.1616 -0.1834 -1.0851
 4622TIP3   OH235500   3.307   6.625   0.680  0.0739 -0.0981 -0.0669
 4622TIP3    H135501   3.299   6.720   0.670 -0.8476 -0.2323 -0.7494
 4622TIP3    H235502   3.294   6.591   0.591  0.3967 -0.8640  0.1773
 4623TIP3   OH235503   2.219   5.992   1.766 -0.0607 -0.3270  0.1477
 4623TIP3    H135504   2.126   6.000   1.743  0.1718 -1.8017 -1.5080
 4623TIP3    H235505   2.231   5.899   1.787  0.7593  0.1197  1.8555
 4624TIP3   OH235506   1.945   3.219   1.998  0.0822  0.4557  0.0270
 4624TIP3    H135507   1.892   3.294   1.971  0.6947  0.8626 -0.0945
 4624TIP3    H235508   1.886   3.163   2.048 -1.0660 -0.2674 -2.0363
 4625TIP3   OH235509   0.309   0.366   6.859 -0.3608 -0.6040 -0.2938
 4625TIP3    H135510   0.240   0.398   6.801 -0.6242 -1.8516 -0.6977
 4625TIP3    H235511   0.293   0.410   6.942  0.0504  1.2442 -1.1433
 4626TIP3   OH235512   3.557   3.414   8.300  0.2730 -0.2206 -0.2554
 4626TIP3    H135513   3.613   3.338   8.315 -0.2938 -0.8858 -1.3772
 4626TIP3    H235514   3.487   3.382   8.243  0.7612  1.4511 -1.9019
 4627TIP3   OH235515   1.775   6.026   6.945 -0.1089  0.3312  0.0911
 4627TIP3    H135516   1.843   5.992   6.886  0.1850  1.4394 -0.2400
 4627TIP3    H235517   1.728   5.948   6.975  0.2858 -0.3265 -0.9355
 4628TIP3   OH235518   0.411   3.430   0.483  0.4620 -0.0344  0.1763
 4628TIP3    H135519   0.430   3.508   0.431 -0.5542 -0.4569 -0.8777
 4628TIP3    H235520   0.481   3.427   0.549  0.5030  1.7703  0.2635
 4629TIP3   OH235521   6.568   1.218   8.503 -0.6724 -0.4871  0.3548
 4629TIP3    H135522   6.587   1.169   8.423  0.7787 -1.0198  0.9974
 4629TIP3    H235523   6.654   1.247   8.535 -1.4340  2.1956  0.1988
 4630TIP3   OH235524   6.010   6.500   8.500  0.5764 -0.1466 -0.4252
 4630TIP3    H135525   5.951   6.426   8.514 -2.4237  1.4892 -3.0670
 4630TIP3    H235526   6.004   6.551   8.581 -0.6350 -0.6973 -0.1453
 4631TIP3   OH235527   2.936   6.578   1.541 -0.0365 -0.0564 -0.4744
 4631TIP3    H135528   2.987   6.656   1.520 -0.6341  0.0490 -1.6281
 4631TIP3    H235529   2.892   6.555   1.459 -1.9489 -0.0510  0.4910
 4632TIP3   OH235530   4.610   1.346   6.608  0.2498 -0.4236  0.1768
 4632TIP3    H135531   4.646   1.359   6.520  0.7511 -1.4257  0.2177
 4632TIP3    H235532   4.542   1.280   6.596 -0.6378  0.4478  0.3312
 4633TIP3   OH235533   5.514   0.801   0.638 -0.6320 -0.2786  0.1425
 4633TIP3    H135534   5.552   0.716   0.662 -0.7439 -1.0244 -2.0532
 4633TIP3    H235535   5.578   0.865   0.667  0.6548 -1.3019 -0.3114
 4634TIP3   OH235536   5.100   2.348   1.109  0.4722  0.2211  0.0894
 4634TIP3    H135537   5.127   2.339   1.201 -1.0241  1.5387  0.7132
 4634TIP3    H235538   5.041   2.424   1.109 -0.2904 -0.3134 -1.8123
 4635TIP3   OH235539   3.389   3.488   7.765  0.5389  0.2099  0.7414
 4635TIP3    H135540   3.452   3.559   7.775 -0.1157  0.6571  2.0598
 4635TIP3    H235541   3.312   3.518   7.814 -0.2291 -0.8572  0.2302
 4636TIP3   OH235542   6.747   3.427   0.472 -0.0442 -0.0539 -0.3103
 4636TIP3    H135543   6.744   3.519   0.496  1.1494  0.5093 -2.2017
 4636TIP3    H235544   6.829   3.416   0.424  1.3345 -2.7655  2.3367
 4637TIP3   OH235545   2.612   4.375   8.228  0.2126 -0.0593  0.3308
 4637TIP3    H135546   2.523   4.366   8.260 -0.0405 -1.7232 -0.7249
 4637TIP3    H235547   2.629   4.294   8.180  1.3571  1.3054 -1.7407
 4638TIP3   OH235548   5.838   4.819   1.646  0.0103  0.0529 -0.4485
 4638TIP3    H135549   5.811   4.738   1.603  1.5997 -0.4922 -0.4998
 4638TIP3    H235550   5.914   4.794   1.699  1.2355  1.6950 -1.3328
 4639TIP3   OH235551   6.283   5.150   8.058  0.4704  0.4031  0.2976
 4639TIP3    H135552   6.233   5.197   7.991  0.9909 -0.4114 -0.6913
 4639TIP3    H235553   6.318   5.220   8.114 -0.1222  1.0952 -0.1671
 4640TIP3   OH235554   6.857   4.068   1.364  0.6176 -0.4790  0.5011
 4640TIP3    H135555   6.936   4.037   1.321 -0.2978 -1.9954 -0.1853
 4640TIP3    H235556   6.788   4.061   1.298  0.0647  1.8774  0.7211
 4641TIP3   OH235557   0.039   2.921   0.824  0.1809  0.2130 -0.3539
 4641TIP3    H135558   0.117   2.878   0.787  1.8072  2.6078  0.0743
 4641TIP3    H235559   0.002   2.856   0.883  3.5584 -0.1033  1.6677
 4642TIP3   OH235560   6.133   4.541   8.511  0.0504  0.1886 -0.3072
 4642TIP3    H135561   6.128   4.495   8.595 -1.0920  2.0156  0.7088
 4642TIP3    H235562   6.045   4.532   8.474  0.2128  0.3879 -0.7363
 4643TIP3   OH235563   1.761   1.769   8.237  0.0422 -0.0080 -0.1072
 4643TIP3    H135564   1.856   1.770   8.248  0.2939 -1.5220 -1.7560
 4643TIP3    H235565   1.733   1.684   8.272 -0.6113  0.1439 -0.2365
 4644TIP3   OH235566   0.361   1.132   0.547  0.6249 -0.7973  0.2216
 4644TIP3    H135567   0.412   1.185   0.485 -0.5851 -0.0350 -0.1511
 4644TIP3    H235568   0.420   1.119   0.621  1.3363  0.1500 -0.1604
 4645TIP3   OH235569   4.016   5.913   6.324 -0.1459 -0.0031 -0.0412
 4645TIP3    H135570   4.059   5.829   6.309 -2.7887 -1.6400  0.7423
 4645TIP3    H235571   4.075   5.960   6.383  2.0352 -0.6957 -1.5560
 4646TIP3   OH235572   3.882   4.788   2.162 -0.2387  0.2824  0.2890
 4646TIP3    H135573   3.928   4.864   2.198  0.8299  0.6916 -1.8116
 4646TIP3    H235574   3.951   4.733   2.126 -0.9786 -1.8416  1.9087
 4647TIP3   OH235575   0.180   6.549   7.022  0.2173  0.1206  0.0198
 4647TIP3    H135576   0.267   6.558   6.982  0.2773 -2.4354 -0.6155
 4647TIP3    H235577   0.188   6.472   7.079 -1.8787 -0.8796 -0.9190
 4648TIP3   OH235578   2.335   2.756   0.983 -0.7090  0.0450  0.0656
 4648TIP3    H135579   2.406   2.810   1.018 -1.4717  0.7864  0.5046
 4648TIP3    H235580   2.367   2.666   0.994  0.4889  0.3797 -0.4813
 4649TIP3   OH235581   6.213   6.087   7.244 -0.2571 -0.7207 -0.0754
 4649TIP3    H135582   6.271   6.017   7.214  0.2876 -0.8082  1.1191
 4649TIP3    H235583   6.149   6.042   7.300 -0.8169 -0.4610 -0.4913
 4650TIP3   OH235584   2.819   6.300   0.570 -0.1090  0.4258 -0.3699
 4650TIP3    H135585   2.729   6.327   0.588 -0.4196 -0.5278 -0.4112
 4650TIP3    H235586   2.868   6.382   0.560 -0.7799  0.9539  0.5670
 4651TIP3   OH235587   5.831   1.439   8.117  0.0498 -0.2404  0.5558
 4651TIP3    H135588   5.737   1.428   8.126 -0.4582  1.7087 -1.4653
 4651TIP3    H235589   5.852   1.515   8.172  0.0559  0.5258 -0.4670
 4652TIP3   OH235590   1.904   5.720   1.735  0.5441 -0.4116 -0.1153
 4652TIP3    H135591   1.828   5.703   1.680 -0.0638  0.8815  0.2958
 4652TIP3    H235592   1.900   5.652   1.803 -0.3997 -0.2029  0.0508
 4653TIP3   OH235593   4.971   3.771   8.634  0.4842  0.3864 -0.1001
 4653TIP3    H135594   4.974   3.867   8.641 -0.0427  0.4851 -1.0640
 4653TIP3    H235595   4.883   3.753   8.602  0.5581 -0.4325  0.1487
 4654TIP3   OH235596   6.536   0.838   8.670  0.5001  0.3368 -0.0913
 4654TIP3    H135597   6.625   0.872   8.677  0.9522 -0.9996  1.3241
 4654TIP3    H235598   6.532   0.798   8.583  0.8769  1.4350 -0.6246
 4655TIP3   OH235599   5.586   3.637   7.655  0.2782  0.3480  0.4494
 4655TIP3    H135600   5.669   3.648   7.609  0.0476  0.4816  0.0652
 4655TIP3    H235601   5.569   3.542   7.652  0.0716  0.3968 -0.0863
 4656TIP3   OH235602   0.485   5.659   7.191 -0.0531  0.1123 -0.3568
 4656TIP3    H135603   0.544   5.591   7.158 -0.1986  0.3085 -1.0345
 4656TIP3    H235604   0.400   5.616   7.196 -0.0598  0.1231 -0.3790
 4657TIP3   OH235605   0.729   4.611   1.216  0.0262 -0.7069  0.1763
 4657TIP3    H135606   0.723   4.547   1.145 -0.3711 -0.7849  0.2772
 4657TIP3    H235607   0.779   4.566   1.284 -1.3074 -1.3913  0.7459
 4658TIP3   OH235608   3.723   6.061   1.086 -0.1378 -0.4621  0.4292
 4658TIP3    H135609   3.653   6.126   1.080  0.1868 -0.1639 -0.2108
 4658TIP3    H235610   3.773   6.087   1.164  0.6187  0.6971 -0.4156
 4659TIP3   OH235611   3.167   2.313   1.502 -0.1046 -0.0583 -0.1836
 4659TIP3    H135612   3.166   2.383   1.437 -0.5992  1.8114  1.7278
 4659TIP3    H235613   3.258   2.307   1.529 -0.2639  0.8977  0.6511
 4660TIP3   OH235614   1.928   2.009   1.426 -0.1792  0.3138  0.2684
 4660TIP3    H135615   1.942   2.031   1.334 -1.6192  2.8390  0.5746
 4660TIP3    H235616   2.002   1.952   1.448  1.5381  1.5790 -1.8266
 4661TIP3   OH235617   2.783   4.321   0.056 -0.2809  0.1283 -0.1082
 4661TIP3    H135618   2.711   4.318  -0.007 -0.6058  0.1625  0.2625
 4661TIP3    H235619   2.769   4.245   0.112  0.1987 -0.0913 -0.2768
 4662TIP3   OH235620   6.564   3.974   2.287 -0.3747  0.2209  0.3956
 4662TIP3    H135621   6.504   4.047   2.274 -1.1394 -0.1554  1.6243
 4662TIP3    H235622   6.545   3.943   2.376  0.6862 -0.7846  0.2982
 4663TIP3   OH235623   1.275   0.673   1.805  0.0646 -0.2038  0.1048
 4663TIP3    H135624   1.218   0.676   1.882  0.6059  0.6803  0.4977
 4663TIP3    H235625   1.323   0.590   1.814 -0.0686 -0.2345  0.5881
 4664TIP3   OH235626   6.793   3.464   8.141 -0.0302 -0.1367  0.5206
 4664TIP3    H135627   6.702   3.466   8.172 -0.4548  0.6889 -0.6992
 4664TIP3    H235628   6.821   3.374   8.155 -1.1334 -0.4723  0.6454
 4665TIP3   OH235629   4.583   6.294   0.046  0.6742  0.1154 -0.1216
 4665TIP3    H135630   4.677   6.287   0.032  1.0193  1.4075  1.2499
 4665TIP3    H235631   4.570   6.259   0.135  0.1565  1.6085  0.4206
 4666TIP3   OH235632   3.903   2.632   8.234 -0.0779 -0.0202 -0.3146
 4666TIP3    H135633   3.968   2.572   8.197 -0.0049 -0.4987  0.5496
 4666TIP3    H235634   3.912   2.621   8.329 -1.0971  0.2483 -0.1768
 4667TIP3   OH235635   1.645   5.984   7.506 -0.5365  0.8477 -0.2047
 4667TIP3    H135636   1.693   5.902   7.497 -1.3029  0.5338 -1.8150
 4667TIP3    H235637   1.705   6.043   7.552  0.8561  0.0641 -0.9666
 4668TIP3   OH235638   2.805   3.791   7.453  0.4758  0.7858  0.0623
 4668TIP3    H135639   2.810   3.870   7.508 -1.3202  0.3039  0.9895
 4668TIP3    H235640   2.712   3.778   7.439  0.7303 -1.2113 -0.0097
 4669TIP3   OH235641   1.310   6.697   6.269  0.2005 -0.3975 -0.2978
 4669TIP3    H135642   1.334   6.773   6.216  0.8496 -0.6270 -0.3321
 4669TIP3    H235643   1.302   6.626   6.206 -0.1498 -0.4197 -0.2310
 4670TIP3   OH235644   1.049   5.605   7.498 -0.5465 -0.5686  0.8626
 4670TIP3    H135645   0.964   5.570   7.525 -0.5143  0.5619  2.6045
 4670TIP3    H235646   1.031   5.656   7.419 -1.4412 -0.5503  1.0769
 4671TIP3   OH235647   1.547   2.733   1.126  0.5342 -0.1775 -0.4583
 4671TIP3    H135648   1.580   2.664   1.183  1.0806  1.8655  1.8540
 4671TIP3    H235649   1.477   2.691   1.075  1.5915 -2.6646  0.0113
 4672TIP3   OH235650   1.494   0.561   8.627 -0.2772 -0.3256 -0.1903
 4672TIP3    H135651   1.450   0.596   8.705 -0.0757  0.3468 -0.3739
 4672TIP3    H235652   1.564   0.505   8.662 -1.6616 -1.9486  0.1146
 4673TIP3   OH235653   0.973   0.991   7.289 -0.0534  0.0524 -0.0361
 4673TIP3    H135654   0.941   0.905   7.263  1.0065 -1.8583  4.0666
 4673TIP3    H235655   1.061   0.997   7.250 -0.0629 -0.8223 -0.2163
 4674TIP3   OH235656   4.850   3.734   1.187  0.2604 -0.0899 -0.7722
 4674TIP3    H135657   4.879   3.661   1.242 -0.6255 -1.1599 -1.6823
 4674TIP3    H235658   4.766   3.761   1.224  0.7021  0.6690 -0.2834
 4675TIP3   OH235659   5.950   1.041   1.646 -0.2595  0.0400  0.2227
 4675TIP3    H135660   5.984   1.047   1.557  0.4617  0.4544  0.5150
 4675TIP3    H235661   5.978   0.955   1.677 -0.2959 -0.0026  0.1369
 4676TIP3   OH235662   3.074   0.015   8.170 -0.1456  0.5616  0.2365
 4676TIP3    H135663   3.073   0.107   8.142 -1.1014  0.6083  0.4196
 4676TIP3    H235664   2.985  -0.003   8.198  0.3384 -0.0522  1.4443
 4677TIP3   OH235665   5.785   6.470   6.654  0.2821 -0.3083  0.0201
 4677TIP3    H135666   5.837   6.481   6.733  1.0957  0.5614 -0.6154
 4677TIP3    H235667   5.701   6.510   6.675  0.7523  0.6127  0.2013
 4678TIP3   OH235668   4.176   2.542   8.398  0.2305 -0.1156 -0.1690
 4678TIP3    H135669   4.262   2.517   8.432 -0.1630 -0.8539  0.3068
 4678TIP3    H235670   4.115   2.478   8.436 -0.4677  0.1203 -0.8577
 4679TIP3   OH235671   6.750   0.234   0.189 -0.2433 -0.2943  0.1071
 4679TIP3    H135672   6.750   0.205   0.280  0.3321 -1.1187 -0.1370
 4679TIP3    H235673   6.762   0.329   0.193 -0.4641 -0.2965  0.8908
 4680TIP3   OH235674   5.954   5.302   1.047  0.1937  0.3269  0.0453
 4680TIP3    H135675   5.885   5.367   1.036 -1.7621 -1.4067  1.1340
 4680TIP3    H235676   5.936   5.236   0.981  0.2864 -0.5479  0.8622
 4681TIP3   OH235677   6.431   5.479   1.037 -0.9708 -0.2356  0.2910
 4681TIP3    H135678   6.398   5.441   0.956  0.0793  0.0708 -0.3053
 4681TIP3    H235679   6.523   5.498   1.019 -0.6960 -0.2345  1.5861
 4682TIP3   OH235680   5.515   6.441   1.519  0.3356 -0.0177 -0.3404
 4682TIP3    H135681   5.472   6.375   1.573 -2.6421  1.3327 -0.8909
 4682TIP3    H235682   5.574   6.390   1.463 -1.0087 -2.0944 -0.0005
 4683TIP3   OH235683   0.882   3.122   1.968  0.3331  0.2345  0.0772
 4683TIP3    H135684   0.896   3.045   2.023 -0.1108 -0.6437 -0.9916
 4683TIP3    H235685   0.808   3.098   1.913  0.0481  1.5272 -0.1196
 4684TIP3   OH235686   5.503   6.351   2.267 -0.1610  0.7595  0.0096
 4684TIP3    H135687   5.431   6.314   2.318 -1.3975 -0.7361 -2.5819
 4684TIP3    H235688   5.466   6.431   2.229  0.2760  1.1368  0.3773
 4685TIP3   OH235689   5.548   0.150   7.142  0.2532 -0.5558  0.2274
 4685TIP3    H135690   5.500   0.069   7.159  0.3283 -0.6476  0.0047
 4685TIP3    H235691   5.510   0.185   7.062 -1.3937  0.8620  1.5386
 4686TIP3   OH235692   1.693   4.328   0.817  0.7455  0.1190  0.7627
 4686TIP3    H135693   1.683   4.416   0.853  0.1196 -0.0979  1.1359
 4686TIP3    H235694   1.661   4.335   0.727 -0.9319 -0.0853  1.3001
 4687TIP3   OH235695   4.837   6.502   0.799  0.3726  0.3759  0.2339
 4687TIP3    H135696   4.881   6.584   0.819 -0.5118  0.7864  0.5641
 4687TIP3    H235697   4.825   6.459   0.884  0.7949 -0.0891  0.0685
 4688TIP3   OH235698   2.429   0.399   0.451 -0.1665 -0.4370 -0.2270
 4688TIP3    H135699   2.407   0.487   0.419  1.1893 -0.1895 -0.5400
 4688TIP3    H235700   2.423   0.407   0.546 -1.6112 -0.4542 -0.2952
 4689TIP3   OH235701   1.969   6.290   0.679  0.4420 -0.1243 -0.1222
 4689TIP3    H135702   1.971   6.220   0.615 -0.3429  1.1718 -1.6508
 4689TIP3    H235703   1.888   6.276   0.729  0.6935 -0.7318  0.1212
 4690TIP3   OH235704   0.726   2.357   6.981  0.8306  0.2701  0.6246
 4690TIP3    H135705   0.754   2.282   7.034  2.1941  1.5646  1.8328
 4690TIP3    H235706   0.787   2.358   6.908  1.1461  0.4815  0.8853
 4691TIP3   OH235707   2.358   3.107   7.963 -0.5693 -0.2238 -0.2610
 4691TIP3    H135708   2.283   3.135   7.909 -0.9384 -1.1652 -0.2628
 4691TIP3    H235709   2.435   3.131   7.911 -0.9137 -0.7905 -1.0519
 4692TIP3   OH235710   5.678   6.457   1.196  0.1606 -0.3315 -0.6457
 4692TIP3    H135711   5.700   6.541   1.156 -1.6081  0.9360  0.8610
 4692TIP3    H235712   5.624   6.412   1.131 -0.5930  0.6005 -0.6804
 4693TIP3   OH235713   0.325   1.142   8.204 -0.4705 -0.0886  0.4507
 4693TIP3    H135714   0.264   1.121   8.134 -0.4665 -0.8436  0.6716
 4693TIP3    H235715   0.274   1.135   8.285  0.4345 -3.1865  0.8725
 4694TIP3   OH235716   1.328   0.010   7.672  0.2370  0.0985 -0.8373
 4694TIP3    H135717   1.265   0.009   7.744 -0.9715 -0.3367 -1.8806
 4694TIP3    H235718   1.367   0.098   7.676 -0.3315  0.3284 -0.1129
 4695TIP3   OH235719   4.351   5.476   7.634  0.1872 -0.5660 -0.1061
 4695TIP3    H135720   4.291   5.520   7.573 -0.0578 -2.0430 -0.9752
 4695TIP3    H235721   4.310   5.489   7.720  0.5091  1.4992 -0.2017
 4696TIP3   OH235722   5.444   3.199   1.830 -0.1644  0.0997  0.7801
 4696TIP3    H135723   5.443   3.130   1.763  1.0382  1.0298 -0.2641
 4696TIP3    H235724   5.356   3.236   1.827 -0.5171 -0.7117  0.6481
 4697TIP3   OH235725   0.378   4.317   1.419 -0.6397 -0.1709 -0.3504
 4697TIP3    H135726   0.461   4.291   1.380 -0.4814  1.2581 -0.9919
 4697TIP3    H235727   0.384   4.411   1.431 -2.2908  0.0213 -0.7342
 4698TIP3   OH235728   0.626   1.992   1.779  0.4476  0.2082 -0.1642
 4698TIP3    H135729   0.684   1.926   1.818 -0.2637 -1.7684 -2.2720
 4698TIP3    H235730   0.685   2.058   1.743  1.2173 -0.0117  0.6510
 4699TIP3   OH235731   3.752   2.241   1.665 -0.7956  0.0605  0.2079
 4699TIP3    H135732   3.846   2.249   1.678 -0.6337 -1.1791 -0.0329
 4699TIP3    H235733   3.737   2.278   1.578 -0.3426 -0.7562 -0.2318
 4700TIP3   OH235734   1.255   6.412   6.256 -0.1661  0.1054 -0.3181
 4700TIP3    H135735   1.203   6.429   6.335 -1.1855 -0.3083 -0.8890
 4700TIP3    H235736   1.239   6.320   6.236  2.2941 -0.6035  0.5646
 4701TIP3   OH235737   4.075   6.416   0.847  0.3901  0.6141 -0.2202
 4701TIP3    H135738   4.086   6.321   0.860  0.6507  0.6161 -0.4132
 4701TIP3    H235739   4.012   6.422   0.775  0.7658  0.5794 -0.5576
 4702TIP3   OH235740   1.432   3.854   0.198  0.1419 -0.2622 -0.9601
 4702TIP3    H135741   1.360   3.845   0.136  0.1479 -0.6401 -0.9158
 4702TIP3    H235742   1.453   3.947   0.199 -0.9767  0.0001 -0.2623
 4703TIP3   OH235743   2.389   1.029   7.866  0.4573  0.0952 -0.0851
 4703TIP3    H135744   2.437   1.012   7.947  1.2535  0.0849 -0.5533
 4703TIP3    H235745   2.413   1.118   7.842  0.5079 -0.0302 -0.5040
 4704TIP3   OH235746   3.398   1.126   0.796  0.6440 -0.0895 -0.5089
 4704TIP3    H135747   3.427   1.202   0.847  0.8522 -1.7936  2.1071
 4704TIP3    H235748   3.327   1.159   0.741 -0.1612  1.7572  1.4951
 4705TIP3   OH235749   6.479   4.866   8.671  0.1493  0.2225  0.1815
 4705TIP3    H135750   6.430   4.812   8.610  0.0454  1.6851 -1.0956
 4705TIP3    H235751   6.567   4.872   8.633  1.1784 -1.7378  2.0403
 4706TIP3   OH235752   6.784   3.131   0.974  0.4555  0.2086 -0.2454
 4706TIP3    H135753   6.764   3.208   0.921 -0.3288 -0.1027 -0.4208
 4706TIP3    H235754   6.840   3.077   0.918  1.1075  0.7002 -0.0746
 4707TIP3   OH235755   4.208   1.724   2.710  0.0585 -0.6442 -0.4386
 4707TIP3    H135756   4.237   1.781   2.639 -1.5629  0.9286  0.1045
 4707TIP3    H235757   4.124   1.760   2.738 -0.4113 -2.5382  0.8222
 4708TIP3   OH235758   4.182   3.429   1.319 -0.0138  0.1202  0.3449
 4708TIP3    H135759   4.196   3.364   1.388  1.2075 -1.4614 -1.2792
 4708TIP3    H235760   4.098   3.470   1.341 -0.2948 -1.2490  2.0334
 4709TIP3   OH235761   4.334   2.050   0.223  0.1611  0.5670 -0.4201
 4709TIP3    H135762   4.368   2.122   0.171  1.6350  0.9000  0.9406
 4709TIP3    H235763   4.317   2.087   0.309  1.1019 -0.6980  0.3606
 4710TIP3   OH235764   1.273   2.544   7.871 -0.2164  1.1797 -0.0900
 4710TIP3    H135765   1.320   2.627   7.880 -0.0422  0.9965  0.7692
 4710TIP3    H235766   1.206   2.547   7.940 -0.1429  0.5631  0.0115
 4711TIP3   OH235767   3.155   6.040   0.566 -0.6203  0.8104 -0.4569
 4711TIP3    H135768   3.237   5.995   0.585  0.0615  2.0735 -0.3236
 4711TIP3    H235769   3.106   6.034   0.648 -0.3427  0.7242 -0.2957
 4712TIP3   OH235770   2.947   0.988   8.391 -0.2902  0.3123  0.3305
 4712TIP3    H135771   2.916   0.912   8.340 -1.0498  0.5132  0.4848
 4712TIP3    H235772   2.892   1.060   8.361  0.1090  0.7004  0.5355
 4713TIP3   OH235773   3.331   2.539   1.115  0.2406  0.2720 -0.6160
 4713TIP3    H135774   3.304   2.463   1.063 -0.0079  1.0212 -1.6001
 4713TIP3    H235775   3.424   2.549   1.096  0.2967  0.1490 -0.4042
 4714TIP3   OH235776   4.673   4.164   8.739 -0.2329  0.3147 -0.3143
 4714TIP3    H135777   4.632   4.159   8.826 -0.1243  1.1552 -0.2048
 4714TIP3    H235778   4.622   4.104   8.685  0.2328 -0.8730  0.5331
 4715TIP3   OH235779   2.445   6.272   0.888 -0.1971 -0.1728 -0.5327
 4715TIP3    H135780   2.483   6.274   0.800 -1.4424 -2.3766 -1.1778
 4715TIP3    H235781   2.352   6.253   0.874 -0.1846 -1.8807  1.2954
 4716TIP3   OH235782   5.038   6.338   0.146  0.1031  0.0245  0.1568
 4716TIP3    H135783   5.114   6.391   0.123  0.6108 -0.6199  0.3282
 4716TIP3    H235784   5.030   6.348   0.241 -0.9506  1.3034 -0.0483
 4717TIP3   OH235785   3.114   6.472   8.732  0.2598 -0.1038 -0.2459
 4717TIP3    H135786   3.025   6.494   8.761  0.4388 -1.1182  1.2271
 4717TIP3    H235787   3.154   6.430   8.809  1.3906 -1.3494 -1.4622
 4718TIP3   OH235788   4.253   1.810   0.600 -0.2501 -0.0031 -0.2675
 4718TIP3    H135789   4.255   1.804   0.505  0.2275  0.1807 -0.2691
 4718TIP3    H235790   4.333   1.766   0.629  0.7165  1.8100 -0.0503
 4719TIP3   OH235791   4.087   5.824   6.981 -0.3765 -0.4977  0.3381
 4719TIP3    H135792   4.087   5.876   6.901  0.3157  1.4206  1.4848
 4719TIP3    H235793   4.001   5.839   7.020 -1.1042 -2.2617 -0.4965
 4720TIP3   OH235794   4.075   1.349   8.557  0.6073 -0.1062  0.1332
 4720TIP3    H135795   4.049   1.379   8.470  0.2483 -0.8033 -0.0080
 4720TIP3    H235796   4.045   1.419   8.616 -1.0704 -0.5971 -0.0916
 4721TIP3   OH235797   6.465   3.036   8.010 -0.8868  0.5478  0.1147
 4721TIP3    H135798   6.537   3.052   8.070  1.1509 -3.0370 -1.0719
 4721TIP3    H235799   6.427   3.122   7.994  0.8639  2.1296  3.4945
 4722TIP3   OH235800   5.685   3.819   1.542  0.1270  0.3771  0.5071
 4722TIP3    H135801   5.769   3.865   1.538 -0.1336  0.7893 -0.3537
 4722TIP3    H235802   5.682   3.782   1.631  2.0671 -1.2975 -0.0711
 4723TIP3   OH235803   2.061   2.935   6.900  0.2369  0.2861 -0.1561
 4723TIP3    H135804   2.053   2.845   6.868 -0.0107  0.2668 -0.0467
 4723TIP3    H235805   1.982   2.948   6.952  0.6375  0.3126  0.4541
 4724TIP3   OH235806   4.297   3.538   7.987  0.3045 -0.7870 -0.4536
 4724TIP3    H135807   4.273   3.447   7.972 -1.5517 -0.1731 -1.4502
 4724TIP3    H235808   4.276   3.553   8.080  0.0564 -1.2094 -0.4367
 4725TIP3   OH235809   6.701   1.723   8.353  0.1471  0.2079  0.0796
 4725TIP3    H135810   6.740   1.684   8.275 -0.5718 -2.2283  0.8377
 4725TIP3    H235811   6.620   1.764   8.322  1.1697  1.6240 -0.8230
 4726TIP3   OH235812   2.866   5.331   7.890  0.0058 -0.3054 -0.1033
 4726TIP3    H135813   2.922   5.315   7.967 -1.0128  1.4211  1.0648
 4726TIP3    H235814   2.809   5.403   7.917 -1.5147 -0.7638 -1.9205
 4727TIP3   OH235815   2.773   4.126   0.254 -0.0345  0.6426  0.3705
 4727TIP3    H135816   2.849   4.069   0.247 -0.6987 -0.1462 -0.8406
 4727TIP3    H235817   2.763   4.142   0.348  0.5944 -0.6724  0.6837
 4728TIP3   OH235818   3.801   0.370   8.002  0.1716 -0.3357  0.3381
 4728TIP3    H135819   3.768   0.333   8.084  2.4664 -0.3539  1.3141
 4728TIP3    H235820   3.729   0.356   7.940 -0.8357 -2.2436  1.7908
 4729TIP3   OH235821   3.124   3.734   1.094  0.0680  0.1518  0.5337
 4729TIP3    H135822   3.168   3.665   1.045  0.3312  0.7961 -0.1612
 4729TIP3    H235823   3.190   3.765   1.156 -0.2603 -0.6534  1.3011
 4730TIP3   OH235824   3.579   1.574   6.875 -0.3040  0.2903 -0.1804
 4730TIP3    H135825   3.604   1.604   6.788  0.1701  0.8865  0.1523
 4730TIP3    H235826   3.545   1.486   6.862  0.7295 -0.0219 -0.8393
 4731TIP3   OH235827   0.729   2.381   2.121  0.4655  0.3626 -0.1852
 4731TIP3    H135828   0.766   2.292   2.124  0.7419  0.4960  1.6212
 4731TIP3    H235829   0.805   2.438   2.113  0.5676  0.5381  1.5576
 4732TIP3   OH235830   5.514   6.479   6.985 -0.4857 -0.5377  0.2831
 4732TIP3    H135831   5.527   6.503   6.893  1.0023 -0.0604  0.5922
 4732TIP3    H235832   5.585   6.523   7.032 -1.5057 -0.3597  1.7431
 4733TIP3   OH235833   1.222   6.499   6.648 -0.6009 -0.0906 -0.2390
 4733TIP3    H135834   1.146   6.476   6.593 -1.0741  0.0724  0.3302
 4733TIP3    H235835   1.183   6.519   6.734  0.0310  0.6598 -0.1282
 4734TIP3   OH235836   3.074   0.080   7.735 -0.2482  0.0917 -0.4129
 4734TIP3    H135837   3.084   0.050   7.645  0.0999 -0.9915 -0.0258
 4734TIP3    H235838   3.025   0.010   7.778  1.6786 -0.5520  0.8275
 4735TIP3   OH235839   5.650   4.677   7.125  0.4271  0.2058  0.8173
 4735TIP3    H135840   5.735   4.708   7.096 -1.2359  2.4901 -2.2105
 4735TIP3    H235841   5.630   4.602   7.069  0.3524 -0.2143  1.3937
 4736TIP3   OH235842   2.725   5.236   7.333  0.4820  0.4213  0.1375
 4736TIP3    H135843   2.682   5.188   7.405 -0.7651  0.2595 -0.6805
 4736TIP3    H235844   2.776   5.169   7.287  1.1855  0.5015  0.7854
 4737TIP3   OH235845   1.305   1.512   1.025 -0.1328  0.5836 -0.4834
 4737TIP3    H135846   1.213   1.527   1.003  0.1737  0.8418 -1.6627
 4737TIP3    H235847   1.320   1.420   1.003 -1.2166 -0.8352  3.8805
 4738TIP3   OH235848   4.494   0.615   7.741 -0.4696 -0.2635 -0.2245
 4738TIP3    H135849   4.481   0.666   7.661 -1.8493 -0.8051 -0.3630
 4738TIP3    H235850   4.586   0.590   7.739 -0.4680 -0.2020 -1.6080
 4739TIP3   OH235851   5.051   5.262   1.333 -0.3565 -0.0151  0.3020
 4739TIP3    H135852   5.094   5.339   1.296 -0.7803  0.6799  1.2092
 4739TIP3    H235853   4.995   5.297   1.403  0.8422 -1.3050  1.9843
 4740TIP3   OH235854   4.477   4.152   0.412  0.7940 -0.4147 -0.2715
 4740TIP3    H135855   4.418   4.210   0.460 -0.1673 -2.0370  0.6265
 4740TIP3    H235856   4.565   4.182   0.435  0.3255 -0.0509  1.1355
 4741TIP3   OH235857   6.725   2.017   1.303 -0.1354 -0.4680  0.4660
 4741TIP3    H135858   6.812   2.044   1.332  0.4162 -2.6841  1.0452
 4741TIP3    H235859   6.671   2.095   1.316  1.5369  0.6681  1.0071
 4742TIP3   OH235860   4.272   4.102   6.707 -0.4750 -0.2526  0.4140
 4742TIP3    H135861   4.227   4.052   6.775  1.3665 -1.0019  1.1252
 4742TIP3    H235862   4.360   4.066   6.703  0.6594  2.2937  0.2831
 4743TIP3   OH235863   1.685   2.173   8.200  0.3726  0.8003 -0.0693
 4743TIP3    H135864   1.734   2.197   8.121 -0.5156  1.8070 -0.3526
 4743TIP3    H235865   1.600   2.217   8.189 -0.1330  0.1248  0.9802
 4744TIP3   OH235866   0.593   6.648   0.709  0.0818 -0.0886  0.3601
 4744TIP3    H135867   0.541   6.644   0.629 -1.5783  0.6282  1.3447
 4744TIP3    H235868   0.675   6.690   0.682  0.1996 -1.2612 -1.2442
 4745TIP3   OH235869   5.642   4.999   8.134  0.1717 -0.3903 -0.3069
 4745TIP3    H135870   5.649   4.985   8.229  3.9675 -1.4519 -0.6057
 4745TIP3    H235871   5.582   5.073   8.126  0.3163  0.2567  2.9793
 4746TIP3   OH235872   2.698   5.115   7.852 -0.1429 -0.3668 -0.5396
 4746TIP3    H135873   2.758   5.046   7.880  1.0046  0.4624 -0.8541
 4746TIP3    H235874   2.748   5.196   7.862 -0.7068  0.2301 -2.1176
 4747TIP3   OH235875   3.429   4.018   1.158 -0.5064 -0.1428 -0.1013
 4747TIP3    H135876   3.453   3.925   1.157  2.5560  0.5394  0.4965
 4747TIP3    H235877   3.439   4.047   1.067  0.4928  0.0146  0.0510
 4748TIP3   OH235878   4.761   0.642   8.192  0.0159 -0.1980  0.2656
 4748TIP3    H135879   4.850   0.668   8.217 -0.2061 -0.1005  0.9620
 4748TIP3    H235880   4.704   0.686   8.255 -0.5291 -0.2842 -0.1607
 4749TIP3   OH235881   0.862   2.793   7.888  0.7795 -0.1559 -0.2240
 4749TIP3    H135882   0.955   2.801   7.870  0.7106  0.9371 -0.1458
 4749TIP3    H235883   0.820   2.803   7.803  0.5925  2.3963  0.1141
 4750TIP3   OH235884   3.449   0.179   1.079  0.0886 -0.1604 -0.0662
 4750TIP3    H135885   3.399   0.147   1.154  0.3905 -2.2181 -0.6583
 4750TIP3    H235886   3.535   0.137   1.088  1.5144  2.6817  0.5179
 4751TIP3   OH235887   5.175   5.630   1.093 -0.0285 -0.2726 -0.5960
 4751TIP3    H135888   5.166   5.691   1.019  0.7415 -1.2394 -1.5212
 4751TIP3    H235889   5.173   5.686   1.170 -1.3256  0.7304 -1.3150
 4752TIP3   OH235890   6.001   0.401   7.705  0.3285  0.1094 -0.3033
 4752TIP3    H135891   5.974   0.417   7.614 -0.4044  0.2718 -0.0649
 4752TIP3    H235892   6.019   0.307   7.707  1.5383  0.3081 -0.9100
 4753TIP3   OH235893   2.636   5.874   7.493 -0.6535 -0.5213 -0.0189
 4753TIP3    H135894   2.560   5.838   7.537  0.2806 -2.7642 -0.1071
 4753TIP3    H235895   2.628   5.844   7.402  0.6992 -1.4909  0.1492
 4754TIP3   OH235896   6.783   1.455   6.824 -0.1944  0.2042  0.4526
 4754TIP3    H135897   6.749   1.395   6.758 -0.5629 -0.4996  1.2691
 4754TIP3    H235898   6.867   1.485   6.790 -1.1080  1.1299 -1.1033
 4755TIP3   OH235899   0.823   4.724   7.155 -0.0154 -0.2152 -0.0132
 4755TIP3    H135900   0.808   4.652   7.095 -0.5897 -0.6932  0.6879
 4755TIP3    H235901   0.793   4.802   7.107  1.1848 -0.3297 -1.0067
 4756TIP3   OH235902   1.103   4.077   0.235  0.6137  0.4791 -0.6146
 4756TIP3    H135903   1.165   4.078   0.307  0.3171 -0.1848 -0.3407
 4756TIP3    H235904   1.120   3.994   0.190  0.8803  0.9374 -1.3873
 4757TIP3   OH235905   1.775   4.706   7.765 -0.1156 -0.1440  0.1019
 4757TIP3    H135906   1.687   4.739   7.746  0.5896  1.1849 -1.0285
 4757TIP3    H235907   1.802   4.754   7.843 -0.4286 -0.6724  0.5480
 4758TIP3   OH235908   2.230   5.631   1.972  0.0210 -0.0779  0.0344
 4758TIP3    H135909   2.151   5.599   2.014 -1.2403  1.3097 -1.1482
 4758TIP3    H235910   2.284   5.664   2.044 -0.3497 -1.2441  0.8749
 4759TIP3   OH235911   1.058   4.924   7.203 -0.0991 -0.8945  0.4322
 4759TIP3    H135912   0.996   4.897   7.270 -2.1812 -1.0763 -1.4486
 4759TIP3    H235913   1.007   4.978   7.143  1.7230 -0.5280 -0.8890
 4760TIP3   OH235914   5.264   6.199   6.980  0.3776 -0.2225  0.2301
 4760TIP3    H135915   5.353   6.181   7.010  0.7603  1.2405  0.0537
 4760TIP3    H235916   5.275   6.263   6.909 -0.8847  1.5079  1.5067
 4761TIP3   OH235917   3.232   1.913   7.781  0.2967  0.8779 -0.3639
 4761TIP3    H135918   3.210   1.821   7.766  1.7092  0.3934  0.3363
 4761TIP3    H235919   3.328   1.916   7.779  0.2740  2.6347 -1.9946
 4762TIP3   OH235920   5.800   6.711   1.381  0.4620 -0.4123 -0.4435
 4762TIP3    H135921   5.735   6.687   1.316 -0.3069 -0.7496  0.4264
 4762TIP3    H235922   5.764   6.789   1.424  1.1642  0.0706 -0.7070
 4763TIP3   OH235923   5.824   5.524   1.199  0.5842 -0.3386 -0.2802
 4763TIP3    H135924   5.805   5.574   1.278 -2.6574  0.2548 -1.2700
 4763TIP3    H235925   5.882   5.581   1.149 -0.4733  1.0804  0.0221
 4764TIP3   OH235926   5.968   6.681   8.715 -0.3915 -0.4776 -0.5187
 4764TIP3    H135927   5.964   6.768   8.753 -1.6494 -0.3078 -0.9968
 4764TIP3    H235928   5.971   6.622   8.791  0.3215 -0.0340 -0.1933
 4765TIP3   OH235929   5.358   4.260   7.669  0.0560  0.0154 -0.3631
 4765TIP3    H135930   5.452   4.262   7.687 -0.5328  3.6096  4.0645
 4765TIP3    H235931   5.331   4.171   7.690  2.2643 -0.8127 -0.7599
 4766TIP3   OH235932   1.444   4.648   2.745  0.3005  0.2317  0.4506
 4766TIP3    H135933   1.486   4.701   2.677 -0.4990 -0.3008 -0.4933
 4766TIP3    H235934   1.467   4.558   2.722 -2.4186 -0.2083 -0.9236
 4767TIP3   OH235935   5.909   1.596   8.766  0.7261  0.4432  0.6475
 4767TIP3    H135936   5.893   1.656   8.839 -0.2107  0.8693  0.1075
 4767TIP3    H235937   5.827   1.595   8.717  1.3976  0.3152 -0.5132
 4768TIP3   OH235938   4.721   6.108   6.325 -0.0144 -0.1908 -0.0590
 4768TIP3    H135939   4.706   6.159   6.245 -1.3511 -1.9837 -1.0403
 4768TIP3    H235940   4.674   6.156   6.393 -1.7446 -0.3237 -1.0745
 4769TIP3   OH235941   0.834   0.051   0.853  0.3297 -0.0087  0.1593
 4769TIP3    H135942   0.808   0.011   0.769  1.0225 -1.3126  0.5446
 4769TIP3    H235943   0.787   0.000   0.919  2.3045 -1.1632  0.7517
 4770TIP3   OH235944   0.383   6.694   6.286 -0.3785 -0.2192  0.2063
 4770TIP3    H135945   0.431   6.616   6.259  0.3991  0.5996 -0.8489
 4770TIP3    H235946   0.335   6.721   6.208 -0.1221  0.7341  0.3702
 4771TIP3   OH235947   4.215   0.666   8.398 -0.4698 -0.4372 -0.2285
 4771TIP3    H135948   4.251   0.734   8.341  0.0395 -0.4253  0.0923
 4771TIP3    H235949   4.131   0.701   8.427 -0.9223 -0.6164 -1.2733
 4772TIP3   OH235950   2.918   2.207   7.197  0.1294  0.0031 -0.1931
 4772TIP3    H135951   2.931   2.278   7.261 -0.3590 -0.0321 -0.0547
 4772TIP3    H235952   2.877   2.137   7.247  0.7774 -0.4484 -0.2946
 4773TIP3   OH235953   0.939   2.956   7.061  0.1385 -0.6538  0.2380
 4773TIP3    H135954   0.879   2.960   7.135 -1.4353 -2.2208 -0.8801
 4773TIP3    H235955   0.959   3.047   7.041 -0.6975 -0.1577  1.5836
 4774TIP3   OH235956   5.382   2.908   6.192  0.2121 -0.2730 -0.1728
 4774TIP3    H135957   5.404   2.853   6.267  2.7901  1.5003  0.5120
 4774TIP3    H235958   5.448   2.978   6.194 -2.5747  2.6016 -1.2200
 4775TIP3   OH235959   6.831   5.115   1.568  0.0883 -0.3422  0.3851
 4775TIP3    H135960   6.825   5.164   1.650  1.9016 -0.7605  0.8083
 4775TIP3    H235961   6.842   5.024   1.596  0.3753 -0.5300 -0.3363
 4776TIP3   OH235962   4.495   6.002   6.918 -0.5333 -0.5308 -0.1491
 4776TIP3    H135963   4.448   6.004   7.001  0.1155 -2.4995  0.3150
 4776TIP3    H235964   4.514   5.909   6.903 -0.4444 -0.2152 -2.3927
 4777TIP3   OH235965   5.702   3.715   0.170  0.3869 -0.0034  0.3472
 4777TIP3    H135966   5.718   3.625   0.198  0.0094 -0.7666 -1.7399
 4777TIP3    H235967   5.615   3.736   0.205  0.2922 -0.6028  0.4833
 4778TIP3   OH235968   4.504   4.486   0.286 -0.8044  0.0834  0.1703
 4778TIP3    H135969   4.439   4.453   0.224 -3.0717  0.4584  2.1818
 4778TIP3    H235970   4.474   4.454   0.371  1.4426  0.6729  1.2724
 4779TIP3   OH235971   4.131   2.048   1.562 -0.2702  0.4682  0.8826
 4779TIP3    H135972   4.184   1.977   1.598  0.3431 -0.0871 -1.0320
 4779TIP3    H235973   4.133   2.035   1.467 -1.1042  2.3790  0.5534
 4780TIP3   OH235974   3.785   3.365   8.055  0.9991 -0.0676  0.2705
 4780TIP3    H135975   3.816   3.451   8.085 -0.8641  0.4561  0.8219
 4780TIP3    H235976   3.816   3.303   8.121  2.0916  0.2052  0.0328
 4781TIP3   OH235977   4.325   6.513   0.951 -0.2301 -0.0028 -0.7342
 4781TIP3    H135978   4.243   6.471   0.923 -0.2850 -0.8432  0.5761
 4781TIP3    H235979   4.392   6.473   0.897 -0.6686  0.6642 -1.7960
 4782TIP3   OH235980   0.992   6.366   8.529 -0.3756 -0.4392  0.0094
 4782TIP3    H135981   0.901   6.349   8.555 -0.5353  1.6544  0.9855
 4782TIP3    H235982   1.044   6.333   8.602 -0.5273  0.6744  0.6424
 4783TIP3   OH235983   3.487   0.945   0.543  0.4048 -0.0613 -0.2705
 4783TIP3    H135984   3.541   0.931   0.622  2.3532  0.9861 -1.3270
 4783TIP3    H235985   3.403   0.977   0.577  1.0827  0.0669  1.4011
 4784TIP3   OH235986   1.511   4.814   7.709 -0.6375 -0.3020 -0.3457
 4784TIP3    H135987   1.422   4.797   7.678 -0.7659  1.7440 -1.3269
 4784TIP3    H235988   1.544   4.880   7.648  0.9880  0.1089  0.9251
 4785TIP3   OH235989   0.318   1.012   2.335 -0.0145 -0.0342 -0.0107
 4785TIP3    H135990   0.330   1.099   2.374  2.6652 -0.3892  0.2011
 4785TIP3    H235991   0.313   0.953   2.409 -0.0595 -0.2186 -0.1609
 4786TIP3   OH235992   1.603   1.561   8.603  0.4051 -0.0033  0.3840
 4786TIP3    H135993   1.508   1.569   8.595  0.5401 -0.7099 -2.9054
 4786TIP3    H235994   1.626   1.628   8.668 -2.2534  0.6081  0.8250
 4787TIP3   OH235995   2.966   3.468   1.504  0.3146  0.3535 -0.1172
 4787TIP3    H135996   3.010   3.383   1.504  1.5105  0.9409 -0.6231
 4787TIP3    H235997   2.958   3.491   1.411  0.8520  1.2029  0.0368
 4788TIP3   OH235998   2.072   3.752   8.582 -0.6238 -0.3162 -0.2053
 4788TIP3    H135999   2.003   3.723   8.642 -0.5226  0.1845  0.1549
 4788TIP3    H236000   2.025   3.779   8.503 -0.8027 -0.4425 -0.1430
 4789TIP3   OH236001   2.209   6.358   8.232 -0.1850  0.9289 -0.1024
 4789TIP3    H136002   2.255   6.338   8.313 -1.0901 -0.1563  0.1684
 4789TIP3    H236003   2.180   6.273   8.199  0.7733  1.2597 -1.9657
 4790TIP3   OH236004   2.689   1.039   8.551 -0.7537 -0.2915 -0.1660
 4790TIP3    H136005   2.688   0.950   8.516 -1.1976 -0.4314  0.1818
 4790TIP3    H236006   2.732   1.092   8.484 -0.3244 -0.8003 -0.2982
 4791TIP3   OH236007   5.600   2.618   7.101 -0.0365 -0.0428  0.1226
 4791TIP3    H136008   5.571   2.527   7.106  0.4692 -0.2327 -0.2785
 4791TIP3    H236009   5.530   2.663   7.054 -0.8794  0.0444  1.4143
 4792TIP3   OH236010   2.742   5.849   7.780  0.1763  0.0510  0.2246
 4792TIP3    H136011   2.709   5.855   7.690  0.6966  0.1458  0.0385
 4792TIP3    H236012   2.802   5.774   7.778  0.5102  0.3133  0.3908
 4793TIP3   OH236013   1.769   1.082   8.771  0.0708 -0.0640  0.2925
 4793TIP3    H136014   1.765   1.149   8.703  1.5743 -0.2308  0.0054
 4793TIP3    H236015   1.834   1.115   8.834 -0.9768 -0.1158  1.4514
 4794TIP3   OH236016   2.089   2.118   7.703  0.1019 -0.1179 -0.1176
 4794TIP3    H136017   2.167   2.063   7.702  0.6796  0.5880  1.7666
 4794TIP3    H236018   2.099   2.172   7.782 -3.5242 -1.7941  1.7168
 4795TIP3   OH236019   2.848   4.194   1.828  0.6077 -0.9116  0.2087
 4795TIP3    H136020   2.839   4.173   1.735  0.5062 -1.9362  0.4339
 4795TIP3    H236021   2.876   4.112   1.868  3.4736  0.1575  0.6773
 4796TIP3   OH236022   4.525   1.411   8.071  0.4212 -0.0751 -0.1206
 4796TIP3    H136023   4.478   1.406   8.154  1.0200  0.9681  0.2910
 4796TIP3    H236024   4.456   1.426   8.006  0.0645  0.3797  0.3527
 4797TIP3   OH236025   6.331   1.294   7.713 -0.2552  0.1881 -0.1557
 4797TIP3    H136026   6.373   1.220   7.668  0.0969  0.8124 -0.8622
 4797TIP3    H236027   6.384   1.370   7.690  0.5887  0.3951  2.1856
 4798TIP3   OH236028   0.134   0.641   2.024  0.2292  0.1451  0.2902
 4798TIP3    H136029   0.151   0.725   2.067 -0.0318 -0.3542  1.3800
 4798TIP3    H236030   0.067   0.599   2.078  1.5536 -1.4996  0.7365
 4799TIP3   OH236031   6.734   2.173   7.509 -0.5768  0.2180  0.0162
 4799TIP3    H136032   6.757   2.161   7.416 -1.1346  0.6970 -0.1895
 4799TIP3    H236033   6.730   2.268   7.520  3.6950  0.4450  1.5917
 4800TIP3   OH236034   1.323   2.159   8.536 -0.5980  0.9202  0.3817
 4800TIP3    H136035   1.345   2.080   8.586  0.8307 -0.0775 -1.6573
 4800TIP3    H236036   1.232   2.146   8.510 -0.8543  0.6951  1.3526
 4801TIP3   OH236037   2.392   4.036   8.291 -0.2262  0.3851 -0.1494
 4801TIP3    H136038   2.342   4.070   8.365 -2.0540  0.0373 -1.1444
 4801TIP3    H236039   2.475   4.008   8.328 -0.6062  1.3921  1.5295
 4802TIP3   OH236040   4.176   2.432   7.261  0.0461  0.5721  0.3460
 4802TIP3    H136041   4.181   2.357   7.202 -0.4875  1.1299 -0.4169
 4802TIP3    H236042   4.228   2.500   7.218  2.3105  0.0217  2.0229
 4803TIP3   OH236043   1.926   4.523   7.438  0.0219  0.0470 -0.7135
 4803TIP3    H136044   1.950   4.444   7.485  1.8295  0.5500 -0.7200
 4803TIP3    H236045   1.997   4.584   7.455  0.3481  0.5498 -3.4048
 4804TIP3   OH236046   1.152   0.120   6.788 -0.1974 -0.0146 -0.1575
 4804TIP3    H136047   1.225   0.147   6.733 -0.9570 -0.3346 -1.3819
 4804TIP3    H236048   1.086   0.188   6.774 -0.2617  0.0919  0.6559
 4805TIP3   OH236049   0.740   5.400   7.565  0.2582  0.7028  0.1249
 4805TIP3    H136050   0.645   5.399   7.565  0.0686 -4.0307 -1.6325
 4805TIP3    H236051   0.765   5.408   7.473  1.2487 -2.3055  0.0121
 4806TIP3   OH236052   5.376   2.594   2.007 -0.2676 -0.4706 -0.1874
 4806TIP3    H136053   5.377   2.501   2.028  0.7360 -0.5365 -0.4629
 4806TIP3    H236054   5.353   2.637   2.089  1.8781 -0.8172  0.6574
 4807TIP3   OH236055   0.445   0.642   0.055  0.0941  0.7215 -0.3471
 4807TIP3    H136056   0.415   0.634   0.145  0.8355 -0.6595 -0.2060
 4807TIP3    H236057   0.540   0.634   0.060  0.0673 -0.4755 -1.3629
 4808TIP3   OH236058   4.942   2.734   6.731 -0.0134 -0.2548  0.4134
 4808TIP3    H136059   4.853   2.699   6.732 -0.2118  0.2398  0.2279
 4808TIP3    H236060   4.967   2.731   6.639  0.0176 -0.0330  0.4142
 4809TIP3   OH236061   3.639   4.574   0.939 -0.1334 -0.2030 -0.2086
 4809TIP3    H136062   3.648   4.647   0.878 -0.6981  0.4620  0.4858
 4809TIP3    H236063   3.563   4.526   0.908  0.3564 -0.6160 -0.7827
 4810TIP3   OH236064   3.431   1.572   0.133  0.2073 -0.0514 -0.3046
 4810TIP3    H136065   3.498   1.592   0.199 -0.4765  0.6107  0.2094
 4810TIP3    H236066   3.472   1.508   0.075  0.6984 -0.9748  1.0091
 4811TIP3   OH236067   5.611   3.690   1.791 -0.2140 -0.0868 -0.0505
 4811TIP3    H136068   5.658   3.667   1.871  0.0510 -0.6279 -0.3589
 4811TIP3    H236069   5.558   3.613   1.771  0.1399 -0.1681 -0.6999
 4812TIP3   OH236070   2.412   0.219   2.043 -0.3935 -0.2994 -0.1199
 4812TIP3    H136071   2.471   0.285   2.079 -0.1729  0.3887 -1.6426
 4812TIP3    H236072   2.440   0.137   2.084 -1.2327  0.6156  2.4723
 4813TIP3   OH236073   6.596   4.396   1.254 -0.8137 -0.2369 -0.0579
 4813TIP3    H136074   6.571   4.484   1.225  3.7874  1.9358  1.6684
 4813TIP3    H236075   6.661   4.367   1.190 -1.1961 -1.7802  0.2129
 4814TIP3   OH236076   2.536   3.743   7.867  0.3253  0.3549  0.7596
 4814TIP3    H136077   2.614   3.742   7.921  0.5092 -0.0316  0.4953
 4814TIP3    H236078   2.566   3.709   7.782  0.3471  2.1632 -0.0060
 4815TIP3   OH236079   6.441   5.690   7.508 -1.4424 -0.0222 -0.0717
 4815TIP3    H136080   6.504   5.694   7.579 -1.4999  0.5892 -0.0496
 4815TIP3    H236081   6.493   5.674   7.430 -1.4870 -1.9575  0.2536
 4816TIP3   OH236082   6.525   0.514   1.903 -0.0078 -0.7150  0.1091
 4816TIP3    H136083   6.580   0.591   1.917  0.7457 -1.0892 -0.7088
 4816TIP3    H236084   6.569   0.465   1.834 -1.5844 -0.8357 -0.8569
 4817TIP3   OH236085   4.701   0.478   7.996 -0.0413  0.3972 -0.3346
 4817TIP3    H136086   4.715   0.527   8.077 -0.5149  0.1203 -0.0829
 4817TIP3    H236087   4.724   0.540   7.926 -2.4216  1.6430 -0.1104
 4818TIP3   OH236088   2.784   3.368   0.158  0.1444 -0.6524 -0.5119
 4818TIP3    H136089   2.737   3.376   0.075 -1.2260  0.0488  0.2946
 4818TIP3    H236090   2.829   3.452   0.168 -1.4050  0.1165  0.4171
 4819TIP3   OH236091   5.352   3.788   7.476 -0.2045  1.1229 -0.4709
 4819TIP3    H136092   5.405   3.765   7.553  0.0466  1.5433 -0.5190
 4819TIP3    H236093   5.401   3.857   7.432  1.3262 -1.2703 -2.8234
 4820TIP3   OH236094   3.601   2.456   1.072  0.7851  0.2956  0.0922
 4820TIP3    H136095   3.674   2.394   1.069  2.2481  1.8561  1.5553
 4820TIP3    H236096   3.641   2.541   1.059 -1.0997  1.0580 -1.2220
 4821TIP3   OH236097   0.211   1.308   0.904 -0.6718 -0.0342 -0.9080
 4821TIP3    H136098   0.288   1.269   0.947 -0.6276  0.5831 -0.4029
 4821TIP3    H236099   0.150   1.235   0.893 -1.8115  0.1503  2.6863
 4822TIP3   OH236100   1.885   6.798   1.401 -0.4360  0.4873 -0.0274
 4822TIP3    H136101   1.954   6.781   1.465 -1.1208 -1.2606  0.3002
 4822TIP3    H236102   1.810   6.826   1.455 -1.0404 -1.0710  0.0135
 4823TIP3   OH236103   5.259   4.043   1.682  0.6249 -0.0089  0.5646
 4823TIP3    H136104   5.303   3.998   1.754  2.3958  1.0868  0.2340
 4823TIP3    H236105   5.304   4.011   1.603  0.1423  0.3746  0.1282
 4824TIP3   OH236106   5.219   0.080   7.999 -0.1650  0.3270 -0.1360
 4824TIP3    H136107   5.132   0.111   8.024 -0.7711  0.6257 -2.3613
 4824TIP3    H236108   5.262   0.059   8.082 -1.9379  1.2523  1.0883
 4825TIP3   OH236109   4.447   3.211   6.869 -0.4541  0.5881 -0.8386
 4825TIP3    H136110   4.377   3.162   6.912  0.0708 -1.2995 -2.0059
 4825TIP3    H236111   4.489   3.260   6.939 -1.7520  0.2916  0.1872
 4826TIP3   OH236112   4.319   5.264   0.210  0.4515 -0.6024 -0.1890
 4826TIP3    H136113   4.353   5.333   0.267 -1.6000  0.7084 -0.4162
 4826TIP3    H236114   4.358   5.283   0.124  1.3088 -0.8485  0.1370
 4827TIP3   OH236115   5.687   0.023   0.103  0.1186  0.1256  0.2991
 4827TIP3    H136116   5.717  -0.045   0.163  0.0417 -1.6347 -1.5377
 4827TIP3    H236117   5.766   0.049   0.055 -0.2216 -0.1974 -0.4466
 4828TIP3   OH236118   1.893   1.064   8.343 -0.2235 -0.2061  0.2821
 4828TIP3    H136119   1.914   1.015   8.422  1.7622  1.2713  0.7718
 4828TIP3    H236120   1.951   1.140   8.347 -0.8738  0.4815 -2.0416
 4829TIP3   OH236121   4.693   2.017   0.160 -0.0180  0.1516  0.3004
 4829TIP3    H136122   4.728   2.025   0.071  0.7184 -0.0704  0.5578
 4829TIP3    H236123   4.626   2.084   0.165 -0.0399  0.1992 -0.4101
 4830TIP3   OH236124   4.359   4.387   0.528 -0.8154 -0.0526 -0.2404
 4830TIP3    H136125   4.268   4.414   0.515 -1.8643 -2.9189  0.5202
 4830TIP3    H236126   4.374   4.395   0.622  0.6564  2.7707 -0.5856
 4831TIP3   OH236127   4.681   5.159   0.069 -0.1621  0.2610 -0.1036
 4831TIP3    H136128   4.761   5.169   0.016  0.9042 -0.3050  1.3427
 4831TIP3    H236129   4.688   5.226   0.136  0.0023 -0.9242  1.1020
 4832TIP3   OH236130   4.884   5.707   8.705 -0.2339 -0.5735 -0.4003
 4832TIP3    H136131   4.821   5.720   8.634  1.1773 -1.1707 -1.8381
 4832TIP3    H236132   4.901   5.794   8.740 -0.3359 -0.1584 -1.3681
 4833TIP3   OH236133   0.693   5.659   0.287 -0.0513 -0.6251  0.5318
 4833TIP3    H136134   0.684   5.752   0.269 -1.2489 -0.2369  2.7566
 4833TIP3    H236135   0.787   5.644   0.294  0.2083  0.1351 -0.9825
 4834TIP3   OH236136   0.741   4.107   7.680  0.2651  0.3807  0.2365
 4834TIP3    H136137   0.799   4.038   7.712  1.9874  0.6835 -1.9822
 4834TIP3    H236138   0.690   4.132   7.757  1.5086 -1.4409  1.7699
 4835TIP3   OH236139   5.747   1.529   1.188 -0.5368 -0.1046 -0.2376
 4835TIP3    H136140   5.843   1.534   1.193 -0.4184 -0.5281 -1.6656
 4835TIP3    H236141   5.726   1.443   1.226 -0.0786 -1.2505 -2.4193
 4836TIP3   OH236142   0.901   5.322   1.233  0.1931  0.1945 -0.3179
 4836TIP3    H136143   0.880   5.236   1.270  0.5112  1.5612  3.4885
 4836TIP3    H236144   0.996   5.330   1.242 -0.0902  1.9366  2.1624
 4837TIP3   OH236145   0.408   1.844   8.811  0.1491  0.3640 -0.2928
 4837TIP3    H136146   0.333   1.784   8.811  0.6637 -0.2987 -0.8955
 4837TIP3    H236147   0.476   1.796   8.859  0.6034  0.4029 -0.8825
 4838TIP3   OH236148   0.004   0.817   1.447  0.1101  0.1599 -0.1764
 4838TIP3    H136149   0.098   0.800   1.454  0.1858  1.0447  2.2904
 4838TIP3    H236150  -0.003   0.893   1.389  1.1707  1.4003  1.2392
 4839TIP3   OH236151   3.628   1.387   1.332 -0.0985 -0.8358 -0.8764
 4839TIP3    H136152   3.619   1.422   1.244 -1.9106  0.0639 -0.4022
 4839TIP3    H236153   3.556   1.428   1.381  1.7204 -0.1308  1.3962
 4840TIP3   OH236154   3.126   3.305   7.734  0.8788  0.0896  0.4100
 4840TIP3    H136155   3.147   3.389   7.774  1.5787 -0.7418  1.8746
 4840TIP3    H236156   3.054   3.324   7.673  0.7039  1.6429  1.0651
 4841TIP3   OH236157   3.605   6.423   7.548 -0.4155 -0.2314  0.1793
 4841TIP3    H136158   3.558   6.500   7.580  0.2109  0.3085 -0.1695
 4841TIP3    H236159   3.538   6.355   7.542 -0.7904 -0.0113  1.4474
 4842TIP3   OH236160   2.689   6.853   0.899 -0.1043 -0.4302 -0.2213
 4842TIP3    H136161   2.682   6.937   0.944 -0.6730 -1.2634  1.3136
 4842TIP3    H236162   2.771   6.815   0.929 -0.3958 -0.9121 -0.0039
 4843TIP3   OH236163   2.244   3.307   1.986  0.4465 -0.5001 -0.8159
 4843TIP3    H136164   2.151   3.326   1.971  0.2105 -0.9347  0.0374
 4843TIP3    H236165   2.244   3.243   2.057  1.3924 -0.7265 -1.0085
 4844TIP3   OH236166   1.956   3.826   2.539  0.3487 -0.6054  0.3957
 4844TIP3    H136167   1.887   3.765   2.565 -0.1149 -0.1082  0.3245
 4844TIP3    H236168   1.946   3.835   2.444  0.5104 -0.5316  0.3853
 4845TIP3   OH236169   5.605   2.625   1.362 -0.0138  0.1416  0.3545
 4845TIP3    H136170   5.515   2.597   1.343 -0.0210 -0.0835  0.7107
 4845TIP3    H236171   5.606   2.642   1.456  0.6906 -1.3371  0.6590
 4846TIP3   OH236172   0.295   6.186   7.531 -0.1012 -0.1908  0.5142
 4846TIP3    H136173   0.285   6.091   7.534 -0.8010 -0.1067  1.2789
 4846TIP3    H236174   0.332   6.209   7.616 -0.6493  0.2867  0.6310
 4847TIP3   OH236175   3.807   1.367   0.080 -0.4047  0.0970 -0.1042
 4847TIP3    H136176   3.782   1.437   0.141  0.5730  0.8106 -0.5076
 4847TIP3    H236177   3.866   1.312   0.131 -1.2707 -0.5265  0.2525
 4848TIP3   OH236178   6.524   3.108   1.043 -0.2613 -0.0108  0.3116
 4848TIP3    H136179   6.503   3.108   1.136  0.6166 -0.6871  0.5298
 4848TIP3    H236180   6.620   3.111   1.040 -0.2911  0.4633 -0.5800
 4849TIP3   OH236181   4.717   1.551   0.648  0.3441 -0.3101 -0.8735
 4849TIP3    H136182   4.709   1.495   0.570 -0.1531  0.0169 -1.0643
 4849TIP3    H236183   4.810   1.554   0.666  0.5852  0.4957 -2.1149
 4850TIP3   OH236184   3.979   0.871   1.944 -0.5146  0.1796 -0.4475
 4850TIP3    H136185   3.929   0.936   1.994  1.3194  0.4828  1.0950
 4850TIP3    H236186   4.030   0.923   1.883 -0.4076  0.0494 -0.4675
 4851TIP3   OH236187   0.452   1.927   1.030 -0.4964  0.2290 -0.5124
 4851TIP3    H136188   0.451   1.849   0.975 -0.2091 -0.3706  0.3045
 4851TIP3    H236189   0.445   2.000   0.969 -0.3764 -0.4231 -1.3236
 4852TIP3   OH236190   5.995   0.019   0.571  0.2235  0.2457  0.1611
 4852TIP3    H136191   5.950   0.092   0.612  1.4088  1.6182 -0.8795
 4852TIP3    H236192   6.044  -0.022   0.642  0.3934  1.1381  0.5723
 4853TIP3   OH236193   5.519   2.112   7.608 -0.1084  0.4575  0.1706
 4853TIP3    H136194   5.611   2.118   7.633 -0.6424  0.7268  2.2710
 4853TIP3    H236195   5.471   2.124   7.690 -2.0522  1.4339 -1.0304
 4854TIP3   OH236196   2.650   1.600   8.275  0.1313 -0.4172 -0.7151
 4854TIP3    H136197   2.591   1.664   8.315 -1.7509 -1.6081 -1.4335
 4854TIP3    H236198   2.685   1.645   8.198 -0.1275  0.1963 -0.4825
 4855TIP3   OH236199   3.163   6.189   2.171 -0.0093  0.7366 -0.1351
 4855TIP3    H136200   3.098   6.135   2.216  1.7069  1.0100  2.9119
 4855TIP3    H236201   3.195   6.250   2.238  4.2793 -0.1986 -1.0224
 4856TIP3   OH236202   3.301   4.786   7.389  0.1791  0.0152 -0.1342
 4856TIP3    H136203   3.289   4.713   7.328 -1.7463  0.4332 -0.3132
 4856TIP3    H236204   3.358   4.847   7.342  2.6433 -1.6951  0.3825
 4857TIP3   OH236205   6.205   2.522   8.394 -0.1138 -0.0244 -0.8401
 4857TIP3    H136206   6.214   2.474   8.312  0.9542  0.3875 -0.9791
 4857TIP3    H236207   6.118   2.498   8.427 -0.4355 -0.4166 -1.9396
 4858TIP3   OH236208   3.376   5.546   7.236 -0.2117  0.3459  0.4065
 4858TIP3    H136209   3.291   5.517   7.204  0.6759 -0.5058 -1.2470
 4858TIP3    H236210   3.388   5.500   7.319 -0.1910 -1.6857 -0.6799
 4859TIP3   OH236211   2.143   1.175   8.661  0.0406  0.1330  0.7017
 4859TIP3    H136212   2.122   1.098   8.610 -1.1599  1.8383 -1.5438
 4859TIP3    H236213   2.069   1.186   8.721 -0.8541  0.7145 -0.4807
 4860TIP3   OH236214   3.442   0.442   8.069 -0.5999 -0.5265 -0.1466
 4860TIP3    H136215   3.372   0.481   8.121 -0.4341  1.1253 -1.0860
 4860TIP3    H236216   3.490   0.387   8.131 -0.6377  1.0545  1.3756
 4861TIP3   OH236217   0.501   5.737   1.216  0.2245 -0.4374 -0.3028
 4861TIP3    H136218   0.551   5.804   1.170  0.9497 -1.4392 -1.0022
 4861TIP3    H236219   0.416   5.734   1.171 -0.4518  1.1212  0.7602
 4862TIP3   OH236220   6.290   3.020   7.107  0.2995  0.5794  0.4587
 4862TIP3    H136221   6.346   3.010   7.031  0.5255 -0.0044  0.6991
 4862TIP3    H236222   6.203   3.039   7.071 -0.1944 -2.2836 -0.0504
 4863TIP3   OH236223   1.381   2.955   8.334  0.1430 -0.1512 -0.3574
 4863TIP3    H136224   1.402   2.922   8.421  0.4378 -1.6089 -0.9541
 4863TIP3    H236225   1.359   3.047   8.348  1.1439 -0.1009  1.1157
 4864TIP3   OH236226   2.139   4.716   7.485  0.1301  0.3043  0.5967
 4864TIP3    H136227   2.206   4.713   7.553 -0.9143 -1.3211  1.6242
 4864TIP3    H236228   2.066   4.764   7.525 -1.0982 -1.9816  1.3143
 4865TIP3   OH236229   0.447   0.050   8.547 -0.2241  0.3822 -0.2463
 4865TIP3    H136230   0.512   0.015   8.486  1.6364  2.7321  0.2473
 4865TIP3    H236231   0.390   0.105   8.493  0.5416  1.3192 -0.1159
 4866TIP3   OH236232   6.316   2.507   8.782 -0.0578 -0.0596 -0.8238
 4866TIP3    H136233   6.337   2.417   8.805  0.8045  0.5844  1.1146
 4866TIP3    H236234   6.239   2.528   8.836  0.5054  0.7370 -0.3119
 4867TIP3   OH236235   5.847   4.686   8.317 -0.0386  0.0704 -0.4640
 4867TIP3    H136236   5.803   4.726   8.393  1.5264  0.6995  0.1605
 4867TIP3    H236237   5.844   4.754   8.250  0.6103  0.3948 -0.1718
 4868TIP3   OH236238   4.765   5.654   0.901 -0.1297 -0.4619  0.3017
 4868TIP3    H136239   4.700   5.658   0.831  0.9356  0.0733 -0.6997
 4868TIP3    H236240   4.736   5.720   0.965 -0.6918 -0.3974 -0.0195
 4869TIP3   OH236241   2.779   0.550   8.241  0.2403 -0.6032 -0.0523
 4869TIP3    H136242   2.702   0.517   8.288  1.0193  0.2609  1.9255
 4869TIP3    H236243   2.851   0.495   8.270  0.5962 -0.6066 -0.9212
 4870TIP3   OH236244   3.600   4.345   1.094  0.1572 -0.3014  0.5026
 4870TIP3    H136245   3.682   4.360   1.046  0.1408 -0.1789  0.5133
 4870TIP3    H236246   3.618   4.267   1.146 -0.0155 -0.7654 -0.1299
 4871TIP3   OH236247   3.970   1.321   0.556  0.6589 -0.0776 -0.2276
 4871TIP3    H136248   3.989   1.369   0.637 -0.0560 -0.8781  0.4350
 4871TIP3    H236249   3.975   1.229   0.581 -0.3123 -0.3312 -0.9187
 4872TIP3   OH236250   6.593   6.073   0.440  0.8051  0.5107  0.0737
 4872TIP3    H136251   6.606   6.083   0.346 -0.1546 -1.8724 -0.3910
 4872TIP3    H236252   6.556   5.985   0.450 -1.1456  1.4822  2.5080
 4873TIP3   OH236253   2.980   2.984   1.483  0.2161 -0.0050 -0.4047
 4873TIP3    H136254   3.029   3.064   1.502 -0.5349 -0.1906  2.9342
 4873TIP3    H236255   2.994   2.968   1.389  0.4028  3.9821 -1.2257
 4874TIP3   OH236256   6.517   0.294   6.889 -0.4887  0.4135 -0.4110
 4874TIP3    H136257   6.482   0.315   6.802  1.1554 -0.1093 -1.2643
 4874TIP3    H236258   6.544   0.202   6.881  1.0149  0.7783  0.1559
 4875TIP3   OH236259   4.064   2.270   0.927  0.4762  0.3813 -0.0139
 4875TIP3    H136260   4.144   2.323   0.921 -0.6388  2.1711  0.1682
 4875TIP3    H236261   4.018   2.286   0.845  0.2315 -0.5355 -0.0607
 4876TIP3   OH236262   1.787   2.085   8.532  0.0254 -0.3932  0.2309
 4876TIP3    H136263   1.780   2.177   8.506  1.1644 -0.2449  0.4007
 4876TIP3    H236264   1.855   2.049   8.475 -1.0343 -1.3808 -0.4575
 4877TIP3   OH236265   4.079   0.872   0.297  0.3078 -0.0740 -0.4362
 4877TIP3    H136266   4.090   0.853   0.390 -0.1646  0.3343 -0.2944
 4877TIP3    H236267   4.168   0.866   0.261  0.7361  1.2652  0.3253
 4878TIP3   OH236268   6.566   4.354   0.162 -0.3632  0.2350  0.2223
 4878TIP3    H136269   6.619   4.338   0.084 -0.7285  3.1935 -0.7714
 4878TIP3    H236270   6.576   4.448   0.178 -5.4147  1.1303 -0.2336
 4879TIP3   OH236271   0.083   3.765   0.206 -0.1785  0.1218 -0.3539
 4879TIP3    H136272   0.101   3.723   0.122  0.4957  0.0507 -0.1777
 4879TIP3    H236273   0.088   3.694   0.270  0.0990  0.3194 -0.1567
 4880TIP3   OH236274   3.665   6.737   7.757  0.5141 -0.0918  0.0912
 4880TIP3    H136275   3.650   6.819   7.803  2.9625  1.6240 -1.8473
 4880TIP3    H236276   3.739   6.696   7.803  0.7607 -0.0684 -0.2774
 4881TIP3   OH236277   1.028   3.924   7.066 -0.0161  0.0980 -0.3265
 4881TIP3    H136278   1.068   4.003   7.029  0.4070 -0.1800 -0.4687
 4881TIP3    H236279   0.936   3.948   7.080  0.0447  0.5213 -0.6371
 4882TIP3   OH236280   5.323   4.014   7.755  0.7611 -0.5065  0.0561
 4882TIP3    H136281   5.367   3.939   7.794  1.0517  0.2294  1.1913
 4882TIP3    H236282   5.231   3.988   7.749  0.8293 -0.8839  0.6153
 4883TIP3   OH236283   1.114   5.368   7.384 -0.5690  0.1925  0.3115
 4883TIP3    H136284   1.097   5.453   7.425  0.0334  1.7981 -2.5475
 4883TIP3    H236285   1.027   5.330   7.371 -1.1114  1.8416 -1.2027
 4884TIP3   OH236286   0.154   3.338   7.495  0.1192  0.8058  0.3510
 4884TIP3    H136287   0.247   3.351   7.479  0.1669 -0.2573 -0.3465
 4884TIP3    H236288   0.140   3.370   7.584  1.0177  1.5422  0.2368
 4885TIP3   OH236289   6.434   2.347   0.687  0.0325  0.6285  0.2804
 4885TIP3    H136290   6.427   2.280   0.755 -0.7662  1.6838  1.2753
 4885TIP3    H236291   6.357   2.403   0.700 -0.5407  0.4589 -1.9625
 4886TIP3   OH236292   4.569   2.314   0.323 -0.2398 -0.0213  0.4258
 4886TIP3    H136293   4.540   2.314   0.414  2.8252 -0.1168  1.5195
 4886TIP3    H236294   4.600   2.224   0.308  1.3810  0.5495  0.0997
 4887TIP3   OH236295   2.890   6.091   0.961  0.0122  0.4451 -0.4691
 4887TIP3    H136296   2.862   6.173   0.920  0.6794 -0.1951 -2.2859
 4887TIP3    H236297   2.809   6.041   0.972 -0.3646  1.2136  0.4206
 4888TIP3   OH236298   1.230   0.065   1.431  0.2724 -0.1207 -1.2175
 4888TIP3    H136299   1.288   0.013   1.487 -0.2878  0.9652  0.4330
 4888TIP3    H236300   1.167   0.001   1.396  0.6761 -0.8360 -0.6649
 4889TIP3   OH236301   1.078   6.715   1.355 -0.5923  0.2266  0.2969
 4889TIP3    H136302   1.041   6.713   1.267  2.2394  1.9110 -1.0940
 4889TIP3    H236303   1.002   6.713   1.413 -2.6170 -0.0282 -2.1864
 4890TIP3   OH236304   1.065   6.850   7.350 -0.9333 -0.2796 -0.1877
 4890TIP3    H136305   1.004   6.777   7.338 -0.4859 -0.6617 -0.1707
 4890TIP3    H236306   1.022   6.907   7.414 -1.2005 -0.6222 -0.0577
 4891TIP3   OH236307   6.523   0.021   2.492 -0.3256 -0.0269 -0.4483
 4891TIP3    H136308   6.599   0.077   2.507 -0.3854  0.6415 -2.3448
 4891TIP3    H236309   6.550  -0.065   2.524  0.6618  0.5375  0.2934
 4892TIP3   OH236310   1.489   3.450   8.070  0.3940 -0.3561  0.5464
 4892TIP3    H136311   1.527   3.448   7.982 -0.8881  1.3783 -0.0986
 4892TIP3    H236312   1.462   3.359   8.086 -0.7534 -0.4400 -1.5312
 4893TIP3   OH236313   0.866   0.681   6.725  0.1013  0.0110  1.1455
 4893TIP3    H136314   0.867   0.736   6.804 -0.9980  1.1286  0.4160
 4893TIP3    H236315   0.830   0.737   6.657  2.3128 -0.4678 -0.5386
 4894TIP3   OH236316   5.807   4.650   8.043  0.3956  0.0448 -0.1784
 4894TIP3    H136317   5.764   4.612   8.120  0.3385 -0.0842 -0.2729
 4894TIP3    H236318   5.740   4.708   8.006  1.7104  3.4228  2.1981
 4895TIP3   OH236319   3.210   5.665   8.060  0.3035  0.3690 -0.2477
 4895TIP3    H136320   3.131   5.637   8.106  0.0413  0.4938 -0.6151
 4895TIP3    H236321   3.273   5.594   8.073  0.0101  0.1081 -0.2486
 4896TIP3   OH236322   6.153   5.692   7.534 -0.0430  0.0549  0.3413
 4896TIP3    H136323   6.136   5.673   7.442  1.1251 -2.1130  0.4952
 4896TIP3    H236324   6.248   5.684   7.542  0.2073  2.9359  1.2267
 4897TIP3   OH236325   1.649   5.006   0.928  0.6297 -0.2959 -0.4588
 4897TIP3    H136326   1.739   5.028   0.951  0.4006 -0.2689  0.4491
 4897TIP3    H236327   1.616   4.958   1.004 -0.2855  0.1536 -0.5656
 4898TIP3   OH236328   1.813   0.558   6.511  0.1010  0.5114  0.3731
 4898TIP3    H136329   1.752   0.526   6.444  0.4406  0.2874  0.1654
 4898TIP3    H236330   1.858   0.631   6.469  0.4346  0.2634  0.2929
 4899TIP3   OH236331   0.833   1.723   2.144  0.0540  0.1422  0.8048
 4899TIP3    H136332   0.907   1.697   2.200 -0.6470 -0.7819  1.3382
 4899TIP3    H236333   0.857   1.691   2.057 -0.0117 -0.7640  1.1098
 4900TIP3   OH236334   6.205   2.612   1.343 -0.7511 -0.2688 -0.4149
 4900TIP3    H136335   6.293   2.601   1.306 -0.2473  1.1841  0.2939
 4900TIP3    H236336   6.206   2.560   1.424 -0.4075  0.0878 -0.1917
 4901TIP3   OH236337   0.430   6.250   0.736 -0.3302 -0.1025 -0.3924
 4901TIP3    H136338   0.499   6.194   0.700 -0.2191  0.0555 -0.4287
 4901TIP3    H236339   0.358   6.244   0.674 -0.4941 -0.5652 -0.1633
 4902TIP3   OH236340   6.211   0.934   7.711  0.8317  0.7688  0.3534
 4902TIP3    H136341   6.141   0.976   7.662  2.3304  1.8675 -0.9665
 4902TIP3    H236342   6.225   0.990   7.787 -0.6780 -0.2759  1.4544
 4903TIP3   OH236343   5.530   1.837   0.535 -0.1767  0.4372  0.1108
 4903TIP3    H136344   5.531   1.755   0.585  0.5852  1.1176  1.2703
 4903TIP3    H236345   5.608   1.884   0.565 -0.3596  1.3873 -0.8699
 4904TIP3   OH236346   5.406   2.456   7.411 -0.0687 -0.3057 -0.0458
 4904TIP3    H136347   5.317   2.474   7.443  0.7020 -0.4925  2.3632
 4904TIP3    H236348   5.447   2.542   7.406  0.7656 -0.4744  2.6185
 4905TIP3   OH236349   3.919   3.333   1.014  0.0364 -0.1332 -0.1418
 4905TIP3    H136350   3.878   3.247   1.027  0.3334 -0.1977  0.4445
 4905TIP3    H236351   3.866   3.376   0.948 -0.8656 -0.2872  0.4647
 4906TIP3   OH236352   2.219   2.548   7.721 -0.4679 -0.1920 -0.0731
 4906TIP3    H136353   2.206   2.573   7.813 -2.3471 -1.2988  0.0237
 4906TIP3    H236354   2.131   2.553   7.683  0.1977 -0.3206 -1.6620
 4907TIP3   OH236355   6.047   3.843   8.382 -0.4301  0.0594 -0.0323
 4907TIP3    H136356   5.983   3.772   8.373  1.1144 -1.4742  0.5411
 4907TIP3    H236357   6.028   3.882   8.467  0.7127 -1.8527  1.1818
 4908TIP3   OH236358   1.426   5.935   0.507 -0.1787  0.2751 -0.2139
 4908TIP3    H136359   1.470   6.019   0.503  0.4537 -0.0537 -0.2979
 4908TIP3    H236360   1.333   5.956   0.509 -0.0067  1.0053  0.6794
 4909TIP3   OH236361   1.647   1.935   7.040 -0.1523  0.4579  0.6470
 4909TIP3    H136362   1.624   1.910   6.951  0.9792 -0.7320  0.6579
 4909TIP3    H236363   1.619   2.027   7.047 -1.7096  0.0985 -0.3816
 4910TIP3   OH236364   0.960   0.954   8.052  0.3476 -0.2169 -0.0539
 4910TIP3    H136365   0.911   0.872   8.047  0.9835 -0.6163  0.1390
 4910TIP3    H236366   0.894   1.022   8.039 -0.0078 -0.7917 -1.3738
 4911TIP3   OH236367   0.266   0.915   7.095  0.1345  0.0409  0.2892
 4911TIP3    H136368   0.204   0.975   7.136 -0.3606 -0.2430 -0.0458
 4911TIP3    H236369   0.346   0.967   7.086 -1.0675  1.5975 -2.5363
 4912TIP3   OH236370   2.625   5.000   0.741 -0.4280 -0.7453 -0.1017
 4912TIP3    H136371   2.644   5.092   0.725  1.0770 -1.0114 -0.0317
 4912TIP3    H236372   2.710   4.956   0.729 -1.5560 -2.4785 -2.6563
 4913TIP3   OH236373   6.403   2.618   8.541 -0.6628  0.0671 -0.2050
 4913TIP3    H136374   6.345   2.588   8.470  1.0082  0.3627 -1.7813
 4913TIP3    H236375   6.377   2.566   8.617 -2.8332  0.0438 -0.8730
 4914TIP3   OH236376   0.557   2.787   2.145 -0.5829  0.0355  0.2582
 4914TIP3    H136377   0.615   2.828   2.210 -0.4776 -0.2021  0.3148
 4914TIP3    H236378   0.472   2.828   2.160 -0.2569  0.9802 -0.3617
 4915TIP3   OH236379   5.082   1.709   7.648 -0.2809 -0.0939  0.7637
 4915TIP3    H136380   5.039   1.793   7.632 -0.6984 -0.2861  0.8861
 4915TIP3    H236381   5.176   1.731   7.652 -0.3010  0.2136 -0.2167
 4916TIP3   OH236382   3.198   6.842   0.335 -0.1425 -0.5510 -0.1525
 4916TIP3    H136383   3.188   6.852   0.429  0.2519  0.3912 -0.2018
 4916TIP3    H236384   3.119   6.881   0.298  0.7792  1.3307 -0.2863
 4917TIP3   OH236385   4.260   1.842   2.093  0.0799 -0.0405 -0.2777
 4917TIP3    H136386   4.304   1.776   2.146 -0.2610 -1.3049 -1.5225
 4917TIP3    H236387   4.324   1.868   2.027 -0.0530  0.3118 -0.2728
 4918TIP3   OH236388   3.733   2.263   6.858  0.0964 -0.1257  0.2756
 4918TIP3    H136389   3.643   2.292   6.843  0.1081  0.6404  1.5637
 4918TIP3    H236390   3.782   2.344   6.870  1.5973 -0.3191 -3.2604
 4919TIP3   OH236391   3.978   1.980   7.149 -0.6141 -0.1796 -0.1249
 4919TIP3    H136392   4.049   1.920   7.171 -0.8238 -0.5988 -0.5757
 4919TIP3    H236393   3.952   2.017   7.233  0.5443  0.4508 -0.0298
 4920TIP3   OH236394   1.866   1.571   1.811 -0.1310  1.1255 -0.0423
 4920TIP3    H136395   1.914   1.505   1.860 -1.1234  0.1117 -0.3964
 4920TIP3    H236396   1.915   1.652   1.824  0.4709  0.5521  1.3325
 4921TIP3   OH236397   5.064   4.327   8.365 -0.1780 -0.3836  0.2920
 4921TIP3    H136398   5.076   4.287   8.451  1.3550 -0.1385  0.2229
 4921TIP3    H236399   5.152   4.357   8.340 -0.6031 -0.3970 -1.3307
 4922TIP3   OH236400   3.896   1.620   7.445 -0.8780 -0.3114 -0.1323
 4922TIP3    H136401   3.889   1.645   7.353  0.9780 -0.0316 -0.2394
 4922TIP3    H236402   3.934   1.696   7.488  0.8840 -1.3735  0.3249
 4923TIP3   OH236403   2.116   1.197   7.791  0.0770 -0.0066 -0.2887
 4923TIP3    H136404   2.201   1.222   7.827 -0.5158  0.4335  0.8387
 4923TIP3    H236405   2.137   1.132   7.724  1.2231 -0.7038  0.7008
 4924TIP3   OH236406   3.867   2.526   6.835  0.3615  0.3092  0.5436
 4924TIP3    H136407   3.961   2.512   6.826  0.5665  1.0133  1.4250
 4924TIP3    H236408   3.837   2.540   6.745  1.1269  0.2331  0.2640
 4925TIP3   OH236409   2.721   3.188   1.282  0.3393  0.2147 -0.0052
 4925TIP3    H136410   2.743   3.281   1.268  1.0646  0.1739  0.8011
 4925TIP3    H236411   2.640   3.190   1.333  0.2160  0.4031 -0.2056
 4926TIP3   OH236412   1.950   2.614   7.667 -0.5642 -0.1871 -0.4239
 4926TIP3    H136413   1.924   2.705   7.655 -1.6980 -0.3961  0.3229
 4926TIP3    H236414   1.923   2.570   7.586 -1.9787 -0.2637  0.0627
 4927TIP3   OH236415   3.520   6.274   7.136 -0.4034  0.3517 -0.2939
 4927TIP3    H136416   3.432   6.260   7.172 -1.2857  1.2425 -1.9711
 4927TIP3    H236417   3.550   6.355   7.179  0.6959 -1.2374  2.1424
 4928TIP3   OH236418   3.097   0.491   6.862 -0.0088 -0.0765 -0.2373
 4928TIP3    H136419   3.042   0.428   6.815  0.1807 -0.4787  0.0763
 4928TIP3    H236420   3.135   0.441   6.934  1.1945  0.0458 -0.7594
 4929TIP3   OH236421   3.067   1.009   0.314 -0.1011 -0.2801  0.0919
 4929TIP3    H136422   3.031   1.097   0.300  2.2357  0.4310 -2.2233
 4929TIP3    H236423   3.155   1.013   0.277 -0.4072 -4.0215 -1.4490
 4930TIP3   OH236424   6.424   5.002   1.644 -0.6095 -0.1327  0.0615
 4930TIP3    H136425   6.469   5.076   1.603 -1.3716 -0.0349 -0.6256
 4930TIP3    H236426   6.360   4.974   1.579 -1.9879  0.1467  1.2510
 4931TIP3   OH236427   1.487   5.129   0.728 -0.1494 -0.2886 -0.6939
 4931TIP3    H136428   1.404   5.081   0.726 -0.2896 -0.2402  1.4944
 4931TIP3    H236429   1.535   5.090   0.801 -0.2723  2.8226  1.2355
 4932TIP3   OH236430   3.613   4.933   6.681 -0.0905  0.2274  0.6947
 4932TIP3    H136431   3.686   4.937   6.618 -1.7157  0.9087 -1.2473
 4932TIP3    H236432   3.553   4.868   6.644 -1.9223  1.9141  0.5633
 4933TIP3   OH236433   4.914   5.321   6.667 -0.3075 -0.0353 -0.0220
 4933TIP3    H136434   5.009   5.325   6.661 -0.2951 -0.1661  0.1034
 4933TIP3    H236435   4.887   5.270   6.591 -0.3847  1.2959 -0.9345
 4934TIP3   OH236436   2.902   2.415   8.776 -0.3593 -0.7128 -0.1453
 4934TIP3    H136437   2.854   2.466   8.712 -0.1328  1.1933  1.1225
 4934TIP3    H236438   2.842   2.345   8.802 -1.6545  0.3669 -0.1378
 4935TIP3   OH236439   1.842   1.624   0.417 -0.3385  0.0366  0.2863
 4935TIP3    H136440   1.917   1.565   0.420 -0.3347  0.0708  1.3608
 4935TIP3    H236441   1.766   1.567   0.429 -0.3861  0.1535  0.5496
 4936TIP3   OH236442   4.783   5.329   7.165  0.3207 -0.1996 -0.0728
 4936TIP3    H136443   4.735   5.358   7.242  0.1852  1.1907 -0.6582
 4936TIP3    H236444   4.868   5.372   7.171 -0.0348  0.6888 -1.1718
 4937TIP3   OH236445   0.302   5.325   7.318  0.3504  0.6717 -0.2320
 4937TIP3    H136446   0.212   5.294   7.331  0.7764 -0.4389  0.1051
 4937TIP3    H236447   0.298   5.374   7.236 -0.2526 -0.7015 -1.0632
 4938TIP3   OH236448   6.250   0.793   8.360  0.4555 -0.1496  0.1627
 4938TIP3    H136449   6.244   0.835   8.446  0.8703  4.0527 -1.6635
 4938TIP3    H236450   6.325   0.735   8.367  0.6391  0.2763  2.5439
 4939TIP3   OH236451   0.835   5.155   0.868 -0.0224  0.1363 -0.3880
 4939TIP3    H136452   0.869   5.212   0.936  0.2536  0.5544 -0.8703
 4939TIP3    H236453   0.913   5.117   0.827 -0.1335 -3.2282  2.0558
 4940TIP3   OH236454   3.790   6.308   8.379 -0.3252 -0.2851 -0.6840
 4940TIP3    H136455   3.847   6.383   8.360  0.4682 -0.9105 -0.8527
 4940TIP3    H236456   3.839   6.257   8.444 -1.1444 -0.3288 -0.0931
 4941TIP3   OH236457   5.966   1.219   8.205  0.3498  0.4196  0.5272
 4941TIP3    H136458   5.905   1.280   8.165  0.7793  0.1465 -0.5830
 4941TIP3    H236459   5.912   1.162   8.259 -0.3978  0.1224 -0.5078
 4942TIP3   OH236460   2.135   6.182   8.803  0.3597 -0.2655  0.0832
 4942TIP3    H136461   2.211   6.125   8.786  1.0411  0.8250 -0.6209
 4942TIP3    H236462   2.165   6.241   8.873  0.2997  0.4306 -0.4757
 4943TIP3   OH236463   5.639   2.448   1.696  0.2014 -0.1107  0.5353
 4943TIP3    H136464   5.643   2.367   1.645  0.7507  0.2925 -0.0727
 4943TIP3    H236465   5.684   2.513   1.642 -0.4610  0.6690  0.9002
 4944TIP3   OH236466   4.844   0.102   0.861 -0.6642 -0.6572  0.0670
 4944TIP3    H136467   4.935   0.106   0.890 -0.6389 -2.5471  0.3404
 4944TIP3    H236468   4.803   0.180   0.900  1.2054  1.2750 -1.5846
 4945TIP3   OH236469   5.379   5.009   0.260 -0.1881 -0.4371 -0.5296
 4945TIP3    H136470   5.410   4.958   0.335  0.4064  0.6814  0.0058
 4945TIP3    H236471   5.293   4.971   0.240 -0.0135 -1.2706  0.2082
 4946TIP3   OH236472   4.852   0.324   7.758 -0.6325  0.2067 -0.1399
 4946TIP3    H136473   4.852   0.371   7.842  1.2645  1.0247 -0.5420
 4946TIP3    H236474   4.795   0.375   7.701 -1.1906  0.1751  0.3876
 4947TIP3   OH236475   5.359   4.701   7.165  0.3892 -0.2459 -0.3812
 4947TIP3    H136476   5.449   4.669   7.178 -0.1245 -1.5705  0.1076
 4947TIP3    H236477   5.344   4.692   7.071  0.4306 -1.0419 -0.3245
 4948TIP3   OH236478   5.372   6.748   0.648 -0.1306  0.0332 -0.3859
 4948TIP3    H136479   5.437   6.735   0.579 -0.6452  3.6684 -1.7852
 4948TIP3    H236480   5.423   6.760   0.728  0.8919  1.2244 -1.1800
 4949TIP3   OH236481   0.433   5.059   1.734  0.6084 -0.4273 -0.0104
 4949TIP3    H136482   0.490   5.130   1.702  0.8000 -0.6695 -0.2087
 4949TIP3    H236483   0.385   5.030   1.657 -0.1570  0.1096  0.2524
 4950TIP3   OH236484   1.198   6.109   8.750  0.6207  0.0002  0.5386
 4950TIP3    H136485   1.192   6.203   8.765  1.3693 -0.0416  1.2003
 4950TIP3    H236486   1.140   6.070   8.815 -0.8629  0.0405 -0.7056
 4951TIP3   OH236487   2.708   1.476   6.455 -0.3304 -0.4989  0.4220
 4951TIP3    H136488   2.755   1.402   6.492  0.6892  0.5136  1.2197
 4951TIP3    H236489   2.735   1.551   6.508 -1.7380  0.3680 -0.0224
 4952TIP3   OH236490   5.157   0.950   8.222  0.0688  0.1677  0.1995
 4952TIP3    H136491   5.209   0.991   8.292 -0.6181  0.7067  0.4054
 4952TIP3    H236492   5.214   0.952   8.145  0.6750 -0.0433  0.6362
 4953TIP3   OH236493   3.116   4.319   2.420 -0.0714  0.0863  0.0864
 4953TIP3    H136494   3.066   4.371   2.358 -1.4687 -1.5862 -0.2447
 4953TIP3    H236495   3.072   4.234   2.423  0.9512 -0.4492  2.1001
 4954TIP3   OH236496   3.710   5.665   2.138 -0.4160 -0.0889  0.2052
 4954TIP3    H136497   3.798   5.685   2.169  0.0488 -2.0232  0.2996
 4954TIP3    H236498   3.691   5.578   2.173 -1.7598 -0.3579 -1.0479
 4955TIP3   OH236499   6.820   6.526   1.880 -0.5769  0.2955 -0.0741
 4955TIP3    H136500   6.798   6.527   1.787 -1.7315  0.6380  0.1869
 4955TIP3    H236501   6.764   6.458   1.918  0.6771 -0.6129  0.2022
 4956TIP3   OH236502   3.956   4.300   8.595  0.8497  0.1645  0.3848
 4956TIP3    H136503   3.894   4.238   8.558  2.9453 -2.0507  0.3031
 4956TIP3    H236504   3.927   4.312   8.686  0.5812 -1.2513  0.5064
 4957TIP3   OH236505   3.956   1.755   0.097  0.4100 -0.0221 -0.4729
 4957TIP3    H136506   4.033   1.699   0.086 -0.9309 -1.9700 -0.3927
 4957TIP3    H236507   3.932   1.747   0.189 -0.8885 -0.8299 -0.8624
 4958TIP3   OH236508   3.038   0.474   1.768  0.5236  0.0451  0.0562
 4958TIP3    H136509   3.122   0.473   1.723  0.9306 -2.3710  0.7653
 4958TIP3    H236510   3.057   0.446   1.858 -0.8542  0.7871  0.6212
 4959TIP3   OH236511   2.079   5.988   0.615  0.2657 -0.3304 -0.5171
 4959TIP3    H136512   2.052   5.934   0.689 -0.6165 -1.5361 -1.6700
 4959TIP3    H236513   2.127   5.929   0.557  0.9068  0.5762 -0.9501
 4960TIP3   OH236514   0.399   6.088   1.921 -1.0601  0.1932  0.6078
 4960TIP3    H136515   0.318   6.139   1.924 -1.4876 -0.4550  0.3490
 4960TIP3    H236516   0.372   6.003   1.888 -0.1485  0.2008 -0.2045
 4961TIP3   OH236517   0.974   1.978   6.845 -0.3842 -0.3814 -0.6034
 4961TIP3    H136518   1.059   1.934   6.849 -0.3351 -0.1809  0.9178
 4961TIP3    H236519   0.923   1.925   6.783 -0.3227 -2.6468  1.1633
 4962TIP3   OH236520   3.612   6.379   0.026 -0.1500  0.3932 -0.0253
 4962TIP3    H136521   3.699   6.381   0.066  2.2101  1.2052 -4.5944
 4962TIP3    H236522   3.602   6.289  -0.004 -1.4812  0.0352  1.3465
 4963TIP3   OH236523   5.794   6.394   0.224 -0.6589  0.2321  0.0632
 4963TIP3    H136524   5.789   6.485   0.255  0.2210 -0.0023  0.9578
 4963TIP3    H236525   5.867   6.356   0.274 -2.4524 -1.6235  1.4160
 4964TIP3   OH236526   0.050   2.235   1.347  0.7581 -0.7351  0.4094
 4964TIP3    H136527   0.106   2.310   1.369 -0.0104 -0.4718  1.5452
 4964TIP3    H236528   0.099   2.159   1.377  0.0863 -0.4349  2.3691
 4965TIP3   OH236529   4.484   5.123   6.780 -0.1531  0.5048 -0.3019
 4965TIP3    H136530   4.467   5.127   6.875  1.4033 -0.1894  0.0304
 4965TIP3    H236531   4.476   5.213   6.751  0.9092  0.9747  0.7939
 4966TIP3   OH236532   3.766   5.255   0.678 -0.5318  0.5689 -0.0557
 4966TIP3    H136533   3.678   5.292   0.675  0.0484  1.9290 -1.9037
 4966TIP3    H236534   3.804   5.290   0.758 -1.8912 -0.6775  1.1912
 4967TIP3   OH236535   4.019   1.765   1.959  0.2963  0.0651 -0.3986
 4967TIP3    H136536   4.096   1.819   1.980 -0.2130  1.0130 -0.9352
 4967TIP3    H236537   4.050   1.675   1.969  1.8147  0.4006 -1.7481
 4968TIP3   OH236538   0.108   2.385   1.971 -0.5050 -0.0018  0.3342
 4968TIP3    H136539   0.053   2.389   2.049 -0.6809  0.5842  0.1837
 4968TIP3    H236540   0.158   2.467   1.972  1.4442 -1.1135  1.2334
 4969TIP3   OH236541   5.193   0.200   1.364  0.3043  0.3590 -0.2226
 4969TIP3    H136542   5.204   0.291   1.336 -0.9009  0.6944  0.3189
 4969TIP3    H236543   5.122   0.203   1.429  0.9087 -0.8291  0.5295
 4970TIP3   OH236544   3.092   0.506   8.618 -0.0859 -0.1492 -0.2321
 4970TIP3    H136545   3.056   0.437   8.673 -0.8798 -0.1983 -0.8031
 4970TIP3    H236546   3.045   0.498   8.535 -2.1880  2.7547  0.5319
 4971TIP3   OH236547   6.814   4.689   7.174  0.5267  0.7092  0.7775
 4971TIP3    H136548   6.729   4.650   7.153  0.3276  1.5087  0.0485
 4971TIP3    H236549   6.808   4.713   7.267  0.1903  0.1816  0.8931
 4972TIP3   OH236550   1.991   6.823   1.927 -0.2433 -0.6181 -0.4832
 4972TIP3    H136551   2.072   6.811   1.976 -0.3811 -1.1449 -0.3760
 4972TIP3    H236552   1.952   6.736   1.923 -0.2160 -0.5977 -1.5534
 4973TIP3   OH236553   6.344   6.302   0.953 -0.0210  0.0267  0.2608
 4973TIP3    H136554   6.434   6.284   0.981 -0.3168 -0.8561  0.7005
 4973TIP3    H236555   6.298   6.324   1.033 -0.8250 -2.3006  0.5223
 4974TIP3   OH236556   1.828   4.356   0.392 -0.1639  0.6427 -0.0600
 4974TIP3    H136557   1.905   4.299   0.394 -1.0389 -0.6216 -0.8445
 4974TIP3    H236558   1.858   4.438   0.431  0.8308 -0.7504  2.3694
 4975TIP3   OH236559   2.247   5.767   7.072 -0.7918 -0.2019  0.4249
 4975TIP3    H136560   2.296   5.740   6.994 -0.6691  0.1933  0.3620
 4975TIP3    H236561   2.311   5.761   7.143 -0.6988  0.1405  0.3726
 4976TIP3   OH236562   2.061   6.719   7.264  0.2492 -0.4610 -0.1848
 4976TIP3    H136563   2.120   6.661   7.312  1.3355  0.1745 -0.7195
 4976TIP3    H236564   2.005   6.659   7.213  1.4471 -1.0507 -0.8450
 4977TIP3   OH236565   3.201   4.861   6.934 -0.1225 -0.0026  0.0033
 4977TIP3    H136566   3.208   4.770   6.906 -0.4420  0.2618 -0.9794
 4977TIP3    H236567   3.248   4.910   6.867  1.8370  0.4070  1.5647
 4978TIP3   OH236568   5.362   2.738   1.642  0.6610  0.2687 -0.4841
 4978TIP3    H136569   5.334   2.647   1.652 -1.8791  0.9326 -0.9531
 4978TIP3    H236570   5.426   2.751   1.712  1.0110 -1.8111 -0.3477
 4979TIP3   OH236571   5.500   1.891   8.383 -0.2996 -0.0844  0.3464
 4979TIP3    H136572   5.576   1.837   8.406 -0.6617 -0.8156 -0.1251
 4979TIP3    H236573   5.425   1.838   8.410 -0.6524  0.5969  0.7283
 4980TIP3   OH236574   2.686   6.005   1.236 -0.0141 -0.2636 -0.2746
 4980TIP3    H136575   2.683   5.973   1.326 -0.3195  0.4393 -0.0246
 4980TIP3    H236576   2.596   5.999   1.205  0.0788 -0.4432 -0.5085
 4981TIP3   OH236577   5.257   3.427   1.978 -0.4675 -0.0034 -0.4664
 4981TIP3    H136578   5.303   3.480   2.043 -2.1443  0.4036  0.4616
 4981TIP3    H236579   5.258   3.480   1.898 -3.0800  2.0960  0.7218
 4982TIP3   OH236580   4.090   4.765   7.579  0.1984 -0.3589 -0.7690
 4982TIP3    H136581   4.105   4.703   7.650  1.2919 -0.5508 -1.1493
 4982TIP3    H236582   4.133   4.726   7.503  1.8392  1.2982 -0.7731
 4983TIP3   OH236583   4.368   4.899   8.571 -0.9078 -0.5068 -0.4841
 4983TIP3    H136584   4.443   4.886   8.629 -2.4466 -2.2310  1.2811
 4983TIP3    H236585   4.388   4.980   8.524  1.4242 -0.1868  0.8640
 4984TIP3   OH236586   1.345   1.402   8.216  0.2868  0.4269  0.0521
 4984TIP3    H136587   1.365   1.435   8.128  0.1543 -0.3341 -0.2737
 4984TIP3    H236588   1.377   1.470   8.275  1.5727  0.3572 -0.5324
 4985TIP3   OH236589   5.763   3.718   7.000  0.6355  0.1019  0.1490
 4985TIP3    H136590   5.671   3.721   7.023  0.8887  0.4538  1.1786
 4985TIP3    H236591   5.807   3.765   7.071  1.7191 -1.1074  0.3235
 4986TIP3   OH236592   3.031   2.788   2.317  0.5412 -0.4074  0.5696
 4986TIP3    H136593   3.069   2.767   2.402  0.5316 -0.1758  0.6311
 4986TIP3    H236594   3.044   2.709   2.264 -1.7938 -1.5674  1.5853
 4987TIP3   OH236595   5.475   1.220   0.634 -0.1836 -0.4181  0.2827
 4987TIP3    H136596   5.435   1.307   0.633  0.2069 -0.2327 -0.4799
 4987TIP3    H236597   5.477   1.194   0.542 -0.3456 -1.2650  0.5086
 4988TIP3   OH236598   4.156   4.602   0.023  0.0055  0.0393 -0.0315
 4988TIP3    H136599   4.131   4.623  -0.067 -2.3514  0.7840  0.7414
 4988TIP3    H236600   4.246   4.633   0.030  0.2617 -0.0714 -2.1269
 4989TIP3   OH236601   6.260   4.210   0.990  0.1891 -0.1102 -0.1863
 4989TIP3    H136602   6.321   4.145   1.025 -1.3485 -2.0748 -0.9517
 4989TIP3    H236603   6.225   4.254   1.068  0.9357 -0.5172  0.3849
 4990TIP3   OH236604   0.535   4.762   1.349  0.4771  0.5598  0.0317
 4990TIP3    H136605   0.446   4.732   1.368 -0.9835  4.0706 -0.5608
 4990TIP3    H236606   0.578   4.684   1.313 -1.7013 -1.7802  2.0780
 4991TIP3   OH236607   3.318   0.897   0.219 -0.0567 -0.0222 -0.0894
 4991TIP3    H136608   3.317   0.846   0.138 -1.0018  0.7630 -0.6062
 4991TIP3    H236609   3.357   0.981   0.194 -0.4732  0.2719  0.2314
 4992TIP3   OH236610   1.337   3.799   8.497 -0.4306 -0.3162  0.3666
 4992TIP3    H136611   1.289   3.799   8.414  0.4168 -0.5230 -0.1317
 4992TIP3    H236612   1.376   3.886   8.503  0.8940 -0.8325 -0.2890
 4993TIP3   OH236613   2.386   3.165   7.437  0.3804 -0.2893  0.3948
 4993TIP3    H136614   2.414   3.255   7.425  0.0333 -0.0884  1.0726
 4993TIP3    H236615   2.431   3.136   7.516  0.3594 -0.6577  0.2738
 4994TIP3   OH236616   3.859   5.971   0.521 -0.1031 -0.6663 -0.0878
 4994TIP3    H136617   3.779   5.929   0.490 -0.6538  0.7254 -0.6223
 4994TIP3    H236618   3.846   5.980   0.616  0.2554 -2.1156  0.1353
 4995TIP3   OH236619   1.105   4.810   1.311 -0.0404  0.4203  0.1147
 4995TIP3    H136620   1.087   4.792   1.219 -1.0237  1.2874  0.1210
 4995TIP3    H236621   1.078   4.731   1.357  0.5439 -0.0542 -0.3364
 4996TIP3   OH236622   3.898   3.186   8.229  0.4583  0.1172  0.0166
 4996TIP3    H136623   3.983   3.229   8.236  0.3500  0.0440  2.4369
 4996TIP3    H236624   3.919   3.093   8.222  0.5853  0.2263 -1.3849
 4997TIP3   OH236625   5.204   1.576   2.214 -0.0898  0.2335  0.0207
 4997TIP3    H136626   5.133   1.638   2.230  0.2599 -0.1379  4.0664
 4997TIP3    H236627   5.283   1.623   2.242  0.8465 -0.4762 -1.3385
 4998TIP3   OH236628   2.379   4.547   2.029  0.3325  0.4144 -0.4999
 4998TIP3    H136629   2.293   4.510   2.050  0.0299  0.8699 -0.9175
 4998TIP3    H236630   2.411   4.492   1.958  0.5229  0.0586 -0.1446
 4999TIP3   OH236631   3.174   5.449   7.819 -0.2307  0.6176 -0.1917
 4999TIP3    H136632   3.201   5.433   7.909 -0.2177  0.7537 -0.1704
 4999TIP3    H236633   3.092   5.499   7.827 -0.4685  0.2449 -0.2549
 5000TIP3   OH236634   1.909   0.379   1.035 -0.4423 -0.3691 -0.2524
 5000TIP3    H136635   1.858   0.427   0.969  0.3141 -0.1444 -0.6808
 5000TIP3    H236636   1.970   0.444   1.070  1.3750 -1.2510 -1.6326
 5001TIP3   OH236637   6.668   5.872   7.995 -0.4289  0.3578  0.0254
 5001TIP3    H136638   6.590   5.925   8.013  0.4259  1.3125  1.1322
 5001TIP3    H236639   6.641   5.782   8.009 -1.6840  0.5585 -0.9755
 5002TIP3   OH236640   2.579   3.961   0.108 -0.7246  0.0491 -0.2670
 5002TIP3    H136641   2.662   3.992   0.142 -0.9576 -0.9788  1.3663
 5002TIP3    H236642   2.587   3.866   0.108 -0.7992 -0.0207 -3.0813
 5003TIP3   OH236643   4.649   0.860   7.689  0.2768  0.4299  0.3120
 5003TIP3    H136644   4.718   0.897   7.635 -0.2903  0.5573 -0.3406
 5003TIP3    H236645   4.682   0.774   7.715  0.4268  0.2419 -0.4990
 5004TIP3   OH236646   3.369   5.446   1.673  0.0832 -0.6785  0.1528
 5004TIP3    H136647   3.349   5.442   1.580  1.4201 -0.2522 -0.1746
 5004TIP3    H236648   3.354   5.357   1.704 -0.1148 -0.8876 -0.5241
 5005TIP3   OH236649   5.405   0.509   1.479  1.0047  0.1542 -0.1500
 5005TIP3    H136650   5.449   0.593   1.485  0.9983  0.0688  1.3089
 5005TIP3    H236651   5.376   0.490   1.568 -1.2056 -0.2191 -0.8856
 5006TIP3   OH236652   6.418   1.405   8.340  0.0773  0.3808  0.5943
 5006TIP3    H136653   6.476   1.336   8.371 -1.6655 -2.1853 -1.4244
 5006TIP3    H236654   6.468   1.452   8.274  1.1050  0.7396  1.6019
 5007TIP3   OH236655   4.217   3.228   7.970  0.0369 -0.0545  0.5179
 5007TIP3    H136656   4.191   3.236   8.062  0.7952 -0.0488  0.7424
 5007TIP3    H236657   4.137   3.203   7.924 -0.9597  2.4489  0.7702
 5008TIP3   OH236658   2.522   5.374   0.502  0.1714  0.1104  0.0214
 5008TIP3    H136659   2.446   5.429   0.520 -0.0378 -0.6629  1.8119
 5008TIP3    H236660   2.598   5.430   0.518 -0.0350 -0.1620  2.2545
 5009TIP3   OH236661   3.082   0.205   8.741  0.3390  0.4116 -0.7604
 5009TIP3    H136662   3.035   0.209   8.658  0.3778 -0.6325 -0.8394
 5009TIP3    H236663   3.164   0.252   8.725 -0.5745  2.1279 -0.6641
 5010TIP3   OH236664   3.360   6.622   8.285 -0.2391  0.7815  0.3749
 5010TIP3    H136665   3.383   6.547   8.231  0.4180  0.4630  1.0692
 5010TIP3    H236666   3.301   6.586   8.352 -1.4701  1.2728 -0.4202
 5011TIP3   OH236667   2.053   0.835   7.185 -0.1561 -0.0867  0.5367
 5011TIP3    H136668   1.976   0.830   7.242  0.3967  1.4220  1.4720
 5011TIP3    H236669   2.024   0.884   7.109 -0.4775 -0.7420  0.2282
 5012TIP3   OH236670   6.274   5.085   2.324 -0.2333 -0.9290  0.0505
 5012TIP3    H136671   6.244   5.119   2.240 -1.9310 -0.0280  0.9778
 5012TIP3    H236672   6.195   5.076   2.376  0.6573 -2.5384  1.2002
 5013TIP3   OH236673   2.469   4.009   6.264  0.5335 -0.1562 -0.1034
 5013TIP3    H136674   2.438   3.923   6.293 -1.4119  1.3828  2.9207
 5013TIP3    H236675   2.406   4.037   6.198 -0.1212 -0.1914  0.4976
 5014TIP3   OH236676   6.100   4.577   8.191  0.3638 -0.2632 -0.5889
 5014TIP3    H136677   6.073   4.525   8.116 -0.6767  2.0157 -1.8830
 5014TIP3    H236678   6.018   4.608   8.229  0.8921 -0.9692  1.2514
 5015TIP3   OH236679   2.914   3.671   7.681 -0.0861  0.2291  0.4824
 5015TIP3    H136680   2.847   3.702   7.621 -1.3389 -0.2167  1.5866
 5015TIP3    H236681   2.931   3.745   7.740  3.1732  1.6737 -1.9444
 5016TIP3   OH236682   2.000   2.650   6.502  0.2793  0.5242  0.0539
 5016TIP3    H136683   2.008   2.745   6.498  1.0128  0.4174 -2.1421
 5016TIP3    H236684   2.089   2.619   6.521  0.1975  0.2601  0.0132
 5017TIP3   OH236685   0.495   6.223   8.625  0.0941  0.1778 -0.4383
 5017TIP3    H136686   0.426   6.289   8.625 -0.5447 -0.4739 -0.0350
 5017TIP3    H236687   0.448   6.139   8.621  0.8089 -0.3133  0.7832
 5018TIP3   OH236688   5.188   0.989   0.291  0.0224 -0.4319 -0.2858
 5018TIP3    H136689   5.188   0.929   0.216  0.1115  0.2044 -0.8067
 5018TIP3    H236690   5.128   1.059   0.265 -0.3508 -0.4662  0.4586
 5019TIP3   OH236691   4.755   1.048   1.095 -0.1279 -0.0751 -0.4673
 5019TIP3    H136692   4.820   1.050   1.166 -0.0522  2.6747 -0.5250
 5019TIP3    H236693   4.773   0.966   1.049  0.8145 -1.2098  1.7594
 5020TIP3   OH236694   6.350   5.133   0.471 -0.0313 -0.6707  0.1074
 5020TIP3    H136695   6.364   5.227   0.455  0.4183 -0.6413  0.6582
 5020TIP3    H236696   6.290   5.130   0.546  1.3416 -0.8090  1.2534
 5021TIP3   OH236697   1.864   5.292   8.546 -0.3097 -0.1919  0.5567
 5021TIP3    H136698   1.921   5.367   8.531  0.2405 -0.0484  3.0491
 5021TIP3    H236699   1.797   5.299   8.478  0.2552  2.0155  0.1648
 5022TIP3   OH236700   5.756   4.248   0.451  0.4170  0.6967 -0.3138
 5022TIP3    H136701   5.800   4.189   0.513  0.0845 -0.3278 -1.0242
 5022TIP3    H236702   5.685   4.196   0.414 -0.6990  1.9724 -0.0238
 5023TIP3   OH236703   4.897   2.524   0.350 -0.2465 -0.6685 -0.2630
 5023TIP3    H136704   4.967   2.529   0.285 -0.1305 -2.9062 -0.4130
 5023TIP3    H236705   4.905   2.605   0.400  1.0879  0.0991 -1.6115
 5024TIP3   OH236706   0.922   5.167   0.340  0.0667 -0.9848 -0.2183
 5024TIP3    H136707   0.879   5.239   0.385  3.4061  0.8366  0.4216
 5024TIP3    H236708   0.962   5.207   0.263  1.3875 -2.2852 -0.2708
 5025TIP3   OH236709   5.642   5.767   8.655 -1.3375 -0.2393 -0.1125
 5025TIP3    H136710   5.561   5.752   8.702 -0.8534  0.5997  1.0322
 5025TIP3    H236711   5.620   5.833   8.589 -1.4701  0.3557  0.5249
 5026TIP3   OH236712   6.044   3.512   8.201  0.1970  0.1681  0.8204
 5026TIP3    H136713   6.041   3.500   8.296 -1.2596 -1.0205  0.6618
 5026TIP3    H236714   5.988   3.588   8.185  2.2323  1.7984  1.0578
 5027TIP3   OH236715   1.779   3.501   7.158  0.5052 -0.2761 -0.3318
 5027TIP3    H136716   1.768   3.442   7.083 -0.1620  1.1813 -1.4429
 5027TIP3    H236717   1.690   3.517   7.189  0.6423  0.3829 -0.2649
 5028TIP3   OH236718   4.729   5.817   8.453 -0.5171 -0.2915 -0.1261
 5028TIP3    H136719   4.663   5.755   8.424  0.2572 -0.7317 -0.9837
 5028TIP3    H236720   4.775   5.843   8.373 -1.1466  1.7779  0.1327
 5029TIP3   OH236721   6.376   5.153   7.000  0.1283  0.2010 -0.0859
 5029TIP3    H136722   6.409   5.172   7.088  0.2994 -0.0190 -0.1027
 5029TIP3    H236723   6.449   5.174   6.942  0.1928 -0.1587 -0.1341
 5030TIP3   OH236724   2.808   6.026   0.622 -0.4168  0.1742 -0.5257
 5030TIP3    H136725   2.811   6.120   0.605 -0.3270 -0.0340 -1.7483
 5030TIP3    H236726   2.743   6.016   0.691 -1.0475  1.0574 -0.9759
 5031TIP3   OH236727   3.714   0.946   7.418  0.2222  0.2522 -0.3407
 5031TIP3    H136728   3.680   0.858   7.400  0.8176 -0.0050 -0.2267
 5031TIP3    H236729   3.794   0.931   7.468  1.3042  0.7891 -1.8269
 5032TIP3   OH236730   0.223   0.020   6.967  0.0320 -0.7057  0.4938
 5032TIP3    H136731   0.223   0.102   7.017 -2.4395  1.1097 -2.1722
 5032TIP3    H236732   0.151  -0.031   7.004 -0.5856 -0.1765  0.0477
 5033TIP3   OH236733   2.130   4.175   7.865 -0.5074  0.2642 -0.1009
 5033TIP3    H136734   2.170   4.091   7.842 -0.7725  0.0051  0.3796
 5033TIP3    H236735   2.118   4.171   7.960  1.6868  1.7986  0.3187
 5034TIP3   OH236736   5.411   6.405   7.486  0.2756  0.0988  0.2124
 5034TIP3    H136737   5.368   6.335   7.438  0.4221 -0.3976  0.7906
 5034TIP3    H236738   5.412   6.479   7.425  0.7464 -0.6038 -0.6665
 5035TIP3   OH236739   6.078   4.383   8.720 -0.2744  0.0629 -0.4877
 5035TIP3    H136740   6.144   4.336   8.772 -0.3261 -1.4572 -1.7093
 5035TIP3    H236741   6.042   4.448   8.780 -0.5829 -1.8187  1.4832
 5036TIP3   OH236742   2.365   2.828   0.327 -0.1347  0.8240 -0.2532
 5036TIP3    H136743   2.460   2.834   0.333 -0.1004 -0.1283  0.3277
 5036TIP3    H236744   2.348   2.796   0.238  0.0782  1.0941 -0.3922
 5037TIP3   OH236745   5.414   0.026   1.451 -0.3576  0.4224 -0.7858
 5037TIP3    H136746   5.364   0.092   1.404  0.3117  0.8909 -0.8465
 5037TIP3    H236747   5.361   0.006   1.529 -0.8610  0.5592 -1.0901
 5038TIP3   OH236748   3.263   0.515   0.188  0.2694  0.3523 -0.0204
 5038TIP3    H136749   3.308   0.464   0.121 -0.1384 -0.3323  0.2203
 5038TIP3    H236750   3.235   0.595   0.143  0.9155  0.3798 -0.3973
 5039TIP3   OH236751   4.051   6.760   1.913 -0.1545 -0.2985 -0.0429
 5039TIP3    H136752   4.033   6.838   1.966  0.9570 -0.9186  1.3104
 5039TIP3    H236753   4.119   6.788   1.851  0.0680 -0.1218  0.2775
 5040TIP3   OH236754   1.062   5.271   1.551 -0.1488  0.3538  0.2065
 5040TIP3    H136755   1.013   5.217   1.488 -0.3242  0.9980 -0.2166
 5040TIP3    H236756   1.153   5.248   1.535 -0.2771 -0.6279  0.7897
 5041TIP3   OH236757   6.344   5.748   0.214 -0.6306 -0.5830 -0.3816
 5041TIP3    H136758   6.281   5.815   0.190 -1.2940 -1.0632 -0.0275
 5041TIP3    H236759   6.354   5.695   0.135  2.4521  1.8165 -1.8027
 5042TIP3   OH236760   1.085   5.468   7.786  0.7989 -0.3300 -0.1055
 5042TIP3    H136761   1.065   5.548   7.738  0.9437  0.6880  1.4552
 5042TIP3    H236762   1.010   5.411   7.771 -1.7266  1.9549  2.5669
 5043TIP3   OH236763   3.191   6.457   7.577 -0.4539  0.0963 -0.0307
 5043TIP3    H136764   3.261   6.518   7.599 -1.2035  0.2535  2.1255
 5043TIP3    H236765   3.228   6.370   7.594  0.4223 -0.0971 -2.5554
 5044TIP3   OH236766   0.338   6.576   8.173 -0.5290  0.5474 -0.4384
 5044TIP3    H136767   0.346   6.489   8.134  1.8214  0.5423 -0.0869
 5044TIP3    H236768   0.374   6.567   8.261 -0.9667  1.7300 -0.1145
 5045TIP3   OH236769   4.907   5.527   1.222 -0.5868 -0.4631  0.0339
 5045TIP3    H136770   4.967   5.600   1.237 -1.6625  0.1612  1.5599
 5045TIP3    H236771   4.929   5.495   1.134  0.5402  1.0901 -0.2832
 5046TIP3   OH236772   1.902   4.594   1.146  0.0298 -0.3379 -0.1979
 5046TIP3    H136773   1.964   4.521   1.146 -2.3421 -2.5703  1.1346
 5046TIP3    H236774   1.898   4.621   1.238 -0.7166 -0.0369 -0.3145
 5047TIP3   OH236775   4.502   4.224   0.127  0.4611  0.0400 -0.2503
 5047TIP3    H136776   4.509   4.223   0.222  0.9655 -0.3486 -0.2885
 5047TIP3    H236777   4.410   4.245   0.110 -0.1255 -1.9111  0.3260
 5048TIP3   OH236778   2.097   3.165   6.427  0.2753  0.3805 -0.5671
 5048TIP3    H136779   2.093   3.199   6.338 -1.0350  1.9825  0.0611
 5048TIP3    H236780   2.034   3.217   6.476  1.0067 -0.4153  1.3325
 5049TIP3   OH236781   1.868   2.409   8.445  0.5857  0.3930 -0.1153
 5049TIP3    H136782   1.816   2.486   8.421  0.2055  0.3247  0.4885
 5049TIP3    H236783   1.952   2.444   8.472  0.6129  0.5520 -0.3984
 5050TIP3   OH236784   2.621   2.598   7.418  0.1156 -0.1400 -0.8291
 5050TIP3    H136785   2.698   2.541   7.428  0.4092  0.2860 -0.6234
 5050TIP3    H236786   2.559   2.566   7.482  0.1810 -0.3905 -0.8901
 5051TIP3   OH236787   3.335   6.584   1.888 -0.5066 -0.8910  0.4575
 5051TIP3    H136788   3.309   6.545   1.971 -0.8916 -2.2986 -0.2903
 5051TIP3    H236789   3.253   6.589   1.837 -0.6622  1.8207  0.8462
 5052TIP3   OH236790   5.512   3.654   0.906  0.1325  0.4273  0.0289
 5052TIP3    H136791   5.498   3.630   0.998 -0.9040  2.1626  0.3666
 5052TIP3    H236792   5.440   3.612   0.859  0.1415  0.2793  0.1482
 5053TIP3   OH236793   6.349   5.827   1.386 -0.4742  0.1457  0.1645
 5053TIP3    H136794   6.414   5.865   1.445 -0.7389 -0.5346  0.9079
 5053TIP3    H236795   6.313   5.753   1.434 -2.7940  1.2883  0.3437
 5054TIP3   OH236796   4.975   2.132   0.782 -0.0641  0.2293  0.2447
 5054TIP3    H136797   4.973   2.117   0.687 -0.2696 -0.1894  0.3153
 5054TIP3    H236798   4.936   2.219   0.792  1.4253  0.9775 -0.1857
 5055TIP3   OH236799   2.469   1.895   7.112  0.7049  0.0445  0.3362
 5055TIP3    H136800   2.421   1.875   7.031  1.6742 -0.3478 -0.1549
 5055TIP3    H236801   2.456   1.818   7.168 -0.9757  0.8155  1.0669
 5056TIP3   OH236802   4.685   2.189   7.412  0.1842 -0.3265 -0.3691
 5056TIP3    H136803   4.612   2.151   7.362 -0.4446 -1.4519  1.3262
 5056TIP3    H236804   4.731   2.114   7.449  1.7361  0.4073 -0.7200
 5057TIP3   OH236805   5.671   5.448   0.116 -0.2096 -0.4079 -0.6780
 5057TIP3    H136806   5.639   5.535   0.093  0.6909  0.8605  2.4006
 5057TIP3    H236807   5.658   5.442   0.211  0.9716 -3.1187 -0.6006
 5058TIP3   OH236808   2.570   2.197   6.119  0.5260  0.0669 -0.2557
 5058TIP3    H136809   2.478   2.176   6.139  0.6446  0.4367  0.7447
 5058TIP3    H236810   2.602   2.119   6.075 -0.9370  0.8717 -2.9544
 5059TIP3   OH236811   4.200   0.585   0.982 -0.0304  0.0804 -0.1165
 5059TIP3    H136812   4.189   0.514   1.045  0.5565 -0.7204 -0.8965
 5059TIP3    H236813   4.111   0.616   0.965 -0.3569 -0.8867 -0.2317
 5060TIP3   OH236814   2.276   4.023   0.330 -0.3546 -0.3917  0.2445
 5060TIP3    H136815   2.253   3.931   0.344 -0.1286 -0.6718 -1.0411
 5060TIP3    H236816   2.362   4.033   0.370 -1.8707  0.2513  3.6623
 5061TIP3   OH236817   3.026   3.835   1.435 -0.1335  0.1185 -0.0980
 5061TIP3    H136818   3.087   3.763   1.453  0.9219  0.7699 -0.9703
 5061TIP3    H236819   3.071   3.889   1.371 -1.0121  1.4488  0.3784
 5062TIP3   OH236820   5.558   1.118   7.518 -0.0084  0.2897  0.1499
 5062TIP3    H136821   5.559   1.210   7.494 -3.0039  0.6433  0.9522
 5062TIP3    H236822   5.504   1.076   7.450  0.6289 -0.7244  0.2464
 5063TIP3   OH236823   2.139   1.780   1.509  0.9386  0.4687  0.0597
 5063TIP3    H136824   2.073   1.711   1.520  0.9007  0.5357  0.2625
 5063TIP3    H236825   2.219   1.734   1.487  0.8931  0.3651  0.1096
 5064TIP3   OH236826   2.597   0.862   7.739 -0.3104 -0.1155  0.2423
 5064TIP3    H136827   2.558   0.843   7.653 -1.4206 -2.2834  1.1449
 5064TIP3    H236828   2.551   0.940   7.769  0.5028  1.0296 -1.3297
 5065TIP3   OH236829   5.881   0.867   1.276  0.8018 -0.5571 -0.0379
 5065TIP3    H136830   5.925   0.783   1.286 -0.3203 -1.5116 -2.2885
 5065TIP3    H236831   5.929   0.911   1.205  1.0048  0.4468  0.7049
 5066TIP3   OH236832   4.850   3.707   7.137 -0.1634 -0.4008  0.0434
 5066TIP3    H136833   4.890   3.795   7.136 -1.3795  0.1706 -0.2648
 5066TIP3    H236834   4.807   3.700   7.052 -1.0787 -0.8179  0.5293
 5067TIP3   OH236835   6.715   1.747   7.137  0.6197 -0.9139 -0.0097
 5067TIP3    H136836   6.772   1.820   7.114 -0.5710 -0.1297 -0.6319
 5067TIP3    H236837   6.657   1.782   7.205 -0.9911 -0.7182 -1.3973
 5068TIP3   OH236838   3.826   4.825   8.477  0.1562  0.7385 -0.7903
 5068TIP3    H136839   3.868   4.747   8.512 -0.0448  0.9302 -0.1105
 5068TIP3    H236840   3.819   4.808   8.383  2.2635  0.9486 -1.0341
 5069TIP3   OH236841   4.139   5.813   0.392 -0.4723 -0.2721 -0.9517
 5069TIP3    H136842   4.083   5.837   0.318 -1.7568 -0.8959 -0.2245
 5069TIP3    H236843   4.100   5.733   0.426  0.3675 -0.2448  0.1229
 5070TIP3   OH236844   6.501   1.435   6.238 -0.4020  0.1588 -0.2398
 5070TIP3    H136845   6.499   1.357   6.183 -0.7216  0.0717 -0.1087
 5070TIP3    H236846   6.519   1.402   6.326  0.9864  0.3795 -0.4218
 5071TIP3   OH236847   5.913   4.722   7.036 -0.1882 -0.5109 -0.4202
 5071TIP3    H136848   5.937   4.814   7.032 -0.0988 -0.5152 -0.0182
 5071TIP3    H236849   5.959   4.682   6.962  0.4665 -0.3904 -0.0889
 5072TIP3   OH236850   1.690   3.235   0.009  0.3860 -0.4553  0.0680
 5072TIP3    H136851   1.645   3.314   0.038 -1.9301 -1.1501 -1.3170
 5072TIP3    H236852   1.770   3.232   0.061 -1.2430  0.8093  2.8534
 5073TIP3   OH236853   1.073   1.366   7.662 -0.3385 -0.7242  0.1043
 5073TIP3    H136854   1.136   1.381   7.732 -0.2087  1.3314 -0.3795
 5073TIP3    H236855   1.090   1.437   7.599 -1.8543 -1.2578 -0.9701
 5074TIP3   OH236856   1.435   0.111   0.081  0.0289 -0.2460  0.0978
 5074TIP3    H136857   1.360   0.108   0.140 -1.2058  0.9015 -1.3336
 5074TIP3    H236858   1.492   0.178   0.118  0.7625 -1.6222  1.5916
 5075TIP3   OH236859   1.963   0.329   7.031 -0.7242  0.2082 -0.4205
 5075TIP3    H136860   1.919   0.411   7.052  1.2565  0.5653  2.9523
 5075TIP3    H236861   2.002   0.344   6.945 -1.4634  2.3065 -0.4404
 5076TIP3   OH236862   6.424   1.475   1.886 -0.6222  0.2062  0.2421
 5076TIP3    H136863   6.482   1.452   1.958 -1.6301  1.8090  1.6304
 5076TIP3    H236864   6.339   1.490   1.927 -0.6289  3.8495 -0.7623
 5077TIP3   OH236865   3.985   1.484   0.807 -0.4031  0.6017  0.2051
 5077TIP3    H136866   3.938   1.417   0.857  0.0169  0.8561  0.9581
 5077TIP3    H236867   4.077   1.470   0.829 -0.2945  1.2867  0.1996
 5078TIP3   OH236868   4.246   4.937   1.327 -0.5010 -0.1072 -0.3865
 5078TIP3    H136869   4.303   4.959   1.400 -1.1575 -1.3056  0.5256
 5078TIP3    H236870   4.303   4.893   1.264  0.2974  1.8848 -1.1249
 5079TIP3   OH236871   1.237   2.595   7.584 -0.1881 -0.1841 -0.1570
 5079TIP3    H136872   1.154   2.633   7.554 -3.0069 -4.8820  0.7187
 5079TIP3    H236873   1.225   2.583   7.678  1.3609 -1.3499 -0.0742
 5080TIP3   OH236874   5.718   5.926   0.072  0.3611 -0.0395 -0.2547
 5080TIP3    H136875   5.699   6.020   0.065 -0.6756 -0.1998  0.1852
 5080TIP3    H236876   5.727   5.897  -0.018 -1.1061  0.1558 -0.5019
 5081TIP3   OH236877   1.486   2.411   7.980 -0.2777  0.0738 -0.2268
 5081TIP3    H136878   1.512   2.486   8.034 -2.7433  0.6236  0.3310
 5081TIP3    H236879   1.424   2.447   7.917 -1.5378 -1.4749  0.0613
 5082TIP3   OH236880   5.046   4.094   8.210 -0.1135  0.0554 -0.3562
 5082TIP3    H136881   5.060   4.187   8.231  0.1509 -0.1989  0.6762
 5082TIP3    H236882   5.070   4.086   8.118 -1.1416  1.2131 -0.7512
 5083TIP3   OH236883   3.265   2.485   0.760  0.2614 -0.0295 -0.1344
 5083TIP3    H136884   3.295   2.437   0.837 -1.9371 -1.5534 -0.1543
 5083TIP3    H236885   3.178   2.518   0.785 -1.0904 -1.6711 -2.3274
 5084TIP3   OH236886   2.887   1.419   8.282 -0.1261 -0.7015 -0.2601
 5084TIP3    H136887   2.827   1.484   8.321  1.5493  0.8198 -0.0902
 5084TIP3    H236888   2.974   1.457   8.293  0.8350 -2.5179 -1.1489
 5085TIP3   OH236889   0.056   4.041   0.174 -0.1558 -0.1955  0.4831
 5085TIP3    H136890   0.052   3.946   0.189 -0.4912 -0.2921 -0.1707
 5085TIP3    H236891   0.111   4.051   0.097  0.1439  0.1711  0.7392
 5086TIP3   OH236892   3.249   4.946   0.816 -0.0679 -0.6284 -0.7788
 5086TIP3    H136893   3.273   4.950   0.909 -0.2269  0.5415 -0.7723
 5086TIP3    H236894   3.328   4.972   0.769 -0.3210 -0.0683 -0.9069
 5087TIP3   OH236895   1.170   1.583   8.073  0.2130  0.6889 -0.6141
 5087TIP3    H136896   1.188   1.564   7.981  1.2720  0.9739 -0.4864
 5087TIP3    H236897   1.257   1.591   8.113 -0.2323  0.5231  0.4196
 5088TIP3   OH236898   3.294   3.018   0.862  0.5839 -0.2736 -0.0845
 5088TIP3    H136899   3.246   2.978   0.790 -1.6297 -0.0338  1.1680
 5088TIP3    H236900   3.315   3.106   0.831 -1.0645  0.1076 -0.1939
 5089TIP3   OH236901   1.684   0.931   7.388  0.2736 -0.1749 -0.4153
 5089TIP3    H136902   1.597   0.950   7.354  0.2703  0.2380 -0.1818
 5089TIP3    H236903   1.683   0.963   7.478  0.2441 -1.3644  0.0295
 5090TIP3   OH236904   1.528   3.168   0.487 -0.2753 -0.2666 -0.0116
 5090TIP3    H136905   1.480   3.246   0.517 -1.1029 -0.3457 -1.1045
 5090TIP3    H236906   1.597   3.203   0.430 -1.1775 -0.3852 -1.1851
 5091TIP3   OH236907   2.784   4.897   1.642 -0.2694 -0.5778  0.3697
 5091TIP3    H136908   2.818   4.810   1.619 -0.3622 -0.6047  0.3374
 5091TIP3    H236909   2.751   4.886   1.731 -0.0488 -0.5115  0.4610
 5092TIP3   OH236910   1.033   2.927   0.841 -0.1910  0.5450  0.7155
 5092TIP3    H136911   1.093   2.943   0.914 -0.8753  1.1737  1.1643
 5092TIP3    H236912   1.079   2.959   0.764  1.4064 -1.9966  0.5034
 5093TIP3   OH236913   1.480   0.477   0.388 -0.6023 -0.4175 -1.0560
 5093TIP3    H136914   1.494   0.565   0.353 -0.4558 -0.1878 -0.4332
 5093TIP3    H236915   1.385   0.465   0.386 -0.6755  0.0274 -0.5079
 5094TIP3   OH236916   1.047   4.639   1.704 -0.5379 -0.2001 -0.2746
 5094TIP3    H136917   1.002   4.681   1.778  0.8447 -0.7354  0.9187
 5094TIP3    H236918   1.093   4.565   1.743  2.4111  1.0229 -1.1472
 5095TIP3   OH236919   0.972   3.788   2.034  0.3981  0.0868  0.0581
 5095TIP3    H136920   0.879   3.784   2.057 -0.0620 -1.7064 -1.8405
 5095TIP3    H236921   0.988   3.882   2.019 -1.1210  0.4272  0.3577
 5096TIP3   OH236922   5.946   4.494   0.770  0.8581  0.0887 -0.2138
 5096TIP3    H136923   5.954   4.589   0.765  0.6690  0.0578 -1.4268
 5096TIP3    H236924   6.033   4.462   0.750  1.0972  0.0030  0.8982
 5097TIP3   OH236925   0.188   6.817   8.351  0.2943  0.1778 -0.1942
 5097TIP3    H136926   0.150   6.797   8.266  1.3364 -1.0472 -0.4046
 5097TIP3    H236927   0.249   6.745   8.367  2.3395  1.8943  0.1994
 5098TIP3   OH236928   3.941   2.443   1.280 -0.2349  0.4901  0.6476
 5098TIP3    H136929   3.861   2.440   1.332 -0.3032  0.1177  0.5291
 5098TIP3    H236930   4.006   2.397   1.333 -1.0516 -2.6142 -0.8109
 5099TIP3   OH236931   6.440   1.869   8.542 -0.4758  0.1106  0.2450
 5099TIP3    H136932   6.502   1.857   8.614 -0.0643  1.1761  0.0973
 5099TIP3    H236933   6.408   1.781   8.522 -0.9568 -0.1502  2.0294
 5100TIP3   OH236934   4.669   2.052   0.727  0.2944  0.1399  0.0568
 5100TIP3    H136935   4.762   2.037   0.747  0.8160  1.8833 -0.8491
 5100TIP3    H236936   4.644   2.126   0.783 -0.6668 -0.5233  0.5302
 5101TIP3   OH236937   6.314   1.337   1.593 -0.5898  0.1711 -0.1187
 5101TIP3    H136938   6.243   1.366   1.536  0.1354 -0.8605 -1.5991
 5101TIP3    H236939   6.379   1.299   1.534  1.6948  1.9889  1.0585
 5102TIP3   OH236940   3.622   6.271   6.614 -0.0596 -0.2104  0.0927
 5102TIP3    H136941   3.665   6.200   6.662  0.0584  0.8548  1.6435
 5102TIP3    H236942   3.687   6.342   6.613 -0.7473  0.4299  0.0015
 5103TIP3   OH236943   0.786   0.881   0.023  0.3440 -0.2375 -0.1191
 5103TIP3    H136944   0.808   0.974   0.014 -2.3513  0.3507 -1.8439
 5103TIP3    H236945   0.744   0.875   0.109  0.8401  0.0571  0.1498
 5104TIP3   OH236946   0.273   4.099   1.257 -0.2208  0.6501  0.5725
 5104TIP3    H136947   0.301   4.165   1.320  1.6805  1.3445 -0.9022
 5104TIP3    H236948   0.350   4.044   1.244 -0.4152  0.7758 -1.4243
 5105TIP3   OH236949   3.733   2.732   1.608  0.0018 -0.2653  0.6627
 5105TIP3    H136950   3.804   2.733   1.672 -1.2017 -1.7105  2.1036
 5105TIP3    H236951   3.690   2.647   1.621 -1.7662  0.4148 -0.3974
 5106TIP3   OH236952   4.844   4.812   0.002 -0.4920 -0.4151  0.4215
 5106TIP3    H136953   4.823   4.746   0.069 -0.1182  0.2144  1.1849
 5106TIP3    H236954   4.895   4.878   0.050 -0.5648  0.2509 -0.4055
 5107TIP3   OH236955   5.128   1.130   6.759  0.1963  0.3088  0.2861
 5107TIP3    H136956   5.115   1.091   6.845 -0.0500  0.4856  0.3278
 5107TIP3    H236957   5.200   1.080   6.721 -0.0934 -0.1677  0.3558
 5108TIP3   OH236958   5.165   1.283   7.446 -0.1470  0.1550  0.4809
 5108TIP3    H136959   5.123   1.203   7.416  0.4323 -0.5404  1.4940
 5108TIP3    H236960   5.240   1.294   7.388  1.6676 -1.8374  2.2720
 5109TIP3   OH236961   3.324   1.925   1.496  0.5011  0.5782 -0.2931
 5109TIP3    H136962   3.364   2.007   1.523  1.3848 -0.5169  1.9808
 5109TIP3    H236963   3.290   1.886   1.577  1.1556 -1.8201 -1.0742
 5110TIP3   OH236964   6.049   5.028   1.665 -0.5372 -0.5970  0.4023
 5110TIP3    H136965   6.031   5.019   1.759 -0.1410  1.7396  0.7591
 5110TIP3    H236966   6.054   5.122   1.650 -1.7495 -0.8623 -2.2218
 5111TIP3   OH236967   4.508   3.699   1.718  0.0229  0.3244  0.2420
 5111TIP3    H136968   4.433   3.717   1.775 -0.9684 -0.2020 -0.8379
 5111TIP3    H236969   4.469   3.684   1.632  1.4332  0.6089 -0.4803
 5112TIP3   OH236970   4.304   1.208   2.364  0.5041  0.3233  0.1535
 5112TIP3    H136971   4.363   1.283   2.364 -0.5103  1.1466  0.2113
 5112TIP3    H236972   4.248   1.222   2.440 -1.6778  1.1174 -1.5171
 5113TIP3   OH236973   4.796   2.457   0.857  0.3654 -0.4849 -0.2119
 5113TIP3    H136974   4.841   2.493   0.934 -0.7497  1.1778 -0.2891
 5113TIP3    H236975   4.756   2.376   0.889  1.1713 -0.5934  0.5572
 5114TIP3   OH236976   0.234   0.172   7.191 -0.5452 -0.0751  0.0489
 5114TIP3    H136977   0.235   0.257   7.233 -0.7851  0.0560 -0.2012
 5114TIP3    H236978   0.210   0.111   7.260  1.2905 -0.1881  0.6374
 5115TIP3   OH236979   0.354   5.441   0.358  0.3196  0.2356  0.1507
 5115TIP3    H136980   0.307   5.375   0.409 -1.3325  1.7517  0.6724
 5115TIP3    H236981   0.438   5.450   0.403  0.4473 -1.2219  0.2685
 5116TIP3   OH236982   2.523   3.776   6.953  0.1453  0.4674 -0.3727
 5116TIP3    H136983   2.596   3.795   6.895  0.7259 -0.3137  0.0812
 5116TIP3    H236984   2.563   3.756   7.038 -0.4396 -1.6335 -0.5275
 5117TIP3   OH236985   6.630   3.061   7.351  0.6995  0.0294 -0.1164
 5117TIP3    H136986   6.540   3.032   7.364 -0.1059  2.1782 -0.5222
 5117TIP3    H236987   6.673   3.047   7.435  0.4761 -2.4014 -0.3201
 5118TIP3   OH236988   3.573   2.393   2.702  0.3090  0.6313 -0.0099
 5118TIP3    H136989   3.480   2.401   2.680  0.3110  1.8723  0.3679
 5118TIP3    H236990   3.575   2.376   2.796  0.4471 -0.0127 -0.1270
 5119TIP3   OH236991   4.580   4.219   8.402  1.1318 -0.3246 -0.0278
 5119TIP3    H136992   4.662   4.267   8.391  2.3389 -1.5568  2.5632
 5119TIP3    H236993   4.594   4.136   8.358  1.3206 -0.5364  0.4172
 5120TIP3   OH236994   4.984   5.159   0.379  0.5222 -0.6979  0.1838
 5120TIP3    H136995   4.931   5.145   0.457 -0.8140 -0.7232 -0.7043
 5120TIP3    H236996   5.039   5.235   0.400 -0.3054 -0.2888  0.9037
 5121TIP3   OH236997   5.262   3.170   7.734  0.4188 -0.0652 -0.2101
 5121TIP3    H136998   5.194   3.225   7.774  0.1192 -0.6206  0.0544
 5121TIP3    H236999   5.305   3.128   7.808 -0.2157 -1.1948 -0.4666
 5122TIP3   OH237000   2.614   0.651   1.693  0.5174 -0.0100  0.2120
 5122TIP3    H137001   2.665   0.678   1.770  1.4240 -0.7956 -0.0812
 5122TIP3    H237002   2.587   0.562   1.712  2.0211 -0.7719 -0.9564
 5123TIP3   OH237003   5.938   4.062   1.091 -0.9994 -0.1892 -1.1890
 5123TIP3    H137004   5.937   4.092   1.000  0.3734 -0.7779 -1.4142
 5123TIP3    H237005   5.862   4.106   1.131 -1.0834  0.8021 -2.3735
 5124TIP3   OH237006   0.871   2.137   7.869 -0.3487 -0.7986 -0.2601
 5124TIP3    H137007   0.908   2.217   7.833 -3.1235 -0.3528 -2.4861
 5124TIP3    H237008   0.899   2.068   7.810  0.7515 -1.2493  0.7610
 5125TIP3   OH237009   6.853   4.143   8.046  0.3832 -0.0250  0.1699
 5125TIP3    H137010   6.822   4.061   8.084 -0.3935  0.3045  0.2439
 5125TIP3    H237011   6.775   4.186   8.013  0.5932  1.3368  1.3551
 5126TIP3   OH237012   2.271   4.458   8.532  0.3844  0.6344  0.3173
 5126TIP3    H137013   2.292   4.430   8.621 -1.3907  1.0268  0.9066
 5126TIP3    H237014   2.182   4.492   8.539 -0.1709 -0.2351 -1.7978
 5127TIP3   OH237015   4.428   2.130   8.547 -0.5383  0.1463  0.8168
 5127TIP3    H137016   4.359   2.122   8.482  0.8412  0.2111 -0.7106
 5127TIP3    H237017   4.444   2.041   8.577 -0.0345 -0.1052 -0.1807
 5128TIP3   OH237018   5.193   6.734   8.315  0.3217 -0.0896 -0.3195
 5128TIP3    H137019   5.121   6.682   8.280  0.7767  0.1470 -1.6609
 5128TIP3    H237020   5.212   6.695   8.401 -2.9576  1.3259  1.2062
 5129TIP3   OH237021   2.948   5.219   1.292  0.4643 -0.2971  0.1030
 5129TIP3    H137022   2.881   5.262   1.345 -0.4606 -0.1841 -1.1054
 5129TIP3    H237023   2.919   5.232   1.202  0.4960 -2.8708 -0.3495
 5130TIP3   OH237024   1.141   1.233   1.502  0.2431 -0.3721  0.4457
 5130TIP3    H137025   1.189   1.313   1.525 -1.0806  0.1434  1.6014
 5130TIP3    H237026   1.197   1.188   1.440  0.6270  1.9335 -1.0179
 5131TIP3   OH237027   4.412   3.852   8.180  0.1242  0.1337  0.0061
 5131TIP3    H137028   4.382   3.810   8.261  1.3830 -1.1826 -0.1668
 5131TIP3    H237029   4.386   3.943   8.189 -0.6053 -0.1872  1.4720
 5132TIP3   OH237030   1.369   1.636   8.367 -0.2022 -0.4433  0.3710
 5132TIP3    H137031   1.464   1.633   8.360 -0.2296 -1.3952  0.3598
 5132TIP3    H237032   1.346   1.725   8.339  0.8011  0.3721  1.9476
 5133TIP3   OH237033   4.102   2.313   8.578  0.1491  0.1791  0.3089
 5133TIP3    H137034   4.072   2.225   8.603 -0.5242 -0.1069 -1.3169
 5133TIP3    H237035   4.062   2.371   8.643 -0.9130 -0.5695  0.3669
 5134TIP3   OH237036   3.193   1.346   0.286  0.2283 -0.8372  0.7353
 5134TIP3    H137037   3.282   1.336   0.319 -0.0634  0.5316  2.0542
 5134TIP3    H237038   3.157   1.418   0.337 -0.6722  0.6410 -1.8553
 5135TIP3   OH237039   3.804   0.807   8.788 -0.2335  0.3236 -0.7102
 5135TIP3    H137040   3.771   0.764   8.708 -0.1613 -0.9133 -0.0938
 5135TIP3    H237041   3.739   0.876   8.806 -2.4139 -1.8224  0.2835
 5136TIP3   OH237042   1.502   2.010   6.450  0.3111 -0.0849 -0.1164
 5136TIP3    H137043   1.446   1.937   6.478 -0.2482  0.4613  0.2153
 5136TIP3    H237044   1.590   1.972   6.445  0.4024 -0.2759  2.1402
 5137TIP3   OH237045   6.146   3.194   0.589  0.4131 -0.4846 -0.5188
 5137TIP3    H137046   6.233   3.186   0.629  0.8065  1.7416 -0.8279
 5137TIP3    H237047   6.086   3.176   0.661  1.1375  1.0637  0.5333
 5138TIP3   OH237048   2.352   5.480   6.954  0.0977  0.0255  0.8004
 5138TIP3    H137049   2.368   5.568   6.920 -0.8933 -0.4063 -0.9246
 5138TIP3    H237050   2.267   5.487   6.998  0.7705  0.2785  2.0996
 5139TIP3   OH237051   5.283   5.822   7.477 -0.0947 -0.0721 -0.3737
 5139TIP3    H137052   5.269   5.747   7.535 -1.5825 -1.2159 -2.1182
 5139TIP3    H237053   5.351   5.793   7.416  2.2728  1.5143  1.3008
 5140TIP3   OH237054   6.347   3.203   2.333 -0.5562 -0.2794  0.6529
 5140TIP3    H137055   6.369   3.245   2.416 -0.8298  0.6838  0.2509
 5140TIP3    H237056   6.291   3.129   2.358  0.4135 -0.7696  1.4118
 5141TIP3   OH237057   2.207   4.403   1.698  0.1412  0.2430 -0.4213
 5141TIP3    H137058   2.261   4.327   1.719  1.6941  1.1960 -0.7669
 5141TIP3    H237059   2.137   4.402   1.764 -1.7394 -3.1338 -2.1937
 5142TIP3   OH237060   2.231   2.572   7.977  0.0626  0.1456 -0.4691
 5142TIP3    H137061   2.176   2.570   8.055  0.3804 -0.1959 -0.2513
 5142TIP3    H237062   2.302   2.510   7.996  0.9345  1.1196 -0.4375
 5143TIP3   OH237063   2.038   1.099   1.038  0.1031  0.2692 -0.1339
 5143TIP3    H137064   2.033   1.072   0.946  0.8540 -1.4608  0.3160
 5143TIP3    H237065   2.098   1.174   1.038  1.3675 -0.7226 -0.8488
 5144TIP3   OH237066   4.733   4.973   1.098  0.7387  0.5653 -0.2833
 5144TIP3    H137067   4.822   5.002   1.113  0.4267  0.6914  1.4861
 5144TIP3    H237068   4.721   4.979   1.003  2.3264  1.3264 -0.4532
 5145TIP3   OH237069   1.710   4.211   8.168 -0.0245  0.1203 -0.2552
 5145TIP3    H137070   1.734   4.270   8.097 -0.6685 -0.0658 -0.6357
 5145TIP3    H237071   1.650   4.148   8.127  0.1432 -0.4007  0.2939
 5146TIP3   OH237072   0.972   2.965   0.003  0.2248 -0.9108  0.6979
 5146TIP3    H137073   1.003   3.028  -0.062 -0.1500 -1.8609 -0.4458
 5146TIP3    H237074   0.923   3.018   0.065 -1.6316 -0.2489 -1.2016
 5147TIP3   OH237075   6.337   3.365   2.565  0.1886 -0.0046  0.0722
 5147TIP3    H137076   6.334   3.446   2.615  0.7849  1.4750 -2.1472
 5147TIP3    H237077   6.284   3.303   2.616 -1.8507  2.2900  0.9261
 5148TIP3   OH237078   5.250   3.062   2.798  0.1197  0.0827  0.2698
 5148TIP3    H137079   5.224   2.993   2.737 -1.2519  1.0911 -0.3358
 5148TIP3    H237080   5.242   3.143   2.748 -0.9030  0.9255  1.7201
 5149TIP3   OH237081   0.579   1.179   1.683  0.4845 -0.6649  0.1942
 5149TIP3    H137082   0.638   1.254   1.676 -1.1655  1.0160  2.6737
 5149TIP3    H237083   0.578   1.157   1.776 -1.7085 -1.5098  0.0390
 5150TIP3   OH237084   2.960   6.798   8.735 -0.3938 -0.0695  0.1819
 5150TIP3    H137085   3.019   6.745   8.789  0.6218  0.9879  0.1631
 5150TIP3    H237086   3.019   6.849   8.679 -1.3958 -0.3214 -1.1407
 5151TIP3   OH237087   4.807   5.304   7.737 -0.4773 -0.6499 -0.0727
 5151TIP3    H137088   4.719   5.314   7.699 -1.8270 -1.9412  2.4847
 5151TIP3    H237089   4.802   5.349   7.821  2.1439  1.3787 -0.9081
 5152TIP3   OH237090   2.770   5.567   8.085  0.6379 -0.3804 -0.2693
 5152TIP3    H137091   2.713   5.522   8.147  0.9675 -0.6306 -0.1415
 5152TIP3    H237092   2.721   5.644   8.057 -0.3496 -1.3114 -1.2110
 5153TIP3   OH237093   6.211   2.892   1.383 -0.3623  0.7804  0.2291
 5153TIP3    H137094   6.176   2.809   1.351  2.3704 -0.0826 -0.8617
 5153TIP3    H237095   6.228   2.877   1.476  0.4655 -0.0702 -0.0372
 5154TIP3   OH237096   6.697   2.419   1.301 -0.3024  0.3074  0.1552
 5154TIP3    H137097   6.763   2.476   1.263  0.7495  0.1379  1.6276
 5154TIP3    H237098   6.740   2.333   1.305 -0.9372 -0.0067  0.2751
 5155TIP3   OH237099   4.076   5.559   0.512 -0.3434  0.0841 -0.5723
 5155TIP3    H137100   4.036   5.509   0.441  0.5579  0.8693 -1.6730
 5155TIP3    H237101   4.164   5.523   0.521 -0.6733 -0.4869  0.6601
 5156TIP3   OH237102   6.368   2.538   1.689  0.3220  0.1472  0.4056
 5156TIP3    H137103   6.319   2.588   1.755  1.4154  0.7350  0.8019
 5156TIP3    H237104   6.332   2.450   1.694 -0.3212  0.4363  1.0708
 5157TIP3   OH237105   4.293   2.605   1.178 -0.2284  0.0395 -0.3669
 5157TIP3    H137106   4.211   2.635   1.139  0.8021  1.8678 -1.2365
 5157TIP3    H237107   4.300   2.656   1.259  0.7539  1.0272 -1.0489
 5158TIP3   OH237108   0.732   2.678   1.269 -0.0633  0.0476  0.6448
 5158TIP3    H137109   0.641   2.679   1.298 -0.4405 -0.6011 -0.4574
 5158TIP3    H237110   0.750   2.768   1.243 -0.5256  0.0863  0.4550
 5159TIP3   OH237111   4.514   1.562   7.428 -0.0667 -0.2253 -0.4745
 5159TIP3    H137112   4.602   1.524   7.438 -0.2691 -0.9922 -1.3835
 5159TIP3    H237113   4.455   1.489   7.445 -0.4521 -0.9883 -4.2026
 5160TIP3   OH237114   1.538   5.592   1.252  0.4181 -0.2717 -0.0004
 5160TIP3    H137115   1.485   5.567   1.176 -1.7415  0.0233  1.2977
 5160TIP3    H237116   1.575   5.509   1.283 -0.3327 -0.7175 -0.2461
 5161TIP3   OH237117   5.991   5.714   6.317 -0.3793 -0.4502 -0.2755
 5161TIP3    H137118   6.035   5.781   6.369  0.3000 -0.9661 -0.1772
 5161TIP3    H237119   5.912   5.757   6.284 -0.4905  0.0828  0.6455
 5162TIP3   OH237120   5.292   0.712   6.594  0.2082  0.6724 -0.4892
 5162TIP3    H137121   5.198   0.706   6.612  0.4147  0.6128  0.7040
 5162TIP3    H237122   5.308   0.806   6.582  0.1312  0.7934  0.2538
 5163TIP3   OH237123   3.278   4.082   7.569 -0.5217  0.4132 -0.0119
 5163TIP3    H137124   3.199   4.122   7.604  0.2652 -0.0153  2.4287
 5163TIP3    H237125   3.268   4.089   7.474 -1.7256  3.7443  0.2238
 5164TIP3   OH237126   0.470   6.542   1.604  0.2927 -0.1696  0.1141
 5164TIP3    H137127   0.561   6.516   1.589  0.7703  0.5893  1.5613
 5164TIP3    H237128   0.470   6.583   1.690 -1.5665 -0.8150  0.4771
 5165TIP3   OH237129   3.477   5.103   7.552 -0.1105 -0.2366  0.2320
 5165TIP3    H137130   3.521   5.176   7.596  0.7504  0.7588 -2.1297
 5165TIP3    H237131   3.524   5.025   7.582  1.5051  0.5542 -0.1244
 5166TIP3   OH237132   3.405   5.956   8.568 -0.1020 -0.2845  0.1938
 5166TIP3    H137133   3.356   6.018   8.622  0.1055  0.1063 -0.0621
 5166TIP3    H237134   3.450   6.011   8.503  0.8874 -0.6128  0.5837
 5167TIP3   OH237135   4.425   2.392   7.064 -0.0574 -0.1574  0.3421
 5167TIP3    H137136   4.389   2.378   6.976  0.4218  0.3623  0.0518
 5167TIP3    H237137   4.484   2.467   7.053 -0.7813  0.5721  1.3295
 5168TIP3   OH237138   0.698   2.690   1.926  0.3185 -0.4608 -0.2759
 5168TIP3    H137139   0.627   2.706   1.988 -1.2428 -2.6388 -1.3548
 5168TIP3    H237140   0.752   2.623   1.968  0.2925 -0.6428 -0.5350
 5169TIP3   OH237141   5.755   0.725   6.580  0.4868 -0.3429 -0.2928
 5169TIP3    H137142   5.828   0.684   6.627  1.5228  0.7600 -0.8894
 5169TIP3    H237143   5.677   0.698   6.629  1.3019 -1.3685  0.4912
 5170TIP3   OH237144   5.495   2.271   0.059 -0.3359 -0.3322 -0.0158
 5170TIP3    H137145   5.506   2.366   0.059 -0.8001 -0.2608  1.0184
 5170TIP3    H237146   5.444   2.253   0.139  0.2903 -1.5037  0.1394
 5171TIP3   OH237147   0.077   2.177   7.712 -0.1283 -0.1190  0.4287
 5171TIP3    H137148   0.025   2.179   7.792 -1.2884  0.8147 -0.3093
 5171TIP3    H237149   0.012   2.168   7.641  0.4996  2.5771 -0.6248
 5172TIP3   OH237150   5.531   4.809   1.536 -0.1647 -0.4414 -0.9459
 5172TIP3    H137151   5.572   4.746   1.596 -0.5448 -1.9924 -2.2550
 5172TIP3    H237152   5.605   4.855   1.496  0.1120  0.1234  0.1540
 5173TIP3   OH237153   3.154   5.507   7.500  0.0023 -0.4237 -0.3335
 5173TIP3    H137154   3.230   5.454   7.523 -0.3617 -0.1922  1.6245
 5173TIP3    H237155   3.080   5.460   7.539 -0.5583  0.5103 -0.2428
 5174TIP3   OH237156   2.392   6.266   8.444 -0.2048  0.0976 -0.2791
 5174TIP3    H137157   2.404   6.355   8.478  0.1764  0.1966 -0.6613
 5174TIP3    H237158   2.451   6.261   8.370  0.5544 -0.8248  0.3657
 5175TIP3   OH237159   6.739   6.539   1.615 -0.3368  0.1380 -0.1403
 5175TIP3    H137160   6.782   6.509   1.534  0.2167 -0.9894  0.5361
 5175TIP3    H237161   6.679   6.468   1.637 -0.8337  0.6559  0.1961
 5176TIP3   OH237162   4.806   1.248   0.152 -0.2332 -0.1776  0.1655
 5176TIP3    H137163   4.887   1.206   0.182  1.2638 -0.0964 -3.3315
 5176TIP3    H237164   4.831   1.338   0.133 -0.5492 -0.6127 -2.7422
 5177TIP3   OH237165   5.747   6.079   7.652  0.2955  0.1290 -0.6879
 5177TIP3    H137166   5.683   6.107   7.718  0.4560  0.5932 -0.7288
 5177TIP3    H237167   5.695   6.060   7.574  0.1525 -0.0047 -0.5611
 5178TIP3   OH237168   4.020   5.913   0.977  0.0454 -0.2090  0.1452
 5178TIP3    H137169   4.005   5.908   1.072 -1.9536 -0.3432 -0.1465
 5178TIP3    H237170   4.063   5.998   0.964  1.8387 -0.8671  1.3044
 5179TIP3   OH237171   1.046   5.137   6.987 -0.1739  0.6543  0.3742
 5179TIP3    H137172   1.034   5.080   6.911 -1.4803 -0.7735  1.6097
 5179TIP3    H237173   1.139   5.128   7.009  0.2358  1.1341 -1.0670
 5180TIP3   OH237174   0.065   2.459   7.376 -0.3065 -0.5224 -0.0930
 5180TIP3    H137175   0.009   2.507   7.316  0.2872  0.6091  0.2399
 5180TIP3    H237176   0.153   2.493   7.361 -0.1341 -0.2316  1.3648
 5181TIP3   OH237177   6.018   0.668   8.402  0.0474 -0.3286  0.8063
 5181TIP3    H137178   5.995   0.735   8.467 -0.2130  0.5555 -0.1706
 5181TIP3    H237179   6.113   0.679   8.390 -0.0923  0.2871  0.2066
 5182TIP3   OH237180   6.145   5.406   7.144 -0.2950 -0.2145  0.2659
 5182TIP3    H137181   6.168   5.350   7.070  2.8618  0.8603  0.2947
 5182TIP3    H237182   6.173   5.356   7.221  0.8978  0.6152  0.3934
 5183TIP3   OH237183   6.659   0.078   1.899 -0.2557  0.1574  0.6399
 5183TIP3    H137184   6.624   0.151   1.847 -0.0216 -1.0461 -1.3343
 5183TIP3    H237185   6.722   0.035   1.840  2.2687  0.4027  2.9557
 5184TIP3   OH237186   1.584   3.422   7.755 -0.1144 -0.2148 -0.3833
 5184TIP3    H137187   1.672   3.459   7.756 -0.7488  1.4007  0.0037
 5184TIP3    H237188   1.590   3.345   7.699  1.6262 -0.3877  0.0016
 5185TIP3   OH237189   2.908   4.772   8.142 -0.1105  0.3343 -0.0455
 5185TIP3    H137190   2.930   4.796   8.232  0.7279  1.9339 -0.6314
 5185TIP3    H237191   2.872   4.684   8.148  0.9029  0.0110  1.7244
 5186TIP3   OH237192   5.021   0.996   0.526 -0.2698  0.1188  0.4026
 5186TIP3    H137193   5.093   0.955   0.574  0.3835  1.4396  0.5934
 5186TIP3    H237194   5.043   0.983   0.434 -0.8731 -1.2920  0.4278
 5187TIP3   OH237195   4.632   5.911   0.064 -0.1353 -0.0577 -0.2782
 5187TIP3    H137196   4.718   5.869   0.056  0.2696  0.0601  2.4770
 5187TIP3    H237197   4.601   5.920  -0.027  2.8719  0.1660 -1.4093
 5188TIP3   OH237198   1.084   0.948   0.184  0.1036 -0.6655 -0.3656
 5188TIP3    H137199   1.142   0.988   0.119 -0.8415  0.7310 -0.3863
 5188TIP3    H237200   1.002   0.934   0.138 -1.0702  1.6799  0.7990
 5189TIP3   OH237201   3.476   6.288   7.841 -0.2158 -0.4511  0.2592
 5189TIP3    H137202   3.414   6.218   7.861  0.4929 -1.3431 -0.5587
 5189TIP3    H237203   3.436   6.336   7.769 -1.4897  1.0737  1.8982
 5190TIP3   OH237204   1.500   6.591   0.649 -0.2746 -0.0522  0.8237
 5190TIP3    H137205   1.595   6.584   0.639 -0.3154 -0.6377  0.8237
 5190TIP3    H237206   1.486   6.680   0.683  0.1698  0.5501 -0.4699
 5191TIP3   OH237207   2.083   3.579   1.732  0.4159 -0.2332 -0.5735
 5191TIP3    H137208   2.078   3.666   1.693 -0.7714 -0.0262 -0.0017
 5191TIP3    H237209   2.091   3.595   1.826 -0.8895 -0.7281 -0.3615
 5192TIP3   OH237210   2.044   0.035   7.496  0.1883 -0.9878  0.4705
 5192TIP3    H137211   2.051   0.112   7.439 -0.4738 -0.7944  0.6444
 5192TIP3    H237212   2.046  -0.040   7.435 -3.4727 -0.7390 -0.1867
 5193TIP3   OH237213   5.607   4.390   1.672  0.3233  0.2191  0.3434
 5193TIP3    H137214   5.625   4.329   1.744 -0.4118 -2.1425 -1.3454
 5193TIP3    H237215   5.542   4.451   1.709 -0.0397 -0.9196  1.6919
 5194TIP3   OH237216   2.307   2.442   8.451 -0.3400 -0.4481  0.7081
 5194TIP3    H137217   2.320   2.359   8.405  1.5346  0.3595 -0.3093
 5194TIP3    H237218   2.381   2.496   8.424 -0.9428  1.1906  2.2015
 5195TIP3   OH237219   3.936   0.441   1.590 -0.1602 -0.0937  0.1084
 5195TIP3    H137220   3.964   0.406   1.674  2.3963 -0.4419 -0.8021
 5195TIP3    H237221   3.994   0.515   1.574 -1.2217  0.5551 -0.9523
 5196TIP3   OH237222   4.817   6.738   7.373  0.0029 -0.5518  0.2521
 5196TIP3    H137223   4.730   6.706   7.349  0.5230 -1.7661 -0.1097
 5196TIP3    H237224   4.804   6.785   7.455 -0.8335 -1.6719  0.7956
 5197TIP3   OH237225   6.447   0.728   1.015  0.0659 -0.1735 -0.1726
 5197TIP3    H137226   6.497   0.797   1.058 -0.0551 -0.0457 -0.2337
 5197TIP3    H237227   6.506   0.694   0.947 -1.0442  2.2643 -2.5490
 5198TIP3   OH237228   5.288   4.673   0.738  0.7218  0.7571 -0.6180
 5198TIP3    H137229   5.240   4.638   0.663  1.3125 -0.7724 -0.3287
 5198TIP3    H237230   5.220   4.703   0.799  0.0071 -2.0455  0.1151
 5199TIP3   OH237231   5.185   1.584   8.175 -0.0971  0.4352  0.3329
 5199TIP3    H137232   5.093   1.593   8.197 -0.1432 -0.2727  0.4517
 5199TIP3    H237233   5.188   1.509   8.115  0.5339 -0.2691  1.2257
 5200TIP3   OH237234   2.114   1.447   1.696  0.9280 -0.2973  0.3301
 5200TIP3    H137235   2.046   1.500   1.655  0.9682 -0.8088 -0.4315
 5200TIP3    H237236   2.070   1.399   1.765  0.5250 -0.5654 -0.1063
 5201TIP3   OH237237   3.113   3.992   7.337 -0.2718 -0.3672 -0.2899
 5201TIP3    H137238   3.099   3.919   7.397 -1.0835  0.3600  0.4356
 5201TIP3    H237239   3.086   3.958   7.252 -1.6394 -0.6181  0.2158
 5202TIP3   OH237240   5.747   1.774   8.453 -0.1244  0.0825 -0.4395
 5202TIP3    H137241   5.696   1.739   8.526  0.0328  1.1033  0.1709
 5202TIP3    H237242   5.816   1.826   8.493  0.6494 -0.2422 -1.2942
 5203TIP3   OH237243   2.847   6.383   0.952 -0.2139  0.3853  0.3292
 5203TIP3    H137244   2.911   6.430   1.006  1.1103  0.2965 -1.0517
 5203TIP3    H237245   2.831   6.443   0.879 -0.3358 -0.3288 -0.2375
 5204TIP3   OH237246   2.248   0.906   2.232 -0.2930  0.0920 -0.1222
 5204TIP3    H137247   2.183   0.859   2.284 -0.2399 -1.2757 -1.2334
 5204TIP3    H237248   2.333   0.880   2.269 -0.3098  0.7110  0.3741
 5205TIP3   OH237249   6.256   2.693   1.918  0.2510  0.3018 -0.0791
 5205TIP3    H137250   6.250   2.636   1.995 -2.3450 -1.3823 -1.3736
 5205TIP3    H237251   6.215   2.775   1.945 -2.7802 -1.0410 -0.1452
 5206TIP3   OH237252   2.973   6.222   1.798  0.3013  0.2342  0.2031
 5206TIP3    H137253   2.936   6.275   1.869 -2.7765 -1.2552 -0.1442
 5206TIP3    H237254   2.974   6.280   1.722 -0.1532  0.6791  0.5329
 5207TIP3   OH237255   2.932   3.647   0.198  0.2159 -0.6726  0.3265
 5207TIP3    H137256   3.020   3.661   0.161 -0.1628  2.1452  0.3256
 5207TIP3    H237257   2.946   3.652   0.293 -0.0317  0.7866  0.3115
 5208TIP3   OH237258   1.434   2.043   6.757  0.1044 -0.9068 -0.1711
 5208TIP3    H137259   1.526   2.034   6.733 -0.0396  0.7134 -1.5286
 5208TIP3    H237260   1.436   2.050   6.853  1.5519  0.3953 -0.2468
 5209TIP3   OH237261   5.687   3.030   7.060 -0.1260 -0.3017 -0.1286
 5209TIP3    H137262   5.662   2.941   7.087 -2.2456 -0.0239 -0.9437
 5209TIP3    H237263   5.690   3.025   6.964 -0.7447  0.5860 -0.2064
 5210TIP3   OH237264   4.784   1.391   8.507 -0.0106 -0.3818  0.4893
 5210TIP3    H137265   4.715   1.434   8.558 -0.4969  1.4697 -1.5179
 5210TIP3    H237266   4.862   1.444   8.522  0.0319 -0.2802 -0.0389
 5211TIP3   OH237267   5.004   4.224   1.368  0.0217  0.4735  0.1005
 5211TIP3    H137268   5.064   4.257   1.435 -0.9004  0.3592  1.0036
 5211TIP3    H237269   4.967   4.303   1.328  0.8200  0.5473 -0.5348
 5212TIP3   OH237270   4.118   5.055   7.080  0.5831 -0.5768  0.4220
 5212TIP3    H137271   4.032   5.061   7.121  0.0181  1.9091 -0.8945
 5212TIP3    H237272   4.105   4.994   7.007 -0.2112  0.0534  0.0135
 5213TIP3   OH237273   5.140   3.724   1.902  0.0161  0.2625 -0.7420
 5213TIP3    H137274   5.202   3.764   1.963 -0.4318  0.4836 -0.4311
 5213TIP3    H237275   5.082   3.795   1.876 -1.7797 -0.4482  1.0166
 5214TIP3   OH237276   1.699   1.900   1.981 -0.2031 -0.1963 -0.1317
 5214TIP3    H137277   1.774   1.865   2.029 -0.3828  1.2416  1.2698
 5214TIP3    H237278   1.628   1.902   2.045 -1.3082 -0.9999 -1.2891
 5215TIP3   OH237279   3.207   0.182   0.886  0.4854  0.1299  0.0043
 5215TIP3    H137280   3.253   0.203   0.805  0.3694  0.3317 -0.0094
 5215TIP3    H237281   3.271   0.196   0.955  1.0151 -1.3500 -0.1435
 5216TIP3   OH237282   1.316   1.506   1.590  0.3634 -0.1307 -0.4954
 5216TIP3    H137283   1.313   1.498   1.685  0.6321 -0.9400 -0.5475
 5216TIP3    H237284   1.365   1.587   1.574 -0.4436  0.4736  0.0551
 5217TIP3   OH237285   6.718   1.162   1.055 -0.4340  0.0684 -0.3480
 5217TIP3    H137286   6.732   1.237   1.112 -0.9378  1.4510 -1.9372
 5217TIP3    H237287   6.804   1.147   1.015 -0.3703 -0.0950 -0.1496
 5218TIP3   OH237288   0.652   6.844   8.348 -0.5313  0.1108  0.0149
 5218TIP3    H137289   0.697   6.900   8.285  0.2538  1.0333  1.3385
 5218TIP3    H237290   0.711   6.769   8.359 -0.1363  0.4780  0.4500
 5219TIP3   OH237291   4.785   1.211   6.778 -0.2326  0.6900 -0.1378
 5219TIP3    H137292   4.748   1.274   6.716 -2.0749  0.8505  1.0474
 5219TIP3    H237293   4.814   1.138   6.724 -3.4084  0.0156 -1.1401
 5220TIP3   OH237294   3.807   4.680   0.477  0.5613 -0.5927  0.2684
 5220TIP3    H137295   3.724   4.635   0.493  0.6687 -1.2434 -0.8929
 5220TIP3    H237296   3.799   4.713   0.387  0.4773  1.7837  1.0700
 5221TIP3   OH237297   1.986   3.218   1.507 -0.5949 -0.1585 -0.3552
 5221TIP3    H137298   2.017   3.166   1.581  1.6687  0.9456 -0.4351
 5221TIP3    H237299   1.919   3.275   1.545 -1.0865 -1.1562  0.3267
 5222TIP3   OH237300   1.951   1.589   1.516  0.4940  0.4334 -0.0645
 5222TIP3    H137301   1.977   1.536   1.440 -1.5997 -0.9036  0.0720
 5222TIP3    H237302   1.859   1.611   1.499  0.3465  1.1520  1.5275
 5223TIP3   OH237303   3.641   5.804   8.639 -0.3989 -0.1941 -0.5085
 5223TIP3    H137304   3.558   5.852   8.634 -0.5349 -0.3875 -0.1800
 5223TIP3    H237305   3.674   5.803   8.549  0.2668  1.6722 -0.3446
 5224TIP3   OH237306   1.870   5.593   8.669  0.2568  0.1242  0.1429
 5224TIP3    H137307   1.805   5.542   8.717 -0.3646 -1.4667 -2.1632
 5224TIP3    H237308   1.821   5.633   8.597  1.6912 -1.0027 -1.5778
 5225TIP3   OH237309   1.362   0.637   0.988  0.4106  0.2837  0.0244
 5225TIP3    H137310   1.359   0.564   0.926  1.4868 -1.3151  1.7420
 5225TIP3    H237311   1.443   0.682   0.967 -0.2810  1.0480 -1.0757
 5226TIP3   OH237312   4.666   4.632   7.779  0.0029 -0.1650  0.6674
 5226TIP3    H137313   4.663   4.577   7.857 -0.3695  1.1280  1.6041
 5226TIP3    H237314   4.580   4.674   7.776 -0.1928 -0.6275 -0.7867
 5227TIP3   OH237315   5.775   4.369   7.959  0.1353  0.0499  0.0741
 5227TIP3    H137316   5.783   4.464   7.968 -3.1147  0.6492 -1.8411
 5227TIP3    H237317   5.740   4.340   8.044 -0.9000  0.9430 -0.0188
 5228TIP3   OH237318   3.295   5.146   1.676  0.1923  0.3447  0.0003
 5228TIP3    H137319   3.386   5.120   1.689  0.5914  0.8295 -1.6025
 5228TIP3    H237320   3.246   5.097   1.742  1.6115  0.1108  0.9133
 5229TIP3   OH237321   4.718   5.482   8.776  0.2671  0.0761 -0.0337
 5229TIP3    H137322   4.756   5.419   8.715  1.0903 -0.8505  1.3531
 5229TIP3    H237323   4.778   5.557   8.773  1.3735 -0.7178  0.9378
 5230TIP3   OH237324   4.477   0.777   1.046  1.2445 -0.0073  0.3038
 5230TIP3    H137325   4.386   0.773   1.075  1.0701  0.6796 -0.1334
 5230TIP3    H237326   4.525   0.809   1.123  1.2225 -0.9592  0.7323
 5231TIP3   OH237327   3.767   4.179   6.656 -0.5525  0.3307  0.0640
 5231TIP3    H137328   3.678   4.144   6.651 -0.7590  0.7972  0.4126
 5231TIP3    H237329   3.822   4.103   6.675 -0.4573 -0.5580 -3.1211
 5232TIP3   OH237330   6.379   5.621   8.795 -0.2627 -0.1783  0.1919
 5232TIP3    H137331   6.320   5.646   8.723 -0.0732  0.6759  0.3167
 5232TIP3    H237332   6.408   5.533   8.773 -1.7814 -0.7173  0.2571
 5233TIP3   OH237333   5.447   3.879   6.360  0.3969 -0.0497 -0.0074
 5233TIP3    H137334   5.425   3.914   6.446 -0.7592  0.3728 -0.4580
 5233TIP3    H237335   5.543   3.875   6.359  0.5395  2.2395  0.3891
 5234TIP3   OH237336   5.005   2.385   8.128  0.4972 -0.1745 -0.3135
 5234TIP3    H137337   4.920   2.342   8.135  1.3587 -1.6740  1.6474
 5234TIP3    H237338   4.984   2.478   8.125 -1.3563 -0.5336 -3.4493
 5235TIP3   OH237339   2.814   2.734   8.729 -0.4200 -0.1247  0.1815
 5235TIP3    H137340   2.739   2.674   8.731 -0.9983  0.5352 -0.7645
 5235TIP3    H237341   2.861   2.718   8.811 -0.8017 -1.5583  0.1366
 5236TIP3   OH237342   6.373   2.785   0.590 -0.3261 -0.2734  0.3811
 5236TIP3    H137343   6.307   2.855   0.590 -1.1544 -1.0364  0.2280
 5236TIP3    H237344   6.456   2.831   0.594 -0.8863  0.6900  2.0540
 5237TIP3   OH237345   4.830   5.467   6.126  0.2212 -0.3347  0.0808
 5237TIP3    H137346   4.749   5.458   6.174 -0.7825 -0.6009 -1.5762
 5237TIP3    H237347   4.869   5.548   6.158 -0.8273 -0.0722  0.7213
 5238TIP3   OH237348   6.686   1.322   1.332  0.1082  0.2705  0.3198
 5238TIP3    H137349   6.717   1.343   1.420 -0.0657 -0.3499  0.5327
 5238TIP3    H237350   6.744   1.372   1.274 -0.5509  1.6654  0.8095
 5239TIP3   OH237351   1.985   1.449   8.158  0.2960 -0.0175 -0.3186
 5239TIP3    H137352   1.894   1.448   8.129  0.3916  0.1580 -0.6326
 5239TIP3    H237353   2.028   1.381   8.106  0.8349  1.4116 -1.8547
 5240TIP3   OH237354   0.901   5.099   1.408  0.2296 -0.0654 -0.5548
 5240TIP3    H137355   0.820   5.053   1.383  0.1888  0.6862 -1.9166
 5240TIP3    H237356   0.957   5.031   1.444 -0.9281 -0.6425  0.2338
 5241TIP3   OH237357   3.029   6.442   0.275  0.4867  0.0025 -0.4799
 5241TIP3    H137358   2.968   6.373   0.299  0.7400 -0.6278 -1.5611
 5241TIP3    H237359   3.067   6.471   0.358 -0.3388 -0.4828  0.0748
 5242TIP3   OH237360   2.562   1.289   0.311 -0.3060 -0.2108  0.3225
 5242TIP3    H137361   2.628   1.355   0.332 -0.9845 -0.0259  1.9716
 5242TIP3    H237362   2.584   1.214   0.366 -1.9741  0.1944  1.6248
 5243TIP3   OH237363   0.163   5.106   7.660 -0.1116  0.2898  0.3886
 5243TIP3    H137364   0.234   5.157   7.699  0.3729 -0.5364  0.6154
 5243TIP3    H237365   0.200   5.019   7.647 -0.3950  0.4210 -1.5443
 5244TIP3   OH237366   4.767   6.359   7.256 -0.2912  0.7484 -0.3177
 5244TIP3    H137367   4.825   6.422   7.213 -0.5005  0.7865 -0.5394
 5244TIP3    H237368   4.682   6.370   7.214  0.1062 -0.9917 -1.6685
 5245TIP3   OH237369   2.205   1.449   8.776 -0.0507  0.0492 -0.6419
 5245TIP3    H137370   2.198   1.487   8.863  1.9931 -0.2174 -0.3281
 5245TIP3    H237371   2.120   1.467   8.735 -0.9079  0.4903  1.2576
 5246TIP3   OH237372   1.557   5.224   7.411 -0.4723 -0.2718  0.1756
 5246TIP3    H137373   1.473   5.191   7.378 -0.2220 -0.3195 -0.4185
 5246TIP3    H237374   1.542   5.317   7.424 -1.1215 -0.5518  1.6678
 5247TIP3   OH237375   2.664   3.236   8.183 -0.1310  0.5757  0.2302
 5247TIP3    H137376   2.727   3.252   8.253  1.8762 -2.3663 -0.6992
 5247TIP3    H237377   2.657   3.319   8.137  0.0359  2.0217  2.6337
 5248TIP3   OH237378   2.808   4.496   7.738  0.3881 -0.3965 -0.5445
 5248TIP3    H137379   2.724   4.481   7.695  0.1750 -0.2267 -0.1903
 5248TIP3    H237380   2.797   4.580   7.783  0.5224 -0.6972  0.0455
 5249TIP3   OH237381   6.007   6.704   7.278  0.0430  0.6531 -0.0379
 5249TIP3    H137382   5.986   6.794   7.253  0.5792  1.3831  1.9335
 5249TIP3    H237383   5.934   6.677   7.333  0.2472  0.1624 -0.0067
 5250TIP3   OH237384   4.390   0.779   7.159 -0.7919  0.2907  0.7596
 5250TIP3    H137385   4.330   0.713   7.195 -0.8982  1.3256  2.6248
 5250TIP3    H237386   4.462   0.729   7.123 -2.0662 -0.9285 -0.1931
 5251TIP3   OH237387   1.343   4.235   0.685  0.9406  0.1317  0.1420
 5251TIP3    H137388   1.395   4.208   0.760 -0.2028  0.7108  1.1698
 5251TIP3    H237389   1.266   4.277   0.723 -0.3483 -0.8120 -1.3336
 5252TIP3   OH237390   4.288   6.550   1.455 -0.2993 -0.3195  0.2132
 5252TIP3    H137391   4.196   6.544   1.478 -0.2794  0.5562  0.5637
 5252TIP3    H237392   4.294   6.514   1.366 -1.0689  0.1890 -0.0444
 5253TIP3   OH237393   0.277   0.736   1.225 -0.1361  0.6015  0.1095
 5253TIP3    H137394   0.303   0.654   1.184 -1.3001 -0.0222  0.5622
 5253TIP3    H237395   0.237   0.710   1.308  1.8212  1.8144  1.5240
 5254TIP3   OH237396   2.577   6.363   7.374  0.6431  0.5559  0.2740
 5254TIP3    H137397   2.516   6.309   7.425  0.0735  1.6753  0.8027
 5254TIP3    H237398   2.546   6.452   7.387  1.7711  1.0443 -0.3276
 5255TIP3   OH237399   1.212   6.143   1.101  0.3990 -0.0077 -0.2725
 5255TIP3    H137400   1.150   6.213   1.118 -0.1508 -1.0823  3.0252
 5255TIP3    H237401   1.162   6.077   1.054 -0.6529 -0.3254  1.2296
 5256TIP3   OH237402   1.030   5.989   8.120 -0.2790 -0.1888  0.2148
 5256TIP3    H137403   1.043   5.954   8.032 -0.6241 -0.1105  0.1336
 5256TIP3    H237404   1.106   6.046   8.134  0.6403 -1.4592  0.6048
 5257TIP3   OH237405   3.112   3.432   1.205  0.0256  0.6907 -0.0622
 5257TIP3    H137406   3.154   3.347   1.211 -2.3498 -0.5088  0.8691
 5257TIP3    H237407   3.092   3.443   1.112  0.6389  0.4153 -0.2300
 5258TIP3   OH237408   4.111   5.723   1.450 -0.1971 -0.5536  0.4313
 5258TIP3    H137409   4.075   5.679   1.373  1.3167 -1.3394  0.1441
 5258TIP3    H237410   4.152   5.653   1.501 -1.0884 -0.0340  1.9405
 5259TIP3   OH237411   3.474   5.116   1.257  0.6571  0.0081  0.9223
 5259TIP3    H137412   3.385   5.117   1.294 -0.1888  2.5635 -0.8591
 5259TIP3    H237413   3.471   5.051   1.187  0.4662 -0.5500  1.4465
 5260TIP3   OH237414   2.423   5.844   8.386  1.1243 -0.9309  0.5165
 5260TIP3    H137415   2.406   5.915   8.448 -1.1063 -0.2290 -0.7768
 5260TIP3    H237416   2.346   5.843   8.329  2.3355 -2.6192 -1.2216
 5261TIP3   OH237417   0.886   2.457   1.213 -0.3569  0.0414 -0.0121
 5261TIP3    H137418   0.859   2.543   1.245 -1.1007  0.2751 -1.1867
 5261TIP3    H237419   0.804   2.412   1.192 -0.0432 -1.4018  1.6250
 5262TIP3   OH237420   6.057   2.693   1.107 -0.2557 -0.4693  0.0539
 5262TIP3    H137421   6.045   2.640   1.185 -0.9410  1.4788  1.3539
 5262TIP3    H237422   6.149   2.681   1.083 -0.0014 -0.9726  1.2505
 5263TIP3   OH237423   5.691   5.553   6.446  0.4976 -0.3832  1.1322
 5263TIP3    H137424   5.735   5.566   6.362  0.8379  0.7600  1.4630
 5263TIP3    H237425   5.709   5.462   6.469 -2.0103 -1.6609 -1.3656
 5264TIP3   OH237426   3.560   6.465   1.746  0.1941 -0.1866 -0.5556
 5264TIP3    H137427   3.612   6.401   1.794  0.0697  0.4544  0.4649
 5264TIP3    H237428   3.493   6.492   1.808  0.2740  0.9663 -0.9575
 5265TIP3   OH237429   3.482   4.874   1.811 -0.4189  0.2413 -0.3733
 5265TIP3    H137430   3.495   4.800   1.751  2.2538 -0.5207  0.9584
 5265TIP3    H237431   3.392   4.865   1.840 -0.7487 -1.3614 -1.7005
 5266TIP3   OH237432   5.665   3.564   0.555 -0.3816  0.0818  0.0556
 5266TIP3    H137433   5.756   3.539   0.542 -0.2965  0.5117 -0.1985
 5266TIP3    H237434   5.634   3.508   0.626 -0.8020 -2.2444 -1.8132
 5267TIP3   OH237435   5.698   1.167   0.259 -0.2662 -0.6947  0.2457
 5267TIP3    H137436   5.775   1.196   0.212 -0.4512  0.0408  0.3780
 5267TIP3    H237437   5.657   1.103   0.202  0.6020 -1.3182  0.3106
 5268TIP3   OH237438   2.157   0.473   0.669  0.1285  0.0383 -0.3342
 5268TIP3    H137439   2.179   0.395   0.618  0.0168 -0.1470 -0.1011
 5268TIP3    H237440   2.233   0.488   0.725  0.0300 -0.0704 -0.1733
 5269TIP3   OH237441   2.083   3.514   2.283 -0.5258 -0.3108  0.3983
 5269TIP3    H137442   2.169   3.473   2.278 -0.1010  0.4559  1.1035
 5269TIP3    H237443   2.057   3.503   2.374 -1.3952 -0.9424  0.0844
 5270TIP3   OH237444   4.215   1.984   1.313  0.3342 -0.6391 -0.3476
 5270TIP3    H137445   4.153   2.005   1.243 -0.7397 -1.2175  0.3967
 5270TIP3    H237446   4.275   1.921   1.273  0.4632 -0.0733 -1.0827
 5271TIP3   OH237447   6.759   6.171   0.648  0.4573 -0.3741 -0.9778
 5271TIP3    H137448   6.709   6.146   0.571 -2.2722 -0.0205  0.5508
 5271TIP3    H237449   6.767   6.090   0.698  0.6712 -0.2449 -0.8000
 5272TIP3   OH237450   3.767   0.042   0.583  0.3393  0.0951 -0.1059
 5272TIP3    H137451   3.779  -0.044   0.622 -1.4983  0.2336  0.8275
 5272TIP3    H237452   3.854   0.064   0.549  0.2356 -3.4789 -3.3457
 5273TIP3   OH237453   3.695   1.067   8.025 -0.2068  0.5605  0.0934
 5273TIP3    H137454   3.769   1.011   8.047 -0.8406  0.0136  0.9086
 5273TIP3    H237455   3.662   1.031   7.942 -0.1943  0.1405  0.2640
 5274TIP3   OH237456   6.002   6.809   0.171 -0.3277  0.1265 -0.3853
 5274TIP3    H137457   6.062   6.765   0.231  0.1041 -0.7513 -1.4201
 5274TIP3    H237458   6.030   6.901   0.172  1.1539 -0.2926 -0.9562
 5275TIP3   OH237459   5.903   0.115   8.749 -0.3679  0.1274  0.1977
 5275TIP3    H137460   5.996   0.133   8.734 -0.6238 -0.4574 -2.5912
 5275TIP3    H237461   5.861   0.201   8.746 -0.1058  0.2429 -0.1890
 5276TIP3   OH237462   2.260   2.595   7.051  0.0148  0.6945  0.0433
 5276TIP3    H137463   2.325   2.526   7.062  1.0200  1.6978  0.6688
 5276TIP3    H237464   2.208   2.593   7.132  1.5361  2.1250  1.1317
 5277TIP3   OH237465   5.905   4.787   1.082  0.1361  0.2035  0.0951
 5277TIP3    H137466   5.814   4.812   1.071  0.0823  0.3043  0.7566
 5277TIP3    H237467   5.945   4.860   1.130  0.5641  0.1598 -0.1832
 5278TIP3   OH237468   5.188   3.611   8.692 -0.5586  0.1690  0.0091
 5278TIP3    H137469   5.122   3.679   8.678 -0.2298  0.7598  1.1776
 5278TIP3    H237470   5.138   3.534   8.718 -0.8221  0.5230  0.5718
 5279TIP3   OH237471   4.680   4.871   8.310  0.0131 -0.2222  0.4617
 5279TIP3    H137472   4.726   4.824   8.241 -0.9297  1.8863 -1.7569
 5279TIP3    H237473   4.611   4.812   8.339  0.1267 -0.9734 -0.7469
 5280TIP3   OH237474   3.500   1.208   8.120 -0.1302 -0.2765  0.3059
 5280TIP3    H137475   3.560   1.137   8.097 -0.4546 -0.9124  1.3558
 5280TIP3    H237476   3.557   1.280   8.146  0.1958 -0.2188 -0.5310
 5281TIP3   OH237477   3.403   5.464   8.152  0.7025 -0.0595 -0.5256
 5281TIP3    H137478   3.411   5.513   8.234  0.6066 -0.4827 -0.2549
 5281TIP3    H237479   3.405   5.372   8.180 -0.5242 -0.2056 -0.8698
 5282TIP3   OH237480   0.987   3.673   0.930 -0.6518 -0.6723  0.3357
 5282TIP3    H137481   0.999   3.705   1.020  0.5218 -0.8501  0.2521
 5282TIP3    H237482   1.058   3.714   0.881 -1.3745 -0.4583 -0.5562
 5283TIP3   OH237483   6.600   2.307   2.335 -0.2332 -0.0863 -0.6728
 5283TIP3    H137484   6.649   2.384   2.361 -0.0759 -0.6776  0.8962
 5283TIP3    H237485   6.512   2.339   2.318 -0.1074  0.4837 -0.2719
 5284TIP3   OH237486   1.863   2.687   2.222  0.4228  0.1673 -0.1998
 5284TIP3    H137487   1.831   2.745   2.153  2.7043  0.6066 -0.9644
 5284TIP3    H237488   1.866   2.601   2.181  0.6727  0.2163 -0.2858
 5285TIP3   OH237489   4.958   4.390   1.705 -0.3787 -0.1982  0.1285
 5285TIP3    H137490   4.920   4.424   1.786  0.7186 -0.4685  0.7801
 5285TIP3    H237491   4.992   4.304   1.730 -1.1193 -0.8270 -0.9366
 5286TIP3   OH237492   2.652   5.069   1.459  0.2261 -0.1211  0.1014
 5286TIP3    H137493   2.559   5.075   1.480  0.3409 -1.0384  0.9809
 5286TIP3    H237494   2.685   4.999   1.516  1.0635 -1.1287 -1.5489
 5287TIP3   OH237495   0.500   5.797   8.435  0.6528 -0.5820 -0.7620
 5287TIP3    H137496   0.433   5.729   8.424  0.8355 -0.9716  0.3762
 5287TIP3    H237497   0.526   5.790   8.527  1.3420  0.4198 -0.8648
 5288TIP3   OH237498   3.681   3.620   7.851  0.0796 -0.2620 -0.3393
 5288TIP3    H137499   3.629   3.642   7.929 -0.2761  2.6854 -1.2499
 5288TIP3    H237500   3.748   3.560   7.882  0.4838  1.4624  2.4899
 5289TIP3   OH237501   1.589   4.912   2.074 -0.1306 -0.3016  0.1730
 5289TIP3    H137502   1.575   4.851   2.146 -0.9050 -1.2141 -0.7256
 5289TIP3    H237503   1.552   4.995   2.106 -2.4040 -1.2001  0.0904
 5290TIP3   OH237504   2.614   4.044   6.504  0.0142 -0.9933 -0.1642
 5290TIP3    H137505   2.548   4.028   6.437 -0.5334 -1.7734  0.5467
 5290TIP3    H237506   2.682   4.094   6.459 -1.6622  1.0539 -0.6117
 5291TIP3   OH237507   4.487   5.970   8.195 -0.0974  0.1269 -0.4536
 5291TIP3    H137508   4.456   5.993   8.283 -2.4874  0.5537 -1.3311
 5291TIP3    H237509   4.539   6.045   8.168  1.7389 -0.5310  1.0134
 5292TIP3   OH237510   6.713   3.907   8.403  0.4777 -0.4171  0.3156
 5292TIP3    H137511   6.679   3.871   8.485 -1.3602 -1.3683 -0.7852
 5292TIP3    H237512   6.761   3.835   8.363  2.7486  0.5058  1.1968
 5293TIP3   OH237513   6.185   5.392   0.176  0.6745 -0.2163 -0.2982
 5293TIP3    H137514   6.162   5.482   0.151  3.6611  0.5367 -0.7075
 5293TIP3    H237515   6.149   5.338   0.105 -2.4461  0.3833  0.6812
 5294TIP3   OH237516   0.337   1.449   0.015  0.3359 -0.1655 -0.2690
 5294TIP3    H137517   0.371   1.480  -0.070  0.6704 -0.5971 -0.2975
 5294TIP3    H237518   0.243   1.462   0.009  0.3508 -0.2506 -0.7324
 5295TIP3   OH237519   0.938   4.115   0.004 -0.0200 -0.6922  0.4428
 5295TIP3    H137520   0.858   4.105   0.056  0.5311  1.1530  1.7215
 5295TIP3    H237521   1.005   4.138   0.068  1.5401 -2.0351 -0.6333
 5296TIP3   OH237522   3.427   1.663   8.160  0.4401 -0.0257  0.4408
 5296TIP3    H137523   3.425   1.616   8.077 -0.0998  2.2038 -0.8872
 5296TIP3    H237524   3.407   1.597   8.226  0.1528 -1.7110 -1.2580
 5297TIP3   OH237525   5.976   4.174   2.390  1.7205 -0.6972 -0.3149
 5297TIP3    H137526   6.012   4.179   2.479 -1.7856 -0.0667  1.2482
 5297TIP3    H237527   5.918   4.098   2.392  0.8476 -0.1099 -1.7482
 5298TIP3   OH237528   4.445   2.503   0.546  0.4170  0.0564 -0.3501
 5298TIP3    H137529   4.443   2.587   0.499  2.4791  0.3077 -0.0948
 5298TIP3    H237530   4.538   2.489   0.565 -0.0881 -1.3587  1.2985
 5299TIP3   OH237531   6.583   3.675   8.189 -0.1082  0.1388 -0.4687
 5299TIP3    H137532   6.542   3.760   8.200 -0.5736 -0.1646  0.2015
 5299TIP3    H237533   6.677   3.691   8.202 -0.1650  0.5923 -0.6287
 5300TIP3   OH237534   5.051   6.641   7.284 -0.2455 -0.2644 -0.0953
 5300TIP3    H137535   5.029   6.560   7.239 -0.0627  0.2794 -1.2017
 5300TIP3    H237536   4.967   6.683   7.301 -0.2728  1.0384 -2.8584
 5301TIP3   OH237537   4.469   6.799   0.791 -0.0823  0.1468 -0.3191
 5301TIP3    H137538   4.465   6.705   0.775 -0.7479  0.4534 -2.1685
 5301TIP3    H237539   4.538   6.830   0.733 -1.3000  1.0708 -1.3362
 5302TIP3   OH237540   5.923   2.916   8.576  0.4414 -0.1913  0.4778
 5302TIP3    H137541   6.005   2.953   8.544 -0.4381  0.7283 -0.8245
 5302TIP3    H237542   5.892   2.979   8.641 -0.6822  1.0569 -1.1965
 5303TIP3   OH237543   0.611   5.435   1.162 -0.0781 -0.1517 -0.2394
 5303TIP3    H137544   0.560   5.481   1.228  0.5436 -0.2605  0.3330
 5303TIP3    H237545   0.701   5.440   1.194  0.1280 -0.8728 -0.6874
 5304TIP3   OH237546   5.756   6.233   8.305  0.1164  0.1114  0.2363
 5304TIP3    H137547   5.707   6.155   8.276  0.0949  0.0111  0.5422
 5304TIP3    H237548   5.844   6.200   8.324 -0.1769 -0.0533  1.4064
 5305TIP3   OH237549   1.837   5.337   7.633 -0.5592 -0.2745  0.5698
 5305TIP3    H137550   1.816   5.419   7.678  0.1433 -0.3014  0.9622
 5305TIP3    H237551   1.794   5.344   7.548 -0.7735  0.3609  0.7268
 5306TIP3   OH237552   0.184   0.384   1.762  0.2347 -0.9840 -0.0729
 5306TIP3    H137553   0.230   0.466   1.744  1.8165 -1.1680  2.5450
 5306TIP3    H237554   0.244   0.335   1.819 -1.6870 -2.9151  0.4307
 5307TIP3   OH237555   4.627   0.048   0.328  0.2986  0.3250  0.6486
 5307TIP3    H137556   4.604  -0.018   0.262  1.5810  0.4781  0.0123
 5307TIP3    H237557   4.667  -0.003   0.399  0.8435  0.3439  0.3677
 5308TIP3   OH237558   1.774   2.700   1.580 -0.6496  0.4318 -0.3617
 5308TIP3    H137559   1.759   2.629   1.642  0.3574  1.1431  0.7306
 5308TIP3    H237560   1.687   2.735   1.562 -0.8927  0.8326  1.4167
 5309TIP3   OH237561   0.798   0.308   7.975  0.3692  0.7209  0.0751
 5309TIP3    H137562   0.727   0.331   7.915  0.4202  2.2465  0.5708
 5309TIP3    H237563   0.876   0.344   7.933  0.5798  0.7350  0.4833
 5310TIP3   OH237564   5.008   3.041   8.577 -0.0236  0.5056  0.3007
 5310TIP3    H137565   4.920   3.059   8.544 -1.3991 -3.9712  0.7426
 5310TIP3    H237566   5.064   3.044   8.499 -0.8575  1.7899 -0.2802
 5311TIP3   OH237567   3.220   0.991   8.308  0.4128  0.6128  0.1870
 5311TIP3    H137568   3.294   0.978   8.367  0.8541  0.0102 -0.4834
 5311TIP3    H237569   3.143   0.978   8.363  0.7604  2.1675  1.1042
 5312TIP3   OH237570   4.012   5.253   7.911 -0.3815 -0.2071  0.1702
 5312TIP3    H137571   3.982   5.278   7.824  0.2207  1.3193  0.3753
 5312TIP3    H237572   3.933   5.259   7.966 -0.8816 -1.6887 -0.3352
 5313TIP3   OH237573   2.103   4.779   1.015  0.2741 -0.4937 -0.2360
 5313TIP3    H137574   2.153   4.713   1.062  0.8763 -0.1016 -0.3140
 5313TIP3    H237575   2.034   4.804   1.076  0.1237 -1.0919 -0.1565
 5314TIP3   OH237576   5.320   5.497   1.339 -0.4091  0.1703 -0.1674
 5314TIP3    H137577   5.266   5.543   1.274 -1.1822 -0.7782 -0.2246
 5314TIP3    H237578   5.408   5.530   1.324 -0.3659 -0.7442 -2.4076
 5315TIP3   OH237579   3.523   6.370   8.512  0.0240  0.2793  0.4212
 5315TIP3    H137580   3.577   6.444   8.543 -0.5804  1.0316 -0.2813
 5315TIP3    H237581   3.581   6.320   8.455  0.3347  0.3934  0.6327
 5316TIP3   OH237582   1.746   5.328   0.290 -0.0069  0.0386  0.1628
 5316TIP3    H137583   1.658   5.319   0.328  0.0978  0.5950  0.5545
 5316TIP3    H237584   1.756   5.423   0.277  0.7405  0.0283  0.6169
 5317TIP3   OH237585   0.258   2.826   7.097 -0.2656  0.1415 -0.2117
 5317TIP3    H137586   0.273   2.757   7.162  0.6863 -0.5247 -1.1133
 5317TIP3    H237587   0.318   2.806   7.026  1.2685  2.8151  0.1847
 5318TIP3   OH237588   3.893   4.544   1.190  0.3894  0.3918  0.0273
 5318TIP3    H137589   3.892   4.494   1.109 -0.3915 -0.6032  0.6409
 5318TIP3    H237590   3.946   4.492   1.250 -0.8798  0.0092  0.8445
 5319TIP3   OH237591   4.669   0.369   1.740  0.6113  0.0646  0.0667
 5319TIP3    H137592   4.603   0.436   1.755 -0.2064 -0.2703 -1.7584
 5319TIP3    H237593   4.689   0.335   1.827  0.4121  2.0556  0.9302
 5320TIP3   OH237594   0.702   2.805   7.231 -0.8898  0.1826  0.1224
 5320TIP3    H137595   0.615   2.772   7.255 -0.8933  0.0057 -0.1328
 5320TIP3    H237596   0.723   2.869   7.298 -0.6242 -0.7720  0.9837
 5321TIP3   OH237597   4.295   3.598   7.087 -0.1201 -0.0533  0.4212
 5321TIP3    H137598   4.372   3.652   7.069  0.5626 -0.3133  2.2823
 5321TIP3    H237599   4.252   3.588   7.002  2.5909 -0.9913 -0.9732
 5322TIP3   OH237600   2.772   0.725   6.964 -0.2461 -0.4427  0.8573
 5322TIP3    H137601   2.774   0.715   6.869  2.8353 -1.3047  0.8865
 5322TIP3    H237602   2.788   0.637   6.998 -0.3711  0.0111  2.1533
 5323TIP3   OH237603   0.198   1.642   2.071  0.6629 -0.2102 -0.1901
 5323TIP3    H137604   0.275   1.698   2.079  0.2705  0.0691  2.6629
 5323TIP3    H237605   0.216   1.569   2.130 -1.7437  0.5412  1.6414
 5324TIP3   OH237606   3.774   1.851   7.981  0.2435 -0.0810  0.6255
 5324TIP3    H137607   3.782   1.842   7.886 -0.8059 -1.1360  0.6107
 5324TIP3    H237608   3.740   1.940   7.994 -1.3673 -0.5338 -0.1414
 5325TIP3   OH237609   4.112   5.327   1.401  0.0845 -0.4736 -0.2526
 5325TIP3    H137610   4.035   5.353   1.351  0.5619  1.6011  0.0372
 5325TIP3    H237611   4.161   5.271   1.341 -0.2462  0.4958 -1.4576
 5326TIP3   OH237612   3.104   5.237   7.309 -0.3703 -0.6982 -0.1840
 5326TIP3    H137613   3.060   5.191   7.380  0.0124 -0.3694  0.2744
 5326TIP3    H237614   3.108   5.174   7.237 -1.1995 -0.8687 -0.0834
 5327TIP3   OH237615   6.565   2.361   7.293  0.1584 -0.0918  0.1859
 5327TIP3    H137616   6.650   2.317   7.302  0.3776  0.4176  0.7110
 5327TIP3    H237617   6.576   2.442   7.342 -0.2696  0.5071 -0.6994
 5328TIP3   OH237618   4.689   0.618   8.547 -0.4648  0.0410 -0.3302
 5328TIP3    H137619   4.676   0.523   8.549  0.1478 -0.0444  0.6031
 5328TIP3    H237620   4.605   0.654   8.574  0.0249 -0.3618  1.9617
 5329TIP3   OH237621   0.677   2.282   8.635 -0.0566 -0.3299  0.0102
 5329TIP3    H137622   0.686   2.362   8.687  0.4505  0.0426 -0.6271
 5329TIP3    H237623   0.666   2.213   8.699  2.0596 -0.0926  0.7130
 5330TIP3   OH237624   3.868   1.486   7.725 -0.1998  0.1037  0.0072
 5330TIP3    H137625   3.792   1.435   7.752  0.9544 -0.5548  2.2856
 5330TIP3    H237626   3.840   1.531   7.646 -2.4777 -1.1964 -0.0092
 5331TIP3   OH237627   6.692   4.326   0.477 -0.5112 -0.4545 -0.8350
 5331TIP3    H137628   6.762   4.352   0.416 -0.1137 -2.0341 -1.1198
 5331TIP3    H237629   6.634   4.271   0.424 -1.7272  0.4327 -0.4702
 5332TIP3   OH237630   1.823   1.686   0.843  0.1029  0.2979  0.3982
 5332TIP3    H137631   1.832   1.621   0.773  2.1442  2.6952 -1.7934
 5332TIP3    H237632   1.822   1.636   0.924 -0.9884 -2.5536 -1.2569
 5333TIP3   OH237633   2.419   6.350   6.497 -0.3641 -0.0343  0.1335
 5333TIP3    H137634   2.432   6.255   6.499  0.4968  0.0457 -0.7283
 5333TIP3    H237635   2.328   6.361   6.470  0.3272 -0.6640 -2.9106
 5334TIP3   OH237636   3.029   2.542   2.200 -0.0540  0.3837  0.7806
 5334TIP3    H137637   3.006   2.462   2.249  1.1705  0.0416  0.8262
 5334TIP3    H237638   2.963   2.547   2.132 -0.8157 -0.0478  1.4625
 5335TIP3   OH237639   0.850   4.898   0.388 -0.0721  0.0477  0.7943
 5335TIP3    H137640   0.866   4.991   0.398 -1.2649  0.5415 -1.4193
 5335TIP3    H237641   0.757   4.891   0.365 -0.4957 -1.8632  2.6529
 5336TIP3   OH237642   5.135   1.964   7.276 -0.0588  0.2073 -0.3831
 5336TIP3    H137643   5.218   1.960   7.324 -0.0227 -0.3633 -0.4831
 5336TIP3    H237644   5.079   2.020   7.330  0.1478 -0.0130  0.0720
 5337TIP3   OH237645   1.446   4.840   2.537 -0.1971  0.0779 -0.0687
 5337TIP3    H137646   1.505   4.832   2.462 -2.1507  0.2601 -1.7065
 5337TIP3    H237647   1.458   4.930   2.567  2.9588 -0.8591  2.0310
 5338TIP3   OH237648   2.637   6.212   8.183  0.0620 -0.4296 -0.2069
 5338TIP3    H137649   2.723   6.249   8.164  0.0846 -1.3010 -2.0490
 5338TIP3    H237650   2.652   6.117   8.190 -0.8809 -0.7076 -1.6071
 5339TIP3   OH237651   4.273   3.071   7.544  0.7601 -0.1237 -0.1456
 5339TIP3    H137652   4.284   3.164   7.566  1.0145  0.1118 -1.2360
 5339TIP3    H237653   4.359   3.044   7.511  0.5853 -0.6580 -0.1730
 5340TIP3   OH237654   6.109   1.990   8.004  0.1575  0.0429 -0.8116
 5340TIP3    H137655   6.195   1.974   7.964  0.3074 -0.4376 -0.3132
 5340TIP3    H237656   6.058   1.913   7.982  0.4926 -0.5999  0.5668
 5341TIP3   OH237657   0.091   1.011   0.149  0.3629 -0.0888  0.2235
 5341TIP3    H137658   0.186   0.999   0.152  0.2603 -1.3209 -0.6685
 5341TIP3    H237659   0.063   1.006   0.240  0.7479 -3.6488  0.2524
 5342TIP3   OH237660   3.812   4.864   7.972 -0.3556  0.0274  0.6789
 5342TIP3    H137661   3.789   4.957   7.961 -1.1568 -0.1358  0.9159
 5342TIP3    H237662   3.903   4.859   7.943 -1.3390  0.2117 -2.8096
 5343TIP3   OH237663   0.290   1.186   1.706  0.0660 -0.1680 -0.4529
 5343TIP3    H137664   0.287   1.269   1.752  0.8882 -0.6463  0.5204
 5343TIP3    H237665   0.384   1.165   1.701 -0.2019 -1.8201  0.8141
 5344TIP3   OH237666   4.419   3.611   0.222 -0.4532 -0.4301  0.3190
 5344TIP3    H137667   4.436   3.556   0.298  0.6555 -0.2130  0.2552
 5344TIP3    H237668   4.414   3.700   0.257  0.1247 -0.3211  0.1514
 5345TIP3   OH237669   5.364   3.156   6.444 -0.1607  0.8863  0.2939
 5345TIP3    H137670   5.394   3.240   6.410 -0.3475  1.5266  1.6313
 5345TIP3    H237671   5.388   3.158   6.537 -0.7693 -0.2550  0.4971
 5346TIP3   OH237672   4.975   0.057   8.088  0.3593  0.2764 -0.0970
 5346TIP3    H137673   4.996  -0.027   8.129 -2.1411  0.3496  1.5455
 5346TIP3    H237674   4.897   0.038   8.036 -1.7034  1.9539  2.1558
 5347TIP3   OH237675   1.710   5.930   0.811  0.7528  0.3597 -0.1076
 5347TIP3    H137676   1.632   5.875   0.810  0.4277  0.8101 -1.3663
 5347TIP3    H237677   1.768   5.889   0.875 -0.6926  0.2806  1.1771
 5348TIP3   OH237678   4.124   1.128   7.458  0.5889  0.3782  0.2369
 5348TIP3    H137679   4.210   1.111   7.497  0.4454  0.5355  0.6319
 5348TIP3    H237680   4.132   1.216   7.419  1.1442 -0.3113 -1.2738
 5349TIP3   OH237681   1.011   1.650   7.170  0.0599 -0.6126 -0.0269
 5349TIP3    H137682   1.000   1.575   7.229 -0.7955  0.5489  1.3621
 5349TIP3    H237683   0.964   1.722   7.213  2.0873  1.1485 -0.5332
 5350TIP3   OH237684   3.317   5.021   6.745 -0.5279 -0.7764 -0.4658
 5350TIP3    H137685   3.403   4.989   6.720 -0.4967 -0.4867 -0.7466
 5350TIP3    H237686   3.284   5.065   6.666 -0.6273 -0.2567 -0.1413
 5351TIP3   OH237687   1.495   4.355   2.692 -0.1858 -0.3258 -0.0804
 5351TIP3    H137688   1.493   4.337   2.598 -0.3431  1.3755 -0.4303
 5351TIP3    H237689   1.575   4.405   2.705  1.2376 -2.7430  1.1673
 5352TIP3   OH237690   6.250   3.404   7.644 -0.5193  0.2320 -0.2552
 5352TIP3    H137691   6.335   3.380   7.606 -1.2341 -1.0274 -1.1527
 5352TIP3    H237692   6.238   3.496   7.621  1.2043  0.8343  1.0942
 5353TIP3   OH237693   0.202   1.187   8.681 -0.0488  0.6243 -0.5071
 5353TIP3    H137694   0.188   1.164   8.590 -0.6881  0.8744 -0.4777
 5353TIP3    H237695   0.297   1.182   8.693 -0.0718 -1.1468 -0.7181
 5354TIP3   OH237696   2.444   2.103   8.117  0.3648  0.6392  0.5149
 5354TIP3    H137697   2.462   2.018   8.158 -0.7553 -0.2492 -0.7307
 5354TIP3    H237698   2.472   2.091   8.026 -0.2777  1.4324  0.2055
 5355TIP3   OH237699   4.619   5.804   2.265  0.3999  0.6409 -0.6602
 5355TIP3    H137700   4.633   5.722   2.218  0.2136  1.0193 -1.3782
 5355TIP3    H237701   4.707   5.838   2.282  0.5543 -0.4008  0.9152
 5356TIP3   OH237702   1.984   1.182   0.085  0.3597 -0.5706 -0.0560
 5356TIP3    H137703   1.977   1.267   0.130 -1.0333 -1.0886  0.7715
 5356TIP3    H237704   2.047   1.133   0.138 -0.4039 -0.7661  0.7018
 5357TIP3   OH237705   0.805   0.483   0.532  0.1010 -0.0935  0.0469
 5357TIP3    H137706   0.720   0.524   0.519  0.5591  0.7507 -0.3960
 5357TIP3    H237707   0.787   0.389   0.537 -0.5864 -0.2330 -2.9523
 5358TIP3   OH237708   2.724   4.907   8.555  0.2899  0.4627 -0.4256
 5358TIP3    H137709   2.641   4.915   8.507  0.5748  1.8250 -0.7472
 5358TIP3    H237710   2.717   4.824   8.602 -1.7809  1.1034  0.5242
 5359TIP3   OH237711   0.738   1.474   7.061 -0.1422 -0.8712 -0.2276
 5359TIP3    H137712   0.689   1.417   7.001 -0.5657 -1.1626  0.3775
 5359TIP3    H237713   0.753   1.419   7.138  1.0288 -0.7399 -0.3505
 5360TIP3   OH237714   0.259   1.270   6.932  0.2091  0.3707  0.1540
 5360TIP3    H137715   0.258   1.264   6.836 -2.7307  1.0572  0.0408
 5360TIP3    H237716   0.168   1.255   6.958  0.5571  2.0260  2.7032
 5361TIP3   OH237717   6.201   4.074   0.775 -0.2105 -0.1364  0.0269
 5361TIP3    H137718   6.106   4.087   0.765 -0.2267 -0.9780 -1.1188
 5361TIP3    H237719   6.219   4.102   0.865 -1.7923 -1.2858  0.7697
 5362TIP3   OH237720   0.074   6.377   0.872 -0.1342 -0.4599  0.0872
 5362TIP3    H137721   0.123   6.336   0.800  0.3234  0.0828  0.0781
 5362TIP3    H237722   0.054   6.465   0.840  1.7257  0.4697  1.3124
 5363TIP3   OH237723   5.044   4.353   7.829 -0.2012  0.2616  0.0463
 5363TIP3    H137724   5.060   4.380   7.738  1.7474 -1.1762 -0.1006
 5363TIP3    H237725   5.079   4.425   7.882  0.1282  0.3997 -0.3517
 5364TIP3   OH237726   5.774   1.920   1.139 -0.1743  0.3673  0.2310
 5364TIP3    H137727   5.751   1.848   1.198 -0.6842 -1.4368 -2.0408
 5364TIP3    H237728   5.782   1.879   1.053 -0.5168  3.0511 -1.1809
 5365TIP3   OH237729   5.255   5.332   8.290  0.2149  0.5042 -0.5424
 5365TIP3    H137730   5.195   5.261   8.315  1.1707 -0.7094 -1.5848
 5365TIP3    H237731   5.314   5.342   8.365 -2.2029  2.8927  1.2627
 5366TIP3   OH237732   2.635   2.695   2.025  0.7079 -0.3307  0.5039
 5366TIP3    H137733   2.704   2.748   2.065  0.8042 -0.8530  1.0383
 5366TIP3    H237734   2.565   2.693   2.090 -1.0164  2.4599 -1.0700
 5367TIP3   OH237735   3.771   3.586   0.485  0.1670 -0.2286  0.1592
 5367TIP3    H137736   3.684   3.552   0.503  0.3494 -0.6461  0.2628
 5367TIP3    H237737   3.756   3.674   0.450 -0.2573 -0.0003  0.9118
 5368TIP3   OH237738   4.905   2.653   1.369 -0.2898  0.0461 -0.0667
 5368TIP3    H137739   4.948   2.592   1.429  0.1789 -0.3194 -0.7660
 5368TIP3    H237740   4.815   2.658   1.401  0.2072  0.7111  1.3317
 5369TIP3   OH237741   2.716   1.570   0.016  0.0952 -0.0106 -0.3946
 5369TIP3    H137742   2.767   1.515  -0.044 -0.3132  1.1862 -1.9185
 5369TIP3    H237743   2.779   1.631   0.053  0.8870 -2.4138  2.6078
 5370TIP3   OH237744   3.745   1.313   0.353 -0.4658 -0.2028 -0.3122
 5370TIP3    H137745   3.814   1.328   0.417  0.3229 -1.0275 -0.9285
 5370TIP3    H237746   3.751   1.219   0.333 -0.4834  0.0920 -1.8036
 5371TIP3   OH237747   4.304   4.768   1.785 -0.1148 -0.3968  0.2846
 5371TIP3    H137748   4.320   4.691   1.731  0.9027  0.7534 -1.1282
 5371TIP3    H237749   4.377   4.827   1.765 -0.9475  1.0013  1.1965
 5372TIP3   OH237750   6.220   5.244   1.434  0.0294  0.2507  0.0106
 5372TIP3    H137751   6.150   5.287   1.384 -0.8998 -0.9471  0.2280
 5372TIP3    H237752   6.200   5.265   1.525  0.7831  1.0757 -0.0036
 5373TIP3   OH237753   3.838   2.783   6.903 -0.1028  0.4910  0.3687
 5373TIP3    H137754   3.850   2.691   6.878  0.6098  0.6655  0.0532
 5373TIP3    H237755   3.788   2.821   6.830 -1.6552  0.0394  1.1465
 5374TIP3   OH237756   4.259   2.370   1.633  0.1033 -0.4517 -0.5602
 5374TIP3    H137757   4.316   2.304   1.674  0.0744  0.2305  0.6068
 5374TIP3    H237758   4.232   2.329   1.550  1.9464 -0.9691 -0.9735
 5375TIP3   OH237759   1.013   0.319   6.665 -0.3837  0.6817  0.4118
 5375TIP3    H137760   0.976   0.283   6.584 -0.7109  1.8719  0.0072
 5375TIP3    H237761   1.093   0.363   6.638 -0.9045  1.7789  0.5810
 5376TIP3   OH237762   5.413   3.734   1.551  0.4041  0.6416 -0.0232
 5376TIP3    H137763   5.365   3.780   1.481 -0.8633  2.4029  1.8736
 5376TIP3    H237764   5.504   3.759   1.537  0.1598  1.0637 -0.9783
 5377TIP3   OH237765   4.459   1.864   2.332 -0.4069  0.2058 -0.4712
 5377TIP3    H137766   4.448   1.781   2.285  0.5943  0.0973 -0.5475
 5377TIP3    H237767   4.511   1.918   2.273 -1.0025  0.8690 -0.3938
 5378TIP3   OH237768   5.354   4.599   2.129 -0.0046 -0.1530  0.2008
 5378TIP3    H137769   5.297   4.588   2.206  0.6886  0.7993  0.8815
 5378TIP3    H237770   5.314   4.545   2.062 -1.7138  0.4674  0.6596
 5379TIP3   OH237771   0.116   1.726   7.445  0.3614  0.2242 -0.1808
 5379TIP3    H137772   0.188   1.672   7.412  0.4820  0.6846 -0.6653
 5379TIP3    H237773   0.152   1.770   7.522  0.5289  0.2820 -0.2924
 5380TIP3   OH237774   3.048   1.176   2.172 -0.6358  0.2491 -0.3431
 5380TIP3    H137775   3.006   1.105   2.219  0.0709  0.4470  0.6095
 5380TIP3    H237776   3.094   1.226   2.239  0.0820  0.7582 -1.1894
 5381TIP3   OH237777   0.451   1.172   1.007 -0.3554  0.1475 -0.1890
 5381TIP3    H137778   0.524   1.228   0.980 -1.4763  1.8090  0.0896
 5381TIP3    H237779   0.493   1.091   1.037  1.4165  1.2494  0.4499
 5382TIP3   OH237780   2.942   1.545   0.919 -0.2130 -0.4608 -0.1011
 5382TIP3    H137781   2.972   1.524   1.008 -0.2724 -0.4982 -0.0898
 5382TIP3    H237782   2.918   1.461   0.881 -1.0349 -0.3558  0.1555
 5383TIP3   OH237783   3.320   4.189   0.642  0.2933 -0.4296 -0.4613
 5383TIP3    H137784   3.282   4.159   0.559 -0.0426  0.8113 -0.7728
 5383TIP3    H237785   3.411   4.162   0.637  0.6021  0.7462 -1.8163
 5384TIP3   OH237786   4.324   5.614   0.038  0.1505  0.2818 -0.2755
 5384TIP3    H137787   4.355   5.617   0.128  0.1054  1.7367 -0.2945
 5384TIP3    H237788   4.360   5.532   0.003  0.5189 -0.0872  0.9261
 5385TIP3   OH237789   4.402   0.582   0.794 -0.4218  0.1880  0.2207
 5385TIP3    H137790   4.359   0.608   0.876  2.1497  1.5379  1.2724
 5385TIP3    H237791   4.480   0.534   0.823 -0.9721 -1.9327 -1.5744
 5386TIP3   OH237792   6.455   4.004   8.804 -0.1518  0.4368  0.5287
 5386TIP3    H137793   6.506   3.927   8.829  1.2370  1.6292  1.5766
 5386TIP3    H237794   6.518   4.063   8.763 -1.0061  1.3556  0.4908
 5387TIP3   OH237795   1.212   3.620   8.664  0.3960 -0.0167  0.7695
 5387TIP3    H137796   1.170   3.551   8.613 -0.0110  0.2730  0.7045
 5387TIP3    H237797   1.267   3.666   8.601  0.2125  0.0837  0.6823
 5388TIP3   OH237798   0.222   1.906   1.775 -0.4140  0.2132  0.6402
 5388TIP3    H137799   0.185   1.948   1.853 -3.0089 -0.0219 -0.3802
 5388TIP3    H237800   0.247   1.979   1.718  0.9643  0.3760  1.4033
 5389TIP3   OH237801   6.225   5.954   1.042 -0.3205  0.2646  0.5360
 5389TIP3    H137802   6.131   5.970   1.039 -0.1285  1.5269  0.8980
 5389TIP3    H237803   6.234   5.862   1.017 -1.5434  0.4626 -0.7492
 5390TIP3   OH237804   0.271   0.719   1.515 -0.1717 -0.9862  0.2261
 5390TIP3    H137805   0.258   0.697   1.607  0.5804 -0.7590  0.3926
 5390TIP3    H237806   0.338   0.658   1.485  0.1856 -0.5213  0.0573
 5391TIP3   OH237807   1.503   5.292   0.439 -0.4819 -0.5185 -0.1439
 5391TIP3    H137808   1.530   5.200   0.435  0.2771 -0.2702 -1.2236
 5391TIP3    H237809   1.415   5.293   0.400 -0.3910 -0.7458 -0.3540
 5392TIP3   OH237810   5.324   1.023   8.654 -0.2305  0.1854  0.3681
 5392TIP3    H137811   5.317   1.071   8.571 -2.8625 -2.1797 -0.9632
 5392TIP3    H237812   5.358   0.937   8.628 -2.3806 -1.0703  1.4772
 5393TIP3   OH237813   5.125   1.104   1.776 -0.2350 -0.1973 -0.0566
 5393TIP3    H137814   5.074   1.059   1.844 -0.9972  0.7819  0.0310
 5393TIP3    H237815   5.180   1.166   1.825 -0.9435  0.6640 -0.3385
 5394TIP3   OH237816   4.882   2.251   6.165 -0.5963 -0.1985 -0.2426
 5394TIP3    H137817   4.842   2.192   6.229  2.2001 -0.3561  1.5078
 5394TIP3    H237818   4.924   2.193   6.101 -0.6753 -0.0513 -0.4325
 5395TIP3   OH237819   6.699   6.298   1.977 -0.2870 -0.1219 -0.2887
 5395TIP3    H137820   6.606   6.295   1.998  0.4413 -1.1020  3.4891
 5395TIP3    H237821   6.743   6.258   2.052  3.2366  0.3549 -1.8546
 5396TIP3   OH237822   1.793   4.138   1.476  0.0726 -0.6149 -0.3556
 5396TIP3    H137823   1.753   4.191   1.545  2.1293  1.9137 -0.9228
 5396TIP3    H237824   1.887   4.153   1.486  0.4806 -0.3563 -3.4806
 5397TIP3   OH237825   2.055   4.966   7.018 -0.1043 -0.1863  0.4260
 5397TIP3    H137826   1.963   4.985   7.002 -0.0064  1.3187  1.3872
 5397TIP3    H237827   2.057   4.930   7.107  0.1853 -0.5936  0.2551
 5398TIP3   OH237828   0.093   4.290   7.263 -0.0923  0.5612  0.4792
 5398TIP3    H137829   0.022   4.294   7.326 -0.6854 -2.1869  0.0907
 5398TIP3    H237830   0.173   4.285   7.316 -0.4758 -0.1770  1.0043
 5399TIP3   OH237831   4.159   0.749   6.578  0.5725 -0.3918 -0.6027
 5399TIP3    H137832   4.067   0.762   6.556  0.3471 -0.9042 -0.0264
 5399TIP3    H237833   4.162   0.658   6.610  1.0594 -0.0270  0.4168
 5400TIP3   OH237834   4.698   2.962   1.555  0.2358  0.3036 -0.4340
 5400TIP3    H137835   4.667   2.902   1.487  0.1848  1.1026 -1.1303
 5400TIP3    H237836   4.765   2.913   1.602 -1.0863 -0.9778  0.2185
 5401TIP3   OH237837   2.086   1.320   7.328 -0.4328  0.3230  0.2893
 5401TIP3    H137838   2.123   1.322   7.239 -1.1952  0.2480 -0.0346
 5401TIP3    H237839   2.059   1.229   7.341 -1.9893  0.6915 -0.1164
 5402TIP3   OH237840   3.354   6.599   0.282 -0.2901  0.2994  0.0670
 5402TIP3    H137841   3.380   6.687   0.308 -0.0020  0.4014 -0.5400
 5402TIP3    H237842   3.262   6.608   0.255 -0.5631  0.2085  0.9498
 5403TIP3   OH237843   0.319   0.715   6.919  0.0162  0.3128  0.2049
 5403TIP3    H137844   0.305   0.771   6.996 -1.2275 -0.2089  0.3879
 5403TIP3    H237845   0.237   0.666   6.910  1.0720 -1.5581  0.1140
 5404TIP3   OH237846   4.842   5.696   6.288 -0.1163  0.4363  0.1243
 5404TIP3    H137847   4.857   5.761   6.356 -1.9616  0.1298  0.8905
 5404TIP3    H237848   4.749   5.705   6.266 -0.7211 -2.5778  0.9926
 5405TIP3   OH237849   4.320   0.050   7.479  0.4138 -0.1576  0.0900
 5405TIP3    H137850   4.374  -0.024   7.508 -0.2384 -1.3029 -1.4751
 5405TIP3    H237851   4.234   0.012   7.461 -0.1763  1.1440  0.0400
 5406TIP3   OH237852   5.352   6.007   7.790  0.8145  0.6262  0.4178
 5406TIP3    H137853   5.367   5.915   7.770  1.0439  0.7727 -0.0835
 5406TIP3    H237854   5.422   6.029   7.852  0.7851  0.4765  0.5055
 5407TIP3   OH237855   1.345   2.365   8.719 -0.2399  0.8992  0.0769
 5407TIP3    H137856   1.311   2.305   8.785 -0.9908  0.9346 -0.2749
 5407TIP3    H237857   1.354   2.312   8.640  2.0944  0.4633  0.5477
 5408TIP3   OH237858   5.118   5.612   0.453  0.0925 -0.0623  0.2730
 5408TIP3    H137859   5.114   5.686   0.513 -1.6873  0.7513 -0.7753
 5408TIP3    H237860   5.159   5.647   0.374  2.4808 -1.1397  0.9035
 5409TIP3   OH237861   5.356   0.454   0.927  0.2367 -0.0003  0.2493
 5409TIP3    H137862   5.379   0.372   0.970 -1.4462 -1.8668 -2.1448
 5409TIP3    H237863   5.383   0.441   0.836 -2.8104  0.8004 -0.8856
 5410TIP3   OH237864   3.387   0.831   6.683 -0.9894  0.4118  0.2741
 5410TIP3    H137865   3.479   0.824   6.657 -0.9805 -0.0080  0.4143
 5410TIP3    H237866   3.355   0.741   6.685 -0.8151  0.3449  2.2882
 5411TIP3   OH237867   1.882   6.653   2.204 -0.1738 -0.2490  0.0833
 5411TIP3    H137868   1.841   6.737   2.227  0.0793 -0.2426  0.5190
 5411TIP3    H237869   1.937   6.632   2.279 -1.0080 -1.3080  0.4285
 5412TIP3   OH237870   2.554   5.342   8.009 -0.8144  0.4711 -0.5252
 5412TIP3    H137871   2.585   5.257   8.040  0.3250  1.3144  0.8009
 5412TIP3    H237872   2.544   5.394   8.089 -0.5609  1.8695 -1.3672
 5413TIP3   OH237873   3.924   6.126   7.887  0.3311  0.2147  0.2642
 5413TIP3    H137874   3.830   6.121   7.871  0.3380  1.0082 -0.0894
 5413TIP3    H237875   3.936   6.208   7.934  0.8956  0.3636 -0.1256
 5414TIP3   OH237876   2.505   3.473   0.876 -0.2016  0.4092  0.5608
 5414TIP3    H137877   2.422   3.432   0.901 -0.5093  1.8801  2.0701
 5414TIP3    H237878   2.488   3.567   0.879  0.1619  0.8436 -3.9416
 5415TIP3   OH237879   5.141   4.068   0.293  0.1099  0.1284  0.7125
 5415TIP3    H137880   5.108   4.000   0.234 -1.6294 -0.1795  1.9522
 5415TIP3    H237881   5.082   4.142   0.280  1.7819  1.3507 -0.3816
 5416TIP3   OH237882   3.279   0.580   0.443  0.1222 -0.4430 -0.1221
 5416TIP3    H137883   3.365   0.621   0.457 -0.6718  1.7880 -1.3479
 5416TIP3    H237884   3.277   0.558   0.350 -0.2739 -1.4586  0.1071
 5417TIP3   OH237885   3.730   4.679   6.364 -0.3130  1.1012  0.3483
 5417TIP3    H137886   3.639   4.685   6.334 -0.2805  2.3497  0.4340
 5417TIP3    H237887   3.723   4.649   6.455 -0.5072 -0.8839 -0.2841
 5418TIP3   OH237888   1.151   5.538   1.604  0.0498 -0.1510  0.0209
 5418TIP3    H137889   1.111   5.459   1.568  0.0882 -0.0220 -0.3033
 5418TIP3    H237890   1.125   5.537   1.696  0.0727 -0.5561  0.0284
 5419TIP3   OH237891   6.019   4.199   0.547 -0.0267  0.2616  0.0184
 5419TIP3    H137892   6.040   4.125   0.490 -1.4043 -1.3916  1.5586
 5419TIP3    H237893   6.094   4.207   0.605  1.0368  1.4576 -1.4344
 5420TIP3   OH237894   2.565   4.558   0.671 -0.2324 -0.1713 -0.4264
 5420TIP3    H137895   2.636   4.612   0.706 -1.7123  1.3251  0.3890
 5420TIP3    H237896   2.553   4.590   0.581 -0.4085  0.1184 -0.2987
 5421TIP3   OH237897   1.796   3.939   7.448  0.5635 -0.0883 -0.2040
 5421TIP3    H137898   1.761   3.876   7.385 -0.9248  0.0039  0.4978
 5421TIP3    H237899   1.881   3.964   7.412  0.6768 -1.6151 -1.0893
 5422TIP3   OH237900   5.353   6.801   0.007  0.5570 -0.7448  0.1826
 5422TIP3    H137901   5.323   6.793   0.098 -1.6119  1.5412 -0.2167
 5422TIP3    H237902   5.448   6.811   0.014  0.3810  0.1932  2.2875
 5423TIP3   OH237903   2.858   5.452   6.862  0.2510  0.2496 -0.7294
 5423TIP3    H137904   2.849   5.512   6.936  0.2122 -2.5212  1.6955
 5423TIP3    H237905   2.936   5.400   6.882 -0.2276 -1.1293 -2.2246
 5424TIP3   OH237906   3.053   0.475   0.558  0.5883 -0.2140  0.3814
 5424TIP3    H137907   3.131   0.521   0.528  0.5076 -0.7126 -0.6342
 5424TIP3    H237908   3.046   0.399   0.500 -0.1602 -0.6504  1.0227
 5425TIP3   OH237909   5.677   0.229   0.369  0.4312 -0.0572 -0.6700
 5425TIP3    H137910   5.601   0.179   0.398  0.3770  0.8611  0.8893
 5425TIP3    H237911   5.642   0.316   0.349  1.2863  1.0571  2.1372
 5426TIP3   OH237912   6.422   1.960   0.959 -0.9382 -0.8217 -0.0108
 5426TIP3    H137913   6.330   1.974   0.936 -1.5719 -1.0825  2.1357
 5426TIP3    H237914   6.423   1.965   1.055  1.6093  0.9981 -0.0484
 5427TIP3   OH237915   1.569   1.659   7.450  0.3644  0.6017 -0.1785
 5427TIP3    H137916   1.641   1.701   7.401 -0.9587  2.6547 -0.4830
 5427TIP3    H237917   1.492   1.711   7.429 -1.0410 -0.8881  1.0020
 5428TIP3   OH237918   3.674   3.830   2.426 -0.1575  0.1696 -0.5485
 5428TIP3    H137919   3.636   3.913   2.455 -1.1243 -0.8375  1.2493
 5428TIP3    H237920   3.598   3.776   2.403  0.3911 -0.6043 -0.5669
 5429TIP3   OH237921   2.903   2.548   1.167 -0.2247 -0.5187  0.1074
 5429TIP3    H137922   2.906   2.454   1.150  0.0131 -0.5361  0.2420
 5429TIP3    H237923   2.831   2.580   1.112 -0.4975 -0.8231  0.2777
 5430TIP3   OH237924   5.160   6.076   7.431  0.0825 -0.0096 -0.4966
 5430TIP3    H137925   5.180   6.143   7.496 -2.5014 -0.5752  1.0087
 5430TIP3    H237926   5.201   5.996   7.465 -2.9454 -0.7925  1.7036
 5431TIP3   OH237927   2.995   4.456   8.764 -0.0905  0.1195  0.0409
 5431TIP3    H137928   3.063   4.398   8.730  0.7305  0.2519  1.4001
 5431TIP3    H237929   2.919   4.398   8.776  0.0768 -0.2323 -0.5559
 5432TIP3   OH237930   5.606   5.517   8.087  0.2917  0.9219 -0.5248
 5432TIP3    H137931   5.609   5.573   8.009  1.0523 -0.6042 -1.6455
 5432TIP3    H237932   5.520   5.477   8.083 -0.4069  2.2463  0.4934
 5433TIP3   OH237933   2.062   0.413   7.468  0.0035 -0.3034 -0.0665
 5433TIP3    H137934   2.073   0.357   7.392  0.8696 -1.1610  0.6695
 5433TIP3    H237935   2.151   0.432   7.498 -0.2953  0.9441  0.0791
 5434TIP3   OH237936   4.529   4.272   1.614 -0.7490  0.3978 -0.5080
 5434TIP3    H137937   4.544   4.253   1.521  0.1246 -2.1719  0.0636
 5434TIP3    H237938   4.516   4.186   1.654  2.3923  1.0623  2.3467
 5435TIP3   OH237939   6.505   3.375   1.511 -0.1100  0.0903  0.3217
 5435TIP3    H137940   6.464   3.291   1.533  0.8856 -0.3674  0.4799
 5435TIP3    H237941   6.457   3.439   1.564  0.4194 -0.6459  1.7295
 5436TIP3   OH237942   5.608   0.834   1.219  0.5310  0.2930  0.0059
 5436TIP3    H137943   5.569   0.814   1.304  1.2966  1.5473  0.6759
 5436TIP3    H237944   5.703   0.833   1.235  0.9012 -3.0489 -1.6697
 5437TIP3   OH237945   2.010   4.341   0.880  0.5641 -0.0192  0.4314
 5437TIP3    H137946   1.988   4.423   0.836 -0.3382 -0.3364  0.2779
 5437TIP3    H237947   2.077   4.301   0.824  0.8924  0.5250  0.4248
 5438TIP3   OH237948   3.977   3.368   1.594 -0.0026 -0.1064  0.0620
 5438TIP3    H137949   3.926   3.403   1.667  0.6213  2.0383 -0.4567
 5438TIP3    H237950   4.068   3.375   1.623  0.1554 -1.9583  0.1627
 5439TIP3   OH237951   1.215   1.795   6.871  0.3514  0.0301  0.2676
 5439TIP3    H137952   1.236   1.813   6.780 -1.3464 -0.4149 -0.2396
 5439TIP3    H237953   1.300   1.773   6.911  1.1577  0.5164 -1.1089
 5440TIP3   OH237954   0.270   4.918   0.419  0.7624  0.0920 -0.2992
 5440TIP3    H137955   0.356   4.888   0.446  0.9894  0.5098 -0.5573
 5440TIP3    H237956   0.209   4.865   0.470  1.1543 -0.9110 -0.8447
 5441TIP3   OH237957   4.147   0.623   7.562  0.2053 -0.3087  0.5071
 5441TIP3    H137958   4.199   0.669   7.629 -1.0788 -1.9795  2.7822
 5441TIP3    H237959   4.158   0.530   7.582 -0.2029 -0.8987 -1.7016
 5442TIP3   OH237960   1.555   2.361   2.336  0.0666 -0.0236 -0.4741
 5442TIP3    H137961   1.550   2.428   2.403 -0.2844 -0.1560 -0.3613
 5442TIP3    H237962   1.535   2.279   2.382 -4.6123  0.2950 -1.3711
 5443TIP3   OH237963   3.328   6.615   1.470  0.4986 -0.1488 -0.1815
 5443TIP3    H137964   3.284   6.537   1.436 -0.4847  0.6881 -0.9197
 5443TIP3    H237965   3.421   6.601   1.448  0.4059 -1.2883  0.0851
 5444TIP3   OH237966   1.583   1.849   0.882 -0.5488 -0.7866 -0.7147
 5444TIP3    H137967   1.634   1.768   0.882 -2.7781 -2.3110  0.6274
 5444TIP3    H237968   1.553   1.858   0.792  1.1884 -0.3885 -1.2982
 5445TIP3   OH237969   0.459   2.780   7.751  0.1429 -0.4217 -0.2873
 5445TIP3    H137970   0.411   2.787   7.668  0.2597 -2.0583 -0.5103
 5445TIP3    H237971   0.447   2.690   7.778 -0.4024  0.2377  1.8243
 5446TIP3   OH237972   2.737   6.348   6.709 -0.0731  0.2779  0.1911
 5446TIP3    H137973   2.746   6.289   6.634 -1.1017  2.8830 -2.1844
 5446TIP3    H237974   2.816   6.402   6.706  0.6631 -0.6102  2.0747
 5447TIP3   OH237975   1.959   1.651   7.933 -0.0269 -0.2910 -0.3199
 5447TIP3    H137976   1.887   1.700   7.894 -0.6937 -0.3478  0.7910
 5447TIP3    H237977   2.023   1.641   7.862  0.4088  2.6661 -0.4875
 5448TIP3   OH237978   3.535   5.955   6.449  0.0281  0.1521  0.3192
 5448TIP3    H137979   3.592   5.992   6.517 -1.4504 -0.1785  1.8036
 5448TIP3    H237980   3.469   6.022   6.435  1.3264  1.0290 -2.2381
 5449TIP3   OH237981   3.574   6.703   2.355  0.1234 -0.0071 -0.5016
 5449TIP3    H137982   3.632   6.634   2.387  2.0982  0.8802 -1.9640
 5449TIP3    H237983   3.628   6.753   2.293 -1.3649  2.5662  0.1362
 5450TIP3   OH237984   4.207   0.898   8.043 -0.3526  0.7671 -0.4898
 5450TIP3    H137985   4.236   0.988   8.059  0.6880  0.6750 -1.6770
 5450TIP3    H237986   4.288   0.847   8.037 -0.8787 -0.0703 -0.8140
 5451TIP3   OH237987   3.443   5.164   8.655 -0.5411 -0.1060  0.3086
 5451TIP3    H137988   3.386   5.215   8.598 -0.7849 -0.0394  0.6114
 5451TIP3    H237989   3.518   5.142   8.600  0.5100  2.2252  0.7151
 5452TIP3   OH237990   1.719   4.366   7.672  0.8846  0.0942  0.9027
 5452TIP3    H137991   1.806   4.329   7.683  1.0432 -0.0486 -0.6410
 5452TIP3    H237992   1.732   4.439   7.611 -0.3087 -1.0129 -0.7496
 5453TIP3   OH237993   2.686   2.991   1.587 -0.0594  0.1944  0.2291
 5453TIP3    H137994   2.775   3.004   1.554 -0.6580 -2.3846 -2.8858
 5453TIP3    H237995   2.645   3.078   1.580  1.9421  1.2779  1.0875
 5454TIP3   OH237996   0.691   0.175   2.216 -0.0119 -0.5849 -0.3216
 5454TIP3    H137997   0.630   0.101   2.227 -0.3972 -0.0394  1.5392
 5454TIP3    H237998   0.694   0.189   2.122 -1.9830 -1.3110 -0.5514
 5455TIP3   OH237999   6.347   5.208   1.811 -0.4197  0.1066 -0.2162
 5455TIP3    H138000   6.429   5.246   1.842  0.4621 -1.3897 -0.5846
 5455TIP3    H238001   6.375   5.138   1.751 -1.9161 -1.4490  0.8150
 5456TIP3   OH238002   0.505   0.930   6.198 -0.3244  0.1635 -0.1767
 5456TIP3    H138003   0.561   0.966   6.129 -0.3423  1.5277  0.4752
 5456TIP3    H238004   0.438   0.997   6.210 -1.0689 -0.6561  0.2730
 5457TIP3   OH238005   5.677   1.750   1.317  0.6349 -0.2980  0.1348
 5457TIP3    H138006   5.683   1.661   1.283 -0.7958 -1.0557  1.7253
 5457TIP3    H238007   5.605   1.747   1.380  0.5193  1.9995  0.2028
 5458TIP3   OH238008   2.582   6.665   1.340  0.1387 -0.6767  0.2742
 5458TIP3    H138009   2.538   6.726   1.398  2.5422 -0.3225  1.8492
 5458TIP3    H238010   2.559   6.695   1.252 -1.5087  0.3492  1.0120
 5459TIP3   OH238011   4.483   1.109   6.539 -0.0276 -0.1006 -0.1267
 5459TIP3    H138012   4.557   1.055   6.564  0.0945  0.0329 -0.1971
 5459TIP3    H238013   4.423   1.049   6.495 -0.1678 -0.3016  0.3341
 5460TIP3   OH238014   5.206   2.567   8.511 -0.5714 -0.2607 -0.5115
 5460TIP3    H138015   5.127   2.553   8.563 -0.0119  0.3872  0.5391
 5460TIP3    H238016   5.176   2.617   8.435 -0.9290  1.4269  0.6889
 5461TIP3   OH238017   2.133   5.190   0.131  0.5759  0.2709 -0.2527
 5461TIP3    H138018   2.149   5.108   0.084  1.1031  1.2707 -1.9202
 5461TIP3    H238019   2.169   5.175   0.218  1.2924 -1.0395 -0.7459
 5462TIP3   OH238020   1.148   0.086   7.894 -0.0333 -1.1840  0.1174
 5462TIP3    H138021   1.159   0.177   7.922 -0.5391 -0.7752 -0.9511
 5462TIP3    H238022   1.192   0.035   7.962  2.3730 -0.0331 -0.4302
 5463TIP3   OH238023   0.118   3.887   0.888  0.1893 -0.0950 -0.2643
 5463TIP3    H138024   0.180   3.816   0.873  0.1269 -0.1147 -0.4308
 5463TIP3    H238025   0.077   3.901   0.803 -1.5444 -1.4878  0.2774
 5464TIP3   OH238026   4.038   2.610   0.226  0.3648  0.3858 -0.0143
 5464TIP3    H138027   4.070   2.615   0.316 -5.0624  1.2708  2.2477
 5464TIP3    H238028   4.013   2.518   0.215 -0.9402  0.6899  0.2692
 5465TIP3   OH238029   5.841   5.339   7.615  0.3331  0.0935 -0.5012
 5465TIP3    H138030   5.928   5.371   7.594  0.3545  2.6352  2.7389
 5465TIP3    H238031   5.856   5.260   7.667  0.6348 -0.0007 -0.7290
 5466TIP3   OH238032   0.842   1.827   7.897 -0.0944 -0.1175  0.3952
 5466TIP3    H138033   0.871   1.736   7.889 -0.7472 -0.4319  1.4301
 5466TIP3    H238034   0.896   1.875   7.834 -1.0936 -1.5051 -1.6276
 5467TIP3   OH238035   1.911   4.915   1.265  0.4089  0.2513  0.1851
 5467TIP3    H138036   1.905   5.005   1.297  0.8296 -0.0273  1.0744
 5467TIP3    H238037   1.845   4.910   1.195  1.4667  1.6922 -0.9838
 5468TIP3   OH238038   6.020   1.116   6.545  0.1037  0.5424 -0.1914
 5468TIP3    H138039   6.090   1.095   6.483  0.3108 -1.2745  0.5736
 5468TIP3    H238040   5.959   1.042   6.537  0.6061 -0.2596  2.3846
 5469TIP3   OH238041   0.612   0.548   6.918 -0.0738 -0.8271  0.1813
 5469TIP3    H138042   0.632   0.562   7.011  0.2964  1.4587 -0.1755
 5469TIP3    H238043   0.523   0.581   6.908 -0.0782 -0.9821 -0.2929
 5470TIP3   OH238044   5.617   6.380   8.102 -0.8107 -0.6559  0.4721
 5470TIP3    H138045   5.690   6.348   8.048 -0.7636 -2.3563  1.4873
 5470TIP3    H238046   5.636   6.346   8.189 -2.2260 -0.1296  0.9953
 5471TIP3   OH238047   2.574   0.566   0.020  0.8062 -0.3209  0.5716
 5471TIP3    H138048   2.609   0.580   0.108 -0.6569 -0.9175  1.2857
 5471TIP3    H238049   2.513   0.638   0.007 -0.1986 -1.1204  0.7257
 5472TIP3   OH238050   2.842   0.688   8.667  0.1952 -0.2558 -0.3167
 5472TIP3    H138051   2.920   0.686   8.722  1.6998 -2.3967 -2.2932
 5472TIP3    H238052   2.807   0.599   8.673 -2.5032  0.7898  0.9312
 5473TIP3   OH238053   1.455   4.223   0.974 -0.1597 -0.8275 -0.0197
 5473TIP3    H138054   1.500   4.307   0.977 -0.9872 -0.4036  1.2306
 5473TIP3    H238055   1.525   4.159   0.964  0.4653  0.0047 -1.3171
 5474TIP3   OH238056   1.461   2.636   0.797 -0.2260 -0.8664  0.0147
 5474TIP3    H138057   1.382   2.584   0.785 -0.5887 -0.6957  1.4779
 5474TIP3    H238058   1.432   2.727   0.789  0.3811 -0.8200 -2.3929
 5475TIP3   OH238059   4.761   4.508   1.529 -0.4266 -0.1845 -0.1461
 5475TIP3    H138060   4.777   4.481   1.439  1.0881  3.7590 -1.3030
 5475TIP3    H238061   4.828   4.463   1.580  0.8161 -0.0294 -1.5747
 5476TIP3   OH238062   6.247   3.213   2.088  0.3080  0.1044 -0.1000
 5476TIP3    H138063   6.289   3.134   2.053  0.2847 -0.1676  0.4641
 5476TIP3    H238064   6.280   3.219   2.178 -0.9369 -0.1851  0.4037
 5477TIP3   OH238065   1.090   4.953   6.778  0.0918 -0.2875  0.7079
 5477TIP3    H138066   1.100   4.980   6.686  0.0755  0.3407  0.8874
 5477TIP3    H238067   1.144   4.875   6.785  2.7814  1.4719  0.9601
 5478TIP3   OH238068   3.454   1.269   8.399  0.0457  0.0529 -0.0066
 5478TIP3    H138069   3.484   1.197   8.455  1.3180 -0.0247 -0.7459
 5478TIP3    H238070   3.457   1.233   8.310 -2.3245  0.0471 -0.1251
 5479TIP3   OH238071   3.011   1.285   7.382  0.0062  0.2583 -0.1751
 5479TIP3    H138072   2.935   1.270   7.326 -0.8376  1.2463  0.6717
 5479TIP3    H238073   2.980   1.263   7.470  1.3652 -1.4750 -0.0635
 5480TIP3   OH238074   4.266   1.453   0.859 -0.3514 -0.0031  0.4608
 5480TIP3    H138075   4.345   1.432   0.809 -3.0253 -2.4720 -3.2088
 5480TIP3    H238076   4.271   1.397   0.936  1.0160 -0.7905 -0.1726
 5481TIP3   OH238077   1.511   4.583   7.984 -0.4558 -0.0007 -0.0042
 5481TIP3    H138078   1.480   4.661   8.030  0.4191 -0.2509  1.0530
 5481TIP3    H238079   1.579   4.547   8.041 -1.1558 -1.8024 -0.2338
 5482TIP3   OH238080   5.709   6.523   8.771  0.3618 -0.0972 -0.1127
 5482TIP3    H138081   5.745   6.491   8.854  0.7358 -1.1846 -0.6760
 5482TIP3    H238082   5.757   6.474   8.704  0.7804  1.4744 -1.0132
 5483TIP3   OH238083   3.267   2.969   7.686  0.3135  0.3225 -0.0568
 5483TIP3    H138084   3.246   3.027   7.759  0.5513  0.4660 -0.1013
 5483TIP3    H238085   3.282   2.884   7.726  2.9158  0.9099  0.3823
 5484TIP3   OH238086   6.483   2.077   7.854 -0.2512  0.4783 -0.3434
 5484TIP3    H138087   6.462   2.014   7.785  0.8322 -0.2156 -0.0548
 5484TIP3    H238088   6.405   2.133   7.859 -1.0898 -0.5934 -0.8652
 5485TIP3   OH238089   1.686   4.127   0.474  0.4523 -0.3981  0.0042
 5485TIP3    H138090   1.701   4.219   0.452 -0.7292 -0.0706  0.5397
 5485TIP3    H238091   1.607   4.103   0.426  1.2735 -1.4358 -0.9014
 5486TIP3   OH238092   4.417   2.680   8.183  0.2485  0.0941 -0.3920
 5486TIP3    H138093   4.377   2.734   8.251  0.4371 -0.8280  0.4818
 5486TIP3    H238094   4.348   2.667   8.118 -0.3823 -0.1733  0.3187
 5487TIP3   OH238095   2.862   3.354   8.658  0.0144  0.7941  0.0912
 5487TIP3    H138096   2.859   3.448   8.673  1.0697  0.8960 -0.2676
 5487TIP3    H238097   2.934   3.323   8.713  0.4075  0.3718 -0.6421
 5488TIP3   OH238098   3.241   6.194   7.141  0.5915 -0.5259 -0.0311
 5488TIP3    H138099   3.236   6.173   7.048 -1.4147  1.9689 -0.5842
 5488TIP3    H238100   3.160   6.241   7.160  1.8496  0.8472  2.4968
 5489TIP3   OH238101   1.376   4.809   0.409 -0.1933  0.1329  0.4495
 5489TIP3    H138102   1.371   4.762   0.326  1.0556  2.2703 -0.9445
 5489TIP3    H238103   1.302   4.870   0.407 -0.2516  0.0817  0.9820
 5490TIP3   OH238104   3.108   2.925   6.898  0.4505  0.2826  0.0845
 5490TIP3    H138105   3.065   2.887   6.820 -0.6991 -0.6992  1.1462
 5490TIP3    H238106   3.043   2.987   6.933 -0.5033 -1.7059  2.0909
 5491TIP3   OH238107   3.448   4.556   1.883  0.6223  0.2241 -0.2424
 5491TIP3    H138108   3.486   4.635   1.920  1.0778  0.8835 -2.0269
 5491TIP3    H238109   3.499   4.484   1.922 -0.9940  0.5777  2.8527
 5492TIP3   OH238110   1.757   1.138   7.052 -0.2040  0.2485 -0.5841
 5492TIP3    H138111   1.762   1.217   7.107 -1.3357 -0.2434  0.2771
 5492TIP3    H238112   1.708   1.166   6.974 -1.2534  0.2472  0.0545
 5493TIP3   OH238113   5.188   5.336   0.433  0.1194  0.2771  0.2206
 5493TIP3    H138114   5.256   5.315   0.369  1.4957  1.2768  1.2904
 5493TIP3    H238115   5.195   5.431   0.445 -3.1738  0.8415 -1.4756
 5494TIP3   OH238116   0.894   1.112   2.294 -0.2563 -0.2538 -0.0446
 5494TIP3    H138117   0.946   1.101   2.373 -0.0924  1.1031  0.0675
 5494TIP3    H238118   0.892   1.026   2.253  0.2306 -0.8081  1.0834
 5495TIP3   OH238119   1.618   4.336   1.257  0.2429 -0.4613 -0.0317
 5495TIP3    H138120   1.699   4.324   1.207 -0.3877  1.4059 -1.6235
 5495TIP3    H238121   1.648   4.354   1.346  1.6709  1.1925 -0.7849
 5496TIP3   OH238122   3.146   0.829   0.495  0.2210 -0.2807 -0.4547
 5496TIP3    H138123   3.113   0.880   0.420  0.1268 -0.9326 -0.8611
 5496TIP3    H238124   3.192   0.755   0.455  2.3305  0.6673  0.0670
 5497TIP3   OH238125   4.403   4.937   0.679 -0.2919  0.1470  0.2346
 5497TIP3    H138126   4.381   4.855   0.723 -2.2597  0.3825 -0.1762
 5497TIP3    H238127   4.322   4.961   0.632  1.1989  0.6762 -2.2861
 5498TIP3   OH238128   0.610   3.370   0.644  1.0292  0.3578  0.3474
 5498TIP3    H138129   0.560   3.339   0.720  0.1563  2.0655  0.5185
 5498TIP3    H238130   0.676   3.302   0.630 -0.2011 -1.1019  1.2280
 5499TIP3   OH238131   3.514   4.254   7.144  0.0250 -0.4921  0.2191
 5499TIP3    H138132   3.555   4.283   7.062 -0.8242  1.9497  0.5694
 5499TIP3    H238133   3.422   4.240   7.121  0.4675 -3.6941 -0.0458
 5500TIP3   OH238134   5.267   4.920   1.142 -0.2451  0.6742 -0.5114
 5500TIP3    H138135   5.322   4.997   1.125  1.3544 -0.2779  0.0546
 5500TIP3    H238136   5.261   4.917   1.238 -1.4461  0.8421 -0.5710
 5501TIP3   OH238137   0.559   0.394   0.743 -0.3197 -0.6793 -0.2973
 5501TIP3    H138138   0.571   0.308   0.702  1.1567 -1.6450  1.9591
 5501TIP3    H238139   0.567   0.377   0.837  1.3504  2.1020  0.1812
 5502TIP3   OH238140   0.115   4.205   8.298 -0.3901 -0.1159 -0.5960
 5502TIP3    H138141   0.120   4.300   8.311 -1.6222  0.0622 -1.3125
 5502TIP3    H238142   0.054   4.194   8.226 -2.8980 -1.5672  1.5794
 5503TIP3   OH238143   6.222   5.664   8.315 -0.0186  0.1154  0.6629
 5503TIP3    H138144   6.199   5.737   8.372 -1.1377  0.0274  0.3557
 5503TIP3    H238145   6.219   5.587   8.371  0.3682  0.2043  0.8087
 5504TIP3   OH238146   5.387   0.346   0.623  0.6696  0.6949  0.2214
 5504TIP3    H138147   5.295   0.339   0.598  0.9164 -1.8978 -0.2318
 5504TIP3    H238148   5.428   0.396   0.552 -0.2711  1.3788  0.1459
 5505TIP3   OH238149   3.054   1.835   1.658  0.3920  0.3076  0.0800
 5505TIP3    H138150   3.050   1.784   1.739 -0.1583 -1.2227 -0.8680
 5505TIP3    H238151   3.051   1.926   1.687 -0.4053 -0.2034  1.7450
 5506TIP3   OH238152   4.669   2.015   2.167 -0.8063 -0.0149 -0.3577
 5506TIP3    H138153   4.731   2.011   2.094  1.2987 -0.1586  1.3407
 5506TIP3    H238154   4.719   2.053   2.239 -2.4713 -0.8965  1.3564
 5507TIP3   OH238155   3.251   2.794   1.921  0.3041  0.1038 -0.2956
 5507TIP3    H138156   3.241   2.704   1.954  0.2582 -0.3840 -1.5995
 5507TIP3    H238157   3.164   2.818   1.890  0.5813  0.1424 -1.0625
 5508TIP3   OH238158   3.462   3.123   0.096  0.5612 -0.5770 -0.0205
 5508TIP3    H138159   3.419   3.205   0.123  0.5324 -0.2432 -1.0463
 5508TIP3    H238160   3.499   3.088   0.177 -1.0693 -0.5363  0.7877
 5509TIP3   OH238161   1.197   2.795   8.201  0.1314 -0.2077  0.0470
 5509TIP3    H138162   1.219   2.713   8.245  0.2479 -0.2497 -0.0869
 5509TIP3    H238163   1.264   2.857   8.231 -0.2144 -0.0467  0.4850
 5510TIP3   OH238164   0.268   3.314   7.798  0.0069 -0.2916 -0.2930
 5510TIP3    H138165   0.348   3.342   7.844  0.3198  0.1406 -1.0854
 5510TIP3    H238166   0.197   3.358   7.844  0.2414 -0.4912  0.2698
 5511TIP3   OH238167   3.593   2.957   0.898 -0.3064 -0.8808 -0.1699
 5511TIP3    H138168   3.498   2.968   0.889  0.0451  1.4301 -2.0438
 5511TIP3    H238169   3.613   2.878   0.848 -0.9284  0.3832 -2.5393
 5512TIP3   OH238170   4.716   5.165   2.233  0.1117  0.0157 -0.1926
 5512TIP3    H138171   4.718   5.097   2.299  0.4094 -0.6694 -0.8897
 5512TIP3    H238172   4.745   5.122   2.153  0.4966  1.0023 -0.6076
 5513TIP3   OH238173   5.902   4.742   7.435 -0.0590  0.1168 -0.7511
 5513TIP3    H138174   5.973   4.695   7.479  0.2089  0.6334 -0.6278
 5513TIP3    H238175   5.823   4.698   7.465  0.0248  1.2176  1.2725
 5514TIP3   OH238176   0.271   6.322   1.616 -0.4026  0.2445  0.2219
 5514TIP3    H138177   0.195   6.377   1.635  0.1257  0.6052  1.3785
 5514TIP3    H238178   0.343   6.384   1.602 -0.6295 -0.0062 -2.6288
 5515TIP3   OH238179   2.709   2.480   7.808  0.3562 -0.6439 -0.2297
 5515TIP3    H138180   2.687   2.573   7.815  0.0521 -0.7905  0.9808
 5515TIP3    H238181   2.791   2.470   7.856  1.4640 -0.6764 -2.0296
 5516TIP3   OH238182   6.027   0.782   0.423 -0.1822  0.6503 -0.3317
 5516TIP3    H138183   6.080   0.798   0.501  1.9002 -1.6451 -1.1511
 5516TIP3    H238184   6.047   0.856   0.365 -0.2519  1.3634  0.5320
 5517TIP3   OH238185   6.826   1.187   7.521 -0.3679  0.3770  0.3530
 5517TIP3    H138186   6.903   1.236   7.491  0.3352 -1.3245 -0.7839
 5517TIP3    H238187   6.852   1.095   7.512 -2.0706 -0.2216  1.2506
 5518TIP3   OH238188   1.357   1.337   6.895  0.4581  0.2227 -0.9644
 5518TIP3    H138189   1.410   1.270   6.937  0.2559  0.9659  0.5189
 5518TIP3    H238190   1.354   1.410   6.957 -0.3607  1.1232 -2.0000
 5519TIP3   OH238191   5.004   3.681   7.919  0.1213 -0.0354  0.1524
 5519TIP3    H138192   4.936   3.623   7.953 -0.3483  1.1537  1.3011
 5519TIP3    H238193   4.959   3.761   7.896  1.2426  1.2081  2.0187
 5520TIP3   OH238194   4.782   3.492   7.807  0.1295  0.1778 -0.2416
 5520TIP3    H138195   4.832   3.564   7.769  0.3859 -0.6241 -1.4703
 5520TIP3    H238196   4.783   3.424   7.740 -2.9197  0.2392 -0.4577
 5521TIP3   OH238197   2.178   6.422   0.595  0.4238 -0.3156  0.5654
 5521TIP3    H138198   2.101   6.374   0.624 -0.0433  1.0281  1.6247
 5521TIP3    H238199   2.144   6.492   0.540  0.5519  1.8152  2.9910
 5522TIP3   OH238200   4.112   6.542   0.538  0.0373 -0.1096  0.1553
 5522TIP3    H138201   4.180   6.558   0.603 -0.5721  0.6601  0.6245
 5522TIP3    H238202   4.145   6.469   0.485 -0.5382 -2.5647  2.9124
 5523TIP3   OH238203   3.067   6.825   8.464 -0.2379 -0.4789 -0.6144
 5523TIP3    H138204   3.115   6.851   8.386  0.8315 -1.2012 -0.2370
 5523TIP3    H238205   3.113   6.746   8.495 -1.4879 -1.0211 -0.0449
 5524TIP3   OH238206   4.173   3.495   0.373  0.1565  0.0561 -0.2355
 5524TIP3    H138207   4.152   3.582   0.408  0.7928 -0.7212  2.2572
 5524TIP3    H238208   4.256   3.472   0.414  0.0378 -1.7056 -0.8938
 5525TIP3   OH238209   0.389   1.850   6.574  0.3798  0.1297 -0.3649
 5525TIP3    H138210   0.298   1.879   6.565  0.6524  0.5407 -2.2502
 5525TIP3    H238211   0.439   1.931   6.582  0.4638 -0.1220  2.9450
 5526TIP3   OH238212   3.491   6.551   0.885  0.4441  0.1415 -0.4920
 5526TIP3    H138213   3.445   6.577   0.805  0.6659  0.0732 -0.6420
 5526TIP3    H238214   3.459   6.612   0.952  1.1231  0.9466 -0.8932
 5527TIP3   OH238215   1.596   4.422   0.580 -0.6983  0.5600  0.0496
 5527TIP3    H138216   1.505   4.432   0.608 -0.7417 -0.2885  0.2273
 5527TIP3    H238217   1.593   4.430   0.485 -0.7810  1.7497  0.1280
 5528TIP3   OH238218   2.466   6.724   1.064 -0.4220  0.1408 -0.3187
 5528TIP3    H138219   2.528   6.737   0.992 -1.8307  1.1177 -1.4053
 5528TIP3    H238220   2.470   6.631   1.083  0.4137 -0.0298 -1.2681
 5529TIP3   OH238221   5.585   5.428   0.956  0.1466  0.5101  0.5834
 5529TIP3    H138222   5.565   5.465   0.869  0.5796 -0.4177  0.0726
 5529TIP3    H238223   5.620   5.502   1.005 -0.6133  1.1831  0.1512
 5530TIP3   OH238224   1.685   2.046   0.529  0.1952  0.2539  0.3550
 5530TIP3    H138225   1.755   2.107   0.552 -0.3101  0.9988 -0.0234
 5530TIP3    H238226   1.730   1.971   0.491  0.8704  0.1001  1.4062
 5531TIP3   OH238227   4.524   2.147   1.998 -0.2044 -0.6366 -0.0971
 5531TIP3    H138228   4.533   2.064   2.044 -1.7815 -1.0283 -0.4195
 5531TIP3    H238229   4.600   2.198   2.024  0.0808 -1.6766  1.1818
 5532TIP3   OH238230   0.477   0.893   7.821  0.4655  0.2552  0.2812
 5532TIP3    H138231   0.483   0.921   7.913 -0.3308  0.1518  0.3673
 5532TIP3    H238232   0.396   0.842   7.817 -0.3169  1.5386 -0.8135
 5533TIP3   OH238233   4.752   6.451   0.453  0.3999 -0.3815 -0.8239
 5533TIP3    H138234   4.735   6.382   0.517  1.1604  0.7934  0.6929
 5533TIP3    H238235   4.842   6.477   0.469 -0.3078  1.9908 -0.3208
 5534TIP3   OH238236   4.569   0.067   8.190  0.2787 -0.2890 -0.1292
 5534TIP3    H138237   4.621   0.057   8.109  0.1541  0.3469 -0.2875
 5534TIP3    H238238   4.482   0.092   8.160 -0.1585 -1.4432  0.1357
 5535TIP3   OH238239   3.945   3.485   7.454  0.2219 -0.2485  0.1140
 5535TIP3    H138240   3.877   3.524   7.509  2.0858  0.9982  1.6724
 5535TIP3    H238241   3.971   3.406   7.501  1.8753  0.8596  1.1573
 5536TIP3   OH238242   4.704   3.439   2.627  0.4792 -0.1619  0.0431
 5536TIP3    H138243   4.672   3.373   2.567  1.9555  0.8756 -1.9939
 5536TIP3    H238244   4.629   3.498   2.640 -0.0668 -0.7953 -0.1905
 5537TIP3   OH238245   5.029   4.546   7.617  0.1048 -0.6342  0.2798
 5537TIP3    H138246   5.009   4.622   7.673  0.9533  0.5894 -1.0076
 5537TIP3    H238247   5.087   4.581   7.550 -1.7783 -1.7441 -2.0833
 5538TIP3   OH238248   1.322   2.892   1.529 -0.2618 -0.1810 -0.0684
 5538TIP3    H138249   1.323   2.897   1.625 -1.5170 -1.9530  0.0887
 5538TIP3    H238250   1.335   2.982   1.500  0.9349  0.2903  1.7439
 5539TIP3   OH238251   4.623   6.702   8.598 -0.1719  0.3563  0.0462
 5539TIP3    H138252   4.693   6.731   8.657 -0.6341  0.5878  0.4818
 5539TIP3    H238253   4.657   6.621   8.559  0.5549  0.7351 -0.1422
 5540TIP3   OH238254   1.215   1.484   1.851  0.2190 -0.2255 -0.0332
 5540TIP3    H138255   1.183   1.445   1.932  0.7186 -0.4868  0.0414
 5540TIP3    H238256   1.205   1.578   1.864  2.6558 -0.0863  1.3662
 5541TIP3   OH238257   0.052   2.746   0.285  0.3741  0.2122  0.9640
 5541TIP3    H138258  -0.030   2.786   0.311 -0.2114  0.4792 -1.1648
 5541TIP3    H238259   0.027   2.679   0.221  1.8454  0.7995 -0.2838
 5542TIP3   OH238260   2.408   4.469   7.989 -0.1404  0.1870  0.6582
 5542TIP3    H138261   2.472   4.409   8.026  1.4760  0.5996 -1.3452
 5542TIP3    H238262   2.407   4.543   8.050  0.8159 -0.1062  1.0443
 5543TIP3   OH238263   0.087   6.609   0.732  0.7136  0.3649  0.7651
 5543TIP3    H138264   0.019   6.582   0.669  0.4334 -2.5349  2.1607
 5543TIP3    H238265   0.161   6.636   0.677 -0.0357 -0.6460 -0.8033
 5544TIP3   OH238266   5.664   3.997   7.682 -0.9426  0.1314  0.3774
 5544TIP3    H138267   5.696   4.087   7.685  0.0548 -0.1947  0.0778
 5544TIP3    H238268   5.580   4.003   7.637 -0.4828  0.8152 -0.4224
 5545TIP3   OH238269   3.731   4.194   6.977 -0.0384  0.1069 -0.4758
 5545TIP3    H138270   3.717   4.136   6.901 -0.7430 -0.3771  0.0107
 5545TIP3    H238271   3.815   4.166   7.014 -0.1908 -0.3470 -0.4720
 5546TIP3   OH238272   0.406   0.905   8.432  0.1968  0.2340 -1.2763
 5546TIP3    H138273   0.417   0.811   8.439  3.7334  0.6064  0.6218
 5546TIP3    H238274   0.395   0.921   8.338 -0.1672 -2.0044 -1.6675
 5547TIP3   OH238275   6.617   5.100   0.021 -0.1264 -0.1212  0.1110
 5547TIP3    H138276   6.555   5.032  -0.006 -1.1589  0.6911  0.3556
 5547TIP3    H238277   6.633   5.083   0.114 -2.7194  1.6435  0.9931
 5548TIP3   OH238278   4.947   5.506   7.536 -0.0246 -0.7559 -0.1121
 5548TIP3    H138279   4.909   5.448   7.602  1.7440  0.2838  1.9620
 5548TIP3    H238280   4.911   5.593   7.557  0.6144 -0.3999 -0.4551
 5549TIP3   OH238281   2.594   4.569   1.162  0.3850  0.2579  0.1216
 5549TIP3    H138282   2.580   4.500   1.096 -2.0338  0.9303 -0.1663
 5549TIP3    H238283   2.614   4.647   1.110  0.5255  0.3348  0.2932
 5550TIP3   OH238284   3.535   3.552   1.470 -0.1959  0.6663  0.0268
 5550TIP3    H138285   3.576   3.487   1.528  0.2908  1.6324  0.7898
 5550TIP3    H238286   3.507   3.622   1.528 -0.1250  1.4446 -0.8549
 5551TIP3   OH238287   6.155   4.024   2.127 -0.2964 -0.0525 -0.1075
 5551TIP3    H138288   6.126   4.094   2.069 -0.6062 -0.4254 -0.4063
 5551TIP3    H238289   6.200   4.069   2.199  0.4129  0.3923 -0.8164
 5552TIP3   OH238290   5.770   5.842   8.147 -0.5511 -0.2154 -0.1105
 5552TIP3    H138291   5.761   5.842   8.051 -2.7307 -1.3147  0.0260
 5552TIP3    H238292   5.842   5.902   8.164 -0.5855  0.5930 -2.4154
 5553TIP3   OH238293   5.115   2.524   0.170  0.0371 -0.2322 -0.2538
 5553TIP3    H138294   5.154   2.583   0.105  0.3850 -2.3095 -2.0780
 5553TIP3    H238295   5.190   2.487   0.217 -0.1415  0.3366  0.4882
 5554TIP3   OH238296   6.110   5.382   6.794  0.6171  0.1266  0.2517
 5554TIP3    H138297   6.031   5.342   6.829  0.1831  0.4496 -0.3370
 5554TIP3    H238298   6.130   5.331   6.715  2.4496 -1.5775  1.7238
 5555TIP3   OH238299   5.645   0.258   8.316 -0.5297 -0.0425  0.0352
 5555TIP3    H138300   5.703   0.185   8.339 -0.2761  0.4688  1.0592
 5555TIP3    H238301   5.589   0.223   8.246  0.3978 -0.8269 -0.3307
 5556TIP3   OH238302   0.892   6.254   0.112  0.0675 -0.2449 -0.0691
 5556TIP3    H138303   0.922   6.256   0.203  0.5809 -1.2940 -0.1967
 5556TIP3    H238304   0.935   6.329   0.071  0.6136 -0.3264  0.3355
 5557TIP3   OH238305   2.401   1.847   7.595  0.0932  0.4881  0.4276
 5557TIP3    H138306   2.481   1.825   7.548 -0.9850 -3.3537  0.0632
 5557TIP3    H238307   2.349   1.897   7.531  0.7320 -0.1971 -0.6594
 5558TIP3   OH238308   6.372   3.721   0.916  0.1422  0.1237  0.0674
 5558TIP3    H138309   6.344   3.731   0.825 -1.0897  0.3431  0.4526
 5558TIP3    H238310   6.336   3.637   0.943 -1.4977  1.0687  1.0190
 5559TIP3   OH238311   1.445   5.839   0.755 -0.0029 -0.2762  0.2280
 5559TIP3    H138312   1.422   5.925   0.790 -2.2679 -1.0766  0.8677
 5559TIP3    H238313   1.433   5.847   0.661 -0.8922 -0.0603  0.3520
 5560TIP3   OH238314   0.653   3.700   8.351  0.2844  0.2469  0.2571
 5560TIP3    H138315   0.649   3.634   8.420 -1.0793 -1.0804 -1.0080
 5560TIP3    H238316   0.584   3.762   8.373 -0.1790 -0.1992  0.0760
 5561TIP3   OH238317   4.643   3.962   8.299 -0.0765  0.0212  0.1385
 5561TIP3    H138318   4.587   3.909   8.241  1.3749 -1.3211 -0.0883
 5561TIP3    H238319   4.650   3.911   8.379 -0.9640  1.2479  1.0425
 5562TIP3   OH238320   0.901   2.677   1.527 -0.0874 -0.3822  0.2939
 5562TIP3    H138321   0.854   2.759   1.516  1.0968  0.1951 -0.5800
 5562TIP3    H238322   0.953   2.690   1.607 -0.1105 -0.3884  0.3101
 5563TIP3   OH238323   0.095   6.082   1.653 -0.2745  0.0805 -0.3155
 5563TIP3    H138324   0.165   6.138   1.618  0.5992 -0.9688 -0.2776
 5563TIP3    H238325   0.095   6.099   1.747  1.4575 -1.5406  0.0240
 5564TIP3   OH238326   1.545   4.336   1.562 -0.8185  0.4932  0.4210
 5564TIP3    H138327   1.636   4.367   1.554 -0.0270 -1.8317 -0.4177
 5564TIP3    H238328   1.551   4.260   1.620 -1.9964 -0.5096 -0.7297
 5565TIP3   OH238329   4.600   3.058   7.812 -0.1994  0.2670 -0.2620
 5565TIP3    H138330   4.553   3.032   7.891 -0.8552  0.1360 -0.6879
 5565TIP3    H238331   4.573   3.149   7.797  2.1365  1.3214  1.2651
 5566TIP3   OH238332   2.357   6.012   8.577  0.2466 -0.6364 -0.1365
 5566TIP3    H138333   2.361   6.107   8.567 -3.7106 -0.2745  0.1632
 5566TIP3    H238334   2.411   5.993   8.653  1.3316  1.3230 -0.3822
 5567TIP3   OH238335   5.556   4.714   0.398 -0.4296 -0.7551  0.4153
 5567TIP3    H138336   5.554   4.810   0.400 -0.7100 -0.7081 -0.9101
 5567TIP3    H238337   5.622   4.690   0.462  0.5706  0.3815 -0.1430
 5568TIP3   OH238338   3.733   5.622   0.869  0.0202  0.3527 -0.4296
 5568TIP3    H138339   3.759   5.639   0.778 -1.1036 -0.0838 -0.8583
 5568TIP3    H238340   3.760   5.531   0.884  0.9873  0.6994 -0.0257
 5569TIP3   OH238341   3.790   6.604   0.375 -0.2105 -0.2044 -0.0698
 5569TIP3    H138342   3.876   6.587   0.339  1.1514  1.4725  2.1105
 5569TIP3    H238343   3.740   6.641   0.303  0.1710 -3.0060 -1.9113
 5570TIP3   OH238344   1.565   1.135   6.813  0.3843 -0.4724  0.0640
 5570TIP3    H138345   1.508   1.070   6.773  1.4256  0.0466 -2.4188
 5570TIP3    H238346   1.545   1.217   6.768  3.1320 -0.3155 -1.0782
 5571TIP3   OH238347   6.187   3.963   0.074 -0.2013  0.2202  0.0325
 5571TIP3    H138348   6.126   4.021   0.029 -0.2849 -0.9390 -1.4136
 5571TIP3    H238349   6.273   3.990   0.044 -0.1536  0.3622  0.2922
 5572TIP3   OH238350   0.109   6.125   8.490 -0.2497  0.2036  0.3570
 5572TIP3    H138351   0.131   6.212   8.525  0.8738 -0.4985  1.4299
 5572TIP3    H238352   0.013   6.127   8.481 -0.1346  2.1217 -1.2245
 5573TIP3   OH238353   3.137   0.960   7.260  0.2561 -0.4429 -0.5457
 5573TIP3    H138354   3.160   0.986   7.350  1.7702 -0.3164 -0.9409
 5573TIP3    H238355   3.048   0.993   7.248  0.9002  1.7272  0.0997
 5574TIP3   OH238356   0.615   5.700   8.688 -0.3962  0.0410 -0.3524
 5574TIP3    H138357   0.657   5.623   8.649  0.4354 -1.0781  2.5399
 5574TIP3    H238358   0.567   5.667   8.763  0.7576  2.3963  1.5683
 5575TIP3   OH238359   5.997   6.015   7.407  0.1303  0.3574 -0.3555
 5575TIP3    H138360   5.912   6.058   7.399 -0.8221 -0.9162  1.9415
 5575TIP3    H238361   5.998   5.981   7.497  3.8417  1.9503  0.3823
 5576TIP3   OH238362   1.527   4.530   0.050 -0.1304  0.1856 -0.8962
 5576TIP3    H138363   1.463   4.469   0.014  0.6266 -2.6915  2.1378
 5576TIP3    H238364   1.596   4.474   0.085  2.8118  3.0470 -1.6968
 5577TIP3   OH238365   0.282   0.665   1.794 -0.6194 -0.1395 -0.8794
 5577TIP3    H138366   0.323   0.751   1.805  1.3749 -1.0973 -0.5089
 5577TIP3    H238367   0.226   0.655   1.871  0.4237  0.1344 -0.0782
 5578TIP3   OH238368   1.949   3.440   7.346 -0.2628  0.2541  0.5116
 5578TIP3    H138369   1.903   3.491   7.279  1.1818  1.2770  0.2431
 5578TIP3    H238370   1.898   3.360   7.354  0.9077 -1.2137 -3.8435
 5579TIP3   OH238371   0.286   6.009   0.221  0.0801  0.3906 -0.3922
 5579TIP3    H138372   0.253   6.082   0.169 -1.7995  0.3675  0.6599
 5579TIP3    H238373   0.347   6.050   0.283  0.3179  0.8153 -0.9027
 5580TIP3   OH238374   0.064   5.044   6.397 -0.5076  0.3444 -0.9299
 5580TIP3    H138375   0.040   4.967   6.449  0.4900 -0.4353 -1.5929
 5580TIP3    H238376   0.159   5.040   6.391 -0.3003  2.4448  0.2384
 5581TIP3   OH238377   2.217   1.005   8.225 -0.4242  0.1064 -0.5754
 5581TIP3    H138378   2.243   0.925   8.271 -1.2531  0.4980  0.6004
 5581TIP3    H238379   2.192   1.066   8.294 -0.5345  1.1362 -1.4943
 5582TIP3   OH238380   3.241   6.312   1.036  0.4594 -0.0427  0.1142
 5582TIP3    H138381   3.284   6.285   0.954 -0.6932 -0.4568 -0.3708
 5582TIP3    H238382   3.158   6.350   1.009  0.0648 -0.1697  1.0917
 5583TIP3   OH238383   2.510   3.385   8.533 -0.4884 -0.5799 -0.6130
 5583TIP3    H138384   2.533   3.299   8.498 -0.9463  0.2691 -3.2395
 5583TIP3    H238385   2.513   3.444   8.457 -0.9037  1.6029  0.9451
 5584TIP3   OH238386   5.084   1.768   7.094 -0.3252  0.2928 -0.2211
 5584TIP3    H138387   5.112   1.829   7.162 -0.4122  0.3661 -0.2500
 5584TIP3    H238388   4.990   1.757   7.108 -0.6781  1.5994 -1.3279
 5585TIP3   OH238389   2.772   5.121   0.249  0.1668  0.0056  0.3286
 5585TIP3    H138390   2.761   5.181   0.175 -0.7902 -0.0103  0.4527
 5585TIP3    H238391   2.762   5.175   0.327  0.5567 -0.0893  0.4472
 5586TIP3   OH238392   4.544   6.090   7.224 -0.4533  0.0792 -0.5505
 5586TIP3    H138393   4.459   6.088   7.269 -0.8724 -0.2484 -1.3397
 5586TIP3    H238394   4.542   6.169   7.172 -0.0678  0.3279 -0.1923
 5587TIP3   OH238395   1.451   0.876   1.504 -0.0512  0.6433  0.3584
 5587TIP3    H138396   1.458   0.897   1.597  1.3069  1.5436  0.0951
 5587TIP3    H238397   1.407   0.951   1.465  0.5890  0.8978  0.0990
 5588TIP3   OH238398   6.033   6.709   6.657  0.2187 -0.0960  0.2452
 5588TIP3    H138399   5.988   6.627   6.638 -0.9987  0.7356 -0.6054
 5588TIP3    H238400   6.045   6.750   6.571 -0.0407  1.0441  0.7370
 5589TIP3   OH238401   4.426   2.405   8.560  0.4117  0.4372 -0.0190
 5589TIP3    H138402   4.391   2.429   8.646 -1.3526  0.3418 -0.6818
 5589TIP3    H238403   4.447   2.312   8.567 -0.0718  0.3440  0.2051
 5590TIP3   OH238404   3.377   1.773   1.778  0.0612 -0.1159  0.2980
 5590TIP3    H138405   3.322   1.707   1.736  0.3191  0.5426 -1.1462
 5590TIP3    H238406   3.315   1.825   1.831 -0.5338 -0.0524 -0.4424
 5591TIP3   OH238407   6.751   2.149   7.926 -0.4393  0.4833  0.2323
 5591TIP3    H138408   6.662   2.116   7.925  0.4873 -2.3532 -1.3914
 5591TIP3    H238409   6.794   2.102   7.998  0.5674 -0.9933 -1.2536
 5592TIP3   OH238410   3.668   1.687   2.223  0.1761 -0.1289  0.7425
 5592TIP3    H138411   3.668   1.748   2.296 -0.0193  0.4120  0.2950
 5592TIP3    H238412   3.641   1.739   2.147  1.2222 -0.4581  0.1050
 5593TIP3   OH238413   1.015   5.709   7.229 -0.6278 -0.8504 -0.6006
 5593TIP3    H138414   0.951   5.653   7.185 -0.1293 -3.0867  1.3140
 5593TIP3    H238415   1.098   5.691   7.186 -0.7922  0.0017 -1.3048
 5594TIP3   OH238416   1.725   3.426   6.705 -0.2271  0.3907  0.0954
 5594TIP3    H138417   1.632   3.437   6.689 -0.1314  0.2050 -0.6154
 5594TIP3    H238418   1.762   3.513   6.696 -0.3891  0.5517  0.8557
 5595TIP3   OH238419   4.750   2.282   8.293 -0.3171 -0.3310  0.4185
 5595TIP3    H138420   4.758   2.196   8.252 -0.8061 -1.1862  2.0211
 5595TIP3    H238421   4.670   2.319   8.256 -0.8638 -1.1698  0.7306
 5596TIP3   OH238422   3.785   2.210   0.076  0.3935  0.1638  0.0929
 5596TIP3    H138423   3.806   2.202  -0.017  0.8384  1.0968  0.1070
 5596TIP3    H238424   3.728   2.287   0.081  0.6265  0.3037  0.6333
 5597TIP3   OH238425   2.526   3.746   1.303  0.1242  0.1398  0.2443
 5597TIP3    H138426   2.619   3.768   1.315  0.1502 -0.6597  1.7562
 5597TIP3    H238427   2.521   3.653   1.324 -1.2551  0.4903  1.7182
 5598TIP3   OH238428   0.012   1.101   6.715  0.2183 -0.3578 -0.1861
 5598TIP3    H138429  -0.055   1.167   6.698 -0.4420 -1.3378 -1.5526
 5598TIP3    H238430   0.093   1.138   6.679  0.0510  0.0868 -0.1052
 5599TIP3   OH238431   5.751   0.052   1.180 -0.3852 -0.2428 -0.3438
 5599TIP3    H138432   5.775   0.142   1.203  0.3768 -0.3390 -0.7370
 5599TIP3    H238433   5.727   0.057   1.087  1.3748 -0.7437 -0.8664
 5600TIP3   OH238434   1.736   2.132   1.618 -0.4276  0.4966  0.6848
 5600TIP3    H138435   1.812   2.090   1.577 -0.4072  1.0033  0.1908
 5600TIP3    H238436   1.670   2.063   1.623  0.1050  0.0191  1.2354
 5601TIP3   OH238437   3.642   6.039   7.042  0.0379 -0.8244  0.4442
 5601TIP3    H138438   3.664   6.049   6.949 -1.1822 -3.1392 -0.1670
 5601TIP3    H238439   3.578   6.108   7.059 -0.1042 -0.6825 -0.5730
 5602TIP3   OH238440   2.864   4.123   1.565 -0.0846 -0.0681  0.2702
 5602TIP3    H138441   2.850   4.080   1.480  1.1851 -1.6495  0.8043
 5602TIP3    H238442   2.936   4.073   1.605  0.3330  1.5598  1.6579
 5603TIP3   OH238443   0.010   1.322   7.055  0.3751 -0.2134  0.3022
 5603TIP3    H138444   0.030   1.378   7.131 -0.1848 -0.7841  0.8836
 5603TIP3    H238445  -0.048   1.376   7.001 -1.1055 -0.6158  1.4302
 5604TIP3   OH238446   4.692   1.070   8.291 -0.0165 -1.1102  0.4189
 5604TIP3    H138447   4.676   0.990   8.342 -2.0066 -0.4047  1.0067
 5604TIP3    H238448   4.606   1.094   8.257  0.4174  1.1043  0.7314
 5605TIP3   OH238449   5.389   4.413   0.742 -0.3854 -0.0687  0.5414
 5605TIP3    H138450   5.479   4.417   0.710 -0.9887 -1.8787 -1.7011
 5605TIP3    H238451   5.349   4.495   0.713  0.2011  0.1475  0.3436
 5606TIP3   OH238452   6.087   2.342   0.175  0.6388  0.5785 -0.0466
 5606TIP3    H138453   6.080   2.281   0.102 -1.4631  0.5015  0.1337
 5606TIP3    H238454   6.061   2.291   0.252 -0.0524  1.3708  0.2745
 5607TIP3   OH238455   0.872   6.539   0.235 -0.2294  0.2428 -0.1305
 5607TIP3    H138456   0.944   6.597   0.208  0.6124 -0.2093  1.0683
 5607TIP3    H238457   0.910   6.484   0.303 -2.1404  1.0157  1.6324
 5608TIP3   OH238458   0.742   4.615   6.634  0.0637  0.4552 -0.0391
 5608TIP3    H138459   0.680   4.685   6.649 -0.0413  0.3896 -0.1633
 5608TIP3    H238460   0.806   4.651   6.573  0.1436  0.5211  0.0850
 5609TIP3   OH238461   1.612   1.399   0.863 -0.0685  0.6815 -0.0381
 5609TIP3    H138462   1.627   1.444   0.946 -0.0111  0.5429  0.0261
 5609TIP3    H238463   1.675   1.439   0.803  0.6816 -0.0099  0.2710
 5610TIP3   OH238464   2.241   1.043   0.460  0.1882 -0.0801 -0.6213
 5610TIP3    H138465   2.327   1.029   0.501  0.4484  1.2284 -0.6555
 5610TIP3    H238466   2.237   1.138   0.446 -0.0931 -0.3765 -3.1497
 5611TIP3   OH238467   4.340   2.328   1.135 -0.5831 -0.1594 -0.3165
 5611TIP3    H138468   4.350   2.423   1.126 -0.5733 -0.1309  0.0007
 5611TIP3    H238469   4.413   2.291   1.085 -0.4089  0.0045 -0.1818
 5612TIP3   OH238470   1.453   6.026   2.234  0.1262  0.7641  0.2800
 5612TIP3    H138471   1.368   5.982   2.241  0.1982  0.4367 -0.8122
 5612TIP3    H238472   1.432   6.119   2.245 -0.3770  0.6848  0.0157
 5613TIP3   OH238473   1.436   1.080   1.004 -0.0711  0.1187 -0.0226
 5613TIP3    H138474   1.462   1.124   1.084  0.8745  0.9211 -0.7550
 5613TIP3    H238475   1.518   1.062   0.958 -0.3973 -2.4119  0.2183
 5614TIP3   OH238476   5.249   0.868   1.667 -1.0050 -0.3274 -0.3050
 5614TIP3    H138477   5.178   0.816   1.629 -0.0311 -1.0087 -1.2505
 5614TIP3    H238478   5.206   0.947   1.699 -2.4021 -1.3682  0.4846
 5615TIP3   OH238479   2.574   4.921   6.911  0.5250 -0.1760  0.5236
 5615TIP3    H138480   2.542   4.887   6.995 -0.6292  0.8151  0.5177
 5615TIP3    H238481   2.586   4.844   6.857 -1.4532 -0.6723  0.6981
 5616TIP3   OH238482   2.875   1.805   1.456 -0.4169  0.1407  0.4458
 5616TIP3    H138483   2.880   1.711   1.440  0.1536  0.2715 -0.2130
 5616TIP3    H238484   2.930   1.820   1.533 -0.7020 -0.0942  0.6955
 5617TIP3   OH238485   2.673   1.667   0.806  0.2063 -0.4749  0.3589
 5617TIP3    H138486   2.700   1.706   0.723  0.7860 -3.1535 -0.8182
 5617TIP3    H238487   2.752   1.625   0.840  0.0306  0.7763  2.4411
 5618TIP3   OH238488   4.304   0.908   6.394  0.0261 -0.2340 -0.2742
 5618TIP3    H138489   4.257   0.961   6.330 -0.9603 -1.8477 -0.9466
 5618TIP3    H238490   4.248   0.832   6.408  1.6491 -1.4117  0.1685
 5619TIP3   OH238491   1.213   5.487   8.209 -0.1492  0.5293 -0.5744
 5619TIP3    H138492   1.150   5.438   8.155  0.7775  1.1091 -2.2400
 5619TIP3    H238493   1.221   5.572   8.166  0.7614  0.9567  0.3990
 5620TIP3   OH238494   5.133   1.097   0.031  0.0506 -0.5739  0.5663
 5620TIP3    H138495   5.102   1.187   0.020 -0.7806 -0.8441  0.6622
 5620TIP3    H238496   5.187   1.081  -0.046  0.7579  0.2267  0.8742
 5621TIP3   OH238497   2.969   4.731   6.338  0.0599  0.2093 -0.5575
 5621TIP3    H138498   2.990   4.794   6.269 -1.3083  0.2351 -0.9770
 5621TIP3    H238499   2.935   4.785   6.410 -1.0039 -0.0140 -0.8736
 5622TIP3   OH238500   3.453   0.830   1.416  0.2402 -0.0986  0.2543
 5622TIP3    H138501   3.458   0.895   1.486  0.2573 -0.0972  0.2517
 5622TIP3    H238502   3.511   0.760   1.444  0.4452  0.0170  0.1186
 5623TIP3   OH238503   5.525   4.063   2.610  0.8480 -0.1473 -0.1554
 5623TIP3    H138504   5.505   4.092   2.699  1.6812  1.4111 -0.4309
 5623TIP3    H238505   5.449   4.012   2.583 -1.2273  2.6092  0.0441
 5624TIP3   OH238506   6.767   5.261   8.210 -0.1841 -0.3352  0.2187
 5624TIP3    H138507   6.708   5.251   8.135 -1.1041 -0.5222  0.9359
 5624TIP3    H238508   6.843   5.307   8.175 -1.0146  0.4626 -0.6248
 5625TIP3   OH238509   6.209   6.324   1.431 -0.0190  0.1553  0.0624
 5625TIP3    H138510   6.172   6.337   1.518  0.1538 -0.1331  0.1754
 5625TIP3    H238511   6.227   6.413   1.400  0.5639  0.2232  0.5940
 5626TIP3   OH238512   5.517   4.296   8.585  0.1914 -0.1215  0.4531
 5626TIP3    H138513   5.509   4.388   8.610  0.3510 -0.3218  1.2646
 5626TIP3    H238514   5.497   4.294   8.491  1.2250  0.8876  0.1994
 5627TIP3   OH238515   6.149   4.884   8.217 -0.4095 -0.2489 -0.7929
 5627TIP3    H138516   6.177   4.802   8.175 -2.2386 -1.2979 -0.0640
 5627TIP3    H238517   6.080   4.918   8.160 -0.6297  0.0560 -0.3475
 5628TIP3   OH238518   5.874   0.904   2.177  0.4397 -0.5790  0.0712
 5628TIP3    H138519   5.931   0.832   2.151 -0.2774 -1.1702  0.0941
 5628TIP3    H238520   5.928   0.958   2.234  1.2161 -0.6871 -0.5524
 5629TIP3   OH238521   1.351   6.272   8.547 -0.3101  0.6491  0.3570
 5629TIP3    H138522   1.334   6.200   8.607 -1.1526  0.6436  0.1262
 5629TIP3    H238523   1.375   6.345   8.603  1.9654 -0.1523  0.5293
 5630TIP3   OH238524   5.788   0.681   6.930 -0.4246  0.2269 -0.8162
 5630TIP3    H138525   5.768   0.596   6.970 -0.5512 -0.1164 -1.5879
 5630TIP3    H238526   5.784   0.664   6.836  1.4132  0.6252 -1.0047
 5631TIP3   OH238527   1.199   0.370   8.530  0.2714 -0.3745  0.3011
 5631TIP3    H138528   1.182   0.334   8.616  1.2469  0.4384  0.8531
 5631TIP3    H238529   1.248   0.302   8.484  1.0486 -0.2390  0.9118
 5632TIP3   OH238530   0.762   2.646   7.011  0.0546 -0.1445 -0.0577
 5632TIP3    H138531   0.740   2.690   7.093 -2.2833  0.7360 -1.0671
 5632TIP3    H238532   0.775   2.554   7.036 -1.0172  0.0340  1.2649
 5633TIP3   OH238533   5.788   4.388   7.017 -0.3653  0.1058  0.6753
 5633TIP3    H138534   5.861   4.372   6.958 -0.4224  0.6253  0.4600
 5633TIP3    H238535   5.825   4.444   7.086 -0.2993 -0.4886  1.1363
 5634TIP3   OH238536   5.734   0.755   0.954 -0.6492  0.0497 -0.3356
 5634TIP3    H138537   5.670   0.768   1.024  0.5762 -2.0609  1.2685
 5634TIP3    H238538   5.810   0.807   0.980  0.2201 -1.5937  0.5394
 5635TIP3   OH238539   5.158   2.906   2.586 -0.0519 -0.5262  0.0064
 5635TIP3    H138540   5.096   2.834   2.594 -0.5078 -0.0779  0.5598
 5635TIP3    H238541   5.233   2.868   2.540 -0.2900 -1.3506  0.2813
 5636TIP3   OH238542   3.701   1.676   0.836 -0.1662  0.1267 -0.5254
 5636TIP3    H138543   3.640   1.731   0.788 -0.2170  0.3320 -0.2248
 5636TIP3    H238544   3.783   1.726   0.836 -0.8324  1.3412  1.8335
 5637TIP3   OH238545   2.278   0.196   0.321 -0.2701  0.0632  0.0826
 5637TIP3    H138546   2.328   0.271   0.354  0.5923  0.0532 -1.1191
 5637TIP3    H238547   2.187   0.223   0.326 -0.2238 -0.0569  2.7197
 5638TIP3   OH238548   1.074   5.817   6.580 -0.3539 -0.0349  0.0098
 5638TIP3    H138549   1.049   5.725   6.587  0.2495 -0.2589 -0.6410
 5638TIP3    H238550   1.170   5.815   6.576 -0.2401  0.7256  1.5115
 5639TIP3   OH238551   5.133   5.768   1.312 -0.9139  0.1370 -0.7139
 5639TIP3    H138552   5.182   5.788   1.392 -0.1044  1.6875 -1.5470
 5639TIP3    H238553   5.053   5.819   1.319 -0.5747  0.7350 -1.1478
 5640TIP3   OH238554   4.868   2.054   8.744  0.4195 -0.2388  0.2051
 5640TIP3    H138555   4.824   2.094   8.670 -0.4773 -1.0538  0.2852
 5640TIP3    H238556   4.890   2.127   8.802 -1.6781  0.1255  0.6199
 5641TIP3   OH238557   5.932   1.349   1.554  0.2211  0.0345  0.1109
 5641TIP3    H138558   5.837   1.355   1.548  0.1836 -1.0187 -0.6092
 5641TIP3    H238559   5.954   1.266   1.513  1.4541  0.2168  0.3423
 5642TIP3   OH238560   6.658   1.383   0.738  0.2417  0.2813 -0.1577
 5642TIP3    H138561   6.727   1.396   0.802 -1.0676 -3.3212  2.3356
 5642TIP3    H238562   6.577   1.401   0.787 -0.7335 -0.8789 -1.2727
 5643TIP3   OH238563   0.459   1.232   1.373  0.6867  0.2603  0.3452
 5643TIP3    H138564   0.548   1.263   1.390  1.1045 -0.8065  0.1866
 5643TIP3    H238565   0.460   1.140   1.400 -0.0678 -0.0626 -0.6588
 5644TIP3   OH238566   0.884   0.616   7.612  0.0590 -0.0563 -0.6044
 5644TIP3    H138567   0.945   0.663   7.555  0.1872  1.0940  0.4405
 5644TIP3    H238568   0.915   0.635   7.700 -2.3455  1.3731  0.0076
 5645TIP3   OH238569   5.187   6.667   0.322  0.6209  0.2907  0.0249
 5645TIP3    H138570   5.267   6.719   0.313  0.3596  0.6815 -0.0424
 5645TIP3    H238571   5.121   6.729   0.352  0.0385  0.2364 -1.0915
 5646TIP3   OH238572   1.371   5.937   7.592  0.1235 -0.9171 -0.2504
 5646TIP3    H138573   1.454   5.948   7.547  0.2360  0.0393  0.1621
 5646TIP3    H238574   1.320   6.015   7.569 -1.1532 -2.0656 -1.4979
 5647TIP3   OH238575   5.217   0.696   0.066 -0.4401  0.7625  0.4351
 5647TIP3    H138576   5.150   0.628   0.062 -0.6238  0.7953  2.2965
 5647TIP3    H238577   5.181   0.768   0.013 -0.7179 -0.1553 -0.6579
 5648TIP3   OH238578   4.980   1.303   1.938  0.2512 -0.4065 -0.0668
 5648TIP3    H138579   5.040   1.376   1.955 -1.3233  0.7620  0.6631
 5648TIP3    H238580   4.982   1.293   1.843  1.2059 -0.0508 -0.1003
 5649TIP3   OH238581   2.655   4.653   2.115  0.2315  0.4925  0.0482
 5649TIP3    H138582   2.580   4.625   2.062  0.9798 -0.8378 -0.3483
 5649TIP3    H238583   2.617   4.673   2.201 -0.9049  2.0377 -0.7503
 5650TIP3   OH238584   3.671   2.017   2.288  0.7125  0.1628 -0.6001
 5650TIP3    H138585   3.681   2.106   2.253 -1.6024  1.2905  1.2976
 5650TIP3    H238586   3.677   2.028   2.383  0.2301 -1.6958 -0.3164
 5651TIP3   OH238587   6.786   5.981   0.829 -0.5218  0.0182  0.1341
 5651TIP3    H138588   6.727   5.933   0.887  1.3775 -0.8490  1.4794
 5651TIP3    H238589   6.781   5.936   0.745 -1.3651 -0.3526  0.3790
 5652TIP3   OH238590   6.228   0.401   1.039  0.6285  0.1634  0.2916
 5652TIP3    H138591   6.276   0.369   1.115 -0.8397 -0.1051  1.1458
 5652TIP3    H238592   6.250   0.495   1.034  1.7084 -0.0790  0.2614
 5653TIP3   OH238593   0.864   6.420   1.050 -0.2219 -0.4900  0.3143
 5653TIP3    H138594   0.795   6.484   1.068 -0.1753  0.1958 -1.6984
 5653TIP3    H238595   0.831   6.370   0.975  0.5776 -1.5671  0.6589
 5654TIP3   OH238596   3.820   1.265   2.590 -0.3618 -0.0701 -0.1940
 5654TIP3    H138597   3.746   1.286   2.533 -0.7235 -0.6318  0.0630
 5654TIP3    H238598   3.858   1.186   2.552  0.5648  0.6164 -0.7501
 5655TIP3   OH238599   3.368   0.106   7.720  0.0318  0.2919 -0.2515
 5655TIP3    H138600   3.275   0.113   7.743  0.2993  1.4222  0.6238
 5655TIP3    H238601   3.414   0.126   7.802  1.0427  0.6771 -0.8911
 5656TIP3   OH238602   5.955   4.989   7.794  0.2444 -0.2603 -0.4293
 5656TIP3    H138603   5.863   4.963   7.786 -0.4477  1.7763  0.3118
 5656TIP3    H238604   5.971   4.988   7.889  0.5635  0.7108 -0.4662
 5657TIP3   OH238605   3.743   2.945   8.002  0.3574 -0.4330 -0.2212
 5657TIP3    H138606   3.710   2.856   8.016  1.9061 -1.3862 -2.1536
 5657TIP3    H238607   3.809   2.956   8.070 -0.3550 -0.4443  0.4935
 5658TIP3   OH238608   1.627   0.395   6.329  0.2505 -0.9053  0.1504
 5658TIP3    H138609   1.552   0.386   6.269 -0.0950  1.6023  0.0750
 5658TIP3    H238610   1.587   0.409   6.415  0.5655  0.4493  0.1103
 5659TIP3   OH238611   0.908   5.681   8.036  0.2708  0.1559 -0.2280
 5659TIP3    H138612   0.887   5.731   7.957  1.2695  0.0152 -0.5991
 5659TIP3    H238613   0.839   5.704   8.098 -0.8280 -0.1196 -1.3006
 5660TIP3   OH238614   1.908   1.780   1.161 -0.1552  0.5496  0.2902
 5660TIP3    H138615   1.821   1.819   1.172  0.2194  1.2435  0.8294
 5660TIP3    H238616   1.962   1.852   1.128  0.0675 -0.0496 -0.7007
 5661TIP3   OH238617   3.724   2.572   2.560 -0.3358 -0.4684  0.1317
 5661TIP3    H138618   3.669   2.521   2.619  0.0106  1.0544  1.8883
 5661TIP3    H238619   3.779   2.508   2.516 -1.2603 -1.7414  0.7753
 5662TIP3   OH238620   3.960   1.382   8.328 -0.3067  0.3203 -0.2035
 5662TIP3    H138621   3.967   1.324   8.252 -1.2325  0.7016 -0.5919
 5662TIP3    H238622   3.944   1.469   8.291 -0.6410  0.5322  0.4164
 5663TIP3   OH238623   6.044   6.845   1.244  0.8686  0.2916 -0.8667
 5663TIP3    H138624   5.954   6.815   1.257  1.3965 -0.7584  0.7000
 5663TIP3    H238625   6.040   6.901   1.167 -1.4990  1.8863  0.2890
 5664TIP3   OH238626   1.604   4.473   8.245 -0.1616  0.0962  0.6469
 5664TIP3    H138627   1.622   4.379   8.237 -0.8051 -0.0057  0.2977
 5664TIP3    H238628   1.665   4.504   8.312 -0.1876 -0.6448  1.0211
 5665TIP3   OH238629   0.120   3.632   8.763  0.5252 -0.3064 -0.0057
 5665TIP3    H138630   0.151   3.543   8.746  0.4378 -0.6379  1.5168
 5665TIP3    H238631   0.183   3.688   8.717  1.8262 -1.0756  0.7906
 5666TIP3   OH238632   4.723   2.751   1.751 -0.0806 -0.1936 -0.1380
 5666TIP3    H138633   4.783   2.795   1.810 -1.5722  0.7665  0.7391
 5666TIP3    H238634   4.752   2.660   1.750  2.7259  0.6101 -1.5558
 5667TIP3   OH238635   5.910   5.329   0.298 -0.0090 -0.2252  0.2290
 5667TIP3    H138636   5.868   5.249   0.266 -0.1193 -0.7345  1.5827
 5667TIP3    H238637   5.998   5.302   0.322 -0.1130  0.0151  0.8879
 5668TIP3   OH238638   3.643   5.785   6.832  0.3713 -0.0193 -0.0535
 5668TIP3    H138639   3.554   5.799   6.799  0.3549 -2.3578 -1.1652
 5668TIP3    H238640   3.631   5.761   6.924 -0.2992 -1.7196 -0.5604
 5669TIP3   OH238641   0.914   3.547   8.595 -0.0335  0.2141 -0.4624
 5669TIP3    H138642   0.972   3.496   8.538  0.2311  1.0888 -1.0084
 5669TIP3    H238643   0.879   3.484   8.657  1.0248 -0.4489 -0.5171
 5670TIP3   OH238644   4.753   3.196   1.466 -0.5873 -0.0244  0.1131
 5670TIP3    H138645   4.712   3.109   1.470  1.2697 -1.0773 -1.9826
 5670TIP3    H238646   4.838   3.184   1.509 -0.1489  0.6575 -0.5548
 5671TIP3   OH238647   5.816   4.199   8.390  0.2174  0.3681  0.1143
 5671TIP3    H138648   5.734   4.150   8.395  0.3116  0.0633 -1.0572
 5671TIP3    H238649   5.830   4.231   8.479 -1.1943  0.4737  0.3233
 5672TIP3   OH238650   0.923   1.394   7.333  0.2468  0.1909 -0.8242
 5672TIP3    H138651   0.848   1.335   7.344  0.3852 -0.1203 -1.5290
 5672TIP3    H238652   0.915   1.455   7.406 -1.6870  1.2303 -1.8045
 5673TIP3   OH238653   4.592   4.727   1.669 -0.3406 -0.3671 -0.3250
 5673TIP3    H138654   4.660   4.757   1.730 -1.5979 -0.4184  1.1415
 5673TIP3    H238655   4.612   4.773   1.587  0.3120  1.1168  0.6303
 5674TIP3   OH238656   0.311   4.000   2.345 -0.7159 -0.0835 -0.2598
 5674TIP3    H138657   0.310   3.911   2.310  0.6482 -0.7450  1.2640
 5674TIP3    H238658   0.266   3.993   2.429  0.0371  0.5266  0.1973
 5675TIP3   OH238659   1.264   2.691   1.010  0.1918 -0.0855  0.0479
 5675TIP3    H138660   1.253   2.637   0.932  1.2064 -0.5066  0.1705
 5675TIP3    H238661   1.267   2.781   0.977 -0.4875 -0.1782 -0.2714
 5676TIP3   OH238662   1.295   0.687   7.698  0.3414  0.1595  0.0559
 5676TIP3    H138663   1.337   0.615   7.745  1.4894  1.8134  1.7144
 5676TIP3    H238664   1.233   0.725   7.761  1.3029  1.9046  0.0353
 5677TIP3   OH238665   1.342   0.072   2.409 -0.1057  0.7182  0.2423
 5677TIP3    H138666   1.364  -0.020   2.418  1.9789  1.0538 -0.7965
 5677TIP3    H238667   1.248   0.072   2.389 -0.3413 -1.0873  1.1521
 5678TIP3   OH238668   0.477   2.685   1.364 -0.3558 -0.1945 -0.0700
 5678TIP3    H138669   0.496   2.662   1.454  1.0953 -0.3125 -0.3918
 5678TIP3    H238670   0.460   2.780   1.366  0.5618 -0.0314  0.1901
 5679TIP3   OH238671   4.802   4.394   8.310 -0.0961  0.2508  0.2366
 5679TIP3    H138672   4.806   4.345   8.227  1.1004  0.1622  0.3332
 5679TIP3    H238673   4.883   4.371   8.355  0.5605  2.4271  0.2385
 5680TIP3   OH238674   6.060   1.036   7.049 -0.2742  0.0601 -0.0042
 5680TIP3    H138675   6.030   1.048   7.139 -1.7189 -0.9027 -0.3134
 5680TIP3    H238676   6.056   0.941   7.035  1.4832  0.0421 -0.5972
 5681TIP3   OH238677   4.475   4.003   1.769 -0.3977  0.1540  0.6732
 5681TIP3    H138678   4.535   3.944   1.723 -0.5411  0.7503 -0.3051
 5681TIP3    H238679   4.464   3.963   1.855  2.0374  0.4345  1.1854
 5682TIP3   OH238680   2.806   3.426   7.785  0.1084 -0.5433  0.7824
 5682TIP3    H138681   2.777   3.507   7.744  0.5777 -0.6782  0.1623
 5682TIP3    H238682   2.783   3.358   7.722  1.8857 -0.6360  0.1702
 5683TIP3   OH238683   4.563   5.802   1.035  0.3991  0.2867  0.4081
 5683TIP3    H138684   4.580   5.756   1.117 -0.2615 -1.2281 -0.2609
 5683TIP3    H238685   4.484   5.760   0.999  0.2030  1.4592 -0.6054
 5684TIP3   OH238686   0.732   1.244   1.119 -0.6207  0.1818  0.2359
 5684TIP3    H138687   0.750   1.219   1.028 -0.3115 -0.5705  0.4958
 5684TIP3    H238688   0.741   1.162   1.169  0.0818  0.7376  1.0656
 5685TIP3   OH238689   1.126   3.186   8.219  0.1951  0.3839 -0.0198
 5685TIP3    H138690   1.043   3.234   8.215  0.5882  0.9930 -1.7300
 5685TIP3    H238691   1.101   3.096   8.238 -0.7669  0.7478  0.5285
 5686TIP3   OH238692   2.035   0.121   1.131  0.5736 -0.2972  0.1776
 5686TIP3    H138693   2.127   0.143   1.140  0.5958 -0.2456 -0.1537
 5686TIP3    H238694   1.989   0.204   1.144  0.5974 -0.2499 -0.0311
 5687TIP3   OH238695   5.437   4.473   2.869 -1.0775  0.3354 -0.1055
 5687TIP3    H138696   5.431   4.504   2.779 -1.3575  1.8072  0.3993
 5687TIP3    H238697   5.447   4.552   2.921 -0.3442 -0.5345  1.1170
 5688TIP3   OH238698   2.914   4.407   1.554  0.2779 -0.1466  0.0909
 5688TIP3    H138699   2.913   4.313   1.533 -0.4242 -0.5096  1.6191
 5688TIP3    H238700   2.857   4.446   1.487 -0.1141 -0.9306 -0.0537
 5689TIP3   OH238701   6.370   5.875   7.321  0.0403 -0.5360  0.8467
 5689TIP3    H138702   6.373   5.842   7.410 -2.6020  0.5005  1.4111
 5689TIP3    H238703   6.288   5.841   7.285 -0.5069  1.5776 -0.0739
 5690TIP3   OH238704   6.164   0.792   0.666 -0.1307 -0.1819  0.3549
 5690TIP3    H138705   6.243   0.750   0.698 -0.9148 -1.3636  0.8094
 5690TIP3    H238706   6.146   0.862   0.729 -0.5856 -1.2445  1.4363
 5691TIP3   OH238707   3.025   5.353   0.015  0.1912 -0.0487  0.3053
 5691TIP3    H138708   3.015   5.396   0.100 -0.7576  0.0258  0.1642
 5691TIP3    H238709   2.942   5.369  -0.030  0.8490  0.3257 -0.8224
 5692TIP3   OH238710   1.174   5.857   1.006 -0.1433  0.9396 -0.1040
 5692TIP3    H138711   1.155   5.797   1.078 -0.1605  1.1898  0.1025
 5692TIP3    H238712   1.212   5.802   0.938 -0.6544  0.6004 -0.1241
 5693TIP3   OH238713   4.638   5.409   7.402  0.0511  0.3598  0.0903
 5693TIP3    H138714   4.561   5.418   7.347  0.5615 -3.6022 -1.6199
 5693TIP3    H238715   4.606   5.423   7.491 -2.5317 -0.4055 -0.6223
 5694TIP3   OH238716   2.248   2.465   8.706  0.5078 -0.7184  0.1301
 5694TIP3    H138717   2.245   2.481   8.612 -0.1557 -3.5928 -0.4337
 5694TIP3    H238718   2.341   2.449   8.725  0.4860 -1.2989 -0.2580
 5695TIP3   OH238719   3.731   3.839   0.361  0.2215 -0.2390  0.7757
 5695TIP3    H138720   3.800   3.895   0.327  1.3042 -1.2891  1.1675
 5695TIP3    H238721   3.651   3.890   0.352  1.1520  1.3124  1.0183
 5696TIP3   OH238722   1.274   0.051   0.956 -0.1249  0.1179 -0.3382
 5696TIP3    H138723   1.340  -0.010   0.989  1.2004  1.1542 -0.9558
 5696TIP3    H238724   1.266   0.117   1.025  0.2112  0.5100 -0.6674
 5697TIP3   OH238725   2.996   5.835   1.633  0.0729 -0.4045 -0.4881
 5697TIP3    H138726   3.034   5.841   1.721 -0.8855  0.6743 -0.1207
 5697TIP3    H238727   3.023   5.917   1.591 -0.4345 -0.3973 -0.7981
 5698TIP3   OH238728   1.752   1.799   7.788 -0.6127  0.2501 -0.4691
 5698TIP3    H138729   1.761   1.883   7.743 -1.1522  0.2183 -0.6465
 5698TIP3    H238730   1.711   1.821   7.872  1.3575  0.4446  0.5035
 5699TIP3   OH238731   2.865   5.606   8.744  0.2641 -0.0349 -0.6338
 5699TIP3    H138732   2.894   5.593   8.834  0.6297  1.0535 -0.5811
 5699TIP3    H238733   2.771   5.623   8.751  0.0696 -1.0752 -0.5738
 5700TIP3   OH238734   5.307   2.888   5.904 -0.1942  0.0294 -0.3379
 5700TIP3    H138735   5.257   2.968   5.920  0.2402  0.4528 -1.0744
 5700TIP3    H238736   5.339   2.863   5.991  0.4520  1.1801 -0.2323
 5701TIP3   OH238737   5.984   0.533   0.650 -0.1459 -0.2899 -0.1472
 5701TIP3    H138738   6.011   0.619   0.681 -0.9979 -0.0447 -0.0624
 5701TIP3    H238739   5.910   0.551   0.591 -1.0856 -1.0392  0.7731
 5702TIP3   OH238740   5.384   5.260   7.412 -0.1417  0.6158 -0.3952
 5702TIP3    H138741   5.387   5.268   7.317  0.2896 -0.5680 -0.5011
 5702TIP3    H238742   5.363   5.168   7.428  2.3007  0.1650  0.6453
 5703TIP3   OH238743   0.072   4.002   7.800  0.0656  0.1450 -0.0394
 5703TIP3    H138744   0.115   4.049   7.729 -1.3640 -0.4087 -1.3368
 5703TIP3    H238745   0.032   4.071   7.853 -0.5393  0.5117 -0.9337
 5704TIP3   OH238746   6.014   0.168   1.044 -0.0308 -0.0469  0.2091
 5704TIP3    H138747   6.059   0.246   1.014  0.1827 -0.5002 -0.6906
 5704TIP3    H238748   5.929   0.199   1.075 -0.5137  0.4049 -1.4368
 5705TIP3   OH238749   5.941   5.674   8.640 -0.4756  0.3912  0.0241
 5705TIP3    H138750   5.847   5.679   8.652 -0.3715  1.8104  0.4910
 5705TIP3    H238751   5.954   5.603   8.577 -1.8752  0.4354 -0.3404
 5706TIP3   OH238752   0.437   6.704   1.212 -0.4132  0.0093  0.3076
 5706TIP3    H138753   0.379   6.757   1.157 -1.1900 -0.3313  0.7803
 5706TIP3    H238754   0.393   6.701   1.297  0.6002  0.2511  0.8672
 5707TIP3   OH238755   2.825   6.536   8.214 -0.2370  0.2535  0.3876
 5707TIP3    H138756   2.841   6.511   8.305  1.4146  0.3518  0.1550
 5707TIP3    H238757   2.737   6.505   8.196 -0.2764 -0.5315  1.7656
 5708TIP3   OH238758   1.402   2.808   8.782  0.4329 -0.1532 -0.0848
 5708TIP3    H138759   1.482   2.791   8.833  2.8928  0.0820 -3.5088
 5708TIP3    H238760   1.391   2.903   8.787  0.7036 -0.1223 -0.0234
 5709TIP3   OH238761   4.092   5.566   0.793 -0.1262  0.3067 -0.0467
 5709TIP3    H138762   4.074   5.593   0.703 -0.7349 -1.3884 -0.4763
 5709TIP3    H238763   4.187   5.558   0.797 -0.0627  0.8176 -0.4012
 5710TIP3   OH238764   3.423   5.974   7.740 -0.6529 -0.5664  0.3205
 5710TIP3    H138765   3.397   5.896   7.692 -1.9985  0.4481 -0.6579
 5710TIP3    H238766   3.345   6.001   7.788 -0.2403  0.2309  0.5685
 5711TIP3   OH238767   0.359   4.679   0.081  0.3234 -0.3263  0.0677
 5711TIP3    H138768   0.292   4.636   0.134  0.2397 -0.4832 -0.1626
 5711TIP3    H238769   0.344   4.772   0.094  2.9125 -0.2462  3.6558
 5712TIP3   OH238770   4.736   0.987   1.469 -0.0370  0.2142  0.0667
 5712TIP3    H138771   4.750   0.962   1.561 -0.9043 -0.8358 -0.0682
 5712TIP3    H238772   4.689   1.070   1.474 -1.8948 -0.8165  0.6351
 5713TIP3   OH238773   5.981   3.973   8.600 -0.1537 -0.1334 -0.5724
 5713TIP3    H138774   5.954   4.062   8.621  0.0103 -0.1706 -0.1944
 5713TIP3    H238775   5.899   3.925   8.590 -0.2710  0.2750 -1.7663
 5714TIP3   OH238776   3.602   0.373   2.041  0.8589 -0.0978  0.4854
 5714TIP3    H138777   3.515   0.378   2.081 -0.2365  0.3027 -1.7811
 5714TIP3    H238778   3.619   0.461   2.010  1.9374 -0.2656  0.5548
 5715TIP3   OH238779   0.397   5.932   7.582  0.1814  0.2563  0.6087
 5715TIP3    H138780   0.472   5.918   7.524  0.0982  1.0541  0.3013
 5715TIP3    H238781   0.345   5.852   7.574 -0.2541  0.6813 -1.0549
 5716TIP3   OH238782   0.020   0.707   7.181 -0.3176 -0.0580 -0.2292
 5716TIP3    H138783   0.055   0.768   7.115  0.1707 -0.1404 -0.0483
 5716TIP3    H238784  -0.054   0.665   7.138 -0.3058  0.2502 -0.5552
 5717TIP3   OH238785   0.568   1.660   6.593  0.5202 -0.2781 -0.2109
 5717TIP3    H138786   0.534   1.573   6.574 -1.4263 -0.1250  2.0971
 5717TIP3    H238787   0.494   1.719   6.580  1.0533  0.6635  0.7974
 5718TIP3   OH238788   4.286   4.883   7.977  0.0411 -0.3756 -0.4684
 5718TIP3    H138789   4.348   4.819   7.943 -0.1027 -1.2587  0.8866
 5718TIP3    H238790   4.200   4.847   7.956 -0.0917  0.9209 -2.4828
 5719TIP3   OH238791   2.526   1.565   6.253 -0.0238  0.4594  0.5477
 5719TIP3    H138792   2.481   1.646   6.277 -0.2385  0.2157  0.9770
 5719TIP3    H238793   2.568   1.535   6.334  2.2256  1.4888 -0.1611
 5720TIP3   OH238794   6.294   4.244   7.397  0.0584  0.2937 -0.1143
 5720TIP3    H138795   6.323   4.231   7.307  0.3565  1.3137 -0.1819
 5720TIP3    H238796   6.300   4.339   7.411  1.6972  0.0219  1.5305
 5721TIP3   OH238797   4.546   5.188   0.572 -0.2237 -0.5959 -0.0967
 5721TIP3    H138798   4.492   5.109   0.575  0.0571 -0.7698  0.4023
 5721TIP3    H238799   4.489   5.254   0.533 -0.7482 -0.8234  0.2696
 5722TIP3   OH238800   6.066   4.436   7.970  0.8710 -0.1892 -0.2395
 5722TIP3    H138801   5.975   4.407   7.979  0.1936  1.7583 -0.1586
 5722TIP3    H238802   6.107   4.370   7.915 -1.4203  0.3428 -2.8526
 5723TIP3   OH238803   2.374   2.916   6.700  0.0499 -0.0891  0.6179
 5723TIP3    H138804   2.335   2.991   6.745 -0.4188 -0.9623  1.7021
 5723TIP3    H238805   2.467   2.921   6.723  0.0160  0.1384  0.7140
 5724TIP3   OH238806   4.732   0.771   0.045 -0.0279  0.3883 -0.1011
 5724TIP3    H138807   4.724   0.780  -0.050  1.2687 -0.5589 -0.3227
 5724TIP3    H238808   4.678   0.695   0.067  1.0332 -0.4570 -0.3414
 5725TIP3   OH238809   2.777   0.469   6.799  0.7442 -0.3939 -0.0491
 5725TIP3    H138810   2.739   0.390   6.763 -0.2140  0.2774 -0.5442
 5725TIP3    H238811   2.825   0.509   6.726 -1.4907  1.1514 -0.7904
 5726TIP3   OH238812   2.733   3.379   1.674 -0.4960 -0.3095  0.7388
 5726TIP3    H138813   2.758   3.437   1.746  0.5362  0.3068 -0.0838
 5726TIP3    H238814   2.791   3.304   1.682  0.8514  0.5316 -0.4000
 5727TIP3   OH238815   2.485   3.409   7.063  0.1664  0.4493 -0.6109
 5727TIP3    H138816   2.394   3.379   7.072  0.3537  0.1859  0.6488
 5727TIP3    H238817   2.477   3.503   7.048 -0.3514  0.1764 -2.2613
 5728TIP3   OH238818   0.696   0.224   7.423 -0.1941  0.0424 -0.2820
 5728TIP3    H138819   0.786   0.216   7.393  0.3302 -1.2299  1.4393
 5728TIP3    H238820   0.696   0.181   7.509 -2.0323  1.6347  0.5873
 5729TIP3   OH238821   1.948   5.085   8.063  0.1896 -0.1978  0.5445
 5729TIP3    H138822   1.974   5.167   8.021  0.3738 -0.4667  0.1245
 5729TIP3    H238823   1.931   5.109   8.154  2.2527 -0.0554  0.9480
 5730TIP3   OH238824   1.386   2.674   7.142  0.5164 -0.6595 -0.5326
 5730TIP3    H138825   1.429   2.754   7.110  1.2780 -1.1337 -0.7211
 5730TIP3    H238826   1.296   2.682   7.112  0.4631  0.3546 -0.1451
 5731TIP3   OH238827   4.073   5.641   8.773  0.5108 -0.4446  1.0924
 5731TIP3    H138828   4.053   5.734   8.785 -0.7256 -0.6815  0.9314
 5731TIP3    H238829   4.167   5.635   8.791  0.8081  0.9970  0.2032
 5732TIP3   OH238830   4.067   0.602   8.808 -0.2711  0.1882 -0.2985
 5732TIP3    H138831   4.010   0.660   8.758  0.0390  0.6791 -0.0922
 5732TIP3    H238832   4.155   0.631   8.787 -0.1497  1.0222  1.2299
 5733TIP3   OH238833   1.619   2.845   0.208  0.0361  0.0216  0.2597
 5733TIP3    H138834   1.561   2.881   0.276  2.0501  1.8138  1.1336
 5733TIP3    H238835   1.706   2.879   0.230  0.9852 -0.3670 -2.5309
 5734TIP3   OH238836   1.873   3.753   7.810  0.1154 -0.1147 -0.9375
 5734TIP3    H138837   1.788   3.788   7.785  0.4197  0.1914 -1.5848
 5734TIP3    H238838   1.888   3.681   7.749  0.9636  0.7770 -1.8479
 5735TIP3   OH238839   3.074   5.502   7.242 -0.3518 -0.6366  0.1182
 5735TIP3    H138840   3.079   5.543   7.328  0.4096 -1.8132  0.6481
 5735TIP3    H238841   3.065   5.408   7.259 -2.8081 -0.6975 -1.0566
 5736TIP3   OH238842   2.209   5.471   7.734 -0.3516 -0.1862  0.5933
 5736TIP3    H138843   2.245   5.474   7.822 -0.6959  2.0871  0.6996
 5736TIP3    H238844   2.175   5.382   7.726  1.7737 -1.2059  1.8589
 5737TIP3   OH238845   3.674   0.021   1.208 -0.1119  1.0820  0.4951
 5737TIP3    H138846   3.754   0.043   1.257 -0.6781  0.6725  1.6415
 5737TIP3    H238847   3.686  -0.071   1.184 -0.4201  0.8910  1.0536
 5738TIP3   OH238848   0.033   1.519   7.794 -0.4633  0.4167 -0.6549
 5738TIP3    H138849  -0.050   1.566   7.796 -0.4185  0.4867 -0.4221
 5738TIP3    H238850   0.092   1.572   7.847 -0.7112 -0.4593  0.5452
 5739TIP3   OH238851   4.651   6.752   1.337  0.2460  0.3479 -0.4023
 5739TIP3    H138852   4.695   6.834   1.318  0.4611  0.3693  0.1619
 5739TIP3    H238853   4.563   6.778   1.365  0.0064  0.3287 -1.1243
 5740TIP3   OH238854   3.447   1.144   7.343 -0.3435  0.0574  0.0164
 5740TIP3    H138855   3.383   1.074   7.354 -0.1357 -0.3168 -1.0282
 5740TIP3    H238856   3.395   1.220   7.317 -0.3344 -0.3836 -1.3567
 5741TIP3   OH238857   5.718   6.138   6.289  0.2084  0.3211 -0.0079
 5741TIP3    H138858   5.638   6.116   6.337 -0.2421 -3.0675 -1.9882
 5741TIP3    H238859   5.688   6.183   6.211  0.1853 -0.8979 -0.7220
 5742TIP3   OH238860   5.005   6.237   7.713 -0.6282 -0.6434 -0.3678
 5742TIP3    H138861   5.091   6.271   7.687  0.0703  1.8952  4.1715
 5742TIP3    H238862   4.943   6.303   7.681 -0.5152 -0.7876 -0.8890
 5743TIP3   OH238863   1.602   3.492   1.082 -0.1797 -0.1251  0.1741
 5743TIP3    H138864   1.554   3.414   1.054  0.8986  0.4869 -4.1106
 5743TIP3    H238865   1.537   3.562   1.081 -0.5315 -0.4318  1.0562
 5744TIP3   OH238866   0.787   3.805   1.789 -0.0317 -0.1911  0.1220
 5744TIP3    H138867   0.747   3.780   1.872 -1.3610  1.3438 -0.0224
 5744TIP3    H238868   0.870   3.846   1.814  0.4012 -1.2895  0.5596
 5745TIP3   OH238869   4.164   5.072   7.722  0.8876  0.2141  0.5509
 5745TIP3    H138870   4.078   5.086   7.683  1.0218  0.4744  0.3494
 5745TIP3    H238871   4.155   5.101   7.813  1.2259  1.8724  0.0891
 5746TIP3   OH238872   2.129   3.638   1.995 -0.0513  0.3774  0.3978
 5746TIP3    H138873   2.120   3.690   2.075 -2.2624 -0.3995  0.7309
 5746TIP3    H238874   2.167   3.555   2.024 -2.4674 -0.5924  1.0515
 5747TIP3   OH238875   4.308   6.567   7.220  1.0290 -0.1072  0.0267
 5747TIP3    H138876   4.295   6.599   7.309  1.0825 -0.1686  0.0563
 5747TIP3    H238877   4.220   6.549   7.188  1.0161 -0.1820  0.1034
 5748TIP3   OH238878   3.695   3.447   2.008  0.3986 -0.8637 -0.3131
 5748TIP3    H138879   3.616   3.426   2.058  1.0025  0.4543  1.2987
 5748TIP3    H238880   3.765   3.401   2.054  0.9440  0.2542  0.0217
 5749TIP3   OH238881   5.263   1.558   7.307  0.4074 -0.2433  0.2229
 5749TIP3    H138882   5.265   1.492   7.238 -0.9792 -0.0755 -0.0148
 5749TIP3    H238883   5.180   1.604   7.294  1.2461  1.4309  0.4986
 5750TIP3   OH238884   4.908   5.717   7.729 -0.3767  0.2013  0.1424
 5750TIP3    H138885   4.827   5.748   7.770  0.3973  0.6885  1.3491
 5750TIP3    H238886   4.946   5.795   7.688 -1.3426 -0.3572 -1.9228
 5751TIP3   OH238887   5.937   3.583   0.548 -0.1979 -0.1039 -0.5925
 5751TIP3    H138888   6.027   3.564   0.522  0.0618  0.1273  0.1116
 5751TIP3    H238889   5.938   3.574   0.644 -1.1194 -0.9163 -0.6485
 5752TIP3   OH238890   2.179   5.322   8.226 -0.1395  0.1411 -0.6940
 5752TIP3    H138891   2.235   5.311   8.149  0.1091  1.2891 -0.6898
 5752TIP3    H238892   2.172   5.417   8.238  0.5250 -0.0044  1.2017
 5753TIP3   OH238893   6.852   6.264   2.567 -0.7787 -0.2009 -0.1796
 5753TIP3    H138894   6.891   6.347   2.592  0.3047 -0.8845  0.4695
 5753TIP3    H238895   6.767   6.288   2.528 -0.1459  1.2376 -0.7356
 5754TIP3   OH238896   5.879   1.341   6.662  0.2651  0.0924 -0.2632
 5754TIP3    H138897   5.902   1.396   6.587  2.8243 -1.1269 -0.4864
 5754TIP3    H238898   5.901   1.252   6.634  0.8860 -0.4418  1.7505
 5755TIP3   OH238899   3.389   4.121   7.900  0.3414  0.3377 -0.2226
 5755TIP3    H138900   3.403   4.152   7.811  2.6503 -1.5917 -0.6706
 5755TIP3    H238901   3.431   4.187   7.955 -0.0494  0.9578 -0.6640
 5756TIP3   OH238902   0.498   4.912   7.885  0.1117  0.2568 -0.1532
 5756TIP3    H138903   0.590   4.883   7.886  0.0425  0.0277  0.6044
 5756TIP3    H238904   0.450   4.836   7.852 -0.1352 -0.7933  2.3724
 5757TIP3   OH238905   6.602   6.226   0.966  0.6718 -0.3977 -0.3013
 5757TIP3    H138906   6.615   6.165   1.038 -0.3463 -0.8699 -0.4918
 5757TIP3    H238907   6.660   6.195   0.896  1.3547 -0.1789  0.1643
 5758TIP3   OH238908   4.112   4.965   8.622  0.7352 -0.4674  0.4585
 5758TIP3    H138909   4.199   4.962   8.583  0.1768 -0.8035 -0.8321
 5758TIP3    H238910   4.064   4.895   8.578 -0.6168  0.6750  0.0129
 5759TIP3   OH238911   4.428   0.295   1.057  0.4157 -0.0455 -0.3404
 5759TIP3    H138912   4.405   0.267   1.146 -1.3291 -1.3645 -1.1410
 5759TIP3    H238913   4.344   0.316   1.015  1.3123  1.9610 -1.2762
 5760TIP3   OH238914   1.981   3.918   6.973  0.2635 -0.2301  0.3753
 5760TIP3    H138915   2.052   3.949   7.030 -0.0675 -0.0637  0.7003
 5760TIP3    H238916   2.005   3.950   6.886 -0.1586  1.1078  0.7327
 5761TIP3   OH238917   0.997   5.059   1.793  0.2928  0.4456 -0.1337
 5761TIP3    H138918   1.048   5.013   1.860 -2.2388 -0.6516  1.1895
 5761TIP3    H238919   0.994   4.998   1.720 -0.1568 -0.0456  0.2832
 5762TIP3   OH238920   4.596   1.968   6.538  0.2399  0.3529 -0.4647
 5762TIP3    H138921   4.533   1.920   6.484  1.8486 -0.5256 -1.6435
 5762TIP3    H238922   4.546   2.041   6.573 -1.4581 -0.3523 -1.2845
 5763TIP3   OH238923   2.204   2.760   0.739 -0.6352  0.2162  0.2680
 5763TIP3    H138924   2.254   2.748   0.820 -0.1012 -2.3438 -0.3441
 5763TIP3    H238925   2.124   2.710   0.752 -0.7048  0.0609 -0.6460
 5764TIP3   OH238926   5.917   3.804   1.072 -0.1565 -0.0842 -0.4557
 5764TIP3    H138927   5.841   3.775   1.123 -0.0098 -0.2679 -0.3402
 5764TIP3    H238928   5.909   3.900   1.070  0.1968 -0.0284  0.4858
 5765TIP3   OH238929   0.126   0.785   8.132  0.3363  0.0049 -0.0161
 5765TIP3    H138930   0.195   0.849   8.149  0.2724  0.0599  0.0314
 5765TIP3    H238931   0.135   0.765   8.038 -0.0885  0.5998 -0.1873
 5766TIP3   OH238932   2.052   4.266   7.061 -0.4246  0.3407 -0.0192
 5766TIP3    H138933   2.062   4.357   7.089 -1.2446  0.9557 -1.5809
 5766TIP3    H238934   1.968   4.239   7.097 -0.0579  0.1005  0.6702
 5767TIP3   OH238935   2.615   0.025   8.445 -0.3842  0.3807  0.2383
 5767TIP3    H138936   2.549  -0.029   8.400 -0.9306  2.0519 -1.0519
 5767TIP3    H238937   2.593   0.018   8.537 -0.1741 -1.9172  0.1780
 5768TIP3   OH238938   3.916   5.089   1.006  0.0813  0.2517 -0.0785
 5768TIP3    H138939   4.007   5.062   0.992  0.4491  1.3396  0.0419
 5768TIP3    H238940   3.901   5.156   0.939 -0.4992  0.3503  0.1442
 5769TIP3   OH238941   3.446   0.447   1.052  0.3169 -0.4880 -0.1066
 5769TIP3    H138942   3.379   0.451   0.984  0.4795 -0.5980 -0.2741
 5769TIP3    H238943   3.450   0.354   1.077  1.4487 -0.7515 -1.1499
 5770TIP3   OH238944   0.443   6.688   0.117 -0.1379 -0.1607 -0.5283
 5770TIP3    H138945   0.358   6.664   0.153 -0.5882  4.4183  2.1674
 5770TIP3    H238946   0.507   6.643   0.173 -0.9109  2.2727  2.5439
 5771TIP3   OH238947   6.631   6.652   7.993 -0.0579 -0.1501 -0.6116
 5771TIP3    H138948   6.536   6.644   7.982 -0.1064  0.0759 -0.3767
 5771TIP3    H238949   6.664   6.666   7.905 -0.2891  0.1813 -0.6496
 5772TIP3   OH238950   3.657   3.988   1.916  0.4298 -0.2244  0.3266
 5772TIP3    H138951   3.711   3.930   1.969 -1.3279 -0.6523  1.7396
 5772TIP3    H238952   3.704   4.071   1.915  1.3552 -0.7308  1.0716
 5773TIP3   OH238953   4.532   4.618   8.053 -0.4388 -0.0787  0.1262
 5773TIP3    H138954   4.546   4.586   8.143  0.4937 -1.9736 -0.6433
 5773TIP3    H238955   4.457   4.568   8.022 -0.5226  0.3009 -0.2899
 5774TIP3   OH238956   0.562   1.708   2.102  0.9470 -0.0434  0.3912
 5774TIP3    H138957   0.509   1.768   2.155  0.9700  0.7871 -0.4950
 5774TIP3    H238958   0.647   1.751   2.096  0.0946  1.5039 -2.8636
 5775TIP3   OH238959   3.153   4.676   8.653 -0.2287  0.6542  0.1008
 5775TIP3    H138960   3.207   4.659   8.576  0.5798  1.6369  0.4333
 5775TIP3    H238961   3.108   4.593   8.669  1.9713 -0.5566  0.4072
 5776TIP3   OH238962   0.835   0.234   1.544 -0.2559 -0.2623 -0.2885
 5776TIP3    H138963   0.836   0.328   1.530 -1.0394  0.0508  1.4759
 5776TIP3    H238964   0.927   0.207   1.536  0.2929  1.0139  1.2583
 5777TIP3   OH238965   2.653   6.151   8.645  0.2225  0.5495 -0.3861
 5777TIP3    H138966   2.653   6.064   8.604 -0.8248  0.0040  0.7356
 5777TIP3    H238967   2.684   6.209   8.575  1.1898 -0.7369 -1.0923
 5778TIP3   OH238968   6.669   4.300   1.550  0.2447  0.5100 -0.0809
 5778TIP3    H138969   6.642   4.342   1.468  1.3860  2.2386  0.3893
 5778TIP3    H238970   6.601   4.324   1.613  0.1303  0.4109 -0.1658
 5779TIP3   OH238971   4.717   1.817   6.743  0.0982 -0.0132 -0.3822
 5779TIP3    H138972   4.784   1.772   6.691  0.5622  0.8661 -0.5642
 5779TIP3    H238973   4.672   1.873   6.680 -0.1929  0.0990 -0.0754
 5780TIP3   OH238974   5.904   5.707   1.396  0.3707 -0.3559 -0.0631
 5780TIP3    H138975   5.897   5.793   1.354  0.9565 -0.9722 -1.4702
 5780TIP3    H238976   5.967   5.721   1.466  0.8778  0.2529 -0.6191
 5781TIP3   OH238977   3.291   3.847   0.475 -0.1146 -0.0594 -0.1545
 5781TIP3    H138978   3.319   3.777   0.417 -0.1292  0.3509 -0.6638
 5781TIP3    H238979   3.203   3.823   0.503 -0.2115 -0.1288 -0.5169
 5782TIP3   OH238980   5.705   0.183   7.782 -0.2745  0.1333  0.1725
 5782TIP3    H138981   5.717   0.265   7.734 -0.1681  0.0497  0.0561
 5782TIP3    H238982   5.732   0.204   7.872 -1.0311  0.4511  0.3357
 5783TIP3   OH238983   0.152   1.166   8.409 -0.0231  0.0269  0.2900
 5783TIP3    H138984   0.108   1.247   8.385 -0.8836 -0.6559 -0.5151
 5783TIP3    H238985   0.081   1.103   8.425  0.6194 -0.5340  1.0672
 5784TIP3   OH238986   4.927   1.625   0.444  0.5190 -0.5551  0.0120
 5784TIP3    H138987   4.955   1.642   0.534 -1.7124  1.2725  0.4611
 5784TIP3    H238988   4.836   1.656   0.441 -0.6010 -3.5590 -2.0207
 5785TIP3   OH238989   5.196   2.007   0.128  0.3972 -0.1963 -0.1406
 5785TIP3    H138990   5.221   2.038   0.041  0.0830 -0.1103 -0.2017
 5785TIP3    H238991   5.275   1.966   0.163  0.6328  0.1115 -0.3119
 5786TIP3   OH238992   0.918   1.771   0.836  0.0093  0.0520 -0.6099
 5786TIP3    H138993   0.890   1.690   0.792 -1.1732 -0.4478  0.9412
 5786TIP3    H238994   1.012   1.760   0.847  0.0603 -0.5608 -1.4933
 5787TIP3   OH238995   2.429   0.832   1.591  0.2132 -0.2307 -0.5965
 5787TIP3    H138996   2.515   0.807   1.626  0.5545  0.2426 -1.0884
 5787TIP3    H238997   2.367   0.784   1.646  0.7495  0.1420  0.3710
 5788TIP3   OH238998   0.521   6.780   0.412  0.2037  0.1504 -0.0988
 5788TIP3    H138999   0.574   6.847   0.369 -0.7293  0.7086 -0.4030
 5788TIP3    H239000   0.539   6.700   0.364  1.5623  0.1066  0.4518
 5789TIP3   OH239001   6.685   3.463   1.804 -0.1315  0.4253  0.5004
 5789TIP3    H139002   6.646   3.376   1.798  0.2221  0.3289 -0.6092
 5789TIP3    H239003   6.624   3.513   1.858 -2.0579  0.3837 -1.4848
 5790TIP3   OH239004   4.640   6.009   0.757  0.6199  0.3255 -0.2284
 5790TIP3    H139005   4.633   5.914   0.751 -0.0745  0.0829  2.8122
 5790TIP3    H239006   4.728   6.025   0.791  0.5168  0.7160 -0.1410
 5791TIP3   OH239007   6.185   3.536   6.815 -0.1314  0.1987 -0.1304
 5791TIP3    H139008   6.143   3.453   6.795 -0.2761  0.1845  0.2407
 5791TIP3    H239009   6.159   3.594   6.743  0.6122 -0.2965 -0.8124
 5792TIP3   OH239010   1.985   0.901   1.231  0.5571 -0.2947 -0.3247
 5792TIP3    H139011   2.041   0.895   1.309  2.1385  0.2429 -1.3630
 5792TIP3    H239012   2.025   0.971   1.179 -1.4543  0.5293 -0.8604
 5793TIP3   OH239013   5.757   4.383   6.338  0.3311  0.4949 -0.4082
 5793TIP3    H139014   5.767   4.303   6.390  0.0252  1.3799  1.0836
 5793TIP3    H239015   5.677   4.369   6.288 -0.2898  0.2393  0.6063
 5794TIP3   OH239016   0.254   3.293   6.663 -0.1491 -0.2892  0.0858
 5794TIP3    H139017   0.198   3.235   6.611 -1.3944  0.3445  0.6960
 5794TIP3    H239018   0.251   3.257   6.751 -1.0789  0.7690  0.5126
 5795TIP3   OH239019   2.805   5.318   0.813 -0.1642 -0.0161  0.2123
 5795TIP3    H139020   2.883   5.262   0.803 -1.0397 -1.5958  1.7671
 5795TIP3    H239021   2.840   5.405   0.831  1.2368 -0.3075 -0.9137
 5796TIP3   OH239022   3.469   4.960   0.029 -0.2524  0.1222 -0.1055
 5796TIP3    H139023   3.557   4.941  -0.004  0.0343  0.6215  0.3383
 5796TIP3    H239024   3.433   5.024  -0.033 -0.4346 -0.3330 -0.4725
 5797TIP3   OH239025   2.426   3.484   1.885  0.4383 -0.3768  0.4685
 5797TIP3    H139026   2.436   3.521   1.972 -3.6956  2.6013 -0.0178
 5797TIP3    H239027   2.361   3.415   1.895 -1.2707  1.0279 -0.3136
 5798TIP3   OH239028   0.118   4.793   0.644  0.6803  0.0665 -1.0061
 5798TIP3    H139029   0.143   4.706   0.674 -0.6354 -0.2351 -0.7070
 5798TIP3    H239030   0.168   4.853   0.699  1.3482 -0.4944 -0.9930
 5799TIP3   OH239031   6.792   0.027   6.960  0.0622  0.4803  0.0708
 5799TIP3    H139032   6.703   0.054   6.937 -0.5828 -0.0545  1.8232
 5799TIP3    H239033   6.780  -0.054   7.010  1.6284 -0.2273 -0.6360
 5800TIP3   OH239034   5.890   6.845   6.882  0.4636  0.1244 -0.4729
 5800TIP3    H139035   5.928   6.794   6.810  0.2188  0.1421 -0.6171
 5800TIP3    H239036   5.952   6.916   6.896  1.2201 -0.6592  0.2780
 5801TIP3   OH239037   5.292   0.080   0.278 -0.5095 -0.4515  0.2708
 5801TIP3    H139038   5.270   0.168   0.249 -0.2933 -0.3915  0.2879
 5801TIP3    H239039   5.345   0.093   0.357  3.7699 -0.3683 -2.3031
 5802TIP3   OH239040   2.039   5.847   0.985 -0.3934  0.1954 -0.6143
 5802TIP3    H139041   1.951   5.841   1.023 -0.5607 -0.0994 -1.0372
 5802TIP3    H239042   2.095   5.873   1.058 -0.4079 -2.0286  0.2759
 5803TIP3   OH239043   0.640   0.010   1.497  0.4609  0.1220  0.6507
 5803TIP3    H139044   0.705   0.073   1.531 -0.6907  0.2844  2.7644
 5803TIP3    H239045   0.595  -0.021   1.576 -0.9428 -1.2012 -0.6272
 5804TIP3   OH239046   1.346   0.922   0.761  0.0491  0.5491 -0.1097
 5804TIP3    H139047   1.399   0.979   0.705  0.6213  0.4940  0.3652
 5804TIP3    H239048   1.410   0.866   0.805 -0.2795  1.3498  1.4554
 5805TIP3   OH239049   3.007   3.600   1.740  0.3808  0.8576 -0.0704
 5805TIP3    H139050   2.929   3.593   1.795 -0.3293  3.7804 -0.5192
 5805TIP3    H239051   2.983   3.555   1.659 -0.4741  0.8461  0.1734
 5806TIP3   OH239052   3.979   4.507   0.221 -0.3797  0.1891 -0.2765
 5806TIP3    H139053   4.048   4.525   0.158  0.4037  1.3330  0.8660
 5806TIP3    H239054   3.907   4.564   0.195 -0.1150  0.5451 -0.2366
 5807TIP3   OH239055   1.175   5.901   1.810  0.3131 -0.0642  0.2090
 5807TIP3    H139056   1.259   5.905   1.856  0.8479  1.1885 -0.8019
 5807TIP3    H239057   1.117   5.957   1.862 -0.6020 -2.5953  2.1237
 5808TIP3   OH239058   4.740   5.401   6.884  0.4220  0.2817 -0.2859
 5808TIP3    H139059   4.750   5.364   6.971  0.4981  0.4831 -0.2095
 5808TIP3    H239060   4.797   5.347   6.829 -0.3787 -0.4850 -0.4030
 5809TIP3   OH239061   3.735   0.765   0.274 -0.4791  0.4336  0.3286
 5809TIP3    H139062   3.700   0.849   0.245  1.4328  1.1298 -0.1276
 5809TIP3    H239063   3.830   0.772   0.260 -0.4136 -2.6863 -2.0877
 5810TIP3   OH239064   4.102   1.446   7.527 -0.1922  0.2703 -0.1919
 5810TIP3    H139065   4.020   1.456   7.477  0.9949 -0.6039 -2.4752
 5810TIP3    H239066   4.163   1.408   7.464  0.7966 -3.2188  2.6182
 5811TIP3   OH239067   4.706   4.502   0.965  0.2523  0.7911 -0.0456
 5811TIP3    H139068   4.673   4.537   1.048 -0.4474 -1.1931  0.5706
 5811TIP3    H239069   4.774   4.564   0.938  1.4277  0.8657  2.6814
 5812TIP3   OH239070   6.854   2.867   8.564  0.5921  0.5291  0.0608
 5812TIP3    H139071   6.843   2.868   8.469 -1.0780  1.8350  0.2128
 5812TIP3    H239072   6.771   2.901   8.598  1.4987  0.9943  1.9517
 5813TIP3   OH239073   0.770   5.487   8.589  0.3723 -0.0215 -0.3225
 5813TIP3    H139074   0.858   5.487   8.549 -0.0528 -0.4676 -1.2900
 5813TIP3    H239075   0.724   5.415   8.546 -1.1437  1.4848 -1.3630
 5814TIP3   OH239076   5.266   4.098   0.762 -0.2551  0.2535 -0.4733
 5814TIP3    H139077   5.239   4.153   0.836 -0.5080  0.1705 -0.5056
 5814TIP3    H239078   5.209   4.022   0.766 -0.7828  0.5936 -1.1964
 5815TIP3   OH239079   4.728   5.379   0.233 -0.1244 -0.3376  0.3904
 5815TIP3    H139080   4.713   5.407   0.143 -0.9762 -1.4017  0.1784
 5815TIP3    H239081   4.774   5.452   0.274  0.0326  0.2693 -0.8295
 5816TIP3   OH239082   6.289   4.352   8.415  0.1481  0.3491 -0.3725
 5816TIP3    H139083   6.242   4.403   8.481 -0.9502 -0.2836 -0.6329
 5816TIP3    H239084   6.319   4.416   8.351 -0.7687  0.7306 -0.4349
 5817TIP3   OH239085   4.218   1.610   8.404  0.1975  0.1969 -0.4571
 5817TIP3    H139086   4.146   1.652   8.356  1.0678  0.8859 -1.1843
 5817TIP3    H239087   4.210   1.645   8.493 -0.4012  0.2225 -0.5115
 5818TIP3   OH239088   2.400   6.830   1.479 -0.0210 -0.2050 -0.3273
 5818TIP3    H139089   2.334   6.772   1.517 -1.9263  2.0580  0.0572
 5818TIP3    H239090   2.358   6.864   1.400  1.3870  0.0391 -1.0009
 5819TIP3   OH239091   4.509   3.150   8.396  0.0377  0.2559  0.0135
 5819TIP3    H139092   4.523   3.142   8.302  1.0617 -1.0874  0.2493
 5819TIP3    H239093   4.535   3.240   8.417 -0.2198  0.5742 -0.9789
 5820TIP3   OH239094   0.441   5.484   1.439  0.1486 -0.2921  0.4960
 5820TIP3    H139095   0.383   5.557   1.418 -0.3565 -0.5923  0.8169
 5820TIP3    H239096   0.385   5.406   1.432  0.0312 -0.4463  2.5371
 5821TIP3   OH239097   2.162   2.856   7.873 -0.4742  0.0952  0.2128
 5821TIP3    H139098   2.122   2.793   7.932  1.8514  0.4780  2.3541
 5821TIP3    H239099   2.232   2.807   7.830 -1.1307  0.2572 -1.1158
 5822TIP3   OH239100   0.359   1.867   8.090  0.0599 -0.1810 -0.2719
 5822TIP3    H139101   0.408   1.802   8.040 -0.6606 -0.7148 -0.3055
 5822TIP3    H239102   0.413   1.946   8.086 -0.1802 -0.0655 -2.2700
 5823TIP3   OH239103   4.524   6.543   0.718  0.1591 -0.0041 -0.2359
 5823TIP3    H139104   4.613   6.550   0.683  1.1603  0.3995  2.2171
 5823TIP3    H239105   4.493   6.458   0.685  1.2323  0.0661 -1.5350
 5824TIP3   OH239106   4.143   6.190   1.708 -0.3390 -0.0131  0.5161
 5824TIP3    H139107   4.084   6.170   1.780  0.0562 -0.7304  0.6518
 5824TIP3    H239108   4.103   6.147   1.632 -0.6144  0.5130  0.3640
 5825TIP3   OH239109   6.609   2.052   1.692  0.3502  0.9169 -0.1681
 5825TIP3    H139110   6.552   1.995   1.745  0.4413 -0.9986 -1.9792
 5825TIP3    H239111   6.693   2.049   1.736  0.7094 -1.5076 -0.8689
 5826TIP3   OH239112   3.952   4.773   1.070  0.2453  0.1633 -0.0033
 5826TIP3    H139113   3.939   4.734   1.156 -2.5892 -1.7381 -1.1261
 5826TIP3    H239114   3.864   4.777   1.032  1.3498  1.1172 -2.7356
 5827TIP3   OH239115   2.730   2.711   1.650 -0.2396  0.1979  0.7948
 5827TIP3    H139116   2.719   2.806   1.644  0.7028  0.2723  0.0490
 5827TIP3    H239117   2.746   2.683   1.560  1.4347 -0.4023  1.2349
 5828TIP3   OH239118   4.923   4.803   0.413  0.0606 -0.0451  0.0992
 5828TIP3    H139119   4.924   4.849   0.329 -0.2525  0.6600  0.4773
 5828TIP3    H239120   4.866   4.856   0.469 -0.1862 -0.8153  0.5857
 5829TIP3   OH239121   1.891   1.042   7.964 -0.1628 -0.1024 -0.2583
 5829TIP3    H139122   1.957   0.976   7.985 -0.4420 -0.8255 -1.5658
 5829TIP3    H239123   1.825   1.032   8.032 -0.7282 -1.9362 -1.0299
 5830TIP3   OH239124   1.202   3.553   1.272  0.1188 -0.0108 -0.3638
 5830TIP3    H139125   1.273   3.560   1.336  0.0072 -2.1752  0.0745
 5830TIP3    H239126   1.244   3.567   1.188  0.7915  0.2294  0.0079
 5831TIP3   OH239127   4.598   1.740   7.635 -0.2092 -0.1313  0.1851
 5831TIP3    H139128   4.604   1.795   7.557 -0.9663  1.6169  1.2978
 5831TIP3    H239129   4.602   1.650   7.601 -2.4944  0.4909 -2.0636
 5832TIP3   OH239130   0.593   5.500   0.893 -0.1429 -0.3744  0.9667
 5832TIP3    H139131   0.506   5.540   0.884 -1.5042 -3.0012  1.4243
 5832TIP3    H239132   0.596   5.469   0.983 -0.0555 -3.0314  0.1329
 5833TIP3   OH239133   0.798   3.559   7.350  0.1636  0.1653 -0.0251
 5833TIP3    H139134   0.706   3.541   7.367 -0.1704  1.5400 -0.2281
 5833TIP3    H239135   0.832   3.592   7.433  0.5443 -0.5799  0.1194
 5834TIP3   OH239136   5.326   4.171   8.735 -0.2928 -0.0896 -0.7170
 5834TIP3    H139137   5.351   4.134   8.819 -2.8529 -0.5028 -0.0622
 5834TIP3    H239138   5.409   4.202   8.697  0.9994 -0.3059  1.7095
 5835TIP3   OH239139   6.448   4.062   1.808 -0.4897  0.1479 -0.6566
 5835TIP3    H139140   6.506   4.016   1.868  0.2924  1.1966 -0.5995
 5835TIP3    H239141   6.389   3.993   1.776 -0.3005 -0.6156  0.5441
 5836TIP3   OH239142   3.561   1.378   8.789  0.0373  0.3586 -0.5241
 5836TIP3    H139143   3.574   1.352   8.698  1.6238  0.1419 -0.2514
 5836TIP3    H239144   3.648   1.378   8.828 -0.7708 -1.6075  1.5692
 5837TIP3   OH239145   1.701   5.460   2.137 -0.2700 -0.0358 -0.1148
 5837TIP3    H139146   1.611   5.479   2.166 -0.5721 -1.0257 -0.3783
 5837TIP3    H239147   1.755   5.484   2.212 -0.6912  1.1245 -0.1593
 5838TIP3   OH239148   0.824   5.225   2.276 -0.1644  0.2673 -0.0396
 5838TIP3    H139149   0.789   5.311   2.250  0.8364  0.4582 -0.8246
 5838TIP3    H239150   0.912   5.222   2.238 -0.5668 -1.5394 -0.9577
 5839TIP3   OH239151   1.523   0.804   7.615  0.8720  0.9184 -0.5444
 5839TIP3    H139152   1.431   0.794   7.640  0.6782 -1.1840 -1.8713
 5839TIP3    H239153   1.565   0.840   7.694 -0.7639  0.3058  0.6664
 5840TIP3   OH239154   2.181   6.745   8.679 -0.2420 -0.2054 -0.6415
 5840TIP3    H139155   2.235   6.783   8.748 -0.1444 -0.0096 -0.8265
 5840TIP3    H239156   2.107   6.705   8.726 -0.5962  0.6298 -0.4832
 5841TIP3   OH239157   3.133   3.832   2.080  0.8522 -0.5046 -0.2050
 5841TIP3    H139158   3.135   3.758   2.141 -0.0643 -1.3159 -1.1178
 5841TIP3    H239159   3.209   3.886   2.105  0.2731 -0.5798  1.8950
 5842TIP3   OH239160   5.485   0.508   7.970  0.1104  0.6386 -0.6218
 5842TIP3    H139161   5.489   0.419   7.935  0.7694  0.8038 -0.9784
 5842TIP3    H239162   5.463   0.496   8.063  1.9500 -0.0184 -0.2228
 5843TIP3   OH239163   4.603   4.579   7.038 -0.2765  0.0777  0.0069
 5843TIP3    H139164   4.597   4.669   7.072 -1.0777  0.1010 -0.1736
 5843TIP3    H239165   4.693   4.571   7.006 -0.9661  1.7791 -2.6200
 5844TIP3   OH239166   2.344   6.137   2.401  0.5929 -0.2400 -0.1227
 5844TIP3    H139167   2.339   6.130   2.496 -0.2031 -1.2371 -0.2124
 5844TIP3    H239168   2.332   6.047   2.370  2.7621 -0.2449 -1.1246
 5845TIP3   OH239169   4.335   5.667   7.909 -0.3936 -0.5343 -0.7473
 5845TIP3    H139170   4.417   5.693   7.953 -1.6675  2.2207  0.2550
 5845TIP3    H239171   4.313   5.582   7.947  1.2863 -0.6899 -0.0210
 5846TIP3   OH239172   3.730   0.866   1.533  0.1700 -0.2413 -0.1513
 5846TIP3    H139173   3.703   0.792   1.479 -0.7905  0.2106 -0.3159
 5846TIP3    H239174   3.806   0.902   1.488 -1.0676  0.5990 -1.6743
 5847TIP3   OH239175   4.422   0.837   1.468  0.4338  0.2632 -0.4061
 5847TIP3    H139176   4.391   0.772   1.532  0.7222 -0.0070 -0.5439
 5847TIP3    H239177   4.385   0.920   1.500 -2.0534 -0.2922 -1.5873
 5848TIP3   OH239178   2.431   1.174   7.154  0.2343  0.2622 -0.5284
 5848TIP3    H139179   2.389   1.164   7.069  1.5086  1.3020 -1.3125
 5848TIP3    H239180   2.404   1.260   7.185 -1.6581 -0.7935  1.0006
 5849TIP3   OH239181   0.362   0.277   8.418 -0.2754 -0.6511 -0.1085
 5849TIP3    H139182   0.310   0.286   8.338 -1.4236  0.9010  0.7577
 5849TIP3    H239183   0.446   0.318   8.395 -1.2548  1.5775 -0.0109
 5850TIP3   OH239184   1.568   1.976   8.339 -0.1119 -0.4185  0.9040
 5850TIP3    H139185   1.630   1.907   8.320 -1.9326 -1.8395 -0.2142
 5850TIP3    H239186   1.617   2.057   8.329  2.0097 -1.4990  1.9862
 5851TIP3   OH239187   0.549   4.864   7.010 -0.4818 -0.1811  0.0832
 5851TIP3    H139188   0.509   4.904   7.087 -1.5766 -1.2233  0.0901
 5851TIP3    H239189   0.475   4.845   6.952  0.4376  2.0450 -1.9756
 5852TIP3   OH239190   6.179   0.736   7.932 -0.6883  0.5093  0.0091
 5852TIP3    H139191   6.221   0.653   7.908  1.6247  1.5261  0.2707
 5852TIP3    H239192   6.155   0.776   7.848  1.9549  1.3587 -0.4438
 5853TIP3   OH239193   5.721   3.151   1.866  0.6082  0.1674  0.4924
 5853TIP3    H139194   5.643   3.140   1.810  1.2394 -0.9412 -0.2035
 5853TIP3    H239195   5.780   3.205   1.813  0.7842  0.0034  0.5216
 5854TIP3   OH239196   3.079   6.817   7.503  0.0415 -0.1561  0.5772
 5854TIP3    H139197   3.152   6.814   7.441 -0.8104 -0.0085 -0.4533
 5854TIP3    H239198   3.036   6.732   7.493 -1.3398  0.6556 -0.5807
 5855TIP3   OH239199   3.398   4.178   0.904  0.0381 -0.0474  0.1276
 5855TIP3    H139200   3.368   4.193   0.815  1.7285 -0.2693 -0.5095
 5855TIP3    H239201   3.456   4.252   0.922  1.1601 -0.9651  0.3537
 5856TIP3   OH239202   4.160   3.919   6.918  0.1602 -0.2520 -0.1088
 5856TIP3    H139203   4.094   3.849   6.912  1.7091 -1.7578 -0.3184
 5856TIP3    H239204   4.201   3.906   7.004 -0.0681  0.9324  0.1950
 5857TIP3   OH239205   0.717   4.461   0.712 -0.5516 -0.2495 -0.4489
 5857TIP3    H139206   0.645   4.437   0.653 -0.3111  2.0128 -1.8161
 5857TIP3    H239207   0.794   4.418   0.675 -0.6600 -0.0249 -0.9483
 5858TIP3   OH239208   3.420   0.858   7.603  0.1165  0.1241 -0.1648
 5858TIP3    H139209   3.486   0.807   7.556  0.0633  0.5148 -0.6751
 5858TIP3    H239210   3.336   0.822   7.574  0.0296  1.3858 -1.6069
 5859TIP3   OH239211   2.414   0.797   7.516 -0.0458  0.2483 -0.0985
 5859TIP3    H139212   2.398   0.704   7.500  0.5235  0.1272  0.0185
 5859TIP3    H239213   2.422   0.836   7.428  0.1763  0.1007 -0.1455
 5860TIP3   OH239214   3.141   4.133   1.010  0.1447  0.6467  0.6920
 5860TIP3    H139215   3.129   4.060   0.949 -0.4200  0.6433  0.7981
 5860TIP3    H239216   3.229   4.165   0.992 -1.1448  2.9581 -2.7031
 5861TIP3   OH239217   1.971   0.667   7.632 -0.6895 -0.3381 -0.1966
 5861TIP3    H139218   2.052   0.652   7.682 -2.5920  1.0585  3.6995
 5861TIP3    H239219   1.977   0.605   7.560  3.2220 -1.2487  0.6285
 5862TIP3   OH239220   4.004   0.395   1.869 -0.2218 -0.1134 -0.0077
 5862TIP3    H139221   3.957   0.474   1.894  0.7469  0.5062 -0.0993
 5862TIP3    H239222   4.054   0.371   1.947 -0.0927 -0.3203 -0.1527
 5863TIP3   OH239223   5.100   0.207   0.944  0.1936 -0.4791  0.3974
 5863TIP3    H139224   5.195   0.211   0.958  0.2029  1.8109  0.0742
 5863TIP3    H239225   5.078   0.290   0.903 -1.7820 -1.5435 -0.8822
 5864TIP3   OH239226   0.078   5.310   0.677  0.3297 -0.2601 -0.1106
 5864TIP3    H139227   0.122   5.295   0.761 -0.1607 -2.1036 -0.1316
 5864TIP3    H239228   0.133   5.266   0.612 -0.0264 -0.0785 -0.5449
 5865TIP3   OH239229   3.778   6.786   8.577 -0.5445  0.0007 -0.1337
 5865TIP3    H139230   3.726   6.726   8.631  0.2241 -0.1429  0.4655
 5865TIP3    H239231   3.727   6.795   8.497 -0.6258 -1.5701 -0.2992
 5866TIP3   OH239232   6.455   0.785   6.568 -0.3996  0.2552  0.5422
 5866TIP3    H139233   6.365   0.800   6.541 -0.5328  0.8072  1.2639
 5866TIP3    H239234   6.501   0.865   6.544 -0.1168  0.0062  0.2458
 5867TIP3   OH239235   3.643   4.147   7.381 -0.4358 -0.3875  0.4154
 5867TIP3    H139236   3.712   4.092   7.344  0.4579  1.0433 -0.1475
 5867TIP3    H239237   3.601   4.187   7.304 -0.6644  0.1665  0.8248
 5868TIP3   OH239238   3.947   4.098   8.271  0.6152  0.0657 -0.1802
 5868TIP3    H139239   3.933   4.176   8.219 -0.3082  0.1936  0.2427
 5868TIP3    H239240   3.872   4.094   8.330 -0.1731 -1.9648 -1.2211
 5869TIP3   OH239241   3.148   5.648   8.622 -0.3257 -0.0277 -0.0204
 5869TIP3    H139242   3.180   5.563   8.651 -0.0117 -0.5499 -1.8112
 5869TIP3    H239243   3.053   5.643   8.632 -0.2822 -0.4596  0.1978
 5870TIP3   OH239244   6.590   5.695   1.250  0.1676 -0.2476 -0.0533
 5870TIP3    H139245   6.661   5.732   1.303 -0.1582 -2.3513  2.0184
 5870TIP3    H239246   6.511   5.710   1.302 -0.1562 -2.4570  0.1943
 5871TIP3   OH239247   3.252   2.621   7.413  0.0635  0.4246 -0.6881
 5871TIP3    H139248   3.296   2.685   7.357  1.1095  0.0075 -0.3828
 5871TIP3    H239249   3.315   2.606   7.484 -0.9918  0.5222  0.2974
 5872TIP3   OH239250   2.932   1.313   0.776 -0.0138  0.3018 -0.2890
 5872TIP3    H139251   3.019   1.298   0.815 -0.3224  0.6423  0.5598
 5872TIP3    H239252   2.943   1.288   0.684  0.8877 -0.0081 -0.1175
 5873TIP3   OH239253   3.316   0.421   7.806 -0.5275 -0.4877 -0.3231
 5873TIP3    H139254   3.410   0.422   7.787  0.4325  0.8243  3.6808
 5873TIP3    H239255   3.304   0.350   7.869 -2.0704 -0.0726 -0.0950
 5874TIP3   OH239256   3.936   2.899   8.793  0.1565  0.2005 -0.3424
 5874TIP3    H139257   4.017   2.849   8.784  0.3426  0.7472 -2.1880
 5874TIP3    H239258   3.882   2.847   8.853 -0.0463 -2.7811 -2.8581
 5875TIP3   OH239259   4.659   5.410   1.236 -0.2948  0.0168 -0.0190
 5875TIP3    H139260   4.744   5.448   1.258 -0.8231  1.8117 -0.8847
 5875TIP3    H239261   4.596   5.478   1.256 -1.8894 -2.0785  2.8799
 5876TIP3   OH239262   5.529   3.137   2.828  0.6164 -0.3581 -0.9205
 5876TIP3    H139263   5.556   3.085   2.752  0.3218 -1.0600 -0.5567
 5876TIP3    H239264   5.437   3.113   2.842  0.7958 -0.5769 -0.0653
 5877TIP3   OH239265   4.419   6.159   0.864 -0.4015  0.1110 -0.0813
 5877TIP3    H139266   4.482   6.132   0.930  1.0431  1.2558 -0.9268
 5877TIP3    H239267   4.426   6.092   0.796  0.0844  0.3438 -0.2682
 5878TIP3   OH239268   3.571   1.597   8.572  0.1624  0.5676  0.1799
 5878TIP3    H139269   3.611   1.513   8.595  3.2486  1.1135 -2.4531
 5878TIP3    H239270   3.640   1.662   8.586 -0.8285  2.1028 -1.5177
 5879TIP3   OH239271   5.474   0.793   1.467  0.0411  1.1120 -0.2916
 5879TIP3    H139272   5.556   0.822   1.509  0.6682 -0.6659 -0.2254
 5879TIP3    H239273   5.407   0.806   1.534  0.7428 -0.0159  0.6543
 5880TIP3   OH239274   3.861   4.526   7.806 -0.2204  0.6308 -0.2484
 5880TIP3    H139275   3.832   4.543   7.895 -0.9173  0.1571 -0.3736
 5880TIP3    H239276   3.956   4.534   7.810  0.0255 -1.8713  1.1289
 5881TIP3   OH239277   4.126   5.850   8.149 -0.8007 -0.5008  0.6370
 5881TIP3    H139278   4.190   5.791   8.189  2.4866  2.1538 -0.2182
 5881TIP3    H239279   4.085   5.895   8.223 -0.3015 -0.9265  1.1788
 5882TIP3   OH239280   3.324   4.660   0.586 -0.1276  0.0636  0.9725
 5882TIP3    H139281   3.237   4.627   0.609 -0.3471 -2.8449 -2.8914
 5882TIP3    H239282   3.307   4.727   0.520  0.3638 -1.9475 -1.3655
 5883TIP3   OH239283   0.971   4.658   0.363 -0.1750  0.0397  0.0763
 5883TIP3    H139284   1.015   4.684   0.444 -0.1143  1.6149 -0.4208
 5883TIP3    H239285   0.925   4.737   0.335  0.4427 -0.2304 -1.8324
 5884TIP3   OH239286   6.567   0.283   6.432 -0.0799  0.0586  0.0940
 5884TIP3    H139287   6.551   0.375   6.450  1.1257  0.6392 -1.5019
 5884TIP3    H239288   6.654   0.265   6.469 -0.3690 -0.4699  0.5249
 5885TIP3   OH239289   5.779   5.874   6.296 -0.1530  0.2029  0.1124
 5885TIP3    H139290   5.726   5.831   6.228  0.0712  0.8777 -0.5048
 5885TIP3    H239291   5.776   5.967   6.273  2.9382  0.1015 -1.1844
 5886TIP3   OH239292   1.831   1.267   1.241  0.3175 -0.5855  0.0195
 5886TIP3    H139293   1.901   1.319   1.279 -0.1443 -0.9280  1.3907
 5886TIP3    H239294   1.875   1.209   1.179  1.4321 -1.5694  1.6642
 5887TIP3   OH239295   4.296   2.450   0.260 -0.5683  0.1658  0.5978
 5887TIP3    H139296   4.358   2.406   0.318  0.6504  0.0522 -0.7543
 5887TIP3    H239297   4.214   2.401   0.271 -0.5580  0.5236  2.6573
 5888TIP3   OH239298   0.773   0.096   8.140 -0.0916 -0.2637 -0.6482
 5888TIP3    H139299   0.780   0.154   8.065  2.8965 -0.8194 -0.9145
 5888TIP3    H239300   0.829   0.021   8.119 -1.9335 -2.1671  0.6854
 5889TIP3   OH239301   1.298   6.577   6.947 -0.1004 -0.4530  0.1260
 5889TIP3    H139302   1.384   6.547   6.975  0.6339  0.8685 -0.5901
 5889TIP3    H239303   1.291   6.666   6.982 -0.0078  0.4636 -2.0300
 5890TIP3   OH239304   2.913   3.254   6.739  0.2119 -0.4763 -0.1963
 5890TIP3    H139305   2.870   3.204   6.670  0.7143 -1.1235 -0.0540
 5890TIP3    H239306   2.929   3.191   6.808  0.3600  0.0091  0.2216
 5891TIP3   OH239307   4.856   5.899   8.242  0.1737  0.0236  0.2516
 5891TIP3    H139308   4.863   5.864   8.153  0.8313 -0.3823  0.4518
 5891TIP3    H239309   4.911   5.977   8.241  0.0895  0.0829  0.2684
 5892TIP3   OH239310   5.504   6.477   0.195 -0.1082 -0.0633  0.3191
 5892TIP3    H139311   5.470   6.480   0.106  1.2327  1.1938 -0.1830
 5892TIP3    H239312   5.565   6.404   0.195 -0.0023  0.0248  0.1642
 5893TIP3   OH239313   5.830   2.684   1.883  0.2856  0.2404  0.2616
 5893TIP3    H139314   5.818   2.612   1.945 -1.8490  1.6266  1.5886
 5893TIP3    H239315   5.826   2.643   1.797  0.0322 -1.3379  0.9896
 5894TIP3   OH239316   0.926   6.130   1.678 -0.3549  0.4042 -0.5038
 5894TIP3    H139317   0.844   6.177   1.695  0.1731  2.0111 -2.1088
 5894TIP3    H239318   0.937   6.134   1.583  0.9932 -0.8242 -0.4307
 5895TIP3   OH239319   5.904   5.848   0.273 -0.2638  0.6895  0.0119
 5895TIP3    H139320   5.864   5.773   0.318  0.1651  0.7888  0.5804
 5895TIP3    H239321   5.852   5.859   0.194 -1.8224  1.2639  1.0595
 5896TIP3   OH239322   3.120   5.138   1.058  0.2260 -0.4603 -0.3939
 5896TIP3    H139323   3.120   5.233   1.048 -0.6095 -0.4537 -0.3808
 5896TIP3    H239324   3.103   5.124   1.151 -0.5115 -0.6240 -0.5449
 5897TIP3   OH239325   4.356   2.163   0.475 -0.1850 -0.5050 -0.1759
 5897TIP3    H139326   4.352   2.218   0.553 -0.2379 -0.6102 -0.1035
 5897TIP3    H239327   4.436   2.112   0.486  1.2468  1.3644 -1.4697
 5898TIP3   OH239328   6.714   1.213   7.900  0.0811 -0.3245  0.1007
 5898TIP3    H139329   6.749   1.132   7.863 -0.8433 -0.7148  0.0569
 5898TIP3    H239330   6.689   1.265   7.824  1.2651  0.2886  0.1102
 5899TIP3   OH239331   1.117   2.782   0.161 -0.2473  0.2521  0.9327
 5899TIP3    H139332   1.166   2.700   0.165 -1.1872 -0.3356  0.6431
 5899TIP3    H239333   1.157   2.830   0.088  0.8114  0.4076  1.5884
 5900TIP3   OH239334   2.741   6.308   0.238 -0.0174  0.0129 -0.9321
 5900TIP3    H139335   2.667   6.351   0.281 -0.1539  1.0614 -2.1315
 5900TIP3    H239336   2.707   6.224   0.209 -0.2410 -0.2262 -0.0144
 5901TIP3   OH239337   5.271   6.117   1.336 -0.0838 -0.0407  0.1827
 5901TIP3    H139338   5.194   6.160   1.300 -0.6026 -0.9327  0.1950
 5901TIP3    H239339   5.290   6.047   1.274  0.4371 -0.1189  0.4260
 5902TIP3   OH239340   0.849   6.189   6.243 -0.1582  0.3807 -0.9691
 5902TIP3    H139341   0.798   6.163   6.320  0.3672  0.9094 -0.4384
 5902TIP3    H239342   0.851   6.284   6.246  0.1098  0.3980 -1.4882
 5903TIP3   OH239343   5.164   1.517   1.943  0.0689 -0.3208 -0.0212
 5903TIP3    H139344   5.170   1.545   2.035  0.2733  1.2597 -0.4947
 5903TIP3    H239345   5.168   1.598   1.893 -1.0604 -1.0794 -1.4060
 5904TIP3   OH239346   3.795   4.151   1.185  0.1229  0.1461  0.4453
 5904TIP3    H139347   3.876   4.191   1.216 -1.5522  3.1679  1.2534
 5904TIP3    H239348   3.769   4.092   1.257 -0.0251  1.6440  1.6781
 5905TIP3   OH239349   6.235   6.439   1.729 -0.2193  0.2090  0.2695
 5905TIP3    H139350   6.265   6.518   1.684  0.7918  0.0262  0.5970
 5905TIP3    H239351   6.204   6.470   1.814 -0.6833  0.3595  0.0503
 5906TIP3   OH239352   5.494   2.803   6.921  0.2538  0.2612  0.2654
 5906TIP3    H139353   5.496   2.798   6.825 -0.2504 -0.0885  0.2720
 5906TIP3    H239354   5.427   2.868   6.940 -0.3217 -0.3643  0.3987
 5907TIP3   OH239355   0.489   2.970   0.353  0.0465  0.7526  0.3834
 5907TIP3    H139356   0.516   3.061   0.340 -0.3299  0.8313  0.1687
 5907TIP3    H239357   0.410   2.960   0.300 -1.3781  1.0182  2.3403
 5908TIP3   OH239358   3.768   2.688   2.332 -0.1915  0.1888  0.8868
 5908TIP3    H139359   3.731   2.676   2.420  0.3815 -0.6698  1.0295
 5908TIP3    H239360   3.846   2.632   2.331 -0.8355 -0.7548 -0.5537
 5909TIP3   OH239361   6.567   6.778   8.496 -0.1645 -0.4257  0.1734
 5909TIP3    H139362   6.583   6.771   8.401 -1.9150  0.1806 -0.2062
 5909TIP3    H239363   6.654   6.790   8.534  0.5052  0.2204 -1.4595
 5910TIP3   OH239364   3.822   1.058   7.175 -0.3485 -0.7898 -0.7736
 5910TIP3    H139365   3.786   1.043   7.263 -0.8341  0.2861 -0.7685
 5910TIP3    H239366   3.850   0.971   7.146  1.0893 -0.9780  0.9842
 5911TIP3   OH239367   2.518   2.507   8.751  0.6894  0.0871 -0.6407
 5911TIP3    H139368   2.512   2.599   8.775  1.7712 -0.1892  0.8130
 5911TIP3    H239369   2.604   2.498   8.711  0.6508 -0.3158 -0.6384
 5912TIP3   OH239370   6.606   1.246   0.307 -0.4462  0.4033 -0.0442
 5912TIP3    H139371   6.662   1.243   0.230  0.9242 -0.1374  0.9401
 5912TIP3    H239372   6.666   1.259   0.381 -1.7104  0.8644  0.9490
 5913TIP3   OH239373   1.613   0.429   2.180 -0.0519 -0.1128 -0.2265
 5913TIP3    H139374   1.582   0.514   2.149  0.1082 -0.1701 -0.5517
 5913TIP3    H239375   1.558   0.409   2.255 -0.2295  0.1814 -0.2767
 5914TIP3   OH239376   5.855   1.443   7.857  0.0428  0.8286 -0.3508
 5914TIP3    H139377   5.865   1.351   7.832 -0.8843  0.9835 -1.3522
 5914TIP3    H239378   5.856   1.441   7.953 -0.1811 -0.2530 -0.3522
 5915TIP3   OH239379   1.200   5.912   2.293  0.2559  0.0306 -0.1144
 5915TIP3    H139380   1.163   5.877   2.374  0.0578  1.6113  0.5249
 5915TIP3    H239381   1.145   5.875   2.224 -0.8328  0.2133  0.6209
 5916TIP3   OH239382   3.672   2.357   8.478 -0.2442  0.4859  0.3166
 5916TIP3    H139383   3.647   2.314   8.560 -0.4818  1.6636  0.8756
 5916TIP3    H239384   3.631   2.304   8.410  0.7346 -1.0761  0.8645
 5917TIP3   OH239385   0.999   5.071   7.468 -0.5444 -0.1074  0.1469
 5917TIP3    H139386   1.046   5.072   7.384  0.6452  0.2281  0.7815
 5917TIP3    H239387   0.943   4.993   7.464 -0.7885  0.1150 -1.0977
 5918TIP3   OH239388   0.380   5.468   2.326  0.5060  0.0172 -0.3049
 5918TIP3    H139389   0.452   5.508   2.376  1.2911 -1.6082 -0.0729
 5918TIP3    H239390   0.353   5.536   2.265  3.0845  0.2845 -1.2558
 5919TIP3   OH239391   5.047   3.429   0.940  0.1961 -0.2164 -0.0677
 5919TIP3    H139392   5.001   3.495   0.888 -0.1138  0.4486  1.0171
 5919TIP3    H239393   4.996   3.349   0.927  1.3285 -0.6569 -2.4852
 5920TIP3   OH239394   3.802   6.497   6.653 -0.2667 -0.1883 -0.2400
 5920TIP3    H139395   3.785   6.495   6.558 -0.4681 -0.4946 -0.2016
 5920TIP3    H239396   3.801   6.589   6.676  1.4917  0.0284 -0.8372
 5921TIP3   OH239397   0.613   0.308   8.218  0.3874  0.4675  0.1787
 5921TIP3    H139398   0.643   0.398   8.231  0.1247  0.5141  0.5029
 5921TIP3    H239399   0.689   0.262   8.184  1.4000  0.1771  2.5951
 5922TIP3   OH239400   1.603   0.292   0.209 -0.4766  0.2293  0.0129
 5922TIP3    H139401   1.691   0.273   0.240  0.8326  2.6870 -1.8150
 5922TIP3    H239402   1.570   0.360   0.268 -1.2321 -0.7231  0.7282
 5923TIP3   OH239403   0.618   2.050   7.980  0.4207  0.5563  0.6557
 5923TIP3    H139404   0.566   2.086   7.907  1.2059  0.3451 -0.0245
 5923TIP3    H239405   0.703   2.093   7.972  1.6807 -1.9222 -0.6813
 5924TIP3   OH239406   2.824   0.693   1.515  0.1501  0.9061  0.6198
 5924TIP3    H139407   2.794   0.745   1.441  0.4252  2.4787  1.5624
 5924TIP3    H239408   2.756   0.703   1.581 -0.0205 -0.3478  0.6622
 5925TIP3   OH239409   1.507   3.963   7.080 -0.4889  0.0378  0.1934
 5925TIP3    H139410   1.500   4.011   7.162  0.4195  1.0488 -0.2881
 5925TIP3    H239411   1.472   4.022   7.014  0.5377  0.0170 -0.3974
 5926TIP3   OH239412   4.388   1.822   1.822 -0.0115  0.7467  0.1388
 5926TIP3    H139413   4.333   1.842   1.746  0.6232 -1.6066 -1.0213
 5926TIP3    H239414   4.467   1.875   1.809 -0.2080  0.8933 -0.4825
 5927TIP3   OH239415   6.689   3.095   0.462 -0.9128  0.3836  0.0240
 5927TIP3    H139416   6.752   3.061   0.526  2.3615 -1.1337 -3.5654
 5927TIP3    H239417   6.697   3.190   0.469  2.1350  0.2525 -0.4169
 5928TIP3   OH239418   4.455   5.371   8.791  0.1928 -0.6675 -0.2381
 5928TIP3    H139419   4.459   5.278   8.769 -0.1206 -0.5861 -0.6401
 5928TIP3    H239420   4.539   5.407   8.762  1.0978 -1.1685  1.5666
 5929TIP3   OH239421   1.314   3.028   6.643 -0.1380  1.1802 -0.3994
 5929TIP3    H139422   1.286   2.970   6.572 -0.3837  0.1542  0.5043
 5929TIP3    H239423   1.368   3.094   6.600  0.1040  0.3139 -1.4823
 5930TIP3   OH239424   4.311   3.806   7.903  0.1069 -0.2279 -0.3715
 5930TIP3    H139425   4.326   3.837   7.992  1.7356  1.0269 -1.0270
 5930TIP3    H239426   4.339   3.715   7.904 -0.3385 -0.3628  0.5064
 5931TIP3   OH239427   3.185   2.897   0.607 -0.0329  0.1054  0.2708
 5931TIP3    H139428   3.195   2.966   0.542  0.0232 -0.1573 -0.0030
 5931TIP3    H239429   3.233   2.823   0.571  0.6881  0.2055  0.9913
 5932TIP3   OH239430   0.707   6.024   7.919  0.2047  0.3384 -0.4117
 5932TIP3    H139431   0.674   6.050   8.005  1.4375 -0.9155  0.5018
 5932TIP3    H239432   0.802   6.016   7.932  0.6454  1.8053 -2.3740
 5933TIP3   OH239433   0.326   2.385   1.543  0.3303  0.5607 -0.1087
 5933TIP3    H139434   0.268   2.319   1.581  0.4259  1.3638  1.4870
 5933TIP3    H239435   0.269   2.461   1.529  0.5435  0.6381 -0.5769
 5934TIP3   OH239436   0.360   6.599   0.850 -0.2571 -0.5719 -0.3061
 5934TIP3    H139437   0.425   6.611   0.780 -0.3722  1.6064 -0.0873
 5934TIP3    H239438   0.303   6.675   0.844 -1.4672 -1.3409  0.9246
 5935TIP3   OH239439   0.302   3.929   0.569 -0.0233 -0.2614 -0.4484
 5935TIP3    H139440   0.323   4.008   0.519  0.9994  0.4134  0.9779
 5935TIP3    H239441   0.213   3.943   0.601  0.2941  0.5140  0.1215
 5936TIP3   OH239442   2.062   3.932   0.819 -0.2199  0.0829 -0.2860
 5936TIP3    H139443   1.982   3.970   0.781  0.1375  1.6252  0.4127
 5936TIP3    H239444   2.031   3.885   0.897 -0.4736  0.6858 -0.0108
 5937TIP3   OH239445   2.265   1.083   6.952 -0.0375 -0.4332  0.2869
 5937TIP3    H139446   2.177   1.046   6.958 -1.3138  2.1049 -0.7774
 5937TIP3    H239447   2.278   1.098   6.858  1.0274  0.3119  0.5308
 5938TIP3   OH239448   0.881   4.398   0.263  0.7529 -0.4201 -0.4312
 5938TIP3    H139449   0.829   4.443   0.197  1.5375 -0.5291 -1.1398
 5938TIP3    H239450   0.922   4.468   0.314  0.1814 -0.3377 -0.0605
 5939TIP3   OH239451   2.713   1.295   7.887 -0.0946  0.1085  0.2809
 5939TIP3    H139452   2.754   1.348   7.955  0.3541 -0.8300  0.7657
 5939TIP3    H239453   2.786   1.265   7.832 -0.1094 -1.4019  1.0274
 5940TIP3   OH239454   5.927   4.379   6.779 -0.7832  0.2911  0.2607
 5940TIP3    H139455   5.945   4.470   6.756 -2.1457  0.9816  1.7135
 5940TIP3    H239456   5.877   4.345   6.705  0.8829  0.2738 -0.9001
 5941TIP3   OH239457   1.658   0.849   6.573 -0.2264 -0.5868 -0.1376
 5941TIP3    H139458   1.581   0.906   6.570  0.3030  0.0985 -1.4171
 5941TIP3    H239459   1.672   0.832   6.667  0.0856  2.0824  0.3773
 5942TIP3   OH239460   4.379   3.959   7.515 -0.2467 -0.2287 -0.2339
 5942TIP3    H139461   4.383   3.864   7.520 -2.7198 -0.3042  3.5755
 5942TIP3    H239462   4.412   3.990   7.599 -0.1802  2.3088 -1.0847
 5943TIP3   OH239463   1.538   6.573   0.311 -0.2871  0.2461  0.3146
 5943TIP3    H139464   1.499   6.658   0.333  0.1429  0.5032  0.1003
 5943TIP3    H239465   1.463   6.518   0.288 -0.4344  1.3116 -2.0207
 5944TIP3   OH239466   6.283   4.155   0.290  0.1047 -0.0133  0.4690
 5944TIP3    H139467   6.246   4.144   0.202 -0.0649  1.2683  0.3609
 5944TIP3    H239468   6.235   4.229   0.326 -0.0822 -0.7602  1.7987
 5945TIP3   OH239469   2.151   3.109   0.028  0.4135 -0.0079 -0.3612
 5945TIP3    H139470   2.059   3.127   0.044  0.5872 -0.0699  0.7769
 5945TIP3    H239471   2.151   3.027  -0.022 -0.2250  1.2828 -2.5788
 5946TIP3   OH239472   0.601   6.250   0.084 -0.4687 -0.1533  0.1017
 5946TIP3    H139473   0.696   6.256   0.079 -0.4071 -1.5663 -1.2515
 5946TIP3    H239474   0.572   6.257  -0.007 -1.5169 -1.3330  0.3123
 5947TIP3   OH239475   2.322   4.086   1.004  0.4935  0.0755 -0.0844
 5947TIP3    H139476   2.323   4.130   0.919 -0.8376  1.0855  0.3843
 5947TIP3    H239477   2.230   4.080   1.027  0.6529 -2.5817  0.1130
 5948TIP3   OH239478   0.086   2.494   1.171 -0.6646  0.0533 -0.0076
 5948TIP3    H139479   0.074   2.505   1.077 -2.0934 -0.4899  0.0828
 5948TIP3    H239480   0.161   2.549   1.193  0.3842 -0.6806 -1.6424
 5949TIP3   OH239481   5.299   2.456   6.907 -0.2396  0.1643  0.0714
 5949TIP3    H139482   5.239   2.526   6.883  0.4380  1.0435  0.8896
 5949TIP3    H239483   5.282   2.440   7.000 -1.4640 -1.8497 -0.4426
 5950TIP3   OH239484   4.341   5.221   1.261  0.0793  0.2981  0.4474
 5950TIP3    H139485   4.331   5.136   1.305  0.7630 -0.4187 -0.7128
 5950TIP3    H239486   4.429   5.250   1.285 -0.4812  1.1133  1.5474
 5951TIP3   OH239487   4.490   1.800   0.960  0.3362 -0.4529 -0.5497
 5951TIP3    H139488   4.413   1.744   0.966 -0.4695  0.5068 -1.5386
 5951TIP3    H239489   4.564   1.739   0.967 -0.4607 -1.2612  1.6217
 5952TIP3   OH239490   1.006   0.596   7.868  0.3634  0.2935 -0.4381
 5952TIP3    H139491   0.921   0.639   7.869  0.7034  1.0825 -1.8893
 5952TIP3    H239492   1.044   0.615   7.954 -1.2592 -0.8474  0.5842
 5953TIP3   OH239493   1.566   5.537   8.585 -0.6465 -0.1144  0.1674
 5953TIP3    H139494   1.576   5.505   8.675 -0.3642  1.1178  0.5934
 5953TIP3    H239495   1.483   5.585   8.586 -1.3555 -1.2664 -0.6111
 5954TIP3   OH239496   1.014   0.859   7.524 -0.0049  0.3499 -0.1559
 5954TIP3    H139497   1.055   0.914   7.591  1.0951  0.0874 -0.5980
 5954TIP3    H239498   1.001   0.917   7.450  1.5986 -0.0429 -0.7989
 5955TIP3   OH239499   1.302   3.296   1.722  0.0979  0.5191  0.1531
 5955TIP3    H139500   1.241   3.330   1.656 -0.6465  0.7568  0.9302
 5955TIP3    H239501   1.247   3.281   1.799  0.6542 -1.2611  0.2337
 5956TIP3   OH239502   3.280   5.974   2.056 -0.2319  0.5562 -0.1942
 5956TIP3    H139503   3.233   6.033   2.115  1.7849 -0.0029  2.1690
 5956TIP3    H239504   3.353   5.942   2.109  0.4708 -1.7093 -2.3679
 5957TIP3   OH239505   3.613   0.345   7.778 -0.6805  0.4317 -0.0450
 5957TIP3    H139506   3.698   0.365   7.740 -1.2599  1.9402 -0.6286
 5957TIP3    H239507   3.612   0.250   7.786  0.9102  0.3627 -0.3575
 5958TIP3   OH239508   2.538   6.540   2.557 -0.1834 -0.5520 -0.5208
 5958TIP3    H139509   2.452   6.581   2.566  0.4036  0.5026  0.5882
 5958TIP3    H239510   2.520   6.447   2.563 -1.2876 -0.3653 -0.6162
 5959TIP3   OH239511   2.264   3.512   1.181  0.0585 -0.7748 -0.4040
 5959TIP3    H139512   2.348   3.508   1.226 -0.5384 -0.6803  0.7647
 5959TIP3    H239513   2.209   3.449   1.226 -0.2717 -1.4392 -1.6912
 5960TIP3   OH239514   5.127   1.663   1.024 -0.8132  0.0659 -0.3887
 5960TIP3    H139515   5.180   1.665   0.945  1.5949 -0.2878  1.1095
 5960TIP3    H239516   5.072   1.741   1.019  1.4418  1.7247 -1.0423
 5961TIP3   OH239517   0.049   6.718   8.141  0.1266  0.2922 -0.3702
 5961TIP3    H139518   0.060   6.623   8.142  0.3683  0.3156  1.2771
 5961TIP3    H239519   0.046   6.741   8.048 -0.4495 -1.3763 -0.7907
 5962TIP3   OH239520   3.475   0.935   2.048  0.5200 -0.1473 -0.0516
 5962TIP3    H139521   3.568   0.933   2.069  0.3155  0.5521  0.9917
 5962TIP3    H239522   3.455   0.847   2.017  1.7422 -0.0121 -1.2959
 5963TIP3   OH239523   3.015   6.579   6.968 -0.1976  0.4949 -0.1890
 5963TIP3    H139524   3.023   6.502   7.023 -2.1107  0.0271 -0.4934
 5963TIP3    H239525   3.020   6.653   7.028  1.1439  0.1519  0.1616
 5964TIP3   OH239526   3.984   3.626   1.120 -0.8695 -0.4743 -0.6058
 5964TIP3    H139527   3.968   3.599   1.210 -0.9297  0.3153 -0.3680
 5964TIP3    H239528   4.033   3.554   1.081 -0.5156 -0.6626  0.1700
 5965TIP3   OH239529   5.432   6.278   1.758 -0.4563 -0.1312  0.1163
 5965TIP3    H139530   5.502   6.213   1.757 -0.1840  0.1624  0.0341
 5965TIP3    H239531   5.374   6.252   1.687 -1.3593 -1.3826  1.2508
 5966TIP3   OH239532   0.356   5.633   0.826  0.1127  0.0877  0.0742
 5966TIP3    H139533   0.361   5.625   0.731 -0.0254 -1.4482  0.1700
 5966TIP3    H239534   0.267   5.664   0.843  0.2235  0.6186 -0.3016
 5967TIP3   OH239535   2.256   1.513   8.073 -0.3190 -0.3656  0.0689
 5967TIP3    H139536   2.263   1.478   8.162 -0.4760  1.9932  1.0737
 5967TIP3    H239537   2.241   1.435   8.018  1.3655 -2.0757  1.8495
 5968TIP3   OH239538   2.624   1.077   6.781 -1.1291  0.5276 -0.3611
 5968TIP3    H139539   2.688   1.142   6.808 -1.2201  0.9503 -1.1539
 5968TIP3    H239540   2.590   1.108   6.697 -0.9579 -0.6865 -0.9064
 5969TIP3   OH239541   1.755   3.178   1.010 -0.1842  0.0467  0.3696
 5969TIP3    H139542   1.718   3.089   1.008  0.3913 -0.1866 -0.0726
 5969TIP3    H239543   1.717   3.217   1.089 -2.8987  0.4987 -1.0603
 5970TIP3   OH239544   1.265   1.122   1.309  0.2072  0.2246  0.0985
 5970TIP3    H139545   1.307   1.055   1.255 -2.5772 -0.6341 -1.1444
 5970TIP3    H239546   1.219   1.178   1.247  0.5027  1.9043  1.3130
 5971TIP3   OH239547   3.720   3.861   7.629  0.2430 -0.8792  0.0909
 5971TIP3    H139548   3.763   3.863   7.715  0.4244 -1.1430  0.0083
 5971TIP3    H239549   3.658   3.933   7.632 -0.8235 -1.7923  0.9990
 5972TIP3   OH239550   1.277   6.098   7.963  0.0819 -0.0264 -0.0075
 5972TIP3    H139551   1.320   6.159   8.023 -0.9565  1.2833 -0.5532
 5972TIP3    H239552   1.331   6.019   7.967  1.2481  0.7784  1.0073
 5973TIP3   OH239553   3.379   3.080   1.415 -0.0303  0.3847 -0.1145
 5973TIP3    H139554   3.440   3.016   1.451 -0.7717  0.0074  0.4972
 5973TIP3    H239555   3.435   3.151   1.381  0.7021  0.5480  1.3702
 5974TIP3   OH239556   1.279   4.706   7.624 -0.4433  0.3806  0.1314
 5974TIP3    H139557   1.308   4.616   7.641  0.8882  0.9221  0.8899
 5974TIP3    H239558   1.210   4.721   7.689  1.4386  0.8757  2.1307
 5975TIP3   OH239559   5.897   2.220   7.902  0.3258  0.1048  0.1997
 5975TIP3    H139560   5.938   2.227   7.988 -0.1091  0.3674  0.3883
 5975TIP3    H239561   5.869   2.310   7.882  1.9983  0.3966 -0.9976
 5976TIP3   OH239562   4.825   0.791   6.424  0.0090  0.1220 -0.0062
 5976TIP3    H139563   4.738   0.812   6.390  0.5581 -0.3719 -1.8143
 5976TIP3    H239564   4.882   0.794   6.347  0.9834 -3.1157  0.4694
 5977TIP3   OH239565   2.733   2.708   8.413  0.7701 -0.3834  0.3450
 5977TIP3    H139566   2.802   2.743   8.470  0.7934 -1.7630  1.2182
 5977TIP3    H239567   2.746   2.753   8.330  1.1118  1.2651  1.2315
 5978TIP3   OH239568   1.996   5.251   7.075 -0.9355 -0.2355 -0.0617
 5978TIP3    H139569   2.082   5.212   7.061 -0.5522  0.8915 -1.0603
 5978TIP3    H239570   1.969   5.221   7.162  0.1219 -1.2055 -0.0526
 5979TIP3   OH239571   4.014   6.578   0.239 -0.1374 -0.4832  0.4034
 5979TIP3    H139572   4.027   6.673   0.244 -0.3019 -0.4602  0.3890
 5979TIP3    H239573   4.092   6.541   0.282 -0.5541 -0.3252  1.3094
 5980TIP3   OH239574   2.846   4.972   6.838 -0.0240 -0.4667  0.3589
 5980TIP3    H139575   2.830   5.066   6.836  0.1741 -0.4428 -0.5462
 5980TIP3    H239576   2.772   4.936   6.887 -0.8646  0.0232 -0.5223
 5981TIP3   OH239577   4.729   5.765   2.521 -0.1792  0.0245 -0.3522
 5981TIP3    H139578   4.689   5.845   2.486  0.9707  0.5102 -0.5847
 5981TIP3    H239579   4.670   5.695   2.492 -1.8259  0.8467  0.8079
 5982TIP3   OH239580   6.044   6.442   0.098  0.1856 -0.0881  0.0206
 5982TIP3    H139581   6.059   6.433   0.192  4.3028 -0.8178 -0.4968
 5982TIP3    H239582   6.044   6.352   0.065  0.4924  0.2194 -0.8542
 5983TIP3   OH239583   5.776   5.107   1.522 -0.8214 -0.1217 -0.7948
 5983TIP3    H139584   5.792   5.174   1.455  1.7531 -0.0557 -0.2346
 5983TIP3    H239585   5.749   5.157   1.599  0.8537  0.3058 -0.4473
 5984TIP3   OH239586   5.042   5.610   8.022 -0.0481 -0.3763 -0.1296
 5984TIP3    H139587   5.080   5.542   7.966 -1.0707 -1.3960  0.3786
 5984TIP3    H239588   4.976   5.653   7.968 -0.7531 -1.0912  0.1555
 5985TIP3   OH239589   6.806   1.647   2.022 -0.0604 -0.2362  0.2084
 5985TIP3    H139590   6.891   1.616   2.053 -0.4745 -1.0779  0.5161
 5985TIP3    H239591   6.785   1.722   2.078  0.0497 -0.6061  0.7481
 5986TIP3   OH239592   3.952   0.959   6.815  0.5459 -0.6183 -0.1116
 5986TIP3    H139593   4.037   0.960   6.772 -0.1357  3.9272 -1.9246
 5986TIP3    H239594   3.889   0.960   6.743 -0.9237 -0.3930  1.1228
 5987TIP3   OH239595   1.312   2.886   0.751 -0.0465  0.2223  0.3893
 5987TIP3    H139596   1.222   2.872   0.721  0.8718  0.2847 -2.7389
 5987TIP3    H239597   1.356   2.928   0.677  2.6287 -0.0106  1.7217
 5988TIP3   OH239598   6.362   4.988   1.371 -0.3619 -0.4272  0.4804
 5988TIP3    H139599   6.351   4.978   1.276 -0.6664 -0.8583  0.5546
 5988TIP3    H239600   6.295   5.052   1.396 -0.4865 -0.5431  0.4473
 5989TIP3   OH239601   6.675   0.523   8.186 -0.5343  0.1115 -0.3500
 5989TIP3    H139602   6.636   0.584   8.123 -0.9237 -0.1214 -0.3379
 5989TIP3    H239603   6.734   0.470   8.133 -1.9516 -1.0665 -0.8270
 5990TIP3   OH239604   0.067   0.717   0.056 -0.0968  0.0737  0.6162
 5990TIP3    H139605   0.071   0.784   0.124 -2.3909  2.8033 -1.6713
 5990TIP3    H239606   0.109   0.757  -0.020 -0.3865 -1.6104 -0.4903
 5991TIP3   OH239607   0.946   0.352   7.538  0.1678 -0.0927 -0.5395
 5991TIP3    H139608   0.873   0.410   7.559 -0.0607 -0.4784 -0.2414
 5991TIP3    H239609   1.020   0.387   7.588  0.5960  1.1883 -1.9914
 5992TIP3   OH239610   2.282   5.114   7.314  0.4806  0.0462 -0.3708
 5992TIP3    H139611   2.360   5.152   7.275  1.8089 -0.6686  1.4113
 5992TIP3    H239612   2.253   5.178   7.378  0.0360 -0.0095 -0.5118
 5993TIP3   OH239613   5.539   2.709   7.455  0.2636 -0.0097  0.3027
 5993TIP3    H139614   5.484   2.781   7.425 -0.4261 -0.5694  0.1884
 5993TIP3    H239615   5.629   2.739   7.440 -0.0324  0.1259 -1.4268
 5994TIP3   OH239616   5.023   2.366   6.926 -0.0548 -0.0104 -0.2025
 5994TIP3    H139617   5.047   2.276   6.948 -0.1992 -0.0259 -0.1065
 5994TIP3    H239618   5.037   2.372   6.831 -2.0690 -0.7735 -0.5902
 5995TIP3   OH239619   4.140   3.120   1.295 -0.0784 -0.4074 -0.0938
 5995TIP3    H139620   4.138   3.195   1.236  0.3458 -0.0892  0.2866
 5995TIP3    H239621   4.193   3.149   1.369 -1.2535 -0.5347  0.8230
 5996TIP3   OH239622   1.252   0.383   1.441 -0.0025  0.1683 -0.0603
 5996TIP3    H139623   1.254   0.288   1.450  3.1852  0.1719  0.6107
 5996TIP3    H239624   1.233   0.416   1.529 -0.7184  0.1617 -0.2102
 5997TIP3   OH239625   6.063   5.409   1.292  0.3626 -0.5153  0.0459
 5997TIP3    H139626   5.995   5.471   1.318  0.6956  0.3956 -1.1368
 5997TIP3    H239627   6.034   5.375   1.208  1.6593  0.4366 -0.8409
 5998TIP3   OH239628   4.958   2.107   0.282 -0.5318 -0.2894  0.0024
 5998TIP3    H139629   4.886   2.044   0.268  0.5397 -2.0673  1.8927
 5998TIP3    H239630   5.033   2.067   0.239 -0.1354  0.4127  0.0362
 5999TIP3   OH239631   0.295   4.238   1.883  0.2528 -0.3556  0.2768
 5999TIP3    H139632   0.366   4.284   1.838 -0.2398 -1.6749 -2.0343
 5999TIP3    H239633   0.215   4.283   1.854 -0.0022 -0.3203  1.0155
 6000TIP3   OH239634   2.671   4.848   1.906  0.3329 -0.1293 -0.1710
 6000TIP3    H139635   2.606   4.912   1.934  2.1397  1.6211  0.2672
 6000TIP3    H239636   2.676   4.785   1.979  1.0212  1.2547  1.0293
 6001TIP3   OH239637   1.277   4.365   1.448  0.0843  0.3959  0.2883
 6001TIP3    H139638   1.275   4.358   1.353 -1.8080 -0.8887  0.3514
 6001TIP3    H239639   1.366   4.392   1.469  0.7574 -0.0433 -1.7953
 6002TIP3   OH239640   5.962   6.057   8.334  0.1784  0.8255  0.0890
 6002TIP3    H139641   6.019   6.034   8.407 -0.0418 -0.3426 -0.0984
 6002TIP3    H239642   6.020   6.056   8.257 -0.2117 -1.1316 -0.2203
 6003TIP3   OH239643   0.745   1.760   7.003 -0.1381  0.2418 -0.4162
 6003TIP3    H139644   0.785   1.754   6.916  0.9978  0.1668  0.0817
 6003TIP3    H239645   0.737   1.669   7.032  0.0674  0.2894 -0.2031
 6004TIP3   OH239646   4.402   4.725   0.040  0.1163  0.5317  0.5813
 6004TIP3    H139647   4.493   4.696   0.029  0.0501  0.5987 -0.2192
 6004TIP3    H239648   4.408   4.821   0.049  0.2523  0.4004  2.2443
 6005TIP3   OH239649   5.361   1.018   7.752  0.0007 -0.6413 -0.2401
 6005TIP3    H139650   5.394   0.990   7.837 -1.1951 -1.1723  0.0686
 6005TIP3    H239651   5.341   0.936   7.706  2.9176 -0.5121 -2.0360
 6006TIP3   OH239652   4.073   2.010   0.665 -0.4240  0.5082 -0.4793
 6006TIP3    H139653   4.152   1.959   0.648  1.9527  4.1910 -2.0393
 6006TIP3    H239654   4.073   2.024   0.760 -0.6355 -1.5333 -0.1542
 6007TIP3   OH239655   1.336   4.419   6.966 -0.6241 -0.1226 -0.2588
 6007TIP3    H139656   1.307   4.415   6.875  0.2360  1.0218 -0.6099
 6007TIP3    H239657   1.413   4.477   6.964 -1.6645  1.4285  1.4343
 6008TIP3   OH239658   4.577   4.975   0.317 -0.1829 -0.0265  0.6252
 6008TIP3    H139659   4.624   5.010   0.242 -1.8323 -1.5021 -1.2069
 6008TIP3    H239660   4.532   5.050   0.355 -1.7530  0.3557 -1.7609
 6009TIP3   OH239661   3.925   4.857   6.949  0.0930 -0.8483 -0.3417
 6009TIP3    H139662   3.923   4.838   7.043  0.4825 -2.0412 -0.5627
 6009TIP3    H239663   3.867   4.932   6.939 -0.5023 -1.1378  0.7606
 6010TIP3   OH239664   1.324   2.505   0.482  0.1490  0.5378 -0.3757
 6010TIP3    H139665   1.301   2.595   0.503 -0.5701 -0.1849  2.2089
 6010TIP3    H239666   1.382   2.477   0.553 -1.4327 -1.7054  0.1433
 6011TIP3   OH239667   3.673   1.052   8.599 -0.3032  0.1487 -0.2557
 6011TIP3    H139668   3.765   1.063   8.623  0.2064 -0.2708 -1.9130
 6011TIP3    H239669   3.633   1.010   8.676  0.8502  0.4219  0.5222
 6012TIP3   OH239670   5.199   5.827   8.260  0.5749  0.4085  0.5227
 6012TIP3    H139671   5.293   5.814   8.247  0.6922  0.9622  0.8276
 6012TIP3    H239672   5.164   5.738   8.270  1.1236  0.2246  0.8372
 6013TIP3   OH239673   4.877   5.865   7.975  0.1009  0.0656 -0.5078
 6013TIP3    H139674   4.968   5.897   7.967 -0.8650  2.8766 -1.6941
 6013TIP3    H239675   4.827   5.923   7.918 -2.1716 -2.8893 -1.7423
 6014TIP3   OH239676   5.776   1.629   2.028 -0.5938 -0.3258  0.2439
 6014TIP3    H139677   5.826   1.679   2.093 -2.6204  0.8158  0.9863
 6014TIP3    H239678   5.754   1.547   2.073  0.3078 -0.7140  0.0091
 6015TIP3   OH239679   2.755   4.454   1.838 -0.4541  0.0387 -0.5834
 6015TIP3    H139680   2.659   4.454   1.840 -0.4491 -0.1573  1.6210
 6015TIP3    H239681   2.777   4.371   1.796 -1.2689 -0.4008 -0.1809
 6016TIP3   OH239682   4.037   4.163   6.997 -0.0262  0.1028  0.0449
 6016TIP3    H139683   4.038   4.068   6.990  0.0020  0.1630 -0.8639
 6016TIP3    H239684   4.082   4.182   7.080 -0.6055 -0.6920  0.5429
 6017TIP3   OH239685   3.632   4.330   7.863 -0.4078  0.0068  0.8743
 6017TIP3    H139686   3.593   4.262   7.807 -1.6333  1.1745  0.2630
 6017TIP3    H239687   3.717   4.349   7.822 -0.4569 -0.4919  0.5300
 6018TIP3   OH239688   0.320   3.107   8.265  0.3620  0.1223  0.2574
 6018TIP3    H139689   0.332   3.028   8.318  2.8158 -0.1962 -0.6145
 6018TIP3    H239690   0.315   3.075   8.175 -1.2729  0.8289  0.0530
 6019TIP3   OH239691   3.464   3.778   8.619  0.2916  0.0993 -0.2423
 6019TIP3    H139692   3.506   3.701   8.581  1.8651  0.6813  0.2630
 6019TIP3    H239693   3.440   3.752   8.708  2.5383  0.7274  0.5991
 6020TIP3   OH239694   0.183   1.935   7.631  0.3567  0.9130 -0.2809
 6020TIP3    H139695   0.157   2.021   7.664 -0.0324  0.4152  0.7450
 6020TIP3    H239696   0.272   1.922   7.663 -0.2341  0.1736  1.1448
 6021TIP3   OH239697   2.755   1.082   7.581 -0.1839 -0.1528  0.1975
 6021TIP3    H139698   2.690   1.147   7.558  0.1015  0.2734  0.5808
 6021TIP3    H239699   2.706   1.013   7.627 -0.8378 -1.2133 -1.9506
 6022TIP3   OH239700   2.266   2.582   1.289 -0.0515 -0.1602  0.4039
 6022TIP3    H139701   2.208   2.655   1.268  0.6090  0.2234 -0.1267
 6022TIP3    H239702   2.349   2.603   1.245 -0.5479 -2.3447 -1.8417
 6023TIP3   OH239703   6.818   6.370   0.181 -0.3155 -0.3319 -0.1387
 6023TIP3    H139704   6.740   6.405   0.139 -0.9710 -1.1915  0.3214
 6023TIP3    H239705   6.836   6.289   0.135 -0.2315 -0.5921  0.3435
 6024TIP3   OH239706   6.493   0.621   8.366 -0.3375  0.1582  0.0071
 6024TIP3    H139707   6.500   0.578   8.451 -2.1366 -0.3040 -0.0359
 6024TIP3    H239708   6.518   0.554   8.303  0.3832  0.3120  0.1152
 6025TIP3   OH239709   1.488   0.011   0.391  0.0742  0.1208 -0.2261
 6025TIP3    H139710   1.407   0.031   0.438 -0.3595 -0.7729 -0.5588
 6025TIP3    H239711   1.552  -0.004   0.460 -0.3415 -0.3205  0.0721
 6026TIP3   OH239712   4.317   2.905   1.210  0.2105 -0.2266  0.4926
 6026TIP3    H139713   4.235   2.955   1.210  0.5071  0.2805 -0.1657
 6026TIP3    H239714   4.358   2.926   1.293  1.1041  1.9606 -0.4192
 6027TIP3   OH239715   5.640   6.087   1.797  0.4575 -0.5171 -0.2561
 6027TIP3    H139716   5.728   6.054   1.780  1.0038 -0.1092  1.4927
 6027TIP3    H239717   5.585   6.009   1.801  0.9636 -0.8786 -0.2444
 6028TIP3   OH239718   6.476   5.546   0.382 -0.6660 -0.2658 -0.0358
 6028TIP3    H139719   6.401   5.509   0.428 -0.7013  0.0138  0.1306
 6028TIP3    H239720   6.441   5.622   0.336 -0.4029  0.1232  0.3924
 6029TIP3   OH239721   6.645   1.450   2.055  0.4033  0.4518 -0.7663
 6029TIP3    H139722   6.680   1.365   2.084  2.5563  1.2780 -0.7850
 6029TIP3    H239723   6.721   1.507   2.051 -0.9542  2.3201 -1.1107
 6030TIP3   OH239724   5.595   3.898   8.054  0.1261 -0.2650 -0.1789
 6030TIP3    H139725   5.596   3.977   8.109  0.5007  0.0614 -0.6500
 6030TIP3    H239726   5.544   3.922   7.978  0.9222 -0.2063 -0.7079
 6031TIP3   OH239727   4.383   6.254   1.569 -0.1375  0.2228 -0.0411
 6031TIP3    H139728   4.360   6.265   1.477  0.6706  1.4304 -0.1254
 6031TIP3    H239729   4.302   6.273   1.617 -0.2839  0.6922 -0.4666
 6032TIP3   OH239730   0.553   1.942   1.347 -0.4622  0.2475  0.3478
 6032TIP3    H139731   0.552   1.912   1.256 -1.3240 -1.6466  0.9356
 6032TIP3    H239732   0.563   2.037   1.341 -0.7955  0.1913 -1.7340
 6033TIP3   OH239733   1.704   0.533   7.208  0.1511  0.1015 -1.0923
 6033TIP3    H139734   1.727   0.530   7.301  0.9686 -1.1867 -1.3059
 6033TIP3    H239735   1.784   0.563   7.164  0.6049 -1.6997 -1.5849
 6034TIP3   OH239736   2.989   3.705   0.570  0.0480 -0.4299  0.4187
 6034TIP3    H139737   2.916   3.672   0.517  0.1881  0.6296 -0.4727
 6034TIP3    H239738   2.947   3.763   0.634  0.0773  0.0096  0.0449
 6035TIP3   OH239739   4.337   4.724   7.127 -0.2405 -0.2061 -0.5533
 6035TIP3    H139740   4.298   4.790   7.070 -2.0580 -0.8396 -0.1030
 6035TIP3    H239741   4.428   4.751   7.136 -0.5577  1.3507 -1.6392
 6036TIP3   OH239742   3.877   5.789   7.545  0.0134  0.1408 -0.1459
 6036TIP3    H139743   3.861   5.751   7.631 -1.7414  0.2730 -0.3650
 6036TIP3    H239744   3.798   5.767   7.495  0.2722  1.4940 -1.1960
 6037TIP3   OH239745   0.111   4.192   6.577  0.4276 -0.7828  0.3872
 6037TIP3    H139746   0.050   4.241   6.522  0.1892 -0.7089  0.7187
 6037TIP3    H239747   0.086   4.100   6.564  0.0813 -0.7359  0.7228
 6038TIP3   OH239748   0.423   0.796   8.147  0.5217  0.8146 -0.0879
 6038TIP3    H139749   0.490   0.749   8.197 -0.4614 -0.7116 -0.1456
 6038TIP3    H239750   0.377   0.728   8.098 -1.8181  1.6493  0.8211
 6039TIP3   OH239751   4.444   3.502   8.742 -0.0524 -0.5001 -0.3866
 6039TIP3    H139752   4.436   3.414   8.777  2.5812 -0.5875  0.1814
 6039TIP3    H239753   4.357   3.540   8.753 -1.2976 -3.0291 -0.7881
 6040TIP3   OH239754   4.976   0.827   1.531 -0.1791  0.0297 -0.6027
 6040TIP3    H139755   4.906   0.879   1.491 -1.7755  1.4160  3.4118
 6040TIP3    H239756   4.938   0.739   1.540 -0.4000  0.1076 -0.7458
 6041TIP3   OH239757   6.779   4.361   7.470  0.3512  0.5968  0.0764
 6041TIP3    H139758   6.697   4.330   7.432 -0.0169  0.5433  0.8891
 6041TIP3    H239759   6.756   4.443   7.513  0.1728 -0.5142  2.2725
 6042TIP3   OH239760   1.362   1.292   0.852 -0.2603  0.2269  0.0530
 6042TIP3    H139761   1.445   1.339   0.849 -0.8418  1.2560 -1.4929
 6042TIP3    H239762   1.386   1.203   0.876  1.0274  0.9760  1.7636
 6043TIP3   OH239763   5.644   4.289   0.185 -0.1809 -0.5375 -0.3915
 6043TIP3    H139764   5.729   4.319   0.218 -0.6923  1.2184 -0.5844
 6043TIP3    H239765   5.657   4.195   0.169  1.1123 -0.7339  1.4445
 6044TIP3   OH239766   1.586   3.518   0.131  0.7020 -0.3294 -0.4058
 6044TIP3    H139767   1.499   3.551   0.107  1.1133  0.3191 -1.0529
 6044TIP3    H239768   1.637   3.597   0.147  1.3287 -0.6974 -0.5823
 6045TIP3   OH239769   3.177   5.191   7.693  0.0008 -0.0875  0.1050
 6045TIP3    H139770   3.272   5.195   7.680 -0.1195  0.4684 -0.7580
 6045TIP3    H239771   3.155   5.276   7.732 -0.0914 -0.3979  0.7428
 6046TIP3   OH239772   3.890   5.347   0.454 -0.1571  0.0897  0.4744
 6046TIP3    H139773   3.843   5.325   0.535  2.0003 -0.2991  1.7039
 6046TIP3    H239774   3.853   5.288   0.388 -0.7585 -0.8112  1.5744
 6047TIP3   OH239775   2.625   0.200   7.746  0.2983  0.4512  0.3050
 6047TIP3    H139776   2.705   0.207   7.798  0.2018 -0.0225  0.5218
 6047TIP3    H239777   2.577   0.281   7.764  0.5823  0.5917  0.4254
 6048TIP3   OH239778   5.144   2.529   7.464  0.0982  0.2707  0.3272
 6048TIP3    H139779   5.083   2.519   7.391 -0.3864  0.5296  0.6907
 6048TIP3    H239780   5.145   2.623   7.483  1.8467  0.5099 -0.7075
 6049TIP3   OH239781   0.181   6.459   2.034 -0.2574 -0.0427  0.0543
 6049TIP3    H139782   0.117   6.488   1.968 -1.2504 -1.3745  0.3851
 6049TIP3    H239783   0.163   6.513   2.110  0.6129  1.2135 -0.5904
 6050TIP3   OH239784   4.126   2.515   2.453  0.9496  0.5391 -0.0126
 6050TIP3    H139785   4.106   2.595   2.501  0.0222 -0.1991  0.8760
 6050TIP3    H239786   4.040   2.477   2.433  1.3818 -0.4811  0.0180
 6051TIP3   OH239787   4.276   2.692   7.162  0.1280 -0.3407  0.4542
 6051TIP3    H139788   4.309   2.760   7.104  1.1847 -2.2687 -1.3494
 6051TIP3    H239789   4.320   2.708   7.246  1.1477  0.5786 -0.2284
 6052TIP3   OH239790   5.189   1.361   1.492  0.1607  0.6894 -0.2814
 6052TIP3    H139791   5.118   1.401   1.442  1.4602 -0.3819 -3.1497
 6052TIP3    H239792   5.160   1.271   1.506  0.1886  0.7445  0.1453
 6053TIP3   OH239793   2.317   4.486   0.393  0.2374 -0.0413  0.1884
 6053TIP3    H139794   2.389   4.547   0.407  1.9618 -1.8738 -0.2661
 6053TIP3    H239795   2.350   4.402   0.424 -1.3784 -1.1334 -0.8757
 6054TIP3   OH239796   5.820   5.302   8.745  0.0176  0.0877  0.3416
 6054TIP3    H139797   5.762   5.333   8.814  0.0892 -0.7835  0.8062
 6054TIP3    H239798   5.820   5.372   8.680  0.1444  1.0446  1.3340
 6055TIP3   OH239799   4.601   5.926   1.310  0.3013  0.6468 -0.3469
 6055TIP3    H139800   4.640   6.005   1.348 -3.0693  2.0417  0.4903
 6055TIP3    H239801   4.538   5.896   1.375  1.5722 -2.9660 -0.5684
 6056TIP3   OH239802   5.958   4.534   1.757 -0.2425  0.3388 -0.1736
 6056TIP3    H139803   6.007   4.590   1.819 -1.5597 -0.1860  1.4156
 6056TIP3    H239804   5.870   4.572   1.756 -0.8213 -0.9660 -0.0335
 6057TIP3   OH239805   3.228   4.689   8.215  0.1523 -0.3933 -0.2522
 6057TIP3    H139806   3.197   4.780   8.210  1.7206  0.4072  2.4927
 6057TIP3    H239807   3.313   4.696   8.257 -0.2063 -3.2608  1.1144
 6058TIP3   OH239808   2.609   3.618   7.622  0.3648 -0.7932 -0.6054
 6058TIP3    H139809   2.608   3.529   7.589 -0.3614 -1.4101  0.9530
 6058TIP3    H239810   2.561   3.669   7.557 -0.1107 -1.7410 -1.0119
 6059TIP3   OH239811   3.922   3.618   8.061 -0.9422 -0.1279  0.4879
 6059TIP3    H139812   3.978   3.695   8.054 -1.1733  0.0175  0.1831
 6059TIP3    H239813   3.918   3.599   8.154  1.1011 -1.2507  0.3903
 6060TIP3   OH239814   3.574   4.651   2.324  0.1060 -0.7604  0.9289
 6060TIP3    H139815   3.609   4.567   2.295 -1.5431 -1.1855  0.0678
 6060TIP3    H239816   3.638   4.683   2.387  2.3492 -1.2004 -0.9921
 6061TIP3   OH239817   3.711   1.782   2.495  0.1372 -0.1011  0.4919
 6061TIP3    H139818   3.766   1.859   2.506  0.6144 -0.2950 -0.4379
 6061TIP3    H239819   3.621   1.815   2.506  0.4309  0.1230  2.4738
 6062TIP3   OH239820   5.282   5.572   0.237 -0.6376 -0.1270  0.3497
 6062TIP3    H139821   5.318   5.492   0.199  1.4165  1.2042 -0.6708
 6062TIP3    H239822   5.202   5.588   0.186 -0.3984 -0.8487 -0.2799
 6063TIP3   OH239823   3.513   1.956   7.790 -0.0661  0.4684 -0.4191
 6063TIP3    H139824   3.582   2.014   7.757 -0.1735  1.7103  1.3588
 6063TIP3    H239825   3.533   1.870   7.752  1.9538  0.9922 -0.6521
 6064TIP3   OH239826   1.551   0.501   1.866  0.4690 -0.2723  0.1671
 6064TIP3    H139827   1.570   0.551   1.945 -0.7292 -1.1916  1.0663
 6064TIP3    H239828   1.465   0.462   1.882  1.4300 -2.8240 -0.3759
 6065TIP3   OH239829   2.550   4.803   7.798  0.4047 -0.0522  0.0559
 6065TIP3    H139830   2.644   4.823   7.792  0.1586  2.9414  2.9792
 6065TIP3    H239831   2.540   4.765   7.886 -1.0807 -0.6132 -0.3450
 6066TIP3   OH239832   0.410   2.453   0.622 -0.2912 -0.0961  0.2209
 6066TIP3    H139833   0.378   2.502   0.698 -1.0147 -0.6800  0.2995
 6066TIP3    H239834   0.470   2.388   0.659 -0.6860 -0.4163  0.2988
 6067TIP3   OH239835   5.269   1.727   0.783  0.4457  0.5225  0.3030
 6067TIP3    H139836   5.236   1.763   0.700 -0.2677 -0.5610  0.0930
 6067TIP3    H239837   5.322   1.798   0.820 -0.6232  1.6482 -0.2477
 6068TIP3   OH239838   2.240   0.137   0.014  0.2742 -0.5012 -0.0771
 6068TIP3    H139839   2.171   0.187  -0.030 -0.3807 -2.3695 -1.2899
 6068TIP3    H239840   2.197   0.097   0.089 -0.0361 -1.7666 -0.9035
 6069TIP3   OH239841   2.489   4.511   7.188  0.2376 -0.0413  0.0105
 6069TIP3    H139842   2.479   4.461   7.268 -0.9078 -1.9590 -1.2486
 6069TIP3    H239843   2.399   4.533   7.162  0.6754  2.1403  0.1628
 6070TIP3   OH239844   5.166   4.152   7.958 -0.5513  0.2565 -0.5563
 6070TIP3    H139845   5.128   4.226   7.912  0.8609  1.7225  0.5209
 6070TIP3    H239846   5.246   4.131   7.908 -0.4927  0.0270 -0.3677
 6071TIP3   OH239847   1.170   6.146   7.516  0.8289  0.0628 -0.1199
 6071TIP3    H139848   1.081   6.125   7.487  0.5332  1.0037  0.0786
 6071TIP3    H239849   1.217   6.168   7.436  0.7339  0.0858 -0.1695
 6072TIP3   OH239850   5.786   0.972   8.146 -0.8888  0.0576 -0.4591
 6072TIP3    H139851   5.762   0.882   8.126 -0.7419  0.7224 -4.2847
 6072TIP3    H239852   5.878   0.979   8.122 -1.3026  1.5574 -1.8185
 6073TIP3   OH239853   0.236   5.028   0.798  0.0800 -0.4039 -0.4420
 6073TIP3    H139854   0.329   5.034   0.821  0.1101  0.7367 -0.7663
 6073TIP3    H239855   0.194   5.091   0.856  0.0808  2.0965 -2.9408
 6074TIP3   OH239856   5.812   0.320   1.160 -0.0880 -1.0913  0.0243
 6074TIP3    H139857   5.865   0.391   1.124  0.9852 -0.2997  2.9423
 6074TIP3    H239858   5.726   0.359   1.173 -0.8937 -1.7556 -2.6678
 6075TIP3   OH239859   5.249   5.150   0.666 -0.0895 -0.3431 -0.2034
 6075TIP3    H139860   5.204   5.084   0.613 -0.8164  0.7767 -1.0089
 6075TIP3    H239861   5.241   5.231   0.616 -2.8357  1.3276  2.6223
 6076TIP3   OH239862   5.185   4.376   0.514  0.3831 -0.3361  0.7542
 6076TIP3    H139863   5.245   4.371   0.587 -1.3974 -2.5918  2.1941
 6076TIP3    H239864   5.130   4.298   0.522 -0.8879  0.1229 -2.1155
 6077TIP3   OH239865   6.799   1.594   0.588  0.0314 -0.1857  0.4053
 6077TIP3    H139866   6.838   1.582   0.675  1.1386  1.2339  0.1459
 6077TIP3    H239867   6.707   1.568   0.599  0.0261  0.4215  2.1246
 6078TIP3   OH239868   5.656   2.237   1.524  0.4051 -0.4484  0.0790
 6078TIP3    H139869   5.660   2.156   1.473  1.3871  0.4466 -1.3408
 6078TIP3    H239870   5.741   2.280   1.508  0.2395  0.4725  1.4694
 6079TIP3   OH239871   1.840   0.203   1.736  0.1893 -0.2072 -0.1325
 6079TIP3    H139872   1.797   0.128   1.696 -1.5952  0.1507  0.9887
 6079TIP3    H239873   1.917   0.166   1.780  1.2654 -0.8202 -2.4113
 6080TIP3   OH239874   3.344   2.120   2.068  0.9650 -0.2469 -0.2265
 6080TIP3    H139875   3.400   2.189   2.032  0.5023  1.9216  2.9014
 6080TIP3    H239876   3.264   2.165   2.096 -1.7880 -2.9516 -2.8758
 6081TIP3   OH239877   0.949   6.726   8.136 -0.2384  0.0730 -0.0231
 6081TIP3    H139878   0.916   6.649   8.090  1.4165 -0.8803  0.2970
 6081TIP3    H239879   1.042   6.729   8.112 -0.2298  1.8692  0.1217
 6082TIP3   OH239880   0.887   6.003   8.470  0.0761 -0.4206 -0.3548
 6082TIP3    H139881   0.835   6.005   8.550  0.0389 -1.9202 -0.3158
 6082TIP3    H239882   0.904   5.910   8.454  1.5821 -0.0518 -1.1212
 6083TIP3   OH239883   0.370   0.460   8.086 -0.5771  0.1415  0.1753
 6083TIP3    H139884   0.440   0.397   8.102 -1.2812 -0.5227  0.7632
 6083TIP3    H239885   0.353   0.454   7.992 -0.8797 -0.8288  0.2811
 6084TIP3   OH239886   5.726   0.853   1.540  0.2694 -0.1360 -0.1419
 6084TIP3    H139887   5.788   0.916   1.504  0.5991 -0.0211  0.6027
 6084TIP3    H239888   5.728   0.779   1.478  2.2786 -0.7907  0.5973
 6085TIP3   OH239889   2.382   1.244   1.211 -0.0052 -0.2370 -0.4707
 6085TIP3    H139890   2.380   1.150   1.196 -1.6083 -0.1646 -0.9085
 6085TIP3    H239891   2.351   1.255   1.301  1.2444 -0.1749 -0.0334
 6086TIP3   OH239892   3.693   1.572   0.280 -0.0110 -0.2078  0.0868
 6086TIP3    H139893   3.786   1.591   0.295 -0.2485  0.4672  0.8344
 6086TIP3    H239894   3.677   1.491   0.328  0.3162 -0.6639 -0.5502
 6087TIP3   OH239895   4.548   4.403   8.712 -0.1779 -0.1977 -0.8831
 6087TIP3    H139896   4.455   4.382   8.700 -0.5886  0.9235  0.1652
 6087TIP3    H239897   4.591   4.318   8.717 -1.4095 -0.7872  0.5556
 6088TIP3   OH239898   5.096   3.141   8.320 -0.0827  0.0148  0.4965
 6088TIP3    H139899   5.115   3.214   8.261 -0.6646 -0.9350 -0.9168
 6088TIP3    H239900   5.141   3.066   8.281 -2.2789 -1.1236 -0.0143
 6089TIP3   OH239901   6.275   1.420   0.624  0.1506 -0.4192  0.0501
 6089TIP3    H139902   6.190   1.465   0.627 -0.1597 -0.9803 -0.1828
 6089TIP3    H239903   6.321   1.451   0.702 -0.4530 -0.4673  0.4310
 6090TIP3   OH239904   0.806   0.792   6.077  0.1783 -0.4808  0.3992
 6090TIP3    H139905   0.858   0.718   6.045 -1.1464 -2.1558  1.8867
 6090TIP3    H239906   0.765   0.759   6.157 -1.9637  1.2465  0.0995
 6091TIP3   OH239907   0.329   3.662   1.116 -0.2102  0.4612 -0.7473
 6091TIP3    H139908   0.283   3.671   1.199  1.0694 -0.5046  0.1067
 6091TIP3    H239909   0.267   3.619   1.058 -0.1517 -1.6048  0.6356
 6092TIP3   OH239910   5.968   1.073   7.287  0.1026  0.0987  0.1701
 6092TIP3    H139911   5.904   1.132   7.327 -0.0647  1.5940 -2.1444
 6092TIP3    H239912   5.933   0.985   7.303 -1.2779  0.7671  0.9984
 6093TIP3   OH239913   6.015   1.606   1.262 -0.2521  0.1859 -0.2412
 6093TIP3    H139914   6.076   1.573   1.328 -0.0528  0.0452 -0.4924
 6093TIP3    H239915   6.050   1.573   1.179 -0.6989  0.0589 -0.3840
 6094TIP3   OH239916   3.323   5.991   1.026  0.1733  0.0423 -0.4362
 6094TIP3    H139917   3.309   5.943   1.107 -0.1839  0.1829 -0.4101
 6094TIP3    H239918   3.406   5.958   0.991  0.6649  0.4594  0.3213
 6095TIP3   OH239919   3.484   1.631   7.320  0.0041 -0.6020  0.2838
 6095TIP3    H139920   3.429   1.583   7.257  2.3464 -1.5086 -1.2273
 6095TIP3    H239921   3.538   1.563   7.361  2.3794  0.4898 -0.8387
 6096TIP3   OH239922   3.459   3.457   0.989  0.3250 -0.1818  0.4664
 6096TIP3    H139923   3.483   3.413   1.071  1.5113  0.3115  0.4029
 6096TIP3    H239924   3.542   3.490   0.955 -0.2759  0.3456 -0.5149
 6097TIP3   OH239925   3.686   3.860   8.305  0.3819  0.5749  0.8921
 6097TIP3    H139926   3.717   3.917   8.235  0.7783 -0.9769 -0.2605
 6097TIP3    H239927   3.656   3.781   8.259  1.5255 -0.8847  2.5245
 6098TIP3   OH239928   0.229   4.950   1.570 -0.0100 -0.0702 -0.2976
 6098TIP3    H139929   0.148   4.944   1.621 -0.0354  0.6360 -0.2448
 6098TIP3    H239930   0.217   4.889   1.498 -0.4205 -0.2761 -0.0554
 6099TIP3   OH239931   5.574   5.617   7.029 -0.1573 -0.1354  0.3435
 6099TIP3    H139932   5.653   5.581   7.069  0.7796  0.1679 -1.1630
 6099TIP3    H239933   5.590   5.711   7.027 -0.3172 -0.1224 -0.4535
 6100TIP3   OH239934   0.580   4.492   0.106  0.4811 -0.1044 -0.3463
 6100TIP3    H139935   0.498   4.540   0.092  0.9701  0.8576  0.0602
 6100TIP3    H239936   0.571   4.415   0.050 -1.9541 -1.5496  1.7945
 6101TIP3   OH239937   5.245   4.412   1.961  0.1815 -0.4434  0.5601
 6101TIP3    H139938   5.181   4.480   1.942  2.5163  1.3896 -1.4586
 6101TIP3    H239939   5.230   4.345   1.894  0.3235 -0.0313  0.1094
 6102TIP3   OH239940   6.419   5.661   0.714  0.1812 -0.2871  0.1752
 6102TIP3    H139941   6.398   5.573   0.745 -0.9625  0.3145  1.2025
 6102TIP3    H239942   6.440   5.710   0.794 -1.2818  0.9088 -0.1420
 6103TIP3   OH239943   4.679   4.804   0.592 -0.4284  0.7125  0.0607
 6103TIP3    H139944   4.632   4.856   0.657 -0.3887 -0.9206  1.4696
 6103TIP3    H239945   4.611   4.769   0.535 -1.0731 -1.6817  2.1161
 6104TIP3   OH239946   4.108   5.234   8.401  0.1384 -0.0612 -0.6613
 6104TIP3    H139947   4.195   5.199   8.385 -0.3106 -2.3165  1.3846
 6104TIP3    H239948   4.118   5.291   8.478 -0.2483 -0.6346 -0.1807
 6105TIP3   OH239949   0.784   5.689   0.887  0.0667 -0.5177  0.1874
 6105TIP3    H139950   0.729   5.611   0.896 -0.3592 -0.1011  1.3617
 6105TIP3    H239951   0.867   5.664   0.927  0.3155 -0.7258 -0.4441
 6106TIP3   OH239952   4.315   1.722   8.700 -0.5882 -0.4283 -0.0058
 6106TIP3    H139953   4.248   1.656   8.720  1.2532 -2.9464 -1.6339
 6106TIP3    H239954   4.367   1.728   8.781 -1.2931 -0.2603  0.4476
 6107TIP3   OH239955   4.519   2.689   0.363 -0.0510  0.1361 -0.0032
 6107TIP3    H139956   4.585   2.648   0.307  0.5086  0.8210  0.1327
 6107TIP3    H239957   4.569   2.726   0.436 -0.5366  0.9670 -0.0759
 6108TIP3   OH239958   1.086   1.250   1.140  0.1671  0.4953 -0.1274
 6108TIP3    H139959   1.107   1.266   1.048  0.4107 -0.3666 -0.2310
 6108TIP3    H239960   1.015   1.311   1.160 -0.1458  0.4229 -0.9971
 6109TIP3   OH239961   2.234   6.380   2.047  0.2397 -0.1513  1.1308
 6109TIP3    H139962   2.281   6.321   1.988 -1.0562 -2.8154  2.6040
 6109TIP3    H239963   2.298   6.448   2.068  1.5447 -0.5223 -1.2649
 6110TIP3   OH239964   4.866   4.170   6.671  0.0458  0.3302  0.2792
 6110TIP3    H139965   4.899   4.085   6.644  0.2096 -0.0176  1.5430
 6110TIP3    H239966   4.779   4.176   6.631  1.4230  1.1518 -2.8756
 6111TIP3   OH239967   0.880   3.052   8.017  0.2647  0.3093  0.1201
 6111TIP3    H139968   0.799   3.046   8.067  0.7990  1.2906  1.1442
 6111TIP3    H239969   0.872   2.984   7.950 -1.9367  1.1800 -0.5943
 6112TIP3   OH239970   2.376   5.312   1.346 -0.1045  0.1403 -0.1789
 6112TIP3    H139971   2.387   5.261   1.427  2.3501  0.8017 -0.0375
 6112TIP3    H239972   2.390   5.249   1.276  2.0489  0.3639 -0.0089
 6113TIP3   OH239973   1.018   0.487   0.695  0.3571  0.3268  0.2333
 6113TIP3    H139974   0.977   0.432   0.762  1.8950  0.4762  1.3378
 6113TIP3    H239975   0.960   0.479   0.619 -0.6405 -1.0287  1.0919
 6114TIP3   OH239976   1.813   2.278   1.128  0.3078 -0.6351 -0.2955
 6114TIP3    H139977   1.835   2.318   1.212 -0.8826  0.9550 -0.6809
 6114TIP3    H239978   1.847   2.340   1.063  0.8850 -1.6560 -0.9842
 6115TIP3   OH239979   5.147   6.044   1.038 -0.2534  0.1643  0.4741
 6115TIP3    H139980   5.226   5.995   1.062 -0.2681 -1.5584 -2.5293
 6115TIP3    H239981   5.162   6.070   0.947 -1.7728  2.7995  0.8955
 6116TIP3   OH239982   6.524   4.927   0.338  0.3002 -0.1073  0.6251
 6116TIP3    H139983   6.463   4.854   0.346  1.2310 -0.8241  1.6330
 6116TIP3    H239984   6.469   5.005   0.343 -0.6642 -0.7244  0.0428
 6117TIP3   OH239985   4.083   4.405   1.333  0.5291  0.0368  0.0569
 6117TIP3    H139986   4.136   4.392   1.255  0.5846 -1.2613  0.2900
 6117TIP3    H239987   4.104   4.331   1.389 -1.9487 -0.8600 -0.0762
 6118TIP3   OH239988   3.980   6.689   8.744  0.6212  0.3147 -0.0764
 6118TIP3    H139989   3.909   6.727   8.692 -1.3355 -1.5964  1.0275
 6118TIP3    H239990   4.005   6.759   8.804 -1.6458  0.5178  0.7321
 6119TIP3   OH239991   5.369   4.909   0.524 -0.2576 -0.1487 -0.2359
 6119TIP3    H139992   5.441   4.960   0.562 -2.0204  1.4444  1.1580
 6119TIP3    H239993   5.335   4.857   0.596  0.3362 -1.9668 -1.2264
 6120TIP3   OH239994   0.622   2.723   0.676 -0.2126 -0.0089  0.3689
 6120TIP3    H139995   0.558   2.653   0.689 -0.6727  0.5932  1.5305
 6120TIP3    H239996   0.661   2.736   0.762  2.1617 -0.9647 -0.5005
 6121TIP3   OH239997   3.795   3.906   0.700  0.4176 -0.4417 -0.1402
 6121TIP3    H139998   3.886   3.890   0.676  0.7219  1.4116 -0.3799
 6121TIP3    H239999   3.799   3.949   0.786 -0.2465 -0.6231 -0.0065
 6122TIP3   OH240000   0.696   5.429   2.006  0.1982  0.2743  0.1948
 6122TIP3    H140001   0.712   5.518   1.974  0.5663  0.3417  0.5545
 6122TIP3    H240002   0.687   5.439   2.101 -0.5117  0.0264  0.1642
 6123TIP3   OH240003   5.796   5.088   0.155  0.4111 -0.2111  0.3897
 6123TIP3    H140004   5.814   5.009   0.105 -1.7542 -0.4847 -0.0582
 6123TIP3    H240005   5.769   5.152   0.088  0.6757  0.4457  0.9020
 6124TIP3   OH240006   0.825   1.539   1.929  0.4700 -0.2672  0.3900
 6124TIP3    H140007   0.873   1.470   1.884 -0.6429  0.2573 -1.7163
 6124TIP3    H240008   0.758   1.566   1.867 -0.9433  0.7634  2.2589
 6125TIP3   OH240009   3.428   4.590   1.623 -0.3980  0.2445 -0.1111
 6125TIP3    H140010   3.424   4.549   1.710 -1.0322 -1.1067 -0.7422
 6125TIP3    H240011   3.351   4.648   1.621 -0.5890 -0.0007  0.0904
 6126TIP3   OH240012   3.791   1.242   6.696  0.2834 -0.5572  0.3719
 6126TIP3    H140013   3.738   1.309   6.654  0.1468 -1.4063 -0.8545
 6126TIP3    H240014   3.798   1.172   6.631  1.6845 -1.0888  1.0427
 6127TIP3   OH240015   4.519   0.752   6.346  0.2018 -0.3297 -0.0025
 6127TIP3    H140016   4.487   0.668   6.380  0.3049 -0.5923 -0.5408
 6127TIP3    H240017   4.450   0.814   6.367 -0.7080 -0.8959 -1.1893
 6128TIP3   OH240018   5.285   2.176   1.019  0.2202  0.3867 -0.4834
 6128TIP3    H140019   5.299   2.100   1.076  0.5092  0.5150 -0.3796
 6128TIP3    H240020   5.217   2.227   1.062  1.4896  1.2649  0.5471
 6129TIP3   OH240021   3.573   5.132   1.700  0.3533  0.1648  0.2324
 6129TIP3    H140022   3.589   5.045   1.736 -0.0325  0.5850  1.4429
 6129TIP3    H240023   3.619   5.131   1.616  2.4459 -0.3848  1.3066
 6130TIP3   OH240024   5.474   0.040   8.525  0.4795 -0.0242 -0.3860
 6130TIP3    H140025   5.555   0.001   8.557  0.8341  2.1761  1.6479
 6130TIP3    H240026   5.411  -0.032   8.526  1.5331 -0.9922  1.4406
 6131TIP3   OH240027   1.122   5.471   6.830  0.0561 -0.3118  0.4779
 6131TIP3    H140028   1.115   5.423   6.748  0.2490  0.3910  0.0492
 6131TIP3    H240029   1.213   5.502   6.833 -0.3961  1.1199  0.1258
 6132TIP3   OH240030   2.432   4.129   8.753 -0.7139  0.3513 -0.7836
 6132TIP3    H140031   2.420   4.199   8.818 -0.1896  0.1007 -0.4087
 6132TIP3    H240032   2.461   4.054   8.804 -3.1760 -0.7738 -0.8902
 6133TIP3   OH240033   2.909   0.271   7.565 -0.1599 -0.2347  0.1281
 6133TIP3    H140034   2.928   0.182   7.593 -1.0488 -0.8884 -1.2588
 6133TIP3    H240035   2.958   0.326   7.627 -2.9853 -1.4683  3.8146
 6134TIP3   OH240036   2.896   1.915   6.654 -0.0835 -0.0215  0.0697
 6134TIP3    H140037   2.987   1.933   6.632 -0.2732 -0.3139 -0.9978
 6134TIP3    H240038   2.893   1.919   6.750  1.5876 -2.4893  0.3029
 6135TIP3   OH240039   4.388   2.295   0.720 -0.2064 -0.6987  0.0806
 6135TIP3    H140040   4.444   2.311   0.796 -0.0001 -0.7701 -0.0552
 6135TIP3    H240041   4.408   2.368   0.661 -1.1633 -0.0435  0.5510
 6136TIP3   OH240042   4.805   3.661   6.851 -0.3533 -0.1107 -0.1435
 6136TIP3    H140043   4.781   3.753   6.863 -1.7342 -0.3851 -0.6385
 6136TIP3    H240044   4.806   3.648   6.756  2.7405  0.0817 -0.2373
 6137TIP3   OH240045   5.702   3.263   7.367 -0.0326 -0.3402 -0.1641
 6137TIP3    H140046   5.791   3.299   7.371 -0.2146  0.0620  0.3672
 6137TIP3    H240047   5.678   3.267   7.275  0.4442 -0.3086 -0.2896
 6138TIP3   OH240048   5.302   6.794   6.899 -0.3233 -0.2823  0.8236
 6138TIP3    H140049   5.283   6.778   6.806  1.0216  0.5805  0.3629
 6138TIP3    H240050   5.284   6.887   6.911  0.1758 -0.2361  1.2412
 6139TIP3   OH240051   1.546   4.779   7.265 -0.2338  0.4159  0.2743
 6139TIP3    H140052   1.540   4.819   7.178 -2.3679 -1.6981 -0.6651
 6139TIP3    H240053   1.504   4.843   7.323 -3.2577 -0.1316 -1.1263
 6140TIP3   OH240054   5.481   3.525   6.946  0.4642  0.0327 -0.4704
 6140TIP3    H140055   5.476   3.620   6.940  0.2780  0.0560  0.0120
 6140TIP3    H240056   5.541   3.499   6.876 -1.1305  0.3187 -1.9951
 6141TIP3   OH240057   1.470   4.894   7.029  0.1367  0.1987  0.0997
 6141TIP3    H140058   1.494   4.912   6.938  1.4190 -2.2149 -0.1183
 6141TIP3    H240059   1.398   4.831   7.022 -0.6065  0.9487  0.7888
 6142TIP3   OH240060   5.990   6.626   8.051  0.3840  0.6174 -0.0127
 6142TIP3    H140061   5.905   6.649   8.088  0.4191  1.4684 -0.4395
 6142TIP3    H240062   6.043   6.705   8.063  0.4245  0.8966 -1.7584
 6143TIP3   OH240063   5.966   2.646   6.640 -0.5000  0.4906  0.3150
 6143TIP3    H140064   5.932   2.556   6.641  1.0315 -0.1569  2.2604
 6143TIP3    H240065   6.037   2.644   6.576 -0.5463  0.3430  0.2681
 6144TIP3   OH240066   1.558   2.336   0.285 -0.2498  0.4596  0.3140
 6144TIP3    H140067   1.545   2.417   0.236 -0.1946  1.0418  1.2321
 6144TIP3    H240068   1.523   2.355   0.372 -1.3980 -0.9231  0.1976
 6145TIP3   OH240069   3.726   0.312   1.178 -0.8549  0.1294  0.6689
 6145TIP3    H140070   3.790   0.286   1.245 -1.5453  0.6041  1.5337
 6145TIP3    H240071   3.708   0.232   1.129  1.2294  0.1981 -0.3298
 6146TIP3   OH240072   5.167   3.125   6.028 -0.1362  0.6351  1.2250
 6146TIP3    H140073   5.116   3.205   6.015  0.6250  1.1291  1.1835
 6146TIP3    H240074   5.137   3.090   6.112  1.5594  2.5674  2.7193
 6147TIP3   OH240075   3.539   2.603   8.407  0.4724  0.4654 -0.7900
 6147TIP3    H140076   3.591   2.523   8.397  2.2287  1.6301 -1.4785
 6147TIP3    H240077   3.454   2.582   8.367  1.4606 -0.5375 -2.4895
 6148TIP3   OH240078   1.675   5.680   1.605  0.1454 -0.5641 -0.2096
 6148TIP3    H140079   1.587   5.647   1.625  1.1692 -2.4455  1.4902
 6148TIP3    H240080   1.714   5.614   1.549  0.5118  0.2745 -0.9706
 6149TIP3   OH240081   2.924   5.829   2.718 -0.1299  0.0274 -0.5419
 6149TIP3    H140082   2.966   5.915   2.723 -2.7059  1.3559 -0.1357
 6149TIP3    H240083   2.918   5.810   2.624  1.0822 -0.0730 -0.6112
 6150TIP3   OH240084   1.022   6.050   1.979 -0.5622 -0.4157 -0.0615
 6150TIP3    H140085   0.928   6.065   1.995 -0.3788  1.5769 -0.5626
 6150TIP3    H240086   1.066   6.096   2.050  0.0664 -2.3966  0.8861
 6151TIP3   OH240087   1.292   6.599   1.510  0.5576  0.1993 -0.5470
 6151TIP3    H140088   1.228   6.641   1.453 -0.4657  0.4622  0.7209
 6151TIP3    H240089   1.269   6.506   1.508 -0.3482  0.3733  0.4185
 6152TIP3   OH240090   6.171   6.060   1.402  0.2112  0.5457 -0.0442
 6152TIP3    H140091   6.187   6.153   1.383 -0.7076  0.6688 -0.2779
 6152TIP3    H240092   6.233   6.013   1.346  0.8910  1.0232  0.3008
 6153TIP3   OH240093   0.465   2.249   1.301  0.3074 -0.6485  0.6635
 6153TIP3    H140094   0.452   2.286   1.388  2.4815 -2.7192  2.0196
 6153TIP3    H240095   0.395   2.184   1.291 -1.2480  1.0696 -0.1341
 6154TIP3   OH240096   3.618   5.304   2.476  0.2361  0.3042 -0.7102
 6154TIP3    H140097   3.704   5.320   2.515 -1.4626  0.2447  3.6211
 6154TIP3    H240098   3.565   5.379   2.503 -1.7403 -0.9541 -0.8632
 6155TIP3   OH240099   4.434   2.262   7.604 -0.1774  0.1420 -0.7067
 6155TIP3    H140100   4.484   2.181   7.593 -1.3316 -0.4512 -1.7619
 6155TIP3    H240101   4.468   2.320   7.536 -0.6718 -0.1325 -1.1885
 6156TIP3   OH240102   4.830   4.734   0.810  0.5271  0.2555  0.1609
 6156TIP3    H140103   4.783   4.729   0.726 -1.1254  1.5236  0.9588
 6156TIP3    H240104   4.859   4.825   0.816 -1.5517  0.8695  2.0466
 6157TIP3   OH240105   5.368   3.002   8.392  0.1963 -0.3396 -0.0219
 6157TIP3    H140106   5.434   2.960   8.447 -1.8322 -2.2754  1.1099
 6157TIP3    H240107   5.384   3.096   8.403  3.0034 -0.7253 -0.2049
 6158TIP3   OH240108   4.929   2.758   8.413 -0.1459 -0.2022 -0.2611
 6158TIP3    H140109   4.838   2.732   8.425 -0.0116 -0.1579  0.9843
 6158TIP3    H240110   4.925   2.846   8.377 -0.5966 -0.4202 -0.7415
 6159TIP3   OH240111   5.435   4.564   1.761  0.3891 -0.2297  0.0412
 6159TIP3    H140112   5.389   4.595   1.683  0.3138  0.9984  0.5550
 6159TIP3    H240113   5.365   4.535   1.820 -0.0213  3.5775  1.6760
 6160TIP3   OH240114   0.405   3.405   7.254  0.2448  0.3170 -0.2001
 6160TIP3    H140115   0.451   3.443   7.329 -0.3339  0.7588 -0.0615
 6160TIP3    H240116   0.469   3.407   7.183  0.5914  0.4823  0.1174
 6161TIP3   OH240117   5.025   2.243   6.435  0.3347  0.6300 -0.4006
 6161TIP3    H140118   4.976   2.161   6.448  0.5487  0.6751  0.7424
 6161TIP3    H240119   4.986   2.281   6.356 -0.3182 -0.1772 -0.4823
 6162TIP3   OH240120   2.370   1.758   8.591 -0.0679  0.2715  0.2755
 6162TIP3    H140121   2.301   1.768   8.657  0.1090  0.5709  0.4186
 6162TIP3    H240122   2.337   1.805   8.515 -0.0094  0.4433  0.3550
 6163TIP3   OH240123   2.791   3.993   7.641  0.2175 -0.3157  0.1269
 6163TIP3    H140124   2.855   3.968   7.708  1.6545 -0.1941 -1.1481
 6163TIP3    H240125   2.731   4.052   7.686  0.5267 -1.0442  1.5614
 6164TIP3   OH240126   2.881   4.477   6.377 -0.3554  0.1754  0.3598
 6164TIP3    H140127   2.831   4.500   6.456 -0.9786  1.2321 -0.3129
 6164TIP3    H240128   2.909   4.562   6.342 -0.1890 -0.2806 -0.6215
 6165TIP3   OH240129   5.674   1.690   7.909  0.2939  0.0857  0.2936
 6165TIP3    H140130   5.664   1.620   7.844  4.4935 -0.3630 -0.1678
 6165TIP3    H240131   5.655   1.648   7.993 -0.1091 -0.8029 -0.2255
 6166TIP3   OH240132   4.411   0.230   0.317 -0.2156  0.3815 -0.1720
 6166TIP3    H140133   4.456   0.299   0.367  0.2681 -0.3689  0.4466
 6166TIP3    H240134   4.479   0.166   0.298 -1.1960 -1.4049  1.8743
 6167TIP3   OH240135   2.682   0.672   0.246  0.4059  0.1488  0.3277
 6167TIP3    H140136   2.770   0.635   0.245 -0.2591 -1.5242 -0.7545
 6167TIP3    H240137   2.695   0.763   0.272  2.2603 -0.4732  1.8766
 6168TIP3   OH240138   2.849   1.357   6.993  0.3287 -0.1587  0.6328
 6168TIP3    H140139   2.857   1.321   6.905 -0.0237  1.6117 -0.1756
 6168TIP3    H240140   2.938   1.359   7.027  0.5114 -0.5512  0.1789
 6169TIP3   OH240141   2.112   1.110   1.678  0.2967  0.0874 -0.2235
 6169TIP3    H140142   2.072   1.113   1.765 -0.1370 -1.2732 -0.3525
 6169TIP3    H240143   2.046   1.150   1.621 -0.8828 -1.9654 -0.4021
 6170TIP3   OH240144   0.041   0.080   2.031 -0.6929  0.0419  0.1139
 6170TIP3    H140145  -0.047   0.045   2.014 -1.2269  0.6898  1.4392
 6170TIP3    H240146   0.028   0.146   2.099  0.9035 -0.2426  0.7245
 6171TIP3   OH240147   0.359   0.733   7.296 -0.4076  0.2412 -0.1464
 6171TIP3    H140148   0.305   0.786   7.237  2.2359  4.5401  0.8367
 6171TIP3    H240149   0.316   0.742   7.381 -0.0095  0.7961  0.0025
 6172TIP3   OH240150   5.670   3.329   2.696 -0.1422  0.1368  0.0826
 6172TIP3    H140151   5.716   3.246   2.692 -1.4907 -0.6436  0.1474
 6172TIP3    H240152   5.583   3.307   2.731 -0.3113  1.6615  0.7006
 6173TIP3   OH240153   2.336   4.482   1.009 -0.0052 -0.5038 -0.1836
 6173TIP3    H140154   2.274   4.533   1.062 -2.2327 -2.0191 -1.1978
 6173TIP3    H240155   2.347   4.534   0.929  2.2903  1.1070  1.0620
 6174TIP3   OH240156   2.171   3.163   8.437  0.1420 -0.2007 -0.7612
 6174TIP3    H140157   2.180   3.245   8.486 -0.3361 -1.3016  1.2543
 6174TIP3    H240158   2.154   3.191   8.347 -1.1421  1.9293  0.0738
 6175TIP3   OH240159   1.639   4.014   1.007  0.0297 -0.5286 -0.0720
 6175TIP3    H140160   1.705   4.000   0.940  0.4427  0.0495  0.2048
 6175TIP3    H240161   1.689   4.043   1.084 -0.6879  1.7571 -0.3990
 6176TIP3   OH240162   0.449   3.090   6.534 -0.3466 -0.3721 -0.2966
 6176TIP3    H140163   0.536   3.128   6.520  0.4898 -2.4164 -1.0608
 6176TIP3    H240164   0.460   3.034   6.611 -0.9845 -0.6241 -0.3878
 6177TIP3   OH240165   4.744   0.432   7.499 -0.3759  0.6138 -0.2761
 6177TIP3    H140166   4.797   0.483   7.438 -1.1199  3.3204  1.1693
 6177TIP3    H240167   4.655   0.440   7.466 -0.4592 -0.0530 -0.2162
 6178TIP3   OH240168   1.312   0.113   7.250 -0.1031  0.1698 -0.2446
 6178TIP3    H140169   1.253   0.054   7.297  0.8514 -0.5139  0.1338
 6178TIP3    H240170   1.284   0.201   7.275 -2.0592 -0.0581 -1.4237
 6179TIP3   OH240171   6.220   3.794   0.668  0.1867  0.4024 -0.5781
 6179TIP3    H140172   6.221   3.868   0.607  1.2784 -0.3152 -1.4719
 6179TIP3    H240173   6.141   3.807   0.720  0.6708  2.5224 -0.2942
 6180TIP3   OH240174   3.215   2.808   0.223 -0.0294 -0.3911 -0.1065
 6180TIP3    H140175   3.284   2.838   0.164  0.3894 -1.4966 -0.1974
 6180TIP3    H240176   3.157   2.755   0.168 -0.5279 -0.1081  0.1337
 6181TIP3   OH240177   3.643   4.236   8.139 -0.3618 -0.1549 -0.8460
 6181TIP3    H140178   3.688   4.162   8.099  0.1086 -0.0140 -0.5906
 6181TIP3    H240179   3.656   4.308   8.077  5.1475  1.6587  1.7631
 6182TIP3   OH240180   0.512   2.141   1.989  0.0967  0.3256 -0.0628
 6182TIP3    H140181   0.580   2.137   2.055  1.0290 -1.2361 -1.0379
 6182TIP3    H240182   0.539   2.077   1.922 -2.6028 -0.8572 -0.1937
 6183TIP3   OH240183   2.658   0.806   0.704 -0.2466 -0.3314  0.1530
 6183TIP3    H140184   2.695   0.730   0.659  2.0352  1.1204 -0.5638
 6183TIP3    H240185   2.728   0.838   0.761 -0.7003  1.8831 -0.4204
 6184TIP3   OH240186   1.029   4.152   7.393 -0.5594 -0.0537  0.2236
 6184TIP3    H140187   1.040   4.189   7.305 -0.9546  0.8599  0.5398
 6184TIP3    H240188   0.970   4.078   7.381 -1.4644  0.7035 -0.1470
 6185TIP3   OH240189   0.653   5.519   7.944 -0.4738 -0.2718 -0.2350
 6185TIP3    H140190   0.728   5.474   7.904  1.1955  0.2441  2.0749
 6185TIP3    H240191   0.665   5.611   7.920 -0.0967 -0.1291  0.4597
 6186TIP3   OH240192   3.001   0.105   1.371  0.2713 -0.8261 -0.2427
 6186TIP3    H140193   2.971   0.155   1.448 -0.1603  1.7039 -1.9414
 6186TIP3    H240194   3.032   0.022   1.408  0.6543  0.4867  2.7457
 6187TIP3   OH240195   0.357   4.088   8.552  0.4349 -0.4574 -0.2707
 6187TIP3    H140196   0.262   4.097   8.557  0.4559 -0.9539  1.5876
 6187TIP3    H240197   0.385   4.165   8.503 -0.8428  0.2478  0.0457
 6188TIP3   OH240198   6.206   2.493   0.801 -0.1463 -0.1864 -0.7055
 6188TIP3    H140199   6.142   2.548   0.756 -2.3284 -2.1850 -0.2773
 6188TIP3    H240200   6.208   2.527   0.891 -0.9782 -0.3513 -0.6125
 6189TIP3   OH240201   5.066   2.988   7.660  0.9258 -0.7589  0.2495
 6189TIP3    H140202   5.119   3.065   7.681 -1.3046  0.2787  2.6747
 6189TIP3    H240203   4.975   3.020   7.664 -0.0319 -3.1799 -0.3046
 6190TIP3   OH240204   2.282   4.560   6.103  0.8693  0.0385  0.3302
 6190TIP3    H140205   2.209   4.607   6.144 -0.0335  0.6763 -1.8753
 6190TIP3    H240206   2.359   4.613   6.122 -0.0711  2.3119 -1.7775
 6191TIP3   OH240207   2.653   4.920   1.089 -0.3138  0.5944  0.5090
 6191TIP3    H140208   2.685   5.006   1.060 -2.0639  0.8713 -0.7238
 6191TIP3    H240209   2.569   4.938   1.130 -0.2483 -0.4427  1.1425
 6192TIP3   OH240210   1.039   0.680   7.136 -0.2680  0.4614 -0.0996
 6192TIP3    H140211   1.134   0.692   7.144 -0.2301  0.2586 -0.2224
 6192TIP3    H240212   1.014   0.635   7.217 -0.6473  2.6267  1.0591
 6193TIP3   OH240213   1.150   2.810   7.928 -0.7706 -0.4815  1.0506
 6193TIP3    H140214   1.239   2.828   7.897 -0.8813  0.4921  1.2794
 6193TIP3    H240215   1.158   2.812   8.023 -1.1227  0.0652  1.0698
 6194TIP3   OH240216   2.290   3.935   7.875  0.3562  0.6323  0.1517
 6194TIP3    H140217   2.380   3.902   7.868  0.8128  2.0206 -1.2301
 6194TIP3    H240218   2.238   3.874   7.823  0.3496 -0.5067  1.4172
 6195TIP3   OH240219   1.029   5.166   7.713  0.5705 -0.4343  0.0705
 6195TIP3    H140220   0.933   5.166   7.720  0.5734 -0.3479  0.1119
 6195TIP3    H240221   1.047   5.122   7.630  0.4904 -0.3523  0.0103
 6196TIP3   OH240222   0.304   2.788   7.495 -0.3672  0.2594 -0.0294
 6196TIP3    H140223   0.292   2.848   7.421 -1.4367 -2.3720 -2.1692
 6196TIP3    H240224   0.216   2.775   7.531 -0.5128 -1.4813 -0.9049
 6197TIP3   OH240225   5.529   0.500   8.287 -0.5969 -0.1256 -0.4553
 6197TIP3    H140226   5.529   0.416   8.331 -0.9890  0.3112  0.3968
 6197TIP3    H240227   5.611   0.502   8.238  1.0505  0.3287  2.1187
 6198TIP3   OH240228   2.031   2.542   0.779  0.0541  0.7069 -0.5005
 6198TIP3    H140229   1.967   2.537   0.708  0.7032  1.2688 -1.1544
 6198TIP3    H240230   2.086   2.465   0.767 -2.0048 -1.2267  1.6344
 6199TIP3   OH240231   2.796   5.724   6.416 -0.0153  0.3648  0.1273
 6199TIP3    H140232   2.748   5.675   6.483 -1.3211 -0.7616 -1.5434
 6199TIP3    H240233   2.802   5.664   6.342  0.6654  1.8456 -1.0734
 6200TIP3   OH240234   5.456   3.986   6.664  0.1320  0.0171  0.7468
 6200TIP3    H140235   5.393   3.979   6.735  0.3308  0.0795  0.9317
 6200TIP3    H240236   5.463   4.080   6.647 -1.0350 -0.0763 -0.3734
 6201TIP3   OH240237   1.295   2.900   7.599 -0.2243 -0.2994  0.2300
 6201TIP3    H140238   1.363   2.833   7.610 -1.9255 -1.8087  2.4095
 6201TIP3    H240239   1.218   2.852   7.571 -1.6224  0.6032  2.2804
 6202TIP3   OH240240   4.032   5.992   1.545 -0.6150  0.2743 -0.1212
 6202TIP3    H140241   4.048   5.900   1.526 -0.4531 -0.0069  1.3007
 6202TIP3    H240242   3.949   6.012   1.502 -1.5490 -1.0079  1.0336
 6203TIP3   OH240243   1.556   5.199   1.381 -0.0488 -1.0789 -0.2259
 6203TIP3    H140244   1.500   5.242   1.445 -0.1246  0.2621 -1.1394
 6203TIP3    H240245   1.501   5.189   1.303  1.0948  0.9671 -1.4143
 6204TIP3   OH240246   0.028   5.628   8.026 -0.2014 -0.0452  0.3338
 6204TIP3    H140247   0.107   5.659   7.983  0.1595 -1.5966 -0.2076
 6204TIP3    H240248   0.027   5.671   8.111  0.4290  1.1180 -0.2341
 6205TIP3   OH240249   2.806   0.491   7.087 -0.3445 -0.2912  0.3347
 6205TIP3    H140250   2.798   0.440   7.007 -0.0661 -1.1980  0.8767
 6205TIP3    H240251   2.857   0.436   7.147  1.1961  1.1629  0.4668
 6206TIP3   OH240252   4.152   6.147   0.835  0.1362  0.3001  0.2368
 6206TIP3    H140253   4.192   6.114   0.754  0.4211  0.7189  0.2053
 6206TIP3    H240254   4.227   6.165   0.892 -0.0042  1.1415  0.1597
 6207TIP3   OH240255   2.773   3.565   0.963 -0.1378  0.1680  0.1745
 6207TIP3    H140256   2.728   3.484   0.988 -0.4610  0.9595  2.4173
 6207TIP3    H240257   2.708   3.614   0.912 -2.0586  1.3030  3.3832
 6208TIP3   OH240258   5.833   3.685   8.483  0.2832 -0.3928  0.4493
 6208TIP3    H140259   5.782   3.718   8.557 -0.2076 -0.2578  0.0564
 6208TIP3    H240260   5.767   3.652   8.421  0.7376 -1.6883  0.6263
 6209TIP3   OH240261   0.531   5.349   1.760  0.4182 -0.5083  0.0388
 6209TIP3    H140262   0.601   5.363   1.824 -0.6733  0.0105  1.1561
 6209TIP3    H240263   0.455   5.391   1.798 -0.1195  0.4186 -1.9329
 6210TIP3   OH240264   5.865   4.198   7.565 -0.0736  0.5749 -0.0623
 6210TIP3    H140265   5.873   4.229   7.475 -1.5475  1.8463  0.1995
 6210TIP3    H240266   5.949   4.156   7.584  0.7468  1.4676 -1.5751
 6211TIP3   OH240267   2.331   2.350   0.495 -0.2906 -0.3325 -0.3757
 6211TIP3    H140268   2.380   2.331   0.575 -1.1481 -0.8876  0.0256
 6211TIP3    H240269   2.334   2.446   0.487 -1.4883 -0.1304  1.1652
 6212TIP3   OH240270   5.638   5.003   0.382 -0.0044  0.0666 -0.4091
 6212TIP3    H140271   5.705   4.975   0.445  0.3131  1.1822 -0.2237
 6212TIP3    H240272   5.672   4.977   0.297 -0.7556 -2.0897 -0.1124
 6213TIP3   OH240273   1.658   1.476   1.642 -0.3150  0.2610  0.1783
 6213TIP3    H140274   1.660   1.538   1.569 -0.4723 -0.4743 -0.4680
 6213TIP3    H240275   1.719   1.512   1.706  2.5715 -0.8316 -1.7604
 6214TIP3   OH240276   1.085   2.993   1.355 -0.0303  0.2363 -0.0593
 6214TIP3    H140277   1.144   3.052   1.403  1.4571 -1.7135  0.6687
 6214TIP3    H240278   1.026   2.959   1.423  0.6915 -0.9084  0.0114
 6215TIP3   OH240279   0.869   3.477   1.724  0.4665  0.1085  0.5730
 6215TIP3    H140280   0.883   3.553   1.668  0.9380 -0.9769 -0.8311
 6215TIP3    H240281   0.781   3.446   1.702  0.8376 -0.6063  0.0412
 6216TIP3   OH240282   5.625   4.535   6.860 -0.4134 -0.7576  0.2050
 6216TIP3    H140283   5.575   4.470   6.810  2.2670 -1.4955 -1.7933
 6216TIP3    H240284   5.694   4.484   6.902  0.8487  0.5973 -0.1516
 6217TIP3   OH240285   5.095   3.815   6.825  0.0927 -0.2271  0.5900
 6217TIP3    H140286   5.056   3.872   6.758 -1.6382 -1.0277  0.8668
 6217TIP3    H240287   5.176   3.860   6.850 -1.1727  2.1087  0.7802
 6218TIP3   OH240288   1.600   6.833   8.703 -0.0786  0.4774  0.0202
 6218TIP3    H140289   1.533   6.881   8.751 -0.3866  0.8731 -0.8026
 6218TIP3    H240290   1.652   6.901   8.660 -0.7218  0.0851 -1.4326
 6219TIP3   OH240291   5.449   5.145   1.417 -0.4378  0.6318 -0.7257
 6219TIP3    H140292   5.514   5.154   1.486  0.9103  3.9052 -2.2035
 6219TIP3    H240293   5.368   5.179   1.456 -0.4729 -0.3093  0.0752
 6220TIP3   OH240294   0.205   2.382   7.601  0.6278 -0.0341  0.1832
 6220TIP3    H140295   0.142   2.429   7.546  0.7213  1.3433  1.2164
 6220TIP3    H240296   0.151   2.321   7.651  0.1247  0.9046  0.8153
 6221TIP3   OH240297   5.999   3.312   1.292 -0.4960  0.1445  0.2659
 6221TIP3    H140298   6.088   3.316   1.326 -1.0500  1.5615  1.6589
 6221TIP3    H240299   5.975   3.220   1.297 -0.3325  0.1765  3.2752
 6222TIP3   OH240300   5.827   1.831   0.882  0.2452  0.0884 -0.3421
 6222TIP3    H140301   5.905   1.780   0.859  2.3841  1.8952  2.2555
 6222TIP3    H240302   5.856   1.922   0.878 -1.8494  0.8387  0.3692
 6223TIP3   OH240303   0.404   4.888   7.227  0.1716 -0.1676 -0.2151
 6223TIP3    H140304   0.332   4.845   7.181 -0.1603 -0.2559  0.3783
 6223TIP3    H240305   0.406   4.845   7.313  1.2020 -0.4575 -0.3730
 6224TIP3   OH240306   0.511   0.681   0.710  0.7075  0.2395  0.5047
 6224TIP3    H140307   0.540   0.627   0.783 -1.4421 -1.2471  0.3377
 6224TIP3    H240308   0.442   0.736   0.746 -0.8153 -0.9570 -0.4795
 6225TIP3   OH240309   1.393   5.257   8.206  0.3248  0.0474  0.2150
 6225TIP3    H140310   1.357   5.217   8.126  0.5482  0.6073 -0.1660
 6225TIP3    H240311   1.365   5.348   8.202  0.5778  0.1459  0.6373
 6226TIP3   OH240312   3.373   5.706   0.308 -0.1132 -0.3388 -0.9522
 6226TIP3    H140313   3.368   5.610   0.300  1.6522 -0.5534  0.0040
 6226TIP3    H240314   3.405   5.735   0.223 -0.0684 -0.6690 -1.0521
 6227TIP3   OH240315   2.100   1.559   8.401  0.1915 -0.2996  0.0347
 6227TIP3    H140316   2.026   1.567   8.340 -0.3554 -0.1637  0.7026
 6227TIP3    H240317   2.164   1.622   8.369  1.7934 -3.0919 -2.9504
 6228TIP3   OH240318   6.474   2.567   1.292  0.6757  0.5278  0.1614
 6228TIP3    H140319   6.535   2.493   1.293 -0.9403 -0.9325 -1.9016
 6228TIP3    H240320   6.516   2.631   1.235  0.1299 -0.6808 -1.6790
 6229TIP3   OH240321   0.565   2.146   2.515  0.2989 -0.7430 -0.2040
 6229TIP3    H140322   0.633   2.079   2.512  0.1292 -1.0602  1.7714
 6229TIP3    H240323   0.483   2.096   2.515  0.0677 -0.4030 -1.3513
 6230TIP3   OH240324   3.949   5.851   7.946  0.1752 -0.4607 -0.5719
 6230TIP3    H140325   3.932   5.942   7.923 -1.3085 -0.3589  0.7548
 6230TIP3    H240326   3.999   5.856   8.027 -0.3231 -0.8063 -0.2351
 6231TIP3   OH240327   5.633   6.100   7.916 -0.6266 -0.1943 -0.6380
 6231TIP3    H140328   5.628   6.122   8.009  0.2924 -1.5476 -0.2268
 6231TIP3    H240329   5.719   6.061   7.906 -0.7728 -0.1928 -2.0401
 6232TIP3   OH240330   4.707   6.271   0.677  0.2509  0.3797 -0.0428
 6232TIP3    H140331   4.736   6.322   0.753  2.2574  2.0884 -1.8409
 6232TIP3    H240332   4.651   6.202   0.715  0.4832  1.6335  2.8642
 6233TIP3   OH240333   0.964   4.304   7.811 -0.1074  0.1137  0.6723
 6233TIP3    H140334   0.991   4.233   7.753 -1.0411 -0.5690  1.0404
 6233TIP3    H240335   0.869   4.305   7.804 -0.0553  2.6610 -0.8561
 6234TIP3   OH240336   3.107   1.376   2.355 -0.0199 -0.1285 -0.0520
 6234TIP3    H140337   3.179   1.360   2.416  0.3631  1.4215 -0.0824
 6234TIP3    H240338   3.078   1.465   2.374 -1.0326 -0.2335 -0.9879
 6235TIP3   OH240339   3.204   5.303   1.933 -0.0792  0.3885  0.2389
 6235TIP3    H140340   3.170   5.343   1.853  0.7444 -0.1655 -0.4015
 6235TIP3    H240341   3.153   5.223   1.944  1.5892 -0.9668 -1.2726
 6236TIP3   OH240342   6.627   4.566   8.446  0.5739 -0.7639  0.4982
 6236TIP3    H140343   6.547   4.582   8.397  1.9201 -0.7371 -1.8763
 6236TIP3    H240344   6.668   4.652   8.454  0.5401 -0.8259  1.3936
 6237TIP3   OH240345   3.545   0.009   1.537  0.4941 -0.1264  0.0022
 6237TIP3    H140346   3.591   0.085   1.574  0.0725 -1.0756  2.7226
 6237TIP3    H240347   3.611  -0.036   1.484  1.9345  0.0021  1.6153
 6238TIP3   OH240348   5.509   0.697   7.407  0.7590 -0.3928 -0.4906
 6238TIP3    H140349   5.505   0.792   7.404  1.9739 -0.3280 -0.8520
 6238TIP3    H240350   5.586   0.678   7.462  0.3298 -1.1643 -0.1415
 6239TIP3   OH240351   4.668   2.745   8.533 -0.2591  0.2538  0.5093
 6239TIP3    H140352   4.681   2.768   8.625  0.7127 -1.5109  0.8587
 6239TIP3    H240353   4.648   2.652   8.534 -1.3497  0.4385 -1.0056
 6240TIP3   OH240354   3.421   0.359   7.098  0.4635  0.3858  0.8045
 6240TIP3    H140355   3.329   0.337   7.081  0.7608 -0.3267  0.0316
 6240TIP3    H240356   3.443   0.423   7.031  0.1016  1.7638  1.9667
 6241TIP3   OH240357   1.668   0.690   8.102  0.1491 -0.2703 -0.5862
 6241TIP3    H140358   1.682   0.778   8.136  2.0949 -0.3234 -1.1639
 6241TIP3    H240359   1.743   0.673   8.045 -1.0294 -1.6734 -1.8158
 6242TIP3   OH240360   5.492   6.241   8.600 -0.0526  0.1953 -0.1552
 6242TIP3    H140361   5.425   6.244   8.668  1.5638 -0.0097  1.5164
 6242TIP3    H240362   5.537   6.158   8.614  0.5522  0.3203 -1.2655
 6243TIP3   OH240363   0.174   4.533   0.767 -0.3699  0.1101 -0.2182
 6243TIP3    H140364   0.137   4.597   0.829 -2.1629 -0.2355 -0.8559
 6243TIP3    H240365   0.110   4.462   0.766  0.2381 -0.4443 -1.5578
 6244TIP3   OH240366   6.832   5.848   1.643  0.3891  0.1722 -0.7378
 6244TIP3    H140367   6.882   5.928   1.625  0.9642  0.7390  2.7377
 6244TIP3    H240368   6.796   5.861   1.730  0.0358 -3.1712 -0.2469
 6245TIP3   OH240369   3.709   2.486   0.041 -0.7947 -0.3710 -0.3082
 6245TIP3    H140370   3.626   2.468  -0.002 -0.3083  0.8606 -1.8662
 6245TIP3    H240371   3.702   2.577   0.071 -0.0238 -0.2613 -0.4362
 6246TIP3   OH240372   6.208   6.117   7.638 -0.4051  0.3276  0.3521
 6246TIP3    H140373   6.292   6.074   7.653  0.0216  0.5346 -1.2425
 6246TIP3    H240374   6.197   6.115   7.543 -1.7049  1.2500  0.4564
 6247TIP3   OH240375   4.567   4.552   6.726  1.1268 -0.1971 -0.3299
 6247TIP3    H140376   4.528   4.583   6.808  1.5815  1.7207 -0.7943
 6247TIP3    H240377   4.646   4.505   6.752  0.8221 -0.3423  0.3536
 6248TIP3   OH240378   4.491   3.881   8.720 -0.1055 -0.5053  0.2621
 6248TIP3    H140379   4.404   3.919   8.734  0.5758  0.5493  1.9380
 6248TIP3    H240380   4.504   3.824   8.795  0.5078 -0.9369 -0.1682
 6249TIP3   OH240381   5.569   1.895   1.985  0.3507 -0.1828  0.1541
 6249TIP3    H140382   5.532   1.825   2.038  0.7500 -0.3484  0.2159
 6249TIP3    H240383   5.570   1.861   1.895 -0.6751  0.2378 -0.0270
 6250TIP3   OH240384   1.162   3.834   7.281  0.5219 -0.5263  0.3433
 6250TIP3    H140385   1.134   3.864   7.194 -0.4577 -0.8722  0.5307
 6250TIP3    H240386   1.087   3.850   7.337  0.7402 -1.3744  0.8943
 6251TIP3   OH240387   2.812   0.418   8.764  0.2013  0.2567  0.2604
 6251TIP3    H140388   2.800   0.323   8.761 -1.3932  0.3293  2.2419
 6251TIP3    H240389   2.723   0.453   8.765  0.7334  1.9195 -2.0729
 6252TIP3   OH240390   4.915   1.313   7.677  0.5277  0.0610 -0.3305
 6252TIP3    H140391   4.849   1.371   7.715  2.7650  2.1523  0.7272
 6252TIP3    H240392   4.974   1.293   7.750  1.3165 -1.3677 -1.3097
 6253TIP3   OH240393   1.340   5.007   0.968  0.0885  0.0259  0.0008
 6253TIP3    H140394   1.251   5.010   1.002  0.1068  0.1270  0.0419
 6253TIP3    H240395   1.366   4.915   0.975 -0.5913 -0.3057 -1.5253
 6254TIP3   OH240396   2.223   6.449   1.233 -0.3027 -0.2157  0.4723
 6254TIP3    H140397   2.245   6.370   1.282  2.6203  0.4295  0.3996
 6254TIP3    H240398   2.308   6.486   1.208 -1.5925  0.7165 -3.1678
 6255TIP3   OH240399   5.137   2.700   1.893 -0.0223  0.2632  0.4790
 6255TIP3    H140400   5.223   2.676   1.928  0.4156  2.8245  1.3689
 6255TIP3    H240401   5.074   2.653   1.949  0.7668 -0.3739  0.8498
 6256TIP3   OH240402   4.187   2.279   1.354 -0.3716 -0.1519  0.3194
 6256TIP3    H140403   4.232   2.195   1.350  1.9620  0.8318  2.8143
 6256TIP3    H240404   4.203   2.319   1.268  0.5177 -1.2981 -0.0733
 6257TIP3   OH240405   1.588   3.929   8.073  0.2852 -0.0524 -0.4017
 6257TIP3    H140406   1.602   3.904   7.981 -2.3605 -1.6256 -0.4664
 6257TIP3    H240407   1.522   3.868   8.105  0.4805  1.0308  2.3377
 6258TIP3   OH240408   0.401   2.315   7.224 -0.6027  0.3320 -0.3835
 6258TIP3    H140409   0.484   2.267   7.230 -0.4899  0.4688 -0.8365
 6258TIP3    H240410   0.350   2.267   7.159 -0.8923  0.2353 -0.0917
 6259TIP3   OH240411   3.382   2.500   7.977  0.4184  0.0933 -0.1857
 6259TIP3    H140412   3.422   2.561   7.915 -2.4975  0.1880 -2.1576
 6259TIP3    H240413   3.350   2.555   8.048  0.6639  0.4585 -0.3539
 6260TIP3   OH240414   3.796   4.720   7.563 -0.2582 -0.1406 -0.2392
 6260TIP3    H140415   3.886   4.750   7.553 -0.9471  1.9448 -0.6924
 6260TIP3    H240416   3.801   4.649   7.627  1.6617  0.1738  0.0074
 6261TIP3   OH240417   3.410   5.912   1.274 -0.4551  0.0287  0.4267
 6261TIP3    H140418   3.410   5.824   1.313  1.5604 -0.6255 -0.8886
 6261TIP3    H240419   3.468   5.963   1.330 -2.3837  0.9025  1.7735
 6262TIP3   OH240420   6.845   2.519   2.202 -0.4319  0.3837  0.3511
 6262TIP3    H140421   6.806   2.525   2.290  0.1504 -0.7690  0.6933
 6262TIP3    H240422   6.771   2.500   2.145 -0.8124  1.1181  0.5770
 6263TIP3   OH240423   2.275   5.268   7.553  0.6897  0.1649  0.1559
 6263TIP3    H140424   2.219   5.206   7.599  0.7465  0.2753  0.3754
 6263TIP3    H240425   2.362   5.255   7.591  0.7420  0.2415  0.0643
 6264TIP3   OH240426   6.482   3.507   7.982 -0.1669  0.3352  0.2629
 6264TIP3    H140427   6.522   3.550   8.057 -0.9711  1.8928 -0.1656
 6264TIP3    H240428   6.393   3.542   7.977 -0.6839 -0.9724 -0.4514
 6265TIP3   OH240429   6.134   1.318   8.421  0.3689  0.3078 -0.0473
 6265TIP3    H140430   6.199   1.272   8.474 -1.0614 -0.2632  1.2821
 6265TIP3    H240431   6.104   1.252   8.358  0.1008  0.1620  0.2327
 6266TIP3   OH240432   1.114   3.265   0.946 -0.1176  0.2443 -0.1096
 6266TIP3    H140433   1.085   3.174   0.942 -2.5293  0.8348  1.8785
 6266TIP3    H240434   1.116   3.286   1.040  2.7961  1.5942 -0.3374
 6267TIP3   OH240435   6.758   4.321   0.985 -0.2017  0.0540 -0.0613
 6267TIP3    H140436   6.766   4.377   0.908 -1.7779 -1.6131 -1.5200
 6267TIP3    H240437   6.832   4.261   0.980  0.8124  1.1696  0.8584
 6268TIP3   OH240438   3.213   3.586   7.247 -0.0505  0.3538  0.4590
 6268TIP3    H140439   3.237   3.630   7.328 -0.5253  0.8822  0.3196
 6268TIP3    H240440   3.291   3.538   7.221  0.5746  1.3529  0.4557
 6269TIP3   OH240441   3.061   0.506   8.311  0.1624  0.4684  0.2097
 6269TIP3    H140442   3.047   0.413   8.295 -0.8158  0.4594  1.0250
 6269TIP3    H240443   3.094   0.540   8.228  0.3407 -0.5578 -0.1553
 6270TIP3   OH240444   2.853   5.580   0.892 -0.4941  0.4551  0.2742
 6270TIP3    H140445   2.792   5.643   0.930 -0.7275  1.1351 -1.1446
 6270TIP3    H240446   2.901   5.630   0.826  1.2236 -0.2095  0.9801
 6271TIP3   OH240447   5.634   3.275   1.108 -0.5142  0.3368 -0.6313
 6271TIP3    H140448   5.680   3.191   1.099  0.1272  0.8697 -3.2079
 6271TIP3    H240449   5.616   3.301   1.018 -3.5891  1.4528  0.2052
 6272TIP3   OH240450   4.709   5.420   8.014 -0.2088  0.0496  0.0243
 6272TIP3    H140451   4.707   5.481   8.088 -0.7975 -0.5315  0.5017
 6272TIP3    H240452   4.622   5.428   7.974  0.4266  1.1050 -1.2521
 6273TIP3   OH240453   1.862   3.056   1.310 -0.1536  0.3556  0.1852
 6273TIP3    H140454   1.898   3.091   1.391  0.2982 -2.3800  1.2625
 6273TIP3    H240455   1.773   3.091   1.306  0.4941  2.1989  0.7126
 6274TIP3   OH240456   3.445   1.320   0.414 -0.2937 -0.2877 -0.0799
 6274TIP3    H140457   3.414   1.347   0.500  2.5376  0.0794  0.9224
 6274TIP3    H240458   3.530   1.362   0.404  0.5296 -2.1768 -2.0707
 6275TIP3   OH240459   4.892   2.946   1.920 -0.1125 -0.1490 -0.1669
 6275TIP3    H140460   4.870   2.936   2.013  0.3810 -3.0612 -0.2928
 6275TIP3    H240461   4.898   3.041   1.908 -2.4753  0.4362  2.1970
 6276TIP3   OH240462   5.006   4.977   0.823  0.2467  0.5171 -0.1580
 6276TIP3    H140463   4.973   4.999   0.736 -0.3669 -0.6217 -0.2338
 6276TIP3    H240464   5.064   5.050   0.846 -1.1845  1.8602 -0.6288
 6277TIP3   OH240465   3.292   0.986   2.226 -0.2141  0.2951 -0.0274
 6277TIP3    H140466   3.249   1.066   2.195 -2.6939 -0.6735  0.6887
 6277TIP3    H240467   3.369   0.978   2.170  0.5463  3.5429  0.3333
 6278TIP3   OH240468   2.809   4.613   8.664  0.4465  0.0477 -0.2537
 6278TIP3    H140469   2.879   4.557   8.699  0.5659 -0.9791 -2.0080
 6278TIP3    H240470   2.740   4.608   8.729  1.6678  0.4414  1.1427
 6279TIP3   OH240471   3.040   0.543   2.255 -0.2957 -0.2087 -0.3265
 6279TIP3    H140472   2.963   0.565   2.307 -0.7235 -0.4022 -0.8762
 6279TIP3    H240473   3.109   0.599   2.290 -1.1993  1.5720 -1.2585
 6280TIP3   OH240474   1.855   5.031   8.770 -0.0252 -0.2062 -0.3315
 6280TIP3    H140475   1.786   5.080   8.724  0.4009  1.3810  0.6672
 6280TIP3    H240476   1.814   5.001   8.851  0.3974  0.6363  0.2083
 6281TIP3   OH240477   2.824   3.453   1.215 -0.1209  0.2485 -0.0793
 6281TIP3    H140478   2.917   3.444   1.197 -0.4082 -3.8246 -0.3311
 6281TIP3    H240479   2.784   3.465   1.129 -0.0566 -1.6298 -0.4066
 6282TIP3   OH240480   1.875   1.033   7.654  0.5048  0.3814 -0.1807
 6282TIP3    H140481   1.919   1.069   7.730  0.5651 -0.2947  0.1101
 6282TIP3    H240482   1.831   0.954   7.686  0.7214 -0.0411 -0.8939
 6283TIP3   OH240483   5.357   2.903   0.730  0.5081  0.1087 -0.1555
 6283TIP3    H140484   5.415   2.834   0.763 -1.7939 -2.4669 -1.1732
 6283TIP3    H240485   5.280   2.898   0.786  0.1677  1.7040 -0.4476
 6284TIP3   OH240486   3.257   6.714   8.791 -0.3607 -0.3701 -1.0132
 6284TIP3    H140487   3.215   6.631   8.769 -0.9192 -1.0636  2.1806
 6284TIP3    H240488   3.326   6.691   8.853 -1.6434  1.6110  1.3443
 6285TIP3   OH240489   2.948   3.648   7.263  0.3501  0.1553  0.0267
 6285TIP3    H140490   2.920   3.719   7.320 -0.1956  0.8529 -1.0614
 6285TIP3    H240491   3.037   3.627   7.291 -1.0002 -1.8224  3.3017
 6286TIP3   OH240492   6.431   3.069   1.317 -0.0574  0.0904 -0.4420
 6286TIP3    H140493   6.463   3.067   1.408 -0.6021 -2.8590 -0.2152
 6286TIP3    H240494   6.337   3.051   1.325  0.0929 -1.4006 -1.6034
 6287TIP3   OH240495   3.991   1.294   6.390  0.0360  0.5648  0.8965
 6287TIP3    H140496   3.943   1.215   6.412 -2.3669  2.0701  1.5097
 6287TIP3    H240497   3.961   1.316   6.301  0.2894  1.0356  0.9225
 6288TIP3   OH240498   5.175   4.270   7.454 -0.1650 -0.2448 -0.1884
 6288TIP3    H140499   5.238   4.262   7.525 -0.0826 -2.1455 -0.4265
 6288TIP3    H240500   5.216   4.329   7.391  0.4449  0.1994  0.6157
 6289TIP3   OH240501   6.468   0.557   1.554 -0.1777  0.1625  0.7958
 6289TIP3    H140502   6.482   0.649   1.533  0.2366  0.5292  2.5045
 6289TIP3    H240503   6.542   0.512   1.514  0.2557  0.7319  0.9380
 6290TIP3   OH240504   3.529   4.176   2.218  0.0649 -0.2448  0.3867
 6290TIP3    H140505   3.513   4.082   2.221 -1.8262  0.0215  4.0385
 6290TIP3    H240506   3.457   4.212   2.166  0.5528 -0.7096 -0.6463
 6291TIP3   OH240507   1.896   4.510   8.537 -0.6883 -0.1723  0.1069
 6291TIP3    H140508   1.866   4.479   8.622 -1.3168 -0.5375 -0.2379
 6291TIP3    H240509   1.878   4.604   8.538  1.4750  0.2929  1.2595
 6292TIP3   OH240510   0.028   5.393   0.364  0.3539  0.3455  0.0219
 6292TIP3    H140511  -0.002   5.384   0.273  1.7153 -0.6110 -0.3597
 6292TIP3    H240512  -0.037   5.343   0.414  1.3543 -1.9617 -0.8243
 6293TIP3   OH240513   6.525   5.531   1.709  0.3272 -0.0743  0.0234
 6293TIP3    H140514   6.557   5.459   1.765 -1.5111  0.4214  1.8411
 6293TIP3    H240515   6.447   5.495   1.668  0.0669  0.5029  0.0161
 6294TIP3   OH240516   6.595   6.018   1.148 -0.0809 -0.0603  0.0509
 6294TIP3    H140517   6.618   5.935   1.105 -2.0853 -0.5225 -0.2129
 6294TIP3    H240518   6.621   6.006   1.239  2.8286  0.3667 -0.6247
 6295TIP3   OH240519   2.304   6.227   1.832  0.2523  0.6160 -0.1344
 6295TIP3    H140520   2.273   6.139   1.811 -0.0702  0.4724  0.8766
 6295TIP3    H240521   2.264   6.283   1.766  0.8249 -0.0436 -1.0627
 6296TIP3   OH240522   5.551   6.097   0.946 -0.9105 -0.0184  0.3638
 6296TIP3    H140523   5.605   6.073   0.871 -1.9680  2.1920 -1.1987
 6296TIP3    H240524   5.495   6.021   0.961 -0.5716 -0.5515 -0.9923
 6297TIP3   OH240525   4.203   2.639   0.468 -0.5066 -0.5949  0.4630
 6297TIP3    H140526   4.260   2.660   0.543 -2.3552  0.4067  1.6688
 6297TIP3    H240527   4.246   2.565   0.425  2.8294  1.4179  0.0090
 6298TIP3   OH240528   4.208   6.518   2.248 -0.1076  0.5040  0.4812
 6298TIP3    H140529   4.139   6.516   2.313 -1.7817 -1.2628 -1.1979
 6298TIP3    H240530   4.252   6.433   2.257 -1.3540 -0.4504 -1.5562
 6299TIP3   OH240531   0.600   4.912   0.018  0.3935  0.0517  0.3872
 6299TIP3    H140532   0.692   4.912   0.046  0.1788  0.5639  1.1412
 6299TIP3    H240533   0.551   4.896   0.099 -0.2814  2.2124  0.4668
 6300TIP3   OH240534   4.887   4.035   8.506  0.4167 -0.6027 -0.0998
 6300TIP3    H140535   4.979   4.048   8.528 -0.0436  1.7441  0.7610
 6300TIP3    H240536   4.876   4.078   8.421 -0.2485  1.0302  0.7546
 6301TIP3   OH240537   3.973   6.188   8.546  0.4028  0.3837 -0.3606
 6301TIP3    H140538   3.993   6.209   8.637  1.2586 -0.3079 -0.3761
 6301TIP3    H240539   4.021   6.252   8.495  1.2646 -0.2443 -0.3559
 6302TIP3   OH240540   0.285   0.105   7.603  0.4883 -0.6984 -0.1519
 6302TIP3    H140541   0.247   0.084   7.517  1.4057 -0.6403 -0.5840
 6302TIP3    H240542   0.221   0.164   7.643  0.0520 -0.7132 -0.7994
 6303TIP3   OH240543   3.875   4.029   0.944  0.4842  0.2476 -0.3917
 6303TIP3    H140544   3.862   4.067   1.031  3.1572 -0.0955  0.2560
 6303TIP3    H240545   3.916   4.100   0.893 -2.3209  0.9366 -1.9336
 6304TIP3   OH240546   0.428   3.214   1.147  0.0744  0.1220 -0.6295
 6304TIP3    H140547   0.466   3.191   1.062 -0.0677 -0.2425 -0.5959
 6304TIP3    H240548   0.335   3.197   1.137  0.2132 -1.1372 -0.0170
 6305TIP3   OH240549   2.134   6.334   6.447 -0.2108 -0.0186 -0.5278
 6305TIP3    H140550   2.061   6.318   6.507 -1.3769  3.1114 -0.9106
 6305TIP3    H240551   2.092   6.359   6.365  1.3061  0.5917 -1.1479
 6306TIP3   OH240552   4.796   2.666   2.189  0.2272  0.0765 -0.2790
 6306TIP3    H140553   4.819   2.759   2.182  1.3477  0.1053  2.3653
 6306TIP3    H240554   4.714   2.665   2.239  0.8246 -0.3382  0.7315
 6307TIP3   OH240555   1.057   2.300   1.929  0.4242  0.3716  0.4508
 6307TIP3    H140556   1.145   2.272   1.907  0.4740  1.4175 -0.8850
 6307TIP3    H240557   1.020   2.229   1.980  1.8812 -0.2799  0.6264
 6308TIP3   OH240558   2.005   5.614   7.610 -0.1446 -0.1675 -0.1891
 6308TIP3    H140559   2.066   5.588   7.678  1.1854  0.4303 -1.1134
 6308TIP3    H240560   2.012   5.545   7.544  0.4495  0.5027 -0.8419
 6309TIP3   OH240561   6.301   1.573   7.104  0.3637 -0.8370  0.3887
 6309TIP3    H140562   6.346   1.655   7.123  1.6424 -1.9070  2.2154
 6309TIP3    H240563   6.278   1.537   7.189 -2.7068 -1.1010 -0.3984
 6310TIP3   OH240564   3.821   5.934   1.763  0.0860  0.2090 -0.1325
 6310TIP3    H140565   3.790   5.916   1.852 -1.0972  1.2596 -0.2934
 6310TIP3    H240566   3.914   5.951   1.773  0.9821 -3.8469  0.2692
 6311TIP3   OH240567   2.129   2.070   8.714  0.1574 -0.0287 -0.4004
 6311TIP3    H140568   2.095   2.158   8.733 -2.1166 -0.7828 -0.6895
 6311TIP3    H240569   2.126   2.063   8.619  0.0451 -0.5177 -0.3635
 6312TIP3   OH240570   4.791   6.741   7.688 -0.1111 -0.4358 -0.3934
 6312TIP3    H140571   4.861   6.795   7.726 -1.5949  1.0670  0.3387
 6312TIP3    H240572   4.713   6.765   7.738 -1.6718 -0.1468 -2.8180
 6313TIP3   OH240573   4.993   2.299   8.594 -0.0725 -0.2419 -0.8131
 6313TIP3    H140574   4.982   2.393   8.583  0.8324 -0.2488 -2.0216
 6313TIP3    H240575   4.984   2.284   8.688  1.2863  1.2824 -0.4008
 6314TIP3   OH240576   3.927   3.667   0.189  0.1011  0.0142  0.4938
 6314TIP3    H140577   3.995   3.639   0.128 -1.2600 -0.5011 -0.8388
 6314TIP3    H240578   3.975   3.700   0.265  1.8235 -0.4067 -0.3701
 6315TIP3   OH240579   2.335   0.862   0.919 -0.7115  0.2973  0.1298
 6315TIP3    H140580   2.329   0.770   0.892 -1.3856  0.9190 -2.0407
 6315TIP3    H240581   2.245   0.894   0.917 -0.2023  1.7852 -2.2857
 6316TIP3   OH240582   5.875   4.999   7.481 -0.1845 -0.0741 -0.4026
 6316TIP3    H140583   5.939   5.066   7.457  1.7704 -1.4834  0.6140
 6316TIP3    H240584   5.923   4.917   7.476 -2.0382 -1.2528  0.0642
 6317TIP3   OH240585   0.381   3.559   1.882 -0.0216 -0.3879 -0.2722
 6317TIP3    H140586   0.290   3.557   1.911 -0.1387 -1.9579 -0.6450
 6317TIP3    H240587   0.421   3.630   1.932 -1.2672 -0.1629  0.4437
 6318TIP3   OH240588   2.082   4.385   1.190 -0.3119 -0.6416 -0.0873
 6318TIP3    H140589   2.174   4.395   1.168 -0.3501  2.7861  0.7902
 6318TIP3    H240590   2.079   4.392   1.285 -1.4840 -0.7316 -0.1005
 6319TIP3   OH240591   3.581   1.954   8.728  0.4697  0.1624 -0.5057
 6319TIP3    H140592   3.655   1.892   8.731  0.1173 -0.2308  0.1624
 6319TIP3    H240593   3.503   1.898   8.724  0.2227  0.5414 -3.0036
 6320TIP3   OH240594   0.019   2.546   1.775  0.3211  0.0985 -0.2069
 6320TIP3    H140595   0.039   2.470   1.831 -1.0108  0.2836  0.5820
 6320TIP3    H240596  -0.041   2.512   1.709  1.5325 -0.0143 -1.2886
 6321TIP3   OH240597   2.412   3.224   0.105 -0.1543 -0.1882 -0.2076
 6321TIP3    H140598   2.407   3.166   0.181 -0.8899 -0.0416 -0.1393
 6321TIP3    H240599   2.345   3.192   0.045 -0.3393  0.3778 -0.3124
 6322TIP3   OH240600   6.610   4.517   7.090  0.3293  0.9598 -0.0191
 6322TIP3    H140601   6.654   4.493   7.008  1.4276 -0.1485  0.8539
 6322TIP3    H240602   6.519   4.494   7.077  0.7671 -0.6252 -0.4168
 6323TIP3   OH240603   6.608   3.128   8.242  0.1066  0.2765  1.2308
 6323TIP3    H140604   6.613   3.222   8.258 -0.1095  0.6528 -0.6807
 6323TIP3    H240605   6.558   3.093   8.316  0.5078  1.5851  2.1533
 6324TIP3   OH240606   1.538   2.571   0.157 -0.0123  0.1514  0.0352
 6324TIP3    H140607   1.447   2.601   0.163 -0.2364 -0.7475  1.7160
 6324TIP3    H240608   1.591   2.649   0.170 -0.5601  0.4652  0.4071
 6325TIP3   OH240609   1.727   1.264   8.311  1.1822 -0.5135  0.1470
 6325TIP3    H140610   1.793   1.194   8.317  2.0794  0.3557  0.6644
 6325TIP3    H240611   1.684   1.249   8.226  1.9615 -1.1646 -0.1473
 6326TIP3   OH240612   5.809   5.950   2.508 -0.2887 -0.1722 -0.5259
 6326TIP3    H140613   5.905   5.945   2.506 -0.3398 -1.5035 -1.3520
 6326TIP3    H240614   5.790   6.043   2.513  1.0543  0.1888 -1.4579
 6327TIP3   OH240615   1.755   6.408   2.257 -0.0245  0.7446  0.0960
 6327TIP3    H140616   1.808   6.487   2.259 -0.8943  1.3488 -0.1559
 6327TIP3    H240617   1.819   6.337   2.247  0.6724  1.5502 -1.6530
 6328TIP3   OH240618   0.991   0.722   8.445  0.0163 -0.1183 -0.0706
 6328TIP3    H140619   1.076   0.690   8.474 -0.1150 -1.0587 -0.6542
 6328TIP3    H240620   0.969   0.667   8.369 -1.5256 -0.5534  0.6342
 6329TIP3   OH240621   1.878   4.321   6.561 -0.3892 -0.1120  0.4985
 6329TIP3    H140622   1.795   4.274   6.555  0.7854 -2.2435 -0.5238
 6329TIP3    H240623   1.916   4.291   6.644 -0.3929  0.4356  0.7018
 6330TIP3   OH240624   6.603   4.224   7.925 -0.1435  0.2646  0.1731
 6330TIP3    H140625   6.523   4.272   7.947  0.4398  0.6676  1.5121
 6330TIP3    H240626   6.670   4.292   7.920  0.3173 -0.1889  0.1126
 6331TIP3   OH240627   5.017   5.765   0.856  0.1942  0.3166 -0.3997
 6331TIP3    H140628   4.939   5.711   0.868  0.1771  0.3724 -0.2614
 6331TIP3    H240629   4.996   5.848   0.900 -0.1803  0.8095 -1.4721
 6332TIP3   OH240630   3.099   6.567   8.068  0.3367 -0.0302 -0.2133
 6332TIP3    H140631   3.100   6.524   8.153  2.3768 -1.8219 -1.0571
 6332TIP3    H240632   3.031   6.522   8.019 -0.3209  0.4994  0.1899
 6333TIP3   OH240633   2.840   2.431   2.399  0.3417 -0.5491  0.4102
 6333TIP3    H140634   2.761   2.443   2.346  1.4970  1.9645 -0.8783
 6333TIP3    H240635   2.856   2.337   2.395 -1.5419 -0.8870 -0.8561
 6334TIP3   OH240636   0.081   0.492   0.875 -0.3706  0.0679  0.2025
 6334TIP3    H140637   0.166   0.466   0.909 -0.5969 -1.6371 -0.4425
 6334TIP3    H240638   0.025   0.498   0.952 -0.0985 -0.5535  0.4530
 6335TIP3   OH240639   2.874   0.910   0.901 -0.1666  0.2511 -0.1418
 6335TIP3    H140640   2.960   0.916   0.859 -0.0810  0.5096  0.0754
 6335TIP3    H240641   2.831   0.993   0.881 -0.8437 -0.3414 -1.2929
 6336TIP3   OH240642   3.540   4.083   0.578 -0.1200 -0.1143 -0.3665
 6336TIP3    H140643   3.624   4.051   0.610 -0.5922 -0.8733  0.1163
 6336TIP3    H240644   3.555   4.097   0.484 -0.2246 -2.9390 -0.8910
 6337TIP3   OH240645   2.793   2.102   0.788  0.7689  0.2530  0.1777
 6337TIP3    H140646   2.717   2.078   0.735  1.0800  0.3140 -0.2971
 6337TIP3    H240647   2.824   2.019   0.823  0.4073  0.2419  0.4865
 6338TIP3   OH240648   4.565   0.179   7.474 -0.4059 -0.0884 -0.5246
 6338TIP3    H140649   4.572   0.241   7.547  0.0732 -0.9248  0.1615
 6338TIP3    H240650   4.486   0.128   7.494 -1.3965  0.9715 -1.6322
 6339TIP3   OH240651   1.837   3.053   7.056  0.0865 -0.0445  0.0831
 6339TIP3    H140652   1.843   3.146   7.035  0.8919  0.0598  0.7258
 6339TIP3    H240653   1.743   3.033   7.052 -0.1751  0.9904  0.7501
 6340TIP3   OH240654   5.887   1.824   0.127 -0.1570 -0.2299  0.0302
 6340TIP3    H140655   5.801   1.861   0.145 -1.6512 -2.8880 -1.1620
 6340TIP3    H240656   5.901   1.760   0.197  1.5345  1.0369  0.9673
 6341TIP3   OH240657   3.237   4.175   7.107 -0.0862  0.3476 -0.4999
 6341TIP3    H140658   3.212   4.202   7.019 -0.5965  0.2466 -0.3868
 6341TIP3    H240659   3.175   4.106   7.130 -1.1296  1.6247  0.6526
 6342TIP3   OH240660   1.887   2.294   7.644 -0.0333 -0.2072 -0.7845
 6342TIP3    H140661   1.942   2.366   7.614  0.2801  0.4296  1.1853
 6342TIP3    H240662   1.946   2.219   7.648  0.2131 -0.0069 -0.6177
 6343TIP3   OH240663   6.355   4.581   8.266  0.4851 -0.2652  0.4598
 6343TIP3    H140664   6.263   4.558   8.260 -0.0457  1.8793 -1.0809
 6343TIP3    H240665   6.384   4.585   8.174  2.1750 -1.1041  0.9225
 6344TIP3   OH240666   2.175   1.513   0.769  0.6158  0.0118  0.3470
 6344TIP3    H140667   2.260   1.542   0.801  0.1795  2.2429 -0.3267
 6344TIP3    H240668   2.142   1.455   0.838  1.2223  1.8277  2.2633
 6345TIP3   OH240669   6.839   4.266   8.777  0.1066  0.8192  0.0365
 6345TIP3    H140670   6.774   4.324   8.735 -0.9460 -1.4165 -1.6052
 6345TIP3    H240671   6.873   4.213   8.706  0.4750 -1.0981  1.5666
 6346TIP3   OH240672   1.699   3.767   0.153  0.0557  0.1080  0.0570
 6346TIP3    H140673   1.743   3.803   0.229 -1.0919 -0.8535  1.2281
 6346TIP3    H240674   1.613   3.809   0.152  0.3186  0.6700 -1.1667
 6347TIP3   OH240675   0.264   5.188   0.494 -0.3225 -0.6256 -0.0322
 6347TIP3    H140676   0.280   5.117   0.432  2.9026 -0.4521  0.4714
 6347TIP3    H240677   0.307   5.161   0.575 -1.2253  0.8180  0.9956
 6348TIP3   OH240678   2.810   4.080   8.226 -0.0632 -0.0849 -0.3298
 6348TIP3    H140679   2.885   4.100   8.281 -0.2167  0.1239 -0.1919
 6348TIP3    H240680   2.770   4.004   8.267 -0.2351  0.1313 -0.0918
 6349TIP3   OH240681   3.974   4.835   1.390 -0.4177  0.0745  0.2433
 6349TIP3    H140682   3.975   4.898   1.463 -1.8185  0.6777 -0.2175
 6349TIP3    H240683   4.060   4.846   1.348 -0.1713  0.8055  0.9047
 6350TIP3   OH240684   6.194   0.822   6.485 -0.3160  0.1616 -0.4395
 6350TIP3    H140685   6.177   0.873   6.406  0.7471 -0.9236 -1.4338
 6350TIP3    H240686   6.143   0.742   6.473 -0.3455  0.0936  0.1048
 6351TIP3   OH240687   3.270   6.151   1.257 -0.5834 -0.4991 -0.1552
 6351TIP3    H140688   3.327   6.074   1.254 -0.9270 -0.7292 -0.9213
 6351TIP3    H240689   3.237   6.160   1.168 -0.7317  0.4039 -0.0187
 6352TIP3   OH240690   5.802   4.383   1.956 -0.3787  0.3097  0.3496
 6352TIP3    H140691   5.890   4.364   1.922  0.0422  2.6571 -0.0521
 6352TIP3    H240692   5.816   4.398   2.050 -0.5542 -0.4432  0.4989
 6353TIP3   OH240693   2.390   6.149   8.062  0.4796 -0.3791  0.6763
 6353TIP3    H140694   2.476   6.163   8.101  0.2765  3.4477  0.1325
 6353TIP3    H240695   2.409   6.120   7.973  1.2372  0.2395  0.6249
 6354TIP3   OH240696   3.033   5.152   0.773  0.1692 -0.0908  0.1980
 6354TIP3    H140697   3.100   5.106   0.825  0.1176  0.0393  0.3784
 6354TIP3    H240698   3.063   5.142   0.682  0.7528  0.4794  0.3194
 6355TIP3   OH240699   5.816   2.013   7.005 -0.2184  0.7879 -0.1827
 6355TIP3    H140700   5.846   1.954   6.936 -0.0496  0.4204  0.1992
 6355TIP3    H240701   5.792   2.093   6.960 -4.1449 -0.7694 -1.2980
 6356TIP3   OH240702   2.878   1.308   2.018 -0.3619 -0.0348  0.3140
 6356TIP3    H140703   2.950   1.267   2.066 -0.6006 -1.6528 -0.6452
 6356TIP3    H240704   2.878   1.399   2.048  1.6469 -0.1598  0.8512
 6357TIP3   OH240705   5.764   4.578   7.607 -0.3097  0.3054 -0.4469
 6357TIP3    H140706   5.707   4.501   7.601  0.6699 -0.5327  0.5816
 6357TIP3    H240707   5.743   4.617   7.692 -0.5359  0.9726 -0.8015
 6358TIP3   OH240708   6.199   1.265   7.334 -0.0268  0.5733  0.1805
 6358TIP3    H140709   6.112   1.290   7.304  0.0393  1.4338  0.6693
 6358TIP3    H240710   6.201   1.169   7.326 -0.2052  0.7026 -1.9970
 6359TIP3   OH240711   1.636   3.914   1.464  0.1510 -0.1145 -0.2780
 6359TIP3    H140712   1.698   3.985   1.483 -1.0798  0.7526  0.7617
 6359TIP3    H240713   1.568   3.955   1.411 -0.2530 -0.6821 -0.2102
 6360TIP3   OH240714   4.419   3.209   0.019  0.0069 -0.1658 -0.4435
 6360TIP3    H140715   4.486   3.161  -0.028  0.6300 -1.6376  1.7748
 6360TIP3    H240716   4.364   3.141   0.058  1.0574  0.7691  3.0261
 6361TIP3   OH240717   2.682   3.778   8.095  0.1441  0.5163 -0.0746
 6361TIP3    H140718   2.587   3.767   8.096 -0.3122  3.1461 -2.2794
 6361TIP3    H240719   2.704   3.810   8.182 -0.6245 -1.8770  1.0889
 6362TIP3   OH240720   6.517   2.400   0.958  0.1205 -0.2401  0.0812
 6362TIP3    H140721   6.542   2.310   0.975 -0.3363 -0.3223  0.3300
 6362TIP3    H240722   6.585   2.434   0.900  0.3905 -0.6870  0.1393
 6363TIP3   OH240723   2.951   2.422   7.920  0.5447  0.2163  0.3482
 6363TIP3    H140724   3.043   2.436   7.941  0.4391 -0.2563  1.1294
 6363TIP3    H240725   2.923   2.350   7.976 -0.0894 -0.2063 -0.4776
 6364TIP3   OH240726   4.461   6.360   7.122 -0.2219 -0.1030 -0.1132
 6364TIP3    H140727   4.411   6.424   7.172 -1.1467 -0.8454 -0.0506
 6364TIP3    H240728   4.418   6.357   7.036  0.3423 -0.0205 -0.4053
 6365TIP3   OH240729   5.041   0.678   8.662 -0.0566 -0.1379 -0.2120
 6365TIP3    H140730   5.030   0.615   8.733  2.8602  0.2931  0.7503
 6365TIP3    H240731   5.022   0.628   8.583 -1.4737 -1.1579  0.7243
 6366TIP3   OH240732   6.516   5.680   8.306  0.3021 -0.5872 -0.3175
 6366TIP3    H140733   6.516   5.585   8.318 -0.3931 -0.5570 -0.0244
 6366TIP3    H240734   6.426   5.706   8.324  1.0083  0.4381  2.2538
 6367TIP3   OH240735   2.827   3.454   6.921  0.1646 -0.2212 -0.1385
 6367TIP3    H140736   2.918   3.439   6.944 -0.5902 -0.6265  2.9857
 6367TIP3    H240737   2.780   3.378   6.954 -1.4442  0.3759 -0.9002
 6368TIP3   OH240738   1.969   3.734   0.990  0.5331  0.0655 -0.4431
 6368TIP3    H140739   1.912   3.673   0.944  0.8180 -0.6538  0.1310
 6368TIP3    H240740   1.950   3.720   1.083  1.6584 -0.2206 -0.2410
 6369TIP3   OH240741   2.413   0.739   1.319 -0.0022 -0.2071 -0.4277
 6369TIP3    H140742   2.406   0.646   1.295 -0.8884 -0.1049 -0.6264
 6369TIP3    H240743   2.452   0.739   1.406  1.1567 -0.6993 -0.9229
 6370TIP3   OH240744   0.438   3.107   7.988 -0.0461  0.0084 -0.0381
 6370TIP3    H140745   0.443   3.201   7.969  0.7402 -0.3287 -1.6365
 6370TIP3    H240746   0.386   3.071   7.916  2.4676 -1.2357 -1.3210
 6371TIP3   OH240747   4.478   5.442   1.558 -0.5949 -0.2640  0.2411
 6371TIP3    H140748   4.536   5.517   1.547 -1.6965  0.6571  0.5525
 6371TIP3    H240749   4.519   5.391   1.628 -0.4581  0.6767  0.8701
 6372TIP3   OH240750   1.173   6.381   0.800 -0.0246 -0.4673  0.4000
 6372TIP3    H140751   1.171   6.465   0.847 -0.1260 -0.2748  0.0525
 6372TIP3    H240752   1.232   6.396   0.726  0.0093 -0.7254  0.3736
 6373TIP3   OH240753   2.608   1.121   6.482  0.2387  0.3742 -0.4324
 6373TIP3    H140754   2.684   1.178   6.483  0.5588  0.0125 -1.7805
 6373TIP3    H240755   2.535   1.178   6.506  0.8183  0.8958  0.1271
 6374TIP3   OH240756   4.402   1.159   8.745 -0.2225 -0.1370  0.0865
 6374TIP3    H140757   4.487   1.125   8.720 -0.1529  1.2708 -1.7706
 6374TIP3    H240758   4.340   1.088   8.724  0.3882 -0.9239  0.8692
 6375TIP3   OH240759   0.891   0.709   1.255 -0.1427  0.2743  0.0801
 6375TIP3    H140760   0.921   0.637   1.200  0.6984 -0.0554  0.9527
 6375TIP3    H240761   0.944   0.784   1.226  0.6641 -0.0174  0.7692
 6376TIP3   OH240762   1.471   4.429   8.612 -0.7278 -0.6192  0.4133
 6376TIP3    H140763   1.503   4.518   8.596 -1.0861 -0.8691 -2.1332
 6376TIP3    H240764   1.527   4.373   8.559 -2.2635 -1.5783 -0.2936
 6377TIP3   OH240765   5.094   4.199   7.118  0.0447 -0.7426 -0.2643
 6377TIP3    H140766   5.059   4.230   7.035  0.0282 -1.6024 -0.5824
 6377TIP3    H240767   5.052   4.115   7.133  2.4226 -2.1417 -1.0004
 6378TIP3   OH240768   4.616   2.470   1.189 -0.2224 -0.4686  0.3193
 6378TIP3    H140769   4.581   2.402   1.248  2.3496 -2.1705  0.0817
 6378TIP3    H240770   4.610   2.432   1.102  1.9087 -0.8193  0.2522
 6379TIP3   OH240771   1.682   1.556   7.671  0.0548  0.2369  0.1333
 6379TIP3    H140772   1.728   1.617   7.729  2.3744 -1.7523  0.5373
 6379TIP3    H240773   1.645   1.612   7.602 -0.3910  2.3465  1.9904
 6380TIP3   OH240774   6.132   3.271   1.848  0.0505  0.2969  0.3210
 6380TIP3    H140775   6.190   3.245   1.920 -2.6444 -1.1324  2.1246
 6380TIP3    H240776   6.056   3.310   1.890 -1.6156 -0.5231 -1.7239
 6381TIP3   OH240777   2.430   3.077   1.080  0.1842 -0.5211 -0.1850
 6381TIP3    H140778   2.492   3.007   1.099  1.5331  0.4557 -0.8323
 6381TIP3    H240779   2.406   3.064   0.988 -0.4094 -0.7653  0.0002
 6382TIP3   OH240780   1.566   5.139   2.237 -0.0447 -0.5429  0.0798
 6382TIP3    H140781   1.643   5.194   2.250 -0.6055  0.2291  0.2268
 6382TIP3    H240782   1.492   5.197   2.256 -0.6675 -1.2015 -0.2925
 6383TIP3   OH240783   0.654   2.360   1.107  0.0578 -0.2067  0.3602
 6383TIP3    H140784   0.595   2.332   1.177  1.9214  0.9613  2.5415
 6383TIP3    H240785   0.701   2.281   1.082  0.7335 -0.3163  1.8687
 6384TIP3   OH240786   4.958   0.583   7.376  0.0548  0.0729  0.3069
 6384TIP3    H140787   5.006   0.525   7.434 -1.7684 -0.9052  0.9157
 6384TIP3    H240788   4.982   0.671   7.405  1.6152 -0.3701  0.4298
 6385TIP3   OH240789   4.130   5.533   7.452  0.3726 -0.0230  0.1204
 6385TIP3    H140790   4.072   5.609   7.454 -1.6722 -1.4551 -0.5543
 6385TIP3    H240791   4.147   5.520   7.358 -0.4778 -1.1758  0.1021
 6386TIP3   OH240792   0.511   3.241   0.241  0.2796 -0.4611  0.3887
 6386TIP3    H140793   0.430   3.287   0.263 -0.5884 -2.1241  0.8865
 6386TIP3    H240794   0.581   3.300   0.269 -0.6583  2.0318 -2.1526
 6387TIP3   OH240795   3.968   4.063   7.318  0.8211 -0.2897 -0.5876
 6387TIP3    H140796   3.995   4.013   7.396  1.0533  1.2460  0.3599
 6387TIP3    H240797   3.948   3.996   7.253  0.0970 -1.6493  0.9533
 6388TIP3   OH240798   5.401   2.548   6.332  0.3071  1.2878 -0.3529
 6388TIP3    H140799   5.446   2.632   6.324  1.5820  0.5547 -1.3029
 6388TIP3    H240800   5.352   2.540   6.250 -0.5597  1.5059  0.1333
 6389TIP3   OH240801   4.777   6.036   7.796  0.5517 -0.3218  0.4746
 6389TIP3    H140802   4.813   6.102   7.855  0.7763  0.5440 -0.5895
 6389TIP3    H240803   4.840   6.032   7.724 -0.1196 -0.7591 -0.1013
 6390TIP3   OH240804   2.736   6.842   0.054  0.0039  0.7215 -0.3490
 6390TIP3    H140805   2.795   6.854  -0.020 -1.1836  0.4380 -1.3671
 6390TIP3    H240806   2.776   6.771   0.105  0.6778  0.7300 -0.8481
 6391TIP3   OH240807   0.935   6.486   0.696  0.6005 -1.0266  0.0480
 6391TIP3    H140808   0.858   6.436   0.722  0.6200 -1.5412 -0.8458
 6391TIP3    H240809   1.003   6.460   0.758 -0.0345 -0.2642  1.0994
 6392TIP3   OH240810   0.759   2.435   1.461 -0.4295 -0.1737  0.2182
 6392TIP3    H140811   0.805   2.511   1.498 -1.9742  0.5581  0.7065
 6392TIP3    H240812   0.802   2.421   1.376  2.0656 -0.8540  1.4877
 6393TIP3   OH240813   1.727   4.895   7.970 -0.0457 -0.5934  0.2415
 6393TIP3    H140814   1.777   4.976   7.983  0.6636 -0.8624 -0.6951
 6393TIP3    H240815   1.638   4.925   7.954  0.5445  0.1634 -2.0053
 6394TIP3   OH240816   0.336   6.331   0.165 -0.1718  0.2477  0.8315
 6394TIP3    H140817   0.310   6.417   0.132 -1.7718  0.1490  1.7563
 6394TIP3    H240818   0.428   6.323   0.138 -1.4028 -0.1715 -4.3127
 6395TIP3   OH240819   1.971   2.829   0.979  0.0893  0.3247 -0.1768
 6395TIP3    H140820   1.995   2.884   0.904 -0.8723  0.5266 -0.3443
 6395TIP3    H240821   2.051   2.824   1.031  1.2051 -0.9306 -1.8724
 6396TIP3   OH240822   0.368   1.457   1.537 -0.1783  0.0359 -0.1656
 6396TIP3    H140823   0.433   1.494   1.478  0.1891  0.0837  0.2646
 6396TIP3    H240824   0.380   1.362   1.529  0.5354  0.0528  0.5512
 6397TIP3   OH240825   1.901   6.389   0.261  0.3177  1.1464  0.2842
 6397TIP3    H140826   1.867   6.440   0.335 -3.3934 -1.2127  0.4496
 6397TIP3    H240827   1.926   6.305   0.299 -2.2658 -0.3509 -1.0797
 6398TIP3   OH240828   0.998   0.000   0.363 -0.7574  0.8218 -0.6464
 6398TIP3    H140829   0.982   0.069   0.298 -0.8214 -0.1956 -1.7380
 6398TIP3    H240830   1.056  -0.062   0.319 -0.8929  0.0499  0.2317
 6399TIP3   OH240831   5.185   2.302   7.613 -0.3838 -0.0257  0.3805
 6399TIP3    H140832   5.113   2.319   7.673 -2.1111 -0.0528 -1.5879
 6399TIP3    H240833   5.190   2.380   7.558  0.0231 -0.6802 -0.5469
 6400TIP3   OH240834   1.159   6.387   8.797 -0.7259 -0.1618 -0.3965
 6400TIP3    H140835   1.192   6.466   8.754 -2.6599  1.3955  0.8442
 6400TIP3    H240836   1.213   6.378   8.875 -1.2353  0.5992  0.0470
 6401TIP3   OH240837   1.152   6.046   0.538 -0.1508 -0.1877 -0.3390
 6401TIP3    H140838   1.074   6.007   0.498 -0.3754  1.0622 -1.1632
 6401TIP3    H240839   1.118   6.106   0.605  0.1578 -0.6299  0.2232
 6402TIP3   OH240840   0.446   1.517   8.578 -0.5550  0.3941  0.3117
 6402TIP3    H140841   0.383   1.563   8.523  1.6386  1.0893 -1.8062
 6402TIP3    H240842   0.456   1.431   8.536 -0.8222 -0.0888  1.2198
 6403TIP3   OH240843   1.279   4.057   7.965  0.4356  0.3128  0.0860
 6403TIP3    H140844   1.328   3.975   7.975  0.4323 -0.0700 -2.4067
 6403TIP3    H240845   1.197   4.042   8.013  0.3977 -1.1827 -0.4018
 6404TIP3   OH240846   3.374   5.685   1.397 -0.3188  0.1239  0.2094
 6404TIP3    H140847   3.281   5.704   1.388 -0.4418 -0.7497 -0.4258
 6404TIP3    H240848   3.380   5.590   1.398  0.5274  0.1645  0.7978
 6405TIP3   OH240849   4.452   4.731   0.401  0.1870 -0.6472 -0.6996
 6405TIP3    H140850   4.481   4.666   0.337 -0.0177  0.1227 -1.6066
 6405TIP3    H240851   4.489   4.814   0.370 -0.1547 -0.2137  0.0177
 6406TIP3   OH240852   2.902   4.282   1.128 -0.0743  0.2490  0.1047
 6406TIP3    H140853   2.920   4.233   1.209 -1.2950  0.1263  0.3171
 6406TIP3    H240854   2.956   4.239   1.062 -1.1262 -1.4230  0.2843
 6407TIP3   OH240855   1.249   6.156   7.010  0.9370  0.2696  0.3184
 6407TIP3    H140856   1.193   6.233   7.018  1.8936  1.2300 -1.6436
 6407TIP3    H240857   1.191   6.087   6.976  0.7665  1.0666 -1.0790
 6408TIP3   OH240858   1.058   3.246   0.034  0.0468 -0.0763 -0.0155
 6408TIP3    H140859   1.114   3.323   0.042 -1.3963  1.1752 -1.3305
 6408TIP3    H240860   1.074   3.213  -0.054  0.0571 -0.8206  0.2537
 6409TIP3   OH240861   5.758   4.033   0.160 -0.1536  0.0102 -0.0640
 6409TIP3    H140862   5.711   3.995   0.234 -2.8863  0.1832 -1.5861
 6409TIP3    H240863   5.801   3.959   0.118 -1.0754 -0.5755  0.0025
 6410TIP3   OH240864   5.548   1.408   7.404  0.0017  0.5548 -0.7526
 6410TIP3    H140865   5.595   1.415   7.321  0.6308 -0.4797 -0.5082
 6410TIP3    H240866   5.463   1.371   7.380  0.6724 -1.0118 -0.8106
 6411TIP3   OH240867   5.112   3.671   8.235  0.2361  0.0109 -0.0130
 6411TIP3    H140868   5.159   3.653   8.154  1.2116 -0.8702  0.7161
 6411TIP3    H240869   5.174   3.647   8.305  0.9061  4.2569  1.1389
 6412TIP3   OH240870   6.711   3.618   0.744  0.5857  0.4071  0.2819
 6412TIP3    H140871   6.625   3.584   0.721 -0.2285  1.1870  1.9713
 6412TIP3    H240872   6.734   3.676   0.673  0.7684 -1.5089 -1.3059
 6413TIP3   OH240873   1.880   0.614   1.285  0.4498  1.1667 -0.6370
 6413TIP3    H140874   1.841   0.532   1.313  0.0823  0.7559 -2.2204
 6413TIP3    H240875   1.822   0.682   1.320  0.7325  0.7815  0.6363
 6414TIP3   OH240876   2.098   5.918   8.571  0.6991  0.2422 -0.2059
 6414TIP3    H140877   2.193   5.918   8.582  0.7866 -0.7502 -0.9111
 6414TIP3    H240878   2.064   5.897   8.658  1.3150 -4.6308 -0.8590
 6415TIP3   OH240879   6.540   1.789   7.349  0.3055 -0.1932 -0.0020
 6415TIP3    H140880   6.548   1.859   7.413  2.0181  0.1246 -0.4934
 6415TIP3    H240881   6.450   1.793   7.319 -0.2548  0.2960  1.6425
 6416TIP3   OH240882   6.205   0.729   8.656  0.3780  0.5970 -0.6202
 6416TIP3    H140883   6.229   0.784   8.730 -0.0769  1.4822 -1.1099
 6416TIP3    H240884   6.111   0.742   8.645  0.1007 -0.8970 -0.2710
 6417TIP3   OH240885   5.540   5.217   8.234  0.3809 -0.7601 -0.8571
 6417TIP3    H140886   5.512   5.308   8.228  1.4358 -0.3973 -0.5173
 6417TIP3    H240887   5.489   5.181   8.307  0.3807 -0.2821 -0.6226
 6418TIP3   OH240888   0.610   1.137   0.676  0.2431  0.3382 -0.0457
 6418TIP3    H140889   0.623   1.059   0.621  2.2759  0.9636 -0.5595
 6418TIP3    H240890   0.696   1.152   0.716 -0.9976  0.3473  2.7862
 6419TIP3   OH240891   5.367   5.320   0.220 -0.9133  0.5480 -0.1024
 6419TIP3    H140892   5.456   5.297   0.246 -1.8242 -1.2644  1.7145
 6419TIP3    H240893   5.326   5.236   0.198 -2.3169  1.2716 -0.3734
 6420TIP3   OH240894   1.369   3.955   7.412  0.1616 -0.2747 -0.2507
 6420TIP3    H140895   1.291   3.913   7.376 -0.9035  0.8728  0.6095
 6420TIP3    H240896   1.369   4.043   7.376  0.1087  0.2835  1.0394
 6421TIP3   OH240897   1.962   6.487   8.243 -0.2862  0.6521  0.0592
 6421TIP3    H140898   2.050   6.450   8.232  0.5809  2.4275  0.7257
 6421TIP3    H240899   1.951   6.494   8.338 -1.0984  0.5952 -0.0241
 6422TIP3   OH240900   2.212   0.215   1.802 -0.3489  0.0109 -0.9889
 6422TIP3    H140901   2.253   0.234   1.887  0.0396  2.6122 -1.6850
 6422TIP3    H240902   2.240   0.125   1.782  2.1019  0.4191  0.2114
 6423TIP3   OH240903   0.850   4.520   7.344 -0.3181 -0.5171 -0.6775
 6423TIP3    H140904   0.770   4.533   7.394  0.9226  0.8978  1.0762
 6423TIP3    H240905   0.838   4.571   7.264 -0.2747  1.7069  0.6605
 6424TIP3   OH240906   1.122   5.239   0.921  0.4062  0.2067 -0.5718
 6424TIP3    H140907   1.102   5.194   1.004 -0.1759 -2.0191 -1.8171
 6424TIP3    H240908   1.217   5.254   0.925  1.0157 -2.8379 -0.7552
 6425TIP3   OH240909   1.538   4.196   8.753 -0.2341  0.0733  0.6324
 6425TIP3    H140910   1.461   4.226   8.802 -0.2062  2.4560 -0.6555
 6425TIP3    H240911   1.575   4.275   8.716  1.3726 -1.3359 -0.9281
 6426TIP3   OH240912   2.863   6.461   1.920 -0.0735  0.4348 -0.1379
 6426TIP3    H140913   2.922   6.486   1.991  1.0092 -0.7337 -0.5810
 6426TIP3    H240914   2.775   6.481   1.953  0.4784  0.9616  1.0679
 6427TIP3   OH240915   5.838   4.020   1.805 -0.1476 -0.1737 -0.0145
 6427TIP3    H140916   5.784   4.094   1.777 -1.2894 -0.7497  0.6051
 6427TIP3    H240917   5.878   3.988   1.724  0.1415  0.9425 -0.3242
 6428TIP3   OH240918   0.444   1.155   7.420 -0.1280  0.3350 -0.1312
 6428TIP3    H140919   0.443   1.130   7.328 -1.3330  0.2107 -0.0962
 6428TIP3    H240920   0.502   1.232   7.423 -0.4783  0.6526 -1.0815
 6429TIP3   OH240921   6.218   1.310   6.666  0.0079  0.6300  0.2032
 6429TIP3    H140922   6.154   1.239   6.664  0.2476  0.4336 -1.6817
 6429TIP3    H240923   6.303   1.267   6.657  0.1771  1.1128 -0.6104
 6430TIP3   OH240924   3.284   4.454   8.509 -0.3415 -0.1973 -0.4704
 6430TIP3    H140925   3.209   4.461   8.450 -0.4035 -1.0438 -0.5038
 6430TIP3    H240926   3.351   4.509   8.469 -0.7590  0.1260 -0.7340
 6431TIP3   OH240927   5.968   5.505   2.136 -0.1034 -0.4397 -0.1437
 6431TIP3    H140928   5.873   5.499   2.146 -0.0532  0.5941  1.2349
 6431TIP3    H240929   5.995   5.416   2.113 -1.1335 -1.4316  2.1420
 6432TIP3   OH240930   1.936   3.939   0.439  0.3358 -0.1907 -0.4726
 6432TIP3    H140931   1.901   3.995   0.369  0.4495  0.3938 -0.0714
 6432TIP3    H240932   1.924   3.991   0.519  2.9485  0.4548 -0.4018
 6433TIP3   OH240933   0.813   1.150   8.762  0.0674 -0.2944 -0.4930
 6433TIP3    H140934   0.879   1.216   8.784 -0.1656  0.1090 -0.9868
 6433TIP3    H240935   0.730   1.190   8.788 -0.0076 -0.7041 -0.0932
 6434TIP3   OH240936   2.072   6.125   8.373  0.6159  0.5345 -0.0929
 6434TIP3    H140937   2.073   6.044   8.425 -1.5417  0.9580  0.7322
 6434TIP3    H240938   2.046   6.096   8.285  2.7688  0.0078 -0.6044
 6435TIP3   OH240939   0.155   1.643   1.747  0.7092  0.0290 -0.2940
 6435TIP3    H140940   0.196   1.729   1.754  1.0950 -0.1889  0.1868
 6435TIP3    H240941   0.147   1.613   1.838 -0.7820  0.1867 -0.3411
 6436TIP3   OH240942   3.639   5.847   0.415 -0.0598 -0.4411  0.3135
 6436TIP3    H140943   3.602   5.919   0.364 -0.1236 -0.3692  0.4595
 6436TIP3    H240944   3.574   5.777   0.407  0.8262 -1.1357 -1.3249
 6437TIP3   OH240945   2.316   2.808   0.032  0.0965 -0.7519 -0.0788
 6437TIP3    H140946   2.387   2.870   0.011 -1.5288  0.9482 -0.8576
 6437TIP3    H240947   2.321   2.742  -0.037  1.0513 -0.7855  0.0056
 6438TIP3   OH240948   4.231   1.010   1.809  0.1639 -0.6587 -0.5290
 6438TIP3    H140949   4.326   1.015   1.803  0.1914 -0.1703  0.2286
 6438TIP3    H240950   4.205   1.084   1.864 -0.6934 -0.5427 -1.0659
 6439TIP3   OH240951   2.520   6.462   1.124  0.1745  0.4125  0.0154
 6439TIP3    H140952   2.530   6.434   1.033  1.0115  0.6144  0.0414
 6439TIP3    H240953   2.603   6.441   1.165  0.2463  1.4305  0.4320
 6440TIP3   OH240954   1.346   5.791   1.330 -0.3507  0.6700 -0.2141
 6440TIP3    H140955   1.414   5.724   1.321 -0.4959  0.4020  0.6105
 6440TIP3    H240956   1.349   5.816   1.422 -1.3633  0.6527 -0.1615
 6441TIP3   OH240957   3.720   4.671   1.957 -0.6567  0.0077  0.2181
 6441TIP3    H140958   3.774   4.695   2.032  0.2972 -0.2366 -0.3832
 6441TIP3    H240959   3.739   4.737   1.891 -3.2573  1.6418  0.9332
 6442TIP3   OH240960   6.101   1.806   8.770  0.3813  0.1255  0.2860
 6442TIP3    H140961   6.122   1.713   8.782  2.6150  0.7201  1.6292
 6442TIP3    H240962   6.027   1.822   8.829 -0.7261 -0.9749 -0.7375
 6443TIP3   OH240963   5.412   0.482   7.249  0.1638 -0.5883 -0.1100
 6443TIP3    H140964   5.440   0.487   7.158 -0.0047  0.7473 -0.1032
 6443TIP3    H240965   5.453   0.558   7.291 -1.1674 -0.1909  0.5196
 6444TIP3   OH240966   0.994   4.046   8.559 -0.1563  0.1937 -0.4090
 6444TIP3    H140967   0.975   4.082   8.646 -0.7023 -0.0415 -0.4260
 6444TIP3    H240968   1.074   4.090   8.532 -0.8202  1.4332 -0.4455
 6445TIP3   OH240969   1.347   2.607   8.323 -0.5754  0.1321  0.0182
 6445TIP3    H140970   1.427   2.558   8.341 -0.0937  1.4865  1.8861
 6445TIP3    H240971   1.299   2.607   8.407 -2.3978 -0.3761 -0.9674
 6446TIP3   OH240972   4.200   1.847   7.252 -0.3823  0.2480 -0.5940
 6446TIP3    H140973   4.296   1.837   7.250 -0.2780  1.2043 -1.5049
 6446TIP3    H240974   4.180   1.865   7.344 -0.1785 -3.7120  0.4170
 6447TIP3   OH240975   6.623   0.498   0.902  0.1723 -0.1171  0.4516
 6447TIP3    H140976   6.566   0.466   0.832  2.3745 -2.8782 -0.2423
 6447TIP3    H240977   6.573   0.483   0.982 -1.0213 -0.1272 -0.2629
 6448TIP3   OH240978   2.862   1.787   7.740  0.7574  0.2793  0.2639
 6448TIP3    H140979   2.844   1.707   7.691  2.3716 -0.4338  0.7738
 6448TIP3    H240980   2.929   1.762   7.803  0.2393  1.6959  1.4244
 6449TIP3   OH240981   0.400   4.675   7.821 -0.2466  0.0373 -0.0639
 6449TIP3    H140982   0.348   4.624   7.759  2.4088 -1.1588 -1.4701
 6449TIP3    H240983   0.423   4.612   7.890  1.2061 -0.1295 -0.6664
 6450TIP3   OH240984   4.791   4.429   6.795 -0.5280 -0.0116  0.4559
 6450TIP3    H140985   4.791   4.333   6.799 -2.2971 -0.0145  2.4018
 6450TIP3    H240986   4.881   4.453   6.814 -0.1291 -1.2938  0.3144
 6451TIP3   OH240987   5.352   1.998   1.227 -0.4671  0.2026 -0.0563
 6451TIP3    H140988   5.267   1.961   1.249 -0.5563  0.4782  0.0765
 6451TIP3    H240989   5.398   2.004   1.311 -0.2999  0.0125 -0.1341
 6452TIP3   OH240990   5.098   2.644   7.148 -0.5310  0.0511  0.3684
 6452TIP3    H140991   5.151   2.569   7.175 -0.5225 -1.1484 -2.6413
 6452TIP3    H240992   5.015   2.634   7.195  0.2097 -0.6786  1.5419
 6453TIP3   OH240993   6.722   5.097   0.274  0.1711 -0.2649 -0.3329
 6453TIP3    H140994   6.643   5.046   0.287 -0.9552  1.4098 -0.2497
 6453TIP3    H240995   6.770   5.090   0.357 -0.0734 -0.9547 -0.2448
 6454TIP3   OH240996   0.583   2.090   6.656 -0.8542  0.3570 -0.1706
 6454TIP3    H140997   0.673   2.121   6.644 -0.3043 -1.3578 -0.8091
 6454TIP3    H240998   0.558   2.121   6.742  1.1968 -0.9814  0.9980
 6455TIP3   OH240999   5.196   5.618   7.654  0.1339 -0.5599  0.2502
 6455TIP3    H141000   5.228   5.537   7.612  0.0814 -0.2676 -0.3669
 6455TIP3    H241001   5.102   5.604   7.664  0.2340 -0.8612  0.8002
 6456TIP3   OH241002   4.592   1.053   7.889  0.4670 -0.1732  0.2896
 6456TIP3    H141003   4.679   1.034   7.925 -0.1479 -1.9002  0.9235
 6456TIP3    H241004   4.573   0.979   7.831 -1.6271 -1.1777  2.1404
 6457TIP3   OH241005   1.328   4.883   7.417  1.1798  0.1803 -0.1528
 6457TIP3    H141006   1.318   4.835   7.499  2.3283 -1.0882 -0.7097
 6457TIP3    H241007   1.290   4.825   7.351 -1.8834  2.1701 -0.3364
 6458TIP3   OH241008   3.129   6.020   1.475 -0.0806  0.7333  0.4652
 6458TIP3    H141009   3.163   5.931   1.464  1.5063  1.1188  1.8728
 6458TIP3    H241010   3.159   6.067   1.396 -1.2209 -0.0222 -0.4523
 6459TIP3   OH241011   2.912   5.760   0.161 -0.7609 -0.7293 -0.6032
 6459TIP3    H141012   2.974   5.800   0.222 -1.4815  0.1521 -0.4087
 6459TIP3    H241013   2.905   5.823   0.089 -0.9925 -1.0820 -0.8929
 6460TIP3   OH241014   3.198   2.814   1.338  0.1980 -0.2601  0.0598
 6460TIP3    H141015   3.196   2.817   1.242 -1.3193 -1.7086 -0.0052
 6460TIP3    H241016   3.205   2.906   1.364 -1.7110  0.4131 -1.4702
 6461TIP3   OH241017   0.285   6.689   0.549  0.2208  0.2847  0.5387
 6461TIP3    H141018   0.215   6.720   0.492 -0.3037  0.1271  1.0815
 6461TIP3    H241019   0.364   6.732   0.517  0.0687 -0.3591 -0.7452
 6462TIP3   OH241020   0.078   3.934   2.511 -0.6779  0.3456 -0.0313
 6462TIP3    H141021   0.068   3.850   2.555 -0.3348  0.2937 -0.0469
 6462TIP3    H241022   0.041   3.998   2.572 -0.7119  0.2114  0.0881
 6463TIP3   OH241023   3.729   2.766   0.736 -0.0670  0.6236 -0.2561
 6463TIP3    H141024   3.672   2.697   0.703  1.3318 -1.0380  0.6053
 6463TIP3    H241025   3.817   2.738   0.712  0.7388  0.8905  2.1356
 6464TIP3   OH241026   6.670   2.493   1.602  0.8913 -0.2179  0.7269
 6464TIP3    H141027   6.656   2.455   1.516 -0.2810  1.8695 -0.0864
 6464TIP3    H241028   6.608   2.448   1.660  1.3080 -1.2466  0.3992
 6465TIP3   OH241029   2.729   4.076   0.557  0.4586 -0.2520 -0.5319
 6465TIP3    H141030   2.723   4.166   0.589  2.7703  0.7353 -2.6123
 6465TIP3    H241031   2.789   4.033   0.619 -2.6963 -1.2916  2.0707
 6466TIP3   OH241032   5.434   5.384   7.145 -0.7708 -0.3824 -0.7554
 6466TIP3    H141033   5.469   5.434   7.071 -0.2897 -0.3268 -0.4899
 6466TIP3    H241034   5.377   5.445   7.191  0.6758  0.2802  0.2071
 6467TIP3   OH241035   3.426   2.154   7.971 -0.4063  0.4802 -0.4163
 6467TIP3    H141036   3.416   2.109   8.055  2.2791  0.9901  0.2582
 6467TIP3    H241037   3.453   2.085   7.911 -0.7649  0.4018 -0.4908
 6468TIP3   OH241038   0.196   0.645   0.496 -0.9520  0.1781 -0.0278
 6468TIP3    H141039   0.128   0.700   0.535 -1.1861  0.0576 -0.2628
 6468TIP3    H241040   0.226   0.589   0.568 -0.9385  0.3930  0.1328
 6469TIP3   OH241041   2.526   2.159   7.126  0.2790  0.1638  0.3568
 6469TIP3    H141042   2.568   2.161   7.212  0.1723 -0.7443  0.4355
 6469TIP3    H241043   2.500   2.068   7.114 -0.5153  0.4597 -0.2476
 6470TIP3   OH241044   5.620   5.996   7.419  0.2132  0.7396 -0.5532
 6470TIP3    H141045   5.574   5.987   7.335  0.4954 -2.3855 -0.4827
 6470TIP3    H241046   5.685   6.064   7.403  0.0995  0.3970 -2.8057
 6471TIP3   OH241047   1.197   5.651   7.984 -0.4616 -0.8724 -0.5697
 6471TIP3    H141048   1.213   5.703   7.905  0.2948  0.6836  0.5524
 6471TIP3    H241049   1.102   5.651   7.994 -0.4517  1.8025  0.2953
 6472TIP3   OH241050   6.163   3.250   6.951 -0.1782 -0.7081  0.2229
 6472TIP3    H141051   6.092   3.186   6.961 -1.5845  0.8415  0.5223
 6472TIP3    H241052   6.162   3.270   6.857 -1.1187  0.3652  0.4464
 6473TIP3   OH241053   3.852   3.620   2.354  0.3494  0.0632  0.2477
 6473TIP3    H141054   3.924   3.679   2.377 -0.6979  2.3542 -1.8163
 6473TIP3    H241055   3.775   3.678   2.351 -1.0991 -1.7938 -0.1271
 6474TIP3   OH241056   5.716   2.900   8.327  0.3143 -0.2448  0.4943
 6474TIP3    H141057   5.786   2.888   8.391 -0.3812 -0.2910  1.2675
 6474TIP3    H241058   5.749   2.966   8.266  0.6183  0.4862  1.4444
 6475TIP3   OH241059   3.287   3.803   8.403 -0.2608  0.5961 -0.2112
 6475TIP3    H141060   3.330   3.779   8.485 -0.3657  1.7407  0.1925
 6475TIP3    H241061   3.341   3.872   8.365  0.6047 -0.9050 -1.8799
 6476TIP3   OH241062   5.245   4.283   1.530  0.6726 -0.9760 -0.1804
 6476TIP3    H141063   5.247   4.202   1.582  1.9823 -0.8807 -0.0425
 6476TIP3    H241064   5.333   4.290   1.494  0.0096 -0.6437 -1.8335
 6477TIP3   OH241065   6.798   5.896   2.095  0.4710 -0.6348  0.5382
 6477TIP3    H141066   6.713   5.937   2.077  0.8582 -0.7809 -2.0697
 6477TIP3    H241067   6.782   5.840   2.171 -2.0839 -1.4356 -0.4703
 6478TIP3   OH241068   5.088   5.500   6.449 -0.0967 -0.2073 -0.4455
 6478TIP3    H141069   5.058   5.590   6.435  0.2172  0.1115  0.8656
 6478TIP3    H241070   5.163   5.508   6.508 -0.9351 -1.4271  0.8411
 6479TIP3   OH241071   5.109   1.118   1.513  0.5732 -0.2540  0.5118
 6479TIP3    H141072   5.097   1.108   1.608  1.3968 -0.5020  0.6019
 6479TIP3    H241073   5.099   1.030   1.478 -1.1572  0.0502  0.1766
 6480TIP3   OH241074   5.688   1.267   0.788 -0.0588 -0.5402 -0.2970
 6480TIP3    H141075   5.647   1.318   0.857  1.5143 -0.2813  0.4822
 6480TIP3    H241076   5.615   1.240   0.732 -1.0528  1.6714 -0.1743
 6481TIP3   OH241077   4.932   6.264   1.857 -0.0445 -0.2065 -0.4863
 6481TIP3    H141078   4.994   6.264   1.931 -0.1683  0.0220 -0.3818
 6481TIP3    H241079   4.847   6.251   1.897  0.0214 -1.4049 -0.7116
 6482TIP3   OH241080   3.265   5.358   8.508 -0.1586 -0.1377  0.1534
 6482TIP3    H141081   3.285   5.444   8.470 -1.0938 -0.1707 -0.4527
 6482TIP3    H241082   3.170   5.357   8.515 -0.0582 -0.4911  1.7016
 6483TIP3   OH241083   2.805   3.385   7.356  0.0687  0.4125  0.1173
 6483TIP3    H141084   2.824   3.473   7.322  1.1251  0.0489 -0.2576
 6483TIP3    H241085   2.761   3.341   7.283  0.0114  0.4625  0.1216
 6484TIP3   OH241086   6.171   6.624   7.671  0.1208  0.5215  0.2100
 6484TIP3    H141087   6.249   6.620   7.616 -1.0217 -1.1328 -1.3682
 6484TIP3    H241088   6.105   6.667   7.617 -1.5895 -2.8077 -0.6118
 6485TIP3   OH241089   3.181   1.143   7.009  0.1855 -0.1864 -0.2161
 6485TIP3    H141090   3.261   1.106   6.971  0.1953 -0.5522  0.1586
 6485TIP3    H241091   3.110   1.096   6.966  0.1587  0.2995 -0.7182
 6486TIP3   OH241092   5.390   1.806   7.004 -0.1315 -0.1096 -0.3267
 6486TIP3    H141093   5.294   1.810   7.010 -0.0691  0.9365  0.2666
 6486TIP3    H241094   5.410   1.713   7.012 -1.0154 -0.1970  1.5147
 6487TIP3   OH241095   4.496   0.343   7.692 -0.0002  0.4804  0.3572
 6487TIP3    H141096   4.461   0.428   7.719 -1.9342  0.2238 -1.1336
 6487TIP3    H241097   4.463   0.281   7.757 -1.8468  0.3494 -0.6452
 6488TIP3   OH241098   2.844   1.593   7.556 -0.0853  0.1907  0.2749
 6488TIP3    H141099   2.789   1.526   7.515  2.5846 -1.7854 -0.3058
 6488TIP3    H241100   2.887   1.637   7.483 -0.5318  1.4381  0.7359
 6489TIP3   OH241101   3.967   5.901   0.039  0.2961 -0.4094  0.5413
 6489TIP3    H141102   3.953   5.935   0.127  0.5811  0.6954  0.1797
 6489TIP3    H241103   4.026   5.964  -0.002  0.3287 -1.0146 -0.3779
 6490TIP3   OH241104   4.643   0.446   0.928  0.0648 -0.3425 -0.1934
 6490TIP3    H141105   4.588   0.374   0.957  0.1917 -0.9067 -1.2777
 6490TIP3    H241106   4.673   0.489   1.008 -2.3248  0.2915  0.4356
 6491TIP3   OH241107   2.362   4.976   8.642  0.5421 -0.1271 -0.1766
 6491TIP3    H141108   2.414   5.056   8.642  2.9017 -1.4083  3.0993
 6491TIP3    H241109   2.291   4.994   8.703  0.9431 -0.3778  0.3828
 6492TIP3   OH241110   5.408   3.901   8.505 -0.5961 -0.5126 -0.2129
 6492TIP3    H141111   5.320   3.925   8.475 -0.8393 -2.0935 -0.8267
 6492TIP3    H241112   5.403   3.906   8.601 -1.1864 -0.0586 -0.2602
 6493TIP3   OH241113   3.189   4.581   1.408 -0.2758  0.0678 -0.1226
 6493TIP3    H141114   3.270   4.633   1.413 -1.1913  1.5298  0.0275
 6493TIP3    H241115   3.199   4.529   1.329  1.2621 -0.5787  0.4521
 6494TIP3   OH241116   0.807   5.999   8.762 -0.5131 -0.0850 -0.2804
 6494TIP3    H141117   0.719   5.967   8.785 -0.3822 -0.2550 -0.0120
 6494TIP3    H241118   0.831   6.056   8.836 -0.0165 -0.7685  0.0954
 6495TIP3   OH241119   3.809   1.465   1.522 -0.0159 -0.0591  0.2934
 6495TIP3    H141120   3.777   1.475   1.432 -2.3976  2.6962  1.2896
 6495TIP3    H241121   3.739   1.418   1.567 -0.4756  1.6441  1.4216
 6496TIP3   OH241122   5.404   2.084   7.027 -0.5930 -0.0332 -0.4980
 6496TIP3    H141123   5.404   1.991   7.002 -0.8199  0.0351 -0.7533
 6496TIP3    H241124   5.468   2.089   7.098 -1.2579 -0.5553  0.1557
 6497TIP3   OH241125   1.861   3.850   2.272 -0.2944  0.1581  0.0939
 6497TIP3    H141126   1.826   3.769   2.236 -0.1513 -0.3619  1.0944
 6497TIP3    H241127   1.955   3.847   2.254 -0.1465 -0.3259  0.9091
 6498TIP3   OH241128   2.488   0.861   8.331 -0.7387 -0.6518 -0.0541
 6498TIP3    H141129   2.423   0.791   8.338 -1.6611 -0.1164 -2.2072
 6498TIP3    H241130   2.566   0.826   8.374 -1.5633 -2.4998  0.0391
 6499TIP3   OH241131   5.680   4.722   8.599 -0.2730 -0.3164  0.3892
 6499TIP3    H141132   5.692   4.754   8.688  1.6584  1.3939 -0.4102
 6499TIP3    H241133   5.720   4.635   8.599  1.2329  0.3381  0.8354
 6500TIP3   OH241134   0.802   2.180   1.632  0.3391 -0.0835 -0.1531
 6500TIP3    H141135   0.894   2.199   1.652  0.5966 -0.7308 -0.6867
 6500TIP3    H241136   0.776   2.250   1.572  0.8410 -0.5603 -0.9367
 6501TIP3   OH241137   5.486   1.698   2.163  0.0732  0.5731 -0.0503
 6501TIP3    H141138   5.500   1.607   2.138  0.0325  0.5731 -0.0727
 6501TIP3    H241139   5.515   1.703   2.254 -1.4139  0.1754  0.4586
 6502TIP3   OH241140   5.647   2.981   7.872  0.1670 -0.2229 -0.1704
 6502TIP3    H141141   5.738   2.959   7.894  0.7746  1.1475 -1.1312
 6502TIP3    H241142   5.633   3.066   7.913 -0.5994 -0.3014 -0.2638
 6503TIP3   OH241143   5.877   1.799   6.818  0.2476 -0.0403  0.1365
 6503TIP3    H141144   5.818   1.745   6.766  0.7642  1.5172 -2.2493
 6503TIP3    H241145   5.909   1.741   6.886 -0.8913 -2.0884 -0.9760
 6504TIP3   OH241146   0.324   1.132   6.203  0.5760  0.0695 -0.3633
 6504TIP3    H141147   0.380   1.210   6.204 -0.0462  0.5249 -0.7167
 6504TIP3    H241148   0.235   1.166   6.216  0.3496 -0.6205 -0.1042
 6505TIP3   OH241149   1.947   2.934   6.442  0.7541  0.3737  0.1781
 6505TIP3    H141150   2.001   3.012   6.459 -1.6137  2.2574 -0.3992
 6505TIP3    H241151   1.872   2.943   6.501 -1.0928  0.1928 -2.0010
 6506TIP3   OH241152   0.318   1.882   8.564 -0.9193 -0.1976  0.2442
 6506TIP3    H141153   0.241   1.938   8.573 -2.6808 -2.4987  0.5742
 6506TIP3    H241154   0.353   1.875   8.652 -0.0680  1.1048  0.0447
 6507TIP3   OH241155   2.231   4.761   6.778  0.2807  0.3772  0.3460
 6507TIP3    H141156   2.191   4.815   6.709  0.3600 -0.4206 -0.3477
 6507TIP3    H241157   2.212   4.808   6.859  0.0644  1.2724 -0.2050
 6508TIP3   OH241158   4.838   1.941   6.956  0.3218  0.1909  0.0305
 6508TIP3    H141159   4.811   1.884   7.028  0.2058  0.1782 -0.0226
 6508TIP3    H241160   4.818   1.891   6.877 -0.2816  0.5171 -0.0301
 6509TIP3   OH241161   2.225   4.736   8.560 -0.2060 -0.6485 -0.5317
 6509TIP3    H141162   2.265   4.821   8.543 -0.9241  0.0630  1.1901
 6509TIP3    H241163   2.168   4.722   8.485  0.1951  0.2022 -1.0163
 6510TIP3   OH241164   2.246   3.770   6.906 -0.3135  0.1662  0.1914
 6510TIP3    H141165   2.342   3.771   6.911 -0.3542 -0.6667  1.6668
 6510TIP3    H241166   2.226   3.814   6.824  1.4318 -2.0719 -1.5698
 6511TIP3   OH241167   3.307   2.293   0.978 -0.6267 -0.1893  0.0009
 6511TIP3    H141168   3.222   2.254   0.957 -1.2829  0.9159  0.5057
 6511TIP3    H241169   3.371   2.227   0.952 -1.6694 -1.3553  0.2953
 6512TIP3   OH241170   2.480   5.670   0.240 -0.5136 -0.4803 -0.6954
 6512TIP3    H141171   2.427   5.683   0.161  0.8716 -1.0731 -1.7775
 6512TIP3    H241172   2.420   5.630   0.303 -1.4515 -0.7869 -1.7437
 6513TIP3   OH241173   3.850   6.549   7.454 -0.3018  0.3661  0.2674
 6513TIP3    H141174   3.826   6.641   7.466 -1.5214  0.2499 -0.9906
 6513TIP3    H241175   3.798   6.502   7.519 -0.6617  0.4752  0.0673
 6514TIP3   OH241176   2.993   4.887   8.737 -0.5031  0.0692 -0.4197
 6514TIP3    H141177   3.028   4.805   8.702  0.4547 -1.7284  4.1112
 6514TIP3    H241178   3.060   4.953   8.718  0.9993 -1.2997 -0.0305
 6515TIP3   OH241179   6.268   1.043   0.721  0.1187  0.1102  0.5157
 6515TIP3    H141180   6.293   1.057   0.630 -0.8590 -0.2359  0.1768
 6515TIP3    H241181   6.348   1.012   0.764  0.1617 -1.5670 -0.6636
 6516TIP3   OH241182   0.849   5.378   7.289 -0.0820  0.8950 -0.2585
 6516TIP3    H141183   0.835   5.287   7.260 -0.2342  0.5561  0.8570
 6516TIP3    H241184   0.864   5.426   7.207 -1.2308  0.0955 -0.9762
 6517TIP3   OH241185   3.591   4.503   0.445  0.8107 -0.1115  0.1283
 6517TIP3    H141186   3.589   4.457   0.361 -3.2916  0.7868 -0.5115
 6517TIP3    H241187   3.651   4.452   0.500  0.6150 -3.0314 -2.1452
 6518TIP3   OH241188   3.491   6.803   0.418  0.2070  0.3206  0.1522
 6518TIP3    H141189   3.543   6.864   0.367 -1.2330  1.2526 -0.2360
 6518TIP3    H241190   3.518   6.820   0.509  0.2601  1.1021 -0.0010
 6519TIP3   OH241191   5.424   3.780   7.824 -0.2236  0.0814  0.3136
 6519TIP3    H141192   5.497   3.737   7.778 -0.3432 -0.6864  0.8169
 6519TIP3    H241193   5.345   3.739   7.788 -0.3671  0.2946  0.3822
 6520TIP3   OH241194   5.925   4.782   0.786  0.3083 -0.0745  0.4356
 6520TIP3    H141195   5.882   4.855   0.829  0.4419  0.2021  0.1037
 6520TIP3    H241196   6.014   4.780   0.823  0.2003 -0.2793  0.6886
 6521TIP3   OH241197   0.555   1.569   1.866  0.1313 -0.3066  0.3183
 6521TIP3    H141198   0.536   1.607   1.952  0.1713  1.1135 -0.2593
 6521TIP3    H241199   0.518   1.633   1.804 -1.0936 -1.9456 -0.7183
 6522TIP3   OH241200   1.913   0.664   8.463 -0.2885  0.0340 -0.6576
 6522TIP3    H141201   1.972   0.630   8.395 -0.4409 -0.7298 -0.4192
 6522TIP3    H241202   1.825   0.648   8.428 -0.3709 -0.5420 -0.2030
 6523TIP3   OH241203   6.319   5.710   7.995  0.0541 -0.7746  0.2489
 6523TIP3    H141204   6.408   5.680   8.009  0.4778 -0.6491 -1.8330
 6523TIP3    H241205   6.289   5.662   7.918 -0.9600  0.6356 -0.2793
 6524TIP3   OH241206   3.205   2.529   6.542  0.1825  0.6414  0.3298
 6524TIP3    H141207   3.199   2.459   6.477  0.0237 -1.4792  2.4773
 6524TIP3    H241208   3.123   2.578   6.531  1.7353  2.8574 -3.5148
 6525TIP3   OH241209   4.817   1.832   8.518 -0.7764 -0.2769  0.1810
 6525TIP3    H141210   4.879   1.884   8.569  0.4836  0.1583 -1.6656
 6525TIP3    H241211   4.733   1.877   8.529 -0.3751  0.2566  1.1876
 6526TIP3   OH241212   2.416   4.234   0.514 -0.3352  0.2704 -0.3375
 6526TIP3    H141213   2.357   4.228   0.590 -2.4469 -0.1847 -1.9155
 6526TIP3    H241214   2.504   4.227   0.551 -1.2624  0.5233  2.1029
 6527TIP3   OH241215   6.581   0.069   6.267 -0.3066  0.0566 -0.7558
 6527TIP3    H141216   6.542   0.075   6.179  1.5148  1.5717 -1.5302
 6527TIP3    H241217   6.545   0.143   6.315  1.3125  1.3058 -1.3907
 6528TIP3   OH241218   3.115   1.084   8.045 -0.2718 -0.3808 -0.0741
 6528TIP3    H141219   3.139   1.043   8.128  1.2807  0.4538 -0.0722
 6528TIP3    H241220   3.186   1.146   8.028 -0.8571 -0.1242 -1.7378
 6529TIP3   OH241221   2.010   2.230   0.231  0.3130 -0.0286 -0.4927
 6529TIP3    H141222   2.088   2.202   0.279  0.4551  0.5809 -0.3518
 6529TIP3    H241223   2.045   2.279   0.156  0.1423  3.8418  1.6841
 6530TIP3   OH241224   5.725   3.633   7.394  0.3404 -0.3259 -0.2929
 6530TIP3    H141225   5.793   3.660   7.332 -0.8170  0.1224 -1.3963
 6530TIP3    H241226   5.711   3.540   7.375  0.2806 -0.2945 -0.3983
 6531TIP3   OH241227   5.603   4.786   6.737 -1.1116  0.0019 -1.3013
 6531TIP3    H141228   5.510   4.796   6.756 -0.6821  1.3160  0.3570
 6531TIP3    H241229   5.630   4.711   6.790 -0.6701  1.4115  0.5518
 6532TIP3   OH241230   5.390   5.773   8.780  0.6420  0.1285 -0.1636
 6532TIP3    H141231   5.338   5.748   8.704 -0.2240  0.9051  0.1552
 6532TIP3    H241232   5.328   5.813   8.840  1.5545  0.8356  0.3504
 6533TIP3   OH241233   5.593   1.794   0.141  0.2969  0.0812  0.4649
 6533TIP3    H141234   5.576   1.725   0.204 -1.4035 -0.7549 -0.8208
 6533TIP3    H241235   5.517   1.852   0.148  0.4731  0.4063 -0.2323
 6534TIP3   OH241236   6.421   3.274   7.857  0.0097 -0.3540 -0.6473
 6534TIP3    H141237   6.457   3.354   7.896  0.1081 -0.1764 -1.0991
 6534TIP3    H241238   6.326   3.287   7.859 -0.0706 -0.9333  0.7849
 6535TIP3   OH241239   6.553   6.652   1.158 -0.5021  0.3791 -0.5472
 6535TIP3    H141240   6.613   6.641   1.084  0.7645  0.6414  0.4062
 6535TIP3    H241241   6.531   6.563   1.184 -1.3675  0.2896 -1.5555
 6536TIP3   OH241242   3.337   2.943   7.988  0.6401  0.8848  0.8583
 6536TIP3    H141243   3.396   2.985   8.050  0.4220  0.2881  1.4854
 6536TIP3    H241244   3.255   2.992   7.995  1.0386  1.7117 -0.0095
 6537TIP3   OH241245   4.561   3.852   7.312  0.3031  0.3677 -0.0853
 6537TIP3    H141246   4.595   3.767   7.339 -0.6450 -0.1163 -0.3640
 6537TIP3    H241247   4.536   3.895   7.394 -1.1755 -0.4941 -0.0359
 6538TIP3   OH241248   4.146   0.328   0.045  0.3668 -0.1702 -0.3738
 6538TIP3    H141249   4.071   0.277   0.014  0.2067  0.3726 -0.8900
 6538TIP3    H241250   4.113   0.417   0.051  1.3956  0.3953 -2.2302
 6539TIP3   OH241251   2.805   2.268   0.405  0.4861  0.2413 -0.2706
 6539TIP3    H141252   2.867   2.243   0.335 -0.0061  1.0510 -1.0206
 6539TIP3    H241253   2.861   2.300   0.475  1.0271 -1.1572 -0.0196
 6540TIP3   OH241254   1.493   0.561   6.984 -0.2052 -0.2236  0.5812
 6540TIP3    H141255   1.562   0.508   6.944 -0.7965 -1.5349  1.2375
 6540TIP3    H241256   1.528   0.588   7.069 -0.3607 -0.6152  0.7740
 6541TIP3   OH241257   0.953   3.562   1.383  0.2606  0.2225 -0.0240
 6541TIP3    H141258   1.026   3.581   1.324 -1.0039  0.5312 -1.5453
 6541TIP3    H241259   0.910   3.647   1.397 -0.4708 -0.1310 -0.0660
 6542TIP3   OH241260   1.362   3.209   8.475 -0.2625  0.0538 -0.5709
 6542TIP3    H141261   1.444   3.207   8.425  0.3926  2.1708  0.3476
 6542TIP3    H241262   1.376   3.274   8.543 -1.7662 -1.4865  1.3416
 6543TIP3   OH241263   3.483   4.499   1.355  0.4540  0.6046 -0.3389
 6543TIP3    H141264   3.413   4.435   1.364  1.3847 -0.4154 -0.0136
 6543TIP3    H241265   3.524   4.501   1.442  1.3306  0.5453 -0.7352
 6544TIP3   OH241266   4.647   4.286   7.577  0.1258 -0.5392 -0.9907
 6544TIP3    H141267   4.622   4.318   7.490 -0.9175  2.5253  0.2915
 6544TIP3    H241268   4.726   4.233   7.561 -0.4592 -0.7422 -3.8431
 6545TIP3   OH241269   0.350   3.267   8.543  0.1884 -0.0982  0.2534
 6545TIP3    H141270   0.294   3.228   8.476  1.0374 -0.0839 -0.4776
 6545TIP3    H241271   0.409   3.325   8.494 -0.5836  1.5816  1.2370
 6546TIP3   OH241272   3.855   6.796   6.963 -0.6091 -0.4529 -0.2874
 6546TIP3    H141273   3.924   6.848   6.923 -1.9445  1.4358 -0.3069
 6546TIP3    H241274   3.805   6.762   6.888 -0.1180 -1.2559 -0.2621
 6547TIP3   OH241275   1.990   3.550   0.463 -0.4727  0.2140  0.6736
 6547TIP3    H141276   2.043   3.548   0.542 -0.4079 -0.1712  0.6225
 6547TIP3    H241277   2.053   3.565   0.392  0.0102 -3.0300  0.2750
 6548TIP3   OH241278   0.353   2.380   8.618  0.3743  0.4782  0.0884
 6548TIP3    H141279   0.391   2.302   8.577 -1.7353  0.5547 -2.2257
 6548TIP3    H241280   0.401   2.453   8.578 -2.2054  0.6010 -3.1931
 6549TIP3   OH241281   6.334   1.150   0.497 -0.0626 -1.1017 -0.1447
 6549TIP3    H141282   6.337   1.233   0.544  0.1920 -1.9867  1.5007
 6549TIP3    H241283   6.376   1.167   0.413  0.1917  0.3676  0.2654
 6550TIP3   OH241284   3.599   3.887   0.981  0.8532  0.3020  0.0696
 6550TIP3    H141285   3.667   3.949   1.008  0.9192  0.3517 -0.2048
 6550TIP3    H241286   3.625   3.804   1.021  0.9431  0.3762  0.1662
 6551TIP3   OH241287   4.798   3.315   7.580 -0.1800 -0.0649  0.3960
 6551TIP3    H141288   4.715   3.307   7.534 -0.3944 -2.5270  1.0574
 6551TIP3    H241289   4.848   3.379   7.529 -2.7699  2.2401  0.5280
 6552TIP3   OH241290   3.349   6.326   1.649 -0.2973 -0.0896 -0.2638
 6552TIP3    H141291   3.310   6.309   1.735  1.4209  2.0135  1.0423
 6552TIP3    H241292   3.430   6.372   1.669 -0.2312  1.1741 -3.0617
 6553TIP3   OH241293   6.506   6.093   7.982  0.2745 -0.6633  0.8015
 6553TIP3    H141294   6.587   6.142   7.998 -0.4606  0.9634 -0.1823
 6553TIP3    H241295   6.437   6.148   8.018 -0.7325 -0.1137 -1.7209
 6554TIP3   OH241296   4.630   3.069   7.311  0.3996 -0.1815  0.3591
 6554TIP3    H141297   4.687   3.097   7.239 -0.3977  1.7863  0.4298
 6554TIP3    H241298   4.621   3.147   7.367 -0.9954 -0.9296  1.2459
 6555TIP3   OH241299   2.487   5.543   1.923  0.1405 -0.0283  0.3582
 6555TIP3    H141300   2.523   5.593   1.851 -0.5290 -2.8152 -2.1306
 6555TIP3    H241301   2.399   5.579   1.936 -0.0970 -0.0848 -0.9359
 6556TIP3   OH241302   5.494   2.012   8.089 -0.0830 -0.0734  0.3635
 6556TIP3    H141303   5.488   1.934   8.143  1.5295  1.3478  2.8233
 6556TIP3    H241304   5.403   2.042   8.079 -0.5094 -0.9918  1.3487
 6557TIP3   OH241305   2.477   0.135   7.012 -0.6013  0.6461  0.3414
 6557TIP3    H141306   2.429   0.209   6.975  0.0786  0.7372 -0.3783
 6557TIP3    H241307   2.478   0.070   6.941  1.3039  1.0848 -0.0758
 6558TIP3   OH241308   1.369   4.558   8.347  0.5181 -0.0400  0.1955
 6558TIP3    H141309   1.389   4.498   8.275  2.5769  1.2081 -0.3722
 6558TIP3    H241310   1.442   4.547   8.408  0.6642  1.4825  0.3324
 6559TIP3   OH241311   6.813   5.851   1.346  0.2758  0.6122  0.1493
 6559TIP3    H141312   6.833   5.838   1.438 -0.7530  0.1748  0.3306
 6559TIP3    H241313   6.885   5.904   1.312  2.4727 -1.9924  0.3991
 6560TIP3   OH241314   0.504   2.132   6.911  0.1472  0.3680 -0.2283
 6560TIP3    H141315   0.450   2.114   6.988 -1.9671  1.2932 -1.3972
 6560TIP3    H241316   0.594   2.133   6.944 -0.5403 -0.9105  1.8860
 6561TIP3   OH241317   6.591   2.720   0.105  0.4158  0.4035 -0.3175
 6561TIP3    H141318   6.649   2.658   0.151 -0.2103  0.2833  0.3164
 6561TIP3    H241319   6.510   2.718   0.155 -0.0249  0.8272 -1.0141
 6562TIP3   OH241320   5.086   1.691   1.482  0.6903 -0.5295  0.0740
 6562TIP3    H141321   5.110   1.646   1.564 -2.1811 -0.9088  0.7981
 6562TIP3    H241322   5.083   1.784   1.507  1.2367 -0.4826 -0.0102
 6563TIP3   OH241323   2.010   4.263   7.572  0.0782 -0.0841  0.3985
 6563TIP3    H141324   2.056   4.248   7.654  1.5113 -0.6474 -0.4654
 6563TIP3    H241325   2.027   4.183   7.521  0.5877  0.9168 -1.0462
 6564TIP3   OH241326   1.635   1.949   1.372 -0.5334  0.1635  0.1611
 6564TIP3    H141327   1.680   2.000   1.304  1.2499 -2.0646 -0.4704
 6564TIP3    H241328   1.542   1.961   1.354 -0.1280 -0.1476 -2.5751
 6565TIP3   OH241329   6.043   0.889   8.127  0.4190  0.2248  0.3091
 6565TIP3    H141330   6.089   0.841   8.195  0.4312 -0.2487 -0.0261
 6565TIP3    H241331   6.104   0.892   8.053 -0.1923 -0.7013 -0.2573
 6566TIP3   OH241332   1.589   3.880   1.809 -0.3040  0.0499  0.0755
 6566TIP3    H141333   1.579   3.832   1.727  0.9105 -0.4486  0.2088
 6566TIP3    H241334   1.635   3.819   1.867  1.9693  1.6013  0.0123
 6567TIP3   OH241335   6.201   5.566   7.781  0.0039  0.2599 -0.3684
 6567TIP3    H141336   6.186   5.472   7.772 -0.1584  0.1937  0.5422
 6567TIP3    H241337   6.204   5.598   7.691  0.1820 -0.6326 -0.6933
 6568TIP3   OH241338   6.006   0.752   7.063 -0.5647  0.0082 -0.2180
 6568TIP3    H141339   5.919   0.742   7.025 -0.6787  1.1176 -0.2790
 6568TIP3    H241340   5.992   0.746   7.157 -0.9251  1.4825 -0.1529
 6569TIP3   OH241341   3.122   5.619   1.195 -0.3974 -0.1495  0.7503
 6569TIP3    H141342   3.096   5.576   1.277 -2.2470 -0.2158  0.1791
 6569TIP3    H241343   3.043   5.666   1.167  0.7357  1.3204 -0.1003
 6570TIP3   OH241344   0.129   3.864   8.587  0.3280  0.4878 -0.2212
 6570TIP3    H141345   0.104   3.956   8.588  1.8525  0.9145  0.1734
 6570TIP3    H241346   0.209   3.860   8.638 -1.0410 -1.4641  1.9854
 6571TIP3   OH241347   6.262   2.539   0.513  0.4402 -0.1293  0.3247
 6571TIP3    H141348   6.296   2.616   0.557  0.9621  0.4716 -1.0751
 6571TIP3    H241349   6.186   2.571   0.465 -0.0825 -0.7580  0.7125
 6572TIP3   OH241350   1.763   5.582   7.090 -1.0605 -0.4202 -0.2385
 6572TIP3    H141351   1.850   5.597   7.054 -0.9316 -0.3264  0.1083
 6572TIP3    H241352   1.713   5.660   7.066 -0.4142  0.5746  1.4963
 6573TIP3   OH241353   5.986   0.885   8.577 -0.1182  0.7853  0.8326
 6573TIP3    H141354   5.898   0.924   8.569  0.1535  1.0846 -1.2421
 6573TIP3    H241355   6.046   0.959   8.571  0.3358  0.3332 -0.6507
 6574TIP3   OH241356   4.765   3.217   7.115 -0.2429 -0.3040  0.3571
 6574TIP3    H141357   4.775   3.238   7.022  0.0302 -0.3735  0.3708
 6574TIP3    H241358   4.844   3.167   7.137  0.7615  1.5024  1.1220
 6575TIP3   OH241359   3.408   6.342   2.116 -0.0525 -0.0537 -0.4608
 6575TIP3    H141360   3.429   6.286   2.191  1.6499 -0.7708 -1.4020
 6575TIP3    H241361   3.390   6.428   2.154 -0.6819 -0.7427  0.8583
 6576TIP3   OH241362   3.923   5.426   0.174  0.5581 -0.2150  0.6205
 6576TIP3    H141363   3.907   5.462   0.261 -2.2447  0.0484  0.1023
 6576TIP3    H241364   3.963   5.498   0.125 -1.0262  0.8342  0.7930
 6577TIP3   OH241365   0.438   0.267   0.983 -0.2991 -0.2873  0.3811
 6577TIP3    H141366   0.512   0.267   1.043 -0.1414  2.0540  0.2696
 6577TIP3    H241367   0.367   0.307   1.033 -0.3310  1.1302 -0.7290
 6578TIP3   OH241368   1.306   1.062   2.004 -0.5310  0.4031 -0.6286
 6578TIP3    H141369   1.288   1.127   2.072  0.1877 -0.4320  0.3863
 6578TIP3    H241370   1.363   0.998   2.046  1.5465  0.8586 -2.5759
 6579TIP3   OH241371   1.073   1.388   2.469  0.5029  0.1324 -0.5187
 6579TIP3    H141372   1.136   1.455   2.440 -1.0970  0.5548 -3.4686
 6579TIP3    H241373   1.024   1.430   2.540  0.8484  1.3819 -0.9891
 6580TIP3   OH241374   6.740   4.299   6.508  0.4354  0.7055 -0.2377
 6580TIP3    H141375   6.707   4.387   6.494 -0.0192  0.3839 -1.2751
 6580TIP3    H241376   6.675   4.258   6.564 -0.3238  0.4667 -1.2609
 6581TIP3   OH241377   3.478   0.427   1.339  0.3612  0.4344  0.1920
 6581TIP3    H141378   3.438   0.340   1.340  0.7189  0.2386 -0.9619
 6581TIP3    H241379   3.469   0.457   1.249 -0.2559  1.8486  0.6961
 6582TIP3   OH241380   3.201   4.443   1.169 -0.0426  0.1410 -0.6570
 6582TIP3    H141381   3.246   4.464   1.087  2.0107  0.5127  0.4768
 6582TIP3    H241382   3.218   4.350   1.183  1.8859  0.5842  0.5255
 6583TIP3   OH241383   6.465   6.440   8.365  0.1096 -0.4519  0.5866
 6583TIP3    H141384   6.419   6.433   8.448 -0.6762  3.6701  0.7063
 6583TIP3    H241385   6.558   6.430   8.388 -0.1238  0.1936  1.9037
 6584TIP3   OH241386   1.145   4.370   1.737 -0.8162 -0.1296 -0.1697
 6584TIP3    H141387   1.140   4.319   1.818 -0.9528  0.4150  0.1661
 6584TIP3    H241388   1.119   4.308   1.669 -1.2859 -0.4243  0.2710
 6585TIP3   OH241389   2.535   3.608   0.536 -0.4107 -0.6503 -0.7113
 6585TIP3    H141390   2.529   3.545   0.609  0.7295  0.4904  0.4269
 6585TIP3    H241391   2.502   3.560   0.460 -1.0222 -2.1063  0.4217
 6586TIP3   OH241392   4.003   0.683   1.261  0.1790  0.3154 -0.3904
 6586TIP3    H141393   3.926   0.626   1.260 -0.8171  1.5737  0.4983
 6586TIP3    H241394   4.006   0.716   1.351  1.2392  0.9939 -0.6624
 6587TIP3   OH241395   2.493   1.424   0.071  0.1395  0.1870 -0.1023
 6587TIP3    H141396   2.515   1.374   0.149  1.8514 -1.0200 -1.2870
 6587TIP3    H241397   2.577   1.456   0.039 -0.6455  1.5692 -0.8748
 6588TIP3   OH241398   4.627   0.764   6.883  0.3802  0.5692 -0.0481
 6588TIP3    H141399   4.582   0.732   6.805  1.3921  0.4360 -0.6018
 6588TIP3    H241400   4.592   0.711   6.955  1.5695 -1.4190 -0.8426
 6589TIP3   OH241401   3.328   0.656   7.303 -0.0011 -0.6266  0.5334
 6589TIP3    H141402   3.392   0.601   7.258 -0.1581 -0.2620 -0.1394
 6589TIP3    H241403   3.258   0.596   7.328 -0.6002 -0.5827 -0.9906
 6590TIP3   OH241404   1.137   0.987   7.836  0.2575  0.4434  0.3760
 6590TIP3    H141405   1.076   0.949   7.899  1.0355 -0.9951  0.2894
 6590TIP3    H241406   1.203   1.031   7.888  0.8868 -0.7238  0.6015
 6591TIP3   OH241407   5.411   4.044   0.221  0.3866 -0.2714  0.0106
 6591TIP3    H141408   5.465   4.027   0.299 -0.2207 -1.6992  0.1520
 6591TIP3    H241409   5.322   4.052   0.256 -0.0242 -1.8203 -0.5892
 6592TIP3   OH241410   0.019   3.008   8.049  0.6369 -0.5384  0.1864
 6592TIP3    H141411  -0.035   2.929   8.057 -0.0005 -0.2503 -1.0349
 6592TIP3    H241412   0.091   2.982   7.991 -0.8608  0.3463 -2.2529
 6593TIP3   OH241413   1.519   0.890   8.514  0.0816  0.2968 -0.0794
 6593TIP3    H141414   1.594   0.835   8.494 -0.5339 -0.0237 -1.6750
 6593TIP3    H241415   1.512   0.950   8.439 -1.9066 -0.4409 -0.5501
 6594TIP3   OH241416   5.128   5.082   1.520 -0.5408 -0.0041  0.1254
 6594TIP3    H141417   5.097   5.146   1.456 -0.0259  0.6320  0.4983
 6594TIP3    H241418   5.049   5.034   1.546 -1.3087  1.7271  1.2031
 6595TIP3   OH241419   2.362   0.512   2.198 -0.1593  0.1741  0.0299
 6595TIP3    H141420   2.439   0.467   2.234 -0.1276  1.1851  1.3190
 6595TIP3    H241421   2.385   0.529   2.107 -0.3393 -2.6976 -0.6444
 6596TIP3   OH241422   0.213   3.765   2.198  0.1727 -0.0253  0.2230
 6596TIP3    H141423   0.276   3.767   2.126  0.0254  0.3581  0.0999
 6596TIP3    H241424   0.238   3.689   2.250  0.0616 -0.4996 -0.4210
 6597TIP3   OH241425   5.409   1.113   1.897  0.0923  0.1350 -0.0717
 6597TIP3    H141426   5.435   1.161   1.976 -0.5346  1.0583 -0.4066
 6597TIP3    H241427   5.478   1.131   1.834 -0.0298  0.4280 -0.1247
 6598TIP3   OH241428   1.873   1.748   0.170 -0.0751 -0.0505 -0.6151
 6598TIP3    H141429   1.924   1.816   0.213 -3.2477  1.1248  1.5949
 6598TIP3    H241430   1.845   1.690   0.241 -1.8822 -0.5619 -1.6880
 6599TIP3   OH241431   2.726   1.427   6.083 -0.1143 -0.3143  0.0196
 6599TIP3    H141432   2.664   1.491   6.117  0.0978 -1.1274  2.0781
 6599TIP3    H241433   2.808   1.476   6.076 -0.3509  0.0742 -0.1111
 6600TIP3   OH241434   2.411   4.347   1.232  0.5426 -0.1676  0.3389
 6600TIP3    H141435   2.367   4.353   1.147  0.5563 -1.0162  0.2574
 6600TIP3    H241436   2.450   4.433   1.246  0.9493 -0.1653 -0.7396
 6601TIP3   OH241437   1.701   3.662   1.575 -0.4454 -0.3212  0.3086
 6601TIP3    H141438   1.690   3.741   1.521  0.2720 -0.3180  0.1594
 6601TIP3    H241439   1.611   3.634   1.593 -0.7948 -1.6028 -2.7656
 6602TIP3   OH241440   0.989   2.626   0.565 -0.6537 -0.6604 -0.1497
 6602TIP3    H141441   0.942   2.703   0.596 -1.1620 -1.3337  0.8161
 6602TIP3    H241442   0.930   2.552   0.583 -0.4393 -1.2274 -1.6149
 6603TIP3   OH241443   5.739   4.034   2.411  0.8393  0.3746 -0.6907
 6603TIP3    H141444   5.725   3.943   2.386  1.1086  0.9664 -3.2438
 6603TIP3    H241445   5.688   4.045   2.491 -0.9992 -1.4589 -1.5296
 6604TIP3   OH241446   4.603   5.505   7.717  0.6078  0.3091  0.1960
 6604TIP3    H141447   4.514   5.521   7.687  0.8360  0.0971 -0.6230
 6604TIP3    H241448   4.627   5.583   7.767  0.0694  0.4917  0.1676
 6605TIP3   OH241449   5.457   3.828   0.029 -0.3920 -0.1196 -0.0160
 6605TIP3    H141450   5.379   3.864   0.072 -0.4574 -0.1160 -0.1371
 6605TIP3    H241451   5.530   3.875   0.069 -0.4383 -0.2674  0.2421
 6606TIP3   OH241452   2.236   5.869   0.429  0.5378 -0.1013  0.0075
 6606TIP3    H141453   2.285   5.788   0.443  0.9093  0.0397 -0.4444
 6606TIP3    H241454   2.247   5.888   0.336  0.4844  0.4862  0.1167
 6607TIP3   OH241455   6.035   5.340   0.657  0.1998  0.0992  0.3156
 6607TIP3    H141456   5.983   5.267   0.690 -1.0083  0.9671  0.4116
 6607TIP3    H241457   6.108   5.299   0.611 -0.8498 -1.1690 -0.2648
 6608TIP3   OH241458   2.641   3.450   8.003 -0.5371 -0.2164  0.1612
 6608TIP3    H141459   2.551   3.432   7.976 -0.6264 -0.6848  0.7658
 6608TIP3    H241460   2.692   3.442   7.922 -1.1766  1.1327 -0.4054
 6609TIP3   OH241461   1.520   6.809   8.233  0.7124  0.5321  0.3608
 6609TIP3    H141462   1.528   6.713   8.235  0.4013  0.4945  0.0031
 6609TIP3    H241463   1.528   6.831   8.140 -0.7566  0.7084  0.2577
 6610TIP3   OH241464   5.605   1.261   1.757 -0.2269 -0.3646  0.1341
 6610TIP3    H141465   5.577   1.209   1.682  0.5662 -1.6019  0.6521
 6610TIP3    H241466   5.537   1.327   1.768 -0.5639 -0.4254 -1.4071
 6611TIP3   OH241467   0.446   3.984   7.719  0.3174  0.1651 -0.2086
 6611TIP3    H141468   0.416   3.974   7.809 -0.4735 -1.2578 -0.6056
 6611TIP3    H241469   0.454   4.079   7.707 -0.5371  0.4164  1.0443
 6612TIP3   OH241470   5.044   3.343   7.244 -0.0029  0.2287  0.1589
 6612TIP3    H141471   5.008   3.256   7.234 -1.3243  0.6820  0.7528
 6612TIP3    H241472   5.055   3.376   7.155 -2.1367  0.4832 -0.0481
 6613TIP3   OH241473   3.801   6.244   7.243 -0.7068  0.1543  0.2895
 6613TIP3    H141474   3.808   6.210   7.332  1.4592  1.2453  0.5954
 6613TIP3    H241475   3.719   6.207   7.210 -0.9697 -1.2314  2.3041
 6614TIP3   OH241476   0.905   6.638   6.952  0.9551 -0.2011 -0.2476
 6614TIP3    H141477   0.949   6.580   7.014  0.0793 -0.9918 -0.3491
 6614TIP3    H241478   0.830   6.588   6.920 -1.5561  1.9147  1.8125
 6615TIP3   OH241479   2.705   0.557   7.330 -0.5279  0.1141  0.2304
 6615TIP3    H141480   2.783   0.584   7.378 -0.6174  2.7270 -0.9530
 6615TIP3    H241481   2.732   0.559   7.238 -1.2594 -1.6928 -0.0692
 6616TIP3   OH241482   4.215   1.774   1.618 -0.0968  0.1386  0.2981
 6616TIP3    H141483   4.157   1.711   1.660 -0.0599 -0.2592 -0.2301
 6616TIP3    H241484   4.276   1.720   1.567  0.5042  0.5685  0.5521
 6617TIP3   OH241485   2.427   2.124   0.929  0.2828  0.4490  0.4351
 6617TIP3    H141486   2.411   2.040   0.886  0.2995  0.4043  0.5153
 6617TIP3    H241487   2.396   2.111   1.019  1.3089  0.1757  0.7578
 6618TIP3   OH241488   3.035   2.401   7.655 -0.1934 -0.5176  0.0282
 6618TIP3    H141489   3.096   2.335   7.625 -2.3698 -1.8962 -1.6802
 6618TIP3    H241490   3.017   2.378   7.746 -0.8147 -2.2468 -0.5029
 6619TIP3   OH241491   1.465   5.566   7.988 -0.0919  0.4770 -0.2069
 6619TIP3    H141492   1.472   5.504   7.915  0.8730  1.8869 -1.3928
 6619TIP3    H241493   1.372   5.586   7.995 -0.0840  1.3166 -1.9880
 6620TIP3   OH241494   5.518   0.311   1.706 -0.1648 -0.2136  0.1472
 6620TIP3    H141495   5.483   0.398   1.726 -0.3310 -0.3195  0.3129
 6620TIP3    H241496   5.450   0.250   1.734 -1.5439 -0.3177 -3.0227
 6621TIP3   OH241497   1.627   3.770   1.173 -0.2392  0.1776  0.1688
 6621TIP3    H141498   1.695   3.714   1.211 -1.9101 -0.4637  2.4449
 6621TIP3    H241499   1.665   3.858   1.173  0.8988 -0.2999  0.5571
 6622TIP3   OH241500   5.464   3.746   0.430  0.4369  0.1279  0.5974
 6622TIP3    H141501   5.513   3.671   0.463  0.5997 -0.6256 -1.2107
 6622TIP3    H241502   5.381   3.709   0.399 -0.0315  0.9093  0.8880
 6623TIP3   OH241503   0.990   6.373   0.417  0.0573  0.2950 -0.1119
 6623TIP3    H141504   1.021   6.406   0.501 -0.1271  1.1630 -0.3691
 6623TIP3    H241505   1.068   6.372   0.361 -0.1377  1.4020 -0.4304
 6624TIP3   OH241506   3.457   5.521   7.723 -0.1423 -0.5584  0.1036
 6624TIP3    H141507   3.382   5.464   7.740 -0.1078 -0.8702 -0.7377
 6624TIP3    H241508   3.511   5.514   7.802 -0.8969 -0.4877  0.6319
 6625TIP3   OH241509   5.306   2.590   1.294  0.8871 -0.7336  0.4647
 6625TIP3    H141510   5.227   2.582   1.347  0.0189 -0.7139 -0.7901
 6625TIP3    H241511   5.318   2.685   1.283 -0.2495 -0.7393 -1.2194
 6626TIP3   OH241512   5.758   3.827   8.716 -0.2189  0.0172  0.0626
 6626TIP3    H141513   5.680   3.878   8.693 -0.1589  0.1291  0.1071
 6626TIP3    H241514   5.739   3.794   8.803  0.0495  0.5734  0.3399
 6627TIP3   OH241515   2.304   2.343   8.177 -0.0147 -1.0323 -0.2418
 6627TIP3    H141516   2.348   2.428   8.178 -1.2263 -0.3928  0.2554
 6627TIP3    H241517   2.376   2.280   8.178  0.9008 -0.0266  0.3180
 6628TIP3   OH241518   5.540   3.096   0.842 -0.3082 -0.2435  0.2762
 6628TIP3    H141519   5.449   3.106   0.815  0.0835  0.1631 -0.9321
 6628TIP3    H241520   5.544   3.009   0.882 -1.4749  0.2020  1.4435
 6629TIP3   OH241521   1.011   0.850   0.916  0.7759  0.1175 -0.2972
 6629TIP3    H141522   0.916   0.843   0.909  0.8713 -0.9824 -0.8422
 6629TIP3    H241523   1.035   0.923   0.858  0.4456 -1.1155 -2.0863
 6630TIP3   OH241524   3.512   4.594   7.680  0.4950  0.4616 -0.3221
 6630TIP3    H141525   3.434   4.545   7.653  0.3267  0.0252  0.9056
 6630TIP3    H241526   3.573   4.583   7.606 -0.3366  0.2211 -0.9919
 6631TIP3   OH241527   4.499   3.856   6.706 -0.9725 -0.2750 -0.0054
 6631TIP3    H141528   4.485   3.765   6.681 -1.3155 -0.2299  0.0172
 6631TIP3    H241529   4.550   3.894   6.634 -1.2629 -0.3541 -0.2539
 6632TIP3   OH241530   0.418   4.333   0.571 -0.3040  0.5288  0.0800
 6632TIP3    H141531   0.327   4.361   0.558 -0.9649 -1.5705 -0.1841
 6632TIP3    H241532   0.464   4.363   0.493 -0.9951  0.7790 -0.2397
 6633TIP3   OH241533   1.356   4.593   0.618  0.4659 -0.2913  0.2954
 6633TIP3    H141534   1.388   4.679   0.590  0.8608 -0.8602 -1.1094
 6633TIP3    H241535   1.292   4.568   0.551 -1.0629 -0.2967  1.6984
 6634TIP3   OH241536   6.657   6.848   8.235  0.9664  0.6713  0.3741
 6634TIP3    H141537   6.682   6.775   8.178  0.8258  0.5531  0.4636
 6634TIP3    H241538   6.650   6.923   8.176 -1.2084  0.1332 -0.1334
 6635TIP3   OH241539   4.218   5.510   1.569 -0.0133  0.2230  0.4583
 6635TIP3    H141540   4.313   5.498   1.573 -0.0578 -0.6041 -0.4756
 6635TIP3    H241541   4.188   5.443   1.507 -1.1198  0.9572  0.1672
 6636TIP3   OH241542   1.392   4.143   8.300  0.1327  0.1982  0.2217
 6636TIP3    H141543   1.314   4.188   8.271 -0.3739 -0.4147  0.6083
 6636TIP3    H241544   1.408   4.076   8.233  0.0843  0.0527  0.3542
 6637TIP3   OH241545   3.673   2.802   8.585 -0.4860 -0.0932  0.4855
 6637TIP3    H141546   3.690   2.728   8.526  1.5111  0.6437  0.0668
 6637TIP3    H241547   3.753   2.811   8.636 -0.9847  1.3098  1.0679
 6638TIP3   OH241548   0.592   6.518   0.287  0.4797 -0.4751 -0.3327
 6638TIP3    H141549   0.687   6.523   0.277  0.5164 -0.7523 -0.1378
 6638TIP3    H241550   0.575   6.426   0.306 -0.0273 -0.8809 -2.4253
 6639TIP3   OH241551   0.668   5.188   7.952 -0.1681 -0.3999  0.2504
 6639TIP3    H141552   0.601   5.165   8.016 -4.4072  3.0603 -2.4064
 6639TIP3    H241553   0.668   5.116   7.890 -1.0753 -0.7043  0.5899
 6640TIP3   OH241554   4.205   6.341   7.726  0.1055  0.0091 -0.7796
 6640TIP3    H141555   4.172   6.257   7.758 -1.5183  1.0219  0.3213
 6640TIP3    H241556   4.169   6.348   7.637 -2.1209  0.7203  0.1045
 6641TIP3   OH241557   2.670   5.916   8.499 -0.2018  0.1594 -0.0670
 6641TIP3    H141558   2.752   5.905   8.451  0.1900  0.6101  0.4857
 6641TIP3    H241559   2.602   5.893   8.436  0.4206 -2.5269  0.1246
 6642TIP3   OH241560   1.769   1.001   0.259 -0.4030  0.5183 -0.3972
 6642TIP3    H141561   1.855   0.971   0.228  0.1236 -0.6584  1.9851
 6642TIP3    H241562   1.754   0.951   0.339 -3.0399  1.1914 -0.4048
 6643TIP3   OH241563   2.949   0.159   2.357 -0.1706  0.0039  0.4443
 6643TIP3    H141564   2.915   0.072   2.378  1.7012 -0.6361  0.9801
 6643TIP3    H241565   3.042   0.155   2.379  0.3771  1.5680 -1.3116
 6644TIP3   OH241566   4.913   0.870   0.214  0.3238  0.4338 -0.1473
 6644TIP3    H141567   4.878   0.805   0.274  0.2551  2.7466  2.5092
 6644TIP3    H241568   4.868   0.853   0.131  0.3122 -2.7943  0.3864
 6645TIP3   OH241569   5.292   4.878   2.096  0.4049  0.0379  0.1278
 6645TIP3    H141570   5.211   4.865   2.146 -0.9724 -0.1240 -2.0184
 6645TIP3    H241571   5.337   4.794   2.100 -0.4892 -0.4773 -0.2076
 6646TIP3   OH241572   2.803   0.601   0.551 -0.0610  0.7812 -0.2057
 6646TIP3    H141573   2.767   0.620   0.464 -1.9980 -3.0501 -0.4375
 6646TIP3    H241574   2.894   0.577   0.534 -0.4556 -0.0800 -1.2676
 6647TIP3   OH241575   0.461   0.014   7.793 -0.2471  0.3439  0.7238
 6647TIP3    H141576   0.546   0.045   7.762 -0.6246  1.8433  1.1260
 6647TIP3    H241577   0.399   0.038   7.724 -0.7258  1.6090  1.5574
 6648TIP3   OH241578   3.615   3.447   1.232 -0.3518 -0.1331 -0.4858
 6648TIP3    H141579   3.592   3.494   1.312  1.6395  0.3052 -0.1287
 6648TIP3    H241580   3.622   3.355   1.259  0.7434  0.0701 -0.0321
 6649TIP3   OH241581   1.523   4.924   8.592  0.5549 -0.2656  0.3413
 6649TIP3    H141582   1.536   4.998   8.652 -2.2251 -0.7210  1.6605
 6649TIP3    H241583   1.528   4.963   8.505  2.3978  0.8318  0.8794
 6650TIP3   OH241584   5.279   3.553   1.062 -0.2576  0.1904  0.1872
 6650TIP3    H141585   5.253   3.580   0.974 -0.3567  1.4941  0.5967
 6650TIP3    H241586   5.218   3.482   1.084  1.0661 -1.5977 -1.5632
 6651TIP3   OH241587   5.865   6.313   7.989 -0.4055 -0.3146  0.6446
 6651TIP3    H141588   5.881   6.235   8.043 -0.4649  0.2728  1.5385
 6651TIP3    H241589   5.894   6.288   7.902  0.1430 -1.1401  1.0476
 6652TIP3   OH241590   3.496   2.533   1.379  0.2674 -0.0112  0.0430
 6652TIP3    H141591   3.474   2.623   1.355 -1.0009  0.2995  2.1982
 6652TIP3    H241592   3.437   2.479   1.326  0.7707  0.3977 -0.9733
 6653TIP3   OH241593   0.451   5.612   1.943 -0.5150 -0.0304 -0.5141
 6653TIP3    H141594   0.503   5.683   1.906 -0.4490 -0.5361 -1.4146
 6653TIP3    H241595   0.389   5.590   1.874 -2.2736  0.8795  0.7044
 6654TIP3   OH241596   2.571   5.776   8.032 -0.7123  0.1383  0.2439
 6654TIP3    H141597   2.604   5.775   7.942  0.0201  3.5657  0.3523
 6654TIP3    H241598   2.478   5.753   8.023 -1.0420  1.9343 -1.6387
 6655TIP3   OH241599   6.369   4.428   8.026  0.0600  0.0622  0.5013
 6655TIP3    H141600   6.414   4.458   7.947  0.4574  0.4804  0.8760
 6655TIP3    H241601   6.279   4.457   8.015  0.0373 -0.1844  0.0440
 6656TIP3   OH241602   5.001   4.235   0.850 -0.1839 -0.3443 -0.0520
 6656TIP3    H141603   5.046   4.222   0.934  0.8949 -0.6562 -0.6718
 6656TIP3    H241604   4.999   4.330   0.839 -0.1767 -0.3083  0.2358
 6657TIP3   OH241605   1.339   5.398   8.468  0.0191  0.1061  0.0889
 6657TIP3    H141606   1.287   5.464   8.422 -0.4439 -0.8282 -0.7822
 6657TIP3    H241607   1.355   5.331   8.402  0.4736 -0.6497  0.9514
 6658TIP3   OH241608   4.963   5.104   1.135 -0.6985 -0.0276  0.1180
 6658TIP3    H141609   5.034   5.076   1.076 -1.7204 -2.2212 -0.1590
 6658TIP3    H241610   5.008   5.156   1.202  1.0567 -0.6234 -0.5194
 6659TIP3   OH241611   2.167   6.511   7.463 -0.8013 -0.2433  0.0783
 6659TIP3    H141612   2.149   6.454   7.389  1.1291 -0.1331 -0.5333
 6659TIP3    H241613   2.112   6.477   7.534  0.7664 -3.3714 -0.0236
 6660TIP3   OH241614   2.002   4.528   8.125  0.0533 -0.4241  0.6908
 6660TIP3    H141615   1.991   4.460   8.059 -1.2611 -0.6090  1.0850
 6660TIP3    H241616   2.011   4.481   8.207  1.7806 -0.1975  0.6713
 6661TIP3   OH241617   4.519   1.521   7.029 -0.0064  0.0602  0.5094
 6661TIP3    H141618   4.569   1.513   6.948  0.4970  0.1854  0.7958
 6661TIP3    H241619   4.452   1.454   7.024 -2.2048  2.1974 -1.5523
 6662TIP3   OH241620   0.620   0.611   1.279 -0.4554  0.4799 -0.2919
 6662TIP3    H141621   0.701   0.655   1.304 -1.1707  0.8631  1.5283
 6662TIP3    H241622   0.615   0.621   1.184  1.2125  1.1554 -0.3339
 6663TIP3   OH241623   6.245   1.935   7.717 -0.3911  0.1321 -0.1319
 6663TIP3    H141624   6.158   1.973   7.704  0.1014  1.8573  1.1050
 6663TIP3    H241625   6.277   1.915   7.629 -2.0804 -0.7017 -0.5918
 6664TIP3   OH241626   3.985   3.473   7.815 -0.3245 -0.0505 -0.3243
 6664TIP3    H141627   4.000   3.385   7.849  3.4181  0.1526 -1.0656
 6664TIP3    H241628   3.970   3.527   7.893  0.6553 -0.8125  0.4172
 6665TIP3   OH241629   6.447   5.845   0.476 -0.1303  0.0428 -0.1794
 6665TIP3    H141630   6.418   5.805   0.394  2.2818 -1.6375 -0.2903
 6665TIP3    H241631   6.431   5.778   0.542  1.8461 -0.2878  0.0037
 6666TIP3   OH241632   0.019   4.835   1.043 -0.1392  0.0333 -0.0287
 6666TIP3    H141633   0.049   4.912   0.995  0.5321  0.4866  1.0666
 6666TIP3    H241634   0.100   4.790   1.068 -0.2559  1.1990  2.8761
 6667TIP3   OH241635   6.115   1.664   0.854 -0.0931  0.1160  0.0447
 6667TIP3    H141636   6.126   1.600   0.924  0.3329 -1.1090 -1.1070
 6667TIP3    H241637   6.050   1.624   0.795  0.1697  0.7406 -0.6886
 6668TIP3   OH241638   6.259   4.383   1.237  0.5395 -0.5291  0.0020
 6668TIP3    H141639   6.311   4.447   1.286  2.2243 -2.2180  0.4999
 6668TIP3    H241640   6.205   4.340   1.304  1.9859 -2.0237  0.2512
 6669TIP3   OH241641   5.535   6.045   0.433  0.0949  0.3481  0.1071
 6669TIP3    H141642   5.592   5.977   0.468 -0.1081  0.0345 -0.1653
 6669TIP3    H241643   5.469   6.058   0.501  0.7255  1.0112  0.6062
 6670TIP3   OH241644   2.721   6.395   7.018 -0.4583  0.0190 -0.3283
 6670TIP3    H141645   2.746   6.379   6.927 -1.1266  0.3872 -0.5823
 6670TIP3    H241646   2.769   6.328   7.068 -0.6714 -0.6734 -1.0278
 6671TIP3   OH241647   0.623   5.241   0.211  0.0796 -0.1948 -0.4952
 6671TIP3    H141648   0.635   5.282   0.125 -0.7221  0.6004 -0.2401
 6671TIP3    H241649   0.696   5.274   0.264 -0.7538  1.2250 -0.1896
 6672TIP3   OH241650   1.287   1.725   7.763 -0.1280 -0.4762 -0.3209
 6672TIP3    H141651   1.347   1.797   7.783 -0.2972 -0.6591  0.9849
 6672TIP3    H241652   1.246   1.749   7.680  1.1249  0.0547 -0.7993
 6673TIP3   OH241653   3.286   4.976   6.404 -0.4060  0.7239  0.2365
 6673TIP3    H141654   3.332   5.059   6.413  0.4831  0.2872 -0.1390
 6673TIP3    H241655   3.328   4.918   6.468 -0.7078  0.4269  0.1727
 6674TIP3   OH241656   2.550   6.350   1.764  0.5564  0.0602 -0.1427
 6674TIP3    H141657   2.592   6.311   1.687  0.5505 -0.6330  0.1995
 6674TIP3    H241658   2.471   6.298   1.777 -0.5828  1.5081 -0.9270
 6675TIP3   OH241659   2.359   1.542   7.639  0.1337 -0.5456 -0.1157
 6675TIP3    H141660   2.385   1.627   7.605  0.4803 -0.6955 -0.2333
 6675TIP3    H241661   2.417   1.526   7.713 -0.9842  0.0277  0.9194
 6676TIP3   OH241662   1.183   3.985   0.495  0.2746  0.2829 -0.1596
 6676TIP3    H141663   1.261   3.931   0.478  0.9257  0.6727  1.4373
 6676TIP3    H241664   1.210   4.046   0.563 -1.6816 -0.1663  1.1149
 6677TIP3   OH241665   1.255   2.525   0.215 -1.0683 -0.9733  0.1296
 6677TIP3    H141666   1.271   2.518   0.309  0.5463 -1.1754 -0.1241
 6677TIP3    H241667   1.255   2.434   0.184 -1.3228 -0.8950 -0.1064
 6678TIP3   OH241668   4.677   4.078   7.227 -0.1743 -0.4874  0.0868
 6678TIP3    H141669   4.672   4.004   7.288 -1.0818 -1.0046 -0.5928
 6678TIP3    H241670   4.602   4.133   7.250 -1.3918 -1.4326 -1.4921
 6679TIP3   OH241671   5.811   1.608   1.560  0.3961  0.1948 -0.0545
 6679TIP3    H141672   5.887   1.550   1.550  1.0909  1.1619 -0.6700
 6679TIP3    H241673   5.780   1.622   1.471  0.1858  0.6930  0.0925
 6680TIP3   OH241674   6.790   4.454   7.923 -0.0221 -0.1761  0.1857
 6680TIP3    H141675   6.805   4.505   8.002 -0.8167  0.6655 -0.1862
 6680TIP3    H241676   6.873   4.457   7.876  0.0938  0.3555  0.4171
 6681TIP3   OH241677   1.431   3.703   1.382  0.3508  0.5392 -0.1590
 6681TIP3    H141678   1.501   3.746   1.332 -0.2021  1.5609 -0.0605
 6681TIP3    H241679   1.417   3.759   1.458  0.1659 -0.2372  0.3932
 6682TIP3   OH241680   3.197   0.292   1.234  0.4161 -0.1848  0.2207
 6682TIP3    H141681   3.131   0.359   1.254  1.5839  1.2376 -0.5665
 6682TIP3    H241682   3.150   0.209   1.246 -1.1241  0.7486  1.0244
 6683TIP3   OH241683   3.536   4.046   8.521 -0.4499  0.4051 -0.8171
 6683TIP3    H141684   3.486   4.061   8.601  2.0746  0.3502  0.8693
 6683TIP3    H241685   3.553   3.951   8.521 -0.7419  0.3472 -1.6170
 6684TIP3   OH241686   5.340   2.542   0.349  0.6004  0.5088  0.2876
 6684TIP3    H141687   5.296   2.545   0.434  1.8639  2.8952  0.9755
 6684TIP3    H241688   5.429   2.511   0.369  0.1172 -1.6446 -0.6557
 6685TIP3   OH241689   5.430   3.760   6.837 -0.2086 -0.3807 -0.5925
 6685TIP3    H141690   5.476   3.844   6.833 -0.5615 -0.1930 -0.7520
 6685TIP3    H241691   5.415   3.736   6.745 -1.1244 -0.0516 -0.5413
 6686TIP3   OH241692   2.432   5.135   1.092 -0.4015  0.9159 -0.3416
 6686TIP3    H141693   2.400   5.072   1.027  1.1468 -0.5463  0.2268
 6686TIP3    H241694   2.492   5.192   1.044 -0.1750  0.5913 -0.4468
 6687TIP3   OH241695   0.757   1.147   7.369 -0.1350  0.4289  0.4472
 6687TIP3    H141696   0.754   1.162   7.463  1.4578 -0.7053  0.7371
 6687TIP3    H241697   0.834   1.091   7.357  0.8404  2.0887 -1.7348
 6688TIP3   OH241698   0.785   5.362   0.448 -0.2178  0.1956  0.4978
 6688TIP3    H141699   0.837   5.379   0.527 -0.2041  1.4863  0.2277
 6688TIP3    H241700   0.701   5.405   0.465 -0.2277  0.4442 -0.1731
 6689TIP3   OH241701   5.673   2.889   1.632 -0.2150  0.4010  0.0835
 6689TIP3    H141702   5.740   2.823   1.615  1.2639  1.1861  2.3869
 6689TIP3    H241703   5.639   2.867   1.719 -0.5654  1.9387  0.3732
 6690TIP3   OH241704   4.612   2.822   0.603 -0.3382  0.5735  0.3908
 6690TIP3    H141705   4.571   2.745   0.642 -1.3778  0.4319 -0.8963
 6690TIP3    H241706   4.692   2.836   0.655  0.1550 -1.6651  0.3322
 6691TIP3   OH241707   5.001   4.854   7.216  0.2719  0.3026  0.2092
 6691TIP3    H141708   5.035   4.936   7.181 -0.6686  0.3125 -0.7073
 6691TIP3    H241709   4.947   4.881   7.291  0.6960  0.4313  0.4776
 6692TIP3   OH241710   0.141   6.811   1.655 -0.0207 -0.2365 -0.2246
 6692TIP3    H141711   0.050   6.783   1.651  0.2609 -1.8359  2.3861
 6692TIP3    H241712   0.186   6.753   1.594 -0.5454 -0.4888 -0.3806
 6693TIP3   OH241713   6.729   5.599   1.539  0.0583 -0.1717  0.2718
 6693TIP3    H141714   6.764   5.662   1.601 -0.5115 -0.4691  0.9075
 6693TIP3    H241715   6.646   5.570   1.577  0.7457 -2.0296  0.4951
 6694TIP3   OH241716   4.091   5.982   1.872  0.3560  0.1470 -0.3440
 6694TIP3    H141717   4.105   5.905   1.927  2.6077  0.7222  0.0158
 6694TIP3    H241718   4.155   5.973   1.801 -0.5387  0.8415 -1.2740
 6695TIP3   OH241719   0.995   3.809   1.190  0.2590 -0.0983 -0.1801
 6695TIP3    H141720   0.933   3.882   1.191  0.2003 -0.1081 -1.3366
 6695TIP3    H241721   1.060   3.832   1.256  0.7520  1.4744 -1.1642
 6696TIP3   OH241722   4.294   2.601   2.258 -0.3536 -0.5316 -0.3738
 6696TIP3    H141723   4.252   2.570   2.339 -1.5953 -0.1761 -0.8706
 6696TIP3    H241724   4.230   2.659   2.218  1.1811  1.1808 -0.4431
 6697TIP3   OH241725   4.853   5.353   1.526 -0.2570 -0.0683  0.1316
 6697TIP3    H141726   4.832   5.437   1.567 -0.6587 -0.1924  0.1860
 6697TIP3    H241727   4.811   5.287   1.582  2.4738 -0.5573  1.7787
 6698TIP3   OH241728   4.872   3.768   0.414 -0.2801 -0.1216  0.3657
 6698TIP3    H141729   4.818   3.690   0.413 -2.6433  1.2683  3.1994
 6698TIP3    H241730   4.852   3.812   0.332 -2.0288 -0.6203  0.4841
 6699TIP3   OH241731   5.475   5.921   7.183  0.2168  0.3169 -0.0452
 6699TIP3    H141732   5.445   6.000   7.138 -0.3283 -0.3042 -0.7935
 6699TIP3    H241733   5.557   5.898   7.140 -0.0339  0.0273 -0.3787
 6700TIP3   OH241734   3.979   1.683   1.293 -0.1959  0.9314  0.5956
 6700TIP3    H141735   3.978   1.726   1.378  0.1200 -1.5192  1.9219
 6700TIP3    H241736   4.043   1.731   1.242 -0.1299  2.2302  1.8458
 6701TIP3   OH241737   1.302   4.222   7.599 -0.1686 -0.0293  0.7450
 6701TIP3    H141738   1.251   4.298   7.571  1.6205  1.1191  0.4209
 6701TIP3    H241739   1.259   4.147   7.558 -0.7196  1.0431 -0.7245
 6702TIP3   OH241740   3.161   2.038   1.265  0.6764  0.0337 -0.3949
 6702TIP3    H141741   3.230   2.005   1.208 -0.7939 -3.2510 -0.4551
 6702TIP3    H241742   3.198   2.030   1.353  1.1355  0.3672 -0.5502
 6703TIP3   OH241743   2.137   3.297   1.287  0.6490 -1.2287  0.3378
 6703TIP3    H141744   2.072   3.256   1.344 -1.5897  0.6299 -0.7211
 6703TIP3    H241745   2.126   3.255   1.202  0.1136 -0.2396 -0.0977
 6704TIP3   OH241746   4.838   6.256   8.000 -0.9964 -0.7305 -0.5660
 6704TIP3    H141747   4.920   6.253   7.951 -0.8136 -0.1934 -0.2973
 6704TIP3    H241748   4.865   6.258   8.092 -1.2389  1.4316 -0.5013
 6705TIP3   OH241749   0.652   1.767   0.124 -0.3274 -0.1052 -0.2694
 6705TIP3    H141750   0.717   1.826   0.086  0.6074 -0.7336  0.3162
 6705TIP3    H241751   0.672   1.681   0.087 -3.1390  0.2406 -2.9774
 6706TIP3   OH241752   0.525   6.602   8.666  0.5370 -0.6254  0.3682
 6706TIP3    H141753   0.478   6.649   8.735  1.1106 -2.1532  1.8570
 6706TIP3    H241754   0.618   6.618   8.685  0.6965 -0.5261 -0.4519
 6707TIP3   OH241755   4.233   4.337   8.639  0.4454 -0.4225 -0.5044
 6707TIP3    H141756   4.142   4.331   8.668 -0.0253 -1.2272 -2.0616
 6707TIP3    H241757   4.250   4.252   8.597  2.4266 -0.9095  1.1355
 6708TIP3   OH241758   1.782   5.295   6.858 -0.0506 -0.3313 -0.1194
 6708TIP3    H141759   1.850   5.300   6.926  0.7633  4.3421 -0.8778
 6708TIP3    H241760   1.700   5.312   6.905  0.4132  2.0828 -0.0358
 6709TIP3   OH241761   2.998   5.777   7.400  0.5100 -0.1112  0.2798
 6709TIP3    H141762   3.028   5.780   7.309  0.6492 -4.1803  0.0302
 6709TIP3    H241763   2.918   5.726   7.397 -0.9972  1.9395  2.2261
 6710TIP3   OH241764   2.009   3.775   8.063  0.0312  0.0283 -0.0539
 6710TIP3    H141765   1.973   3.782   7.974  0.7045 -0.9428 -0.4218
 6710TIP3    H241766   2.070   3.848   8.070  0.1742 -0.0443 -0.4993
 6711TIP3   OH241767   3.155   4.008   8.225  0.0443  0.5085 -0.2883
 6711TIP3    H141768   3.201   4.069   8.282 -1.0769  1.2771 -0.1869
 6711TIP3    H241769   3.097   3.959   8.284  1.7155 -1.4798 -0.1820
 6712TIP3   OH241770   1.115   3.093   2.504 -0.0696  0.1138 -0.3386
 6712TIP3    H141771   1.176   3.114   2.575 -0.1384  0.3310 -0.3425
 6712TIP3    H241772   1.169   3.093   2.425 -0.2653  1.4369 -0.5024
 6713TIP3   OH241773   5.820   3.491   0.988  0.5972 -0.0652 -0.0820
 6713TIP3    H141774   5.848   3.582   0.987 -1.8633  0.7546 -0.0410
 6713TIP3    H241775   5.770   3.481   1.069 -0.5256 -0.9616 -0.8458
 6714TIP3   OH241776   5.216   4.210   1.025 -0.5406 -0.0925 -0.2622
 6714TIP3    H141777   5.214   4.303   1.048  0.8106 -0.2142  0.4292
 6714TIP3    H241778   5.244   4.166   1.106 -2.3970 -1.2507 -0.1924
 6715TIP3   OH241779   5.340   0.227   7.795  0.2583 -0.3943 -0.0713
 6715TIP3    H141780   5.379   0.155   7.745 -1.7764 -1.3583 -0.3968
 6715TIP3    H241781   5.291   0.184   7.865 -2.0924  0.5026 -1.0341
 6716TIP3   OH241782   4.283   4.447   2.025 -0.2036 -0.2536 -0.2861
 6716TIP3    H141783   4.196   4.482   2.007 -0.2722  0.1260  0.7498
 6716TIP3    H241784   4.270   4.382   2.094  0.3007 -0.4239 -0.3414
 6717TIP3   OH241785   5.231   0.851   0.617 -0.3945  0.1037 -0.2110
 6717TIP3    H141786   5.234   0.784   0.549  0.3900 -1.6994  1.5060
 6717TIP3    H241787   5.323   0.865   0.641 -0.6153  1.1861  0.0624
 6718TIP3   OH241788   0.548   3.571   7.465  0.2921 -0.3374  0.0520
 6718TIP3    H141789   0.476   3.576   7.528 -0.1270  0.2259 -0.4582
 6718TIP3    H241790   0.571   3.662   7.448  2.7661 -0.5055  2.0109
 6719TIP3   OH241791   3.123   6.669   1.181  0.1861 -0.6255 -0.5029
 6719TIP3    H141792   3.078   6.605   1.237 -0.3048  1.8377  2.1749
 6719TIP3    H241793   3.062   6.685   1.109 -0.1282 -2.3518 -0.6512
 6720TIP3   OH241794   6.732   4.813   8.446  0.5032  0.2048  0.5041
 6720TIP3    H141795   6.690   4.896   8.423  2.3940  1.2847  0.7679
 6720TIP3    H241796   6.788   4.834   8.520  0.5711 -1.4675  0.9682
 6721TIP3   OH241797   1.016   6.157   6.504 -0.0597 -0.1876 -0.5030
 6721TIP3    H141798   0.932   6.202   6.494  0.0885  0.3274  0.4989
 6721TIP3    H241799   1.006   6.076   6.453 -0.8963  0.2109 -0.9928
 6722TIP3   OH241800   0.773   1.058   1.308 -0.4605 -0.0683 -0.1555
 6722TIP3    H141801   0.858   1.017   1.296  0.3198  1.2352  0.6387
 6722TIP3    H241802   0.769   1.080   1.401 -0.6881  1.8781 -0.5775
 6723TIP3   OH241803   1.907   0.822   6.518  0.0834  0.4535 -0.3837
 6723TIP3    H141804   1.912   0.912   6.484 -0.1149  0.4335 -0.4690
 6723TIP3    H241805   1.820   0.817   6.557 -0.2523  0.0286 -1.1591
 6724TIP3   OH241806   4.129   6.078   7.737 -0.4733 -0.0493 -0.0866
 6724TIP3    H141807   4.053   6.091   7.794 -0.8568  0.6111 -0.7267
 6724TIP3    H241808   4.094   6.032   7.661 -0.3213  0.5796 -0.5506
 6725TIP3   OH241809   5.748   0.265   1.828 -0.4372 -0.0372 -0.2685
 6725TIP3    H141810   5.743   0.170   1.833 -2.6886 -0.1326 -2.5170
 6725TIP3    H241811   5.668   0.292   1.783  1.3469  2.6942 -2.1480
 6726TIP3   OH241812   0.325   5.246   8.671 -0.0396  0.9464  0.4999
 6726TIP3    H141813   0.317   5.253   8.767 -0.6775 -0.8477  0.6108
 6726TIP3    H241814   0.406   5.197   8.658 -0.8132 -0.3009  0.2141
 6727TIP3   OH241815   2.921   3.940   1.912  0.2325  0.4045 -0.0894
 6727TIP3    H141816   2.848   3.880   1.927 -0.2027  1.0518  0.4599
 6727TIP3    H241817   2.978   3.929   1.987  0.4067  0.3165 -0.2341
 6728TIP3   OH241818   6.558   2.692   7.658  0.0745  0.1966 -0.2374
 6728TIP3    H141819   6.590   2.720   7.572  0.2243 -1.5746 -0.8012
 6728TIP3    H241820   6.636   2.686   7.712  0.0441  0.8417 -0.1259
 6729TIP3   OH241821   3.637   4.762   1.288 -0.4710 -0.2847  0.0245
 6729TIP3    H141822   3.687   4.844   1.286 -1.4496  0.4811  2.4330
 6729TIP3    H241823   3.557   4.785   1.335 -2.2653 -1.9191 -2.0628
 6730TIP3   OH241824   1.656   3.736   0.876  0.2402 -0.2553 -0.7825
 6730TIP3    H141825   1.679   3.755   0.967  1.1353 -0.0027 -1.0591
 6730TIP3    H241826   1.679   3.644   0.864 -1.7985 -0.9043 -0.1711
 6731TIP3   OH241827   1.074   1.692   2.281 -0.4316  0.6574 -0.3175
 6731TIP3    H141828   1.022   1.724   2.356 -1.4680  2.7577 -1.8128
 6731TIP3    H241829   1.165   1.705   2.308 -0.7813  1.3866  0.5922
 6732TIP3   OH241830   6.069   3.605   7.495 -0.7406  0.2764  0.4442
 6732TIP3    H141831   6.001   3.663   7.529 -0.3267  1.3804 -0.5036
 6732TIP3    H241832   6.151   3.652   7.513 -0.2817 -0.6871  0.9178
 6733TIP3   OH241833   2.390   3.324   8.239  0.1237  0.7945  0.3327
 6733TIP3    H141834   2.302   3.332   8.202 -0.0517  2.1402  0.9786
 6733TIP3    H241835   2.393   3.236   8.275  0.1557 -0.4629 -2.4383
 6734TIP3   OH241836   5.803   2.652   0.469 -0.3570 -0.1965  0.1112
 6734TIP3    H141837   5.839   2.730   0.429 -0.5581 -0.4228 -0.5174
 6734TIP3    H241838   5.714   2.677   0.495 -1.3720 -0.9321 -2.4035
 6735TIP3   OH241839   2.686   0.775   1.266 -0.3208  0.6240  0.3374
 6735TIP3    H141840   2.729   0.735   1.191 -0.7858 -0.7300  0.7499
 6735TIP3    H241841   2.593   0.760   1.251 -0.4260  0.4120  1.1323
 6736TIP3   OH241842   5.617   5.813   0.557 -0.4244 -0.0925 -0.0520
 6736TIP3    H141843   5.675   5.750   0.600  0.4469  1.5511  1.3554
 6736TIP3    H241844   5.540   5.763   0.533  0.6873 -1.9077 -0.0036
 6737TIP3   OH241845   6.841   4.372   0.703 -0.3548 -0.4178  0.2537
 6737TIP3    H141846   6.896   4.329   0.638 -1.2381 -1.2798  0.0632
 6737TIP3    H241847   6.754   4.377   0.662 -0.4311  0.9511  0.5312
 6738TIP3   OH241848   3.934   4.860   0.726 -0.2846 -0.3359  0.2097
 6738TIP3    H141849   4.019   4.885   0.762 -0.9021  0.9154  0.8728
 6738TIP3    H241850   3.936   4.891   0.635 -0.0941 -0.1415  0.2801
 6739TIP3   OH241851   1.410   3.813   0.668  0.4836  0.1157  0.2736
 6739TIP3    H141852   1.493   3.824   0.715 -0.1633 -0.0843  1.5322
 6739TIP3    H241853   1.433   3.768   0.587  1.6650  0.5526  0.3477
 6740TIP3   OH241854   3.725   6.305   0.526  0.1110 -0.2636 -0.1488
 6740TIP3    H141855   3.692   6.363   0.457  0.4797  0.1659  0.0323
 6740TIP3    H241856   3.818   6.294   0.506  0.3507  0.3449  0.6155
 6741TIP3   OH241857   3.869   5.255   6.795  0.0498 -0.3764 -0.2697
 6741TIP3    H141858   3.825   5.174   6.822 -1.1980  0.1290 -0.7042
 6741TIP3    H241859   3.821   5.283   6.717  0.8701  0.4491 -0.4844
 6742TIP3   OH241860   4.791   0.016   1.665  0.2383 -0.3940  0.0126
 6742TIP3    H141861   4.781  -0.079   1.653  2.1529 -0.5463 -0.7272
 6742TIP3    H241862   4.785   0.052   1.577 -1.0256  0.2790  0.3408
 6743TIP3   OH241863   4.436   2.456   0.017  0.5656 -0.3479 -0.4729
 6743TIP3    H141864   4.368   2.473   0.081  1.1087 -1.1730  0.3485
 6743TIP3    H241865   4.518   2.472   0.064  1.0095 -2.2196 -0.5429
 6744TIP3   OH241866   0.778   5.157   8.470  0.1906  0.4932  0.1984
 6744TIP3    H141867   0.866   5.123   8.482  0.1555  0.0840 -0.6741
 6744TIP3    H241868   0.760   5.147   8.377 -0.7759  0.5761  0.3621
 6745TIP3   OH241869   6.275   0.392   1.879  0.0805 -0.1619  0.3134
 6745TIP3    H141870   6.367   0.412   1.899 -0.1850 -0.0473  1.4629
 6745TIP3    H241871   6.226   0.428   1.952 -0.7842 -1.2540  0.2966
 6746TIP3   OH241872   0.926   3.582   7.582 -0.4816 -0.2020  0.2397
 6746TIP3    H141873   0.916   3.607   7.674  2.3252  0.3910  0.4672
 6746TIP3    H241874   0.947   3.489   7.585 -0.4550 -0.1972  0.1930
 6747TIP3   OH241875   1.916   6.501   1.400  0.1208  0.1777  0.3008
 6747TIP3    H141876   1.895   6.557   1.475 -0.4524  1.5876 -0.8609
 6747TIP3    H241877   1.880   6.415   1.423 -3.7520  1.5421  0.0184
 6748TIP3   OH241878   3.527   3.082   8.112  0.6523 -0.0422 -0.2315
 6748TIP3    H141879   3.613   3.045   8.096  1.1972  0.3914  1.4822
 6748TIP3    H241880   3.513   3.143   8.040  1.4472 -0.6461 -0.9164
 6749TIP3   OH241881   0.821   5.477   1.708  0.0770  0.4632 -0.1642
 6749TIP3    H141882   0.821   5.542   1.778  0.1681  0.1854  0.0981
 6749TIP3    H241883   0.763   5.513   1.642 -1.0896  0.1053  0.6426
 6750TIP3   OH241884   1.364   4.188   7.264 -0.2695  0.1334 -0.3215
 6750TIP3    H141885   1.390   4.278   7.246  1.5684 -0.7783 -2.7492
 6750TIP3    H241886   1.285   4.174   7.211 -1.8191  0.8391  1.6679
 6751TIP3   OH241887   4.710   3.110   8.776  0.1947  0.0540 -0.1160
 6751TIP3    H141888   4.774   3.065   8.721 -1.1283 -1.9383 -0.1153
 6751TIP3    H241889   4.729   3.081   8.865 -0.5277 -0.3572 -0.0853
 6752TIP3   OH241890   4.461   2.204   6.608  0.4101 -0.0473  0.4655
 6752TIP3    H141891   4.371   2.235   6.596 -0.5650 -2.4899  0.9976
 6752TIP3    H241892   4.477   2.213   6.702  0.3687 -0.4991  0.5170
 6753TIP3   OH241893   2.460   5.296   8.613  0.6843 -0.4986  0.1181
 6753TIP3    H141894   2.401   5.350   8.560  0.4716 -0.9472 -0.1065
 6753TIP3    H241895   2.476   5.348   8.691 -0.8751 -0.8145  0.6818
 6754TIP3   OH241896   3.565   0.361   0.450 -0.2396  0.1107 -0.2233
 6754TIP3    H141897   3.598   0.304   0.381 -0.4578 -0.4746  0.1481
 6754TIP3    H241898   3.631   0.430   0.458  0.8852 -1.0195  0.4744
 6755TIP3   OH241899   6.670   6.611   6.346 -0.3570 -0.5671 -0.0085
 6755TIP3    H141900   6.627   6.597   6.431  0.1567 -0.2876  0.3005
 6755TIP3    H241901   6.757   6.573   6.357  0.6022  1.5989  0.4145
 6756TIP3   OH241902   2.182   1.823   0.591 -0.1579 -0.2800 -0.0489
 6756TIP3    H141903   2.171   1.728   0.596  0.9179 -0.3635  2.3434
 6756TIP3    H241904   2.093   1.858   0.583 -0.4743 -1.4792 -2.7032
 6757TIP3   OH241905   2.512   4.288   0.200 -0.2193  0.0985 -0.0450
 6757TIP3    H141906   2.589   4.230   0.204  0.0782  0.5388  2.2233
 6757TIP3    H241907   2.452   4.252   0.266  0.0475  2.3765  1.5643
 6758TIP3   OH241908   5.823   1.904   1.616 -0.5543 -0.6487 -0.3778
 6758TIP3    H141909   5.869   1.889   1.534  0.0153  0.8069 -0.3627
 6758TIP3    H241910   5.824   1.820   1.660  2.5061 -0.6281 -0.2007
 6759TIP3   OH241911   1.718   1.781   7.229 -0.2649 -0.2320  0.4177
 6759TIP3    H141912   1.789   1.836   7.263  0.0689 -1.3405  1.5939
 6759TIP3    H241913   1.670   1.838   7.169  0.4375  1.1467  1.1183
 6760TIP3   OH241914   4.746   3.179   8.164  0.5451  0.5954 -0.1013
 6760TIP3    H141915   4.666   3.126   8.165  0.3432  0.6423  4.2896
 6760TIP3    H241916   4.715   3.269   8.154 -0.0706  0.6423  1.8664
 6761TIP3   OH241917   3.916   4.899   1.674  0.0921 -0.1010  0.0821
 6761TIP3    H141918   3.859   4.912   1.750 -0.9777  2.2217 -1.0220
 6761TIP3    H241919   3.990   4.957   1.689  0.2819 -0.2472 -0.2731
 6762TIP3   OH241920   4.100   1.180   7.138 -0.4465  0.2105 -0.3881
 6762TIP3    H141921   4.129   1.090   7.122  2.0969  1.0378 -0.9607
 6762TIP3    H241922   4.004   1.175   7.138 -0.3926 -2.6619  0.7191
 6763TIP3   OH241923   2.595   5.434   8.270  0.3019  0.0280 -0.0776
 6763TIP3    H141924   2.550   5.477   8.342  1.4492  1.0579  0.0500
 6763TIP3    H241925   2.633   5.355   8.309  1.9606  1.2117  0.7588
 6764TIP3   OH241926   0.338   1.322   7.977 -0.4808 -0.1209 -0.9054
 6764TIP3    H141927   0.302   1.261   8.041  2.1844 -0.1768  0.6965
 6764TIP3    H241928   0.325   1.279   7.893 -2.5906 -0.8071 -0.2935
 6765TIP3   OH241929   5.607   4.075   2.168 -0.4033 -0.0577 -0.0606
 6765TIP3    H141930   5.617   4.067   2.263 -0.5158  0.6006  0.0123
 6765TIP3    H241931   5.534   4.136   2.156 -2.0447 -1.9993 -0.5881
 6766TIP3   OH241932   0.874   4.681   1.945 -0.1108  0.6784  0.2987
 6766TIP3    H141933   0.843   4.771   1.948 -0.2694  0.5997  1.5865
 6766TIP3    H241934   0.796   4.628   1.966  0.3902  0.3699  1.4901
 6767TIP3   OH241935   1.790   0.896   0.979 -0.0521 -0.2922  0.3804
 6767TIP3    H141936   1.797   0.968   0.916  1.3037 -0.0604  0.7642
 6767TIP3    H241937   1.850   0.920   1.049  0.7289 -1.9774  0.3286
 6768TIP3   OH241938   3.416   4.287   2.435  0.0247  0.3889  0.2210
 6768TIP3    H141939   3.441   4.290   2.342  0.7721  1.8386  0.4366
 6768TIP3    H241940   3.341   4.347   2.441  0.5665  1.0218  0.7150
 6769TIP3   OH241941   2.268   0.354   1.044 -0.0767 -0.7336 -0.0915
 6769TIP3    H141942   2.302   0.371   0.956 -0.0961  1.9089  0.3326
 6769TIP3    H241943   2.198   0.418   1.055  1.2467  0.3999  2.5445
 6770TIP3   OH241944   5.589   1.458   0.967  0.0398  0.0461  0.0645
 6770TIP3    H141945   5.641   1.486   1.042  1.2472 -0.5715 -0.5071
 6770TIP3    H241946   5.585   1.535   0.910 -0.7089  0.4545  0.6537
 6771TIP3   OH241947   4.868   1.083   7.553 -0.2863  0.0478  0.3095
 6771TIP3    H141948   4.947   1.029   7.559 -1.3446 -1.6285 -0.0071
 6771TIP3    H241949   4.883   1.155   7.613  0.2657 -1.8797  2.6569
 6772TIP3   OH241950   5.784   6.194   0.022  0.4250 -0.2468 -0.4489
 6772TIP3    H141951   5.800   6.242   0.104  0.4105 -0.8086 -0.1116
 6772TIP3    H241952   5.871   6.175  -0.012  0.4302  0.0600 -0.6089
 6773TIP3   OH241953   4.220   2.454   7.749 -0.2721 -0.7684 -0.3044
 6773TIP3    H141954   4.175   2.430   7.668 -0.2352 -0.0809 -0.5370
 6773TIP3    H241955   4.309   2.423   7.737 -0.1882 -0.4016 -0.6611
 6774TIP3   OH241956   5.096   2.814   6.289  0.2096  0.0838  0.4088
 6774TIP3    H141957   5.007   2.828   6.320 -0.1621 -0.6927 -0.2459
 6774TIP3    H241958   5.085   2.783   6.199  1.0028 -2.1657  1.0076
 6775TIP3   OH241959   4.234   4.713   0.565  0.0928 -0.1214  0.3436
 6775TIP3    H141960   4.305   4.744   0.509 -0.0737  0.1037  0.2553
 6775TIP3    H241961   4.204   4.632   0.523  0.3391 -0.2513  0.4173
 6776TIP3   OH241962   2.358   2.116   0.057 -0.3924 -0.6006 -0.9416
 6776TIP3    H141963   2.281   2.076   0.015  0.6912 -2.6883 -1.0679
 6776TIP3    H241964   2.418   2.133  -0.015 -0.2690 -0.0462 -0.7105
 6777TIP3   OH241965   2.625   1.853   7.407  0.6558 -0.1296  0.1148
 6777TIP3    H141966   2.561   1.790   7.373 -0.7032  0.0571  2.1269
 6777TIP3    H241967   2.709   1.808   7.402 -0.0699 -1.5245  0.1079
 6778TIP3   OH241968   2.496   5.711   1.642  0.2923 -0.2126  0.1475
 6778TIP3    H141969   2.406   5.739   1.622 -0.1896 -1.3261  0.6528
 6778TIP3    H241970   2.514   5.641   1.579  0.3547 -0.8024  0.8076
 6779TIP3   OH241971   3.067   4.519   8.339 -0.3679  0.4598  0.7421
 6779TIP3    H141972   3.119   4.571   8.277  0.6256 -0.1058  1.0659
 6779TIP3    H241973   2.976   4.537   8.315 -0.0167  0.6535 -0.5535
 6780TIP3   OH241974   2.542   3.773   7.386 -0.0497  0.1198  0.1333
 6780TIP3    H141975   2.459   3.811   7.357  1.2534  2.1317 -1.1514
 6780TIP3    H241976   2.568   3.714   7.315 -0.6072 -0.9150  0.7715
 6781TIP3   OH241977   0.607   1.003   7.010  0.1638 -0.6116  0.1358
 6781TIP3    H141978   0.598   0.973   6.920 -0.2656 -0.1904  0.0344
 6781TIP3    H241979   0.661   0.936   7.052  0.7989 -0.5498 -0.5570
 6782TIP3   OH241980   5.155   2.364   1.883 -0.1785 -0.4248 -0.5153
 6782TIP3    H141981   5.200   2.350   1.966 -1.4588 -1.7202  0.0144
 6782TIP3    H241982   5.065   2.386   1.908 -0.9346 -2.1663 -1.5344
 6783TIP3   OH241983   6.182   4.742   6.558 -0.0545 -0.4058  0.2481
 6783TIP3    H141984   6.148   4.809   6.498  3.0331  1.1709  0.0071
 6783TIP3    H241985   6.157   4.659   6.518 -0.0817  0.6217 -2.0554
 6784TIP3   OH241986   1.614   2.560   1.321 -0.4588 -0.2653  0.0042
 6784TIP3    H141987   1.708   2.566   1.342 -0.2497 -2.2094 -0.2069
 6784TIP3    H241988   1.571   2.609   1.391  0.7053  0.8240  0.0033
 6785TIP3   OH241989   4.709   3.632   1.435  0.1938  0.3690  0.5538
 6785TIP3    H141990   4.786   3.625   1.492  0.1337  0.4029  0.6395
 6785TIP3    H241991   4.664   3.548   1.447  0.9676 -0.2357 -0.5906
 6786TIP3   OH241992   2.358   5.957   0.860  0.2397 -0.5137 -0.0983
 6786TIP3    H141993   2.305   6.034   0.839  1.1630 -0.1541 -1.2141
 6786TIP3    H241994   2.347   5.945   0.955  1.8580  2.3973  0.6014
 6787TIP3   OH241995   0.149   6.333   0.384  0.3503 -0.0748 -0.9878
 6787TIP3    H141996   0.227   6.385   0.368 -0.9430  2.3897  0.1442
 6787TIP3    H241997   0.101   6.336   0.301  1.7237 -2.2491 -1.9337
 6788TIP3   OH241998   1.642   6.108   7.267  0.3956  1.0652 -0.6440
 6788TIP3    H141999   1.617   6.047   7.336  0.4549  0.6282 -1.0010
 6788TIP3    H242000   1.645   6.193   7.310 -1.4431  1.1048 -0.5118
 6789TIP3   OH242001   2.764   6.270   7.660 -0.1017 -0.1632  0.0976
 6789TIP3    H142002   2.788   6.187   7.619  1.4756 -0.0721  0.7531
 6789TIP3    H242003   2.766   6.334   7.589  1.3626 -0.2290  0.0454
 6790TIP3   OH242004   4.628   6.142   1.484  0.1945 -0.4840  0.4240
 6790TIP3    H142005   4.565   6.208   1.511  1.4463  1.3716 -0.9810
 6790TIP3    H242006   4.649   6.094   1.564 -1.5236  0.0981  1.2712
 6791TIP3   OH242007   2.863   6.241   2.350 -0.1680 -0.1523 -0.2827
 6791TIP3    H142008   2.836   6.226   2.440  0.2745  1.3972  0.1401
 6791TIP3    H242009   2.910   6.162   2.325  0.1738 -0.3821  1.0238
 6792TIP3   OH242010   2.116   6.500   1.813 -0.2345 -0.1929  0.2364
 6792TIP3    H142011   2.120   6.433   1.881  0.1505 -0.2347  0.1779
 6792TIP3    H242012   2.202   6.541   1.816  0.6273 -1.6841 -1.7083
 6793TIP3   OH242013   6.004   3.902   7.024 -0.4316  0.1922  0.4169
 6793TIP3    H142014   6.003   3.979   7.081  0.7372 -0.6211  1.5938
 6793TIP3    H242015   6.057   3.928   6.949 -0.0681  0.5478  0.7955
 6794TIP3   OH242016   5.656   2.410   7.628 -0.0396 -0.1134 -0.2146
 6794TIP3    H142017   5.587   2.452   7.577 -2.4024  0.4127  3.1632
 6794TIP3    H242018   5.714   2.482   7.653 -0.5668  0.1228  0.3382
 6795TIP3   OH242019   5.830   5.597   0.378  0.3949 -0.2163 -0.0150
 6795TIP3    H142020   5.831   5.510   0.339 -0.9099 -0.7159  0.9851
 6795TIP3    H242021   5.813   5.581   0.471  1.5454  1.0337  0.4389
 6796TIP3   OH242022   4.404   0.553   6.786 -0.1886  0.2970 -0.4735
 6796TIP3    H142023   4.415   0.549   6.691 -0.2809  0.1426 -0.4772
 6796TIP3    H242024   4.487   0.518   6.820 -0.4215 -0.2916 -0.5010
 6797TIP3   OH242025   1.861   2.957   0.235 -0.0611 -0.5664 -0.1115
 6797TIP3    H142026   1.877   3.047   0.205 -1.7120 -1.0161 -2.6721
 6797TIP3    H242027   1.938   2.908   0.207  0.3725 -0.1738  0.3632
 6798TIP3   OH242028   6.154   0.341   0.771 -0.0561  0.0482 -0.5219
 6798TIP3    H142029   6.155   0.372   0.862 -0.5560 -1.2080 -0.0557
 6798TIP3    H242030   6.074   0.377   0.734 -1.5210 -1.8935  0.5142
 6799TIP3   OH242031   6.121   2.285   7.377 -0.6469 -0.3111  0.1994
 6799TIP3    H142032   6.097   2.378   7.367  0.4400 -0.1146 -0.8331
 6799TIP3    H242033   6.041   2.238   7.354 -0.6386  0.3544 -1.3388
 6800TIP3   OH242034   6.191   1.428   1.390  1.0240 -1.4317 -0.2686
 6800TIP3    H142035   6.220   1.388   1.308 -0.1817  1.2107 -2.1285
 6800TIP3    H242036   6.115   1.376   1.416  1.3927 -2.2778 -0.8216
 6801TIP3   OH242037   1.782   1.444   0.671  0.2929  0.5321  0.0462
 6801TIP3    H142038   1.867   1.407   0.646  0.4125  1.5428 -1.1637
 6801TIP3    H242039   1.725   1.425   0.596 -0.0581  1.3787  0.0898
 6802TIP3   OH242040   6.418   0.073   1.608 -0.6512  0.1293 -0.2331
 6802TIP3    H142041   6.344   0.133   1.612  0.3943  1.5613 -1.1440
 6802TIP3    H242042   6.486   0.115   1.661 -0.2699 -0.8411  0.0713
 6803TIP3   OH242043   5.311   3.939   1.398  0.0134 -0.0477  0.1791
 6803TIP3    H142044   5.379   3.972   1.339 -1.2545  2.6900  0.1089
 6803TIP3    H242045   5.231   3.940   1.345 -0.5947 -0.5277  1.0652
 6804TIP3   OH242046   4.321   6.623   8.688 -0.3773 -0.2492 -0.3480
 6804TIP3    H142047   4.236   6.644   8.727 -1.1842 -2.3300 -0.8753
 6804TIP3    H242048   4.378   6.605   8.763 -0.8815 -0.4995 -0.0214
 6805TIP3   OH242049   5.521   0.282   7.437 -0.2064 -0.2026  0.5561
 6805TIP3    H142050   5.455   0.213   7.447  1.0291 -1.4502  0.4572
 6805TIP3    H242051   5.498   0.325   7.355 -0.2285 -1.3767 -0.0746
 6806TIP3   OH242052   4.395   6.008   1.715 -0.6274  0.0150  0.5637
 6806TIP3    H142053   4.480   6.037   1.746 -0.3114 -0.9330  0.6180
 6806TIP3    H242054   4.373   6.068   1.643  0.5747 -0.3848 -0.1605
 6807TIP3   OH242055   4.731   4.536   0.490  0.6968  0.0654 -0.2627
 6807TIP3    H142056   4.774   4.621   0.493 -0.8982  1.0244 -2.3487
 6807TIP3    H242057   4.655   4.549   0.434 -0.5242 -2.3561  0.6744
 6808TIP3   OH242058   3.530   4.632   8.623  0.3916  0.3051 -0.3182
 6808TIP3    H142059   3.506   4.661   8.710 -2.4570 -1.4318 -0.4107
 6808TIP3    H242060   3.577   4.550   8.637 -1.6545 -0.9532 -0.3623
 6809TIP3   OH242061   4.528   4.518   1.914 -0.4595  0.6129 -0.2724
 6809TIP3    H142062   4.564   4.542   2.000 -1.2071 -1.2391  0.6131
 6809TIP3    H242063   4.445   4.475   1.934  0.1667 -1.4466 -1.7643
 6810TIP3   OH242064   1.656   0.263   7.165 -1.0828  0.0775  0.3558
 6810TIP3    H142065   1.593   0.239   7.234 -4.1280  1.2335 -1.7957
 6810TIP3    H242066   1.681   0.353   7.186 -1.7253  0.3039  0.1740
 6811TIP3   OH242067   6.261   3.854   7.253  0.0054 -0.3574  0.1489
 6811TIP3    H142068   6.272   3.942   7.217 -1.7832  0.0286  0.4722
 6811TIP3    H242069   6.327   3.849   7.323 -0.8101  1.2856  1.0963
 6812TIP3   OH242070   3.925   3.835   7.172 -0.2803 -0.5878  0.2003
 6812TIP3    H142071   3.926   3.787   7.089 -1.4745 -0.6181  0.1958
 6812TIP3    H242072   3.878   3.778   7.233  0.8051 -0.6811  0.9960
 6813TIP3   OH242073   6.299   4.640   6.884 -0.0981 -0.0488  0.0121
 6813TIP3    H142074   6.364   4.601   6.824 -1.6940  0.0085 -1.8644
 6813TIP3    H242075   6.304   4.586   6.963  3.3363  0.9498  0.6253
 6814TIP3   OH242076   0.361   4.721   7.446 -0.2548  0.2198  0.6972
 6814TIP3    H142077   0.348   4.626   7.442  2.3626 -0.2357  0.9610
 6814TIP3    H242078   0.298   4.751   7.511 -2.2880 -1.0344 -0.5700
 6815TIP3   OH242079   3.540   0.025   7.510  0.4342  0.4972  0.2098
 6815TIP3    H142080   3.485   0.102   7.493 -1.1248 -0.8018 -1.0228
 6815TIP3    H242081   3.516  -0.003   7.598  0.2452  0.8324  0.2664
 6816TIP3   OH242082   2.220   0.931   0.181 -0.3824  0.2186  0.4798
 6816TIP3    H142083   2.153   0.862   0.176 -0.3804 -0.0960  3.0792
 6816TIP3    H242084   2.218   0.959   0.273 -0.4266  3.7884 -0.4614
 6817TIP3   OH242085   4.226   4.033   0.901  0.4064 -0.5467  0.0615
 6817TIP3    H142086   4.151   4.077   0.862  1.1629  1.5216  0.7911
 6817TIP3    H242087   4.189   3.961   0.951 -1.1796  0.8245  0.9658
 6818TIP3   OH242088   5.336   6.228   8.094  0.3366 -0.3021 -0.2306
 6818TIP3    H142089   5.378   6.247   8.178 -0.2119  0.0286 -0.0297
 6818TIP3    H242090   5.322   6.314   8.054  0.3347 -0.4428 -0.5390
 6819TIP3   OH242091   1.866   6.552   1.675  0.1409  0.0921  0.2259
 6819TIP3    H142092   1.814   6.543   1.754 -0.8262 -0.1427 -0.4167
 6819TIP3    H242093   1.952   6.517   1.698  0.4517  1.6952  1.6941
 6820TIP3   OH242094   2.586   4.540   0.006  0.7912  0.2117 -0.3040
 6820TIP3    H142095   2.559   4.451   0.024  0.2957  0.4040 -0.0835
 6820TIP3    H242096   2.527   4.595   0.057  1.1654  0.6643 -0.3420
 6821TIP3   OH242097   5.457   1.520   7.001  0.3703  0.0234 -0.1176
 6821TIP3    H142098   5.376   1.470   7.017  0.7054 -0.4748  0.0399
 6821TIP3    H242099   5.467   1.519   6.906  2.1451 -3.1319 -0.0555
 6822TIP3   OH242100   3.332   0.393   2.160  0.0688 -0.0266 -0.1782
 6822TIP3    H142101   3.261   0.426   2.104  0.4765 -0.6342 -1.0822
 6822TIP3    H242102   3.294   0.319   2.207 -0.5602  1.0762  1.1147
 6823TIP3   OH242103   0.323   1.422   1.819 -0.3205  0.0217  0.1409
 6823TIP3    H142104   0.388   1.479   1.858  0.9157 -1.2095 -0.0539
 6823TIP3    H242105   0.302   1.463   1.735 -0.0504  0.5906  0.3505
 6824TIP3   OH242106   2.473   2.973   0.826 -0.2854 -0.2133 -0.2706
 6824TIP3    H142107   2.426   3.017   0.756  0.0951 -0.0051 -0.3936
 6824TIP3    H242108   2.552   2.939   0.785 -0.3285 -0.5689 -0.0639
 6825TIP3   OH242109   4.072   6.363   7.484 -0.3029  0.1900 -0.2855
 6825TIP3    H142110   4.009   6.291   7.488  0.6071 -0.5778  0.9856
 6825TIP3    H242111   4.018   6.442   7.486 -1.2508 -0.4266  1.7566
 6826TIP3   OH242112   2.383   5.592   0.844 -0.1850  0.0548  0.6275
 6826TIP3    H142113   2.423   5.663   0.794 -1.5654  1.5096  1.4820
 6826TIP3    H242114   2.302   5.571   0.797  0.1792 -0.9310  0.4172
 6827TIP3   OH242115   1.694   5.910   8.114  0.3636 -0.2022 -0.0491
 6827TIP3    H142116   1.701   5.818   8.089  0.2301 -0.3418  0.4187
 6827TIP3    H242117   1.759   5.955   8.060 -0.0714 -0.4624 -0.8006
 6828TIP3   OH242118   5.439   4.373   1.042  0.0317  0.2251  0.3530
 6828TIP3    H142119   5.403   4.434   0.977 -2.4198 -0.9558  0.4828
 6828TIP3    H242120   5.471   4.299   0.991  0.7672  0.5501  0.3372
 6829TIP3   OH242121   3.952   0.333   0.886  0.5126  0.1016 -0.1841
 6829TIP3    H142122   3.889   0.397   0.921 -0.6465 -0.9618 -0.2630
 6829TIP3    H242123   3.935   0.253   0.936  1.8908 -0.1891 -0.1365
 6830TIP3   OH242124   5.397   1.581   7.795  0.7478  0.0018 -0.1946
 6830TIP3    H142125   5.391   1.672   7.766  0.2121 -0.2920 -1.0443
 6830TIP3    H242126   5.357   1.530   7.724 -0.9773 -0.7279  1.2105
 6831TIP3   OH242127   5.547   0.276   0.083 -0.1030  0.0390  0.3674
 6831TIP3    H142128   5.577   0.192   0.117 -0.4180  0.0354  0.6440
 6831TIP3    H242129   5.620   0.309   0.032 -1.0374 -1.8432 -2.3953
 6832TIP3   OH242130   4.933   0.316   1.150  0.3547 -0.9629  0.1485
 6832TIP3    H142131   4.902   0.407   1.143 -0.2884 -1.2139 -0.4243
 6832TIP3    H242132   5.028   0.322   1.143  0.3029 -0.3525 -0.1162
 6833TIP3   OH242133   4.812   0.984   8.058  0.5729 -0.5159  0.2538
 6833TIP3    H142134   4.800   1.045   8.131 -1.5789 -1.4767  0.7607
 6833TIP3    H242135   4.815   0.898   8.099 -1.1772 -1.1110 -0.7737
 6834TIP3   OH242136   3.896   4.593   0.744 -0.5080 -0.2318 -0.2225
 6834TIP3    H142137   3.856   4.653   0.681  0.4911  0.0584 -0.5970
 6834TIP3    H242138   3.941   4.650   0.807 -0.5591 -0.5543  0.1113
 6835TIP3   OH242139   6.227   2.584   2.166  0.7943 -0.5135  0.1604
 6835TIP3    H142140   6.146   2.622   2.199  1.2412 -0.2544  0.9903
 6835TIP3    H242141   6.268   2.544   2.242  0.1641 -3.0604 -0.7415
 6836TIP3   OH242142   3.703   3.360   0.203  0.3611  0.4480 -0.3330
 6836TIP3    H142143   3.742   3.340   0.118  1.2061  2.0756 -0.3690
 6836TIP3    H242144   3.777   3.374   0.262 -0.1052  2.7036 -0.1866
 6837TIP3   OH242145   6.081   3.879   1.918 -0.5982 -0.0626  0.2423
 6837TIP3    H142146   6.134   3.902   1.994 -1.5246  1.3045  0.5168
 6837TIP3    H242147   6.008   3.942   1.920 -1.4243 -0.9402 -0.9444
 6838TIP3   OH242148   1.455   6.025   1.198 -0.3033  0.1542 -0.5272
 6838TIP3    H142149   1.436   5.931   1.196  0.4099 -0.0175  0.1222
 6838TIP3    H242150   1.379   6.066   1.156 -1.8306 -0.5227  1.4043
 6839TIP3   OH242151   1.953   4.971   0.293 -0.3146 -0.3935  0.3308
 6839TIP3    H142152   1.880   5.011   0.245 -1.9860 -0.6998  2.4519
 6839TIP3    H242153   1.911   4.910   0.353  1.4985  0.9185  3.1011
 6840TIP3   OH242154   5.776   5.814   7.102  1.0302 -0.1082  0.0231
 6840TIP3    H142155   5.822   5.899   7.097  0.5210  0.1982  0.4990
 6840TIP3    H242156   5.846   5.749   7.096  1.4595  0.3474  0.0116
 6841TIP3   OH242157   0.357   0.509   7.794  0.0022  0.3513  0.3092
 6841TIP3    H142158   0.378   0.506   7.701 -0.4257 -1.4569  0.2395
 6841TIP3    H242159   0.283   0.570   7.800  2.0627  3.0596 -0.0482
 6842TIP3   OH242160   3.355   5.326   7.401 -0.3108  0.0104 -0.2881
 6842TIP3    H142161   3.263   5.330   7.374  0.4749  1.4546 -3.2595
 6842TIP3    H242162   3.375   5.233   7.405 -1.4750 -0.3219 -1.4241
 6843TIP3   OH242163   2.160   2.542   0.307  0.0964 -0.0461 -0.1907
 6843TIP3    H142164   2.195   2.456   0.283  1.3411  0.1699  0.7600
 6843TIP3    H242165   2.194   2.558   0.395 -0.9439  0.9894  0.0469
 6844TIP3   OH242166   3.825   5.364   8.486  0.0141 -0.0536 -0.2853
 6844TIP3    H142167   3.916   5.385   8.508  0.4100 -1.9564  0.1507
 6844TIP3    H242168   3.772   5.423   8.539  0.9937 -1.4578  2.4153
 6845TIP3   OH242169   6.678   5.487   0.942 -0.0120  0.1085 -0.3522
 6845TIP3    H142170   6.695   5.398   0.971 -0.8713 -0.0629 -0.3437
 6845TIP3    H242171   6.724   5.495   0.859  1.9355  0.3987  0.6987
 6846TIP3   OH242172   2.719   0.032   7.536  0.4827 -0.0457 -0.2646
 6846TIP3    H142173   2.714   0.086   7.615  2.0689  0.6840 -0.6196
 6846TIP3    H242174   2.750   0.092   7.468 -3.5343  0.0997 -2.2485
 6847TIP3   OH242175   6.787   1.820   0.393  1.1868 -0.4073 -0.3719
 6847TIP3    H142176   6.833   1.898   0.424  0.2964 -0.0521  0.0866
 6847TIP3    H242177   6.788   1.760   0.468 -0.5116  0.2475  0.2131
 6848TIP3   OH242178   3.817   6.634   1.181 -0.0178 -0.8177  0.4584
 6848TIP3    H142179   3.904   6.619   1.218  0.2548  3.0321  1.8471
 6848TIP3    H242180   3.830   6.640   1.087  0.7339 -2.5814  0.4140
 6849TIP3   OH242181   6.728   1.126   8.266  0.2939 -0.3045  0.5117
 6849TIP3    H142182   6.724   1.049   8.323  0.1118 -0.2403  0.5875
 6849TIP3    H242183   6.707   1.093   8.179  1.2359 -0.5236  0.3583
 6850TIP3   OH242184   4.284   6.014   0.633 -0.1712  0.0327  0.4801
 6850TIP3    H142185   4.208   6.001   0.578 -1.0651 -2.3410  2.1220
 6850TIP3    H242186   4.348   5.949   0.602 -0.0826 -0.2327  1.1982
 6851TIP3   OH242187   2.643   4.284   8.640  0.0034 -0.0143  0.3733
 6851TIP3    H142188   2.604   4.317   8.559 -1.7107  0.4397  1.3473
 6851TIP3    H242189   2.594   4.204   8.660 -0.8788  0.8580  1.9027
 6852TIP3   OH242190   4.645   2.436   2.078  0.2040 -0.4048  0.0562
 6852TIP3    H142191   4.599   2.486   2.010  0.6229  0.3518  0.3158
 6852TIP3    H242192   4.637   2.490   2.157  1.2313 -0.4169  0.1856
 6853TIP3   OH242193   3.695   3.925   1.307 -0.1607 -0.0662  0.2234
 6853TIP3    H142194   3.697   3.837   1.268 -0.2962  0.1885 -0.3605
 6853TIP3    H242195   3.750   3.917   1.384 -0.0182 -0.6208  0.0734
 6854TIP3   OH242196   6.743   3.760   1.826 -0.5948  0.3204  0.0371
 6854TIP3    H142197   6.733   3.665   1.834  3.2671 -0.2283  0.5630
 6854TIP3    H242198   6.702   3.796   1.905 -1.2190 -0.9998  0.3305
 6855TIP3   OH242199   0.941   2.284   0.200 -0.0598 -0.6130 -0.2754
 6855TIP3    H142200   1.021   2.282   0.148 -0.1070 -0.0988 -0.3679
 6855TIP3    H242201   0.951   2.360   0.257  0.5364 -1.8555  1.3364
 6856TIP3   OH242202   3.434   5.879   0.091  0.0365 -0.4661 -0.4051
 6856TIP3    H142203   3.516   5.883   0.042 -0.2324 -0.5178 -0.8647
 6856TIP3    H242204   3.444   5.944   0.160  0.2326 -0.0393 -0.8291
 6857TIP3   OH242205   2.777   3.638   8.710  0.3739  0.5930 -0.0613
 6857TIP3    H142206   2.784   3.626   8.804  1.0034  0.7275 -0.0906
 6857TIP3    H242207   2.691   3.679   8.697 -0.2427 -0.4993  0.3494
 6858TIP3   OH242208   6.565   1.832   7.698 -0.1870  0.7017  0.5121
 6858TIP3    H142209   6.581   1.892   7.625  1.7706  0.3371  0.5850
 6858TIP3    H242210   6.652   1.805   7.727 -0.9485 -0.0935  2.2304
 6859TIP3   OH242211   5.578   6.313   0.471  0.0860  0.6472 -0.2939
 6859TIP3    H142212   5.641   6.312   0.543  0.6485  1.3955 -0.7659
 6859TIP3    H242213   5.582   6.224   0.436  0.8762  0.6796 -0.3104
 6860TIP3   OH242214   0.672   0.437   6.590 -0.2432  0.2798  0.2040
 6860TIP3    H142215   0.723   0.445   6.509 -1.7464  0.2149 -0.7889
 6860TIP3    H242216   0.581   0.444   6.561 -0.8174 -0.0094  1.8746
 6861TIP3   OH242217   5.058   5.627   0.117  0.0051 -0.6449 -0.2138
 6861TIP3    H142218   4.992   5.621   0.186  0.0735 -0.5206 -0.1369
 6861TIP3    H242219   5.012   5.667   0.043 -0.3874 -1.8614 -0.6469
 6862TIP3   OH242220   5.035   3.114   1.517 -0.4669 -0.6297  0.6428
 6862TIP3    H142221   5.066   3.094   1.606 -1.8069 -1.7160  0.8949
 6862TIP3    H242222   5.051   3.033   1.468  2.6554  0.7209 -0.8710
 6863TIP3   OH242223   3.160   5.877   8.457 -0.1503  0.0551 -0.2104
 6863TIP3    H142224   3.246   5.916   8.474 -0.5905  0.9923 -0.0591
 6863TIP3    H242225   3.161   5.796   8.508  0.4899  0.2704  0.1428
 6864TIP3   OH242226   0.012   5.446   7.790  0.4479  0.1529 -0.1599
 6864TIP3    H142227   0.030   5.496   7.869 -0.1097  1.2518 -0.7033
 6864TIP3    H242228   0.047   5.500   7.718 -0.2402 -0.1795 -0.7610
 6865TIP3   OH242229   0.606   2.232   0.253 -0.1984 -0.6009  0.2628
 6865TIP3    H142230   0.683   2.199   0.299  0.4612  0.0862 -0.3277
 6865TIP3    H242231   0.595   2.321   0.285 -0.2201 -0.3978 -0.2909
 6866TIP3   OH242232   5.449   0.707   7.017 -0.6883  0.5227 -0.7415
 6866TIP3    H142233   5.493   0.643   6.961  1.3296  0.6810  0.5525
 6866TIP3    H242234   5.444   0.787   6.963  0.7685  0.5323 -0.9020
 6867TIP3   OH242235   0.350   5.621   7.588  0.6040  0.6959 -0.2444
 6867TIP3    H142236   0.418   5.554   7.579  1.7078  1.9327 -1.5793
 6867TIP3    H242237   0.270   5.579   7.557  0.3629 -1.2109  2.5224
 6868TIP3   OH242238   3.346   0.737   8.190  0.7364 -0.3272 -0.3703
 6868TIP3    H142239   3.273   0.685   8.156  0.2308 -0.1669  0.4531
 6868TIP3    H242240   3.310   0.826   8.198  1.1883 -0.1318 -0.4616
 6869TIP3   OH242241   3.613   2.778   0.095 -0.3309 -0.0737  0.2927
 6869TIP3    H142242   3.684   2.820   0.143 -0.5861 -0.5216  1.0855
 6869TIP3    H242243   3.550   2.849   0.078  0.9077  0.6424 -1.6801
 6870TIP3   OH242244   2.177   2.346   1.430  0.2513 -0.0848  0.5947
 6870TIP3    H142245   2.209   2.348   1.520  0.0319  2.3503  0.7048
 6870TIP3    H242246   2.206   2.429   1.393  0.3513 -1.0365 -1.6081
 6871TIP3   OH242247   4.447   6.686   7.565  0.0685 -0.1218  0.1864
 6871TIP3    H142248   4.494   6.606   7.540 -0.0361 -0.7674  1.9459
 6871TIP3    H242249   4.369   6.655   7.610 -1.2045  0.9764 -1.1625
 6872TIP3   OH242250   3.393   5.399   1.381  0.6701 -0.7156 -0.4497
 6872TIP3    H142251   3.337   5.322   1.375  2.6026 -2.3141  0.9785
 6872TIP3    H242252   3.476   5.372   1.341  1.0686  1.0071 -0.8959
 6873TIP3   OH242253   1.960   5.096   0.961 -0.0415 -0.0058  0.1546
 6873TIP3    H142254   1.960   5.109   1.056 -0.9640  0.2443  0.1284
 6873TIP3    H242255   2.042   5.049   0.943 -0.6481 -1.5748  1.2886
 6874TIP3   OH242256   2.937   6.452   1.294 -0.0759  0.1969  0.2871
 6874TIP3    H142257   2.985   6.398   1.357 -1.3258  0.5804  1.6210
 6874TIP3    H242258   2.854   6.406   1.283 -0.3544  0.7977 -0.1363
 6875TIP3   OH242259   2.260   6.358   2.591  0.3012  0.2533 -0.5360
 6875TIP3    H142260   2.243   6.370   2.498 -1.6950 -0.7011 -0.3325
 6875TIP3    H242261   2.174   6.360   2.632  1.2287  2.5834  1.5715
 6876TIP3   OH242262   3.131   5.116   8.709  0.3338 -0.1307  0.2258
 6876TIP3    H142263   3.150   5.091   8.799 -0.7117  1.0593  0.7943
 6876TIP3    H242264   3.086   5.200   8.715  2.4598  1.2386 -1.5420
 6877TIP3   OH242265   2.948   0.747   7.606 -0.4415 -0.0369 -0.1992
 6877TIP3    H142266   2.976   0.718   7.519  0.9463  1.0802 -0.1553
 6877TIP3    H242267   2.894   0.824   7.590  1.2656  1.2482 -0.0357
 6878TIP3   OH242268   0.781   2.787   0.892 -0.7364 -0.3559  0.1549
 6878TIP3    H142269   0.869   2.816   0.867 -0.8931  1.1077  1.1773
 6878TIP3    H242270   0.779   2.797   0.987 -1.8190 -0.9535  0.2113
 6879TIP3   OH242271   4.618   3.646   8.386  0.3402 -0.0997  0.2441
 6879TIP3    H142272   4.691   3.629   8.327 -0.4223 -1.7519 -0.2805
 6879TIP3    H242273   4.657   3.696   8.459  1.8150 -0.3021 -0.3751
 6880TIP3   OH242274   6.421   0.162   8.572 -0.1578 -0.3803 -0.1535
 6880TIP3    H142275   6.504   0.181   8.528 -0.5803  0.5834 -0.5565
 6880TIP3    H242276   6.404   0.070   8.550  0.9524 -0.6966  0.2124
 6881TIP3   OH242277   3.949   4.037   0.349 -1.0192 -0.5210 -0.1728
 6881TIP3    H142278   3.958   4.007   0.439  1.2169  1.3964  0.3437
 6881TIP3    H242279   3.886   4.110   0.354 -1.6320 -1.0298 -0.3503
 6882TIP3   OH242280   2.919   4.260   8.522  1.0604 -0.1263  0.2717
 6882TIP3    H142281   2.828   4.271   8.550  0.0740 -1.4493 -2.1450
 6882TIP3    H242282   2.938   4.338   8.470  0.3335 -1.0627 -1.4719
 6883TIP3   OH242283   2.112   2.911   8.349 -0.1007 -0.4725  0.8841
 6883TIP3    H142284   2.027   2.885   8.383 -1.0073  0.6193 -0.4522
 6883TIP3    H242285   2.120   3.004   8.372  0.7923 -0.5917  1.1040
 6884TIP3   OH242286   3.280   3.165   8.562  0.4720  0.4139  0.8415
 6884TIP3    H142287   3.359   3.143   8.514 -0.6216  0.4622 -1.1232
 6884TIP3    H242288   3.254   3.250   8.527 -2.1975 -1.0482 -1.0880
 6885TIP3   OH242289   1.198   4.278   8.577 -0.3169  0.3094 -0.2559
 6885TIP3    H142290   1.141   4.304   8.650 -0.5827  0.0988 -0.3854
 6885TIP3    H242291   1.267   4.344   8.576  0.5976 -0.5653  1.2103
 6886TIP3   OH242292   0.671   3.808   1.009  0.3066 -0.5126  0.0041
 6886TIP3    H142293   0.743   3.850   1.056 -0.0178 -0.2606  0.2745
 6886TIP3    H242294   0.615   3.880   0.980  0.3084 -0.6901 -0.4513
 6887TIP3   OH242295   6.366   2.782   0.258  0.2881  0.2132 -0.5517
 6887TIP3    H142296   6.336   2.862   0.301 -0.3185 -0.4309  0.2685
 6887TIP3    H242297   6.290   2.724   0.261  1.3906 -1.2635  1.0459
 6888TIP3   OH242298   5.449   3.441   1.260  1.0656 -0.1537 -0.2611
 6888TIP3    H142299   5.522   3.420   1.200 -0.5310 -1.5669 -1.8535
 6888TIP3    H242300   5.395   3.503   1.211 -0.0998 -1.0732 -0.1819
 6889TIP3   OH242301   3.048   2.207   8.338  0.1903 -0.6711  0.4626
 6889TIP3    H142302   3.004   2.267   8.399 -2.6528 -2.3492  0.2481
 6889TIP3    H242303   3.056   2.257   8.257 -0.9470 -0.1197  0.6654
 6890TIP3   OH242304   1.827   0.019   8.495 -0.3229 -0.3170 -0.6632
 6890TIP3    H142305   1.831  -0.066   8.453  0.3945 -0.5697 -0.0965
 6890TIP3    H242306   1.891   0.015   8.565 -1.9780 -0.1715  0.9481
 6891TIP3   OH242307   0.943   1.577   1.298 -0.0347  0.1770 -0.0581
 6891TIP3    H142308   0.968   1.560   1.388 -0.1650 -2.5456 -0.4552
 6891TIP3    H242309   1.006   1.642   1.267  0.9354  0.0402  1.5482
 6892TIP3   OH242310   1.036   1.795   8.398  0.4381 -0.3602 -0.0983
 6892TIP3    H142311   0.953   1.762   8.363  1.0840 -1.3668 -0.7206
 6892TIP3    H242312   1.089   1.716   8.412  1.4508  0.3070 -0.1059
 6893TIP3   OH242313   0.786   2.460   0.687 -0.3819  0.2125  0.1420
 6893TIP3    H142314   0.833   2.386   0.725 -1.6918 -0.1113  1.2010
 6893TIP3    H242315   0.747   2.505   0.762 -1.3971  0.7015 -0.6543
 6894TIP3   OH242316   3.091   5.168   0.510  0.3787 -0.0967  0.2325
 6894TIP3    H142317   3.153   5.214   0.453  1.2163  0.9515  1.9166
 6894TIP3    H242318   3.007   5.208   0.490  0.2317 -1.3103 -1.8473
 6895TIP3   OH242319   3.075   3.188   8.216 -0.6230 -0.0213 -0.2503
 6895TIP3    H142320   3.023   3.195   8.136 -0.6353 -0.6229 -0.2937
 6895TIP3    H242321   3.016   3.217   8.286 -1.3538 -1.6236 -0.1652
 6896TIP3   OH242322   4.870   2.228   1.340  0.3816  0.1674 -0.0176
 6896TIP3    H142323   4.846   2.184   1.259  0.9098  2.8203 -1.7421
 6896TIP3    H242324   4.962   2.207   1.354  0.6191  0.6365 -0.8112
 6897TIP3   OH242325   5.039   1.326   8.702  0.4785  0.2923  0.9557
 6897TIP3    H142326   5.075   1.386   8.637 -1.1272 -0.0544 -0.2947
 6897TIP3    H242327   4.986   1.265   8.653 -2.4988  1.2515  2.7032
 6898TIP3   OH242328   4.085   6.761   7.459  0.1936 -0.1053  0.8215
 6898TIP3    H142329   4.061   6.681   7.412  2.6059 -1.4606  1.6983
 6898TIP3    H242330   4.003   6.809   7.470 -0.9830 -1.3441 -1.7156
 6899TIP3   OH242331   1.791   4.975   6.958 -0.0178 -0.1168  0.1550
 6899TIP3    H142332   1.765   5.026   7.035 -0.2138 -2.0382  1.4387
 6899TIP3    H242333   1.719   4.989   6.896 -0.0134  1.2171  0.4154
 6900TIP3   OH242334   4.587   3.857   6.202  0.3857  0.6793 -0.7035
 6900TIP3    H142335   4.496   3.830   6.186  0.3991  0.0391  0.2275
 6900TIP3    H242336   4.588   3.883   6.294  0.7283  2.5035 -1.1704
 6901TIP3   OH242337   1.462   1.683   2.475  0.1182  0.1555 -0.3116
 6901TIP3    H142338   1.544   1.706   2.432 -0.1736  0.4437 -0.7205
 6901TIP3    H242339   1.409   1.763   2.468  0.6721  0.8100  2.0496
 6902TIP3   OH242340   2.830   6.749   2.397  0.2356  0.1042  0.7697
 6902TIP3    H142341   2.850   6.730   2.489  0.1489 -0.3797  0.6920
 6902TIP3    H242342   2.801   6.665   2.361 -0.8213  0.5257  0.5906
 6903TIP3   OH242343   5.963   1.134   7.896  0.5258  0.5849  0.0873
 6903TIP3    H142344   6.011   1.104   7.819  0.8932  1.1413  0.0901
 6903TIP3    H242345   6.031   1.153   7.961  0.2426  0.5055  0.4091
 6904TIP3   OH242346   6.664   1.707   1.542 -0.0015  0.1328  0.1661
 6904TIP3    H142347   6.758   1.724   1.539  0.1519 -0.7318 -0.1198
 6904TIP3    H242348   6.650   1.659   1.624 -0.3651  1.2110  0.7504
 6905TIP3   OH242349   3.479   2.638   8.724 -0.4408  0.2122  0.5328
 6905TIP3    H142350   3.522   2.694   8.789 -0.9707  0.4740  0.6569
 6905TIP3    H242351   3.500   2.679   8.640 -0.8417  0.6086  0.6240
 6906TIP3   OH242352   5.141   2.183   1.331  0.2996  0.1774 -0.2852
 6906TIP3    H142353   5.120   2.101   1.286  1.4636 -0.8516  0.9426
 6906TIP3    H242354   5.230   2.204   1.301  0.2206  0.6784 -0.1678
 6907TIP3   OH242355   1.242   0.380   7.270 -0.6794  0.0480 -0.5827
 6907TIP3    H142356   1.212   0.465   7.303 -0.2235  0.5719 -1.4863
 6907TIP3    H242357   1.334   0.375   7.297 -0.7183 -0.1808 -0.4930
 6908TIP3   OH242358   2.310   3.915   7.372 -0.5697 -0.5585  0.5519
 6908TIP3    H142359   2.265   3.852   7.429  0.5879 -3.1949 -1.2221
 6908TIP3    H242360   2.370   3.961   7.431  1.4301 -3.9601  1.5214
 6909TIP3   OH242361   3.727   3.170   6.993  0.0971 -0.1937 -0.0719
 6909TIP3    H142362   3.681   3.087   6.981  1.8090 -1.2848  0.6386
 6909TIP3    H242363   3.657   3.235   6.997 -1.2157 -1.2759 -2.7933
 6910TIP3   OH242364   1.109   4.308   0.865  0.1974 -0.3604 -0.0048
 6910TIP3    H142365   1.111   4.213   0.879  1.0877 -0.0336  2.5526
 6910TIP3    H242366   1.062   4.343   0.940  1.0684  1.3229 -0.1957
 6911TIP3   OH242367   2.854   6.383   8.802 -0.0573  0.3363  0.3517
 6911TIP3    H142368   2.829   6.358   8.891 -1.6910  0.3709 -0.0583
 6911TIP3    H242369   2.923   6.322   8.778  0.3473  0.2744  1.6012
 6912TIP3   OH242370   2.638   1.346   7.459  0.2859 -0.0833 -0.3802
 6912TIP3    H142371   2.624   1.359   7.365 -0.9378  1.5298 -0.0290
 6912TIP3    H242372   2.566   1.290   7.487  1.2315 -1.4347 -0.5425
 6913TIP3   OH242373   0.990   0.203   0.187  0.3425  0.2995  0.0818
 6913TIP3    H142374   1.004   0.296   0.205  2.3890  0.1701 -0.6489
 6913TIP3    H242375   0.970   0.199   0.093  1.2522 -0.0783 -0.1028
 6914TIP3   OH242376   0.368   5.202   2.451 -0.4581  0.3818 -0.0199
 6914TIP3    H142377   0.363   5.237   2.540  0.4411  1.3621 -0.3345
 6914TIP3    H242378   0.372   5.279   2.395 -0.5402 -0.2281 -0.8867
 6915TIP3   OH242379   5.052   0.563   7.804 -0.1070  0.5020  0.4663
 6915TIP3    H142380   5.142   0.532   7.791 -0.3989 -0.2856  0.3126
 6915TIP3    H242381   5.040   0.561   7.899 -0.5338 -1.0527  0.3966
 6916TIP3   OH242382   5.238   0.718   7.453 -0.4293 -0.2664  0.0702
 6916TIP3    H142383   5.317   0.679   7.416 -1.0669  0.0710 -1.7228
 6916TIP3    H242384   5.268   0.756   7.536  1.1342 -0.7360 -0.2318
 6917TIP3   OH242385   6.783   2.172   0.725 -0.6244  0.3394  0.3917
 6917TIP3    H142386   6.783   2.241   0.659  2.2056 -0.3585 -0.5036
 6917TIP3    H242387   6.706   2.119   0.704 -0.7143  1.0834 -1.3322
 6918TIP3   OH242388   2.014   5.409   1.896  0.0576 -0.3886 -0.2611
 6918TIP3    H142389   2.062   5.443   1.971 -1.1739  1.8653 -0.4145
 6918TIP3    H242390   2.045   5.319   1.887  2.7035  0.2980  0.8775
 6919TIP3   OH242391   3.713   1.308   1.727  0.3660 -0.4474  0.5990
 6919TIP3    H142392   3.795   1.281   1.685 -0.3774 -0.4390 -0.9399
 6919TIP3    H242393   3.736   1.318   1.819  2.3586  0.5957  0.0595
 6920TIP3   OH242394   6.037   6.030   0.667  0.2495  0.2408  0.0232
 6920TIP3    H142395   6.014   6.120   0.691 -1.0232 -0.2757  0.8220
 6920TIP3    H242396   6.122   6.015   0.709  0.4722  1.0537 -0.1139
 6921TIP3   OH242397   3.477   2.614   6.576  0.2407  0.1129  0.0386
 6921TIP3    H142398   3.474   2.710   6.574  0.2939  0.2058  2.4038
 6921TIP3    H242399   3.387   2.586   6.558  0.1114  0.6057 -0.0878
 6922TIP3   OH242400   3.805   4.094   8.512 -0.4902 -0.6839  0.1730
 6922TIP3    H142401   3.717   4.113   8.480 -0.2881 -1.8519 -1.1846
 6922TIP3    H242402   3.803   4.002   8.536  0.1651 -0.5364  0.8459
 6923TIP3   OH242403   5.313   0.040   7.402  0.4044  0.1498  0.1895
 6923TIP3    H142404   5.226   0.076   7.385  0.0812 -0.7642 -0.1123
 6923TIP3    H242405   5.350   0.026   7.315  1.6859  2.4677  0.2969
 6924TIP3   OH242406   6.309   6.014   8.809 -0.0624 -0.2047  0.5315
 6924TIP3    H142407   6.241   6.003   8.875  0.8384  2.1866  1.9722
 6924TIP3    H242408   6.391   6.014   8.859  0.7473  0.2771 -0.7437
 6925TIP3   OH242409   0.519   2.278   7.865 -0.0078  0.6460 -0.0324
 6925TIP3    H142410   0.527   2.326   7.947 -2.3684 -1.3106  1.4644
 6925TIP3    H242411   0.476   2.340   7.805 -2.5053  0.7401  1.6946
 6926TIP3   OH242412   1.654   4.523   7.447  0.1382  0.2162 -0.3135
 6926TIP3    H142413   1.630   4.612   7.419 -1.1459 -0.5528 -1.8089
 6926TIP3    H242414   1.750   4.524   7.449  0.1958  1.2714 -1.7000
 6927TIP3   OH242415   4.668   0.970   6.679 -0.4960 -0.6579  0.1220
 6927TIP3    H142416   4.643   0.878   6.677 -0.7281 -0.5785 -1.0811
 6927TIP3    H242417   4.761   0.970   6.654 -0.4323 -0.5813  0.3538
 6928TIP3   OH242418   6.627   5.404   7.219 -0.0231  0.2466 -0.0196
 6928TIP3    H142419   6.674   5.359   7.289  0.8531  1.1464  0.0023
 6928TIP3    H242420   6.687   5.401   7.144 -0.1096  1.0269 -0.1265
 6929TIP3   OH242421   2.934   1.232   0.502 -0.7662 -0.3990 -0.1724
 6929TIP3    H142422   2.853   1.191   0.533 -0.5908  0.5566  1.7006
 6929TIP3    H242423   2.904   1.302   0.443 -1.1096 -2.1554 -2.2242
 6930TIP3   OH242424   4.463   2.428   1.443  0.7418  0.4193 -0.2191
 6930TIP3    H142425   4.391   2.460   1.389  1.8999  2.9453 -0.4600
 6930TIP3    H242426   4.453   2.474   1.526  3.1002  2.5157 -0.9440
 6931TIP3   OH242427   0.007   2.431   0.410 -0.1521 -0.2112  0.5679
 6931TIP3    H142428  -0.051   2.440   0.486 -0.1155 -0.3355  0.6101
 6931TIP3    H242429  -0.020   2.502   0.352  0.5959  0.6088  1.1998
 6932TIP3   OH242430   6.823   0.796   1.720 -0.0936 -0.1185 -0.0934
 6932TIP3    H142431   6.844   0.786   1.627 -0.6164 -0.0152 -0.2212
 6932TIP3    H242432   6.882   0.865   1.751  0.1833 -0.2556 -0.3126
 6933TIP3   OH242433   5.998   6.299   0.373 -0.1365  0.3195  0.5152
 6933TIP3    H142434   6.078   6.315   0.424  1.6951 -1.9414 -1.3550
 6933TIP3    H242435   5.967   6.214   0.405  2.1195 -2.1270 -2.9808
 6934TIP3   OH242436   4.172   4.662   7.338 -0.0970 -0.0024 -0.6244
 6934TIP3    H142437   4.243   4.664   7.274 -2.0782 -0.0848 -2.9385
 6934TIP3    H242438   4.184   4.579   7.384  1.8735  0.4629 -0.2019
 6935TIP3   OH242439   5.322   0.158   8.284  0.0778  0.8381  0.1147
 6935TIP3    H142440   5.305   0.074   8.326  0.5883  0.2216 -0.8745
 6935TIP3    H242441   5.301   0.223   8.350 -2.4420  0.0235  0.2132
 6936TIP3   OH242442   2.043   1.740   8.188 -0.1186  0.1835 -0.3921
 6936TIP3    H142443   2.012   1.792   8.114  2.2328  1.1601 -0.7769
 6936TIP3    H242444   2.070   1.657   8.149 -2.5741 -0.9060  0.0265
 6937TIP3   OH242445   5.845   5.092   8.557  0.2401 -0.4382 -0.1507
 6937TIP3    H142446   5.835   5.168   8.614  2.4057  2.3502 -3.0776
 6937TIP3    H242447   5.937   5.066   8.567 -0.0034 -1.5234 -0.5513
 6938TIP3   OH242448   6.652   0.228   8.369 -0.4782 -0.1596  0.7801
 6938TIP3    H142449   6.644   0.135   8.351 -0.2784 -0.2209  0.9901
 6938TIP3    H242450   6.746   0.242   8.384 -0.3138  0.3299 -0.5896
 6939TIP3   OH242451   4.546   2.673   2.327  0.3235 -0.0992  0.1209
 6939TIP3    H142452   4.571   2.664   2.419  0.4114 -0.5583  0.0568
 6939TIP3    H242453   4.463   2.626   2.320  0.8061 -0.9167 -0.2368
 6940TIP3   OH242454   2.854   3.430   2.153  0.0009  0.2173 -0.4307
 6940TIP3    H142455   2.787   3.427   2.221  0.5112 -0.7640  0.0521
 6940TIP3    H242456   2.912   3.501   2.179 -0.3626  0.4941 -0.3763
 6941TIP3   OH242457   0.374   0.612   8.505 -0.7985 -0.2817 -0.6235
 6941TIP3    H142458   0.311   0.612   8.577 -1.8198  1.0127 -1.4906
 6941TIP3    H242459   0.320   0.604   8.426  0.3032 -1.6781 -1.2815
 6942TIP3   OH242460   6.794   2.472   0.889 -0.3827  0.7009 -0.2972
 6942TIP3    H142461   6.769   2.452   0.799 -2.4774  0.6476  0.2537
 6942TIP3    H242462   6.826   2.389   0.925 -2.8756 -0.1999  0.0195
 6943TIP3   OH242463   4.763   0.692   0.434 -0.3467 -0.1944  0.3460
 6943TIP3    H142464   4.730   0.775   0.469 -0.1582 -0.2451  0.6455
 6943TIP3    H242465   4.751   0.629   0.505  1.2926 -0.0058  0.8261
 6944TIP3   OH242466   2.912   4.152   7.452 -0.7427  0.3673  0.1459
 6944TIP3    H142467   2.954   4.081   7.404 -0.0901  0.2148  0.9299
 6944TIP3    H242468   2.882   4.112   7.533 -1.2344  0.7773  0.1708
 6945TIP3   OH242469   6.856   1.370   8.125  0.4635 -0.2976 -0.6493
 6945TIP3    H142470   6.810   1.309   8.183 -0.4819  0.1503 -0.9154
 6945TIP3    H242471   6.871   1.321   8.044  1.4054 -0.7840 -0.2010
 6946TIP3   OH242472   2.963   1.652   0.430  0.2000  0.6780 -0.1406
 6946TIP3    H142473   2.904   1.727   0.421  0.5606  1.0282  0.3539
 6946TIP3    H242474   3.037   1.672   0.372  0.2047  0.6058 -0.1608
 6947TIP3   OH242475   5.223   3.598   6.091 -0.1757  0.7426  0.1625
 6947TIP3    H142476   5.204   3.609   5.998  0.0485 -1.0714 -0.1384
 6947TIP3    H242477   5.168   3.662   6.135 -0.2273  1.6780 -1.2204
 6948TIP3   OH242478   6.188   1.401   8.099 -0.7019  0.1065  0.3216
 6948TIP3    H142479   6.256   1.396   8.166 -0.5555 -0.4470  0.1309
 6948TIP3    H242480   6.111   1.363   8.141 -0.3952 -0.9936 -0.0944
 6949TIP3   OH242481   5.346   3.978   7.104 -0.1413 -0.3942  0.6136
 6949TIP3    H142482   5.405   3.908   7.075 -0.8554 -1.4328  1.5539
 6949TIP3    H242483   5.399   4.057   7.102  0.0762 -0.4598 -2.7620
 6950TIP3   OH242484   4.717   2.497   0.570 -0.1662 -0.2653  0.1291
 6950TIP3    H142485   4.794   2.487   0.515 -0.2225 -0.6589  0.1245
 6950TIP3    H242486   4.746   2.470   0.657 -0.2364 -0.1851  0.1784
 6951TIP3   OH242487   4.979   4.662   8.267  0.5331 -0.3343  0.2462
 6951TIP3    H142488   4.929   4.640   8.188  0.2886 -0.1205  0.3379
 6951TIP3    H242489   4.929   4.622   8.338  1.5246 -1.7641  0.1714
 6952TIP3   OH242490   5.542   5.319   6.687  0.3130 -0.5820  0.4122
 6952TIP3    H142491   5.638   5.322   6.681  0.4388 -1.2437  1.7277
 6952TIP3    H242492   5.525   5.264   6.763 -1.1311 -0.7853 -0.0337
 6953TIP3   OH242493   0.259   2.923   7.877  0.1693 -0.1898 -0.3172
 6953TIP3    H142494   0.338   2.903   7.827  1.9125  1.8273  1.4393
 6953TIP3    H242495   0.273   2.881   7.962  0.1071  1.4253  0.5366
 6954TIP3   OH242496   1.332   4.224   0.400 -0.1470 -0.1863 -0.0421
 6954TIP3    H142497   1.346   4.318   0.393  1.1132 -0.3114  0.4059
 6954TIP3    H242498   1.359   4.202   0.490 -1.8915 -0.7532  0.3741
 6955TIP3   OH242499   6.783   2.221   0.138 -0.5192 -0.2681 -0.4330
 6955TIP3    H142500   6.794   2.136   0.096  1.3992 -0.4813  0.3805
 6955TIP3    H242501   6.713   2.208   0.202 -1.9067 -0.5398 -1.9562
 6956TIP3   OH242502   0.775   3.129   8.510 -0.4969  0.1319  0.2961
 6956TIP3    H142503   0.752   3.221   8.493  0.3248  0.0634 -1.4772
 6956TIP3    H242504   0.710   3.099   8.572 -1.8267  1.4465 -0.3880
 6957TIP3   OH242505   3.060   4.379   7.470 -0.1854  0.4943  0.2534
 6957TIP3    H142506   3.114   4.408   7.396 -0.7620  0.3938 -0.2144
 6957TIP3    H242507   3.031   4.291   7.446  0.1235  0.2146  0.8822
 6958TIP3   OH242508   6.855   4.880   8.685  0.0023 -0.7548  0.6483
 6958TIP3    H142509   6.819   4.874   8.774 -0.2421 -2.0436  0.4721
 6958TIP3    H242510   6.897   4.966   8.683 -1.6063  0.0935  1.3980
 6959TIP3   OH242511   3.254   3.065   0.370  0.6061 -0.6880 -0.1051
 6959TIP3    H142512   3.255   3.161   0.361 -2.6644 -0.4560  0.7706
 6959TIP3    H242513   3.215   3.034   0.289  0.2631 -1.1400  0.2312
 6960TIP3   OH242514   1.478   2.522   1.740 -0.1403  0.0105 -0.1678
 6960TIP3    H142515   1.548   2.525   1.805 -1.7281 -1.6279  1.7780
 6960TIP3    H242516   1.512   2.468   1.669  0.7748 -0.2912  0.4915
 6961TIP3   OH242517   4.320   5.681   7.007 -0.3237 -0.0508  0.3155
 6961TIP3    H142518   4.246   5.738   6.983 -1.1470 -0.4090  1.8550
 6961TIP3    H242519   4.363   5.727   7.079  2.1287  1.0334 -1.6955
 6962TIP3   OH242520   2.390   0.063   7.717 -0.1944  0.5962  0.0306
 6962TIP3    H142521   2.367   0.090   7.628 -1.4020  0.0731  0.1583
 6962TIP3    H242522   2.472   0.109   7.736  0.4703  0.1587 -1.6072
 6963TIP3   OH242523   6.315   2.604   1.039  0.4082 -0.1035  0.1013
 6963TIP3    H142524   6.346   2.692   1.018 -1.3303  0.4353 -0.3757
 6963TIP3    H242525   6.386   2.546   1.010  1.1638  1.0768 -0.4995
 6964TIP3   OH242526   1.691   4.182   1.985  0.5648 -0.8634 -0.6419
 6964TIP3    H142527   1.786   4.185   2.001  0.7586 -0.9008 -1.7156
 6964TIP3    H242528   1.655   4.140   2.063  1.5050 -1.4628 -0.5172
 6965TIP3   OH242529   4.510   1.723   8.070  0.0791  0.1615  0.7395
 6965TIP3    H142530   4.538   1.632   8.067  0.7514  0.2905  2.3787
 6965TIP3    H242531   4.569   1.768   8.008  1.1106 -0.1909  1.4375
 6966TIP3   OH242532   5.916   2.098   0.831 -0.2388 -0.2859 -0.6639
 6966TIP3    H142533   5.830   2.134   0.856  0.7317  1.1508  0.8053
 6966TIP3    H242534   5.964   2.172   0.794  1.0111 -0.5643  0.3150
 6967TIP3   OH242535   1.564   2.798   8.161 -0.2024  0.2726  0.3449
 6967TIP3    H142536   1.525   2.859   8.224 -0.2504 -0.4653  1.0376
 6967TIP3    H242537   1.491   2.770   8.106  0.2145  2.7771 -1.6749
 6968TIP3   OH242538   4.038   2.644   1.085  0.3180  0.4998  0.0203
 6968TIP3    H142539   4.001   2.639   0.996  0.6085  1.5844 -0.1769
 6968TIP3    H242540   4.003   2.568   1.130 -0.1291  0.1346 -0.9257
 6969TIP3   OH242541   3.326   1.723   8.602 -0.3503 -0.6362 -0.4378
 6969TIP3    H142542   3.402   1.667   8.616 -0.0191  0.1010  0.8092
 6969TIP3    H242543   3.301   1.753   8.689 -1.1918  0.2924 -0.9697
 6970TIP3   OH242544   5.127   5.397   7.885  0.1452  0.5043 -0.6598
 6970TIP3    H142545   5.114   5.368   7.794 -0.5281  1.0325 -0.7356
 6970TIP3    H242546   5.112   5.318   7.937 -0.2651  0.3796 -0.9573
 6971TIP3   OH242547   4.311   1.147   0.583 -0.3567  0.0113  0.1649
 6971TIP3    H142548   4.285   1.055   0.585 -1.0157  0.1624 -0.8350
 6971TIP3    H242549   4.244   1.191   0.636 -1.2110  0.1728 -1.0200
 6972TIP3   OH242550   5.748   5.185   7.258  0.1283 -0.4902 -0.5412
 6972TIP3    H142551   5.809   5.148   7.323  0.4325  0.1255 -0.4740
 6972TIP3    H242552   5.663   5.147   7.282 -0.1183  1.0659  1.3454
 6973TIP3   OH242553   0.747   0.241   6.819  0.4537 -0.2095 -0.3268
 6973TIP3    H142554   0.654   0.220   6.832  0.2610  0.3145 -0.8163
 6973TIP3    H242555   0.794   0.168   6.858 -0.1578 -0.2015  0.4405
 6974TIP3   OH242556   1.806   2.415   2.142  0.3524 -0.0963 -0.1579
 6974TIP3    H142557   1.821   2.335   2.091  0.9979 -0.1434  0.0991
 6974TIP3    H242558   1.781   2.383   2.229  0.9901 -0.0177  0.0532
 6975TIP3   OH242559   6.637   2.491   8.424  0.5248 -0.6576 -0.3894
 6975TIP3    H142560   6.555   2.503   8.470 -0.3380 -2.1204 -1.4528
 6975TIP3    H242561   6.704   2.518   8.486 -0.7490  0.8607  0.3921
 6976TIP3   OH242562   3.105   0.734   7.040  0.0793  0.0794 -0.2313
 6976TIP3    H142563   3.110   0.657   6.984 -0.8629 -0.7810  0.8307
 6976TIP3    H242564   3.056   0.798   6.988  2.9360  0.9549 -2.1254
 6977TIP3   OH242565   5.531   3.628   8.075  0.4263  0.4110  0.4981
 6977TIP3    H142566   5.469   3.611   8.003  1.8528  0.2320 -0.7455
 6977TIP3    H242567   5.552   3.721   8.067  1.1513  0.2295  0.1959
 6978TIP3   OH242568   6.675   5.690   1.908  0.0809  0.1605  0.1840
 6978TIP3    H142569   6.654   5.671   1.999  0.7054  0.3175  0.3614
 6978TIP3    H242570   6.630   5.621   1.859  0.4843 -0.4641  0.6736
 6979TIP3   OH242571   1.758   5.650   8.383 -0.5601  0.0491 -0.0273
 6979TIP3    H142572   1.696   5.637   8.455 -0.2005  1.7744  0.6369
 6979TIP3    H242573   1.770   5.744   8.379 -0.0245 -0.0621 -1.9146
 6980TIP3   OH242574   3.670   3.111   2.248  0.5065 -0.3589 -0.4407
 6980TIP3    H142575   3.716   3.083   2.327 -1.0320 -0.1992  0.5456
 6980TIP3    H242576   3.634   3.197   2.269 -1.2908 -0.9985 -0.6988
 6981TIP3   OH242577   4.680   3.543   0.105 -0.1157  0.1826 -0.3026
 6981TIP3    H142578   4.702   3.482   0.035 -1.0584 -0.3609 -0.1433
 6981TIP3    H242579   4.587   3.528   0.122 -0.1116  0.9298  0.4578
 6982TIP3   OH242580   0.963   4.398   0.638 -0.1667  0.1649  0.2436
 6982TIP3    H142581   1.013   4.407   0.558 -0.2027  0.6633  0.2774
 6982TIP3    H242582   1.029   4.400   0.708 -0.1696  0.1004  0.2485
 6983TIP3   OH242583   2.804   1.282   1.189 -0.2176 -0.6552 -0.0314
 6983TIP3    H142584   2.756   1.200   1.183  1.5239 -1.8711  1.6531
 6983TIP3    H242585   2.874   1.265   1.252 -1.4052  2.8875  2.5968
 6984TIP3   OH242586   4.538   3.011   1.086  0.1695  0.0553  0.3385
 6984TIP3    H142587   4.581   2.936   1.128 -0.2319 -0.6863 -0.5397
 6984TIP3    H242588   4.445   2.998   1.103  0.1668  0.9334  1.0728
 6985TIP3   OH242589   2.260   0.539   8.118  0.1879 -0.3452 -0.2208
 6985TIP3    H142590   2.313   0.465   8.087 -0.6204 -1.0183 -0.0132
 6985TIP3    H242591   2.264   0.602   8.046  3.4264  0.7909  0.7983
 6986TIP3   OH242592   2.080   0.508   8.326 -0.3034 -0.3061 -0.3123
 6986TIP3    H142593   2.170   0.512   8.295  0.2219 -1.7698  0.8741
 6986TIP3    H242594   2.029   0.482   8.250  0.5049 -0.9541 -0.6473
 6987TIP3   OH242595   2.019   2.337   8.781  0.3602 -0.3577  0.2384
 6987TIP3    H142596   2.081   2.392   8.734  0.3550 -0.4871  0.0794
 6987TIP3    H242597   1.951   2.398   8.811 -1.0845 -0.5958 -2.2436
 6988TIP3   OH242598   2.389   0.753   0.042  0.3016  0.6321  0.1043
 6988TIP3    H142599   2.308   0.710   0.013  0.5062  0.9700 -1.0473
 6988TIP3    H242600   2.359   0.822   0.101 -0.1075 -0.3737  1.1053
 6989TIP3   OH242601   6.391   0.401   8.041 -0.0976  0.2365 -0.2289
 6989TIP3    H142602   6.378   0.414   7.947  1.6244  0.7783 -0.4279
 6989TIP3    H242603   6.401   0.490   8.076 -1.0593  0.0597  0.5375
 6990TIP3   OH242604   1.752   5.803   0.452 -0.1770 -0.0033 -0.0813
 6990TIP3    H142605   1.717   5.883   0.413 -2.1687 -0.1831  1.1905
 6990TIP3    H242606   1.823   5.833   0.509  0.4612  0.6097 -1.1703
 6991TIP3   OH242607   3.509   4.852   7.104 -0.4220  0.2326 -0.4161
 6991TIP3    H142608   3.563   4.864   7.182 -1.1173 -0.6743  0.2221
 6991TIP3    H242609   3.570   4.823   7.037  0.0592  0.2332  0.0152
 6992TIP3   OH242610   2.043   6.490   2.401  0.2828  0.1619 -0.1138
 6992TIP3    H142611   2.115   6.548   2.377 -0.6599  1.0145 -0.9820
 6992TIP3    H242612   2.057   6.411   2.348 -0.0034  0.7545 -1.0908
 6993TIP3   OH242613   2.528   5.884   0.437 -0.0293  0.8509 -1.0469
 6993TIP3    H142614   2.523   5.826   0.361 -0.8371  1.3030 -1.3581
 6993TIP3    H242615   2.601   5.942   0.418 -0.3190  1.0589 -1.5612
 6994TIP3   OH242616   4.115   3.410   8.473 -0.1494  0.4944  0.3066
 6994TIP3    H142617   4.175   3.339   8.451 -1.2166 -0.4509  0.3711
 6994TIP3    H242618   4.077   3.385   8.557  1.3808  2.4408  1.6652
 6995TIP3   OH242619   0.121   4.305   6.828  0.1380 -0.8051 -0.1310
 6995TIP3    H142620   0.107   4.277   6.737 -0.2834 -0.5265 -0.1550
 6995TIP3    H242621   0.183   4.377   6.821  1.5275 -1.9460 -0.0383
 6996TIP3   OH242622   0.863   6.753   7.825  0.3674  0.1346  0.1176
 6996TIP3    H142623   0.932   6.746   7.758  0.5410 -2.0191  0.4340
 6996TIP3    H242624   0.907   6.792   7.900  0.7542  0.5004 -0.2905
 6997TIP3   OH242625   5.623   0.607   2.049 -0.4476  0.5241  0.4507
 6997TIP3    H142626   5.539   0.563   2.061  0.6079 -1.9094 -0.4404
 6997TIP3    H242627   5.601   0.687   2.001 -2.1023 -1.1065 -1.7593
 6998TIP3   OH242628   0.473   1.769   1.696 -0.1915  0.3103 -0.3722
 6998TIP3    H142629   0.532   1.845   1.689 -0.0632  0.1193 -1.5772
 6998TIP3    H242630   0.385   1.808   1.695 -0.1196  0.4730 -0.5404
 6999TIP3   OH242631   5.365   3.315   8.413  0.4271 -0.0529 -0.1053
 6999TIP3    H142632   5.303   3.294   8.483  0.6531  0.1188  0.1498
 6999TIP3    H242633   5.339   3.402   8.383  0.9125  0.2752  0.4133
 7000TIP3   OH242634   6.848   5.559   1.281  0.0310 -0.4277 -0.0564
 7000TIP3    H142635   6.793   5.617   1.229  0.3674 -0.6614 -0.6815
 7000TIP3    H242636   6.805   5.556   1.367 -2.0888 -2.1592 -1.0475
 7001TIP3   OH242637   5.238   6.606   1.292 -0.8542  0.1451  0.5638
 7001TIP3    H142638   5.212   6.547   1.222  1.9473 -0.1663 -0.3406
 7001TIP3    H242639   5.212   6.693   1.262 -0.7279 -0.1192 -0.3262
 7002TIP3   OH242640   5.652   1.714   8.715  0.2895 -0.4243 -0.0279
 7002TIP3    H142641   5.576   1.656   8.712 -0.8864  1.0896 -1.0606
 7002TIP3    H242642   5.655   1.747   8.805  0.0186 -0.8713  0.1445
 7003TIP3   OH242643   0.236   4.329   2.170  0.6980  0.1165  0.1562
 7003TIP3    H142644   0.218   4.421   2.190 -2.9994 -0.3025 -0.4627
 7003TIP3    H242645   0.261   4.330   2.077  0.7950  0.5256  0.1822
 7004TIP3   OH242646   5.581   6.057   8.169  0.4212 -0.1076 -0.3185
 7004TIP3    H142647   5.565   5.963   8.168  0.3248 -0.1299  1.1708
 7004TIP3    H242648   5.499   6.095   8.201  0.9116  0.3479  0.4565
 7005TIP3   OH242649   5.801   3.350   1.603  0.5628  0.3300  0.0605
 7005TIP3    H142650   5.743   3.425   1.585 -1.3320 -0.7796  1.2691
 7005TIP3    H242651   5.746   3.273   1.590  1.3414 -0.7433  2.6025
 7006TIP3   OH242652   6.380   0.783   7.396  0.3189  0.1372  0.5951
 7006TIP3    H142653   6.388   0.739   7.481 -1.9965 -0.2873  0.6530
 7006TIP3    H242654   6.356   0.714   7.335  2.2776  0.3731 -0.5612
 7007TIP3   OH242655   1.193   6.471   8.404  0.5109 -0.0606 -0.2752
 7007TIP3    H142656   1.256   6.400   8.417 -0.3855 -0.6312  1.1748
 7007TIP3    H242657   1.118   6.446   8.457 -0.4295  1.2454 -0.9478
 7008TIP3   OH242658   5.285   2.271   8.633 -0.3583  0.3148  1.0747
 7008TIP3    H142659   5.253   2.183   8.614 -1.7296  1.0474 -0.1984
 7008TIP3    H242660   5.353   2.258   8.699 -0.1208 -1.7500  0.4977
 7009TIP3   OH242661   0.182   6.225   0.635  0.0407  0.5309 -0.0231
 7009TIP3    H142662   0.181   6.266   0.549 -1.0849  2.4099  0.8425
 7009TIP3    H242663   0.091   6.202   0.652  0.4457 -1.1106  0.1186
 7010TIP3   OH242664   5.052   5.815   6.798  0.0922  0.4478  0.4729
 7010TIP3    H142665   5.091   5.852   6.878  0.8060 -1.5774  1.1402
 7010TIP3    H242666   5.021   5.729   6.825  1.2846 -0.7273 -1.6552
 7011TIP3   OH242667   4.215   1.778   6.236  0.0952 -0.9335 -0.3046
 7011TIP3    H142668   4.168   1.723   6.173 -0.2069 -1.1836  0.1301
 7011TIP3    H242669   4.176   1.864   6.227  1.2615 -0.5058 -1.7225
 7012TIP3   OH242670   2.498   4.613   8.538  0.0447  0.2145 -0.0445
 7012TIP3    H142671   2.403   4.604   8.532  0.1916 -0.5826 -1.5642
 7012TIP3    H242672   2.521   4.568   8.619 -1.1228  2.9759  1.9773
 7013TIP3   OH242673   2.651   4.981   7.457  0.1491 -0.4791  0.0725
 7013TIP3    H142674   2.664   4.968   7.363 -0.3951 -0.4702 -0.0065
 7013TIP3    H242675   2.722   4.932   7.498 -0.3004 -1.4745 -0.3046
 7014TIP3   OH242676   3.696   3.717   1.983  0.0457 -0.5578 -0.2738
 7014TIP3    H142677   3.615   3.710   2.032 -1.7990  0.1319 -2.9663
 7014TIP3    H242678   3.729   3.628   1.976 -1.8514 -1.2238 -1.1942
 7015TIP3   OH242679   4.835   3.923   7.439 -0.2382 -0.6769 -0.5308
 7015TIP3    H142680   4.808   3.967   7.520  2.8118  0.1240  0.1893
 7015TIP3    H242681   4.916   3.968   7.414  0.7672 -3.1728 -2.1112
 7016TIP3   OH242682   2.615   6.547   0.840 -0.0601  0.2332  0.2234
 7016TIP3    H142683   2.654   6.617   0.789  0.3518  0.3927  0.7460
 7016TIP3    H242684   2.620   6.470   0.783  1.5907  0.1010  0.4911
 7017TIP3   OH242685   2.489   5.255   0.239 -0.1005  0.4704 -0.3414
 7017TIP3    H142686   2.493   5.160   0.235 -0.4026  0.4903 -1.4172
 7017TIP3    H242687   2.494   5.275   0.332 -4.2808 -0.8336  0.3950
 7018TIP3   OH242688   5.538   6.384   6.421  0.5598  0.0382 -0.0180
 7018TIP3    H142689   5.453   6.414   6.389 -0.1794  0.0921  1.8812
 7018TIP3    H242690   5.529   6.289   6.430  0.7263  0.0348  0.1264
 7019TIP3   OH242691   1.757   6.546   0.692 -0.9172  0.0489  0.1819
 7019TIP3    H142692   1.807   6.613   0.738 -0.8043  0.0605  0.0409
 7019TIP3    H242693   1.809   6.466   0.702 -0.9357  0.0330  0.1493
 7020TIP3   OH242694   3.207   2.155   8.786 -0.4014 -0.2888 -0.2521
 7020TIP3    H142695   3.269   2.169   8.715 -0.5089 -0.3251 -0.3546
 7020TIP3    H242696   3.177   2.242   8.810  1.6458 -0.0088  1.5921
 7021TIP3   OH242697   1.006   5.743   2.191 -0.5058 -0.1963  0.2413
 7021TIP3    H142698   0.995   5.648   2.181 -0.3364 -0.2627  0.6667
 7021TIP3    H242699   0.918   5.775   2.208 -0.5256 -0.3128  0.3653
 7022TIP3   OH242700   4.282   0.332   7.504 -0.7851 -0.0552 -0.1419
 7022TIP3    H142701   4.270   0.241   7.479  0.8711 -0.4366  0.2972
 7022TIP3    H242702   4.352   0.330   7.570 -3.0842  1.1723  2.5594
 7023TIP3   OH242703   3.562   1.808   0.362  0.4588  0.2484  0.0928
 7023TIP3    H142704   3.513   1.780   0.439  2.5403  0.9134  1.7187
 7023TIP3    H242705   3.634   1.745   0.355  1.9387  1.8448  0.4475
 7024TIP3   OH242706   5.997   2.334   1.695 -0.0920 -0.3307  0.1191
 7024TIP3    H142707   5.928   2.281   1.735 -1.8183  2.1567  0.7087
 7024TIP3    H242708   6.056   2.355   1.767 -0.6275  0.3100  0.3859
 7025TIP3   OH242709   5.072   4.832   2.623  0.1041 -0.1250 -0.6012
 7025TIP3    H142710   5.164   4.857   2.613 -0.3306  2.1108  0.2632
 7025TIP3    H242711   5.068   4.793   2.710  0.0900  0.7810 -0.1760
 7026TIP3   OH242712   5.366   0.548   1.791 -0.1776  0.8156  0.1768
 7026TIP3    H142713   5.277   0.557   1.758 -0.1349  1.0074  0.1141
 7026TIP3    H242714   5.386   0.633   1.830  0.4245  1.2029 -0.9231
 7027TIP3   OH242715   3.331   1.526   8.393 -0.5483 -0.2240 -0.0071
 7027TIP3    H142716   3.395   1.563   8.453 -0.8010 -0.9941  0.7687
 7027TIP3    H242717   3.346   1.431   8.398 -1.3277 -0.3712 -0.2884
 7028TIP3   OH242718   0.809   2.529   7.361 -0.1696 -0.3836  0.3292
 7028TIP3    H142719   0.802   2.444   7.318 -0.1699 -0.6884  0.9169
 7028TIP3    H242720   0.893   2.564   7.331  0.2132 -0.9538  0.7105
 7029TIP3   OH242721   5.518   5.338   8.735 -0.2767 -0.2739  0.3148
 7029TIP3    H142722   5.553   5.407   8.792 -0.9729  0.1527  0.2301
 7029TIP3    H242723   5.513   5.261   8.792 -2.1204  0.4410  1.2205
 7030TIP3   OH242724   4.072   1.090   7.838  0.3443  0.1490 -0.1782
 7030TIP3    H142725   4.157   1.078   7.882 -0.8732 -0.1953  2.2337
 7030TIP3    H242726   4.069   1.183   7.817  1.6368  0.0236 -1.1056
 7031TIP3   OH242727   3.232   6.280   8.331  0.3093 -0.1631 -0.2522
 7031TIP3    H142728   3.259   6.247   8.416  1.4827  0.1816 -0.4733
 7031TIP3    H242729   3.167   6.217   8.300 -0.6975  0.1042  1.2053
 7032TIP3   OH242730   6.610   4.083   7.047 -0.0830 -0.2736 -0.0479
 7032TIP3    H142731   6.608   4.058   6.955  0.3635  1.9574 -0.7173
 7032TIP3    H242732   6.702   4.108   7.063  0.2873 -2.4101  1.5543
 7033TIP3   OH242733   1.043   1.600   6.896 -0.1796 -0.0757 -0.5494
 7033TIP3    H142734   1.010   1.598   6.985 -0.5412 -1.6948 -0.6906
 7033TIP3    H242735   1.082   1.687   6.887  1.0674 -0.3472  1.6047
 7034TIP3   OH242736   5.424   2.228   6.801 -0.2870  0.0807 -0.1114
 7034TIP3    H142737   5.370   2.305   6.817  0.9354  0.5551  2.0483
 7034TIP3    H242738   5.410   2.172   6.878  1.3036 -0.3517 -0.0984
 7035TIP3   OH242739   2.193   1.330   1.030 -0.5956 -0.0954  0.4791
 7035TIP3    H142740   2.259   1.295   1.089  1.6018  0.8478 -1.2804
 7035TIP3    H242741   2.178   1.419   1.060 -1.2019 -0.3419  0.9410
 7036TIP3   OH242742   2.806   1.451   8.584 -0.3324 -1.2409 -0.0746
 7036TIP3    H142743   2.818   1.358   8.604  1.5102 -0.7916  1.1427
 7036TIP3    H242744   2.891   1.480   8.553 -0.7779  0.1415 -0.0815
 7037TIP3   OH242745   4.043   6.803   1.152 -0.1026 -0.4717  0.1631
 7037TIP3    H142746   4.009   6.850   1.075  0.2379  0.9760  0.8534
 7037TIP3    H242747   4.138   6.814   1.147  0.3385 -3.7872 -1.3026
 7038TIP3   OH242748   3.207   2.274   0.266 -0.4045  0.0752 -0.3193
 7038TIP3    H142749   3.293   2.233   0.252 -0.6626 -0.9127  0.8662
 7038TIP3    H242750   3.214   2.315   0.352 -1.3462 -0.6230  0.0984
 7039TIP3   OH242751   0.995   5.792   1.629  0.2649  0.0915  0.1972
 7039TIP3    H142752   1.059   5.724   1.611 -0.2961 -0.1240 -1.0647
 7039TIP3    H242753   1.040   5.853   1.687  1.6995  0.0728 -0.8545
 7040TIP3   OH242754   1.708   3.336   8.488  0.0479 -0.6265  0.0025
 7040TIP3    H142755   1.696   3.285   8.407 -0.4721  0.2278 -0.4718
 7040TIP3    H242756   1.784   3.296   8.530  1.5140  0.0827 -1.8271
 7041TIP3   OH242757   0.168   6.608   7.908  0.0656  0.6618  0.4532
 7041TIP3    H142758   0.212   6.545   7.851  0.3108  0.8916  0.3842
 7041TIP3    H242759   0.123   6.667   7.847 -2.9187 -1.3496  0.5391
 7042TIP3   OH242760   3.475   4.919   1.064 -0.1682 -0.2890 -0.1499
 7042TIP3    H142761   3.463   4.824   1.067 -0.5487 -0.2282  1.9027
 7042TIP3    H242762   3.564   4.931   1.030  0.4328 -1.4558  0.9111
 7043TIP3   OH242763   4.795   1.672   7.101 -0.0923 -0.1043 -0.2101
 7043TIP3    H142764   4.704   1.697   7.082 -0.7063 -1.9517  0.0432
 7043TIP3    H242765   4.787   1.598   7.161  1.5669 -0.7533 -0.7367
 7044TIP3   OH242766   1.849   1.312   7.885  0.4918 -0.4374 -0.3637
 7044TIP3    H142767   1.940   1.326   7.856  0.4363 -2.1030 -1.4877
 7044TIP3    H242768   1.849   1.223   7.921 -0.9174 -0.8750 -1.3705
 7045TIP3   OH242769   1.580   4.740   2.292  0.0940  0.3537 -1.4088
 7045TIP3    H142770   1.669   4.740   2.328 -0.2070  3.0080 -0.4182
 7045TIP3    H242771   1.551   4.649   2.298  1.6555 -0.0729  1.1313
 7046TIP3   OH242772   6.765   0.147   0.484 -0.1594 -0.6132  0.6365
 7046TIP3    H142773   6.693   0.132   0.545  1.3997 -0.8079  2.5652
 7046TIP3    H242774   6.813   0.221   0.522  1.5691 -1.5463  0.3629
 7047TIP3   OH242775   4.597   6.067   1.051 -0.0212 -0.0189 -0.2634
 7047TIP3    H142776   4.591   5.974   1.030 -1.9601 -0.1851  0.7509
 7047TIP3    H242777   4.574   6.072   1.144 -0.8413  1.5337 -0.5139
 7048TIP3   OH242778   2.603   2.369   0.241 -0.0159 -0.3723 -0.1673
 7048TIP3    H142779   2.511   2.344   0.233  0.2299 -0.7231 -2.2779
 7048TIP3    H242780   2.621   2.362   0.335 -1.7058 -1.8789  0.0953
 7049TIP3   OH242781   3.941   0.830   7.097 -0.5282  0.0703  0.4140
 7049TIP3    H142782   4.019   0.846   7.045 -1.1361  1.1132 -0.2258
 7049TIP3    H242783   3.950   0.740   7.129  0.4060 -0.1870 -0.5448
 7050TIP3   OH242784   3.754   6.779   1.867 -0.4310 -0.1323  0.2306
 7050TIP3    H142785   3.800   6.863   1.871 -1.2818  0.4697 -1.4791
 7050TIP3    H242786   3.820   6.715   1.891  1.1769  0.7587 -1.5125
 7051TIP3   OH242787   1.511   0.387   8.307 -0.9454 -0.0401  0.2551
 7051TIP3    H142788   1.572   0.330   8.260  0.1753  0.0393  1.5718
 7051TIP3    H242789   1.534   0.377   8.399 -2.5401  0.4595  0.7415
 7052TIP3   OH242790   0.933   2.843   1.823 -0.4426 -0.1870  0.0185
 7052TIP3    H142791   1.011   2.804   1.863 -0.3672 -0.3921 -0.3240
 7052TIP3    H242792   0.860   2.808   1.874 -0.2529  0.9413  1.1163
 7053TIP3   OH242793   2.909   1.898   0.925 -0.2095  0.5552  0.1199
 7053TIP3    H142794   2.904   1.804   0.939 -0.6094  0.7149  1.1791
 7053TIP3    H242795   2.899   1.936   1.013  0.3801  1.5690 -0.2250
 7054TIP3   OH242796   2.648   0.472   1.027 -0.0985 -0.2180 -0.5420
 7054TIP3    H142797   2.589   0.485   1.101 -0.4814 -0.2715 -0.8409
 7054TIP3    H242798   2.712   0.543   1.036 -0.4625  0.1039 -0.4705
 7055TIP3   OH242799   6.525   0.148   0.616 -0.8237  0.0782  0.0654
 7055TIP3    H142800   6.494   0.125   0.703 -1.0041 -0.0883 -0.0413
 7055TIP3    H242801   6.446   0.169   0.567 -0.6754  0.7270  0.1003
 7056TIP3   OH242802   5.609   4.299   7.358 -0.3366  0.2451 -0.5241
 7056TIP3    H142803   5.699   4.305   7.389  0.5907  0.4350 -2.9869
 7056TIP3    H242804   5.576   4.389   7.362 -0.0545  0.3525 -0.5885
 7057TIP3   OH242805   1.673   6.854   0.178  0.1828 -0.1557  0.1569
 7057TIP3    H142806   1.644   6.917   0.112  0.2422 -0.6511 -0.3401
 7057TIP3    H242807   1.597   6.844   0.236  0.1330  0.2812  0.1737
 7058TIP3   OH242808   4.570   3.342   7.443  0.2303 -0.1050  0.5330
 7058TIP3    H142809   4.588   3.408   7.376  1.5463 -0.9909 -0.0206
 7058TIP3    H242810   4.478   3.356   7.467  0.4572  1.8708  0.3936
 7059TIP3   OH242811   5.810   5.317   6.579 -0.4758  0.2151  0.0975
 7059TIP3    H142812   5.843   5.269   6.655 -0.4192 -0.2961 -0.2423
 7059TIP3    H242813   5.863   5.396   6.576  1.5886 -1.1138 -1.1207
 7060TIP3   OH242814   2.188   5.860   7.345 -0.7367  0.1736  0.6713
 7060TIP3    H142815   2.107   5.863   7.294 -1.2213  1.2206  1.4714
 7060TIP3    H242816   2.191   5.772   7.380 -0.0044 -0.8518 -1.7428
 7061TIP3   OH242817   6.073   0.647   7.389 -0.2609 -0.1647  0.2373
 7061TIP3    H142818   6.110   0.604   7.467 -1.4593 -1.6807  0.0137
 7061TIP3    H242819   6.132   0.620   7.318 -0.3471 -0.5069  0.2910
 7062TIP3   OH242820   5.906   4.298   7.332  0.1452  0.6135  0.1209
 7062TIP3    H142821   5.945   4.366   7.279  0.8525  0.7799  0.8337
 7062TIP3    H242822   5.931   4.216   7.289  1.5739  0.7009  0.7232
 7063TIP3   OH242823   6.767   2.211   2.087  0.9279  0.7303  0.4373
 7063TIP3    H142824   6.684   2.251   2.061  0.8181 -0.5085 -1.3138
 7063TIP3    H242825   6.760   2.203   2.182 -2.1309 -1.5939  0.2147
 7064TIP3   OH242826   3.688   3.606   7.561 -0.1271 -0.2974  0.8463
 7064TIP3    H142827   3.703   3.698   7.585 -0.6022  0.1041 -0.3316
 7064TIP3    H242828   3.706   3.557   7.642 -0.4109  0.8741  1.6469
 7065TIP3   OH242829   3.101   2.994   8.635  0.1958  0.3072  0.3402
 7065TIP3    H142830   3.139   2.906   8.645  0.0929  0.4703  2.6111
 7065TIP3    H242831   3.174   3.048   8.605  0.2642 -0.5016 -1.0773
 7066TIP3   OH242832   0.228   0.276   1.173  0.0227 -0.3801 -0.0588
 7066TIP3    H142833   0.302   0.284   1.233  0.0344  0.0524 -0.1282
 7066TIP3    H242834   0.163   0.225   1.222  0.5022 -1.0733 -0.1342
 7067TIP3   OH242835   1.882   0.183   0.538 -0.2182 -0.1615  0.4325
 7067TIP3    H142836   1.892   0.173   0.444 -2.3057 -0.3329  0.1846
 7067TIP3    H242837   1.971   0.175   0.573  0.6734  0.5440 -1.5529
 7068TIP3   OH242838   3.263   3.700   1.845  0.5986  0.3274  0.0354
 7068TIP3    H142839   3.175   3.681   1.812  0.8072  0.3902 -0.5761
 7068TIP3    H242840   3.248   3.737   1.932  0.1459 -1.9438  0.9852
 7069TIP3   OH242841   0.770   3.208   1.105 -0.3596 -0.0306 -0.7171
 7069TIP3    H142842   0.806   3.265   1.173 -1.3140 -0.6402  0.3421
 7069TIP3    H242843   0.704   3.261   1.061 -0.1447  0.1827 -0.7795
 7070TIP3   OH242844   4.558   3.284   0.271 -0.1865 -0.0029 -0.1273
 7070TIP3    H142845   4.559   3.278   0.175 -1.6676 -1.3568 -0.0908
 7070TIP3    H242846   4.574   3.195   0.301 -1.7072  0.0111  0.8307
 7071TIP3   OH242847   0.458   5.109   8.145 -0.3529  0.5100  0.6020
 7071TIP3    H142848   0.435   5.115   8.238  0.1661 -1.0213  0.8464
 7071TIP3    H242849   0.379   5.074   8.103 -0.3712  0.6086  0.5526
 7072TIP3   OH242850   4.927   5.962   7.572 -0.7676  0.2504  0.6133
 7072TIP3    H142851   4.877   6.019   7.513 -1.9600 -2.0554 -0.7381
 7072TIP3    H242852   5.018   5.977   7.549 -1.1502  0.3797 -0.9441
 7073TIP3   OH242853   3.332   1.528   7.110  0.8724 -0.4037  0.1251
 7073TIP3    H142854   3.379   1.490   7.035  0.4264  1.5780 -1.2326
 7073TIP3    H242855   3.257   1.470   7.122  2.5090 -2.5213  1.1092
 7074TIP3   OH242856   3.491   3.113   8.402 -0.3859  0.2803 -0.3228
 7074TIP3    H142857   3.462   3.085   8.315  0.7620 -1.9193 -0.0501
 7074TIP3    H242858   3.577   3.151   8.388 -0.6098  0.8344 -0.2478
 7075TIP3   OH242859   3.889   1.811   0.989  0.0797 -0.6362  0.0897
 7075TIP3    H142860   3.939   1.741   0.947  0.3796 -0.2268 -0.2538
 7075TIP3    H242861   3.955   1.873   1.018 -0.2446  0.4682 -1.3644
 7076TIP3   OH242862   0.144   5.343   8.120  0.1625 -0.0472 -0.2389
 7076TIP3    H142863   0.228   5.352   8.165  0.6364 -0.2748 -1.0519
 7076TIP3    H242864   0.131   5.427   8.077  0.4326 -0.3036 -0.8506
 7077TIP3   OH242865   4.617   3.805   2.683  0.0123 -0.3610 -0.0154
 7077TIP3    H142866   4.539   3.749   2.686 -0.7868  0.6297  3.8794
 7077TIP3    H242867   4.596   3.871   2.618 -1.5531 -1.2528 -0.4761
 7078TIP3   OH242868   2.176   2.213   0.815 -0.1674 -0.1458  0.4019
 7078TIP3    H142869   2.242   2.145   0.831  0.1700  0.5273  2.1150
 7078TIP3    H242870   2.180   2.269   0.892 -1.0029  1.3772 -0.6031
 7079TIP3   OH242871   4.243   3.150   8.508  0.3240  0.6066  0.1715
 7079TIP3    H142872   4.229   3.121   8.599 -1.6388 -1.7269 -0.7277
 7079TIP3    H242873   4.331   3.120   8.487  0.4730  0.3740  1.0530
 7080TIP3   OH242874   2.265   6.694   0.862 -0.0938  0.1648 -0.2121
 7080TIP3    H142875   2.343   6.705   0.808 -0.2281 -0.3198 -0.5148
 7080TIP3    H242876   2.289   6.729   0.948  0.6957 -0.6409 -0.0968
 7081TIP3   OH242877   0.869   0.215   0.579 -0.2873 -0.6163 -0.7443
 7081TIP3    H142878   0.937   0.206   0.645 -0.1997  2.8574 -0.1387
 7081TIP3    H242879   0.887   0.147   0.515  1.5073 -2.1028  1.2243
 7082TIP3   OH242880   6.208   0.304   8.428 -0.3656 -0.1369 -0.4696
 7082TIP3    H142881   6.210   0.388   8.474  1.2764  0.2124 -1.1366
 7082TIP3    H242882   6.272   0.250   8.473 -0.1985 -0.4667 -1.0989
 7083TIP3   OH242883   3.585   2.087   7.411  0.0469 -0.3251  0.3726
 7083TIP3    H142884   3.620   2.126   7.492  0.7831 -1.2328  0.5180
 7083TIP3    H242885   3.556   2.000   7.438 -1.0566 -0.0958 -0.0535
 7084TIP3   OH242886   4.231   4.390   7.492  0.1250  0.8012 -0.0517
 7084TIP3    H142887   4.248   4.397   7.586  0.5471 -0.0406 -0.0598
 7084TIP3    H242888   4.315   4.414   7.452  0.2976  0.0037 -0.1781
 7085TIP3   OH242889   2.256   4.795   8.083 -0.5125  0.1875  0.3869
 7085TIP3    H142890   2.218   4.849   8.152  0.4765  0.8080  0.4662
 7085TIP3    H242891   2.327   4.747   8.126  0.6592  1.2039 -0.3384
 7086TIP3   OH242892   4.820   4.963   7.402 -0.0761 -0.1880 -0.1119
 7086TIP3    H142893   4.798   4.885   7.452  1.2598 -1.4492 -1.3938
 7086TIP3    H242894   4.735   5.005   7.385 -0.8872 -1.6773  0.1080
 7087TIP3   OH242895   4.579   1.768   1.396 -0.0234  0.1310  0.0804
 7087TIP3    H142896   4.655   1.709   1.400 -0.2230 -0.3148 -1.8627
 7087TIP3    H242897   4.594   1.820   1.317 -1.1945  0.8063  0.2948
 7088TIP3   OH242898   2.374   4.319   8.326  0.2256  0.6682  0.6103
 7088TIP3    H142899   2.365   4.400   8.376 -1.5529  1.5343 -1.0222
 7088TIP3    H242900   2.331   4.253   8.381  0.4194  1.0916  1.2895
 7089TIP3   OH242901   0.461   4.388   8.217 -0.4599 -0.1693  0.3609
 7089TIP3    H142902   0.459   4.305   8.264 -0.8439 -0.1516  0.3775
 7089TIP3    H242903   0.492   4.452   8.281  0.3579 -0.3883  0.2021
 7090TIP3   OH242904   0.558   1.572   8.227 -0.2723 -0.4381  0.4946
 7090TIP3    H142905   0.618   1.577   8.301  2.2269 -3.3198 -1.1125
 7090TIP3    H242906   0.590   1.639   8.166  1.0943 -1.6295 -0.1425
 7091TIP3   OH242907   0.040   4.783   1.396  0.1588 -0.6864 -0.4805
 7091TIP3    H142908  -0.008   4.793   1.314  0.2482 -0.3551 -0.4966
 7091TIP3    H242909  -0.027   4.791   1.464  0.4411  2.1359 -0.4071
 7092TIP3   OH242910   5.215   5.826   1.604 -0.3991  0.5904  0.4718
 7092TIP3    H142911   5.174   5.896   1.654 -1.5070  0.3143 -0.0254
 7092TIP3    H242912   5.164   5.748   1.625 -0.4111  0.3232 -0.4943
 7093TIP3   OH242913   0.698   4.485   0.978  0.1739  0.3498 -0.1272
 7093TIP3    H142914   0.636   4.414   0.990  0.4851  0.3236  1.5186
 7093TIP3    H242915   0.708   4.492   0.883 -2.5500  0.5630 -0.4660
 7094TIP3   OH242916   2.581   2.066   1.294  0.1545  0.6567 -0.1546
 7094TIP3    H142917   2.568   2.048   1.388 -3.7413 -0.5131 -0.7470
 7094TIP3    H242918   2.594   1.979   1.255 -0.8399  0.8570 -0.9616
 7095TIP3   OH242919   5.038   5.781   7.298 -0.3358  1.1601 -0.5318
 7095TIP3    H142920   4.963   5.822   7.341  0.4316  2.0367  0.0275
 7095TIP3    H242921   5.112   5.803   7.355  0.4323  0.8528 -1.3971
 7096TIP3   OH242922   5.817   6.662   8.390  0.0681 -0.2008 -0.5381
 7096TIP3    H142923   5.883   6.602   8.425 -0.0462  0.2105  0.4209
 7096TIP3    H242924   5.759   6.680   8.465 -1.5280 -1.0730 -1.5225
 7097TIP3   OH242925   2.289   2.349   0.150 -0.1554  0.0908 -0.0852
 7097TIP3    H142926   2.241   2.360   0.068 -2.3196 -0.0022  1.1130
 7097TIP3    H242927   2.324   2.260   0.146  0.4633  0.3668 -1.2283
 7098TIP3   OH242928   4.721   1.404   7.469 -0.1158 -0.2400 -0.7352
 7098TIP3    H142929   4.803   1.446   7.496 -0.2284 -0.4866  0.0202
 7098TIP3    H242930   4.717   1.324   7.521 -1.3078  0.2416 -0.0482
 7099TIP3   OH242931   1.945   4.778   8.122 -0.4311 -0.0444  0.1873
 7099TIP3    H142932   1.985   4.694   8.100 -0.3666  0.1826 -0.6028
 7099TIP3    H242933   1.871   4.786   8.062  0.6576  1.2878 -1.0542
 7100TIP3   OH242934   2.496   3.025   6.982 -0.2245  0.1046  0.2268
 7100TIP3    H142935   2.536   3.006   6.897 -1.7810  0.4513 -0.6146
 7100TIP3    H242936   2.430   2.958   6.994  2.0515 -1.9473  2.7333
 7101TIP3   OH242937   5.959   6.223   7.723  0.4133 -0.1119 -0.0934
 7101TIP3    H142938   6.039   6.227   7.669  0.0409 -0.1803 -0.6586
 7101TIP3    H242939   5.901   6.163   7.675 -0.4838  0.9566 -0.3849
 7102TIP3   OH242940   6.375   5.180   0.836 -0.0250  0.1424  0.1054
 7102TIP3    H142941   6.329   5.225   0.907  1.4506  0.4692  0.8976
 7102TIP3    H242942   6.307   5.161   0.772 -0.9035  2.5426  0.2240
 7103TIP3   OH242943   3.590   5.431   7.945 -0.1256  0.2055 -0.1656
 7103TIP3    H142944   3.530   5.421   8.019  1.2025 -1.8365  0.7215
 7103TIP3    H242945   3.667   5.474   7.982  1.3358 -2.5261  0.2039
 7104TIP3   OH242946   1.473   5.720   0.336 -0.1139  0.1065 -0.0912
 7104TIP3    H142947   1.475   5.814   0.354 -1.2036 -0.0149  0.8121
 7104TIP3    H242948   1.396   5.689   0.385 -0.0105 -1.1777 -0.7235
 7105TIP3   OH242949   5.722   0.397   7.587  0.5282 -0.1596 -0.3366
 7105TIP3    H142950   5.797   0.380   7.530  0.6435  1.3798 -0.6777
 7105TIP3    H242951   5.650   0.349   7.547  0.8305  0.1412 -1.2498
 7106TIP3   OH242952   4.261   5.392   7.938  0.7521  0.3147  0.6301
 7106TIP3    H142953   4.181   5.339   7.933  0.5405  0.7647 -1.7710
 7106TIP3    H242954   4.303   5.363   8.019  0.6670 -3.5976 -0.4951
 7107TIP3   OH242955   5.949   1.213   0.156  0.1502 -0.0865  0.0676
 7107TIP3    H142956   5.941   1.238   0.065  0.5162 -0.0410  0.0485
 7107TIP3    H242957   6.020   1.268   0.191  0.1314 -0.2258  0.3321
 7108TIP3   OH242958   3.712   6.019   6.680 -0.1788  0.3559  0.0429
 7108TIP3    H142959   3.806   6.024   6.661  0.0651 -0.8416  0.8210
 7108TIP3    H242960   3.704   5.942   6.737 -1.3237  1.8218  1.9522
 7109TIP3   OH242961   6.346   3.029   8.704  0.6934 -0.1887  0.5118
 7109TIP3    H142962   6.317   2.939   8.687  1.1872 -0.0354 -1.2902
 7109TIP3    H242963   6.426   3.018   8.756  0.0635 -0.7259  1.4061
 7110TIP3   OH242964   4.280   4.985   7.318 -0.1979 -0.4238  0.2990
 7110TIP3    H142965   4.224   5.059   7.295  1.6290  0.7148 -0.7779
 7110TIP3    H242966   4.220   4.916   7.345 -2.0905  0.7047 -0.8324
 7111TIP3   OH242967   6.299   0.308   7.199  0.3609 -0.5692  0.0607
 7111TIP3    H142968   6.342   0.226   7.174  0.7987 -0.1758 -0.4936
 7111TIP3    H242969   6.215   0.280   7.237  0.5111 -1.2748 -0.1087
 7112TIP3   OH242970   0.914   4.849   0.114  0.4008  0.5234  0.0811
 7112TIP3    H142971   0.978   4.907   0.075  0.0698  1.3669  0.7478
 7112TIP3    H242972   0.908   4.877   0.205 -0.4694  0.0767  0.1803
 7113TIP3   OH242973   1.114   5.291   8.646 -0.2588  0.0454  0.3401
 7113TIP3    H142974   1.208   5.276   8.654 -0.2347  0.8738  2.0701
 7113TIP3    H242975   1.107   5.365   8.585  0.4380  1.8386  2.3145
 7114TIP3   OH242976   5.587   2.412   0.353  0.1679 -0.2637  0.0119
 7114TIP3    H142977   5.563   2.343   0.291  1.2250 -0.0947 -0.6154
 7114TIP3    H242978   5.636   2.366   0.422  1.6583 -0.0441 -0.8664
 7115TIP3   OH242979   3.551   4.130   1.416  0.2418  0.1299 -0.1180
 7115TIP3    H142980   3.634   4.157   1.455 -0.3151  1.2900  0.3156
 7115TIP3    H242981   3.574   4.054   1.362  1.8744  1.3975 -1.3119
 7116TIP3   OH242982   3.417   1.006   6.907 -0.0826 -0.7280  0.2710
 7116TIP3    H142983   3.513   1.008   6.909 -0.0919  0.3221 -0.1989
 7116TIP3    H242984   3.396   0.952   6.831  0.1259 -0.4998  0.0534
 7117TIP3   OH242985   1.778   3.359   1.629  0.1239  0.1219  0.3349
 7117TIP3    H142986   1.766   3.454   1.629 -0.9730  0.0145  1.7035
 7117TIP3    H242987   1.764   3.333   1.719  1.3486 -1.2604  0.1575
 7118TIP3   OH242988   5.201   5.317   7.635 -0.2729 -0.5407 -0.2250
 7118TIP3    H142989   5.126   5.267   7.601  2.2730 -4.8844 -0.2610
 7118TIP3    H242990   5.254   5.337   7.558  0.4410 -1.0653  0.1106
 7119TIP3   OH242991   5.730   3.705   1.275  0.1005  0.0083  0.1276
 7119TIP3    H142992   5.714   3.615   1.301 -0.8279  0.0731 -0.1921
 7119TIP3    H242993   5.706   3.757   1.352 -1.2263  0.0995 -0.3228
 7120TIP3   OH242994   5.259   2.433   7.198  0.0510  0.3547 -0.5391
 7120TIP3    H142995   5.331   2.434   7.261  0.1893  0.5319 -0.6986
 7120TIP3    H242996   5.216   2.348   7.212  0.6727 -0.0199 -0.8723
 7121TIP3   OH242997   6.025   0.886   1.898 -0.1286 -0.2238  0.3153
 7121TIP3    H142998   5.938   0.846   1.893  0.0435 -0.4730 -1.1632
 7121TIP3    H242999   6.069   0.839   1.969 -1.2694  0.0644  1.2364
 7122TIP3   OH243000   2.898   4.772   7.218  0.7824 -0.4972 -0.5197
 7122TIP3    H143001   2.955   4.802   7.288 -2.4905  0.3477  2.0645
 7122TIP3    H243002   2.850   4.698   7.256 -1.4627  0.2959 -1.6264
 7123TIP3   OH243003   2.636   0.254   8.156  0.2033 -0.2185 -0.4271
 7123TIP3    H143004   2.620   0.285   8.245 -0.0675  1.7377 -1.1219
 7123TIP3    H243005   2.552   0.218   8.128  0.0536 -0.0411 -0.2094
 7124TIP3   OH243006   4.536   3.027   8.149  0.0195 -0.0478  0.9968
 7124TIP3    H143007   4.475   3.001   8.080  0.4937  1.3837 -0.0042
 7124TIP3    H243008   4.592   2.951   8.163 -0.2614 -0.4430  0.0017
 7125TIP3   OH243009   0.944   0.460   7.284  0.1431  0.4536  0.5909
 7125TIP3    H143010   0.978   0.444   7.372  0.1070  0.5164  0.6163
 7125TIP3    H243011   0.949   0.375   7.241  1.2744  0.6721  0.2681
 7126TIP3   OH243012   4.019   5.000   7.448  0.8474  0.2999  0.1516
 7126TIP3    H143013   4.067   4.940   7.505 -1.1782 -0.3584  1.2532
 7126TIP3    H243014   3.971   5.057   7.509 -2.1960 -1.0751 -0.7720
 7127TIP3   OH243015   5.627   3.142   1.526  0.0836  0.2771  0.3082
 7127TIP3    H143016   5.654   3.057   1.561 -0.0119  0.6966  1.4410
 7127TIP3    H243017   5.535   3.130   1.503 -0.1012  0.2417  1.0512
 7128TIP3   OH243018   1.189   2.547   0.766 -0.5533 -0.5987 -0.2474
 7128TIP3    H143019   1.141   2.574   0.688  0.7690 -1.8510 -1.5247
 7128TIP3    H243020   1.121   2.512   0.824 -1.8129  1.9494 -0.0147
 7129TIP3   OH243021   3.143   2.289   1.917  0.8800 -0.1443  0.3930
 7129TIP3    H143022   3.121   2.252   2.003  0.6761  2.5247  1.5939
 7129TIP3    H243023   3.204   2.360   1.937  0.2305  1.0498 -1.5980
 7130TIP3   OH243024   5.486   5.695   8.424 -0.1386  0.2667  0.8022
 7130TIP3    H143025   5.570   5.674   8.385 -0.2679  0.5480  0.3646
 7130TIP3    H243026   5.462   5.617   8.474 -0.1821 -0.2642 -0.0361
 7131TIP3   OH243027   3.962   3.053   7.328  0.9752  0.4697  0.1733
 7131TIP3    H143028   4.035   3.095   7.282 -0.2749  2.1207 -0.3966
 7131TIP3    H243029   3.935   2.982   7.271 -0.0771  2.0287 -1.3512
 7132TIP3   OH243030   5.722   3.607   2.051 -0.2148 -0.0994  0.2530
 7132TIP3    H143031   5.767   3.691   2.057 -1.1637  0.4263  0.2260
 7132TIP3    H243032   5.753   3.557   2.126 -0.4760  0.6875  0.8876
 7133TIP3   OH243033   1.320   3.624   1.052  0.0527  0.1670 -0.0864
 7133TIP3    H143034   1.274   3.645   0.971 -0.8791  1.5677  0.7528
 7133TIP3    H243035   1.354   3.708   1.083 -1.2173  0.0188  1.9070
 7134TIP3   OH243036   6.480   3.304   7.537  0.3374 -0.2151  0.2671
 7134TIP3    H143037   6.558   3.304   7.482  0.5114 -0.4208  0.5148
 7134TIP3    H243038   6.450   3.213   7.537  0.5044 -0.2719  0.7459
 7135TIP3   OH243039   3.470   1.134   1.854 -0.5374  0.2167  0.1333
 7135TIP3    H143040   3.467   1.097   1.943  0.0920  0.0699  0.1029
 7135TIP3    H243041   3.555   1.105   1.820 -0.2573  1.2504 -0.0843
 7136TIP3   OH243042   2.864   3.225   8.415 -0.1427 -0.0220  0.2394
 7136TIP3    H143043   2.853   3.138   8.454  2.1732 -0.0248  1.0113
 7136TIP3    H243044   2.878   3.283   8.491 -0.4001  0.8132 -0.3392
 7137TIP3   OH243045   0.638   3.836   7.581 -0.6535  0.0766 -0.1886
 7137TIP3    H143046   0.722   3.875   7.604  0.2494 -0.9168 -1.6916
 7137TIP3    H243047   0.573   3.896   7.618  0.6979  1.0627  0.6606
 7138TIP3   OH243048   6.283   2.269   1.644  0.5862 -0.4386 -0.3850
 7138TIP3    H143049   6.295   2.239   1.734  0.4986  0.9248  0.1043
 7138TIP3    H243050   6.189   2.264   1.629  0.5452 -0.1623 -0.2162
 7139TIP3   OH243051   5.743   5.332   1.720 -0.5312 -0.2618 -0.3422
 7139TIP3    H143052   5.815   5.393   1.736  0.1207 -0.7542 -1.3149
 7139TIP3    H243053   5.748   5.270   1.793 -0.2037 -0.0769 -0.2033
 7140TIP3   OH243054   4.156   3.233   8.248 -0.6037  0.1800  0.2132
 7140TIP3    H143055   4.203   3.316   8.258  1.2439 -0.8891  1.0471
 7140TIP3    H243056   4.182   3.182   8.325 -2.1872 -0.9603  0.0340
 7141TIP3   OH243057   0.929   3.557   0.492 -0.5380  0.0432  0.2939
 7141TIP3    H143058   0.997   3.558   0.560 -0.7263 -0.6815  0.4961
 7141TIP3    H243059   0.898   3.648   0.489 -0.7394  0.0312  1.4019
 7142TIP3   OH243060   6.406   2.717   6.888 -0.2227 -0.1864  0.7907
 7142TIP3    H143061   6.462   2.764   6.825 -1.4847  2.0130  1.2062
 7142TIP3    H243062   6.457   2.639   6.910  1.8976  0.8065 -0.1873
 7143TIP3   OH243063   3.223   2.763   8.409  0.2566 -0.2434 -0.1164
 7143TIP3    H143064   3.304   2.797   8.446 -0.9780  1.9150  0.8186
 7143TIP3    H243065   3.174   2.729   8.484  0.2992 -1.6123 -0.6766
 7144TIP3   OH243066   6.671   2.793   8.036  0.4967 -0.5297  0.2012
 7144TIP3    H143067   6.607   2.758   8.098  0.9598 -0.1539  0.9121
 7144TIP3    H243068   6.647   2.886   8.027 -1.0489 -1.0790 -2.0790
 7145TIP3   OH243069   5.378   2.329   1.285 -0.2739 -0.3270 -0.5635
 7145TIP3    H143070   5.352   2.421   1.286 -1.1248 -0.5239  1.4322
 7145TIP3    H243071   5.469   2.330   1.254 -0.2663  1.1813 -0.5889
 7146TIP3   OH243072   2.863   5.355   2.285  0.5501  0.1871  0.2541
 7146TIP3    H143073   2.820   5.433   2.322 -0.7556  0.2111 -1.1922
 7146TIP3    H243074   2.852   5.288   2.353 -1.2893  0.3754  0.2057
 7147TIP3   OH243075   4.715   5.127   1.359 -0.3114  0.2916 -0.0088
 7147TIP3    H143076   4.783   5.191   1.340 -0.2396  0.2769  0.2078
 7147TIP3    H243077   4.687   5.096   1.272  1.1211 -0.9440 -0.0671
 7148TIP3   OH243078   6.772   4.668   6.830 -0.2059 -0.3645  0.0709
 7148TIP3    H143079   6.861   4.634   6.817  0.0131 -0.3146  1.3420
 7148TIP3    H243080   6.716   4.590   6.826 -0.1899 -0.3299 -1.2996
 7149TIP3   OH243081   6.110   2.669   7.896 -0.3191 -0.6219 -0.3453
 7149TIP3    H143082   6.202   2.695   7.883 -1.0736  1.7513 -1.4371
 7149TIP3    H243083   6.105   2.582   7.855  1.7782 -1.6056  1.2642
 7150TIP3   OH243084   3.372   0.330   0.629  1.1543  0.2577 -0.4748
 7150TIP3    H143085   3.411   0.365   0.549  1.4791  0.8578 -0.0581
 7150TIP3    H243086   3.438   0.271   0.666  0.7076 -0.6283 -1.0393
 7151TIP3   OH243087   2.263   3.804   0.651  0.0231  0.0538 -0.1134
 7151TIP3    H143088   2.211   3.854   0.713  0.4319  1.7172 -1.0499
 7151TIP3    H243089   2.347   3.850   0.648  0.4179 -0.6991 -1.0006
 7152TIP3   OH243090   0.994   5.382   8.077 -0.1647 -0.3581  0.7885
 7152TIP3    H143091   0.975   5.443   8.006  0.8355 -2.0463 -1.0401
 7152TIP3    H243092   0.908   5.353   8.108 -0.6219  0.6015  0.4362
 7153TIP3   OH243093   0.384   6.114   7.240  0.0408 -0.7749  0.6010
 7153TIP3    H143094   0.402   6.079   7.327  0.9803  0.2099  0.8188
 7153TIP3    H243095   0.440   6.062   7.182  2.1716  0.8773  1.0337
 7154TIP3   OH243096   2.330   4.635   0.790  0.5619 -0.2377  0.0322
 7154TIP3    H143097   2.413   4.614   0.748 -0.9086 -1.7918 -2.3506
 7154TIP3    H243098   2.313   4.726   0.767  0.9017 -0.3756 -0.8129
 7155TIP3   OH243099   3.656   2.398   0.312 -0.4309  0.0005 -0.0221
 7155TIP3    H143100   3.704   2.411   0.230 -0.2389 -0.8365 -0.0501
 7155TIP3    H243101   3.639   2.487   0.344 -0.4024  0.3370 -0.9039
 7156TIP3   OH243102   0.543   4.561   2.373 -0.4210  0.4579 -0.2318
 7156TIP3    H143103   0.524   4.468   2.386  0.7898  0.3012  0.6637
 7156TIP3    H243104   0.505   4.604   2.450  0.1369  0.5182  0.0211
 7157TIP3   OH243105   2.356   4.731   1.423 -0.3950  0.0817  0.6595
 7157TIP3    H143106   2.293   4.722   1.494 -0.7318  0.9623  0.4823
 7157TIP3    H243107   2.343   4.820   1.390  0.4556  0.0323  0.1589
 7158TIP3   OH243108   2.450   3.488   1.404 -0.5657  0.7896 -0.2568
 7158TIP3    H143109   2.439   3.482   1.499  2.1406  4.1774  0.4653
 7158TIP3    H243110   2.489   3.404   1.379  0.5036  0.5418  1.9902
 7159TIP3   OH243111   0.056   1.340   0.046 -0.2723 -0.5436 -0.0748
 7159TIP3    H143112  -0.030   1.327   0.006 -0.5665 -1.2743  0.7607
 7159TIP3    H243113   0.093   1.252   0.053 -0.0635 -0.3937  0.8817
 7160TIP3   OH243114   2.421   6.585   0.539  0.4739 -0.2564  0.0081
 7160TIP3    H143115   2.398   6.666   0.493 -0.7333 -0.6847 -0.1818
 7160TIP3    H243116   2.339   6.558   0.581  0.6258 -1.8118 -0.6195
 7161TIP3   OH243117   5.006   0.704   6.693  0.0307 -0.1183  0.4067
 7161TIP3    H143118   4.987   0.772   6.757 -0.3794  1.7732 -1.6375
 7161TIP3    H243119   4.930   0.646   6.696 -0.0525  0.0249  1.4774
 7162TIP3   OH243120   2.516   6.143   0.166  0.0517 -0.1754 -0.0503
 7162TIP3    H143121   2.508   6.099   0.082  1.3365  1.5223 -1.1233
 7162TIP3    H243122   2.560   6.079   0.223  0.4723 -0.8396 -1.1069
 7163TIP3   OH243123   5.101   6.041   7.893  0.0488  0.9263 -0.2310
 7163TIP3    H143124   5.196   6.038   7.882 -0.0667 -0.1920 -1.0242
 7163TIP3    H243125   5.069   6.092   7.818 -0.0252  0.8415 -0.2574
 7164TIP3   OH243126   0.206   6.144   2.345 -0.3012  0.2957  0.7278
 7164TIP3    H143127   0.220   6.051   2.326  0.3750  0.3289  1.0410
 7164TIP3    H243128   0.154   6.145   2.426  2.0040  0.1845  2.2893
 7165TIP3   OH243129   2.546   6.356   8.790 -0.2842  0.5573 -0.5804
 7165TIP3    H143130   2.599   6.289   8.748 -0.4442  0.0556 -0.0075
 7165TIP3    H243131   2.531   6.322   8.878 -1.0763  0.9504 -0.5539
 7166TIP3   OH243132   1.148   2.793   7.090  0.5789  0.9576  0.0503
 7166TIP3    H143133   1.108   2.746   7.017 -0.9123 -1.4371  2.2493
 7166TIP3    H243134   1.096   2.873   7.099 -1.1179 -0.1318  0.2768
 7167TIP3   OH243135   4.240   0.509   0.594  0.1144  0.5045  0.4529
 7167TIP3    H143136   4.314   0.509   0.534  1.3589  1.5406  1.9012
 7167TIP3    H243137   4.270   0.561   0.669 -1.6929  0.0388  1.5642
 7168TIP3   OH243138   0.751   6.446   1.572  0.1980 -0.2322  0.6468
 7168TIP3    H143139   0.841   6.435   1.541  1.3856 -0.6272  3.8508
 7168TIP3    H243140   0.759   6.496   1.653 -2.6396  0.8174  0.4167
 7169TIP3   OH243141   3.077   6.776   0.829  0.0209 -0.3827 -0.1278
 7169TIP3    H143142   3.015   6.817   0.768 -0.9734 -0.9379  0.4824
 7169TIP3    H243143   3.092   6.843   0.896 -1.7928 -1.0351  0.9998
 7170TIP3   OH243144   6.269   5.212   2.074 -0.1138 -0.2516 -0.2791
 7170TIP3    H143145   6.295   5.228   1.983 -2.6183  0.3110 -0.9845
 7170TIP3    H243146   6.175   5.232   2.075  0.0155  0.5599  2.6530
 7171TIP3   OH243147   6.377   1.127   8.809 -0.7302 -0.0155  0.1985
 7171TIP3    H143148   6.425   1.046   8.787  0.4647  0.7848 -0.2564
 7171TIP3    H243149   6.314   1.137   8.738 -1.0059 -0.6394  0.3477
 7172TIP3   OH243150   3.427   3.646   7.434  0.3103  0.5040 -0.0674
 7172TIP3    H143151   3.397   3.697   7.509  1.5531 -0.5346  1.2018
 7172TIP3    H243152   3.514   3.680   7.414  0.0542  0.6662 -0.9530
 7173TIP3   OH243153   0.915   0.492   1.469 -0.0444 -0.0358  0.2098
 7173TIP3    H143154   0.980   0.544   1.516 -0.3514 -0.7204  1.4355
 7173TIP3    H243155   0.917   0.526   1.380  1.7329  0.2181  0.3018
 7174TIP3   OH243156   1.724   1.491   8.038  0.4710  0.2132 -0.2803
 7174TIP3    H143157   1.741   1.423   7.973 -0.7814 -1.2541  0.8263
 7174TIP3    H243158   1.802   1.546   8.037  1.3172 -0.9450 -1.5914
 7175TIP3   OH243159   2.735   6.471   2.329  0.7934 -0.0573 -0.2696
 7175TIP3    H143160   2.785   6.392   2.350 -1.4996 -1.0899  1.8053
 7175TIP3    H243161   2.671   6.478   2.399 -1.3376  1.7343 -2.2502
 7176TIP3   OH243162   4.976   5.259   8.082  0.4611  0.3002 -0.6761
 7176TIP3    H143163   4.904   5.198   8.063 -1.5019  1.3499  2.5438
 7176TIP3    H243164   4.947   5.342   8.044  1.2752  0.1311 -1.6826
 7177TIP3   OH243165   2.249   4.495   6.802 -0.0934  0.0019 -0.6030
 7177TIP3    H143166   2.300   4.524   6.878  0.2692  1.1820 -1.2660
 7177TIP3    H243167   2.238   4.574   6.749 -1.7507 -0.4386 -0.9885
 7178TIP3   OH243168   1.012   4.912   1.582 -0.0243 -0.1511 -0.0074
 7178TIP3    H143169   0.924   4.898   1.548 -1.2636  2.3365  1.8890
 7178TIP3    H243170   1.045   4.824   1.599 -1.4635 -1.2144 -2.2472
 7179TIP3   OH243171   0.458   5.120   7.677  0.1720  0.0108  0.3035
 7179TIP3    H143172   0.490   5.042   7.721  1.2510 -0.0135 -0.4640
 7179TIP3    H243173   0.471   5.102   7.584  0.9139  1.2752  0.1264
 7180TIP3   OH243174   6.779   0.742   0.962  0.8599 -0.0525 -0.0490
 7180TIP3    H143175   6.816   0.670   1.014 -1.6833 -0.0739  1.9231
 7180TIP3    H243176   6.762   0.703   0.876 -0.3836 -1.8644  0.9418
 7181TIP3   OH243177   4.697   3.779   2.194  0.1350  0.1434  0.0721
 7181TIP3    H143178   4.627   3.832   2.232 -1.6053 -1.4641 -0.6849
 7181TIP3    H243179   4.775   3.801   2.245 -0.7459  2.4674  0.5635
 7182TIP3   OH243180   0.954   2.903   0.408 -0.4662 -0.0073 -0.9443
 7182TIP3    H143181   0.974   2.876   0.318 -0.6618 -2.7286 -0.2480
 7182TIP3    H243182   0.859   2.894   0.415 -0.3539 -0.6373 -0.2110
 7183LIG      O43183   2.007   1.938   7.234  0.5817 -0.1834  0.5909
 7183LIG     C143184   2.067   1.909   7.351 -0.4826  0.5416  0.4124
 7183LIG     C243185   1.956   1.848   7.441 -0.0089  0.1698  0.0805
 7183LIG     C343186   2.166   1.801   7.311 -0.3135  0.2865 -0.0124
 7183LIG     H143187   2.118   1.994   7.401  2.3874 -1.2429  0.7436
 7183LIG     H243188   1.877   1.922   7.465  1.1152  0.5711  2.9715
 7183LIG     H343189   1.993   1.817   7.541 -0.6526  2.3189  1.0394
 7183LIG     H443190   1.901   1.762   7.398 -0.8910  1.6201 -1.8237
 7183LIG     H543191   2.108   1.732   7.246  0.2076 -1.1309  0.9694
 7183LIG     H643192   2.222   1.746   7.390  0.3446 -0.1389 -0.7715
 7183LIG     H743193   2.238   1.852   7.244 -0.4385  2.3589  1.3174
 7183LIG     H843194   1.966   2.023   7.255  0.5389  0.9422 -3.1661
   6.86209   6.86209   8.81128
