Title
82332
    1SAPS     N    1   6.694   0.985  11.217 -0.3789 -0.4390  0.5749
    1SAPS   HN1    2   6.702   0.903  11.281  0.6359 -0.1881  0.7949
    1SAPS   HN2    3   6.654   1.065  11.270  0.0805 -0.8186  1.5205
    1SAPS   HN3    4   6.638   0.957  11.135  0.7984  0.0409 -0.4204
    1SAPS   C12    5   6.828   1.029  11.180  0.1531 -0.0318 -0.7927
    1SAPS  H12A    6   6.815   1.083  11.087 -0.1884  0.8019 -0.2745
    1SAPS   C13    7   6.893   1.121  11.277  0.2447 -0.7305 -0.0027
    1SAPS  O13A    8   6.821   1.175  11.361  0.1898 -0.2027  0.5693
    1SAPS  O13B    9   6.997   1.179  11.238 -0.8550  0.1239  0.6457
    1SAPS   C11   10   6.923   0.902  11.154  0.0520  0.4674  0.0697
    1SAPS  H11A   11   6.927   0.855  11.255  0.9859 -1.5427 -0.8574
    1SAPS  H11B   12   7.027   0.926  11.127  0.3898  0.6236  1.4226
    1SAPS     P   13   6.931   0.653  11.037  0.0856 -0.1676 -0.2608
    1SAPS   O13   14   7.060   0.623  11.105 -0.2353  0.1595 -0.7840
    1SAPS   O14   15   6.822   0.549  11.047  0.3239  0.0305 -0.5425
    1SAPS   O12   16   6.871   0.809  11.055 -0.6748 -0.6075 -0.2739
    1SAPS   O11   17   6.981   0.657  10.891  0.5682 -0.0423 -0.2911
    1SAPS    C1   18   6.999   0.779  10.818 -0.0269  0.1290  0.0837
    1SAPS    HA   19   7.034   0.863  10.881 -0.1887  0.2029  0.0753
    1SAPS    HB   20   7.069   0.771  10.732 -1.8747  0.1497 -1.4777
    1SAPS    C2   21   6.860   0.814  10.760  0.0522 -0.6655  0.3832
    1SAPS    HS   22   6.789   0.827  10.845  0.0418 -0.9482  0.4192
    1SAPS   O21   23   6.817   0.715  10.668 -0.3052 -0.8009  0.5694
    1SAPS   C21   24   6.688   0.696  10.653  0.0334  0.4393  0.0407
    1SAPS   O22   25   6.606   0.754  10.719 -0.5369  0.2656 -0.5369
    1SAPS   C22   26   6.661   0.596  10.537  0.3161 -0.1100  0.1146
    1SAPS   H2R   27   6.733   0.621  10.456  0.8889  0.2340  0.7189
    1SAPS   H2S   28   6.681   0.492  10.569  0.7765 -0.6821 -1.8523
    1SAPS    C3   29   6.861   0.956  10.701 -0.6173  0.2674  0.2200
    1SAPS    HX   30   6.883   1.019  10.790  2.6791 -0.5924  0.1395
    1SAPS    HY   31   6.763   0.980  10.654 -1.2657 -0.4021  1.2099
    1SAPS   O31   32   6.956   0.976  10.597 -0.1912 -0.3732 -0.7360
    1SAPS   C31   33   6.989   1.104  10.567  0.5530 -0.7456 -1.0616
    1SAPS   O32   34   6.934   1.207  10.611 -0.7728  0.3086  0.1354
    1SAPS   C32   35   7.112   1.107  10.476  0.2620 -0.3736  0.2147
    1SAPS   H2X   36   7.096   1.041  10.388 -0.7207 -0.5960  0.5462
    1SAPS   H2Y   37   7.204   1.085  10.534 -0.9825 -0.5245  2.2411
    1SAPS   C23   38   6.523   0.620  10.469  0.2876  0.2110  0.0556
    1SAPS   H3R   39   6.507   0.723  10.431 -0.0246  0.4701  0.8782
    1SAPS   H3S   40   6.443   0.608  10.545  0.4802 -1.4510  0.0424
    1SAPS   C24   41   6.523   0.536  10.341  0.6607 -0.2843  0.3414
    1SAPS   H4R   42   6.611   0.560  10.278 -0.2443 -0.0545 -0.8780
    1SAPS   H4S   43   6.434   0.555  10.277  0.3576  1.2333  1.1660
    1SAPS   C25   44   6.527   0.389  10.385 -0.5422  0.0927 -0.0598
    1SAPS   H5R   45   6.470   0.366  10.476 -0.3258 -0.5450 -0.0807
    1SAPS   C26   46   6.594   0.287  10.334  0.7699  0.6782  0.0390
    1SAPS   H6R   47   6.563   0.187  10.369 -0.3451  0.7118 -0.8084
    1SAPS   C27   48   6.683   0.285  10.207  0.8737  0.4240 -0.0664
    1SAPS   H7R   49   6.703   0.180  10.180 -1.5103 -0.0050 -0.4241
    1SAPS   H7S   50   6.787   0.319  10.224  1.4473 -1.0761 -0.4879
    1SAPS   C28   51   6.626   0.339  10.078  0.2948  0.7866 -0.1179
    1SAPS   H8R   52   6.525   0.298  10.063  2.0963 -4.5944  0.2438
    1SAPS   C29   53   6.680   0.423   9.992  0.9160 -0.1632  0.2629
    1SAPS   H9R   54   6.622   0.451   9.903 -1.1089 -0.2653  1.4806
    1SAPS  C210   55   6.819   0.473   9.998 -0.1105 -0.0778 -0.0902
    1SAPS  H10R   56   6.868   0.457  10.097  0.9267  1.1592 -0.3725
    1SAPS  H10S   57   6.822   0.584   9.994  0.0671  0.0755  2.3403
    1SAPS  C211   58   6.929   0.412   9.903  0.3015 -0.1678 -0.4224
    1SAPS  H11R   59   6.935   0.303   9.914  1.6896  0.0967  2.2640
    1SAPS  C212   60   7.005   0.474   9.816 -0.5270  0.0333  0.0343
    1SAPS  H12R   61   7.091   0.421   9.772  1.7783  1.2342  2.7340
    1SAPS  C213   62   7.006   0.620   9.788 -0.4039 -0.6817  0.1457
    1SAPS  H13R   63   7.010   0.671   9.887 -0.2091  2.4282 -1.3527
    1SAPS  H13S   64   6.907   0.638   9.740 -0.0688  0.0502 -0.2835
    1SAPS  C214   65   7.122   0.660   9.692  0.7796 -0.4806  0.1209
    1SAPS  H14R   66   7.217   0.684   9.741  0.8086  1.9427 -0.9743
    1SAPS  C215   67   7.112   0.659   9.556 -0.0043  0.2735 -0.1098
    1SAPS  H15R   68   7.192   0.704   9.495 -1.2324  0.7697 -1.3969
    1SAPS  C216   69   7.000   0.612   9.472  0.7275 -0.0181  0.4870
    1SAPS  H16R   70   6.940   0.690   9.421 -0.1942 -1.6268 -1.0159
    1SAPS  H16S   71   6.919   0.582   9.541  0.6536 -0.6426  0.1408
    1SAPS  C217   72   7.038   0.505   9.369 -0.3325 -0.4181  0.6257
    1SAPS  H17R   73   7.119   0.537   9.300 -0.1741  1.3754  1.5724
    1SAPS  H17S   74   6.952   0.471   9.308  1.1979 -0.4963 -1.6038
    1SAPS  C218   75   7.093   0.377   9.431 -0.1839  0.2198 -0.5823
    1SAPS  H18R   76   7.024   0.350   9.514 -0.5861  1.3631 -0.5359
    1SAPS  H18S   77   7.193   0.405   9.472  0.3635  0.3742 -1.9891
    1SAPS  C219   78   7.087   0.244   9.344 -0.2879  0.5241  0.2545
    1SAPS  H19R   79   6.980   0.232   9.318 -0.0026 -0.2444 -0.6539
    1SAPS  H19S   80   7.126   0.160   9.405 -3.4363 -0.5465  0.9268
    1SAPS  C220   81   7.160   0.241   9.206  0.5715 -0.8509 -0.5603
    1SAPS  H20R   82   7.140   0.339   9.158 -1.2799 -0.5071  0.7523
    1SAPS  H20S   83   7.111   0.167   9.139 -1.1718 -0.0828 -0.2023
    1SAPS  H20T   84   7.269   0.225   9.221  0.5772  0.3834  1.0352
    1SAPS   C33   85   7.150   1.251  10.412  1.0089  0.2496 -0.5507
    1SAPS   H3X   86   7.225   1.236  10.331 -1.6500 -2.1552 -2.7922
    1SAPS   H3Y   87   7.200   1.317  10.486  1.4560 -0.2994 -0.3558
    1SAPS   C34   88   7.029   1.328  10.352 -0.7734  0.7142 -0.0200
    1SAPS   H4X   89   7.085   1.413  10.307  0.0548  0.3433  0.2821
    1SAPS   H4Y   90   6.962   1.357  10.436 -0.3035 -1.1961  1.0904
    1SAPS   C35   91   6.955   1.258  10.243  0.4957  0.2668 -0.0256
    1SAPS   H5X   92   6.850   1.296  10.234  0.2723  1.0673  4.0604
    1SAPS   H5Y   93   6.943   1.154  10.279  0.6616  0.2673  0.0280
    1SAPS   C36   94   7.024   1.247  10.101 -0.5833  0.3182  0.5124
    1SAPS   H6X   95   7.126   1.205  10.118  0.1497  1.7187 -0.2261
    1SAPS   H6Y   96   7.047   1.347  10.058  1.7755  0.3506  1.6589
    1SAPS   C37   97   6.952   1.155  10.002 -0.0342  0.4546  0.4004
    1SAPS   H7X   98   6.846   1.189   9.996 -0.2367  0.4323  3.0665
    1SAPS   H7Y   99   6.945   1.049  10.033 -1.3753 -0.1465 -1.7342
    1SAPS   C38  100   7.011   1.173   9.858  0.0801  0.1703 -0.1203
    1SAPS   H8X  101   7.121   1.162   9.858 -0.1166 -2.7011  0.9572
    1SAPS   H8Y  102   6.994   1.280   9.834  0.8005  0.4323  0.5177
    1SAPS   C39  103   6.944   1.088   9.754 -0.1555  0.5794  0.0146
    1SAPS   H9X  104   6.835   1.107   9.755 -0.4360 -0.6356  2.7397
    1SAPS   H9Y  105   6.960   0.979   9.766  1.9742  0.9381  0.9280
    1SAPS  C310  106   6.987   1.132   9.618 -0.3994 -0.5197  0.1837
    1SAPS  H10X  107   7.097   1.149   9.622 -0.3356 -1.0349  0.8595
    1SAPS  H10Y  108   6.934   1.226   9.594 -1.0211 -0.9080  0.0141
    1SAPS  C311  109   6.956   1.033   9.505 -0.1534 -0.1784  0.2823
    1SAPS  H11X  110   6.854   0.991   9.516  0.2696 -1.1139  0.7952
    1SAPS  H11Y  111   7.023   0.944   9.508 -3.1093 -2.7938 -2.9435
    1SAPS  C312  112   6.976   1.092   9.368 -0.2389 -0.8238  0.2578
    1SAPS  H12X  113   7.074   1.144   9.359 -0.4919 -0.4463 -0.4152
    1SAPS  H12Y  114   6.893   1.166   9.372 -0.5171 -1.2034  3.6677
    1SAPS  C313  115   6.962   1.009   9.244 -0.1822 -0.2410 -0.1470
    1SAPS  H13X  116   6.866   0.954   9.250 -1.3936  1.6417 -1.2957
    1SAPS  H13Y  117   7.040   0.931   9.253 -0.7492 -0.6495  1.7710
    1SAPS  C314  118   6.975   1.084   9.110  0.0948 -0.9020  0.2502
    1SAPS  H14X  119   7.071   1.140   9.116  0.1176 -0.4097 -2.9922
    1SAPS  H14Y  120   6.902   1.167   9.106  0.7860 -0.2994 -0.3145
    1SAPS  C315  121   6.965   1.000   8.980 -0.4480 -0.0059  0.7194
    1SAPS  H15X  122   6.954   1.073   8.897 -1.8313 -1.8493 -0.8117
    1SAPS  H15Y  123   6.864   0.954   8.987 -1.5730  2.4646  2.0096
    1SAPS  C316  124   7.074   0.899   8.949 -0.3319  0.1164 -0.7567
    1SAPS  H16X  125   7.065   0.848   8.850 -0.3944  0.0962 -0.7399
    1SAPS  H16Y  126   7.077   0.826   9.033 -1.1170  3.4751  2.4208
    1SAPS  C317  127   7.222   0.957   8.939  0.1461 -0.7420  0.0104
    1SAPS  H17X  128   7.247   1.042   9.006  0.3814 -0.8711  0.0856
    1SAPS  H17Y  129   7.230   1.004   8.839  1.0465 -1.3667 -0.2185
    1SAPS  C318  130   7.325   0.847   8.954  0.1965  0.3258 -0.3349
    1SAPS  H18X  131   7.271   0.753   8.929  0.3371  0.8069 -2.6876
    1SAPS  H18Y  132   7.371   0.843   9.055 -1.0578  0.0730  0.2534
    1SAPS  H18Z  133   7.401   0.866   8.875  0.1868  2.5598  0.1275
    2SAPS     N  134   0.302   2.473  10.940  0.2702 -0.1218 -0.2201
    2SAPS   HN1  135   0.294   2.539  11.020 -1.0852 -2.3178  1.5850
    2SAPS   HN2  136   0.394   2.425  10.935  0.7402  0.8983 -2.1728
    2SAPS   HN3  137   0.285   2.531  10.856  0.8310  0.8295  0.2952
    2SAPS   C12  138   0.192   2.362  10.937 -0.0629 -0.4690  0.0677
    2SAPS  H12A  139   0.236   2.284  10.877 -0.2565 -1.0832  0.7184
    2SAPS   C13  140   0.143   2.314  11.070  0.0163 -0.6613 -0.3183
    2SAPS  O13A  141   0.205   2.352  11.179 -0.2385  0.8024  0.7755
    2SAPS  O13B  142   0.050   2.229  11.076  0.4980 -0.1098  0.1026
    2SAPS   C11  143   0.065   2.419  10.871  0.2192 -0.3464  0.9572
    2SAPS  H11A  144   0.025   2.507  10.926 -0.0533  0.9170 -1.1544
    2SAPS  H11B  145  -0.021   2.350  10.867  0.7600 -0.9964 -1.7302
    2SAPS     P  146   0.007   2.453  10.617  0.2173 -0.0344 -0.0015
    2SAPS   O13  147  -0.134   2.492  10.658  0.2403  0.1547 -0.6345
    2SAPS   O14  148   0.073   2.537  10.511  0.5807  0.2474 -0.2106
    2SAPS   O12  149   0.104   2.451  10.740  0.3304  0.5534  0.3789
    2SAPS   O11  150   0.012   2.305  10.555 -0.0472  0.2028  0.1279
    2SAPS    C1  151   0.134   2.249  10.510  0.3674  0.0531  0.5399
    2SAPS    HA  152   0.224   2.312  10.525  1.1125 -1.0178  0.6991
    2SAPS    HB  153   0.156   2.163  10.578 -0.1229 -0.4889  0.0292
    2SAPS    C2  154   0.122   2.203  10.363 -0.0459 -0.5772  0.1467
    2SAPS    HS  155   0.218   2.149  10.350 -0.1247 -0.4593 -0.9873
    2SAPS   O21  156   0.121   2.316  10.276  0.0099  0.2557 -0.7146
    2SAPS   C21  157   0.227   2.395  10.269  0.1487 -0.1163  0.0454
    2SAPS   O22  158   0.337   2.375  10.318 -0.1868  0.5325  0.4290
    2SAPS   C22  159   0.190   2.503  10.164 -0.3395 -0.1064  0.4675
    2SAPS   H2R  160   0.096   2.545  10.205 -0.2417 -0.7714  1.4021
    2SAPS   H2S  161   0.267   2.583  10.173  2.1174 -2.4878  2.8874
    2SAPS    C3  162  -0.006   2.124  10.336 -0.3991 -0.9262 -0.5673
    2SAPS    HX  163  -0.092   2.190  10.359 -0.1933 -0.7366 -0.3271
    2SAPS    HY  164  -0.019   2.037  10.405 -3.5052 -0.4678 -0.4267
    2SAPS   O31  165  -0.011   2.083  10.197 -0.4946  0.1130  0.6850
    2SAPS   C31  166   0.026   1.956  10.170 -0.2307 -0.2563  0.4592
    2SAPS   O32  167   0.074   1.879  10.247  0.0691  0.2640 -0.1044
    2SAPS   C32  168  -0.031   1.922  10.026  0.1575 -0.3273 -0.0091
    2SAPS   H2X  169   0.019   1.829   9.993  0.5014 -0.3886  0.6682
    2SAPS   H2Y  170   0.010   2.002   9.961 -0.7545 -1.4415 -2.0556
    2SAPS   C23  171   0.168   2.454  10.019  0.3175 -0.4146 -0.3497
    2SAPS   H3R  172   0.108   2.530   9.965  0.0152 -0.3935  0.0106
    2SAPS   H3S  173   0.107   2.361  10.026  2.9277 -2.2287 -0.0212
    2SAPS   C24  174   0.300   2.418   9.959  0.1374 -0.6434  0.3786
    2SAPS   H4R  175   0.334   2.324  10.009 -0.1309  0.1060  2.0387
    2SAPS   H4S  176   0.370   2.501   9.981  2.0014 -1.6570 -1.3312
    2SAPS   C25  177   0.303   2.417   9.811 -0.4474 -0.3235 -0.4883
    2SAPS   H5R  178   0.321   2.515   9.763  2.1427 -0.6803 -0.3777
    2SAPS   C26  179   0.320   2.313   9.731  0.9048 -0.5833  0.1979
    2SAPS   H6R  180   0.301   2.329   9.624  0.6333  1.2196  0.4908
    2SAPS   C27  181   0.335   2.167   9.757  0.1977  0.2040 -0.6719
    2SAPS   H7R  182   0.355   2.156   9.866 -0.8374 -1.8276 -0.6282
    2SAPS   H7S  183   0.430   2.136   9.709  1.2429  1.8053  0.2762
    2SAPS   C28  184   0.223   2.072   9.718  0.1199 -0.1128  0.3478
    2SAPS   H8R  185   0.193   2.008   9.803 -0.7303  0.7921  0.7590
    2SAPS   C29  186   0.165   2.054   9.592  0.0414  0.2579 -0.3234
    2SAPS   H9R  187   0.076   1.990   9.588  0.7838 -0.8267 -0.2076
    2SAPS  C210  188   0.210   2.128   9.470 -0.4906 -0.1500  0.3325
    2SAPS  H10R  189   0.321   2.124   9.460 -0.5657 -0.9558 -0.3043
    2SAPS  H10S  190   0.180   2.235   9.471  1.5732  0.5338 -1.3301
    2SAPS  C211  191   0.151   2.063   9.342  0.1504  0.1545 -1.0070
    2SAPS  H11R  192   0.066   2.119   9.299 -0.6593  1.3691  1.9301
    2SAPS  C212  193   0.198   1.956   9.276  0.3889  0.6015  0.2673
    2SAPS  H12R  194   0.146   1.912   9.190  3.1862 -0.6941 -0.8835
    2SAPS  C213  195   0.315   1.863   9.311  0.4293  1.0298 -0.9608
    2SAPS  H13R  196   0.403   1.892   9.249  0.1715 -0.8438 -2.2710
    2SAPS  H13S  197   0.288   1.760   9.279 -1.0898  1.3325 -0.7138
    2SAPS  C214  198   0.357   1.835   9.456  0.3024 -0.2794  0.4125
    2SAPS  H14R  199   0.272   1.803   9.518  0.8151 -0.8593  0.8338
    2SAPS  C215  200   0.485   1.834   9.509  0.3858  0.2266  0.4383
    2SAPS  H15R  201   0.516   1.804   9.610 -0.4115 -1.0902  0.3136
    2SAPS  C216  202   0.613   1.870   9.435  0.0934  0.0817  0.5698
    2SAPS  H16R  203   0.649   1.969   9.471  0.9587  0.6490 -1.6600
    2SAPS  H16S  204   0.591   1.875   9.326 -0.9103  2.8221  0.8171
    2SAPS  C217  205   0.732   1.779   9.433 -0.8605 -0.2109  0.3716
    2SAPS  H17R  206   0.774   1.781   9.536  0.6616  0.1310 -0.2367
    2SAPS  H17S  207   0.806   1.808   9.356 -1.0980 -3.2520 -1.1273
    2SAPS  C218  208   0.696   1.628   9.400 -0.1522 -0.2602  0.0641
    2SAPS  H18R  209   0.692   1.598   9.293 -0.6163  1.0520 -0.3108
    2SAPS  H18S  210   0.605   1.598   9.456  0.2416 -0.1939  0.7533
    2SAPS  C219  211   0.804   1.538   9.474  0.3239  0.4442  0.0359
    2SAPS  H19R  212   0.808   1.557   9.583 -0.4371 -0.4983  0.2440
    2SAPS  H19S  213   0.897   1.569   9.422  1.1186 -0.3315  0.9647
    2SAPS  C220  214   0.788   1.389   9.451 -0.6195 -0.1578  0.0540
    2SAPS  H20R  215   0.814   1.363   9.346 -0.0474 -1.2511  0.4523
    2SAPS  H20S  216   0.686   1.352   9.475 -1.0585  1.6363  1.1747
    2SAPS  H20T  217   0.858   1.341   9.522  2.4027  1.5710 -1.5648
    2SAPS   C33  218  -0.192   1.915  10.022 -0.7517  0.5257 -0.4276
    2SAPS   H3X  219  -0.237   1.993  10.087 -3.0107 -0.2380 -0.9923
    2SAPS   H3Y  220  -0.215   1.819  10.072 -0.0225 -0.2433 -1.5257
    2SAPS   C34  221  -0.245   1.919   9.875  0.1191  0.1021 -0.3241
    2SAPS   H4X  222  -0.242   2.026   9.843 -1.2988  0.6471  1.1723
    2SAPS   H4Y  223  -0.351   1.887   9.881  0.5438 -1.4923 -0.8844
    2SAPS   C35  224  -0.182   1.809   9.789 -0.3549 -0.2515 -0.3933
    2SAPS   H5X  225  -0.198   1.717   9.849 -1.9739 -0.5898 -1.2999
    2SAPS   H5Y  226  -0.072   1.823   9.779 -0.3903 -0.6805 -1.5186
    2SAPS   C36  227  -0.250   1.792   9.660 -0.5619  0.6929 -0.0879
    2SAPS   H6X  228  -0.360   1.795   9.674 -0.4044  1.1480  1.2658
    2SAPS   H6Y  229  -0.234   1.692   9.615  1.8543  0.3631  1.3300
    2SAPS   C37  230  -0.221   1.893   9.539 -0.1187  0.3750 -0.1140
    2SAPS   H7X  231  -0.114   1.919   9.527  0.4071 -2.1924 -1.8302
    2SAPS   H7Y  232  -0.288   1.977   9.567  0.1912  0.7786 -0.5671
    2SAPS   C38  233  -0.276   1.846   9.398 -0.3986  0.0723  0.0814
    2SAPS   H8X  234  -0.275   1.932   9.327  1.1592  0.3960  0.4546
    2SAPS   H8Y  235  -0.382   1.817   9.416 -0.7070  1.4359  0.6471
    2SAPS   C39  236  -0.206   1.722   9.344 -0.5403  0.1913  0.2159
    2SAPS   H9X  237  -0.241   1.641   9.411 -1.8496  0.2802 -0.3179
    2SAPS   H9Y  238  -0.098   1.719   9.369 -0.1675 -0.7054 -1.3310
    2SAPS  C310  239  -0.225   1.690   9.195 -0.5528 -0.4989  0.5128
    2SAPS  H10X  240  -0.184   1.592   9.163  2.2915  1.1237 -1.2300
    2SAPS  H10Y  241  -0.168   1.762   9.133  0.1043 -1.8096 -0.4634
    2SAPS  C311  242  -0.370   1.692   9.137  0.5756  0.5901 -0.5901
    2SAPS  H11X  243  -0.415   1.789   9.165  1.3833  0.3927  1.5404
    2SAPS  H11Y  244  -0.431   1.615   9.188  0.1803  1.6734  0.5961
    2SAPS  C312  245  -0.382   1.674   8.980 -0.0027  0.3773  0.2001
    2SAPS  H12X  246  -0.457   1.748   8.944 -0.7460 -1.0637 -1.3821
    2SAPS  H12Y  247  -0.423   1.576   8.945  0.1105  0.7192 -0.9268
    2SAPS  C313  248  -0.259   1.715   8.900 -0.3562 -0.0348 -0.5497
    2SAPS  H13X  249  -0.174   1.647   8.925 -0.6690 -0.1220  0.3220
    2SAPS  H13Y  250  -0.227   1.811   8.945  0.0132 -0.5995  0.4373
    2SAPS  C314  251  -0.279   1.719   8.745 -0.0713 -0.4023  0.0236
    2SAPS  H14X  252  -0.351   1.793   8.705 -1.4518 -1.5846  0.2406
    2SAPS  H14Y  253  -0.342   1.629   8.729  0.2396 -1.0890  2.2556
    2SAPS  C315  254  -0.147   1.727   8.668 -0.1356 -0.1149  0.0000
    2SAPS  H15X  255  -0.086   1.635   8.686 -2.4425 -1.5948  0.7062
    2SAPS  H15Y  256  -0.080   1.811   8.695 -0.0473 -0.1956  0.0360
    2SAPS  C316  257  -0.153   1.734   8.506 -0.2911  0.0679 -0.0085
    2SAPS  H16X  258  -0.183   1.634   8.468 -1.1702  1.5455 -3.5969
    2SAPS  H16Y  259  -0.047   1.751   8.478  0.0708 -0.0196  1.2574
    2SAPS  C317  260  -0.237   1.853   8.456 -0.0446 -0.5866  0.2429
    2SAPS  H17X  261  -0.204   1.946   8.509  1.8027 -1.6819  1.1090
    2SAPS  H17Y  262  -0.344   1.831   8.474 -0.4974  0.6533 -0.7591
    2SAPS  C318  263  -0.216   1.876   8.304  0.2802 -0.4689 -0.0102
    2SAPS  H18X  264  -0.113   1.911   8.284 -0.3269  1.1413 -0.4216
    2SAPS  H18Y  265  -0.289   1.951   8.265  0.0940  0.1671  1.4950
    2SAPS  H18Z  266  -0.239   1.787   8.241  0.3493  0.7176 -1.7713
    3SAPS     N  267   5.454   4.344  11.277  0.1370  0.0089 -0.1195
    3SAPS   HN1  268   5.548   4.308  11.253  0.0349  0.5885 -1.5021
    3SAPS   HN2  269   5.456   4.441  11.240 -1.8349  0.2017  0.1666
    3SAPS   HN3  270   5.444   4.371  11.377  1.9183  1.6844 -0.3355
    3SAPS   C12  271   5.338   4.268  11.231 -0.1719 -0.5996 -0.6801
    3SAPS  H12A  272   5.342   4.171  11.279  0.9618  1.4141  3.8486
    3SAPS   C13  273   5.203   4.330  11.288 -0.6824  0.6760 -0.2402
    3SAPS  O13A  274   5.210   4.444  11.330  0.3448  0.4753  0.1249
    3SAPS  O13B  275   5.096   4.270  11.268  0.0035  0.0116  0.3194
    3SAPS   C11  276   5.331   4.264  11.077 -0.2084  0.2165 -0.0077
    3SAPS  H11A  277   5.318   4.371  11.051 -0.9805 -0.0221 -0.6574
    3SAPS  H11B  278   5.244   4.211  11.034  0.9280 -1.0113 -0.9025
    3SAPS     P  279   5.466   4.062  10.989  0.0790 -0.4056  0.2606
    3SAPS   O13  280   5.588   4.037  10.910 -0.2364 -0.5421  0.0376
    3SAPS   O14  281   5.447   3.986  11.116  0.3965 -0.3432  0.0269
    3SAPS   O12  282   5.459   4.217  11.020 -0.0781 -0.5117 -0.4864
    3SAPS   O11  283   5.338   4.039  10.905  0.3926  0.0200 -0.1546
    3SAPS    C1  284   5.333   3.907  10.845 -0.2080  0.2655 -0.1672
    3SAPS    HA  285   5.397   3.832  10.895 -2.1526 -0.6102  1.1227
    3SAPS    HB  286   5.231   3.864  10.835 -0.2824  0.9225 -3.4761
    3SAPS    C2  287   5.378   3.901  10.694  0.1020 -0.1096  0.8198
    3SAPS    HS  288   5.484   3.933  10.695 -0.1521  0.8572 -0.4555
    3SAPS   O21  289   5.296   3.988  10.607  0.1714 -0.2466  0.0975
    3SAPS   C21  290   5.366   4.061  10.522 -0.0887 -0.2091  1.3410
    3SAPS   O22  291   5.487   4.055  10.515  0.4900  0.2974  0.0399
    3SAPS   C22  292   5.276   4.154  10.440 -0.1024  0.4651  0.5643
    3SAPS   H2R  293   5.194   4.165  10.513 -0.5891 -2.6416  0.6358
    3SAPS   H2S  294   5.324   4.254  10.436  0.6745  0.0807 -0.1972
    3SAPS    C3  295   5.379   3.753  10.631  0.1375 -0.5967  0.0878
    3SAPS    HX  296   5.279   3.710  10.654 -0.1594 -0.2281 -0.4766
    3SAPS    HY  297   5.464   3.700  10.679  1.6545  0.4781 -1.3045
    3SAPS   O31  298   5.394   3.744  10.489  0.1791  0.1025  0.7084
    3SAPS   C31  299   5.515   3.751  10.433  0.5013 -0.9345  0.3817
    3SAPS   O32  300   5.620   3.779  10.490 -0.4974  0.1284  0.2069
    3SAPS   C32  301   5.486   3.729  10.282  0.3416 -0.0014  0.8265
    3SAPS   H2X  302   5.395   3.789  10.261  0.2551 -0.7190 -1.0166
    3SAPS   H2Y  303   5.458   3.622  10.273  0.5464  0.1382 -2.7500
    3SAPS   C23  304   5.246   4.103  10.300  0.7790 -0.2702 -0.8628
    3SAPS   H3R  305   5.169   4.024  10.300  0.1031  0.3772 -1.5037
    3SAPS   H3S  306   5.332   4.051  10.252 -0.0620 -1.2237 -1.3917
    3SAPS   C24  307   5.175   4.210  10.218 -0.6224  0.8253  0.2609
    3SAPS   H4R  308   5.110   4.274  10.282 -0.5563 -0.7761  2.0062
    3SAPS   H4S  309   5.118   4.160  10.137  1.5333 -0.2554 -0.6846
    3SAPS   C25  310   5.275   4.298  10.137 -0.1085  1.0216  0.2357
    3SAPS   H5R  311   5.356   4.324  10.207 -1.2446  2.2170  1.1771
    3SAPS   C26  312   5.285   4.314  10.003 -0.1312  0.0396  1.1996
    3SAPS   H6R  313   5.373   4.374   9.976  0.6013 -1.3503  0.4058
    3SAPS   C27  314   5.195   4.267   9.885 -0.1315  0.2614  0.9531
    3SAPS   H7R  315   5.128   4.350   9.854 -0.3493 -0.3217 -0.1881
    3SAPS   H7S  316   5.142   4.176   9.921 -0.4215  0.7167  1.6944
    3SAPS   C28  317   5.267   4.226   9.761  0.5110  0.4456  0.2739
    3SAPS   H8R  318   5.355   4.167   9.789 -0.0423 -0.7085 -0.3583
    3SAPS   C29  319   5.234   4.230   9.628 -0.4862 -1.6865 -0.2422
    3SAPS   H9R  320   5.301   4.171   9.564  4.6237  2.0343  1.0190
    3SAPS  C210  321   5.109   4.291   9.562  0.4026 -0.6191  0.2290
    3SAPS  H10R  322   5.136   4.363   9.481  1.5914 -1.8531 -0.5192
    3SAPS  H10S  323   5.055   4.356   9.634 -1.0206  1.2429 -2.3521
    3SAPS  C211  324   5.018   4.186   9.505  0.2733 -0.1523 -0.1035
    3SAPS  H11R  325   4.963   4.124   9.576  2.3531 -2.0774 -0.0894
    3SAPS  C212  326   5.005   4.149   9.376 -0.1873  0.4500 -0.6860
    3SAPS  H12R  327   4.950   4.056   9.356  1.7196 -0.3955 -2.4915
    3SAPS  C213  328   5.090   4.204   9.264  0.9732  1.3206 -0.1859
    3SAPS  H13R  329   5.175   4.266   9.298 -0.6401  2.9175  1.0935
    3SAPS  H13S  330   5.022   4.268   9.204 -3.1329 -1.3776  1.1935
    3SAPS  C214  331   5.126   4.100   9.164  0.7293  0.0722  0.1890
    3SAPS  H14R  332   5.057   4.017   9.141  0.7740  0.2659 -0.7118
    3SAPS  C215  333   5.241   4.107   9.093  0.4983 -1.1930  0.0814
    3SAPS  H15R  334   5.279   4.021   9.037  0.2599 -1.1928 -0.0823
    3SAPS  C216  335   5.337   4.219   9.106 -0.5075  0.6791  0.3029
    3SAPS  H16R  336   5.415   4.186   9.178 -0.9568  1.6386  1.2551
    3SAPS  H16S  337   5.307   4.320   9.142 -0.6715  1.2814 -1.4015
    3SAPS  C217  338   5.399   4.234   8.966 -0.7007  0.6796 -0.0632
    3SAPS  H17R  339   5.309   4.270   8.911 -0.0014  3.0063  0.1941
    3SAPS  H17S  340   5.432   4.142   8.913  0.3924  0.2158  1.3582
    3SAPS  C218  341   5.490   4.353   8.955  0.2079  0.5975  0.2690
    3SAPS  H18R  342   5.592   4.312   8.974 -0.6138 -1.2613  0.9959
    3SAPS  H18S  343   5.473   4.429   9.035  1.9217  1.4899 -0.1542
    3SAPS  C219  344   5.487   4.433   8.824  0.2310  0.3233 -0.0309
    3SAPS  H19R  345   5.387   4.448   8.778  0.3091  3.2967  0.5365
    3SAPS  H19S  346   5.550   4.377   8.752 -0.2534 -1.3659  0.8086
    3SAPS  C220  347   5.557   4.570   8.841  0.6459 -0.0504 -0.6288
    3SAPS  H20R  348   5.562   4.619   8.742 -1.4339  2.6663  0.4882
    3SAPS  H20S  349   5.661   4.567   8.879  1.1669 -2.7973 -1.9768
    3SAPS  H20T  350   5.506   4.641   8.909  0.8573  0.2219 -0.7569
    3SAPS   C33  351   5.590   3.756  10.175  0.6841  0.2715 -0.1896
    3SAPS   H3X  352   5.676   3.687  10.184 -0.5101 -1.1332  1.0698
    3SAPS   H3Y  353   5.635   3.857  10.187 -1.6999  1.6739 -1.8910
    3SAPS   C34  354   5.519   3.752  10.043  0.2526 -0.8144 -0.7010
    3SAPS   H4X  355   5.447   3.837  10.051 -0.2890 -1.3683  0.5016
    3SAPS   H4Y  356   5.450   3.666  10.031  0.2566 -1.3123  2.2239
    3SAPS   C35  357   5.615   3.770   9.925 -0.2041 -0.9789 -0.1756
    3SAPS   H5X  358   5.671   3.674   9.914 -0.5878 -1.0714 -1.4908
    3SAPS   H5Y  359   5.693   3.848   9.938 -1.2228  0.6780 -3.0858
    3SAPS   C36  360   5.539   3.808   9.797  0.3249  0.2256  0.6031
    3SAPS   H6X  361   5.482   3.902   9.815  0.3543 -0.0792  2.5076
    3SAPS   H6Y  362   5.467   3.723   9.801  1.8382 -1.0368  2.3333
    3SAPS   C37  363   5.637   3.815   9.679  0.5018 -0.0393  0.9103
    3SAPS   H7X  364   5.687   3.715   9.682 -1.3069 -0.9655  1.5336
    3SAPS   H7Y  365   5.712   3.895   9.697  0.6163 -0.4103  2.2169
    3SAPS   C38  366   5.562   3.847   9.550  0.0713 -0.0761  0.2086
    3SAPS   H8X  367   5.522   3.950   9.561 -0.4028 -0.2326 -0.0085
    3SAPS   H8Y  368   5.482   3.771   9.536  0.9624 -0.9009 -0.5765
    3SAPS   C39  369   5.662   3.847   9.429  0.0034  0.8304  0.4541
    3SAPS   H9X  370   5.701   3.744   9.418 -0.3897  0.9133 -2.4231
    3SAPS   H9Y  371   5.736   3.927   9.450  0.8504 -0.4911  2.8762
    3SAPS  C310  372   5.600   3.877   9.295 -0.3568 -0.8469  0.4255
    3SAPS  H10X  373   5.553   3.978   9.294 -1.4936 -1.3580 -1.2288
    3SAPS  H10Y  374   5.519   3.803   9.281 -3.9445  2.0805  3.6064
    3SAPS  C311  375   5.698   3.880   9.174  0.2054 -0.1233 -0.3380
    3SAPS  H11X  376   5.745   3.780   9.176 -1.1146 -0.7879  1.8793
    3SAPS  H11Y  377   5.783   3.947   9.199 -0.5140 -0.0987  2.4405
    3SAPS  C312  378   5.630   3.888   9.037 -0.9742  0.0533  0.0432
    3SAPS  H12X  379   5.565   3.976   9.019 -2.5435 -1.4752 -2.3224
    3SAPS  H12Y  380   5.557   3.805   9.028 -1.7654  0.7657 -0.1430
    3SAPS  C313  381   5.741   3.878   8.932  0.6054 -0.1411 -0.3538
    3SAPS  H13X  382   5.829   3.816   8.959  1.2004  0.5412 -0.6724
    3SAPS  H13Y  383   5.786   3.974   8.898  1.5205 -1.4473 -3.1011
    3SAPS  C314  384   5.680   3.825   8.803 -0.1311 -0.1766  0.3286
    3SAPS  H14X  385   5.626   3.901   8.743 -0.4857  0.3870  1.3352
    3SAPS  H14Y  386   5.596   3.759   8.833 -0.0003  0.6463  2.7646
    3SAPS  C315  387   5.782   3.736   8.729  0.0180  0.4166 -0.3603
    3SAPS  H15X  388   5.722   3.670   8.663  1.8737 -1.1985 -0.5185
    3SAPS  H15Y  389   5.843   3.675   8.798 -0.6228 -1.5250 -1.4166
    3SAPS  C316  390   5.873   3.831   8.641 -0.3780  0.2016  0.6664
    3SAPS  H16X  391   5.942   3.899   8.696  2.3641 -0.0926 -2.1432
    3SAPS  H16Y  392   5.811   3.897   8.578 -1.3780 -0.2043  1.2031
    3SAPS  C317  393   5.964   3.741   8.554  0.8293 -0.0775  0.3124
    3SAPS  H17X  394   5.914   3.684   8.473  1.4790 -0.4572  0.1647
    3SAPS  H17Y  395   5.998   3.661   8.623  2.3847 -0.9556 -1.3667
    3SAPS  C318  396   6.074   3.820   8.491  0.2416 -0.6592 -0.4161
    3SAPS  H18X  397   6.155   3.754   8.452  1.0752 -1.1595  2.0079
    3SAPS  H18Y  398   6.125   3.871   8.575  0.0500 -0.5906 -0.3409
    3SAPS  H18Z  399   6.045   3.896   8.415 -0.0969 -1.5472 -1.1888
    4SAPS     N  400   1.035   3.918  10.623  0.0352  0.4022 -0.1116
    4SAPS   HN1  401   1.118   3.861  10.595  0.5910  1.3404 -0.4028
    4SAPS   HN2  402   1.018   3.911  10.726  0.2244 -0.3882 -0.1254
    4SAPS   HN3  403   0.952   3.873  10.581  0.6690 -0.0961 -0.8564
    4SAPS   C12  404   1.062   4.057  10.578  0.2362 -0.1823  0.2218
    4SAPS  H12A  405   1.075   4.045  10.472  0.1057  0.6112  0.1127
    4SAPS   C13  406   0.943   4.149  10.600 -0.0458  0.0080  0.6175
    4SAPS  O13A  407   0.821   4.105  10.619 -0.5163 -0.4579 -0.6583
    4SAPS  O13B  408   0.963   4.272  10.584 -0.2391 -0.0697  0.4684
    4SAPS   C11  409   1.188   4.107  10.648 -0.4376 -0.8276  0.1031
    4SAPS  H11A  410   1.164   4.114  10.756 -1.1529  1.2555 -0.1315
    4SAPS  H11B  411   1.206   4.206  10.600  0.1120 -0.2369  1.4607
    4SAPS     P  412   1.431   4.070  10.559  0.2490  0.0100 -0.2228
    4SAPS   O13  413   1.448   4.212  10.592  0.2172 -0.4003 -0.0386
    4SAPS   O14  414   1.549   3.987  10.578  0.1240  0.5591 -0.1622
    4SAPS   O12  415   1.298   4.019  10.628  0.0409  0.1338 -0.6792
    4SAPS   O11  416   1.383   4.063  10.415 -0.5316  0.2145  0.1412
    4SAPS    C1  417   1.339   3.951  10.339 -0.6841  0.4533  0.0878
    4SAPS    HA  418   1.254   3.896  10.385 -0.6377  0.9061  0.7193
    4SAPS    HB  419   1.297   3.992  10.244  0.2260  0.0101 -0.5238
    4SAPS    C2  420   1.455   3.850  10.299 -0.0645 -0.4543  0.0499
    4SAPS    HS  421   1.473   3.797  10.395  0.1475  1.3815  1.0802
    4SAPS   O21  422   1.575   3.913  10.236  0.6454  0.4583 -0.0561
    4SAPS   C21  423   1.686   3.844  10.250  0.5705 -0.4073  0.4000
    4SAPS   O22  424   1.693   3.736  10.303  0.0324  0.3142  0.0847
    4SAPS   C22  425   1.800   3.917  10.183 -0.6859 -0.1072 -0.5881
    4SAPS   H2R  426   1.869   3.950  10.264 -0.8692  2.0194 -1.2369
    4SAPS   H2S  427   1.863   3.845  10.125 -1.1353 -0.8168 -0.2058
    4SAPS    C3  428   1.394   3.741  10.207  0.0219  0.2573 -0.5153
    4SAPS    HX  429   1.313   3.690  10.263  0.8573 -0.6824 -0.1310
    4SAPS    HY  430   1.478   3.670  10.187  0.3917  0.8178 -0.9891
    4SAPS   O31  431   1.337   3.788  10.092  0.2014 -0.5583  0.7814
    4SAPS   C31  432   1.370   3.750   9.969 -0.7217 -1.3819  0.5591
    4SAPS   O32  433   1.456   3.663   9.949  0.8369  0.8175 -0.2753
    4SAPS   C32  434   1.309   3.838   9.860 -0.0812  0.3625  0.4449
    4SAPS   H2X  435   1.330   3.946   9.879  1.8241  0.2746 -0.9141
    4SAPS   H2Y  436   1.198   3.828   9.860 -0.3889  2.0664  4.0405
    4SAPS   C23  437   1.750   4.030  10.084 -0.0563  0.9878  0.0356
    4SAPS   H3R  438   1.838   4.089  10.051  1.1441 -0.3249  0.7491
    4SAPS   H3S  439   1.671   4.089  10.136 -0.9461 -0.7470  0.7486
    4SAPS   C24  440   1.690   3.982   9.953 -0.3994 -0.7893 -0.1646
    4SAPS   H4R  441   1.652   4.074   9.905  0.7208  0.7386  1.7591
    4SAPS   H4S  442   1.601   3.918   9.971 -0.6244 -0.7559 -1.1070
    4SAPS   C25  443   1.790   3.914   9.858  0.7536 -0.0178  0.3381
    4SAPS   H5R  444   1.833   3.817   9.887  0.0162 -0.6323 -0.5623
    4SAPS   C26  445   1.825   3.967   9.740  0.2688  0.5827  0.7271
    4SAPS   H6R  446   1.888   3.905   9.675 -1.6016  0.1219 -0.7432
    4SAPS   C27  447   1.783   4.104   9.682 -0.4557  0.7327  0.7764
    4SAPS   H7R  448   1.775   4.170   9.772  0.1801  0.1465  1.2709
    4SAPS   H7S  449   1.685   4.113   9.631 -1.2553  0.1023  2.1407
    4SAPS   C28  450   1.882   4.169   9.594 -1.1123  0.0317  0.4540
    4SAPS   H8R  451   1.967   4.206   9.652 -0.8182  0.6642 -0.3561
    4SAPS   C29  452   1.879   4.183   9.461 -0.1379  0.1631  0.1936
    4SAPS   H9R  453   1.967   4.221   9.407 -1.1775  0.7392 -1.1480
    4SAPS  C210  454   1.786   4.124   9.360 -0.2896 -0.1904 -0.3784
    4SAPS  H10R  455   1.748   4.036   9.416  0.8494  0.4755  1.5327
    4SAPS  H10S  456   1.840   4.104   9.265  0.2979  0.7094 -0.2437
    4SAPS  C211  457   1.667   4.208   9.335 -0.0227  0.0348  0.0482
    4SAPS  H11R  458   1.677   4.312   9.369 -1.7351  0.3906 -0.4270
    4SAPS  C212  459   1.563   4.182   9.245 -0.1259 -0.9482 -0.7523
    4SAPS  H12R  460   1.495   4.265   9.220  2.8141  1.7673 -0.4516
    4SAPS  C213  461   1.537   4.063   9.160 -1.5986 -0.3677 -0.5664
    4SAPS  H13R  462   1.430   4.033   9.153 -1.4880 -0.9876  0.1885
    4SAPS  H13S  463   1.592   3.977   9.204 -0.6920 -0.8989 -2.6323
    4SAPS  C214  464   1.593   4.065   9.023  0.4165 -0.2359  0.6124
    4SAPS  H14R  465   1.607   4.167   8.982  0.9891 -1.5973 -3.0006
    4SAPS  C215  466   1.646   3.969   8.946 -0.0840  0.2309  0.4066
    4SAPS  H15R  467   1.686   3.997   8.847  0.9545 -1.5481  0.2883
    4SAPS  C216  468   1.660   3.826   8.972  0.3178 -0.1292  0.5430
    4SAPS  H16R  469   1.676   3.792   9.076  1.5338  0.2771  0.5074
    4SAPS  H16S  470   1.754   3.789   8.925 -0.8995 -0.8655 -1.4637
    4SAPS  C217  471   1.547   3.745   8.909 -0.4127  0.4494 -0.2325
    4SAPS  H17R  472   1.445   3.765   8.950 -0.4035  2.7786 -1.1843
    4SAPS  H17S  473   1.575   3.641   8.937 -1.2584  0.9898  3.1152
    4SAPS  C218  474   1.526   3.747   8.758  0.4505  0.0913  0.3975
    4SAPS  H18R  475   1.622   3.745   8.702 -0.2000 -2.6648 -0.8202
    4SAPS  H18S  476   1.474   3.840   8.726 -1.0045 -0.8908 -0.1939
    4SAPS  C219  477   1.439   3.637   8.705 -0.0064 -0.3416  0.1878
    4SAPS  H19R  478   1.335   3.656   8.741  0.3446  1.5377  0.2688
    4SAPS  H19S  479   1.479   3.545   8.754 -1.1056 -0.9382  0.0063
    4SAPS  C220  480   1.434   3.629   8.551 -0.1996 -0.3954 -0.1769
    4SAPS  H20R  481   1.377   3.539   8.521 -1.7279  0.5531 -0.1983
    4SAPS  H20S  482   1.535   3.642   8.507 -0.1324  1.2713  0.4150
    4SAPS  H20T  483   1.375   3.713   8.511  1.7398  0.8979 -0.4753
    4SAPS   C33  484   1.370   3.811   9.715  0.0570  0.5411 -0.3422
    4SAPS   H3X  485   1.369   3.702   9.694 -1.4795  0.4423  0.1069
    4SAPS   H3Y  486   1.476   3.846   9.716 -0.5246  2.3967 -0.0818
    4SAPS   C34  487   1.293   3.896   9.607 -0.3159 -0.3136 -0.6913
    4SAPS   H4X  488   1.359   3.897   9.517  0.7793 -1.1212  0.0743
    4SAPS   H4Y  489   1.288   4.002   9.638 -1.6895 -0.1288 -1.4613
    4SAPS   C35  490   1.157   3.830   9.578 -0.4545 -0.4371  0.4583
    4SAPS   H5X  491   1.089   3.842   9.664 -1.6367  2.5290 -0.7757
    4SAPS   H5Y  492   1.176   3.726   9.544 -0.9079 -1.4273  3.0294
    4SAPS   C36  493   1.077   3.888   9.457 -0.1507 -0.3124 -0.1338
    4SAPS   H6X  494   1.068   3.999   9.454  1.9197 -0.1212 -2.3825
    4SAPS   H6Y  495   0.971   3.859   9.469 -1.4148  4.0309  1.3619
    4SAPS   C37  496   1.146   3.841   9.330  0.1796 -0.2358 -0.3719
    4SAPS   H7X  497   1.130   3.733   9.314 -2.8855 -0.0997  1.0743
    4SAPS   H7Y  498   1.252   3.876   9.330  0.4863 -0.9593  1.9791
    4SAPS   C38  499   1.074   3.905   9.213 -0.1004 -0.3845  0.1011
    4SAPS   H8X  500   1.062   4.013   9.236  0.6523 -0.2534 -0.1087
    4SAPS   H8Y  501   0.974   3.858   9.228  0.6111 -1.0340  4.0043
    4SAPS   C39  502   1.133   3.884   9.076 -0.7489  0.4662  0.2064
    4SAPS   H9X  503   1.161   3.777   9.082 -1.2884  0.2363 -1.2356
    4SAPS   H9Y  504   1.221   3.952   9.067 -1.0568  0.6083 -2.3041
    4SAPS  C310  505   1.038   3.911   8.963  0.2759  0.0565  0.6774
    4SAPS  H10X  506   1.021   4.019   8.946 -0.6309 -0.4151 -1.8450
    4SAPS  H10Y  507   0.939   3.870   8.991 -0.1810  0.6922  0.0183
    4SAPS  C311  508   1.091   3.846   8.836 -0.4053 -0.4629 -0.2342
    4SAPS  H11X  509   1.090   3.735   8.843 -0.7498 -0.3991  0.7871
    4SAPS  H11Y  510   1.190   3.890   8.812 -0.2483 -1.0728 -0.7495
    4SAPS  C312  511   1.011   3.865   8.705  0.2666  0.0119  0.6333
    4SAPS  H12X  512   1.067   3.806   8.629  0.5583  0.4870  0.4767
    4SAPS  H12Y  513   1.010   3.971   8.670 -3.9437 -0.2931 -0.6835
    4SAPS  C313  514   0.868   3.825   8.723  0.2998 -0.1873  0.0276
    4SAPS  H13X  515   0.828   3.885   8.807  1.1815 -0.7865  0.9127
    4SAPS  H13Y  516   0.870   3.725   8.773 -2.7672  1.0491  3.0289
    4SAPS  C314  517   0.781   3.850   8.602 -0.2156  0.1142  0.2188
    4SAPS  H14X  518   0.817   3.779   8.525 -1.6823 -0.1518 -0.2668
    4SAPS  H14Y  519   0.808   3.949   8.560  2.4171 -0.3333  0.7161
    4SAPS  C315  520   0.628   3.818   8.612 -0.6994  0.4258 -0.5216
    4SAPS  H15X  521   0.583   3.874   8.697 -0.1062 -0.4223  0.3770
    4SAPS  H15Y  522   0.628   3.713   8.650  0.6271  0.3781 -0.6182
    4SAPS  C316  523   0.540   3.835   8.490  0.0545  0.3574 -0.0049
    4SAPS  H16X  524   0.440   3.803   8.525  0.6679 -2.2875 -0.4776
    4SAPS  H16Y  525   0.568   3.759   8.414 -0.5218  2.2347 -2.2065
    4SAPS  C317  526   0.547   3.975   8.435  0.1462 -0.2819  0.2138
    4SAPS  H17X  527   0.653   3.997   8.411  0.4069  1.0678  2.3521
    4SAPS  H17Y  528   0.509   4.056   8.502  0.9008  0.6895 -0.4985
    4SAPS  C318  529   0.483   3.990   8.296  0.5962  0.4882  0.3468
    4SAPS  H18X  530   0.474   4.095   8.260 -3.0025  0.2116  0.0829
    4SAPS  H18Y  531   0.378   3.957   8.304  0.8095  0.1849  2.1448
    4SAPS  H18Z  532   0.536   3.925   8.222 -1.3119  0.4584 -1.0665
    5SAPS     N  533   4.952   4.552  11.278 -0.4256  0.4089  0.2500
    5SAPS   HN1  534   5.036   4.492  11.293 -2.0785 -2.5061 -1.2191
    5SAPS   HN2  535   4.973   4.607  11.192 -0.7650 -0.7264 -0.5951
    5SAPS   HN3  536   4.921   4.612  11.356  0.1754  1.1428 -0.0628
    5SAPS   C12  537   4.839   4.457  11.239  0.2404  0.4482  0.0939
    5SAPS  H12A  538   4.854   4.357  11.276 -1.9688 -0.6800 -1.7523
    5SAPS   C13  539   4.702   4.494  11.293  0.1337 -0.7366  0.2214
    5SAPS  O13A  540   4.697   4.603  11.360 -0.1978 -0.3036 -0.9683
    5SAPS  O13B  541   4.590   4.434  11.275 -0.4206  0.4528  0.5661
    5SAPS   C11  542   4.836   4.447  11.080  0.1912  0.0593 -0.8502
    5SAPS  H11A  543   4.759   4.369  11.062  1.6995 -1.2353 -1.9826
    5SAPS  H11B  544   4.932   4.401  11.051  0.1311 -1.5796  1.2691
    5SAPS     P  545   4.783   4.575  10.852  0.1453 -0.4414  0.0020
    5SAPS   O13  546   4.641   4.542  10.848  0.2250  0.0304 -0.3032
    5SAPS   O14  547   4.824   4.709  10.806  0.6223  0.0630  0.0079
    5SAPS   O12  548   4.811   4.564  11.005 -0.7355 -0.1049 -0.5676
    5SAPS   O11  549   4.878   4.464  10.799 -0.0647  1.1153  0.4765
    5SAPS    C1  550   4.820   4.345  10.741 -0.1975 -0.2270  0.0357
    5SAPS    HA  551   4.822   4.260  10.812 -1.7750  0.5192  1.0199
    5SAPS    HB  552   4.710   4.357  10.728 -0.9487 -0.2073  4.7574
    5SAPS    C2  553   4.886   4.299  10.608 -0.0293  0.2653  0.8150
    5SAPS    HS  554   4.994   4.282  10.626 -0.4260 -1.4601  1.9243
    5SAPS   O21  555   4.864   4.393  10.500 -0.0012  0.8903  0.4479
    5SAPS   C21  556   4.940   4.499  10.493  0.0416 -0.1327 -0.1118
    5SAPS   O22  557   5.042   4.515  10.560 -0.9747  0.0507 -0.3627
    5SAPS   C22  558   4.866   4.607  10.424  0.2168  1.0594 -0.1323
    5SAPS   H2R  559   4.759   4.579  10.415  0.8576 -1.2796 -1.2203
    5SAPS   H2S  560   4.865   4.696  10.490  0.0093 -0.6486  2.2909
    5SAPS    C3  561   4.828   4.158  10.567  0.4418  0.0977  0.8821
    5SAPS    HX  562   4.722   4.173  10.597  0.8078  0.7020  1.9158
    5SAPS    HY  563   4.865   4.076  10.633 -3.4520 -2.4479  0.2184
    5SAPS   O31  564   4.858   4.127  10.424  0.4550  0.0025  0.1438
    5SAPS   C31  565   4.757   4.059  10.364 -0.3083 -0.0416 -0.3590
    5SAPS   O32  566   4.651   4.022  10.419 -0.2690  0.7346  0.7080
    5SAPS   C32  567   4.795   4.035  10.219 -0.7100 -0.1131  0.6067
    5SAPS   H2X  568   4.865   3.948  10.217  1.0941  1.2623  1.6289
    5SAPS   H2Y  569   4.842   4.131  10.190  0.2318 -0.3802  1.2142
    5SAPS   C23  570   4.936   4.652  10.290 -0.8795 -0.3756  0.1551
    5SAPS   H3R  571   5.042   4.685  10.301 -1.0274  0.7033 -1.2892
    5SAPS   H3S  572   4.886   4.742  10.249  3.5636  2.0040 -0.7479
    5SAPS   C24  573   4.928   4.548  10.174 -0.0138  0.2998 -0.5430
    5SAPS   H4R  574   4.994   4.474  10.225 -0.5518 -0.3747 -0.8165
    5SAPS   H4S  575   4.978   4.589  10.083  1.6902 -1.9972 -0.7419
    5SAPS   C25  576   4.786   4.500  10.145 -0.1726  0.3240  0.4371
    5SAPS   H5R  577   4.736   4.483  10.241 -1.4208  0.5248 -0.1595
    5SAPS   C26  578   4.724   4.478  10.031  0.3347  0.0315  0.3231
    5SAPS   H6R  579   4.625   4.432  10.040 -0.2739  1.2955  0.3329
    5SAPS   C27  580   4.768   4.491   9.888  0.7690 -0.2301  0.2280
    5SAPS   H7R  581   4.821   4.397   9.863  2.0321  0.9165 -1.6600
    5SAPS   H7S  582   4.836   4.579   9.886 -1.4039  1.5845  1.0399
    5SAPS   C28  583   4.655   4.501   9.786  0.1896 -0.1061  0.3880
    5SAPS   H8R  584   4.558   4.531   9.829  0.0307 -1.2992  0.9015
    5SAPS   C29  585   4.645   4.470   9.651 -0.4221  0.0016 -0.0944
    5SAPS   H9R  586   4.551   4.492   9.600 -0.3790 -0.0047 -0.1768
    5SAPS  C210  587   4.769   4.431   9.566  0.6984 -0.2517 -0.1596
    5SAPS  H10R  588   4.802   4.332   9.604 -0.7425 -0.8310 -0.3469
    5SAPS  H10S  589   4.858   4.497   9.576  0.5057 -0.0789  0.4195
    5SAPS  C211  590   4.754   4.418   9.418  0.2471  0.1798 -0.4390
    5SAPS  H11R  591   4.750   4.313   9.383  1.0978 -0.2733  0.7255
    5SAPS  C212  592   4.750   4.519   9.325 -0.7193 -0.1328 -0.4136
    5SAPS  H12R  593   4.734   4.492   9.220  2.0931  0.4371 -1.0724
    5SAPS  C213  594   4.757   4.664   9.361  0.2675  0.3722  0.2648
    5SAPS  H13R  595   4.670   4.693   9.425 -1.4114 -1.5180 -1.0331
    5SAPS  H13S  596   4.743   4.718   9.266 -0.4555 -0.1604  0.0597
    5SAPS  C214  597   4.880   4.728   9.420 -0.8199 -0.3746 -0.7699
    5SAPS  H14R  598   4.968   4.662   9.422 -1.1339 -0.8077 -1.0310
    5SAPS  C215  599   4.884   4.851   9.470  0.3910 -0.6017  0.2025
    5SAPS  H15R  600   4.977   4.889   9.512  1.4225 -0.3833 -2.1157
    5SAPS  C216  601   4.763   4.937   9.489 -0.9390 -0.0957  0.0674
    5SAPS  H16R  602   4.669   4.888   9.456 -1.1256 -0.0846  0.5750
    5SAPS  H16S  603   4.782   5.039   9.450  1.8223 -0.3436  0.5165
    5SAPS  C217  604   4.736   4.943   9.645 -0.5306 -0.5233 -0.3105
    5SAPS  H17R  605   4.712   4.839   9.676 -0.9628 -0.0867  0.8600
    5SAPS  H17S  606   4.638   4.996   9.651 -1.8468 -1.8492 -5.2010
    5SAPS  C218  607   4.833   5.010   9.740  0.2450  0.4417  0.3264
    5SAPS  H18R  608   4.937   5.016   9.703  0.1532 -2.0767 -0.5200
    5SAPS  H18S  609   4.812   5.118   9.756  0.6568  0.6469 -0.4561
    5SAPS  C219  610   4.831   4.950   9.876  0.6738 -0.1321 -0.1563
    5SAPS  H19R  611   4.904   4.866   9.876  0.8148 -0.0192  1.3281
    5SAPS  H19S  612   4.728   4.912   9.893  0.3213  1.1744  0.7350
    5SAPS  C220  613   4.857   5.051   9.990 -0.5060  0.0367 -0.6958
    5SAPS  H20R  614   4.767   5.107  10.022 -0.2239 -1.0209  2.2541
    5SAPS  H20S  615   4.943   5.117   9.963 -0.0764  0.7221  2.0844
    5SAPS  H20T  616   4.883   5.001  10.086  0.4614  1.6787 -0.0617
    5SAPS   C33  617   4.670   4.017  10.126 -0.1939 -0.0849 -0.1443
    5SAPS   H3X  618   4.596   4.099  10.145 -0.2272 -0.1706  0.0901
    5SAPS   H3Y  619   4.621   3.918  10.124 -1.8096  0.6710 -1.9274
    5SAPS   C34  620   4.713   4.054   9.978 -0.3396  0.4354 -0.4429
    5SAPS   H4X  621   4.816   4.017   9.962  0.4305  1.4413  1.7518
    5SAPS   H4Y  622   4.714   4.165   9.971 -1.7795  0.4343 -1.0263
    5SAPS   C35  623   4.614   4.014   9.867 -0.2401  0.4179 -0.7174
    5SAPS   H5X  624   4.507   4.035   9.890 -0.1238  1.0089 -0.6907
    5SAPS   H5Y  625   4.623   3.904   9.858 -0.3443  0.2948  0.5671
    5SAPS   C36  626   4.653   4.073   9.730  0.7495 -0.3179 -0.2637
    5SAPS   H6X  627   4.761   4.062   9.703  0.5083 -1.7878 -0.7360
    5SAPS   H6Y  628   4.631   4.182   9.733 -0.2233 -0.4176 -2.1790
    5SAPS   C37  629   4.570   3.996   9.619  0.1718  0.3579 -0.0532
    5SAPS   H7X  630   4.460   3.999   9.629 -0.0622  0.1211 -2.2412
    5SAPS   H7Y  631   4.603   3.890   9.624 -0.9147  0.0539  2.2559
    5SAPS   C38  632   4.594   4.041   9.466 -0.1502  0.9495  0.6850
    5SAPS   H8X  633   4.697   4.012   9.434  0.5328  0.7592  2.8791
    5SAPS   H8Y  634   4.569   4.149   9.469  1.2676  1.3100  0.5470
    5SAPS   C39  635   4.494   3.973   9.366 -0.0135  0.3733 -0.6675
    5SAPS   H9X  636   4.397   4.012   9.404  1.0080  2.1440  0.2772
    5SAPS   H9Y  637   4.498   3.862   9.371  1.9954  0.2113 -3.4101
    5SAPS  C310  638   4.504   4.025   9.222 -0.7246  0.3021 -0.3398
    5SAPS  H10X  639   4.474   4.131   9.215  2.6256  1.4637  1.0050
    5SAPS  H10Y  640   4.455   3.963   9.144  2.6534 -1.3724 -1.3565
    5SAPS  C311  641   4.649   4.034   9.167  0.2167  0.3551 -0.3002
    5SAPS  H11X  642   4.700   3.936   9.166  0.9839  0.6970  1.6403
    5SAPS  H11Y  643   4.712   4.098   9.232  1.0911 -0.6771 -0.0985
    5SAPS  C312  644   4.660   4.079   9.022 -0.0183 -0.0991  0.0303
    5SAPS  H12X  645   4.600   4.172   9.011  0.2520 -0.1162 -1.9919
    5SAPS  H12Y  646   4.620   3.995   8.962  0.4805 -0.6545  0.4675
    5SAPS  C313  647   4.800   4.116   8.976  0.4872 -0.5396  0.5668
    5SAPS  H13X  648   4.871   4.031   8.984  1.1514 -0.1791 -1.0388
    5SAPS  H13Y  649   4.832   4.197   9.044 -0.5585  1.2229 -0.9434
    5SAPS  C314  650   4.800   4.174   8.832 -0.8832  0.1289 -0.5744
    5SAPS  H14X  651   4.710   4.238   8.822  0.2978  1.5875 -2.4568
    5SAPS  H14Y  652   4.788   4.091   8.759  3.3534  0.8528 -2.3689
    5SAPS  C315  653   4.929   4.248   8.780  0.0237  0.3396  0.1197
    5SAPS  H15X  654   5.007   4.169   8.773  0.3694  0.8326 -2.7077
    5SAPS  H15Y  655   4.950   4.337   8.843  2.9338 -0.4430  0.3940
    5SAPS  C316  656   4.911   4.295   8.637 -0.2487  0.4229 -0.1754
    5SAPS  H16X  657   4.856   4.392   8.634  1.0561  1.1804 -0.1335
    5SAPS  H16Y  658   4.847   4.218   8.588  0.6439 -0.4009 -0.0824
    5SAPS  C317  659   5.044   4.302   8.565  0.2670  0.3934  0.4042
    5SAPS  H17X  660   5.044   4.351   8.465 -0.3745 -0.2251  0.0896
    5SAPS  H17Y  661   5.078   4.198   8.545  0.1983  0.3546  0.4866
    5SAPS  C318  662   5.165   4.363   8.643 -0.1028  0.3637 -0.4342
    5SAPS  H18X  663   5.124   4.450   8.698  1.8184  1.5658 -0.7969
    5SAPS  H18Y  664   5.248   4.398   8.578  0.1016 -0.7795 -0.8030
    5SAPS  H18Z  665   5.199   4.278   8.707 -1.4382 -0.2179 -0.4781
    6SAPS     N  666   4.963   2.082  10.570 -0.4044 -0.4054  0.3387
    6SAPS   HN1  667   4.890   2.067  10.496 -1.0376 -1.4905  1.1505
    6SAPS   HN2  668   5.054   2.098  10.522 -1.3974  1.0773 -1.1572
    6SAPS   HN3  669   4.970   1.991  10.621  0.7338 -1.1834 -1.1141
    6SAPS   C12  670   4.918   2.198  10.655  0.4623 -0.0848  0.0095
    6SAPS  H12A  671   4.896   2.282  10.591  0.9560 -0.6314 -0.8969
    6SAPS   C13  672   4.782   2.174  10.720 -0.4145 -0.7392  0.4828
    6SAPS  O13A  673   4.721   2.063  10.695  0.1311 -0.0130 -0.2987
    6SAPS  O13B  674   4.727   2.268  10.776 -0.3113 -0.0551 -0.5727
    6SAPS   C11  675   5.024   2.233  10.761  0.6844 -0.5262  1.2506
    6SAPS  H11A  676   5.043   2.153  10.836 -0.8021 -0.6773  1.4958
    6SAPS  H11B  677   4.979   2.318  10.817 -0.0465 -0.7436  1.0122
    6SAPS     P  678   5.285   2.250  10.756  0.4364 -0.3834 -0.0223
    6SAPS   O13  679   5.309   2.350  10.859  0.3818 -0.0717  0.0328
    6SAPS   O14  680   5.297   2.109  10.793 -0.0038 -0.1182 -0.1452
    6SAPS   O12  681   5.144   2.272  10.695  0.6095 -0.6486  0.2970
    6SAPS   O11  682   5.388   2.276  10.637 -0.7473 -0.8693 -0.7235
    6SAPS    C1  683   5.390   2.414  10.586  0.2307 -0.1270  0.0899
    6SAPS    HA  684   5.413   2.493  10.661 -0.6750 -1.0307  1.3625
    6SAPS    HB  685   5.478   2.415  10.519  0.0156 -1.3765 -0.2390
    6SAPS    C2  686   5.272   2.454  10.494 -0.6848 -0.0561  0.1465
    6SAPS    HS  687   5.182   2.441  10.557 -0.2964 -2.1066  0.3719
    6SAPS   O21  688   5.282   2.362  10.384  0.3878  0.2560 -0.3891
    6SAPS   C21  689   5.163   2.359  10.331  0.2341  0.1663 -0.3920
    6SAPS   O22  690   5.058   2.393  10.381 -0.8794  0.3588 -0.2805
    6SAPS   C22  691   5.175   2.273  10.204 -0.7206 -0.7163 -0.6419
    6SAPS   H2R  692   5.270   2.293  10.150  0.3870 -0.9393  1.1433
    6SAPS   H2S  693   5.190   2.167  10.236  1.6953 -0.9603 -2.2628
    6SAPS    C3  694   5.289   2.600  10.442  0.8671  0.2112 -0.7057
    6SAPS    HX  695   5.261   2.664  10.529 -0.0963  0.6939 -1.3485
    6SAPS    HY  696   5.209   2.618  10.367 -0.1441  0.4442  0.3762
    6SAPS   O31  697   5.421   2.640  10.407 -0.7768 -0.0695  0.5281
    6SAPS   C31  698   5.448   2.612  10.280 -0.6469  0.5426  0.0877
    6SAPS   O32  699   5.372   2.567  10.197  0.3497  0.0458 -0.2087
    6SAPS   C32  700   5.600   2.641  10.267  0.2341  0.2928  0.3681
    6SAPS   H2X  701   5.650   2.555  10.317 -0.8853  0.9484  2.7669
    6SAPS   H2Y  702   5.620   2.744  10.303  0.3981  0.6090 -0.5916
    6SAPS   C23  703   5.059   2.278  10.097  0.2429 -0.6064 -0.1009
    6SAPS   H3R  704   4.967   2.230  10.136  1.1911 -2.2667  0.1724
    6SAPS   H3S  705   5.100   2.215  10.015  1.2695  2.2364 -1.9422
    6SAPS   C24  706   5.030   2.419  10.037  0.1194 -0.7314  0.0170
    6SAPS   H4R  707   5.005   2.485  10.122  0.8298 -0.2257 -0.1600
    6SAPS   H4S  708   4.936   2.412   9.977 -0.1471  1.6594  0.0479
    6SAPS   C25  709   5.144   2.490   9.964  0.1418  0.0455  0.2057
    6SAPS   H5R  710   5.216   2.539  10.033  0.9220  0.0149 -0.5706
    6SAPS   C26  711   5.174   2.500   9.831  0.3165 -0.6179 -0.4434
    6SAPS   H6R  712   5.258   2.565   9.804 -0.8993  1.5248  0.6957
    6SAPS   C27  713   5.103   2.436   9.718 -0.0318  0.4538  0.6428
    6SAPS   H7R  714   5.042   2.348   9.749  4.2273 -2.1451  2.6291
    6SAPS   H7S  715   5.176   2.374   9.661  0.5234 -2.3621  4.0691
    6SAPS   C28  716   5.030   2.528   9.626 -0.7284 -0.5884  0.2791
    6SAPS   H8R  717   4.927   2.546   9.659 -0.6079 -0.2135  0.4604
    6SAPS   C29  718   5.091   2.593   9.525 -0.2453  0.2403  0.6862
    6SAPS   H9R  719   5.026   2.649   9.457 -0.8346 -1.4443 -0.1974
    6SAPS  C210  720   5.234   2.570   9.485  0.1045  0.4585 -0.4087
    6SAPS  H10R  721   5.224   2.480   9.420  0.4579  0.2008 -0.1121
    6SAPS  H10S  722   5.298   2.544   9.572 -0.9194 -1.4753 -0.1804
    6SAPS  C211  723   5.302   2.676   9.403 -0.5403  0.2272 -0.5163
    6SAPS  H11R  724   5.332   2.764   9.461  1.2491 -1.0578  0.5955
    6SAPS  C212  725   5.336   2.682   9.275 -0.1455  0.1517 -0.0052
    6SAPS  H12R  726   5.384   2.775   9.243  0.1187  0.3006  0.7998
    6SAPS  C213  727   5.303   2.580   9.173 -0.7612  0.2704  0.5423
    6SAPS  H13R  728   5.288   2.478   9.214  1.2393 -1.0452 -1.7858
    6SAPS  H13S  729   5.396   2.571   9.113 -1.1058  0.3622 -0.0100
    6SAPS  C214  730   5.181   2.620   9.103 -0.1931 -0.7077  0.1500
    6SAPS  H14R  731   5.093   2.646   9.164 -1.0271  0.8323 -1.5866
    6SAPS  C215  732   5.167   2.646   8.972 -0.4975  0.3949 -0.0778
    6SAPS  H15R  733   5.070   2.676   8.931 -0.5380 -0.9314 -0.9802
    6SAPS  C216  734   5.263   2.628   8.856  0.0793  0.8903 -0.1281
    6SAPS  H16R  735   5.367   2.608   8.888 -0.4363  0.4295  1.3459
    6SAPS  H16S  736   5.250   2.713   8.785 -0.6832  1.1483  0.2999
    6SAPS  C217  737   5.230   2.503   8.767 -0.4958  0.0063 -0.2312
    6SAPS  H17R  738   5.280   2.506   8.667  2.2903 -4.2471  0.7920
    6SAPS  H17S  739   5.120   2.492   8.754 -0.3051 -0.2221 -1.8507
    6SAPS  C218  740   5.278   2.369   8.827  0.3270  0.1577 -0.0350
    6SAPS  H18R  741   5.203   2.335   8.901 -1.1876 -0.0694 -1.6039
    6SAPS  H18S  742   5.378   2.392   8.869 -0.1640  2.6672 -0.1212
    6SAPS  C219  743   5.277   2.268   8.710  0.0301  0.5524  0.4972
    6SAPS  H19R  744   5.352   2.295   8.633 -1.4386  0.5302 -0.9980
    6SAPS  H19S  745   5.177   2.274   8.662  0.8093  1.3798 -1.1033
    6SAPS  C220  746   5.317   2.126   8.760  0.2865 -0.5102  0.2919
    6SAPS  H20R  747   5.231   2.097   8.823 -0.3586  1.0188  0.1602
    6SAPS  H20S  748   5.404   2.139   8.828  1.5110  2.0156 -1.5581
    6SAPS  H20T  749   5.335   2.057   8.675  1.7039  1.0240 -0.7197
    6SAPS   C33  750   5.627   2.644  10.111 -0.2712 -0.3806 -0.4159
    6SAPS   H3X  751   5.548   2.583  10.061 -0.6133 -0.3779  0.1167
    6SAPS   H3Y  752   5.732   2.612  10.095  0.0335 -0.4584  1.4952
    6SAPS   C34  753   5.597   2.794  10.070 -0.0546  0.2451 -0.6317
    6SAPS   H4X  754   5.675   2.866  10.102  3.1659 -2.7612 -1.1523
    6SAPS   H4Y  755   5.503   2.821  10.124 -0.3776 -1.7729 -0.0847
    6SAPS   C35  756   5.565   2.799   9.915  0.1982 -0.3593  0.1580
    6SAPS   H5X  757   5.546   2.905   9.889  0.2904 -0.1464  0.9211
    6SAPS   H5Y  758   5.474   2.738   9.897 -0.0277 -0.1445  0.5554
    6SAPS   C36  759   5.690   2.749   9.840  0.2245  0.0537 -0.4588
    6SAPS   H6X  760   5.717   2.649   9.880  2.0993  0.7497  0.1074
    6SAPS   H6Y  761   5.775   2.820   9.850 -0.5755  1.1856 -1.2439
    6SAPS   C37  762   5.665   2.733   9.692  0.5196  0.2837 -0.5844
    6SAPS   H7X  763   5.559   2.701   9.680  0.3018  0.4401  0.7315
    6SAPS   H7Y  764   5.732   2.649   9.665  1.7071  1.5382 -1.6857
    6SAPS   C38  765   5.710   2.855   9.612  0.1227 -0.2354  0.7653
    6SAPS   H8X  766   5.818   2.872   9.632  0.0316  2.1068 -0.3810
    6SAPS   H8Y  767   5.651   2.947   9.635 -0.3338 -0.3696  0.1739
    6SAPS   C39  768   5.692   2.830   9.462  0.5319  0.9207 -0.0465
    6SAPS   H9X  769   5.589   2.798   9.438  0.8093  1.7537 -2.5636
    6SAPS   H9Y  770   5.752   2.741   9.435 -0.1863  1.0793 -2.3611
    6SAPS  C310  771   5.728   2.942   9.366 -0.4395 -0.5708 -0.5957
    6SAPS  H10X  772   5.838   2.950   9.354 -0.4009 -1.1284 -0.6348
    6SAPS  H10Y  773   5.698   3.040   9.411  2.1912 -0.1118  0.3269
    6SAPS  C311  774   5.671   2.929   9.225  0.0667  0.1159 -0.5764
    6SAPS  H11X  775   5.697   3.019   9.166  0.9753  0.4679  0.3443
    6SAPS  H11Y  776   5.561   2.933   9.236  0.0207  2.9876 -1.2343
    6SAPS  C312  777   5.711   2.806   9.145 -0.0482  0.2040  0.1498
    6SAPS  H12X  778   5.647   2.721   9.178  0.1201 -0.2031 -0.5467
    6SAPS  H12Y  779   5.819   2.779   9.152 -0.1539 -0.5032 -0.7810
    6SAPS  C313  780   5.662   2.811   8.996 -0.6824 -0.0916 -0.1225
    6SAPS  H13X  781   5.729   2.878   8.938 -0.2654 -2.7162 -2.8749
    6SAPS  H13Y  782   5.563   2.861   9.001 -1.0419 -0.8042 -0.0612
    6SAPS  C314  783   5.650   2.669   8.937 -1.0612  0.7430  0.5934
    6SAPS  H14X  784   5.573   2.612   8.994 -0.2386  0.4709  1.4671
    6SAPS  H14Y  785   5.743   2.609   8.951 -0.0286  2.1291 -0.1658
    6SAPS  C315  786   5.617   2.672   8.793 -0.3545  0.1058 -0.9138
    6SAPS  H15X  787   5.529   2.740   8.797  0.1475  0.7390  1.5098
    6SAPS  H15Y  788   5.580   2.575   8.755  1.0212  0.4762 -3.3380
    6SAPS  C316  789   5.727   2.735   8.709  0.1180 -0.2907  0.2614
    6SAPS  H16X  790   5.809   2.667   8.738  0.0959  0.4270  2.1383
    6SAPS  H16Y  791   5.771   2.830   8.747 -0.5462 -0.3272  1.1600
    6SAPS  C317  792   5.699   2.723   8.565  0.4164  0.0592 -0.4867
    6SAPS  H17X  793   5.617   2.794   8.541  0.5587 -0.3114 -2.1874
    6SAPS  H17Y  794   5.645   2.631   8.536  0.5753  0.1092 -0.9535
    6SAPS  C318  795   5.815   2.759   8.470 -0.5547 -0.1438 -0.0720
    6SAPS  H18X  796   5.765   2.805   8.382  1.3029  1.1233 -0.5219
    6SAPS  H18Y  797   5.867   2.670   8.429  1.7903  1.1135 -0.0270
    6SAPS  H18Z  798   5.891   2.829   8.510  1.4269 -0.3711 -3.0701
    7SAPS     N  799   6.509   4.788  10.944 -0.1567  0.2210  0.1378
    7SAPS   HN1  800   6.455   4.840  11.016  0.5752  0.9243  0.1889
    7SAPS   HN2  801   6.502   4.842  10.856 -0.8509  0.4524  0.3282
    7SAPS   HN3  802   6.471   4.692  10.931  1.7902 -0.3928 -1.6677
    7SAPS   C12  803   6.655   4.780  10.982 -0.1633 -0.0125  0.2837
    7SAPS  H12A  804   6.696   4.879  10.984  1.1395 -0.5374  0.5895
    7SAPS   C13  805   6.677   4.719  11.121  0.8926 -0.2498 -0.5656
    7SAPS  O13A  806   6.583   4.714  11.208  0.6039 -0.8259 -0.1908
    7SAPS  O13B  807   6.789   4.671  11.150  0.0792 -0.2277 -0.5654
    7SAPS   C11  808   6.744   4.719  10.865  0.3576 -0.1064 -0.8316
    7SAPS  H11A  809   6.722   4.612  10.848 -1.3188 -0.1758  1.3763
    7SAPS  H11B  810   6.850   4.739  10.894 -0.1415 -0.9102  1.8456
    7SAPS     P  811   6.693   4.728  10.616 -0.2752  0.0330 -0.1085
    7SAPS   O13  812   6.564   4.655  10.621 -0.0513  0.1950  0.1304
    7SAPS   O14  813   6.711   4.824  10.508 -0.0270  0.1982  0.0212
    7SAPS   O12  814   6.728   4.797  10.753  0.3447 -0.9338  0.7613
    7SAPS   O11  815   6.805   4.612  10.611 -0.0484 -0.0850  0.5547
    7SAPS    C1  816   6.945   4.647  10.613  0.2728  0.0369 -0.0853
    7SAPS    HA  817   6.971   4.753  10.635 -0.5840  0.4045 -0.7425
    7SAPS    HB  818   6.988   4.594  10.700 -0.9336 -2.8058 -1.1096
    7SAPS    C2  819   7.031   4.609  10.492  0.4579  0.0959 -0.8771
    7SAPS    HS  820   7.139   4.630  10.508  0.3300  0.6010 -0.6621
    7SAPS   O21  821   6.975   4.680  10.385 -0.8123 -0.8240 -0.2471
    7SAPS   C21  822   7.042   4.791  10.349  0.5596  0.6255  0.5493
    7SAPS   O22  823   7.156   4.818  10.391 -0.0837 -0.5788  0.1213
    7SAPS   C22  824   6.963   4.865  10.249  0.2429 -1.0706 -0.1390
    7SAPS   H2R  825   6.869   4.810  10.224 -0.2816 -0.4870  0.5067
    7SAPS   H2S  826   6.920   4.955  10.299  0.1105 -0.9931 -0.3886
    7SAPS    C3  827   7.017   4.457  10.456 -0.4599  0.1281 -0.3899
    7SAPS    HX  828   6.913   4.425  10.436 -0.4025 -1.4089  1.5216
    7SAPS    HY  829   7.055   4.397  10.541 -5.1502 -2.0680  0.4689
    7SAPS   O31  830   7.097   4.422  10.338  0.1436 -0.4407  0.0433
    7SAPS   C31  831   7.231   4.426  10.340  0.0019 -0.3790 -0.4149
    7SAPS   O32  832   7.303   4.490  10.410  0.1561 -0.6695  0.3742
    7SAPS   C32  833   7.281   4.336  10.226  0.4237 -0.3673 -0.9009
    7SAPS   H2X  834   7.262   4.231  10.257  1.1796 -0.0393  0.7954
    7SAPS   H2Y  835   7.391   4.342  10.214  0.3078 -0.9666 -2.6018
    7SAPS   C23  836   7.048   4.910  10.125  0.6844  0.1707 -0.3084
    7SAPS   H3R  837   7.150   4.939  10.158  0.8326  0.9301 -1.3813
    7SAPS   H3S  838   6.998   5.002  10.088  0.4544  0.9162  1.7190
    7SAPS   C24  839   7.047   4.810  10.007 -0.6742  0.3663 -0.2250
    7SAPS   H4R  840   6.947   4.814   9.957 -0.0049  0.7153 -1.5896
    7SAPS   H4S  841   7.058   4.712  10.058 -1.1522  0.6774  0.4882
    7SAPS   C25  842   7.164   4.834   9.910 -0.7337 -0.2810  0.6186
    7SAPS   H5R  843   7.260   4.839   9.964  0.2777 -0.2372 -1.1289
    7SAPS   C26  844   7.159   4.846   9.774 -0.2445  0.7308 -0.3636
    7SAPS   H6R  845   7.248   4.851   9.710 -0.6889 -4.0594 -1.6916
    7SAPS   C27  846   7.032   4.838   9.693  0.5584  0.3462 -0.2660
    7SAPS   H7R  847   6.959   4.769   9.741  0.5938  1.4230  1.4483
    7SAPS   H7S  848   7.049   4.798   9.591 -0.4184 -2.4005  0.5418
    7SAPS   C28  849   6.958   4.974   9.686  0.1970 -0.0893  0.3083
    7SAPS   H8R  850   6.940   5.032   9.778  0.3222  2.4879 -1.1855
    7SAPS   C29  851   6.908   5.027   9.578  0.4581 -0.2746 -0.1066
    7SAPS   H9R  852   6.869   5.129   9.594  0.6478 -0.3841  1.2070
    7SAPS  C210  853   6.895   4.971   9.438 -0.5939 -0.0810  0.0530
    7SAPS  H10R  854   6.815   5.036   9.396 -0.3043  1.6088  1.9786
    7SAPS  H10S  855   6.861   4.865   9.435  0.8960 -0.6374  1.5399
    7SAPS  C211  856   7.023   4.986   9.360  0.7570 -0.0459  0.4962
    7SAPS  H11R  857   7.095   4.904   9.360 -2.9375 -3.6560  2.2432
    7SAPS  C212  858   7.034   5.094   9.280 -0.8046 -0.3788  0.0174
    7SAPS  H12R  859   7.133   5.105   9.235 -0.3352 -1.3975  0.7650
    7SAPS  C213  860   6.937   5.205   9.259  0.0489 -0.0249  0.3338
    7SAPS  H13R  861   6.903   5.221   9.364  0.0351 -0.3278  0.3772
    7SAPS  H13S  862   6.855   5.180   9.188 -0.7321  2.2325  0.3439
    7SAPS  C214  863   7.010   5.324   9.200  0.6124  0.1259  0.5515
    7SAPS  H14R  864   7.028   5.402   9.275 -0.8865  0.4310  0.6224
    7SAPS  C215  865   7.032   5.343   9.075  0.5308 -0.5722  0.1031
    7SAPS  H15R  866   7.087   5.433   9.044  0.0945 -0.3497 -0.0444
    7SAPS  C216  867   6.999   5.246   8.962 -0.3430 -0.5950 -0.4392
    7SAPS  H16R  868   6.951   5.149   8.989  1.8880 -1.2424  1.5693
    7SAPS  H16S  869   7.098   5.229   8.913  0.8280  0.0812  1.6044
    7SAPS  C217  870   6.913   5.310   8.854 -0.3933 -0.1010  0.2206
    7SAPS  H17R  871   6.899   5.237   8.771  0.7271 -0.1457  0.0598
    7SAPS  H17S  872   6.968   5.403   8.828 -1.3403  1.0563  2.1319
    7SAPS  C218  873   6.775   5.355   8.892  0.6989  0.0953 -0.8703
    7SAPS  H18R  874   6.767   5.419   8.983 -0.6255  0.5661 -1.2955
    7SAPS  H18S  875   6.718   5.264   8.920 -0.4142  0.6180 -1.3610
    7SAPS  C219  876   6.697   5.418   8.779  0.8323  0.1003 -0.0306
    7SAPS  H19R  877   6.731   5.373   8.683  0.9421 -1.9107  0.8897
    7SAPS  H19S  878   6.716   5.527   8.767 -0.3689  0.3181  0.0051
    7SAPS  C220  879   6.547   5.389   8.795 -0.0344 -0.4780  0.2700
    7SAPS  H20R  880   6.524   5.281   8.813 -1.2084 -0.3476 -0.3579
    7SAPS  H20S  881   6.497   5.409   8.698  2.1057  0.0827 -0.7907
    7SAPS  H20T  882   6.503   5.456   8.872 -0.8607 -0.2695 -0.3696
    7SAPS   C33  883   7.225   4.363  10.084  0.6436  0.9764  1.3386
    7SAPS   H3X  884   7.125   4.411  10.085  1.0576  1.8677  1.0065
    7SAPS   H3Y  885   7.206   4.263  10.041 -1.6705  2.0418 -0.3187
    7SAPS   C34  886   7.311   4.423   9.984 -0.0228  0.1307 -0.3272
    7SAPS   H4X  887   7.419   4.398   9.985  0.5335  2.2999  0.8165
    7SAPS   H4Y  888   7.310   4.531  10.012  0.0827 -0.0602  0.4268
    7SAPS   C35  889   7.256   4.386   9.844  0.0511 -0.1180 -0.2457
    7SAPS   H5X  890   7.153   4.427   9.853  1.5287  3.7174  0.9363
    7SAPS   H5Y  891   7.260   4.276   9.828 -1.3365 -0.1218 -0.6509
    7SAPS   C36  892   7.339   4.455   9.728 -0.3339 -0.5698 -0.1035
    7SAPS   H6X  893   7.441   4.413   9.740 -0.6647 -1.1450  0.8873
    7SAPS   H6Y  894   7.343   4.565   9.745 -2.3671 -0.4541 -0.1173
    7SAPS   C37  895   7.286   4.420   9.590  0.1921  0.1513 -0.3191
    7SAPS   H7X  896   7.179   4.443   9.575  0.1432 -0.8490 -1.6720
    7SAPS   H7Y  897   7.305   4.311   9.581  1.1076  0.3709 -1.3349
    7SAPS   C38  898   7.374   4.480   9.479 -0.1557 -0.4445  0.7938
    7SAPS   H8X  899   7.483   4.472   9.501 -0.0703  1.2866  1.1250
    7SAPS   H8Y  900   7.365   4.590   9.476  0.3870 -0.4118 -1.3480
    7SAPS   C39  901   7.351   4.427   9.334 -0.3674  0.0330  0.2026
    7SAPS   H9X  902   7.310   4.325   9.349 -0.3426  0.2450  1.8971
    7SAPS   H9Y  903   7.443   4.412   9.274 -1.4091 -4.1313 -0.6573
    7SAPS  C310  904   7.249   4.518   9.259  0.3006 -0.4643  0.1076
    7SAPS  H10X  905   7.169   4.552   9.328  1.5962  0.8527  1.0191
    7SAPS  H10Y  906   7.201   4.459   9.179  0.6226 -1.0855  0.3673
    7SAPS  C311  907   7.324   4.637   9.201 -0.3726 -0.3432  0.2926
    7SAPS  H11X  908   7.386   4.674   9.285 -1.4105 -1.7129  1.6988
    7SAPS  H11Y  909   7.258   4.722   9.172 -0.9446  0.1703  2.8675
    7SAPS  C312  910   7.419   4.605   9.078 -0.3056  0.3968  0.3313
    7SAPS  H12X  911   7.517   4.572   9.119  0.0577  1.5433  0.4216
    7SAPS  H12Y  912   7.429   4.702   9.026  0.1808  0.7123  0.9950
    7SAPS  C313  913   7.355   4.510   8.976  0.2870  0.3380  0.3613
    7SAPS  H13X  914   7.343   4.411   9.026 -2.1986 -0.0205 -0.7819
    7SAPS  H13Y  915   7.412   4.493   8.883 -2.2677  0.6541 -1.3611
    7SAPS  C314  916   7.214   4.555   8.926 -0.6753  0.7722 -0.0391
    7SAPS  H14X  917   7.162   4.609   9.007 -1.2048  0.3179 -0.0717
    7SAPS  H14Y  918   7.154   4.468   8.891  1.6393 -0.3505 -1.5182
    7SAPS  C315  919   7.238   4.651   8.805  0.2031 -0.2643 -0.2453
    7SAPS  H15X  920   7.278   4.592   8.719  0.4654  0.0444 -0.3352
    7SAPS  H15Y  921   7.318   4.724   8.827  0.6770 -0.8515  0.0073
    7SAPS  C316  922   7.114   4.724   8.750  0.2472  0.0074 -0.2949
    7SAPS  H16X  923   7.040   4.747   8.830 -0.0500 -4.2813  0.8880
    7SAPS  H16Y  924   7.068   4.648   8.683 -0.5806 -1.7308  2.1129
    7SAPS  C317  925   7.132   4.861   8.692  0.3712 -0.5637  0.0524
    7SAPS  H17X  926   7.189   4.845   8.598  1.3619 -0.5145  0.6323
    7SAPS  H17Y  927   7.198   4.917   8.762 -0.6597  0.7561  0.0170
    7SAPS  C318  928   7.000   4.940   8.667  0.0221  0.3309 -0.5242
    7SAPS  H18X  929   6.939   4.868   8.609 -2.5708  0.2441  2.0703
    7SAPS  H18Y  930   7.010   5.038   8.616 -2.4897 -0.1691 -2.1508
    7SAPS  H18Z  931   6.937   4.943   8.759 -0.6926  1.2187 -1.0205
    8SAPS     N  932   4.811   6.598  11.301  0.0912 -0.3244  0.0601
    8SAPS   HN1  933   4.757   6.677  11.261 -1.9713 -1.4809  0.4240
    8SAPS   HN2  934   4.766   6.578  11.393  0.8780  2.9118  1.2911
    8SAPS   HN3  935   4.911   6.623  11.312 -0.4510  1.8580  0.4775
    8SAPS   C12  936   4.794   6.482  11.205 -0.5492 -0.9030  0.8556
    8SAPS  H12A  937   4.889   6.433  11.192 -0.7634 -0.9743 -0.5822
    8SAPS   C13  938   4.713   6.367  11.249  0.0959  0.3437 -0.4977
    8SAPS  O13A  939   4.648   6.391  11.354  0.2354  0.3515 -0.2314
    8SAPS  O13B  940   4.698   6.265  11.179 -0.1000  0.1506  0.1184
    8SAPS   C11  941   4.743   6.537  11.067  0.5520  0.5832  0.0988
    8SAPS  H11A  942   4.756   6.463  10.985 -1.9646  0.1118  0.0745
    8SAPS  H11B  943   4.809   6.620  11.032  0.7425 -0.6794 -2.8752
    8SAPS     P  944   4.558   6.712  11.087 -0.1974 -0.0909  0.2679
    8SAPS   O13  945   4.434   6.703  11.174  0.6935  0.3038  0.4691
    8SAPS   O14  946   4.663   6.793  11.142  0.0217  0.0491 -0.1305
    8SAPS   O12  947   4.604   6.569  11.062 -0.7568 -0.1715 -0.1794
    8SAPS   O11  948   4.522   6.757  10.940 -0.6287 -0.3013 -0.4337
    8SAPS    C1  949   4.618   6.812  10.852 -0.1040  0.0546  0.1286
    8SAPS    HA  950   4.614   6.923  10.851  1.9186  0.1628 -0.8457
    8SAPS    HB  951   4.722   6.799  10.887 -0.2972  2.2989  1.7131
    8SAPS    C2  952   4.619   6.729  10.713 -0.1644  0.0622 -1.0558
    8SAPS    HS  953   4.514   6.718  10.679 -0.6671  1.5298 -0.0729
    8SAPS   O21  954   4.677   6.600  10.739  0.5031  0.2757  0.0484
    8SAPS   C21  955   4.601   6.493  10.737 -0.3640  0.4638  0.2734
    8SAPS   O22  956   4.480   6.493  10.731 -0.4464  0.2473  0.3073
    8SAPS   C22  957   4.685   6.366  10.727 -0.2643 -0.1396  0.7407
    8SAPS   H2R  958   4.791   6.394  10.711  0.5035 -2.3278  1.5929
    8SAPS   H2S  959   4.675   6.312  10.823 -2.2287 -0.5680  0.3290
    8SAPS    C3  960   4.695   6.810  10.607 -0.0333 -0.3983 -0.1650
    8SAPS    HX  961   4.792   6.831  10.656 -0.1785 -2.1123  0.9325
    8SAPS    HY  962   4.644   6.904  10.579 -1.6208 -0.3186  2.6770
    8SAPS   O31  963   4.721   6.728  10.490  0.3841 -0.5922  0.0506
    8SAPS   C31  964   4.818   6.765  10.400  0.0841 -0.1479  0.5790
    8SAPS   O32  965   4.873   6.872  10.400 -0.1840 -0.0873  0.4440
    8SAPS   C32  966   4.840   6.649  10.300  0.2461 -0.4248 -0.4173
    8SAPS   H2X  967   4.737   6.617  10.275 -0.7081  1.3563  0.9254
    8SAPS   H2Y  968   4.889   6.565  10.353 -0.1100 -0.6250 -0.4069
    8SAPS   C23  969   4.643   6.276  10.608  0.4089 -0.6106 -0.3394
    8SAPS   H3R  970   4.549   6.218  10.618  0.4828 -0.8898 -1.2758
    8SAPS   H3S  971   4.718   6.195  10.608  1.1752  0.0368  1.3992
    8SAPS   C24  972   4.648   6.364  10.487 -0.3221 -0.6135 -0.1119
    8SAPS   H4R  973   4.740   6.426  10.493 -1.2556  0.7591  0.4611
    8SAPS   H4S  974   4.562   6.434  10.487 -0.0996 -0.3236 -1.1759
    8SAPS   C25  975   4.646   6.280  10.362 -0.6469  0.1225  0.1273
    8SAPS   H5R  976   4.718   6.197  10.360 -2.3701 -1.4992  1.9663
    8SAPS   C26  977   4.558   6.295  10.256 -0.6129  0.2727 -1.2981
    8SAPS   H6R  978   4.591   6.235  10.170  1.7481  1.1168 -1.0507
    8SAPS   C27  979   4.442   6.395  10.243 -0.0581 -0.9405 -0.2303
    8SAPS   H7R  980   4.442   6.466  10.328  0.0093 -0.8352 -0.3179
    8SAPS   H7S  981   4.354   6.329  10.258 -0.1315 -1.2991 -1.9746
    8SAPS   C28  982   4.432   6.468  10.105  0.1919  0.2597 -0.6414
    8SAPS   H8R  983   4.464   6.572  10.094  0.2943  0.2803 -0.1727
    8SAPS   C29  984   4.389   6.405   9.996  0.4511  0.6477  0.2742
    8SAPS   H9R  985   4.379   6.467   9.906  0.2604  0.0508 -0.1203
    8SAPS  C210  986   4.338   6.261   9.986  0.2629 -0.5129  1.0388
    8SAPS  H10R  987   4.318   6.210  10.083  1.6978  0.1250  1.6984
    8SAPS  H10S  988   4.416   6.206   9.928 -1.9131 -1.4148 -1.2243
    8SAPS  C211  989   4.207   6.258   9.908  0.3804 -0.1426  0.4437
    8SAPS  H11R  990   4.111   6.239   9.958 -1.1433  1.5011 -1.7122
    8SAPS  C212  991   4.199   6.250   9.775  0.3492  0.1060 -0.3456
    8SAPS  H12R  992   4.107   6.235   9.718  0.9519 -3.2131 -0.6456
    8SAPS  C213  993   4.322   6.251   9.683 -0.9262 -0.3997 -0.2849
    8SAPS  H13R  994   4.407   6.190   9.721 -0.2162  0.6830 -0.0983
    8SAPS  H13S  995   4.363   6.354   9.684  0.6552 -0.9971  0.2359
    8SAPS  C214  996   4.283   6.207   9.543  0.1719 -0.0613 -0.3032
    8SAPS  H14R  997   4.193   6.144   9.533  0.5140 -0.1797 -3.3120
    8SAPS  C215  998   4.342   6.235   9.425  0.2456  0.7314 -0.8996
    8SAPS  H15R  999   4.299   6.195   9.332  1.1700 -1.3893 -0.4704
    8SAPS  C216 1000   4.471   6.309   9.413 -1.2565  0.4185  0.4415
    8SAPS  H16R 1001   4.518   6.333   9.511  1.3555  0.9296 -0.8731
    8SAPS  H16S 1002   4.441   6.407   9.373 -0.8964  0.0750 -0.6992
    8SAPS  C217 1003   4.560   6.249   9.308 -0.5366  0.0973  0.1429
    8SAPS  H17R 1004   4.576   6.139   9.311  1.3307  0.2250 -2.2241
    8SAPS  H17S 1005   4.662   6.292   9.320 -1.2173  2.3111 -1.3486
    8SAPS  C218 1006   4.525   6.282   9.159 -0.0694  0.1084  0.7024
    8SAPS  H18R 1007   4.517   6.392   9.141 -1.6586  0.4190  2.8418
    8SAPS  H18S 1008   4.421   6.244   9.150 -0.6308  1.0617  2.5518
    8SAPS  C219 1009   4.618   6.207   9.071 -0.3237  0.1395  0.2618
    8SAPS  H19R 1010   4.584   6.102   9.059  1.2519 -0.5759  1.7307
    8SAPS  H19S 1011   4.722   6.213   9.111 -0.6737  0.2784  1.1549
    8SAPS  C220 1012   4.607   6.260   8.926  0.1691 -0.0481 -0.2801
    8SAPS  H20R 1013   4.499   6.279   8.904 -0.1314 -0.4078  0.8472
    8SAPS  H20S 1014   4.654   6.182   8.862  2.3207  0.6650  0.3521
    8SAPS  H20T 1015   4.666   6.354   8.927  1.1469 -0.5735 -2.2783
    8SAPS   C33 1016   4.917   6.679  10.166  0.5103 -0.0591  0.0073
    8SAPS   H3X 1017   5.024   6.706  10.177  0.1295  2.2729 -1.4867
    8SAPS   H3Y 1018   4.871   6.764  10.111  2.0580  0.4316 -0.5748
    8SAPS   C34 1019   4.912   6.560  10.069 -0.4507 -0.0079 -0.3502
    8SAPS   H4X 1020   4.811   6.528  10.038  0.0893 -1.8413 -0.3205
    8SAPS   H4Y 1021   4.962   6.470  10.111 -0.0567 -0.6726 -2.1827
    8SAPS   C35 1022   4.973   6.589   9.936  0.3898  0.5619  0.5215
    8SAPS   H5X 1023   5.081   6.616   9.938  0.7656 -0.9395  2.2220
    8SAPS   H5Y 1024   4.917   6.679   9.901 -0.4475  1.6824  4.2507
    8SAPS   C36 1025   4.938   6.478   9.836 -0.6481 -0.0842  0.0481
    8SAPS   H6X 1026   4.842   6.428   9.857 -0.2550 -1.0489 -0.4197
    8SAPS   H6Y 1027   5.017   6.401   9.848  0.7537  1.1283 -0.9869
    8SAPS   C37 1028   4.942   6.522   9.687  0.3009  0.2879  0.0941
    8SAPS   H7X 1029   5.046   6.543   9.653 -0.3446 -0.0635 -2.2890
    8SAPS   H7Y 1030   4.878   6.613   9.678 -2.0472 -1.4556 -2.0454
    8SAPS   C38 1031   4.876   6.426   9.594 -0.6363  0.2362 -0.7060
    8SAPS   H8X 1032   4.771   6.411   9.625 -0.1882  0.1256  0.8588
    8SAPS   H8Y 1033   4.936   6.333   9.588  2.9448  2.3709 -1.2575
    8SAPS   C39 1034   4.878   6.478   9.444 -0.0952 -0.3631  0.1161
    8SAPS   H9X 1035   4.797   6.554   9.447 -0.9671 -1.2926  1.5019
    8SAPS   H9Y 1036   4.835   6.401   9.377 -2.4016  0.8018  0.1605
    8SAPS  C310 1037   5.007   6.547   9.396 -0.0151  0.1723 -0.0284
    8SAPS  H10X 1038   5.093   6.477   9.409 -0.9584 -1.3046 -1.3770
    8SAPS  H10Y 1039   5.026   6.644   9.446 -0.2032 -0.0550  0.4969
    8SAPS  C311 1040   5.000   6.560   9.243 -0.2847  0.6015  0.3623
    8SAPS  H11X 1041   5.071   6.638   9.209 -2.5280  2.1131 -1.1052
    8SAPS  H11Y 1042   4.901   6.592   9.206 -0.9917 -0.9732  0.8130
    8SAPS  C312 1043   5.034   6.431   9.172  0.9393 -0.0636  0.4236
    8SAPS  H12X 1044   4.962   6.356   9.209  2.2757 -0.9020  1.4261
    8SAPS  H12Y 1045   5.137   6.399   9.199  1.6607  2.3163  0.7201
    8SAPS  C313 1046   5.047   6.438   9.019 -0.6700  0.5639 -0.0098
    8SAPS  H13X 1047   5.143   6.486   8.990 -0.0843 -1.7888 -2.3819
    8SAPS  H13Y 1048   4.960   6.494   8.977 -3.1975 -2.3545  0.8978
    8SAPS  C314 1049   5.058   6.298   8.963 -0.8317 -0.8085 -1.1970
    8SAPS  H14X 1050   4.963   6.244   8.984 -0.8486 -1.1172 -2.0357
    8SAPS  H14Y 1051   5.140   6.247   9.017 -0.4529  0.5008 -0.4723
    8SAPS  C315 1052   5.079   6.293   8.811 -0.0491  0.0064 -0.4988
    8SAPS  H15X 1053   5.186   6.307   8.784  0.1684 -0.2612  0.1958
    8SAPS  H15Y 1054   5.021   6.375   8.764 -0.3259 -0.0591 -0.2740
    8SAPS  C316 1055   5.028   6.157   8.756  0.2237  0.0990  0.4868
    8SAPS  H16X 1056   4.924   6.140   8.790 -0.3675  0.1052 -1.2271
    8SAPS  H16Y 1057   5.092   6.076   8.797  2.3121  1.6464  0.4441
    8SAPS  C317 1058   5.030   6.162   8.603 -0.3188  0.0234  0.5291
    8SAPS  H17X 1059   5.130   6.200   8.572 -0.8863  0.7088 -0.5483
    8SAPS  H17Y 1060   4.959   6.239   8.565  2.4542  2.0246 -0.9418
    8SAPS  C318 1061   5.001   6.025   8.545 -0.0299  0.5796  0.4765
    8SAPS  H18X 1062   5.070   5.950   8.587  0.4047  2.0216  2.5059
    8SAPS  H18Y 1063   5.016   6.033   8.435  1.1458 -0.7122  0.5154
    8SAPS  H18Z 1064   4.896   5.992   8.564 -0.1228  0.7294  0.2363
    9SAPS     N 1065   0.874   0.954   6.174  0.1061 -0.0977 -0.2532
    9SAPS   HN1 1066   0.809   0.969   6.094 -1.0296 -1.7902  0.3008
    9SAPS   HN2 1067   0.939   0.874   6.155 -1.3921 -2.1254  2.4526
    9SAPS   HN3 1068   0.808   0.907   6.239 -0.1210 -2.2635 -1.9367
    9SAPS   C12 1069   0.957   1.075   6.214  0.3100 -0.0662  0.3730
    9SAPS  H12A 1070   1.032   1.101   6.141 -0.4848 -0.2581 -0.5382
    9SAPS   C13 1071   0.858   1.199   6.231 -0.1249  0.1086 -0.3158
    9SAPS  O13A 1072   0.737   1.181   6.213  0.4555  0.4983  0.0898
    9SAPS  O13B 1073   0.904   1.311   6.266 -0.6291 -0.8575 -0.2921
    9SAPS   C11 1074   1.026   1.034   6.350 -0.2879  0.8793  0.0254
    9SAPS  H11A 1075   0.958   1.037   6.439 -0.0691  0.5291  0.2055
    9SAPS  H11B 1076   1.099   1.113   6.377 -0.8696  1.5524 -0.3144
    9SAPS     P 1077   1.234   0.880   6.300  0.4620  0.3849 -0.0186
    9SAPS   O13 1078   1.275   0.741   6.286  0.4317 -0.3488  0.5742
    9SAPS   O14 1079   1.256   0.967   6.186  0.1075 -0.8984 -0.8991
    9SAPS   O12 1080   1.082   0.903   6.347 -0.6988 -0.1450 -0.5175
    9SAPS   O11 1081   1.307   0.953   6.419  0.4400 -0.3979 -0.4054
    9SAPS    C1 1082   1.373   0.876   6.517  0.2121 -0.1822 -0.2577
    9SAPS    HA 1083   1.344   0.770   6.534 -2.0552  0.5245  0.6841
    9SAPS    HB 1084   1.481   0.888   6.492  0.2515  1.4622  0.5870
    9SAPS    C2 1085   1.342   0.939   6.651  0.5085  0.6663 -0.3456
    9SAPS    HS 1086   1.379   1.043   6.639 -0.0287  0.9351  0.2654
    9SAPS   O21 1087   1.399   0.866   6.754 -0.0633  0.5049  0.0692
    9SAPS   C21 1088   1.527   0.892   6.781  0.0067 -0.1795 -0.8384
    9SAPS   O22 1089   1.597   0.990   6.745 -0.0712 -0.0822 -0.1733
    9SAPS   C22 1090   1.585   0.789   6.883 -0.3244 -0.2504  0.6529
    9SAPS   H2R 1091   1.537   0.690   6.870 -2.9799  0.7870  1.6763
    9SAPS   H2S 1092   1.694   0.786   6.864 -0.4182  1.0997 -0.2037
    9SAPS    C3 1093   1.192   0.935   6.677  0.3502 -0.3174  0.8986
    9SAPS    HX 1094   1.167   0.826   6.677 -1.6857  0.1119  0.3451
    9SAPS    HY 1095   1.140   0.978   6.589  0.5429 -2.2634 -0.2356
    9SAPS   O31 1096   1.152   1.003   6.801  0.2755 -0.0480 -0.6914
    9SAPS   C31 1097   1.015   0.995   6.799 -0.6360 -0.3257  0.2095
    9SAPS   O32 1098   0.944   0.956   6.705 -0.0385 -0.6382 -0.7843
    9SAPS   C32 1099   0.971   1.064   6.932  0.2139 -0.1791  0.5513
    9SAPS   H2X 1100   0.979   1.174   6.924 -1.1399 -0.1686 -1.3472
    9SAPS   H2Y 1101   1.037   1.024   7.012  0.8005  0.8741  0.6085
    9SAPS   C23 1102   1.571   0.839   7.027  0.1168 -0.3866 -0.0660
    9SAPS   H3R 1103   1.591   0.750   7.090 -1.5595 -0.7992 -0.0444
    9SAPS   H3S 1104   1.471   0.880   7.056  0.8693  0.4105  1.5052
    9SAPS   C24 1105   1.680   0.944   7.072  0.4355 -0.0348  0.4505
    9SAPS   H4R 1106   1.674   0.952   7.182  1.0462  0.2325  0.4677
    9SAPS   H4S 1107   1.657   1.045   7.032  1.1971 -1.6128 -4.7394
    9SAPS   C25 1108   1.823   0.907   7.032  0.3434 -0.0228  1.0455
    9SAPS   H5R 1109   1.856   0.956   6.939 -0.8658  2.5704  1.8797
    9SAPS   C26 1110   1.918   0.830   7.097  0.2807 -0.0025 -0.2431
    9SAPS   H6R 1111   2.015   0.819   7.046 -0.6201  0.6141 -2.1971
    9SAPS   C27 1112   1.893   0.766   7.235 -0.2017  0.3050  0.0241
    9SAPS   H7R 1113   1.807   0.697   7.220  1.0910 -1.3480  0.0581
    9SAPS   H7S 1114   1.869   0.844   7.310 -1.5629  1.2781 -1.3542
    9SAPS   C28 1115   2.013   0.685   7.285  0.4276  0.0111 -0.5638
    9SAPS   H8R 1116   2.078   0.649   7.203 -0.4661 -0.0070 -1.2909
    9SAPS   C29 1117   2.061   0.666   7.408  0.3068 -0.2339 -0.0738
    9SAPS   H9R 1118   2.142   0.594   7.427 -2.5529 -3.6358  0.1701
    9SAPS  C210 1119   2.007   0.730   7.529  0.2016 -0.4646  0.3828
    9SAPS  H10R 1120   1.898   0.752   7.528  0.2843  0.4482  3.4557
    9SAPS  H10S 1121   2.060   0.828   7.534  1.1362 -0.9299 -0.0499
    9SAPS  C211 1122   2.037   0.664   7.663 -0.1856  0.1112 -0.0154
    9SAPS  H11R 1123   2.110   0.583   7.650 -2.2429 -1.8133 -0.0854
    9SAPS  C212 1124   1.962   0.682   7.780 -0.2577  1.1366  0.0990
    9SAPS  H12R 1125   1.985   0.617   7.866  0.6041  0.1013 -0.8565
    9SAPS  C213 1126   1.851   0.772   7.793 -0.0079 -0.1988  0.2772
    9SAPS  H13R 1127   1.785   0.738   7.876 -1.5476  0.6766 -0.5263
    9SAPS  H13S 1128   1.780   0.747   7.711  0.9840 -0.5792 -0.4858
    9SAPS  C214 1129   1.877   0.919   7.798 -0.2146  0.0346  0.2594
    9SAPS  H14R 1130   1.900   0.966   7.701 -2.6773 -1.5071 -1.1789
    9SAPS  C215 1131   1.878   0.989   7.908  0.3433 -0.3423 -0.0698
    9SAPS  H15R 1132   1.894   1.095   7.882 -0.8828  0.0615  0.7158
    9SAPS  C216 1133   1.874   0.966   8.053  1.0382  0.2257  0.1249
    9SAPS  H16R 1134   1.809   0.879   8.071  1.2448  0.2624  1.1341
    9SAPS  H16S 1135   1.821   1.051   8.101  0.4342 -0.0514 -0.0418
    9SAPS  C217 1136   2.015   0.960   8.119  1.1257 -0.1269 -0.8771
    9SAPS  H17R 1137   1.996   0.947   8.228 -2.0310 -0.6980 -1.4236
    9SAPS  H17S 1138   2.057   1.062   8.109  1.3360 -0.1698 -0.4739
    9SAPS  C218 1139   2.112   0.859   8.070  0.2502  0.4701 -0.4936
    9SAPS  H18R 1140   2.209   0.889   8.113 -1.1444  1.8263  1.8732
    9SAPS  H18S 1141   2.127   0.849   7.960  0.0502  2.2974 -0.7106
    9SAPS  C219 1142   2.078   0.725   8.138 -0.0631  0.7823 -0.1223
    9SAPS  H19R 1143   1.984   0.673   8.109  0.8936 -0.5530 -0.9771
    9SAPS  H19S 1144   2.055   0.738   8.245 -1.3444  1.0287 -0.4088
    9SAPS  C220 1145   2.199   0.625   8.129  0.0828 -0.1881 -0.2018
    9SAPS  H20R 1146   2.232   0.602   8.025  2.8705  0.9895  0.3140
    9SAPS  H20S 1147   2.167   0.534   8.183  1.3346  0.6522  2.1050
    9SAPS  H20T 1148   2.289   0.670   8.176 -0.7885  1.2713  0.1316
    9SAPS   C33 1149   0.828   1.026   6.981 -0.1081  0.2975  0.3955
    9SAPS   H3X 1150   0.813   0.916   6.973 -0.3959  0.3458  0.2502
    9SAPS   H3Y 1151   0.757   1.072   6.909  0.2014 -0.0472 -0.1369
    9SAPS   C34 1152   0.804   1.080   7.124 -0.2004 -0.0223 -0.1603
    9SAPS   H4X 1153   0.693   1.085   7.123 -0.3883 -2.3796  1.2347
    9SAPS   H4Y 1154   0.846   1.182   7.119  1.7294 -0.7597  0.1740
    9SAPS   C35 1155   0.863   1.003   7.242  0.5321 -0.6374 -0.6197
    9SAPS   H5X 1156   0.968   0.969   7.235  0.5562 -0.3445 -1.7783
    9SAPS   H5Y 1157   0.787   0.926   7.267 -0.0737 -0.1239 -0.8400
    9SAPS   C36 1158   0.861   1.113   7.352  1.0440  0.5798 -0.2635
    9SAPS   H6X 1159   0.755   1.144   7.368  0.9852  0.2456  0.0069
    9SAPS   H6Y 1160   0.920   1.203   7.328 -0.6650  3.0030  3.6182
    9SAPS   C37 1161   0.907   1.061   7.486 -0.0117  0.3162 -0.4371
    9SAPS   H7X 1162   1.011   1.023   7.475 -0.9649 -2.2140 -1.5235
    9SAPS   H7Y 1163   0.854   0.971   7.525  0.9540 -0.3692 -0.6580
    9SAPS   C38 1164   0.889   1.161   7.605 -0.4378 -0.2489 -0.5198
    9SAPS   H8X 1165   0.788   1.207   7.617 -0.5560 -0.3098 -1.2392
    9SAPS   H8Y 1166   0.969   1.234   7.582  0.3806 -1.2445 -0.8654
    9SAPS   C39 1167   0.916   1.092   7.737 -0.4359  0.4785 -0.6175
    9SAPS   H9X 1168   1.020   1.056   7.752 -0.3014  1.5035  1.1022
    9SAPS   H9Y 1169   0.858   0.997   7.738 -1.4594  1.0187 -2.3862
    9SAPS  C310 1170   0.891   1.189   7.853  0.0778 -0.4164  0.2707
    9SAPS  H10X 1171   0.801   1.254   7.851  1.7025  2.0805  1.9750
    9SAPS  H10Y 1172   0.976   1.260   7.846 -0.7965  0.5432 -1.0258
    9SAPS  C311 1173   0.896   1.114   7.981 -0.4425 -0.0441 -0.5450
    9SAPS  H11X 1174   0.985   1.048   7.992 -1.5441 -1.4371  0.3697
    9SAPS  H11Y 1175   0.820   1.032   7.980 -0.2972 -0.1820 -0.3791
    9SAPS  C312 1176   0.886   1.202   8.105 -0.1370  0.9883  0.4439
    9SAPS  H12X 1177   0.890   1.142   8.199 -0.4098  1.2645  0.6353
    9SAPS  H12Y 1178   0.782   1.241   8.103  0.7620  3.6902 -2.1677
    9SAPS  C313 1179   0.998   1.307   8.106  0.2061 -0.1700  0.3721
    9SAPS  H13X 1180   0.966   1.374   8.022 -1.2233 -1.9691 -0.5774
    9SAPS  H13Y 1181   1.098   1.270   8.075  0.9871  0.6723  1.7955
    9SAPS  C314 1182   0.997   1.387   8.235 -0.3072  0.1894 -0.0166
    9SAPS  H14X 1183   1.048   1.333   8.317 -3.7972 -0.9756  1.6108
    9SAPS  H14Y 1184   0.896   1.412   8.276 -0.1796  0.7838 -0.0470
    9SAPS  C315 1185   1.053   1.534   8.221  0.4179  0.1315  0.0021
    9SAPS  H15X 1186   0.975   1.594   8.169 -0.4325 -1.3625 -0.4928
    9SAPS  H15Y 1187   1.137   1.527   8.148 -0.2822 -0.2553 -0.7815
    9SAPS  C316 1188   1.098   1.587   8.357 -0.5174 -0.2095  0.6268
    9SAPS  H16X 1189   1.175   1.518   8.397  0.5419  0.2401 -0.5597
    9SAPS  H16Y 1190   1.014   1.561   8.424 -0.9923  1.0966  0.5801
    9SAPS  C317 1191   1.118   1.739   8.357 -0.2809 -0.7736 -0.3996
    9SAPS  H17X 1192   1.018   1.784   8.339  0.0124  0.4179  0.8230
    9SAPS  H17Y 1193   1.192   1.761   8.278  0.2138 -0.0981  0.2398
    9SAPS  C318 1194   1.154   1.799   8.499 -0.0240  0.0074  0.1664
    9SAPS  H18X 1195   1.264   1.791   8.511  0.2245  2.5774  0.1030
    9SAPS  H18Y 1196   1.092   1.737   8.568  1.0885 -1.1525  0.1593
    9SAPS  H18Z 1197   1.150   1.910   8.511  0.6602 -0.1606  2.5373
   10SAPS     N 1198   1.351   5.967   6.250  0.0428  0.0870  0.9000
   10SAPS   HN1 1199   1.367   5.949   6.149  0.0960  1.0509  0.7298
   10SAPS   HN2 1200   1.410   6.051   6.268 -0.0811  0.5227 -0.6302
   10SAPS   HN3 1201   1.397   5.890   6.304 -2.3568 -0.2210  2.6301
   10SAPS   C12 1202   1.213   5.986   6.301 -0.4458  0.2799 -0.6582
   10SAPS  H12A 1203   1.227   6.033   6.397  2.2820  0.6064 -1.1447
   10SAPS   C13 1204   1.118   6.069   6.217  0.0199  0.0530  0.0037
   10SAPS  O13A 1205   1.140   6.103   6.099 -0.5224 -0.0534 -0.5310
   10SAPS  O13B 1206   1.007   6.093   6.269  0.1035  0.2644  0.1484
   10SAPS   C11 1207   1.157   5.846   6.331 -0.2599  0.6081  0.0702
   10SAPS  H11A 1208   1.153   5.796   6.232  0.1996 -1.0712  0.8636
   10SAPS  H11B 1209   1.058   5.844   6.381  0.2828  1.5072  1.2165
   10SAPS     P 1210   1.205   5.661   6.510  0.0316  0.4345 -0.2351
   10SAPS   O13 1211   1.056   5.632   6.486 -0.2149  0.1567  0.0732
   10SAPS   O14 1212   1.305   5.552   6.488 -0.2216 -0.5279  0.1378
   10SAPS   O12 1213   1.246   5.770   6.411  0.5453 -1.1301  0.2568
   10SAPS   O11 1214   1.238   5.724   6.648  0.9739  0.1403 -0.6418
   10SAPS    C1 1215   1.371   5.754   6.687  0.3862 -0.5819  0.3370
   10SAPS    HA 1216   1.436   5.665   6.675 -0.2883 -1.3560  2.1092
   10SAPS    HB 1217   1.405   5.833   6.616 -1.2724  0.2567  0.4170
   10SAPS    C2 1218   1.378   5.812   6.829 -0.2827  0.0101  0.4411
   10SAPS    HS 1219   1.483   5.839   6.854 -0.8393  1.3429  1.5043
   10SAPS   O21 1220   1.339   5.708   6.918 -0.1037 -0.0658  0.3541
   10SAPS   C21 1221   1.438   5.621   6.944  0.5065  0.5598 -0.2850
   10SAPS   O22 1222   1.556   5.629   6.910  0.0823 -0.3064  0.1927
   10SAPS   C22 1223   1.387   5.510   7.034  0.0874  0.1548 -0.0622
   10SAPS   H2R 1224   1.276   5.514   7.032  0.1174  1.9121 -0.0328
   10SAPS   H2S 1225   1.412   5.414   6.984 -0.2183  0.9522 -1.8352
   10SAPS    C3 1226   1.288   5.940   6.855 -0.7315  0.1601  0.4401
   10SAPS    HX 1227   1.183   5.903   6.846 -0.5662 -0.2769  0.2695
   10SAPS    HY 1228   1.322   6.025   6.792  1.5696 -0.2794  1.0066
   10SAPS   O31 1229   1.311   5.981   6.986 -0.2310 -0.5641  0.7019
   10SAPS   C31 1230   1.231   6.083   7.025 -0.0849 -0.0224  0.6025
   10SAPS   O32 1231   1.158   6.144   6.946  0.1253  0.6927 -0.3592
   10SAPS   C32 1232   1.236   6.110   7.174 -0.0209  0.8303 -0.3759
   10SAPS   H2X 1233   1.164   6.049   7.233  1.0449  2.3674  2.7549
   10SAPS   H2Y 1234   1.200   6.213   7.196 -0.6101  0.4692  0.4040
   10SAPS   C23 1235   1.456   5.506   7.170 -1.0510  0.1013 -0.8252
   10SAPS   H3R 1236   1.565   5.496   7.154 -1.1761  0.5070 -2.1057
   10SAPS   H3S 1237   1.424   5.413   7.220 -0.0832 -0.7742 -1.7874
   10SAPS   C24 1238   1.421   5.624   7.254 -0.6143  0.5441  0.4770
   10SAPS   H4R 1239   1.312   5.634   7.238 -0.9234 -0.6978  1.6648
   10SAPS   H4S 1240   1.474   5.711   7.208 -2.0730 -0.3404 -3.2277
   10SAPS   C25 1241   1.437   5.624   7.404  0.1453  0.1206  0.0937
   10SAPS   H5R 1242   1.370   5.556   7.459 -1.1787  0.3499 -1.1730
   10SAPS   C26 1243   1.514   5.701   7.472 -0.1413  0.2393  0.0561
   10SAPS   H6R 1244   1.514   5.693   7.582 -1.8049 -1.6935 -0.0253
   10SAPS   C27 1245   1.610   5.807   7.437 -0.5142  0.3268  0.0414
   10SAPS   H7R 1246   1.614   5.886   7.515 -1.5528  0.2975  0.1350
   10SAPS   H7S 1247   1.576   5.864   7.349  1.1712 -0.2728 -1.0573
   10SAPS   C28 1248   1.743   5.747   7.414 -0.1467  0.0937  0.5513
   10SAPS   H8R 1249   1.750   5.690   7.321  2.4244  0.1054  0.6538
   10SAPS   C29 1250   1.856   5.758   7.496 -0.3778 -0.2917  0.0173
   10SAPS   H9R 1251   1.948   5.716   7.455 -0.4589 -2.2752  1.6997
   10SAPS  C210 1252   1.877   5.824   7.631 -0.2803  0.0639 -0.8236
   10SAPS  H10R 1253   1.957   5.770   7.686  1.8921  3.5939 -0.2510
   10SAPS  H10S 1254   1.786   5.805   7.692 -0.3671  3.3166  0.2673
   10SAPS  C211 1255   1.909   5.972   7.623 -0.4423 -0.0106  0.1165
   10SAPS  H11R 1256   1.881   6.015   7.526  1.8706  0.2532 -0.5031
   10SAPS  C212 1257   1.948   6.050   7.727  0.2478  0.5697 -0.4895
   10SAPS  H12R 1258   1.953   6.158   7.708 -1.1692  0.5587 -1.0507
   10SAPS  C213 1259   1.985   5.993   7.866 -0.3052 -0.0595  0.0677
   10SAPS  H13R 1260   2.096   5.997   7.874 -0.1932  0.1939 -1.3245
   10SAPS  H13S 1261   1.957   5.887   7.885  0.2252 -0.1188  0.5341
   10SAPS  C214 1262   1.921   6.092   7.965  0.0388 -0.7591 -0.0154
   10SAPS  H14R 1263   1.963   6.190   7.937  1.3929 -1.6809 -1.3821
   10SAPS  C215 1264   1.831   6.080   8.067  0.1325 -0.3550  0.8553
   10SAPS  H15R 1265   1.802   6.172   8.120  0.5596  0.0191  0.4472
   10SAPS  C216 1266   1.761   5.956   8.123 -0.0920 -0.4678  0.4005
   10SAPS  H16R 1267   1.778   5.865   8.061  2.1646 -0.5626  1.0478
   10SAPS  H16S 1268   1.655   5.988   8.115  0.9874  3.2325 -1.6099
   10SAPS  C217 1269   1.791   5.928   8.277 -0.6782  0.3777  0.2846
   10SAPS  H17R 1270   1.901   5.913   8.291 -0.6781 -0.4518 -0.5545
   10SAPS  H17S 1271   1.732   5.839   8.307  1.0350 -1.0876 -0.4809
   10SAPS  C218 1272   1.759   6.047   8.370  0.3074  1.0877  0.2928
   10SAPS  H18R 1273   1.659   6.091   8.348 -0.8718 -1.3601  0.3523
   10SAPS  H18S 1274   1.833   6.125   8.341  1.5816 -0.6286 -1.3877
   10SAPS  C219 1275   1.777   6.030   8.521  0.0358  0.5249  0.1861
   10SAPS  H19R 1276   1.691   5.980   8.571 -0.7869  1.5524 -0.1796
   10SAPS  H19S 1277   1.783   6.130   8.569  5.6455 -0.1411  1.5226
   10SAPS  C220 1278   1.905   5.965   8.567  0.3745 -0.5821  0.3615
   10SAPS  H20R 1279   1.927   5.980   8.675 -0.7047 -1.4800  0.7296
   10SAPS  H20S 1280   1.985   6.020   8.513 -0.6830  1.7705  1.0615
   10SAPS  H20T 1281   1.893   5.855   8.554 -0.2646 -0.2661 -2.3348
   10SAPS   C33 1282   1.377   6.103   7.235  0.4121 -0.1147  0.4429
   10SAPS   H3X 1283   1.451   6.170   7.186  0.7829 -1.4824 -0.9331
   10SAPS   H3Y 1284   1.409   5.997   7.222 -0.4981 -0.3350 -0.0155
   10SAPS   C34 1285   1.381   6.147   7.387 -0.8246 -0.3620 -0.0550
   10SAPS   H4X 1286   1.330   6.246   7.395 -0.0174  0.3819 -3.0589
   10SAPS   H4Y 1287   1.487   6.157   7.421 -0.8676  1.5569 -0.3744
   10SAPS   C35 1288   1.313   6.036   7.468  0.4202  0.0337  0.1128
   10SAPS   H5X 1289   1.356   5.935   7.452  0.7040  0.3821 -1.5445
   10SAPS   H5Y 1290   1.204   6.018   7.457  0.1507 -2.2722  4.4177
   10SAPS   C36 1291   1.335   6.049   7.619  0.5432 -0.8243  0.0346
   10SAPS   H6X 1292   1.307   6.152   7.651 -2.4600 -1.5542 -0.0361
   10SAPS   H6Y 1293   1.444   6.046   7.642  1.2029 -1.1731 -2.8349
   10SAPS   C37 1294   1.274   5.934   7.702 -0.4471 -0.3872  0.3396
   10SAPS   H7X 1295   1.307   5.831   7.680  0.8180 -0.4917  2.4266
   10SAPS   H7Y 1296   1.163   5.936   7.703 -0.4749 -0.0726 -1.0666
   10SAPS   C38 1297   1.313   5.955   7.849  0.0053 -0.5708 -0.0754
   10SAPS   H8X 1298   1.246   6.038   7.880 -2.2516 -0.6109 -4.0976
   10SAPS   H8Y 1299   1.418   5.987   7.860 -0.0369 -0.9160  1.6535
   10SAPS   C39 1300   1.302   5.835   7.946  0.4677 -0.2888  0.6094
   10SAPS   H9X 1301   1.361   5.751   7.903 -0.0478 -0.4413  0.1910
   10SAPS   H9Y 1302   1.196   5.806   7.961  0.4967 -1.2363 -0.7952
   10SAPS  C310 1303   1.369   5.858   8.085 -0.4670 -0.2228 -0.1875
   10SAPS  H10X 1304   1.320   5.942   8.140  1.9860  0.0183  1.8128
   10SAPS  H10Y 1305   1.476   5.886   8.076 -1.3376  2.9411 -2.4660
   10SAPS  C311 1306   1.351   5.745   8.190 -0.1296  0.2026  0.4410
   10SAPS  H11X 1307   1.245   5.712   8.184 -1.1302  2.1974  3.9891
   10SAPS  H11Y 1308   1.353   5.783   8.295  0.6352 -1.5898  1.1274
   10SAPS  C312 1309   1.460   5.635   8.184 -0.4597 -0.4933 -0.3941
   10SAPS  H12X 1310   1.559   5.678   8.208 -1.1694  0.3801  1.1868
   10SAPS  H12Y 1311   1.457   5.596   8.080 -1.3466  1.4505 -1.1315
   10SAPS  C313 1312   1.437   5.518   8.279 -0.3285 -0.7020 -0.2074
   10SAPS  H13X 1313   1.331   5.491   8.259 -1.2789 -0.0653  3.2827
   10SAPS  H13Y 1314   1.439   5.538   8.388 -0.1242 -0.5321 -0.2400
   10SAPS  C314 1315   1.531   5.404   8.238  0.3066 -0.1744  0.0349
   10SAPS  H14X 1316   1.634   5.440   8.258 -0.4091  0.3056  3.5350
   10SAPS  H14Y 1317   1.502   5.385   8.132 -0.9946 -1.2098  0.5378
   10SAPS  C315 1318   1.510   5.270   8.312  0.7420 -0.5569  0.5623
   10SAPS  H15X 1319   1.566   5.178   8.284  1.3322 -0.2519  0.7473
   10SAPS  H15Y 1320   1.401   5.256   8.295  0.2312  2.4848  0.8155
   10SAPS  C316 1321   1.542   5.264   8.462  0.2782 -0.0507 -0.6787
   10SAPS  H16X 1322   1.524   5.364   8.507  1.3381 -0.5205  0.8782
   10SAPS  H16Y 1323   1.643   5.228   8.492 -0.7454 -2.0749  0.5718
   10SAPS  C317 1324   1.447   5.165   8.532 -0.3526 -0.4234 -0.5892
   10SAPS  H17X 1325   1.456   5.060   8.499 -2.2330 -0.2876 -1.6334
   10SAPS  H17Y 1326   1.340   5.193   8.528 -1.0742 -2.4296  1.7569
   10SAPS  C318 1327   1.473   5.185   8.689 -1.2093  0.1827  0.0066
   10SAPS  H18X 1328   1.568   5.130   8.702 -1.1786 -0.2240 -1.6581
   10SAPS  H18Y 1329   1.403   5.124   8.751  0.7982  0.4173  2.6464
   10SAPS  H18Z 1330   1.486   5.284   8.737 -2.8816 -0.3212  1.6113
   11SAPS     N 1331   3.592   2.053   5.611  0.1198  0.0281 -0.5248
   11SAPS   HN1 1332   3.523   1.993   5.660 -1.1982  1.2526 -0.8047
   11SAPS   HN2 1333   3.613   2.142   5.662 -1.6254  0.8325 -1.1240
   11SAPS   HN3 1334   3.569   2.081   5.514 -0.5184  1.0220 -0.1057
   11SAPS   C12 1335   3.727   1.989   5.599 -0.5568  0.1948 -0.7885
   11SAPS  H12A 1336   3.718   1.895   5.546 -2.2813  1.2729 -2.5644
   11SAPS   C13 1337   3.830   2.091   5.529 -0.0977 -0.9372  0.7602
   11SAPS  O13A 1338   3.801   2.216   5.519 -0.1664 -0.3904  0.1698
   11SAPS  O13B 1339   3.939   2.050   5.477  0.2854 -0.4976  0.3289
   11SAPS   C11 1340   3.773   1.970   5.746  0.2477  0.3254 -0.7287
   11SAPS  H11A 1341   3.883   1.953   5.750 -0.2054 -3.2633 -0.0787
   11SAPS  H11B 1342   3.720   1.882   5.788 -3.3074  2.9648  0.9171
   11SAPS     P 1343   3.787   2.094   5.975 -0.0157  0.0075  0.1492
   11SAPS   O13 1344   3.934   2.096   5.983  0.2939 -0.3611  0.1273
   11SAPS   O14 1345   3.721   2.208   6.041  0.7318  0.7946  0.2200
   11SAPS   O12 1346   3.738   2.090   5.823  0.4241  0.2953 -0.3560
   11SAPS   O11 1347   3.743   1.961   6.038  0.4304 -0.3971 -0.1579
   11SAPS    C1 1348   3.598   1.944   6.068 -0.2025 -0.0944  0.4930
   11SAPS    HA 1349   3.533   2.021   6.022 -0.1003  0.6800  1.6055
   11SAPS    HB 1350   3.567   1.843   6.035 -0.0260 -0.2205  0.7143
   11SAPS    C2 1351   3.568   1.957   6.223  0.1885 -0.3178  0.8141
   11SAPS    HS 1352   3.607   2.053   6.264 -1.1312  0.7493 -0.3221
   11SAPS   O21 1353   3.615   1.843   6.299  0.1389  0.5876  0.4901
   11SAPS   C21 1354   3.743   1.850   6.348  0.1033  0.0607 -0.6861
   11SAPS   O22 1355   3.822   1.939   6.329 -0.8584  0.3379  0.0424
   11SAPS   C22 1356   3.754   1.735   6.450  0.3813 -0.3224 -0.2017
   11SAPS   H2R 1357   3.691   1.647   6.425 -1.4654  1.2770 -1.4481
   11SAPS   H2S 1358   3.858   1.696   6.452  0.1735 -0.8509  0.3265
   11SAPS    C3 1359   3.413   1.959   6.258 -0.5064  0.3014  0.0649
   11SAPS    HX 1360   3.388   1.851   6.265 -0.4598  0.2103 -1.0365
   11SAPS    HY 1361   3.372   2.004   6.165  0.8175  1.1251 -0.1520
   11SAPS   O31 1362   3.374   2.029   6.377  0.1199  0.3960  0.1479
   11SAPS   C31 1363   3.387   2.163   6.367 -0.4557 -0.2408  0.6574
   11SAPS   O32 1364   3.413   2.224   6.268 -0.2780 -0.1497 -0.0248
   11SAPS   C32 1365   3.357   2.213   6.505  0.0181  0.2638 -0.7097
   11SAPS   H2X 1366   3.404   2.149   6.583 -0.5207  1.3290  0.5088
   11SAPS   H2Y 1367   3.248   2.205   6.521  0.2395 -1.1893  0.3283
   11SAPS   C23 1368   3.727   1.791   6.593 -0.2240  0.0626 -0.4881
   11SAPS   H3R 1369   3.815   1.855   6.616  0.6623 -0.8355 -1.2516
   11SAPS   H3S 1370   3.749   1.707   6.662  0.8063 -1.5286 -2.6426
   11SAPS   C24 1371   3.597   1.854   6.622  0.2518  0.4159  0.2426
   11SAPS   H4R 1372   3.517   1.780   6.600  2.0581 -1.2814 -0.9795
   11SAPS   H4S 1373   3.593   1.941   6.553  3.6096 -0.2892 -1.0601
   11SAPS   C25 1374   3.587   1.903   6.766  0.4846 -0.0870 -0.1324
   11SAPS   H5R 1375   3.681   1.944   6.808 -0.9905 -1.7382  5.7393
   11SAPS   C26 1376   3.490   1.891   6.856 -0.2873  0.1898  0.4908
   11SAPS   H6R 1377   3.502   1.938   6.955 -1.2276  2.4462 -0.3856
   11SAPS   C27 1378   3.357   1.837   6.833  0.2942  0.2325 -0.1106
   11SAPS   H7R 1379   3.305   1.821   6.930 -0.4560  1.2245 -0.3338
   11SAPS   H7S 1380   3.362   1.734   6.791  1.2200  1.2938 -2.8040
   11SAPS   C28 1381   3.279   1.923   6.740  0.6301  0.4229  0.4207
   11SAPS   H8R 1382   3.308   1.930   6.634 -0.0537 -1.2862  0.0872
   11SAPS   C29 1383   3.180   2.010   6.769  0.1656 -0.2429  0.1567
   11SAPS   H9R 1384   3.139   2.049   6.675  0.7485 -2.9592 -1.3063
   11SAPS  C210 1385   3.123   2.046   6.906 -0.3033 -0.7944 -0.3301
   11SAPS  H10R 1386   3.160   1.981   6.987 -2.0680 -1.2506  0.1351
   11SAPS  H10S 1387   3.012   2.044   6.902 -0.3722  0.3046 -4.5116
   11SAPS  C211 1388   3.150   2.193   6.941 -0.1790  0.6902  0.1392
   11SAPS  H11R 1389   3.159   2.263   6.856  0.3023  0.1050 -0.3001
   11SAPS  C212 1390   3.188   2.242   7.062  0.2370  0.1708  0.0542
   11SAPS  H12R 1391   3.196   2.352   7.062  0.9873  0.1309 -0.8105
   11SAPS  C213 1392   3.203   2.170   7.194 -0.6416 -0.6896 -0.5575
   11SAPS  H13R 1393   3.256   2.251   7.249 -0.6063 -0.2921 -1.1665
   11SAPS  H13S 1394   3.270   2.081   7.189  0.9390  0.5009 -3.0508
   11SAPS  C214 1395   3.073   2.128   7.260  0.7729  0.4827  0.3510
   11SAPS  H14R 1396   3.019   2.051   7.202  2.5139  0.2701 -1.0995
   11SAPS  C215 1397   3.018   2.177   7.372  0.3401 -0.1191 -0.2653
   11SAPS  H15R 1398   2.911   2.152   7.379  0.4269 -0.8882 -1.4155
   11SAPS  C216 1399   3.068   2.275   7.465  0.2651  0.1149 -0.0982
   11SAPS  H16R 1400   2.987   2.346   7.488  0.5730  0.2664  0.5464
   11SAPS  H16S 1401   3.147   2.344   7.428 -0.4300  0.7750 -0.3540
   11SAPS  C217 1402   3.111   2.214   7.597 -0.0604 -0.4449 -0.4680
   11SAPS  H17R 1403   3.162   2.287   7.662 -1.5454 -0.7060  1.0707
   11SAPS  H17S 1404   3.190   2.137   7.586 -0.5699 -0.8599 -1.3248
   11SAPS  C218 1405   2.995   2.166   7.679  0.1050 -0.2693 -0.4951
   11SAPS  H18R 1406   2.942   2.086   7.623 -1.3065  1.5738 -1.9557
   11SAPS  H18S 1407   2.921   2.247   7.696 -0.9001 -1.5433  1.6036
   11SAPS  C219 1408   3.037   2.092   7.812  0.6036  0.7942 -0.2612
   11SAPS  H19R 1409   3.123   2.024   7.793  0.1316  0.7039 -2.2187
   11SAPS  H19S 1410   2.950   2.028   7.837  1.2404  0.1308  0.2857
   11SAPS  C220 1411   3.059   2.188   7.930  0.6439 -0.5971  0.3440
   11SAPS  H20R 1412   3.154   2.241   7.906 -0.8780  1.8258 -0.7272
   11SAPS  H20S 1413   3.070   2.129   8.024  0.4319 -0.8580  0.2067
   11SAPS  H20T 1414   2.979   2.265   7.926  1.7384  0.5512 -0.2072
   11SAPS   C33 1415   3.399   2.354   6.529  0.1202 -0.5235 -0.0716
   11SAPS   H3X 1416   3.346   2.414   6.452 -1.5092 -1.6657  0.1006
   11SAPS   H3Y 1417   3.508   2.375   6.528 -0.1772  1.1678 -1.4382
   11SAPS   C34 1418   3.338   2.418   6.658  0.2886  0.0438  0.0355
   11SAPS   H4X 1419   3.376   2.361   6.745 -0.7069 -1.3647 -0.4136
   11SAPS   H4Y 1420   3.228   2.402   6.655  0.1065  0.9095  1.2773
   11SAPS   C35 1421   3.362   2.564   6.681  0.7599 -0.2494 -0.1364
   11SAPS   H5X 1422   3.333   2.627   6.594 -3.0596 -0.4385  0.8172
   11SAPS   H5Y 1423   3.464   2.604   6.702 -0.0006  0.3560  2.9920
   11SAPS   C36 1424   3.276   2.618   6.801 -0.4849  0.4385  0.3068
   11SAPS   H6X 1425   3.183   2.557   6.801  0.2005 -0.6937 -1.3901
   11SAPS   H6Y 1426   3.255   2.725   6.781  2.5995  1.4821  2.0766
   11SAPS   C37 1427   3.351   2.586   6.935  0.0291  0.0327 -0.2341
   11SAPS   H7X 1428   3.453   2.630   6.937 -0.6977  1.7860  1.8115
   11SAPS   H7Y 1429   3.351   2.475   6.935  1.7877 -0.0038  0.8205
   11SAPS   C38 1430   3.272   2.628   7.057  0.3765  0.4140 -0.3519
   11SAPS   H8X 1431   3.181   2.565   7.064 -0.4016  1.5530 -0.0053
   11SAPS   H8Y 1432   3.243   2.735   7.059 -0.8362  0.0968 -0.2254
   11SAPS   C39 1433   3.350   2.598   7.193 -0.5899  0.5104  0.5189
   11SAPS   H9X 1434   3.440   2.663   7.190 -2.4154  3.1759 -2.2989
   11SAPS   H9Y 1435   3.385   2.492   7.187  1.6382  1.2081  0.1420
   11SAPS  C310 1436   3.263   2.621   7.317 -0.5372 -0.2253 -0.0331
   11SAPS  H10X 1437   3.169   2.562   7.319 -1.6804  1.5369 -0.4942
   11SAPS  H10Y 1438   3.235   2.728   7.322  0.6392  0.0554  0.9420
   11SAPS  C311 1439   3.349   2.587   7.441 -0.3653 -0.4942  0.4672
   11SAPS  H11X 1440   3.446   2.634   7.414 -1.8283  2.2403 -0.4065
   11SAPS  H11Y 1441   3.360   2.476   7.447 -1.0322 -0.6730 -1.2843
   11SAPS  C312 1442   3.306   2.644   7.576  0.1433  0.1636 -0.5016
   11SAPS  H12X 1443   3.205   2.605   7.600  0.1864  1.0864  1.3335
   11SAPS  H12Y 1444   3.312   2.755   7.567  2.0160  0.0172 -1.7055
   11SAPS  C313 1445   3.402   2.601   7.681 -0.5758 -0.0457 -0.1390
   11SAPS  H13X 1446   3.505   2.638   7.665 -0.9467  0.5716 -1.1703
   11SAPS  H13Y 1447   3.409   2.490   7.678 -0.1890 -0.0599  1.0585
   11SAPS  C314 1448   3.362   2.656   7.820  0.3909  0.2794  0.6544
   11SAPS  H14X 1449   3.270   2.598   7.843  1.5969 -2.1541 -0.2599
   11SAPS  H14Y 1450   3.344   2.765   7.818  3.3830  0.8888  1.6141
   11SAPS  C315 1451   3.467   2.636   7.927 -0.2295  0.4818 -0.2437
   11SAPS  H15X 1452   3.502   2.726   7.982 -1.5108 -0.7005  2.6960
   11SAPS  H15Y 1453   3.552   2.594   7.869 -0.8958 -1.4550  0.0833
   11SAPS  C316 1454   3.426   2.530   8.028  0.6396 -0.2657  0.1180
   11SAPS  H16X 1455   3.513   2.495   8.087  0.4227 -1.5664 -0.2845
   11SAPS  H16Y 1456   3.384   2.440   7.976 -1.5735  0.3032  0.7886
   11SAPS  C317 1457   3.324   2.570   8.131 -0.3941 -0.1671  0.0173
   11SAPS  H17X 1458   3.232   2.619   8.093 -0.4383  1.1345  1.6445
   11SAPS  H17Y 1459   3.359   2.649   8.201 -0.3808 -0.3288  0.1943
   11SAPS  C318 1460   3.292   2.446   8.222 -0.1196 -0.8933 -1.0149
   11SAPS  H18X 1461   3.232   2.371   8.167 -1.9464  0.2770 -0.7260
   11SAPS  H18Y 1462   3.221   2.487   8.297 -0.5679 -0.9545 -1.4062
   11SAPS  H18Z 1463   3.382   2.413   8.279 -0.9032  1.9312  2.2760
   12SAPS     N 1464   3.147   3.146   6.104  0.3022 -0.2701  0.4282
   12SAPS   HN1 1465   3.061   3.088   6.110 -0.3067  0.6759  1.0816
   12SAPS   HN2 1466   3.162   3.178   6.006  0.5211 -0.7427  0.3087
   12SAPS   HN3 1467   3.227   3.090   6.139  0.0810  0.6255  2.5294
   12SAPS   C12 1468   3.144   3.272   6.182 -0.4564 -0.3086 -0.6910
   12SAPS  H12A 1469   3.115   3.255   6.285  0.4497  0.6177 -0.2647
   12SAPS   C13 1470   3.278   3.342   6.190  0.5831 -0.6893  0.2736
   12SAPS  O13A 1471   3.376   3.301   6.133 -0.1600  0.1108 -0.0946
   12SAPS  O13B 1472   3.285   3.443   6.260 -0.2629 -0.3457 -0.4257
   12SAPS   C11 1473   3.044   3.372   6.119  0.7299  0.4306  0.2691
   12SAPS  H11A 1474   3.085   3.405   6.021  0.8722  1.7805  0.7653
   12SAPS  H11B 1475   3.030   3.452   6.195 -2.5179 -0.4936  0.7754
   12SAPS     P 1476   2.785   3.366   6.139 -0.1756  0.1440 -0.1093
   12SAPS   O13 1477   2.780   3.505   6.096  0.4893  0.3682 -0.2313
   12SAPS   O14 1478   2.677   3.281   6.092  0.9743  0.2469  0.0172
   12SAPS   O12 1479   2.922   3.302   6.093  0.0557 -0.0182  0.2673
   12SAPS   O11 1480   2.803   3.361   6.296 -0.4858  0.2809 -0.9404
   12SAPS    C1 1481   2.786   3.245   6.367  0.0258 -0.9166 -0.6769
   12SAPS    HA 1482   2.688   3.198   6.343 -1.1473  2.1434 -2.3787
   12SAPS    HB 1483   2.870   3.174   6.348  0.7459  0.0522 -1.2064
   12SAPS    C2 1484   2.801   3.282   6.524 -0.2292  0.4704  0.7717
   12SAPS    HS 1485   2.758   3.196   6.579 -1.2709  0.0098 -0.6754
   12SAPS   O21 1486   2.744   3.411   6.558 -0.3551  0.6217  0.4975
   12SAPS   C21 1487   2.622   3.446   6.525 -0.3242  0.3319  0.0574
   12SAPS   O22 1488   2.533   3.377   6.479  0.3739 -0.0545 -0.3624
   12SAPS   C22 1489   2.622   3.599   6.539  0.0680  0.0876 -0.2653
   12SAPS   H2R 1490   2.724   3.637   6.562 -0.6903  2.7802 -1.0500
   12SAPS   H2S 1491   2.592   3.638   6.439 -1.6758 -0.4719  0.0044
   12SAPS    C3 1492   2.949   3.286   6.573  0.4265  0.2805 -0.1012
   12SAPS    HX 1493   3.002   3.368   6.518  0.6679  0.7637  0.8248
   12SAPS    HY 1494   2.995   3.186   6.557 -0.3025 -0.1100  0.2239
   12SAPS   O31 1495   2.942   3.309   6.716  0.0206 -0.1494  0.4324
   12SAPS   C31 1496   2.968   3.430   6.754 -0.4538  0.4962  0.1679
   12SAPS   O32 1497   3.028   3.515   6.685 -0.5520  0.2411  0.2365
   12SAPS   C32 1498   2.918   3.450   6.898 -0.7046 -0.8910  0.4997
   12SAPS   H2X 1499   2.893   3.351   6.941 -3.5419 -0.9802 -1.0889
   12SAPS   H2Y 1500   2.826   3.512   6.885  0.2564  0.4577 -0.0970
   12SAPS   C23 1501   2.535   3.656   6.655  0.6917  0.2000  0.3139
   12SAPS   H3R 1502   2.435   3.607   6.644 -0.4822  1.8991  2.6604
   12SAPS   H3S 1503   2.505   3.762   6.643 -0.6857 -0.2808 -0.8697
   12SAPS   C24 1504   2.588   3.611   6.789  0.2096 -0.5177  0.3714
   12SAPS   H4R 1505   2.677   3.673   6.818 -0.6123  0.1870  1.4646
   12SAPS   H4S 1506   2.621   3.505   6.791  0.2786 -0.4927  0.6942
   12SAPS   C25 1507   2.484   3.631   6.899  0.1370  0.1013 -0.1587
   12SAPS   H5R 1508   2.385   3.603   6.861  0.7667 -1.5504 -0.6487
   12SAPS   C26 1509   2.501   3.693   7.018 -0.2472 -0.3138  0.1797
   12SAPS   H6R 1510   2.411   3.707   7.080 -1.1978 -0.3798 -1.1473
   12SAPS   C27 1511   2.627   3.765   7.067 -0.3441  0.1152  0.0882
   12SAPS   H7R 1512   2.629   3.857   7.005 -0.6366 -0.8583 -1.4279
   12SAPS   H7S 1513   2.727   3.717   7.063 -0.2654  0.2782  0.1334
   12SAPS   C28 1514   2.607   3.818   7.209 -0.4316 -0.4885  0.1300
   12SAPS   H8R 1515   2.606   3.926   7.227  2.2766 -0.1653 -1.2557
   12SAPS   C29 1516   2.593   3.733   7.322 -0.1534 -0.6799 -0.1366
   12SAPS   H9R 1517   2.576   3.780   7.420 -1.8486 -0.8111 -0.3352
   12SAPS  C210 1518   2.598   3.581   7.324 -0.9123 -0.2836  0.2795
   12SAPS  H10R 1519   2.688   3.557   7.384 -0.3398  0.9506 -0.0413
   12SAPS  H10S 1520   2.617   3.533   7.225  1.2386  0.3752  0.3055
   12SAPS  C211 1521   2.477   3.525   7.382  0.1246 -0.2476  0.6338
   12SAPS  H11R 1522   2.386   3.540   7.322 -0.0311 -1.7520  0.4505
   12SAPS  C212 1523   2.449   3.484   7.507 -0.1264 -0.0584 -0.3468
   12SAPS  H12R 1524   2.354   3.431   7.525  0.7190 -1.0136  1.7077
   12SAPS  C213 1525   2.538   3.501   7.631  0.3462  0.5376  0.0612
   12SAPS  H13R 1526   2.639   3.545   7.616  1.2010 -1.6747 -1.2139
   12SAPS  H13S 1527   2.574   3.401   7.661  0.9021  1.2349  1.8632
   12SAPS  C214 1528   2.469   3.579   7.740  0.3126  0.0409 -0.1177
   12SAPS  H14R 1529   2.367   3.609   7.714  0.1623 -1.2673 -1.1781
   12SAPS  C215 1530   2.513   3.598   7.860  0.4478  0.3906 -0.6484
   12SAPS  H15R 1531   2.450   3.654   7.931 -0.0151 -0.3159 -0.4880
   12SAPS  C216 1532   2.651   3.560   7.907  0.2766  0.4503  0.4169
   12SAPS  H16R 1533   2.724   3.625   7.855  1.5040 -1.7067 -0.6988
   12SAPS  H16S 1534   2.672   3.453   7.886 -1.4310 -0.0163  0.9226
   12SAPS  C217 1535   2.654   3.556   8.062 -0.3839  0.3625  0.3671
   12SAPS  H17R 1536   2.580   3.481   8.099  1.4151 -1.3847  0.6152
   12SAPS  H17S 1537   2.625   3.658   8.096 -0.1229  1.2700 -1.9735
   12SAPS  C218 1538   2.789   3.502   8.112  0.1818 -0.8290 -0.0766
   12SAPS  H18R 1539   2.871   3.565   8.071  0.4491 -1.7842 -1.0605
   12SAPS  H18S 1540   2.799   3.397   8.078  0.3284 -0.8403  0.0031
   12SAPS  C219 1541   2.804   3.522   8.263  0.5027 -0.3360  0.1817
   12SAPS  H19R 1542   2.727   3.462   8.316  0.7911 -0.2640  0.6877
   12SAPS  H19S 1543   2.808   3.631   8.283  1.2696 -0.0100 -1.5556
   12SAPS  C220 1544   2.941   3.461   8.298 -0.0787 -0.1413  0.1083
   12SAPS  H20R 1545   2.963   3.487   8.404 -2.6358  0.1471  0.6382
   12SAPS  H20S 1546   3.024   3.509   8.242  1.1392 -2.7665 -0.4664
   12SAPS  H20T 1547   2.949   3.353   8.275  1.4918 -0.1184  0.4494
   12SAPS   C33 1548   3.013   3.519   7.001 -0.0515 -0.0724 -0.1730
   12SAPS   H3X 1549   3.014   3.619   6.954 -0.4555 -1.1859 -2.6956
   12SAPS   H3Y 1550   3.117   3.480   6.995  0.2344  0.9176 -2.5650
   12SAPS   C34 1551   2.951   3.530   7.138  0.7471  0.3346  0.1097
   12SAPS   H4X 1552   2.966   3.430   7.184 -1.3682 -0.7680 -1.4166
   12SAPS   H4Y 1553   2.842   3.551   7.135  0.9467  1.3565 -2.4939
   12SAPS   C35 1554   3.002   3.649   7.210  0.2649 -0.8896 -0.1111
   12SAPS   H5X 1555   2.958   3.740   7.163  1.0167  0.5855  1.8933
   12SAPS   H5Y 1556   3.112   3.654   7.220  0.2471  2.9871 -0.2070
   12SAPS   C36 1557   2.963   3.686   7.362  0.1683 -0.1302 -0.1895
   12SAPS   H6X 1558   2.853   3.702   7.367  0.0587 -0.4651 -1.2719
   12SAPS   H6Y 1559   3.005   3.780   7.402 -1.9830 -0.3449  2.9517
   12SAPS   C37 1560   3.012   3.579   7.462 -0.9412 -0.1938 -0.0575
   12SAPS   H7X 1561   3.115   3.548   7.436 -1.2704 -1.4748  0.0858
   12SAPS   H7Y 1562   2.959   3.481   7.458  2.3961 -2.4079  3.1325
   12SAPS   C38 1563   3.008   3.627   7.606  0.1543  0.6402  0.3595
   12SAPS   H8X 1564   2.909   3.671   7.630 -0.6130 -0.9828  0.3228
   12SAPS   H8Y 1565   3.075   3.715   7.619 -1.5776  2.1518 -0.4597
   12SAPS   C39 1566   3.030   3.515   7.711  0.1097  0.2481  0.2267
   12SAPS   H9X 1567   3.106   3.438   7.685  0.1249  1.1027 -2.6477
   12SAPS   H9Y 1568   2.944   3.447   7.730  2.1726 -3.2258 -1.6817
   12SAPS  C310 1569   3.079   3.579   7.839 -0.3759 -0.3366 -0.3735
   12SAPS  H10X 1570   3.008   3.653   7.882  1.4431  1.3381 -0.1281
   12SAPS  H10Y 1571   3.162   3.644   7.806  1.2179 -2.2808 -0.3532
   12SAPS  C311 1572   3.137   3.479   7.941  0.2478 -0.3643  0.1157
   12SAPS  H11X 1573   3.200   3.408   7.884 -1.0738 -1.2029 -0.3307
   12SAPS  H11Y 1574   3.053   3.419   7.982 -2.9847  2.5579 -1.7111
   12SAPS  C312 1575   3.225   3.541   8.049  0.5201 -0.2885 -0.7211
   12SAPS  H12X 1576   3.152   3.606   8.102 -0.3005 -0.4005 -1.6835
   12SAPS  H12Y 1577   3.306   3.610   8.019 -0.6385  1.0177 -0.9627
   12SAPS  C313 1578   3.283   3.439   8.142 -0.4353 -0.2897  0.5093
   12SAPS  H13X 1579   3.352   3.373   8.084 -0.5945 -0.5425  0.6060
   12SAPS  H13Y 1580   3.200   3.378   8.182 -2.2244  2.4727  1.2489
   12SAPS  C314 1581   3.351   3.494   8.274  0.1758 -0.1829  0.7097
   12SAPS  H14X 1582   3.307   3.595   8.292 -1.4966  0.1778 -3.8243
   12SAPS  H14Y 1583   3.458   3.515   8.253  0.0747 -1.0831 -0.9260
   12SAPS  C315 1584   3.341   3.389   8.387 -0.3329  0.2466 -0.0302
   12SAPS  H15X 1585   3.353   3.284   8.353 -1.1374  0.1862 -0.1353
   12SAPS  H15Y 1586   3.239   3.412   8.424  0.1545  3.9173 -0.6259
   12SAPS  C316 1587   3.451   3.394   8.498 -0.0808  0.1585 -0.1001
   12SAPS  H16X 1588   3.446   3.498   8.536 -0.2071 -0.8706  3.0111
   12SAPS  H16Y 1589   3.553   3.381   8.457  0.7639 -0.7735  2.1344
   12SAPS  C317 1590   3.423   3.300   8.614 -0.3098 -0.1334 -0.6853
   12SAPS  H17X 1591   3.401   3.196   8.582 -1.0351  0.7825 -3.4676
   12SAPS  H17Y 1592   3.336   3.329   8.676  0.5036  0.8733  0.0255
   12SAPS  C318 1593   3.542   3.302   8.713  1.3198  0.5336  0.4130
   12SAPS  H18X 1594   3.553   3.395   8.772  0.4878  0.1560  1.1871
   12SAPS  H18Y 1595   3.625   3.284   8.641 -0.4838 -0.2372 -1.5920
   12SAPS  H18Z 1596   3.541   3.210   8.775  1.8278 -0.3051 -0.7751
   13SAPS     N 1597   3.553   1.346   6.153 -0.7750 -0.1490  0.5708
   13SAPS   HN1 1598   3.554   1.374   6.053 -0.2757 -1.1983  0.2661
   13SAPS   HN2 1599   3.462   1.368   6.199 -1.5176  1.9649 -1.6956
   13SAPS   HN3 1600   3.629   1.399   6.199  0.2431 -0.4109 -0.7495
   13SAPS   C12 1601   3.612   1.203   6.165  0.3844  0.3316 -0.4980
   13SAPS  H12A 1602   3.543   1.137   6.113 -0.1382  0.3585  0.1444
   13SAPS   C13 1603   3.758   1.193   6.116  0.1367 -0.1023 -0.8006
   13SAPS  O13A 1604   3.831   1.287   6.118 -0.3181  0.2357 -0.7298
   13SAPS  O13B 1605   3.799   1.075   6.100 -0.4199 -0.6991 -0.0242
   13SAPS   C11 1606   3.601   1.150   6.311 -0.5324  0.2637 -0.4258
   13SAPS  H11A 1607   3.630   1.227   6.385 -2.2017  0.0409  0.5072
   13SAPS  H11B 1608   3.666   1.061   6.327 -1.2466 -0.0582  0.8201
   13SAPS     P 1609   3.416   0.975   6.359  0.4646  0.0141 -0.1226
   13SAPS   O13 1610   3.270   0.970   6.341 -0.2387  0.7561 -0.8905
   13SAPS   O14 1611   3.494   0.903   6.258 -0.6370 -0.1651  0.4539
   13SAPS   O12 1612   3.466   1.125   6.347 -0.0599 -0.0968 -0.1289
   13SAPS   O11 1613   3.464   0.921   6.502  0.1801  0.5794 -0.0915
   13SAPS    C1 1614   3.512   1.018   6.600  0.4644  0.5637  0.8568
   13SAPS    HA 1615   3.619   1.043   6.586  0.5854  0.4684  1.5812
   13SAPS    HB 1616   3.465   1.118   6.593  0.3199  0.4117 -0.7744
   13SAPS    C2 1617   3.504   0.964   6.748  0.1507 -0.5048  0.3264
   13SAPS    HS 1618   3.537   1.046   6.814  0.3955  0.8102 -1.3693
   13SAPS   O21 1619   3.581   0.846   6.767 -0.2110  0.0524  0.2124
   13SAPS   C21 1620   3.717   0.861   6.792 -0.6267 -0.1675 -0.1876
   13SAPS   O22 1621   3.786   0.954   6.751  0.2207 -0.3318 -0.5708
   13SAPS   C22 1622   3.767   0.736   6.860  0.0309 -0.3622 -0.0285
   13SAPS   H2R 1623   3.685   0.678   6.908 -0.9263  1.4084  0.5632
   13SAPS   H2S 1624   3.820   0.685   6.777  0.9202  1.9040 -0.9304
   13SAPS    C3 1625   3.357   0.927   6.795 -0.3109  0.6929 -0.0438
   13SAPS    HX 1626   3.358   0.903   6.904  1.1533  3.5328  0.6540
   13SAPS    HY 1627   3.313   0.840   6.741  0.3337 -0.0155  0.5303
   13SAPS   O31 1628   3.272   1.044   6.791  0.1679  0.1237  0.1662
   13SAPS   C31 1629   3.158   1.025   6.715  0.0324 -0.2945  0.8398
   13SAPS   O32 1630   3.134   0.925   6.648 -0.2297 -0.0529  0.0302
   13SAPS   C32 1631   3.069   1.148   6.728  0.5702  0.8542  0.1132
   13SAPS   H2X 1632   3.068   1.200   6.629 -1.6666 -1.8519 -1.4436
   13SAPS   H2Y 1633   3.102   1.214   6.811 -0.6716 -0.2611  1.5443
   13SAPS   C23 1634   3.882   0.771   6.963  0.1486  0.1898 -0.0523
   13SAPS   H3R 1635   3.950   0.848   6.920 -1.0373  1.5996  0.5132
   13SAPS   H3S 1636   3.954   0.686   6.973  0.9691  0.9777  0.9177
   13SAPS   C24 1637   3.839   0.830   7.099  0.5783  0.2209 -0.4685
   13SAPS   H4R 1638   3.779   0.922   7.080 -0.2347 -0.2672 -0.3278
   13SAPS   H4S 1639   3.924   0.863   7.161 -0.1813 -0.7075  1.1304
   13SAPS   C25 1640   3.756   0.735   7.179  0.5119 -1.0547 -0.0619
   13SAPS   H5R 1641   3.650   0.735   7.152  0.5294 -0.0935 -0.1742
   13SAPS   C26 1642   3.797   0.656   7.281 -0.3619  0.0652  0.9811
   13SAPS   H6R 1643   3.726   0.607   7.349 -0.8064 -0.5667  0.0795
   13SAPS   C27 1644   3.944   0.640   7.319  1.0882 -0.0427 -0.1475
   13SAPS   H7R 1645   4.002   0.730   7.290 -1.2454  1.1044 -1.5802
   13SAPS   H7S 1646   3.982   0.551   7.265  1.0587  0.0016 -0.2412
   13SAPS   C28 1647   3.955   0.615   7.471 -0.5571  0.4807 -0.2979
   13SAPS   H8R 1648   3.866   0.613   7.535  0.5877  2.3408  1.4570
   13SAPS   C29 1649   4.071   0.587   7.530  0.3305 -0.4119  0.2506
   13SAPS   H9R 1650   4.073   0.582   7.640  1.0567  0.8371  0.3194
   13SAPS  C210 1651   4.210   0.578   7.476  0.3579 -0.3738  0.3625
   13SAPS  H10R 1652   4.223   0.593   7.367 -1.6208  0.9405  0.2591
   13SAPS  H10S 1653   4.251   0.476   7.485  0.3002 -0.4303 -0.0272
   13SAPS  C211 1654   4.301   0.680   7.541 -0.0643 -0.1341 -0.8866
   13SAPS  H11R 1655   4.296   0.777   7.490 -0.6433 -0.0730 -0.7205
   13SAPS  C212 1656   4.383   0.661   7.646 -0.7368  0.0683  0.3340
   13SAPS  H12R 1657   4.458   0.735   7.676  0.8312 -0.1838 -2.5402
   13SAPS  C213 1658   4.383   0.534   7.722 -0.4726 -0.1596 -0.4870
   13SAPS  H13R 1659   4.286   0.479   7.718  0.6315 -2.5127  2.0064
   13SAPS  H13S 1660   4.400   0.556   7.830  1.7656  1.2439 -1.0680
   13SAPS  C214 1661   4.482   0.437   7.669 -0.6450 -0.3542 -0.3811
   13SAPS  H14R 1662   4.518   0.427   7.566  6.0300 -0.5136  1.4787
   13SAPS  C215 1663   4.541   0.355   7.749 -0.2654  0.4798  0.5081
   13SAPS  H15R 1664   4.619   0.287   7.713 -1.1971 -0.7697  0.7517
   13SAPS  C216 1665   4.519   0.347   7.899  0.0153  0.1058  0.6485
   13SAPS  H16R 1666   4.538   0.243   7.934  0.0681 -0.2921 -0.4907
   13SAPS  H16S 1667   4.415   0.374   7.926 -0.5275 -0.1850 -0.9811
   13SAPS  C217 1668   4.591   0.453   7.983 -0.3208 -0.5134 -0.2493
   13SAPS  H17R 1669   4.576   0.552   7.935  1.1027 -0.1495  0.0118
   13SAPS  H17S 1670   4.700   0.436   7.976  0.2457  2.6057 -0.5070
   13SAPS  C218 1671   4.535   0.448   8.124 -0.2847 -0.5286 -0.0941
   13SAPS  H18R 1672   4.555   0.347   8.166 -0.6985 -0.1696  0.9953
   13SAPS  H18S 1673   4.424   0.449   8.121 -0.3091 -1.8118 -0.4487
   13SAPS  C219 1674   4.603   0.543   8.220 -0.2663  0.7155  0.8577
   13SAPS  H19R 1675   4.553   0.642   8.206 -2.9366 -0.7020 -0.5197
   13SAPS  H19S 1676   4.704   0.552   8.176  0.0422 -3.3271  0.3193
   13SAPS  C220 1677   4.588   0.489   8.361 -0.5465  0.2747  0.6812
   13SAPS  H20R 1678   4.599   0.566   8.441  1.4810  0.2505  0.4849
   13SAPS  H20S 1679   4.665   0.413   8.387  0.4693  1.6704  1.9713
   13SAPS  H20T 1680   4.488   0.444   8.377  0.4042 -1.5243  1.8704
   13SAPS   C33 1681   2.926   1.101   6.768 -0.8786 -0.1542  0.6492
   13SAPS   H3X 1682   2.886   1.040   6.684  3.1422 -1.1559 -0.7406
   13SAPS   H3Y 1683   2.863   1.192   6.778 -1.3124 -0.6896  3.8379
   13SAPS   C34 1684   2.922   1.029   6.898 -0.0124  0.3352 -0.6148
   13SAPS   H4X 1685   2.992   0.942   6.899  0.2206  0.4951  1.2049
   13SAPS   H4Y 1686   2.824   0.980   6.914 -0.1069  1.3315  2.4240
   13SAPS   C35 1687   2.957   1.120   7.016 -0.7108  0.2133  0.5652
   13SAPS   H5X 1688   2.911   1.219   6.997 -1.2795  0.2202  1.8278
   13SAPS   H5Y 1689   3.064   1.149   7.014 -0.9168  1.0300  1.0139
   13SAPS   C36 1690   2.907   1.068   7.151  0.4023  0.1308 -0.5047
   13SAPS   H6X 1691   2.948   0.970   7.183 -1.9462 -0.8588 -0.3147
   13SAPS   H6Y 1692   2.798   1.049   7.137  0.3077 -0.0681  0.4111
   13SAPS   C37 1693   2.931   1.170   7.269 -0.4553  0.5124 -0.2183
   13SAPS   H7X 1694   2.842   1.173   7.335 -0.8364 -0.9606 -0.6293
   13SAPS   H7Y 1695   2.943   1.269   7.220  2.4956 -0.1272 -0.9339
   13SAPS   C38 1696   3.065   1.148   7.343 -0.8211  0.1878  0.0997
   13SAPS   H8X 1697   3.143   1.223   7.319 -1.7015  1.5484  1.3044
   13SAPS   H8Y 1698   3.117   1.054   7.314 -1.3433  0.4162 -1.7143
   13SAPS   C39 1699   3.051   1.144   7.495 -0.4764 -0.8943 -1.1056
   13SAPS   H9X 1700   2.971   1.071   7.522  0.2849 -1.9594 -1.6346
   13SAPS   H9Y 1701   3.003   1.241   7.518 -2.9780 -2.0482 -1.2035
   13SAPS  C310 1702   3.185   1.131   7.578 -0.0081  0.2348  0.2456
   13SAPS  H10X 1703   3.235   1.228   7.559 -0.8160  0.3391 -1.5443
   13SAPS  H10Y 1704   3.249   1.051   7.538 -1.0602  0.4245 -1.9680
   13SAPS  C311 1705   3.143   1.116   7.723  0.5530  0.2644 -0.0458
   13SAPS  H11X 1706   3.067   1.040   7.750  2.2376 -0.7246  2.2038
   13SAPS  H11Y 1707   3.096   1.211   7.758  2.6346  0.0308  3.9163
   13SAPS  C312 1708   3.254   1.104   7.818 -0.2954  0.2713  0.1685
   13SAPS  H12X 1709   3.316   1.196   7.809 -1.5037  0.9246 -2.4666
   13SAPS  H12Y 1710   3.308   1.010   7.792  0.7745  1.0552 -0.5114
   13SAPS  C313 1711   3.225   1.098   7.964 -0.3506 -0.0003  0.3758
   13SAPS  H13X 1712   3.310   1.059   8.024  0.0547 -1.3407 -0.9850
   13SAPS  H13Y 1713   3.134   1.035   7.979 -1.6593  1.6027 -0.5042
   13SAPS  C314 1714   3.186   1.233   8.025 -0.1999 -0.1458  1.0033
   13SAPS  H14X 1715   3.089   1.259   7.979 -0.9267 -2.3440  1.1943
   13SAPS  H14Y 1716   3.260   1.310   7.994  0.9309 -1.9027 -0.8869
   13SAPS  C315 1717   3.167   1.213   8.178  0.6554  0.6032 -0.4847
   13SAPS  H15X 1718   3.185   1.105   8.198 -1.2302  0.3981  0.3254
   13SAPS  H15Y 1719   3.064   1.246   8.206  0.2961 -0.8671  0.0134
   13SAPS  C316 1720   3.260   1.298   8.271 -0.6114  0.6347 -0.1725
   13SAPS  H16X 1721   3.358   1.317   8.222  0.1439 -0.8190  0.7093
   13SAPS  H16Y 1722   3.288   1.244   8.363 -0.3757  0.5564 -0.2876
   13SAPS  C317 1723   3.198   1.437   8.296 -0.5592 -0.0229 -0.2867
   13SAPS  H17X 1724   3.089   1.417   8.306 -0.3696  0.1159  3.1958
   13SAPS  H17Y 1725   3.226   1.499   8.208 -1.4208  2.5923  1.1789
   13SAPS  C318 1726   3.251   1.496   8.425 -0.2489  0.6261  0.7712
   13SAPS  H18X 1727   3.362   1.502   8.421 -0.0965 -1.1753  1.3667
   13SAPS  H18Y 1728   3.222   1.437   8.515 -0.8687 -0.1778  0.0518
   13SAPS  H18Z 1729   3.210   1.597   8.442  0.7883  1.1716  0.1404
   14SAPS     N 1730   2.800   2.512   5.816 -0.1357  0.7366 -0.1304
   14SAPS   HN1 1731   2.738   2.485   5.894  1.3031 -1.5595  0.2976
   14SAPS   HN2 1732   2.844   2.418   5.815  0.6064  1.0133  2.0339
   14SAPS   HN3 1733   2.877   2.577   5.842  1.3202 -0.1432 -1.9552
   14SAPS   C12 1734   2.742   2.540   5.687  0.1514 -0.5604  0.0945
   14SAPS  H12A 1735   2.684   2.629   5.705  2.4251  0.7431  1.4455
   14SAPS   C13 1736   2.830   2.556   5.561 -0.1698 -0.3801  0.9159
   14SAPS  O13A 1737   2.958   2.568   5.578  0.4304 -0.1301  0.4514
   14SAPS  O13B 1738   2.774   2.594   5.458 -0.1605 -0.1703 -0.0908
   14SAPS   C11 1739   2.636   2.431   5.647 -0.3536  0.0922 -0.0168
   14SAPS  H11A 1740   2.694   2.337   5.658 -0.1943  0.2941  0.9591
   14SAPS  H11B 1741   2.592   2.450   5.547  1.0220  0.6297 -0.5501
   14SAPS     P 1742   2.448   2.299   5.778  0.0914 -0.1664 -0.0670
   14SAPS   O13 1743   2.346   2.298   5.675  0.1721  0.0615  1.0882
   14SAPS   O14 1744   2.536   2.178   5.791 -0.1501  0.3361  0.5139
   14SAPS   O12 1745   2.540   2.431   5.748 -0.0786  0.1986  0.2006
   14SAPS   O11 1746   2.371   2.332   5.908  0.1934 -0.0738 -1.0991
   14SAPS    C1 1747   2.330   2.467   5.953 -0.5451 -0.7139  0.0018
   14SAPS    HA 1748   2.278   2.520   5.871  0.2904  1.8162  1.0254
   14SAPS    HB 1749   2.254   2.463   6.034  0.8809  3.0291  1.6994
   14SAPS    C2 1750   2.438   2.565   6.002  0.2179 -0.6795  0.1142
   14SAPS    HS 1751   2.515   2.569   5.922 -0.2860  1.3092 -0.3244
   14SAPS   O21 1752   2.491   2.512   6.125  0.4904 -0.1157  0.1410
   14SAPS   C21 1753   2.590   2.429   6.116  0.4663 -0.6252  0.4004
   14SAPS   O22 1754   2.673   2.428   6.026 -0.4903  0.8973  0.4589
   14SAPS   C22 1755   2.592   2.353   6.241 -0.2507  0.1095 -0.3267
   14SAPS   H2R 1756   2.675   2.280   6.253 -1.3375 -1.1813 -0.5020
   14SAPS   H2S 1757   2.606   2.417   6.332 -0.1522  1.7134 -1.4267
   14SAPS    C3 1758   2.390   2.709   6.025  0.3048  0.1799 -0.6564
   14SAPS    HX 1759   2.287   2.698   6.065  0.3248 -1.5416 -1.0230
   14SAPS    HY 1760   2.389   2.756   5.924 -0.5246  1.0982 -0.2390
   14SAPS   O31 1761   2.483   2.786   6.113  0.3356 -0.0110  0.0808
   14SAPS   C31 1762   2.410   2.868   6.186 -0.1878  0.0790 -0.1735
   14SAPS   O32 1763   2.298   2.900   6.166  0.6563  0.5928  0.3847
   14SAPS   C32 1764   2.511   2.936   6.281  0.1038  0.5184 -0.3182
   14SAPS   H2X 1765   2.505   3.045   6.260  0.6671  0.2829 -1.7995
   14SAPS   H2Y 1766   2.614   2.901   6.261 -0.0857 -0.6975  0.6926
   14SAPS   C23 1767   2.469   2.267   6.277  0.7559 -0.6590 -0.2808
   14SAPS   H3R 1768   2.371   2.315   6.254  0.8588 -1.1540 -1.8015
   14SAPS   H3S 1769   2.458   2.257   6.387 -1.4540 -0.9133 -0.4787
   14SAPS   C24 1770   2.480   2.125   6.222  0.2001  0.0658 -0.5216
   14SAPS   H4R 1771   2.576   2.072   6.241  0.0198 -0.5609 -1.2983
   14SAPS   H4S 1772   2.473   2.145   6.113 -0.2936  0.5554 -0.4068
   14SAPS   C25 1773   2.369   2.023   6.264 -0.9188  0.1624 -0.2535
   14SAPS   H5R 1774   2.301   2.004   6.180 -1.2925  2.6247 -0.5812
   14SAPS   C26 1775   2.347   1.957   6.378  0.2289  0.1345 -0.5246
   14SAPS   H6R 1776   2.264   1.886   6.385  0.4157 -0.0401 -0.0734
   14SAPS   C27 1777   2.428   1.961   6.503  0.1466  0.3703  0.1577
   14SAPS   H7R 1778   2.366   1.996   6.588  1.2140  1.9125  0.3398
   14SAPS   H7S 1779   2.513   2.032   6.491  1.4246 -0.9403  1.0505
   14SAPS   C28 1780   2.488   1.826   6.531 -0.7475 -0.5228  0.5942
   14SAPS   H8R 1781   2.488   1.748   6.453  1.0645 -0.9583  0.9686
   14SAPS   C29 1782   2.539   1.781   6.650 -0.1075 -0.1565  0.2388
   14SAPS   H9R 1783   2.572   1.676   6.649  0.5211 -0.0349 -2.8201
   14SAPS  C210 1784   2.563   1.860   6.777  0.0994 -0.2891 -0.0529
   14SAPS  H10R 1785   2.466   1.906   6.806 -0.1611 -0.6550 -0.3427
   14SAPS  H10S 1786   2.635   1.940   6.748 -0.1667 -0.2718 -0.6865
   14SAPS  C211 1787   2.629   1.787   6.889 -0.1900 -0.0093  0.2851
   14SAPS  H11R 1788   2.663   1.684   6.872  1.8950  0.5747  0.7260
   14SAPS  C212 1789   2.633   1.826   7.021 -0.0366  0.3329  0.4109
   14SAPS  H12R 1790   2.697   1.772   7.092 -1.1084  0.7478  1.7209
   14SAPS  C213 1791   2.575   1.955   7.062 -0.1976  0.0418  0.2347
   14SAPS  H13R 1792   2.488   1.929   7.125 -1.7697  0.4949 -1.6482
   14SAPS  H13S 1793   2.535   2.018   6.980  3.5830  1.1740 -0.9430
   14SAPS  C214 1794   2.669   2.050   7.134 -0.0943  0.1592 -0.2652
   14SAPS  H14R 1795   2.769   2.069   7.092  0.3419 -1.7962 -0.2121
   14SAPS  C215 1796   2.640   2.125   7.244 -0.5564  0.2751  0.0480
   14SAPS  H15R 1797   2.713   2.200   7.278  0.6356  0.5550 -2.8228
   14SAPS  C216 1798   2.516   2.127   7.323 -0.2350  0.5761 -0.2599
   14SAPS  H16R 1799   2.450   2.054   7.271 -2.6223  2.5279 -0.1912
   14SAPS  H16S 1800   2.470   2.228   7.311 -0.2685  0.6124  0.1657
   14SAPS  C217 1801   2.534   2.082   7.466  0.1232  0.0787 -0.0092
   14SAPS  H17R 1802   2.574   1.979   7.476 -0.3765 -0.0499  0.7788
   14SAPS  H17S 1803   2.427   2.074   7.496 -0.4051 -0.6750 -1.9490
   14SAPS  C218 1804   2.592   2.199   7.543  0.7370 -0.1053  0.2821
   14SAPS  H18R 1805   2.542   2.295   7.516 -0.7428 -0.6343  0.9954
   14SAPS  H18S 1806   2.699   2.213   7.519  0.4343  1.3186 -0.3542
   14SAPS  C219 1807   2.583   2.175   7.696  0.1341 -0.3637 -0.2888
   14SAPS  H19R 1808   2.670   2.118   7.733  1.7029  1.9370 -0.2021
   14SAPS  H19S 1809   2.491   2.116   7.717 -0.9586  1.5650  0.7108
   14SAPS  C220 1810   2.575   2.306   7.775  0.5870  0.0041  0.4201
   14SAPS  H20R 1811   2.611   2.297   7.880 -0.2857  1.8565  0.9148
   14SAPS  H20S 1812   2.475   2.354   7.763  0.9539  0.9430  1.0735
   14SAPS  H20T 1813   2.651   2.377   7.738  0.3925  0.2826  0.5559
   14SAPS   C33 1814   2.477   2.903   6.421  0.2080  0.9381 -0.1587
   14SAPS   H3X 1815   2.385   2.944   6.467  0.6017  0.4989  1.0431
   14SAPS   H3Y 1816   2.564   2.932   6.484  0.8599  0.1256 -0.6569
   14SAPS   C34 1817   2.485   2.746   6.446  0.0887  0.3123 -0.1189
   14SAPS   H4X 1818   2.591   2.712   6.439  0.1079  0.2430  0.5142
   14SAPS   H4Y 1819   2.433   2.686   6.369  0.6145 -0.1303 -0.1337
   14SAPS   C35 1820   2.419   2.712   6.584 -0.2320 -0.2001  0.0049
   14SAPS   H5X 1821   2.395   2.604   6.571 -0.4165 -0.0807 -0.6689
   14SAPS   H5Y 1822   2.323   2.766   6.595 -0.9719 -0.0185 -5.0647
   14SAPS   C36 1823   2.505   2.743   6.706 -0.4410  0.4453 -0.0841
   14SAPS   H6X 1824   2.526   2.852   6.700  1.7252  0.1920  1.5776
   14SAPS   H6Y 1825   2.602   2.690   6.695 -0.6281  0.4816 -2.4657
   14SAPS   C37 1826   2.443   2.715   6.846  0.4554  0.2462  0.1161
   14SAPS   H7X 1827   2.523   2.744   6.917 -0.7220  0.5080  1.3954
   14SAPS   H7Y 1828   2.425   2.605   6.842 -1.4136  0.5176  0.0713
   14SAPS   C38 1829   2.303   2.784   6.881  0.2421 -0.4480  0.2147
   14SAPS   H8X 1830   2.233   2.786   6.794  0.4990 -1.2323 -0.0179
   14SAPS   H8Y 1831   2.330   2.888   6.910 -1.4689 -0.2914  1.3329
   14SAPS   C39 1832   2.223   2.722   6.991  0.2772  0.0319 -0.1739
   14SAPS   H9X 1833   2.166   2.629   6.972 -0.4197  0.5686 -0.7217
   14SAPS   H9Y 1834   2.141   2.790   7.022 -0.9295 -1.7396  0.6896
   14SAPS  C310 1835   2.311   2.707   7.113 -0.4543  0.2936  0.1018
   14SAPS  H10X 1836   2.333   2.808   7.155 -0.7519 -0.4332  2.1427
   14SAPS  H10Y 1837   2.411   2.666   7.088 -0.4093  1.1864 -1.2909
   14SAPS  C311 1838   2.261   2.606   7.223 -0.4043 -0.6092 -0.0298
   14SAPS  H11X 1839   2.262   2.506   7.174 -1.9422 -0.9409  0.5626
   14SAPS  H11Y 1840   2.159   2.632   7.258 -0.0529  2.6812 -1.1343
   14SAPS  C312 1841   2.352   2.602   7.355 -0.3035  0.0568  0.0175
   14SAPS  H12X 1842   2.458   2.581   7.328 -0.9912 -2.2815 -1.0877
   14SAPS  H12Y 1843   2.322   2.520   7.423 -2.4175  0.0501 -0.8509
   14SAPS  C313 1844   2.342   2.737   7.429  0.8863  0.5175  0.0892
   14SAPS  H13X 1845   2.237   2.749   7.462  1.3351  4.6474  0.4963
   14SAPS  H13Y 1846   2.373   2.821   7.362  2.3354  0.4993  0.7184
   14SAPS  C314 1847   2.433   2.755   7.555  0.0913 -0.1059  0.8260
   14SAPS  H14X 1848   2.415   2.855   7.600  0.7872  0.8863 -0.9688
   14SAPS  H14Y 1849   2.537   2.747   7.515  0.0492  0.1970  0.6510
   14SAPS  C315 1850   2.414   2.649   7.654  0.6843  0.4333  0.1722
   14SAPS  H15X 1851   2.479   2.563   7.629  2.4128  1.7864 -0.1788
   14SAPS  H15Y 1852   2.310   2.617   7.677  0.8662  0.0559  0.4818
   14SAPS  C316 1853   2.454   2.690   7.795  0.0274  0.1280 -0.5404
   14SAPS  H16X 1854   2.546   2.752   7.797  0.1821 -0.1236  1.2055
   14SAPS  H16Y 1855   2.481   2.602   7.857  3.5689  2.1881  1.1661
   14SAPS  C317 1856   2.344   2.765   7.870 -0.3271  0.7665 -0.2306
   14SAPS  H17X 1857   2.253   2.702   7.862  0.4389 -0.7278  1.9166
   14SAPS  H17Y 1858   2.329   2.862   7.819 -0.9136  0.4889 -0.5968
   14SAPS  C318 1859   2.379   2.803   8.010 -0.2373 -0.5067 -0.8286
   14SAPS  H18X 1860   2.410   2.722   8.079 -0.5416 -1.3932 -1.7021
   14SAPS  H18Y 1861   2.294   2.853   8.062  0.1196 -1.2553  0.5239
   14SAPS  H18Z 1862   2.458   2.881   8.008 -2.7290  2.2190 -2.0173
   15SAPS     N 1863   3.661   2.449   5.901  0.5717 -0.1119 -0.7813
   15SAPS   HN1 1864   3.706   2.423   5.811 -1.8412 -1.3007 -1.7422
   15SAPS   HN2 1865   3.715   2.521   5.954  1.7880 -2.2943  1.1323
   15SAPS   HN3 1866   3.653   2.363   5.959  3.3607  0.0916  0.0667
   15SAPS   C12 1867   3.525   2.491   5.860  0.5508 -0.8215  0.7610
   15SAPS  H12A 1868   3.531   2.597   5.839 -0.6578 -1.3900 -3.5347
   15SAPS   C13 1869   3.462   2.427   5.729 -0.2369  0.1227  0.0710
   15SAPS  O13A 1870   3.509   2.317   5.690 -0.0221  0.1933  0.4873
   15SAPS  O13B 1871   3.343   2.454   5.704 -0.6220 -0.5421  0.7196
   15SAPS   C11 1872   3.425   2.457   5.967 -0.1630 -0.2206 -0.0815
   15SAPS  H11A 1873   3.417   2.353   6.003  1.5529 -0.4154 -0.1655
   15SAPS  H11B 1874   3.321   2.475   5.931 -1.1953 -0.9785  2.3768
   15SAPS     P 1875   3.346   2.673   6.097 -0.0764  0.3344  0.1677
   15SAPS   O13 1876   3.385   2.731   6.230 -0.7049  0.0512  0.2392
   15SAPS   O14 1877   3.353   2.764   5.980 -0.4697 -0.1443 -1.4420
   15SAPS   O12 1878   3.442   2.545   6.074 -0.3658  0.3286 -0.6505
   15SAPS   O11 1879   3.198   2.613   6.110 -0.3246  0.2588 -0.0107
   15SAPS    C1 1880   3.179   2.496   6.180 -0.9927  0.2192 -0.4025
   15SAPS    HA 1881   3.187   2.415   6.106 -0.4538  3.0448 -3.6873
   15SAPS    HB 1882   3.255   2.494   6.261 -2.2280  2.5973  0.9708
   15SAPS    C2 1883   3.038   2.489   6.249 -0.5778 -0.1656  0.1639
   15SAPS    HS 1884   2.968   2.536   6.176 -1.6746  0.8833  1.8170
   15SAPS   O21 1885   3.046   2.557   6.384  0.4472  0.1607 -0.2888
   15SAPS   C21 1886   3.010   2.683   6.380 -0.1942  0.0476 -0.5836
   15SAPS   O22 1887   2.970   2.750   6.292  0.1936  0.3231  0.2039
   15SAPS   C22 1888   3.014   2.727   6.539 -0.6099  0.4822  0.0535
   15SAPS   H2R 1889   2.977   2.645   6.603  0.4920 -0.5177 -0.5495
   15SAPS   H2S 1890   3.121   2.742   6.567 -0.4122 -1.2600  0.3291
   15SAPS    C3 1891   2.992   2.344   6.271  0.1064 -0.1885 -0.3312
   15SAPS    HX 1892   3.077   2.280   6.302 -0.1436 -0.4588 -0.1929
   15SAPS    HY 1893   2.967   2.320   6.165  1.3414  1.4261 -1.0324
   15SAPS   O31 1894   2.876   2.327   6.355  0.0340  0.7444 -0.1760
   15SAPS   C31 1895   2.908   2.287   6.483  0.5333  0.9354  0.1141
   15SAPS   O32 1896   3.020   2.257   6.522  0.2539  0.3797  0.5335
   15SAPS   C32 1897   2.777   2.269   6.563 -0.4612 -0.6912  0.3604
   15SAPS   H2X 1898   2.725   2.187   6.510  0.6029 -0.7290 -0.6646
   15SAPS   H2Y 1899   2.713   2.360   6.561  1.2702  0.6189 -2.4650
   15SAPS   C23 1900   2.926   2.851   6.555  0.6160 -0.3094  0.0902
   15SAPS   H3R 1901   2.819   2.822   6.556  1.1401 -2.3815  1.3069
   15SAPS   H3S 1902   2.944   2.925   6.473 -2.4854  3.4422  2.4530
   15SAPS   C24 1903   2.960   2.935   6.684  0.3034  0.2462  0.2613
   15SAPS   H4R 1904   2.887   3.019   6.693  1.8924  1.5725  1.1927
   15SAPS   H4S 1905   3.055   2.991   6.679  0.9110 -0.3072  3.5301
   15SAPS   C25 1906   2.973   2.851   6.805 -0.0781  0.3742  0.9275
   15SAPS   H5R 1907   3.034   2.761   6.786 -0.1591  0.6173 -0.6018
   15SAPS   C26 1908   2.918   2.879   6.922  0.6791  0.3419  0.0564
   15SAPS   H6R 1909   2.941   2.812   7.006 -0.6410 -1.5074 -1.0113
   15SAPS   C27 1910   2.835   3.001   6.955 -0.0720  0.2102 -0.6180
   15SAPS   H7R 1911   2.768   3.034   6.873 -0.1118  0.5936 -0.4334
   15SAPS   H7S 1912   2.901   3.083   6.991  0.3325 -0.6526  0.6877
   15SAPS   C28 1913   2.738   2.958   7.070 -0.1941 -0.0105  0.2167
   15SAPS   H8R 1914   2.678   2.872   7.035  1.2049  0.1057 -2.8224
   15SAPS   C29 1915   2.715   2.995   7.198 -0.2563 -0.3495  0.2564
   15SAPS   H9R 1916   2.632   2.958   7.260  0.6037  1.2695  2.5511
   15SAPS  C210 1917   2.798   3.095   7.260  0.7295 -0.8757 -0.6345
   15SAPS  H10R 1918   2.854   3.158   7.189 -0.5687  1.0157 -0.0622
   15SAPS  H10S 1919   2.867   3.035   7.322  0.7459  1.1909  1.4781
   15SAPS  C211 1920   2.711   3.186   7.344  0.6489 -0.2644 -0.0751
   15SAPS  H11R 1921   2.662   3.264   7.284 -0.5439  0.2533  1.5058
   15SAPS  C212 1922   2.700   3.192   7.482 -0.4135 -0.0890  0.9071
   15SAPS  H12R 1923   2.633   3.270   7.521  1.1560  1.5983  0.3818
   15SAPS  C213 1924   2.755   3.090   7.574 -0.4065  0.4737 -0.1795
   15SAPS  H13R 1925   2.845   3.136   7.623  0.0529 -1.7614  1.2070
   15SAPS  H13S 1926   2.810   3.008   7.522  0.2318  0.8243 -0.0749
   15SAPS  C214 1927   2.651   3.040   7.671 -0.4251  0.3234  0.4623
   15SAPS  H14R 1928   2.572   2.981   7.623  1.8846 -0.3757 -2.8205
   15SAPS  C215 1929   2.655   3.056   7.802 -0.2386  0.7164 -0.1196
   15SAPS  H15R 1930   2.574   3.013   7.863  1.5339  0.2083  2.0170
   15SAPS  C216 1931   2.758   3.137   7.878 -0.0363  0.7069  0.3341
   15SAPS  H16R 1932   2.774   3.237   7.833 -1.5867  0.9390  0.2424
   15SAPS  H16S 1933   2.848   3.071   7.878  0.1820  0.9324 -1.7605
   15SAPS  C217 1934   2.747   3.152   8.031  0.4157 -0.2906 -0.6977
   15SAPS  H17R 1935   2.663   3.221   8.051 -0.7093 -1.4817 -1.2113
   15SAPS  H17S 1936   2.839   3.189   8.082 -0.3217  0.9640 -0.2251
   15SAPS  C218 1937   2.723   3.017   8.105  0.1172 -0.2835 -0.7009
   15SAPS  H18R 1938   2.801   2.943   8.077  1.0632 -0.2252  1.5055
   15SAPS  H18S 1939   2.624   2.984   8.068  0.9469 -2.4602 -1.1020
   15SAPS  C219 1940   2.721   3.020   8.261 -0.1953  0.8036 -0.5757
   15SAPS  H19R 1941   2.646   3.088   8.305 -1.8606 -1.9075  1.0095
   15SAPS  H19S 1942   2.821   3.062   8.285 -0.2540  1.2306 -1.0741
   15SAPS  C220 1943   2.691   2.883   8.315  0.2693  0.6127  0.4633
   15SAPS  H20R 1944   2.767   2.810   8.280 -0.9045 -0.2441 -0.3700
   15SAPS  H20S 1945   2.592   2.841   8.288 -0.0298  2.2032 -1.0220
   15SAPS  H20T 1946   2.692   2.873   8.426 -2.0516  2.2893  0.6863
   15SAPS   C33 1947   2.776   2.213   6.709 -0.6126  0.4875 -0.8508
   15SAPS   H3X 1948   2.850   2.131   6.721 -2.3019 -1.0230 -0.3968
   15SAPS   H3Y 1949   2.675   2.173   6.729 -0.5787 -0.0557 -1.7019
   15SAPS   C34 1950   2.809   2.318   6.820  0.0492  0.7272  0.3314
   15SAPS   H4X 1951   2.892   2.385   6.790 -1.4130  2.3512 -0.2112
   15SAPS   H4Y 1952   2.842   2.277   6.918 -0.8307 -2.7278 -0.6708
   15SAPS   C35 1953   2.691   2.406   6.842  0.1081  0.1997 -0.4962
   15SAPS   H5X 1954   2.600   2.346   6.821  0.0277 -0.3543  1.2959
   15SAPS   H5Y 1955   2.702   2.498   6.781 -1.6812  1.8302  1.4700
   15SAPS   C36 1956   2.664   2.437   7.000 -0.6775  0.2316 -0.4575
   15SAPS   H6X 1957   2.651   2.345   7.061 -2.5355  1.0088  0.4079
   15SAPS   H6Y 1958   2.573   2.499   7.021  0.1486  1.0750  0.7938
   15SAPS   C37 1959   2.768   2.529   7.052 -0.6991 -0.1429  0.3598
   15SAPS   H7X 1960   2.752   2.628   7.003 -0.8842 -0.6262 -0.5895
   15SAPS   H7Y 1961   2.873   2.493   7.047  0.5048  2.2153  4.2787
   15SAPS   C38 1962   2.742   2.541   7.210  0.1129  0.4312  0.1786
   15SAPS   H8X 1963   2.720   2.442   7.255  1.5391  0.9341  2.1498
   15SAPS   H8Y 1964   2.646   2.594   7.226 -0.9339 -1.7587  1.4463
   15SAPS   C39 1965   2.848   2.613   7.289 -0.7668 -0.1069 -0.2781
   15SAPS   H9X 1966   2.842   2.724   7.285  1.2832  0.0597  0.1362
   15SAPS   H9Y 1967   2.954   2.584   7.275 -0.4308 -0.0177  1.7067
   15SAPS  C310 1968   2.810   2.580   7.435  0.4524 -0.3829  0.4520
   15SAPS  H10X 1969   2.825   2.475   7.468 -0.0611 -0.4667  0.4233
   15SAPS  H10Y 1970   2.704   2.599   7.462  1.2219  2.3373  1.9955
   15SAPS  C311 1971   2.891   2.663   7.537 -0.2534  0.5064  0.9224
   15SAPS  H11X 1972   2.853   2.767   7.544 -2.4608 -0.2536  0.8101
   15SAPS  H11Y 1973   2.997   2.667   7.503 -0.6202  1.0101 -0.2313
   15SAPS  C312 1974   2.894   2.592   7.670 -0.2125 -0.0616 -0.3013
   15SAPS  H12X 1975   2.939   2.491   7.655 -1.2567 -0.4223 -1.1175
   15SAPS  H12Y 1976   2.789   2.576   7.701 -0.3530 -0.6183 -1.0371
   15SAPS  C313 1977   2.960   2.671   7.781 -0.3139 -0.6967 -0.3963
   15SAPS  H13X 1978   2.919   2.772   7.802  2.4947  0.5147 -0.2753
   15SAPS  H13Y 1979   3.062   2.695   7.743 -0.9288  0.8413 -1.1657
   15SAPS  C314 1980   2.975   2.591   7.916  0.8209 -0.3487 -0.2395
   15SAPS  H14X 1981   3.015   2.659   7.994  0.2460 -1.2608  0.8822
   15SAPS  H14Y 1982   3.062   2.523   7.901  1.6510  0.0182  2.3689
   15SAPS  C315 1983   2.845   2.530   7.975  0.3868 -0.7870  0.2422
   15SAPS  H15X 1984   2.797   2.471   7.894 -0.2649  0.3641 -0.2282
   15SAPS  H15Y 1985   2.780   2.617   7.998  2.2585  0.7592 -0.0011
   15SAPS  C316 1986   2.862   2.457   8.106  0.2522  0.4117 -0.3275
   15SAPS  H16X 1987   2.862   2.531   8.189 -2.3746 -1.0706  1.1063
   15SAPS  H16Y 1988   2.962   2.410   8.091  0.5673  1.0742 -0.3379
   15SAPS  C317 1989   2.762   2.344   8.113  0.6058 -0.3861 -1.1189
   15SAPS  H17X 1990   2.771   2.265   8.035 -2.1074 -2.1278  0.1760
   15SAPS  H17Y 1991   2.664   2.391   8.090  1.1957  1.0940 -0.7519
   15SAPS  C318 1992   2.756   2.276   8.256 -0.3666 -0.1344  0.0571
   15SAPS  H18X 1993   2.704   2.346   8.325 -0.7668  1.9235 -2.1780
   15SAPS  H18Y 1994   2.860   2.253   8.286 -0.7974 -0.9753  0.9508
   15SAPS  H18Z 1995   2.700   2.179   8.256 -2.4504  0.9824  1.5598
   16SAPS     N 1996   5.024   5.204   6.384 -0.4478  0.4188  0.2965
   16SAPS   HN1 1997   5.108   5.245   6.339 -1.3220  2.3123  0.2918
   16SAPS   HN2 1998   5.020   5.251   6.476 -0.7383 -1.1784  1.1362
   16SAPS   HN3 1999   5.030   5.101   6.399 -0.9237  0.5682  1.6323
   16SAPS   C12 2000   4.904   5.235   6.310 -0.1334 -0.2805 -0.7339
   16SAPS  H12A 2001   4.886   5.341   6.323  0.3855 -0.2274 -0.4357
   16SAPS   C13 2002   4.905   5.203   6.163  0.4723 -0.1400  0.2332
   16SAPS  O13A 2003   5.005   5.137   6.114  0.3524  0.1220  0.1454
   16SAPS  O13B 2004   4.791   5.200   6.103  0.1306  0.1141 -0.0699
   16SAPS   C11 2005   4.784   5.169   6.377 -0.1680 -0.5104 -0.1256
   16SAPS  H11A 2006   4.809   5.060   6.381 -0.9424 -0.7116 -0.6456
   16SAPS  H11B 2007   4.694   5.189   6.315 -0.0510 -1.1086 -0.4960
   16SAPS     P 2008   4.627   5.191   6.591 -0.8275  0.4123 -0.1131
   16SAPS   O13 2009   4.568   5.323   6.590 -0.2696 -0.2858 -0.0885
   16SAPS   O14 2010   4.547   5.077   6.535 -0.5977 -0.4119 -0.1198
   16SAPS   O12 2011   4.766   5.212   6.515 -0.4493 -0.5585  0.7667
   16SAPS   O11 2012   4.672   5.144   6.730 -0.0200 -0.6647 -0.1291
   16SAPS    C1 2013   4.586   5.057   6.809 -0.0948 -0.3570  0.9272
   16SAPS    HA 2014   4.494   5.029   6.754  0.2417  1.7709 -0.8557
   16SAPS    HB 2015   4.641   4.964   6.835  0.5944 -0.8849 -2.1216
   16SAPS    C2 2016   4.538   5.121   6.941  0.0721 -0.0786  0.1788
   16SAPS    HS 2017   4.490   5.211   6.898  0.4353  1.9100  3.5732
   16SAPS   O21 2018   4.658   5.150   7.017 -0.4156  0.0829 -0.0549
   16SAPS   C21 2019   4.638   5.259   7.090 -0.6043 -0.5624  0.0159
   16SAPS   O22 2020   4.544   5.334   7.085  0.2579 -0.0994 -0.1018
   16SAPS   C22 2021   4.732   5.249   7.204 -0.6650 -0.3076  0.6470
   16SAPS   H2R 2022   4.668   5.275   7.291  0.0179  0.1663  1.0148
   16SAPS   H2S 2023   4.764   5.143   7.211  0.9635  0.1779  1.1973
   16SAPS    C3 2024   4.446   5.032   7.020  0.0824  0.7376 -0.0041
   16SAPS    HX 2025   4.496   4.943   7.063 -0.4781  0.7147  0.6167
   16SAPS    HY 2026   4.375   4.986   6.948 -1.1852  1.0405  1.0118
   16SAPS   O31 2027   4.359   5.087   7.115  0.2207 -0.1504  0.1282
   16SAPS   C31 2028   4.404   5.095   7.240  0.2870 -0.1734 -0.0330
   16SAPS   O32 2029   4.512   5.058   7.279  0.6277 -0.7226  0.1611
   16SAPS   C32 2030   4.307   5.168   7.327 -0.5129 -0.5982  0.6568
   16SAPS   H2X 2031   4.206   5.150   7.285 -0.7373 -3.0421  2.0648
   16SAPS   H2Y 2032   4.335   5.274   7.308  1.4908 -1.4519 -1.8171
   16SAPS   C23 2033   4.859   5.343   7.191  0.0214  0.7079 -0.9837
   16SAPS   H3R 2034   4.865   5.400   7.096  3.8271 -0.1297 -1.4196
   16SAPS   H3S 2035   4.939   5.268   7.171  1.0883  1.5120  0.1266
   16SAPS   C24 2036   4.898   5.416   7.319  0.1577 -0.6804 -0.0054
   16SAPS   H4R 2037   4.804   5.467   7.351 -0.4658 -1.3663 -0.6970
   16SAPS   H4S 2038   4.972   5.494   7.293 -0.6079  0.0163 -0.1425
   16SAPS   C25 2039   4.946   5.333   7.430 -0.4623 -0.3762  0.4600
   16SAPS   H5R 2040   5.043   5.285   7.412 -0.6622  0.0644 -2.3787
   16SAPS   C26 2041   4.883   5.309   7.541  0.0646 -0.0404 -0.8901
   16SAPS   H6R 2042   4.924   5.231   7.607 -0.9311 -0.1863 -0.4289
   16SAPS   C27 2043   4.752   5.362   7.587  0.4450 -1.0546 -0.1081
   16SAPS   H7R 2044   4.709   5.302   7.669 -1.9257  0.0215 -0.4975
   16SAPS   H7S 2045   4.671   5.348   7.512 -0.0272  1.0002 -0.0589
   16SAPS   C28 2046   4.764   5.506   7.627 -0.3398 -0.7362 -0.0978
   16SAPS   H8R 2047   4.769   5.576   7.542  2.4408 -0.5693  0.1198
   16SAPS   C29 2048   4.754   5.559   7.751  0.1401  0.6588  0.0756
   16SAPS   H9R 2049   4.767   5.668   7.756 -0.7474  0.8530 -1.2892
   16SAPS  C210 2050   4.740   5.480   7.885 -0.3832 -0.0906  0.6773
   16SAPS  H10R 2051   4.828   5.510   7.946  0.0896  0.1869 -0.1251
   16SAPS  H10S 2052   4.746   5.370   7.868 -0.6247 -0.0980  0.6332
   16SAPS  C211 2053   4.610   5.515   7.952  0.6965  0.0882 -0.8947
   16SAPS  H11R 2054   4.528   5.530   7.880  0.4214  0.6206 -0.4752
   16SAPS  C212 2055   4.587   5.527   8.090 -0.6770  0.0917  0.7830
   16SAPS  H12R 2056   4.486   5.550   8.126 -1.1994 -0.2207 -0.4046
   16SAPS  C213 2057   4.688   5.509   8.198  0.4414 -0.0719  0.3316
   16SAPS  H13R 2058   4.638   5.535   8.294 -1.7538  0.2784 -0.8487
   16SAPS  H13S 2059   4.760   5.593   8.183  1.1568 -0.5787  0.8735
   16SAPS  C214 2060   4.771   5.381   8.200 -0.6649  0.4065 -0.4874
   16SAPS  H14R 2061   4.789   5.329   8.105  2.0882 -0.2910  0.3286
   16SAPS  C215 2062   4.812   5.320   8.314  0.3527  0.6089  0.0138
   16SAPS  H15R 2063   4.849   5.216   8.309 -0.9019  0.1778 -0.9738
   16SAPS  C216 2064   4.801   5.369   8.457 -0.5994 -0.3218  0.0375
   16SAPS  H16R 2065   4.799   5.276   8.518 -0.8532 -0.1257  0.3308
   16SAPS  H16S 2066   4.709   5.427   8.475 -0.3593  0.0483  0.0717
   16SAPS  C217 2067   4.931   5.439   8.503 -0.5369 -0.0978  0.0582
   16SAPS  H17R 2068   5.025   5.381   8.497  0.6321  1.3197  3.0197
   16SAPS  H17S 2069   4.913   5.455   8.611 -0.8673  0.0985 -0.0246
   16SAPS  C218 2070   4.971   5.576   8.439 -0.1975 -0.2409 -0.5816
   16SAPS  H18R 2071   4.884   5.643   8.458 -0.1984  0.0389 -1.5412
   16SAPS  H18S 2072   4.981   5.564   8.329  0.5123 -0.0332 -0.5476
   16SAPS  C219 2073   5.097   5.648   8.478 -0.1191 -0.7465 -0.1724
   16SAPS  H19R 2074   5.094   5.754   8.444 -1.5790 -0.3014  1.1978
   16SAPS  H19S 2075   5.180   5.595   8.428 -0.1738 -0.9496 -0.0472
   16SAPS  C220 2076   5.125   5.650   8.630 -0.1394  0.2522 -0.2521
   16SAPS  H20R 2077   5.125   5.553   8.684  0.3360  0.6880  0.5485
   16SAPS  H20S 2078   5.052   5.722   8.673  0.5011  1.6345 -1.3870
   16SAPS  H20T 2079   5.228   5.691   8.639 -0.1581  0.1198  0.5875
   16SAPS   C33 2080   4.287   5.116   7.473 -0.1883  0.0627 -0.9390
   16SAPS   H3X 2081   4.292   5.005   7.477 -1.4515 -0.0364 -1.4964
   16SAPS   H3Y 2082   4.186   5.134   7.517 -0.1059 -1.7715  0.0994
   16SAPS   C34 2083   4.399   5.171   7.565  0.2160 -0.1605  0.3824
   16SAPS   H4X 2084   4.396   5.282   7.572 -0.0946 -0.0903 -0.6913
   16SAPS   H4Y 2085   4.494   5.141   7.517 -0.3811 -1.8015  0.1559
   16SAPS   C35 2086   4.393   5.098   7.703  0.3111  0.5034 -0.6394
   16SAPS   H5X 2087   4.392   4.990   7.680 -1.3941  0.7845 -2.0824
   16SAPS   H5Y 2088   4.293   5.124   7.746 -0.4005 -2.9299  0.0859
   16SAPS   C36 2089   4.509   5.125   7.798  0.7698  1.0217 -0.6281
   16SAPS   H6X 2090   4.494   5.227   7.838  0.1672  0.3845  0.8425
   16SAPS   H6Y 2091   4.607   5.113   7.747  0.9229 -0.3238 -0.0777
   16SAPS   C37 2092   4.488   5.020   7.903 -0.7720 -0.5972 -0.4990
   16SAPS   H7X 2093   4.496   4.921   7.854 -1.5271  0.4005 -2.8203
   16SAPS   H7Y 2094   4.384   5.015   7.943 -0.6743 -1.4725 -0.3445
   16SAPS   C38 2095   4.575   5.032   8.024  0.0833  0.0800 -0.1504
   16SAPS   H8X 2096   4.568   5.136   8.062  1.9002 -0.1711  0.9875
   16SAPS   H8Y 2097   4.684   5.019   8.010  0.2372 -1.3481  1.8279
   16SAPS   C39 2098   4.525   4.946   8.134  0.6091  0.4432 -0.4208
   16SAPS   H9X 2099   4.545   4.839   8.111  0.9224  0.1608  1.0451
   16SAPS   H9Y 2100   4.416   4.961   8.150  0.6501  1.9924 -1.3774
   16SAPS  C310 2101   4.606   5.001   8.250 -0.0241 -0.1016 -0.0802
   16SAPS  H10X 2102   4.598   5.111   8.264 -0.4751 -0.4761  3.9374
   16SAPS  H10Y 2103   4.713   4.975   8.234 -0.0165  0.2700 -0.6403
   16SAPS  C311 2104   4.561   4.959   8.392 -0.3365  0.8151 -0.2625
   16SAPS  H11X 2105   4.586   4.853   8.416  2.0139  1.3304 -0.2047
   16SAPS  H11Y 2106   4.450   4.964   8.399 -0.4376  0.0902 -1.2513
   16SAPS  C312 2107   4.615   5.046   8.509  0.3048 -0.0152 -0.4634
   16SAPS  H12X 2108   4.582   5.152   8.502 -0.0372 -0.1722 -1.4357
   16SAPS  H12Y 2109   4.726   5.041   8.504  0.4058  1.2081  0.1714
   16SAPS  C313 2110   4.578   4.991   8.644 -0.8055 -0.4302  1.3332
   16SAPS  H13X 2111   4.645   4.905   8.665  0.9299  0.0840 -1.5505
   16SAPS  H13Y 2112   4.474   4.953   8.633 -1.2976  1.5600 -2.6732
   16SAPS  C314 2113   4.586   5.089   8.760  0.1733 -0.2214  0.1386
   16SAPS  H14X 2114   4.688   5.131   8.749  0.7191 -1.6291 -0.4259
   16SAPS  H14Y 2115   4.588   5.032   8.855 -1.4066 -0.8550 -0.1798
   16SAPS  C315 2116   4.476   5.200   8.745 -0.0680 -0.3389 -0.4981
   16SAPS  H15X 2117   4.480   5.244   8.644 -0.3470 -0.1714 -0.4382
   16SAPS  H15Y 2118   4.503   5.275   8.822  0.1842 -1.1384  0.2087
   16SAPS  C316 2119   4.332   5.151   8.770 -1.2599 -0.4659  0.4544
   16SAPS  H16X 2120   4.315   5.066   8.840 -2.0158  0.3246  1.2542
   16SAPS  H16Y 2121   4.299   5.102   8.676  0.6817 -0.9094 -0.0418
   16SAPS  C317 2122   4.236   5.264   8.804 -0.3524  0.5674 -0.0719
   16SAPS  H17X 2123   4.239   5.329   8.714  2.2160 -0.2182 -0.6433
   16SAPS  H17Y 2124   4.274   5.328   8.887 -0.9577  0.8522 -0.0073
   16SAPS  C318 2125   4.093   5.206   8.824  0.1255  0.5262 -0.5467
   16SAPS  H18X 2126   4.072   5.180   8.930  1.2314 -1.1078 -0.6915
   16SAPS  H18Y 2127   4.072   5.127   8.749 -1.1946  0.0414  0.3119
   16SAPS  H18Z 2128   4.034   5.298   8.807  0.5998  1.1073  0.7833
   17SAPC     N 2129   3.615   1.895  10.751  0.1032 -0.4519 -0.5527
   17SAPC   C12 2130   3.674   1.780  10.677 -0.2472  0.0443  1.1088
   17SAPC  H12A 2131   3.625   1.691  10.714 -1.7447  0.4490  0.2060
   17SAPC  H12B 2132   3.779   1.762  10.695 -0.1993  0.3868  1.1817
   17SAPC   C13 2133   3.658   2.018  10.685 -0.8769 -0.8174 -0.1619
   17SAPC  H13A 2134   3.765   2.033  10.681 -0.8442 -0.0299  2.0365
   17SAPC  H13B 2135   3.623   2.030  10.583 -3.2434 -2.0859  0.4292
   17SAPC  H13C 2136   3.629   2.100  10.750  0.1152  0.7116 -1.5544
   17SAPC   C14 2137   3.465   1.905  10.752 -0.2187  0.4991  0.3352
   17SAPC  H14A 2138   3.440   1.985  10.821 -0.7082  0.3217  0.3703
   17SAPC  H14B 2139   3.414   1.913  10.657  0.5475 -0.6982 -0.2033
   17SAPC  H14C 2140   3.414   1.824  10.803  1.3494 -1.1912 -0.6607
   17SAPC   C15 2141   3.664   1.898  10.896  0.1123 -0.1275  0.0524
   17SAPC  H15A 2142   3.624   1.817  10.955  1.2435 -1.3960 -0.8475
   17SAPC  H15B 2143   3.770   1.878  10.894 -0.1473 -1.9005  1.3989
   17SAPC  H15C 2144   3.636   1.991  10.943  0.8959  0.4790 -0.6610
   17SAPC   C11 2145   3.649   1.766  10.521 -0.3570  0.6165  0.7348
   17SAPC  H11A 2146   3.705   1.678  10.481 -0.7936  0.8224 -0.3678
   17SAPC  H11B 2147   3.678   1.850  10.455 -0.0384  0.9098  1.2448
   17SAPC     P 2148   3.442   1.603  10.497  0.0190 -0.0581 -0.1627
   17SAPC   O13 2149   3.471   1.547  10.628 -0.4989  0.1082  0.4245
   17SAPC   O14 2150   3.306   1.620  10.456 -0.0872  0.4928  0.4058
   17SAPC   O12 2151   3.512   1.750  10.507 -0.1310 -0.3130 -0.3110
   17SAPC   O11 2152   3.527   1.522  10.388  0.5778  0.0619 -0.5154
   17SAPC    C1 2153   3.542   1.568  10.251 -0.3248 -0.3784  0.3308
   17SAPC    HA 2154   3.443   1.565  10.201  1.4156 -0.7089 -3.4086
   17SAPC    HB 2155   3.599   1.663  10.254  0.2054 -0.7110  1.3964
   17SAPC    C2 2156   3.638   1.484  10.162 -0.1166  0.2546  0.0423
   17SAPC    HS 2157   3.740   1.487  10.206  0.2668 -0.0099 -0.8144
   17SAPC   O21 2158   3.642   1.555  10.037  0.0085 -0.1323 -0.0053
   17SAPC   C21 2159   3.739   1.519   9.956 -0.8423  0.0483 -1.2159
   17SAPC   O22 2160   3.816   1.425   9.987  0.1216  0.0680 -0.1900
   17SAPC   C22 2161   3.733   1.588   9.827 -0.1346 -0.1913  0.3494
   17SAPC   H2R 2162   3.671   1.523   9.762  2.1084 -0.5128 -1.6183
   17SAPC   H2S 2163   3.696   1.691   9.840 -0.6878 -0.3916  0.3863
   17SAPC    C3 2164   3.593   1.338  10.139  0.1239  0.6401  0.3939
   17SAPC    HX 2165   3.561   1.309  10.241 -0.4094 -0.7744 -0.1427
   17SAPC    HY 2166   3.675   1.269  10.107 -2.2358 -1.1135 -2.3822
   17SAPC   O31 2167   3.492   1.327  10.035 -0.8109 -0.3488 -0.5107
   17SAPC   C31 2168   3.370   1.289  10.066  0.0367  0.0728  0.7707
   17SAPC   O32 2169   3.326   1.258  10.173 -1.2989 -0.0349 -0.4766
   17SAPC   C32 2170   3.288   1.310   9.942 -0.4753 -0.2133 -0.2156
   17SAPC   H2X 2171   3.340   1.250   9.864  1.0146  0.5256  0.1631
   17SAPC   H2Y 2172   3.292   1.417   9.911 -1.0384  0.3568  1.5931
   17SAPC   C23 2173   3.865   1.585   9.751  0.2792  0.2938  0.3262
   17SAPC   H3R 2174   3.903   1.483   9.729  1.1344  0.8559 -0.9250
   17SAPC   H3S 2175   3.949   1.632   9.807  3.0023 -1.1338 -2.2998
   17SAPC   C24 2176   3.861   1.663   9.611  0.7503  0.4163 -0.6483
   17SAPC   H4R 2177   3.837   1.770   9.627 -2.2461 -0.1830 -0.5988
   17SAPC   H4S 2178   3.784   1.617   9.546  0.0348  0.1497  0.3620
   17SAPC   C25 2179   3.992   1.660   9.539  0.3162 -0.2523 -0.3131
   17SAPC   H5R 2180   4.067   1.730   9.578  1.7888 -1.4552 -0.8695
   17SAPC   C26 2181   4.024   1.589   9.428  0.7300 -0.7423 -0.4953
   17SAPC   H6R 2182   4.130   1.591   9.398  0.6035  0.6846 -0.9205
   17SAPC   C27 2183   3.937   1.498   9.349 -0.5703 -0.1148 -0.2016
   17SAPC   H7R 2184   3.992   1.487   9.253 -0.4819  0.0443 -0.1706
   17SAPC   H7S 2185   3.837   1.545   9.349 -0.3972  0.2820 -1.4719
   17SAPC   C28 2186   3.928   1.359   9.412 -0.0436 -0.1143  0.3686
   17SAPC   H8R 2187   3.944   1.338   9.519 -0.1056  2.1846  0.8864
   17SAPC   C29 2188   3.898   1.260   9.329 -0.7901  0.2395  0.5685
   17SAPC   H9R 2189   3.894   1.157   9.367  1.4837  0.0099  0.2932
   17SAPC  C210 2190   3.860   1.267   9.181 -0.1363  0.2374  0.9992
   17SAPC  H10R 2191   3.838   1.370   9.145  1.5836  0.6922  1.1613
   17SAPC  H10S 2192   3.772   1.203   9.156 -0.6462  1.4896 -0.5929
   17SAPC  C211 2193   3.984   1.219   9.106  0.1352 -0.4775  0.4127
   17SAPC  H11R 2194   4.068   1.290   9.103 -0.0713 -0.0713  2.5701
   17SAPC  C212 2195   3.993   1.091   9.045  0.0400 -0.3001 -0.9041
   17SAPC  H12R 2196   4.086   1.073   8.990  0.1948  1.6617 -1.3500
   17SAPC  C213 2197   3.888   0.980   9.036  0.2835 -0.1007  0.3054
   17SAPC  H13R 2198   3.824   0.959   9.124  0.0850  1.9470  0.6823
   17SAPC  H13S 2199   3.935   0.879   9.024 -2.1963 -1.5616  2.1255
   17SAPC  C214 2200   3.793   0.985   8.918 -0.3864 -0.4899 -1.8533
   17SAPC  H14R 2201   3.776   1.088   8.883  0.8467  0.8353  1.1494
   17SAPC  C215 2202   3.719   0.889   8.868 -0.2297 -0.2763 -0.5865
   17SAPC  H15R 2203   3.639   0.923   8.800  0.0339  0.5619 -0.4901
   17SAPC  C216 2204   3.699   0.745   8.907  0.0073  0.3318  0.8218
   17SAPC  H16R 2205   3.595   0.719   8.936  0.2271 -1.1929  0.3332
   17SAPC  H16S 2206   3.776   0.710   8.979  0.1239  0.1773  0.6247
   17SAPC  C217 2207   3.718   0.661   8.775  0.5318 -0.1991  0.6877
   17SAPC  H17R 2208   3.808   0.691   8.718  0.3104  1.7414  1.2705
   17SAPC  H17S 2209   3.631   0.660   8.706  0.9372 -0.2762  0.1742
   17SAPC  C218 2210   3.740   0.521   8.809 -0.7830  1.3193 -0.5902
   17SAPC  H18R 2211   3.653   0.484   8.868 -1.7197  4.1620 -0.0401
   17SAPC  H18S 2212   3.835   0.519   8.866  0.4662  0.5925 -2.5877
   17SAPC  C219 2213   3.771   0.423   8.699  0.1479 -0.3162 -0.0386
   17SAPC  H19R 2214   3.836   0.478   8.628  0.9962 -0.2866  0.7479
   17SAPC  H19S 2215   3.678   0.399   8.643  0.8679 -1.5922 -0.7305
   17SAPC  C220 2216   3.839   0.292   8.734 -0.2409  0.1410 -0.0515
   17SAPC  H20R 2217   3.817   0.212   8.661  1.3243 -1.3642  1.0552
   17SAPC  H20S 2218   3.790   0.251   8.825  1.4469 -1.8671  0.0380
   17SAPC  H20T 2219   3.947   0.293   8.759 -0.5174 -1.6111  1.4773
   17SAPC   C33 2220   3.134   1.271   9.945  0.4197 -0.6898  0.3246
   17SAPC   H3X 2221   3.093   1.318  10.037  1.3936 -0.6137  0.7421
   17SAPC   H3Y 2222   3.113   1.163   9.961 -3.6984 -0.1430 -0.4039
   17SAPC   C34 2223   3.055   1.323   9.829  0.0625 -0.7859 -0.9959
   17SAPC   H4X 2224   3.070   1.433   9.821 -0.4870 -0.7026 -0.9026
   17SAPC   H4Y 2225   2.948   1.298   9.845 -0.3951 -0.6356 -3.4706
   17SAPC   C35 2226   3.096   1.261   9.694  0.0906  0.5441 -0.3855
   17SAPC   H5X 2227   3.080   1.151   9.700  0.5046  0.5087  0.1229
   17SAPC   H5Y 2228   3.206   1.265   9.680  1.0360 -3.8544  3.4791
   17SAPC   C36 2229   3.012   1.308   9.576 -0.4430 -0.0493  0.0260
   17SAPC   H6X 2230   3.029   1.416   9.559 -0.6430 -0.1261 -0.7031
   17SAPC   H6Y 2231   2.905   1.305   9.604 -0.1685  1.1003  1.3349
   17SAPC   C37 2232   3.050   1.235   9.446  0.3893  0.2041 -0.0911
   17SAPC   H7X 2233   2.985   1.145   9.447 -0.4519  0.7459 -1.8346
   17SAPC   H7Y 2234   3.156   1.202   9.452  0.5260  0.5786 -0.4136
   17SAPC   C38 2235   3.005   1.315   9.327  0.4515 -0.4968 -0.3784
   17SAPC   H8X 2236   3.053   1.415   9.334  2.7248 -1.5629  0.2656
   17SAPC   H8Y 2237   2.898   1.328   9.355  0.6570  0.2793  0.0544
   17SAPC   C39 2238   3.008   1.241   9.191 -1.0337  0.0788 -0.0905
   17SAPC   H9X 2239   2.944   1.150   9.201 -0.5987 -0.1138  1.1200
   17SAPC   H9Y 2240   3.112   1.201   9.182 -0.7713 -0.0954  2.6708
   17SAPC  C310 2241   2.979   1.337   9.073 -0.7755 -0.4293  0.4120
   17SAPC  H10X 2242   3.053   1.420   9.078 -1.1397 -0.0889  0.2672
   17SAPC  H10Y 2243   2.881   1.386   9.090  0.7900  3.1708  0.0947
   17SAPC  C311 2244   2.963   1.265   8.937 -0.3169 -0.3675 -1.0546
   17SAPC  H11X 2245   2.946   1.345   8.862  0.4932  0.5874 -0.2506
   17SAPC  H11Y 2246   2.875   1.198   8.934 -0.7437  0.1757 -0.9464
   17SAPC  C312 2247   3.103   1.214   8.883 -0.7894 -0.2506 -0.0791
   17SAPC  H12X 2248   3.147   1.147   8.959  1.6427 -0.6177 -1.7113
   17SAPC  H12Y 2249   3.173   1.299   8.867 -1.6390  0.5380  0.2551
   17SAPC  C313 2250   3.083   1.129   8.753  0.0817 -0.8485  1.3983
   17SAPC  H13X 2251   2.989   1.165   8.706  0.6989 -0.5735  0.3503
   17SAPC  H13Y 2252   3.072   1.020   8.767 -1.3030 -1.1690 -1.4688
   17SAPC  C314 2253   3.195   1.147   8.653  1.3828 -0.3171  0.3057
   17SAPC  H14X 2254   3.220   1.254   8.634 -0.2434 -0.2433 -1.8064
   17SAPC  H14Y 2255   3.148   1.119   8.556  0.2793  2.3996 -0.0637
   17SAPC  C315 2256   3.319   1.077   8.692 -0.3905 -0.2255 -0.4653
   17SAPC  H15X 2257   3.293   0.980   8.739  0.6313 -0.2343  0.1071
   17SAPC  H15Y 2258   3.370   1.117   8.782 -1.7610 -1.4277  0.8858
   17SAPC  C316 2259   3.411   1.062   8.571  0.1995  0.3015  0.2031
   17SAPC  H16X 2260   3.496   1.016   8.627 -1.3492 -1.2110  1.4144
   17SAPC  H16Y 2261   3.438   1.157   8.521  2.0503  1.4919  3.2001
   17SAPC  C317 2262   3.360   0.959   8.475  0.1605  0.1863  0.0108
   17SAPC  H17X 2263   3.274   0.999   8.417  1.4873  0.0571 -2.1447
   17SAPC  H17Y 2264   3.328   0.876   8.542  1.9668  1.4508  2.5817
   17SAPC  C318 2265   3.452   0.921   8.356  0.1875 -0.1845  0.3499
   17SAPC  H18X 2266   3.540   0.862   8.388  0.7188  1.3354  1.8032
   17SAPC  H18Y 2267   3.395   0.860   8.283 -0.9699  1.5584 -0.2672
   17SAPC  H18Z 2268   3.475   1.013   8.297 -0.2288 -2.2755 -3.4265
   18SAPC     N 2269   3.175   1.203  10.696  0.5684 -0.4040  0.3624
   18SAPC   C12 2270   3.148   1.074  10.629  0.0390  1.0684 -0.3499
   18SAPC  H12A 2271   3.057   1.032  10.670 -0.2996  1.4394 -0.7089
   18SAPC  H12B 2272   3.231   1.007  10.649  0.6561  1.3611 -1.7887
   18SAPC   C13 2273   3.054   1.290  10.699 -0.4790 -0.0571  0.2395
   18SAPC  H13A 2274   2.969   1.239  10.742 -0.5955  1.3998  1.8557
   18SAPC  H13B 2275   3.061   1.387  10.747 -0.1940  0.3520 -0.6152
   18SAPC  H13C 2276   3.027   1.311  10.597 -0.1415  3.3104  0.7170
   18SAPC   C14 2277   3.228   1.181  10.831 -0.1791  0.1495 -0.2922
   18SAPC  H14A 2278   3.147   1.134  10.885 -1.6643  2.3826 -0.4306
   18SAPC  H14B 2279   3.315   1.117  10.824  0.2494  0.7543 -0.5551
   18SAPC  H14C 2280   3.250   1.276  10.877 -1.1511  0.3156 -0.1389
   18SAPC   C15 2281   3.276   1.276  10.621 -0.7997 -0.0536  0.0154
   18SAPC  H15A 2282   3.305   1.367  10.673  0.6591  0.2682 -1.2771
   18SAPC  H15B 2283   3.366   1.216  10.615 -1.4887 -1.2152  0.8506
   18SAPC  H15C 2284   3.235   1.310  10.527 -1.4004 -0.7106  0.0316
   18SAPC   C11 2285   3.111   1.063  10.476 -0.4954  0.0080  0.2794
   18SAPC  H11A 2286   3.105   0.954  10.457 -0.7937 -0.5367  3.0930
   18SAPC  H11B 2287   3.191   1.108  10.414  1.0066 -1.3151  1.2037
   18SAPC     P 2288   2.857   1.033  10.445 -0.2955  0.1600 -0.3330
   18SAPC   O13 2289   2.835   0.978  10.579  0.8831  0.0551 -0.2197
   18SAPC   O14 2290   2.750   1.111  10.383  0.3851 -0.2300  0.0686
   18SAPC   O12 2291   2.988   1.125  10.440  0.1931  0.3686 -0.1701
   18SAPC   O11 2292   2.891   0.906  10.357 -0.3389 -0.0912 -0.0663
   18SAPC    C1 2293   2.862   0.906  10.224 -0.3132  0.2315  0.5682
   18SAPC    HA 2294   2.752   0.920  10.218 -0.6712 -1.8177  1.2177
   18SAPC    HB 2295   2.918   0.983  10.168  1.9201 -2.1260 -0.6604
   18SAPC    C2 2296   2.905   0.770  10.159  0.2380 -0.1133 -0.5864
   18SAPC    HS 2297   2.882   0.687  10.230  0.8623  0.9995  0.9827
   18SAPC   O21 2298   3.048   0.765  10.136 -0.1574 -0.1182  0.3234
   18SAPC   C21 2299   3.122   0.729  10.237 -0.6513 -0.1220  0.0164
   18SAPC   O22 2300   3.084   0.668  10.335 -0.5689 -0.4320  0.0839
   18SAPC   C22 2301   3.273   0.755  10.208 -0.3912  0.5105  0.2343
   18SAPC   H2R 2302   3.307   0.802  10.304 -1.2360  3.3048 -0.7340
   18SAPC   H2S 2303   3.332   0.661  10.201  1.7298  1.3984  3.5694
   18SAPC    C3 2304   2.840   0.771  10.021  0.0451 -0.0083  0.0605
   18SAPC    HX 2305   2.879   0.863   9.972 -0.0995  0.6692  1.1599
   18SAPC    HY 2306   2.730   0.781  10.026 -0.1480 -1.1243 -1.4671
   18SAPC   O31 2307   2.873   0.656   9.936 -0.2705 -0.4635  0.0343
   18SAPC   C31 2308   2.798   0.540   9.941  0.0275 -0.7973  0.0068
   18SAPC   O32 2309   2.691   0.534   9.986 -0.1301 -0.0711  0.0313
   18SAPC   C32 2310   2.876   0.446   9.856 -0.5519 -0.4775 -0.6539
   18SAPC   H2X 2311   2.870   0.341   9.892  2.0829 -0.2268  0.7617
   18SAPC   H2Y 2312   2.980   0.483   9.850 -1.1465  1.6049  0.5362
   18SAPC   C23 2313   3.309   0.849  10.092  0.2062 -0.0934 -0.3791
   18SAPC   H3R 2314   3.419   0.869  10.094 -0.0188  1.2419  0.7708
   18SAPC   H3S 2315   3.253   0.944  10.105 -0.6214 -0.6860  0.5854
   18SAPC   C24 2316   3.294   0.781   9.955 -0.5110 -0.5840  0.0137
   18SAPC   H4R 2317   3.197   0.729   9.939  0.0698 -1.4396 -0.8970
   18SAPC   H4S 2318   3.373   0.704   9.940  1.2204  1.1541 -0.1524
   18SAPC   C25 2319   3.301   0.899   9.853  0.3548 -0.0057 -0.7115
   18SAPC   H5R 2320   3.391   0.961   9.846 -0.6879  1.4537 -1.8234
   18SAPC   C26 2321   3.205   0.920   9.758  0.2127 -0.4286 -0.3666
   18SAPC   H6R 2322   3.223   1.010   9.697  2.8692  0.9096  2.1450
   18SAPC   C27 2323   3.078   0.843   9.734 -0.7268 -0.4051 -0.1912
   18SAPC   H7R 2324   2.996   0.909   9.699 -0.8542  0.5277  1.7426
   18SAPC   H7S 2325   3.031   0.822   9.832 -1.1860 -0.7469 -0.4767
   18SAPC   C28 2326   3.095   0.726   9.644 -0.1124  0.2601 -0.1361
   18SAPC   H8R 2327   3.148   0.641   9.688  1.2599  0.7831 -0.7077
   18SAPC   C29 2328   3.056   0.719   9.518  0.1115 -0.1144  0.0875
   18SAPC   H9R 2329   3.075   0.629   9.458  1.6434  0.2201  0.0251
   18SAPC  C210 2330   2.980   0.818   9.436  0.5239 -0.2192 -0.7662
   18SAPC  H10R 2331   3.038   0.828   9.341  2.0377 -0.7534  0.0655
   18SAPC  H10S 2332   2.981   0.923   9.472 -0.7876  0.7178 -3.1799
   18SAPC  C211 2333   2.828   0.789   9.438 -0.2744  0.2580 -0.3446
   18SAPC  H11R 2334   2.784   0.810   9.536  1.0378  0.6966  0.1681
   18SAPC  C212 2335   2.760   0.759   9.331 -0.3798  0.0235 -0.0538
   18SAPC  H12R 2336   2.657   0.727   9.352 -1.5318  1.7023 -2.6605
   18SAPC  C213 2337   2.812   0.740   9.190 -0.4929  0.7271 -0.3540
   18SAPC  H13R 2338   2.764   0.647   9.151 -2.0790  0.2727  2.3758
   18SAPC  H13S 2339   2.923   0.733   9.201 -0.4278 -0.4229 -1.5727
   18SAPC  C214 2340   2.787   0.857   9.102  0.7173 -0.1850 -0.5826
   18SAPC  H14R 2341   2.832   0.945   9.150  2.9116 -1.4243 -0.2636
   18SAPC  C215 2342   2.713   0.877   8.988  0.0001  0.6921  0.0146
   18SAPC  H15R 2343   2.729   0.969   8.929 -1.7746  0.8894 -0.2108
   18SAPC  C216 2344   2.628   0.774   8.926  0.6600 -0.1395  0.3449
   18SAPC  H16R 2345   2.525   0.816   8.931  1.5952  2.4802 -0.6413
   18SAPC  H16S 2346   2.629   0.684   8.991 -1.1517  0.6596  1.5687
   18SAPC  C217 2347   2.658   0.735   8.774 -0.0853 -0.1090 -1.0731
   18SAPC  H17R 2348   2.642   0.829   8.717 -1.4797 -0.4614 -1.2984
   18SAPC  H17S 2349   2.581   0.667   8.732 -0.3428 -0.0637 -0.6814
   18SAPC  C218 2350   2.789   0.662   8.742  0.1681  0.2209  0.5286
   18SAPC  H18R 2351   2.770   0.616   8.643 -2.2648  5.4129 -1.8286
   18SAPC  H18S 2352   2.826   0.585   8.813 -0.2247 -0.9429 -0.5038
   18SAPC  C219 2353   2.907   0.766   8.733 -0.6598  0.3903 -0.0331
   18SAPC  H19R 2354   2.918   0.817   8.831  0.9153 -1.3372  0.7564
   18SAPC  H19S 2355   2.888   0.843   8.654  1.0787  0.3254 -0.5531
   18SAPC  C220 2356   3.038   0.709   8.679 -0.1076  0.1932  0.1940
   18SAPC  H20R 2357   3.108   0.790   8.650  4.6101 -3.1990  1.0127
   18SAPC  H20S 2358   3.003   0.649   8.592  0.3519  1.2383 -0.7485
   18SAPC  H20T 2359   3.093   0.638   8.744 -0.4048 -1.3265 -1.1425
   18SAPC   C33 2360   2.806   0.458   9.714 -0.4634 -0.2449 -0.7392
   18SAPC   H3X 2361   2.821   0.564   9.685  1.3999  0.6302  2.8788
   18SAPC   H3Y 2362   2.697   0.436   9.721 -0.4698  0.2582  1.2145
   18SAPC   C34 2363   2.864   0.359   9.616 -0.6434 -0.2626  0.3326
   18SAPC   H4X 2364   2.859   0.254   9.652  0.7361  0.1095  1.6499
   18SAPC   H4Y 2365   2.972   0.384   9.611 -0.1867 -1.9548  0.9824
   18SAPC   C35 2366   2.806   0.360   9.472  0.3672  0.4205  0.2842
   18SAPC   H5X 2367   2.816   0.458   9.421 -0.4593  0.3807  0.0355
   18SAPC   H5Y 2368   2.697   0.347   9.491  0.1968  1.8248  0.3369
   18SAPC   C36 2369   2.874   0.252   9.383  0.4528  0.0622 -0.5393
   18SAPC   H6X 2370   2.803   0.232   9.300  1.0526 -0.3385 -0.9623
   18SAPC   H6Y 2371   2.866   0.157   9.439  1.3550  0.4672  0.3104
   18SAPC   C37 2372   3.011   0.292   9.335  0.1600  1.2780 -0.3939
   18SAPC   H7X 2373   3.070   0.198   9.325  0.4500  1.2595  1.3087
   18SAPC   H7Y 2374   3.068   0.359   9.402  0.1245 -0.7175  1.7419
   18SAPC   C38 2375   3.015   0.358   9.197 -0.3110 -0.2583  0.7445
   18SAPC   H8X 2376   2.942   0.442   9.195  0.6902  0.6179 -0.4946
   18SAPC   H8Y 2377   2.968   0.287   9.126  0.2277 -0.7759  0.9005
   18SAPC   C39 2378   3.161   0.397   9.152  1.0068  0.2334 -0.9215
   18SAPC   H9X 2379   3.230   0.315   9.179  0.6350  0.1875 -0.0788
   18SAPC   H9Y 2380   3.190   0.488   9.208  0.1679  0.3990 -0.7427
   18SAPC  C310 2381   3.180   0.422   8.998 -0.3365  0.6624  0.3698
   18SAPC  H10X 2382   3.115   0.505   8.962  0.6701  1.4152  0.2615
   18SAPC  H10Y 2383   3.146   0.327   8.951  1.8939  0.1329 -0.2591
   18SAPC  C311 2384   3.333   0.442   8.959  0.3072 -0.2646  0.8626
   18SAPC  H11X 2385   3.400   0.358   8.987 -0.6608 -0.8887  1.4002
   18SAPC  H11Y 2386   3.366   0.526   9.024  3.0665  0.6717 -1.5722
   18SAPC  C312 2387   3.350   0.489   8.813  0.5160 -0.3379 -0.2927
   18SAPC  H12X 2388   3.457   0.504   8.785  0.8578  1.4327  1.7363
   18SAPC  H12Y 2389   3.294   0.585   8.815 -1.3928 -1.3348 -2.3526
   18SAPC  C313 2390   3.293   0.385   8.707 -0.5164 -0.4901 -0.5559
   18SAPC  H13X 2391   3.182   0.383   8.709 -0.5039 -0.8183  0.0823
   18SAPC  H13Y 2392   3.333   0.292   8.752  1.1987  0.1137 -0.7708
   18SAPC  C314 2393   3.348   0.417   8.568 -0.0854 -0.4873 -0.3858
   18SAPC  H14X 2394   3.320   0.331   8.504  0.1791 -3.3866  3.0367
   18SAPC  H14Y 2395   3.459   0.421   8.563 -0.1754  1.6144 -1.5461
   18SAPC  C315 2396   3.300   0.555   8.514  0.4612 -0.2645  0.0819
   18SAPC  H15X 2397   3.343   0.638   8.575  0.6985  0.5136 -1.1176
   18SAPC  H15Y 2398   3.192   0.567   8.539  0.0701 -2.1193 -0.5361
   18SAPC  C316 2399   3.327   0.582   8.367 -0.0014 -0.7496 -0.0955
   18SAPC  H16X 2400   3.438   0.592   8.362  0.0268 -0.9088  0.1886
   18SAPC  H16Y 2401   3.289   0.683   8.345 -2.6130 -2.1029 -2.4160
   18SAPC  C317 2402   3.266   0.477   8.269  0.3859  0.6489  0.1246
   18SAPC  H17X 2403   3.330   0.388   8.290  0.0291  0.4890  0.5473
   18SAPC  H17Y 2404   3.287   0.501   8.163  2.1696 -0.7326  0.1155
   18SAPC  C318 2405   3.114   0.449   8.289  0.1873  0.7024 -0.0990
   18SAPC  H18X 2406   3.055   0.540   8.267 -1.3460 -0.4112 -0.8184
   18SAPC  H18Y 2407   3.098   0.414   8.393 -2.2363  1.1909 -0.2496
   18SAPC  H18Z 2408   3.081   0.371   8.217  1.9735 -0.3944  0.2155
   19SAPC     N 2409   2.685   2.641  10.849  1.0737  0.0646  0.8767
   19SAPC   C12 2410   2.537   2.671  10.899 -0.9001  0.1674  0.4058
   19SAPC  H12A 2411   2.540   2.777  10.924  2.8668  0.4451 -0.6893
   19SAPC  H12B 2412   2.532   2.620  10.994  1.5605 -0.5054  0.2497
   19SAPC   C13 2413   2.787   2.691  10.942 -0.0361  0.0067  0.1342
   19SAPC  H13A 2414   2.784   2.799  10.939  0.5860  0.0126 -2.3464
   19SAPC  H13B 2415   2.775   2.654  11.043 -0.9542  1.1384  0.4673
   19SAPC  H13C 2416   2.886   2.668  10.908  0.2497 -1.0467  1.6228
   19SAPC   C14 2417   2.688   2.496  10.830 -0.9562  0.5794  0.3595
   19SAPC  H14A 2418   2.677   2.443  10.923 -1.9788 -2.6548 -1.4709
   19SAPC  H14B 2419   2.611   2.453  10.768 -0.6647  0.6846 -0.0773
   19SAPC  H14C 2420   2.787   2.470  10.797 -0.2521  2.6003  0.7058
   19SAPC   C15 2421   2.723   2.710  10.723  0.2749  0.1650  0.2200
   19SAPC  H15A 2422   2.723   2.818  10.730 -0.9642  0.1285  1.0217
   19SAPC  H15B 2423   2.819   2.680  10.682 -0.4279 -1.7174 -0.1435
   19SAPC  H15C 2424   2.646   2.688  10.651  0.7220  2.3117 -1.0114
   19SAPC   C11 2425   2.418   2.655  10.802  0.8799 -0.3234 -0.3321
   19SAPC  H11A 2426   2.330   2.654  10.869  1.9916 -2.0632  1.1803
   19SAPC  H11B 2427   2.427   2.556  10.753 -2.0893 -0.9882  0.3041
   19SAPC     P 2428   2.314   2.871  10.709 -0.0652  0.2167 -0.2742
   19SAPC   O13 2429   2.179   2.814  10.729 -0.5840 -0.0185  0.3464
   19SAPC   O14 2430   2.357   2.977  10.811  0.0249  0.0515  0.3484
   19SAPC   O12 2431   2.428   2.760  10.701  0.3475 -0.2380  0.6432
   19SAPC   O11 2432   2.325   2.938  10.565 -0.5257 -0.0400  0.6707
   19SAPC    C1 2433   2.457   3.002  10.528  0.6683 -1.2060  0.2037
   19SAPC    HA 2434   2.491   3.077  10.602  0.3197 -1.2225  0.3818
   19SAPC    HB 2435   2.545   2.935  10.519  0.4699 -1.4139 -0.2786
   19SAPC    C2 2436   2.448   3.057  10.386 -0.2507  0.3217 -0.1129
   19SAPC    HS 2437   2.351   3.111  10.376 -1.2973 -1.7477 -2.0883
   19SAPC   O21 2438   2.470   2.961  10.281 -0.0373  0.2476 -0.4703
   19SAPC   C21 2439   2.365   2.882  10.268 -0.5113 -0.4042  0.6774
   19SAPC   O22 2440   2.256   2.906  10.315  0.0559  0.2490 -0.1765
   19SAPC   C22 2441   2.393   2.764  10.174  0.5517  0.1791 -0.5435
   19SAPC   H2R 2442   2.421   2.802  10.073 -0.0831  0.8780 -0.4676
   19SAPC   H2S 2443   2.478   2.708  10.218 -0.6525 -1.3828 -0.1432
   19SAPC    C3 2444   2.553   3.173  10.379  0.1362  0.4886  0.0483
   19SAPC    HX 2445   2.654   3.133  10.402  0.2450 -1.5892 -3.4145
   19SAPC    HY 2446   2.515   3.252  10.448 -0.8964 -1.4076  1.7842
   19SAPC   O31 2447   2.554   3.217  10.242  0.0994 -0.2684 -0.1955
   19SAPC   C31 2448   2.472   3.316  10.205  0.2170 -0.2417 -0.0487
   19SAPC   O32 2449   2.395   3.387  10.272  0.3594 -0.2982 -0.6266
   19SAPC   C32 2450   2.484   3.337  10.052  0.2115 -0.5946 -0.4801
   19SAPC   H2X 2451   2.479   3.232  10.016 -2.4012 -0.2114 -1.4357
   19SAPC   H2Y 2452   2.589   3.372  10.037  0.2364 -0.5236 -0.1541
   19SAPC   C23 2453   2.265   2.683  10.154  0.3644  0.2942 -0.3972
   19SAPC   H3R 2454   2.184   2.730  10.094  1.8590  1.4800 -1.5710
   19SAPC   H3S 2455   2.216   2.664  10.252 -2.9594  0.3042 -1.8879
   19SAPC   C24 2456   2.299   2.549  10.089 -0.3567 -0.1815 -0.0564
   19SAPC   H4R 2457   2.359   2.491  10.162 -1.3691 -0.2061  0.7855
   19SAPC   H4S 2458   2.370   2.559  10.005  0.3324 -3.3849  0.0410
   19SAPC   C25 2459   2.177   2.478  10.042 -0.2917  0.3696  0.4022
   19SAPC   H5R 2460   2.115   2.433  10.121 -0.6907  3.2004  1.8503
   19SAPC   C26 2461   2.151   2.438   9.915  0.1355  0.4028 -0.6533
   19SAPC   H6R 2462   2.062   2.375   9.904  0.2701 -0.5242  2.5680
   19SAPC   C27 2463   2.240   2.467   9.795  0.3193 -0.1362  0.9163
   19SAPC   H7R 2464   2.280   2.378   9.742  2.1295  1.6507 -0.9389
   19SAPC   H7S 2465   2.328   2.528   9.825 -0.1080 -1.3876  5.3497
   19SAPC   C28 2466   2.167   2.561   9.703  0.4032  0.0659  0.2381
   19SAPC   H8R 2467   2.102   2.638   9.747  1.9275  1.8763 -0.5148
   19SAPC   C29 2468   2.178   2.563   9.568  0.9901 -0.5876  0.0152
   19SAPC   H9R 2469   2.121   2.641   9.515 -1.0758 -2.8901 -1.3846
   19SAPC  C210 2470   2.250   2.475   9.473  0.4771 -0.2505  0.7756
   19SAPC  H10R 2471   2.190   2.462   9.381  2.4186 -0.8661 -0.4588
   19SAPC  H10S 2472   2.264   2.370   9.507 -0.1640 -1.0187 -1.2042
   19SAPC  C211 2473   2.379   2.541   9.437 -0.2044 -0.5899  0.0351
   19SAPC  H11R 2474   2.422   2.600   9.520 -1.1380  1.5196 -0.9126
   19SAPC  C212 2475   2.430   2.555   9.305  0.0919 -0.3526 -0.3194
   19SAPC  H12R 2476   2.518   2.613   9.276  0.3352 -1.3160 -1.6398
   19SAPC  C213 2477   2.361   2.506   9.179  0.2878  0.9774  0.9401
   19SAPC  H13R 2478   2.303   2.589   9.133 -2.4629 -1.2981  0.0327
   19SAPC  H13S 2479   2.285   2.427   9.195  1.1595 -0.3419 -0.9903
   19SAPC  C214 2480   2.468   2.450   9.083 -0.0909 -0.3461 -0.0592
   19SAPC  H14R 2481   2.461   2.340   9.086 -0.9447 -0.2858  1.1848
   19SAPC  C215 2482   2.560   2.509   9.005  0.6591  0.0723 -0.1726
   19SAPC  H15R 2483   2.624   2.449   8.938  1.5387  2.8991 -2.0557
   19SAPC  C216 2484   2.574   2.654   8.979  0.3927  0.3176  0.3817
   19SAPC  H16R 2485   2.504   2.713   9.042 -0.8484  0.0453 -0.6819
   19SAPC  H16S 2486   2.530   2.673   8.878  1.0060 -0.4261 -0.0354
   19SAPC  C217 2487   2.720   2.702   8.976  0.1528 -0.0023 -0.0975
   19SAPC  H17R 2488   2.726   2.795   8.915  0.9249 -0.6389 -1.0158
   19SAPC  H17S 2489   2.791   2.635   8.923  2.8409  1.4964  1.3664
   19SAPC  C218 2490   2.761   2.744   9.114 -0.2817  0.4974 -0.7719
   19SAPC  H18R 2491   2.742   2.669   9.194  3.5337  0.6841  0.5217
   19SAPC  H18S 2492   2.707   2.838   9.138 -1.0078 -0.1282  0.1262
   19SAPC  C219 2493   2.919   2.768   9.112  0.3077 -0.3601  0.5327
   19SAPC  H19R 2494   2.926   2.862   9.054  0.1014 -1.8039 -1.9509
   19SAPC  H19S 2495   2.969   2.688   9.053 -1.7586 -2.5879  1.5708
   19SAPC  C220 2496   2.988   2.773   9.251  0.0623 -0.3016 -0.4751
   19SAPC  H20R 2497   3.087   2.810   9.219 -0.3319  0.1893 -1.1520
   19SAPC  H20S 2498   2.997   2.666   9.282  1.8403 -0.9701 -2.9214
   19SAPC  H20T 2499   2.931   2.835   9.323  2.1910 -0.5397  1.5515
   19SAPC   C33 2500   2.382   3.428   9.973 -0.5641 -0.3547 -0.1865
   19SAPC   H3X 2501   2.377   3.535  10.003 -2.0346 -0.0315 -1.4992
   19SAPC   H3Y 2502   2.286   3.387  10.011  0.0662 -0.9104  0.8723
   19SAPC   C34 2503   2.391   3.416   9.826 -0.1999 -0.1588 -0.1175
   19SAPC   H4X 2504   2.410   3.310   9.799  0.7025  0.1138 -0.5884
   19SAPC   H4Y 2505   2.474   3.479   9.789 -0.3630 -0.1510 -0.4760
   19SAPC   C35 2506   2.257   3.463   9.766 -0.5017 -0.2069 -0.1760
   19SAPC   H5X 2507   2.260   3.574   9.758 -1.9578 -0.1972 -0.9462
   19SAPC   H5Y 2508   2.186   3.441   9.848 -0.7070  0.1937 -0.2432
   19SAPC   C36 2509   2.220   3.396   9.633  0.0903 -0.4433  0.3319
   19SAPC   H6X 2510   2.118   3.436   9.612  0.2527 -0.1923  0.0141
   19SAPC   H6Y 2511   2.212   3.286   9.638 -0.3062 -0.3925  1.0009
   19SAPC   C37 2512   2.317   3.436   9.522 -0.0159 -0.1969 -0.1624
   19SAPC   H7X 2513   2.421   3.403   9.538  1.4213  3.0173 -1.7677
   19SAPC   H7Y 2514   2.330   3.546   9.509  0.6439 -0.1776  0.6009
   19SAPC   C38 2515   2.257   3.361   9.393  0.3508  0.4614  0.1502
   19SAPC   H8X 2516   2.165   3.419   9.373 -0.8746 -0.8702  1.6293
   19SAPC   H8Y 2517   2.232   3.256   9.421  0.3706  1.2191  3.3356
   19SAPC   C39 2518   2.360   3.338   9.275  0.8516 -0.7941 -0.0909
   19SAPC   H9X 2519   2.299   3.279   9.203 -1.3182 -1.2340  1.9666
   19SAPC   H9Y 2520   2.452   3.287   9.313  0.5396 -0.6756  0.8607
   19SAPC  C310 2521   2.400   3.467   9.204 -0.0863 -0.1485 -0.0972
   19SAPC  H10X 2522   2.460   3.536   9.266  0.2806  0.3941 -1.0245
   19SAPC  H10Y 2523   2.312   3.523   9.166  0.2045 -1.8363 -3.6825
   19SAPC  C311 2524   2.486   3.439   9.084 -0.3492  0.6262 -0.5857
   19SAPC  H11X 2525   2.454   3.343   9.039 -0.0754  0.8724 -1.3194
   19SAPC  H11Y 2526   2.594   3.432   9.108 -0.2310  1.8242 -0.6713
   19SAPC  C312 2527   2.472   3.560   8.991  0.1705  0.0507 -0.4841
   19SAPC  H12X 2528   2.468   3.658   9.044  0.3942 -0.5083  0.5995
   19SAPC  H12Y 2529   2.370   3.560   8.947 -0.0246  2.4263 -0.1376
   19SAPC  C313 2530   2.584   3.562   8.883 -0.5938 -0.4122 -0.3062
   19SAPC  H13X 2531   2.683   3.578   8.931 -0.2842 -0.4341 -0.9281
   19SAPC  H13Y 2532   2.566   3.651   8.819 -4.0027 -0.9133 -0.2310
   19SAPC  C314 2533   2.566   3.453   8.778 -0.5707  0.8588 -0.3887
   19SAPC  H14X 2534   2.560   3.354   8.827 -0.8291  0.6782 -0.7868
   19SAPC  H14Y 2535   2.657   3.452   8.714 -0.4742  0.6603 -0.2494
   19SAPC  C315 2536   2.448   3.483   8.694 -0.1144 -0.6876  0.3493
   19SAPC  H15X 2537   2.431   3.590   8.671 -2.0294 -0.6304  1.7907
   19SAPC  H15Y 2538   2.355   3.447   8.742 -1.0113 -0.0164 -0.8284
   19SAPC  C316 2539   2.464   3.425   8.551  0.2968  0.4717 -0.1487
   19SAPC  H16X 2540   2.519   3.329   8.559  0.7727  0.8194  1.0158
   19SAPC  H16Y 2541   2.525   3.498   8.492  2.0472 -0.7806  0.0399
   19SAPC  C317 2542   2.333   3.401   8.477  0.4625  0.2754  0.1054
   19SAPC  H17X 2543   2.263   3.478   8.515  0.7003  0.4744  0.1406
   19SAPC  H17Y 2544   2.298   3.297   8.494  0.1451  0.6613  2.0747
   19SAPC  C318 2545   2.354   3.424   8.325 -0.7227 -0.2419 -0.2465
   19SAPC  H18X 2546   2.258   3.442   8.271  0.7170  0.8935 -2.5810
   19SAPC  H18Y 2547   2.411   3.345   8.273  0.8538  0.8431 -0.2464
   19SAPC  H18Z 2548   2.418   3.514   8.311 -0.9100  0.1689  1.2679
   20SAPC     N 2549   2.746   6.624  11.163 -0.1542  0.1198 -0.0143
   20SAPC   C12 2550   2.810   6.574  11.036  1.0743 -0.0067  0.3587
   20SAPC  H12A 2551   2.856   6.480  11.062  1.5066  0.5641  1.7421
   20SAPC  H12B 2552   2.890   6.643  11.016  1.3379  0.0900  1.6312
   20SAPC   C13 2553   2.672   6.758  11.136  0.1688 -0.2820  0.0058
   20SAPC  H13A 2554   2.740   6.821  11.080  2.4268 -0.9459  1.8388
   20SAPC  H13B 2555   2.580   6.740  11.082 -0.1871 -1.3047  0.9234
   20SAPC  H13C 2556   2.640   6.793  11.233  1.9210 -0.1094  0.5552
   20SAPC   C14 2557   2.650   6.521  11.207  0.3139  0.2984 -0.0405
   20SAPC  H14A 2558   2.595   6.481  11.123 -0.0357  0.0800  0.2870
   20SAPC  H14B 2559   2.698   6.430  11.240 -1.2249  0.3885  2.8047
   20SAPC  H14C 2560   2.580   6.545  11.286 -0.3235 -1.4904 -0.0113
   20SAPC   C15 2561   2.852   6.650  11.263 -0.8241  0.2988 -0.4947
   20SAPC  H15A 2562   2.900   6.558  11.292 -1.4057  0.2570  0.3772
   20SAPC  H15B 2563   2.936   6.702  11.220 -0.8830 -0.0538 -1.0469
   20SAPC  H15C 2564   2.812   6.700  11.350  0.9521 -0.9687  1.1121
   20SAPC   C11 2565   2.730   6.545  10.904 -0.5339 -0.1960  0.2382
   20SAPC  H11A 2566   2.801   6.498  10.832  1.6729  1.9783  0.8636
   20SAPC  H11B 2567   2.702   6.637  10.849  1.2447  0.1934 -0.0916
   20SAPC     P 2568   2.477   6.468  10.870  0.2243 -0.0279 -0.4469
   20SAPC   O13 2569   2.388   6.360  10.919 -0.0141  0.7285 -0.3468
   20SAPC   O14 2570   2.432   6.600  10.913 -0.0004 -0.2324 -0.1335
   20SAPC   O12 2571   2.618   6.447  10.922 -0.2164 -0.1016 -0.3230
   20SAPC   O11 2572   2.508   6.465  10.713 -0.2778  0.2638 -0.2921
   20SAPC    C1 2573   2.489   6.348  10.628  0.0040 -0.4315 -0.1618
   20SAPC    HA 2574   2.405   6.287  10.667 -0.6432 -0.3772 -1.4293
   20SAPC    HB 2575   2.464   6.379  10.525 -0.4537  0.2050  0.1352
   20SAPC    C2 2576   2.619   6.270  10.612  0.3772 -0.2988  0.4688
   20SAPC    HS 2577   2.679   6.286  10.704  0.0886  1.6410  0.3534
   20SAPC   O21 2578   2.691   6.327  10.501  0.2396  0.1570  0.1872
   20SAPC   C21 2579   2.825   6.309  10.503  1.0852 -0.0549  0.6856
   20SAPC   O22 2580   2.888   6.251  10.583  0.2333 -0.0526 -0.1110
   20SAPC   C22 2581   2.885   6.364  10.375  0.9013  0.6942 -0.1476
   20SAPC   H2R 2582   2.882   6.475  10.377  1.6215  0.7337 -0.8623
   20SAPC   H2S 2583   2.990   6.330  10.364 -0.0430 -1.8981 -2.5365
   20SAPC    C3 2584   2.599   6.117  10.594  0.1248  0.1316 -0.1018
   20SAPC    HX 2585   2.512   6.081  10.652  0.8369 -0.1509  0.7971
   20SAPC    HY 2586   2.688   6.057  10.623 -1.3810 -1.1829  1.9596
   20SAPC   O31 2587   2.579   6.095  10.457  0.4246  0.1542 -0.0534
   20SAPC   C31 2588   2.511   5.988  10.422 -1.1085  0.8792 -0.3551
   20SAPC   O32 2589   2.460   5.902  10.496 -0.2817 -0.3568 -0.0069
   20SAPC   C32 2590   2.492   5.983  10.268 -0.0185 -0.5708 -0.2467
   20SAPC   H2X 2591   2.589   5.959  10.218  0.0164  2.6076 -1.9622
   20SAPC   H2Y 2592   2.464   6.088  10.244  1.2652 -0.2760 -0.5800
   20SAPC   C23 2593   2.808   6.318  10.250  0.5199  0.0329 -0.6574
   20SAPC   H3R 2594   2.719   6.383  10.237 -0.1943 -0.2212  2.1975
   20SAPC   H3S 2595   2.776   6.213  10.264 -0.1184  0.2202 -0.6582
   20SAPC   C24 2596   2.881   6.325  10.115  0.4717  0.2839 -0.0715
   20SAPC   H4R 2597   2.813   6.270  10.047 -2.0720  1.3688  1.4226
   20SAPC   H4S 2598   2.970   6.260  10.124  0.2667 -0.2353 -1.5887
   20SAPC   C25 2599   2.919   6.470  10.081  0.8032 -0.5400  0.7632
   20SAPC   H5R 2600   2.834   6.534  10.054  0.8260 -1.4154 -1.6688
   20SAPC   C26 2601   3.043   6.521  10.074 -0.1932  0.3739 -0.2414
   20SAPC   H6R 2602   3.050   6.631  10.065 -2.3903  0.6957  1.0701
   20SAPC   C27 2603   3.167   6.448  10.112  0.5059  0.1921  0.9114
   20SAPC   H7R 2604   3.148   6.339  10.126 -1.8348  0.2155 -1.3379
   20SAPC   H7S 2605   3.205   6.498  10.203  2.5802  1.9468 -0.8005
   20SAPC   C28 2606   3.276   6.464  10.008 -0.3727  0.1671  0.1247
   20SAPC   H8R 2607   3.361   6.533  10.023  0.1793 -0.4426 -0.1055
   20SAPC   C29 2608   3.276   6.397   9.892  0.1312 -0.8697 -0.4262
   20SAPC   H9R 2609   3.351   6.422   9.816  1.2400 -0.8837  0.6313
   20SAPC  C210 2610   3.172   6.295   9.856  0.2367 -0.4060 -0.2191
   20SAPC  H10R 2611   3.069   6.330   9.880  0.2122 -0.6683  0.0730
   20SAPC  H10S 2612   3.188   6.204   9.918 -0.8520 -0.8706 -0.6085
   20SAPC  C211 2613   3.172   6.278   9.706 -0.4566 -0.0785 -0.2190
   20SAPC  H11R 2614   3.123   6.363   9.656  1.2136  1.2424  0.3345
   20SAPC  C212 2615   3.204   6.169   9.636 -1.1077 -0.4177  0.1611
   20SAPC  H12R 2616   3.187   6.174   9.527 -3.9867 -0.1212  0.5682
   20SAPC  C213 2617   3.265   6.040   9.686  0.7766 -0.4049  0.2785
   20SAPC  H13R 2618   3.292   6.047   9.794 -0.7933 -1.5798  0.8087
   20SAPC  H13S 2619   3.364   6.021   9.640  0.8447 -0.2766  0.3715
   20SAPC  C214 2620   3.155   5.931   9.670 -0.1956 -0.0294 -0.4693
   20SAPC  H14R 2621   3.056   5.951   9.713  0.2718 -2.4657  2.0411
   20SAPC  C215 2622   3.178   5.805   9.621  0.4041  0.5586 -0.4313
   20SAPC  H15R 2623   3.105   5.727   9.643  0.4225  1.0233  1.4320
   20SAPC  C216 2624   3.306   5.746   9.576  0.2846  0.3008  1.1181
   20SAPC  H16R 2625   3.346   5.686   9.660  0.7341 -0.9257  0.0722
   20SAPC  H16S 2626   3.384   5.823   9.556  1.2617 -0.7328  0.8027
   20SAPC  C217 2627   3.299   5.658   9.447  0.1171  0.3137 -0.5760
   20SAPC  H17R 2628   3.270   5.730   9.368  1.1848  1.6331  0.1792
   20SAPC  H17S 2629   3.222   5.579   9.459 -0.6569  1.1228 -0.1126
   20SAPC  C218 2630   3.426   5.579   9.415  0.4613  0.0211  0.9794
   20SAPC  H18R 2631   3.439   5.492   9.484  2.2614  0.0362  0.6978
   20SAPC  H18S 2632   3.509   5.652   9.422  0.2020  0.7585 -2.1902
   20SAPC  C219 2633   3.429   5.511   9.273  0.2004 -0.4674  0.2342
   20SAPC  H19R 2634   3.337   5.457   9.243  1.3769 -1.4271 -1.8093
   20SAPC  H19S 2635   3.508   5.434   9.267 -0.8403 -1.7356  1.7911
   20SAPC  C220 2636   3.455   5.630   9.175  0.0589 -0.5385  0.7336
   20SAPC  H20R 2637   3.455   5.589   9.072 -1.5532  1.6525 -0.2237
   20SAPC  H20S 2638   3.555   5.672   9.199 -0.0506 -0.0092  0.3088
   20SAPC  H20T 2639   3.382   5.713   9.191 -1.3509 -1.2171 -1.7300
   20SAPC   C33 2640   2.389   5.890  10.219 -0.2236  0.2904  0.0807
   20SAPC   H3X 2641   2.286   5.911  10.257 -0.1046 -2.3265  2.1592
   20SAPC   H3Y 2642   2.407   5.792  10.269 -1.0075  0.2355  0.2779
   20SAPC   C34 2643   2.385   5.880  10.068  1.0657  0.0737  0.8510
   20SAPC   H4X 2644   2.302   5.814  10.034  0.9152  1.0755 -0.8241
   20SAPC   H4Y 2645   2.483   5.837  10.039  1.9212  0.4281  3.0078
   20SAPC   C35 2646   2.351   6.019  10.012  0.2136  0.3404  0.6315
   20SAPC   H5X 2647   2.429   6.091  10.045 -0.2051  2.1946 -2.0929
   20SAPC   H5Y 2648   2.249   6.042  10.052  0.3270  0.9199  0.6043
   20SAPC   C36 2649   2.359   6.034   9.856 -0.0611 -0.1316  0.1863
   20SAPC   H6X 2650   2.463   6.049   9.819  0.2472 -3.6758 -0.6937
   20SAPC   H6Y 2651   2.307   6.126   9.819  4.3450  1.7549 -2.1252
   20SAPC   C37 2652   2.291   5.922   9.775  0.7433  0.3223 -0.4946
   20SAPC   H7X 2653   2.183   5.917   9.798  1.3065  1.6443  3.1316
   20SAPC   H7Y 2654   2.337   5.828   9.814 -1.4805 -0.4032  0.5130
   20SAPC   C38 2655   2.300   5.945   9.622 -0.4885 -0.0857  0.2663
   20SAPC   H8X 2656   2.408   5.967   9.607 -0.6861 -0.3618 -1.8778
   20SAPC   H8Y 2657   2.244   6.037   9.595  1.2287  0.4319 -1.8437
   20SAPC   C39 2658   2.255   5.820   9.539  0.3406  0.1836 -0.3270
   20SAPC   H9X 2659   2.160   5.778   9.578  0.0160 -1.3989 -2.6152
   20SAPC   H9Y 2660   2.331   5.741   9.561  0.4762  0.8291  1.7048
   20SAPC  C310 2661   2.253   5.834   9.385  0.1619 -0.3721 -0.1546
   20SAPC  H10X 2662   2.207   5.934   9.368 -1.9918 -1.2010  0.4541
   20SAPC  H10Y 2663   2.197   5.745   9.351  0.5412 -1.0956  1.0420
   20SAPC  C311 2664   2.390   5.830   9.326 -0.3525 -0.2409  0.1892
   20SAPC  H11X 2665   2.447   5.745   9.368  0.9977  0.8446  0.6321
   20SAPC  H11Y 2666   2.443   5.922   9.359 -0.4097 -0.1769  0.1014
   20SAPC  C312 2667   2.386   5.836   9.174  0.1277  0.1438 -0.0425
   20SAPC  H12X 2668   2.334   5.927   9.137 -1.0352  0.2461  1.7102
   20SAPC  H12Y 2669   2.326   5.751   9.135  0.7533  0.1822 -1.1276
   20SAPC  C313 2670   2.523   5.822   9.105  0.1720  0.2608  0.3649
   20SAPC  H13X 2671   2.560   5.717   9.110  1.8675  0.3753 -4.3838
   20SAPC  H13Y 2672   2.606   5.884   9.147  1.3960  0.0062 -1.5322
   20SAPC  C314 2673   2.513   5.850   8.954 -0.5585 -0.4070  0.1005
   20SAPC  H14X 2674   2.519   5.959   8.933  0.0657 -0.3391  0.5770
   20SAPC  H14Y 2675   2.425   5.801   8.909  0.8670 -0.2957 -3.0238
   20SAPC  C315 2676   2.630   5.781   8.885 -0.6213 -0.4186  0.2979
   20SAPC  H15X 2677   2.620   5.672   8.902  0.2714 -0.5333  0.1601
   20SAPC  H15Y 2678   2.725   5.823   8.926 -0.5217  1.2253 -1.4668
   20SAPC  C316 2679   2.637   5.820   8.738  0.0071 -0.1077 -0.4152
   20SAPC  H16X 2680   2.721   5.763   8.692  1.1971 -1.1687  2.7710
   20SAPC  H16Y 2681   2.660   5.929   8.738 -1.1882  0.1539  0.1647
   20SAPC  C317 2682   2.513   5.799   8.663 -0.8382  0.1571 -0.0738
   20SAPC  H17X 2683   2.450   5.890   8.675 -0.5785  0.2925  0.2439
   20SAPC  H17Y 2684   2.468   5.705   8.703 -1.6202 -0.9426 -3.1857
   20SAPC  C318 2685   2.540   5.768   8.514  0.4883 -1.1819 -0.9035
   20SAPC  H18X 2686   2.571   5.857   8.456 -1.2744 -0.1344 -0.3283
   20SAPC  H18Y 2687   2.441   5.738   8.474  0.2776 -0.4169 -0.9709
   20SAPC  H18Z 2688   2.610   5.683   8.506  1.1617 -1.1714  2.8212
   21SAPC     N 2689   1.686   5.879  10.612 -0.0504 -0.1734  0.0115
   21SAPC   C12 2690   1.812   5.840  10.541 -0.2301  0.3009  0.6724
   21SAPC  H12A 2691   1.802   5.863  10.436 -1.3732  1.0405  0.9329
   21SAPC  H12B 2692   1.813   5.732  10.544 -0.0978  0.2508 -0.6112
   21SAPC   C13 2693   1.575   5.852  10.517  0.3153 -0.0813  0.6975
   21SAPC  H13A 2694   1.503   5.932  10.529  0.5533  0.4628 -1.2121
   21SAPC  H13B 2695   1.615   5.868  10.418 -1.4785  0.9848  0.0998
   21SAPC  H13C 2696   1.539   5.751  10.526 -0.2910  0.1677  1.1222
   21SAPC   C14 2697   1.677   5.800  10.731 -0.7627  0.0162 -0.3911
   21SAPC  H14A 2698   1.580   5.800  10.779 -1.1005 -2.7299 -0.8945
   21SAPC  H14B 2699   1.702   5.700  10.699 -0.2143  0.2694 -0.7607
   21SAPC  H14C 2700   1.763   5.826  10.791 -0.1881 -0.8619 -0.8206
   21SAPC   C15 2701   1.686   6.026  10.648  0.2897 -0.8097 -0.3846
   21SAPC  H15A 2702   1.703   6.089  10.562 -0.2026  0.8006  0.6635
   21SAPC  H15B 2703   1.589   6.060  10.682  1.7168  1.3730  1.7302
   21SAPC  H15C 2704   1.759   6.050  10.724 -1.2173  3.6788 -0.0517
   21SAPC   C11 2705   1.944   5.895  10.606  0.0001  0.0967 -0.1308
   21SAPC  H11A 2706   1.940   6.004  10.629  0.1012 -0.0506  0.5847
   21SAPC  H11B 2707   2.030   5.889  10.536  0.0897  2.8111 -0.3623
   21SAPC     P 2708   2.016   5.665  10.724 -0.3065  0.6600 -0.1091
   21SAPC   O13 2709   2.164   5.647  10.739 -0.0660  0.5468 -0.0251
   21SAPC   O14 2710   1.930   5.586  10.812  0.6446 -0.2837  0.1337
   21SAPC   O12 2711   1.975   5.817  10.726  0.4682  0.1651  0.5821
   21SAPC   O11 2712   1.985   5.626  10.580 -0.1906 -0.0861 -0.2411
   21SAPC    C1 2713   2.090   5.621  10.485 -0.7929 -0.0204  0.4486
   21SAPC    HA 2714   2.147   5.716  10.479 -0.2729 -0.4169 -3.1515
   21SAPC    HB 2715   2.158   5.533  10.496 -0.2617  0.2799 -0.3043
   21SAPC    C2 2716   2.022   5.613  10.347  0.3986 -0.0239 -0.0988
   21SAPC    HS 2717   1.974   5.711  10.331 -1.6997 -0.9689  0.0905
   21SAPC   O21 2718   1.923   5.509  10.336 -0.0652  0.2486 -0.7682
   21SAPC   C21 2719   1.792   5.543  10.340 -0.3107 -0.6935 -1.1660
   21SAPC   O22 2720   1.759   5.662  10.335  0.2395  0.1963  0.5458
   21SAPC   C22 2721   1.704   5.414  10.364  0.1230  0.0848  0.3963
   21SAPC   H2R 2722   1.730   5.328  10.298  0.1920 -0.3176  0.9380
   21SAPC   H2S 2723   1.727   5.375  10.465 -0.0472 -2.6362 -0.5180
   21SAPC    C3 2724   2.138   5.600  10.238  0.5216  0.1453  0.2106
   21SAPC    HX 2725   2.215   5.529  10.275  0.6896  0.4817  0.5129
   21SAPC    HY 2726   2.193   5.697  10.233 -0.1652  0.5200 -0.3761
   21SAPC   O31 2727   2.088   5.563  10.102 -0.9679 -0.2102  0.3510
   21SAPC   C31 2728   2.044   5.674  10.038 -0.3314 -0.6129 -1.9613
   21SAPC   O32 2729   2.033   5.783  10.095 -0.0909 -0.0157  0.4610
   21SAPC   C32 2730   2.005   5.640   9.894  0.3437 -0.0569  0.1801
   21SAPC   H2X 2731   2.097   5.651   9.834  1.8088 -0.0023  2.3336
   21SAPC   H2Y 2732   1.934   5.721   9.866 -1.0899 -0.7352  1.6587
   21SAPC   C23 2733   1.556   5.446  10.344 -0.0489  0.3079 -0.4626
   21SAPC   H3R 2734   1.533   5.553  10.357  0.0211  0.0661  2.1860
   21SAPC   H3S 2735   1.500   5.387  10.419 -0.5114  1.1460 -0.1493
   21SAPC   C24 2736   1.499   5.406  10.208  0.2576  0.1954 -0.9657
   21SAPC   H4R 2737   1.569   5.463  10.143  0.8379  1.4278  0.6759
   21SAPC   H4S 2738   1.398   5.448  10.196 -0.6906 -1.8632 -0.6802
   21SAPC   C25 2739   1.495   5.260  10.172 -0.1983 -0.4395  0.2930
   21SAPC   H5R 2740   1.454   5.192  10.248  0.6416 -1.7176 -0.3760
   21SAPC   C26 2741   1.526   5.207  10.050  0.6199 -0.1750 -0.7872
   21SAPC   H6R 2742   1.524   5.098  10.040 -0.9386 -0.2937  0.5317
   21SAPC   C27 2743   1.569   5.286   9.930  0.3653  0.2977 -0.1596
   21SAPC   H7R 2744   1.678   5.286   9.910  0.4457  0.7203  0.2637
   21SAPC   H7S 2745   1.549   5.395   9.944  2.6567  0.5752  1.4203
   21SAPC   C28 2746   1.495   5.236   9.807  0.0961  0.1920 -0.0811
   21SAPC   H8R 2747   1.437   5.145   9.827  2.0558 -0.8235  1.2663
   21SAPC   C29 2748   1.490   5.293   9.682 -0.6048  0.2206 -0.5082
   21SAPC   H9R 2749   1.426   5.247   9.605 -0.4411 -1.5856  0.3979
   21SAPC  C210 2750   1.563   5.418   9.639  0.4818  0.7320 -0.1163
   21SAPC  H10R 2751   1.658   5.394   9.585 -0.9006  1.1791 -2.9152
   21SAPC  H10S 2752   1.591   5.481   9.726 -1.4500  2.1790 -0.5030
   21SAPC  C211 2753   1.474   5.494   9.544 -0.2841 -0.4899  0.2246
   21SAPC  H11R 2754   1.392   5.548   9.592  0.3996  0.1693  0.6801
   21SAPC  C212 2755   1.484   5.501   9.412  0.0261 -0.7977  0.1329
   21SAPC  H12R 2756   1.413   5.564   9.356  1.0363 -0.2357 -0.5431
   21SAPC  C213 2757   1.582   5.431   9.320 -0.0388 -0.9657 -0.0932
   21SAPC  H13R 2758   1.674   5.406   9.377  0.6193 -1.8204 -1.4706
   21SAPC  H13S 2759   1.615   5.507   9.246 -2.1599 -1.3592 -1.5504
   21SAPC  C214 2760   1.535   5.312   9.240  0.4843  0.4356  0.9394
   21SAPC  H14R 2761   1.497   5.222   9.292  1.2300  1.4781  3.4653
   21SAPC  C215 2762   1.523   5.306   9.106 -0.4087 -0.2720 -0.0012
   21SAPC  H15R 2763   1.482   5.214   9.062  0.3256  0.2757 -1.9111
   21SAPC  C216 2764   1.566   5.420   9.006 -0.4333  0.1459  0.5195
   21SAPC  H16R 2765   1.598   5.375   8.910 -1.9971 -0.0951  0.0745
   21SAPC  H16S 2766   1.661   5.462   9.045  0.2268 -1.3719  0.6288
   21SAPC  C217 2767   1.461   5.520   8.971  1.0273  0.1065 -0.5063
   21SAPC  H17R 2768   1.426   5.571   9.063 -1.0749 -3.1846  0.6965
   21SAPC  H17S 2769   1.371   5.479   8.920  2.0808 -2.7785 -0.2527
   21SAPC  C218 2770   1.525   5.641   8.894  1.0034 -0.0307  0.2005
   21SAPC  H18R 2771   1.604   5.690   8.955  1.4374 -0.4848  0.0109
   21SAPC  H18S 2772   1.449   5.715   8.861  1.1833 -1.0026 -2.6185
   21SAPC  C219 2773   1.581   5.602   8.757 -0.3957  0.5972  1.0993
   21SAPC  H19R 2774   1.513   5.524   8.715 -0.9154  0.4842  2.1124
   21SAPC  H19S 2775   1.673   5.550   8.791 -1.4004 -0.4460  2.3488
   21SAPC  C220 2776   1.615   5.714   8.661  0.5179  0.1863 -0.1141
   21SAPC  H20R 2777   1.705   5.767   8.699  2.8253 -2.3803 -1.6593
   21SAPC  H20S 2778   1.528   5.780   8.639  1.1774  1.6920  1.5805
   21SAPC  H20T 2779   1.642   5.679   8.559  1.3656 -1.2789  0.5860
   21SAPC   C33 2780   1.937   5.501   9.867 -0.3631  0.8807  0.6307
   21SAPC   H3X 2781   1.854   5.479   9.938  0.4997 -0.4879  1.2539
   21SAPC   H3Y 2782   2.006   5.418   9.891 -2.1915 -1.0622 -0.5196
   21SAPC   C34 2783   1.896   5.486   9.722  0.4222 -0.7100 -1.1322
   21SAPC   H4X 2784   1.802   5.544   9.708 -0.5272 -1.6692  0.8457
   21SAPC   H4Y 2785   1.870   5.378   9.714  1.0700 -1.4908  3.9283
   21SAPC   C35 2786   1.994   5.526   9.607  0.4697  0.1596  0.1288
   21SAPC   H5X 2787   2.092   5.478   9.629  0.1953 -0.3516  0.2562
   21SAPC   H5Y 2788   1.977   5.634   9.628 -1.0095  0.0746 -0.5271
   21SAPC   C36 2789   1.930   5.495   9.473  0.3411 -0.4437 -0.3577
   21SAPC   H6X 2790   1.837   5.555   9.462  0.2666 -0.2938  0.9641
   21SAPC   H6Y 2791   1.900   5.388   9.461 -1.5820  0.2551 -2.6789
   21SAPC   C37 2792   2.014   5.539   9.345 -0.9145 -0.7406  0.9749
   21SAPC   H7X 2793   2.115   5.492   9.348 -0.1344  0.4706 -2.1679
   21SAPC   H7Y 2794   2.017   5.650   9.344 -1.5821 -0.7172 -0.4421
   21SAPC   C38 2795   1.954   5.483   9.218  0.8785  0.0392  0.1318
   21SAPC   H8X 2796   1.856   5.530   9.197  0.8648 -0.5363 -1.1867
   21SAPC   H8Y 2797   1.936   5.373   9.212 -0.0814  0.1693  0.5627
   21SAPC   C39 2798   2.041   5.519   9.101  0.2484  0.3244  0.4828
   21SAPC   H9X 2799   2.139   5.465   9.103 -0.5752 -1.2008  1.8550
   21SAPC   H9Y 2800   2.083   5.622   9.093 -1.1637  0.8446 -0.7279
   21SAPC  C310 2801   1.971   5.483   8.967 -0.2556 -0.1576  0.6148
   21SAPC  H10X 2802   1.864   5.509   8.956 -0.5491 -2.0189 -1.7852
   21SAPC  H10Y 2803   1.974   5.373   8.954  0.3498  0.1428 -2.8143
   21SAPC  C311 2804   2.047   5.546   8.844  0.1133  0.1291  0.1590
   21SAPC  H11X 2805   2.156   5.547   8.864  0.5933  1.3153 -2.2285
   21SAPC  H11Y 2806   2.012   5.651   8.841  0.9434  0.3912 -0.5416
   21SAPC  C312 2807   1.997   5.469   8.716  0.4774  0.2311  0.0153
   21SAPC  H12X 2808   1.887   5.452   8.723  0.4329 -1.3122 -2.8813
   21SAPC  H12Y 2809   2.050   5.372   8.703  1.1165  0.3078  1.7709
   21SAPC  C313 2810   2.023   5.561   8.594  0.0426  0.1443  0.2434
   21SAPC  H13X 2811   2.127   5.599   8.606 -0.3991  1.3998  0.1912
   21SAPC  H13Y 2812   1.956   5.649   8.593 -1.2067 -0.7145 -2.5345
   21SAPC  C314 2813   2.000   5.490   8.461 -0.5789  0.4946 -0.6145
   21SAPC  H14X 2814   1.906   5.434   8.479  1.0859 -1.6922  2.4304
   21SAPC  H14Y 2815   2.076   5.413   8.434 -0.0768  1.0493 -0.8106
   21SAPC  C315 2816   1.992   5.567   8.338  0.0850  0.2734  0.3083
   21SAPC  H15X 2817   2.087   5.614   8.303 -0.7134  1.0401 -0.9084
   21SAPC  H15Y 2818   1.920   5.651   8.348 -2.4032 -1.6248 -0.8896
   21SAPC  C316 2819   1.936   5.469   8.231 -0.8168 -0.8829 -0.4858
   21SAPC  H16X 2820   1.848   5.407   8.258 -1.5432 -1.0243 -2.9542
   21SAPC  H16Y 2821   2.021   5.398   8.215  1.2622  1.3528  0.1379
   21SAPC  C317 2822   1.909   5.562   8.110 -0.2191  0.8083 -0.8831
   21SAPC  H17X 2823   2.009   5.599   8.079  0.1900  0.1606 -0.3720
   21SAPC  H17Y 2824   1.855   5.654   8.140 -1.3722  0.1442 -0.8880
   21SAPC  C318 2825   1.836   5.501   7.990  0.1847 -1.0063  0.1156
   21SAPC  H18X 2826   1.899   5.431   7.932  1.6213 -0.5087  1.0192
   21SAPC  H18Y 2827   1.814   5.591   7.928 -1.6145 -0.3736  1.5871
   21SAPC  H18Z 2828   1.734   5.459   8.004  1.0172 -3.4761 -0.7140
   22SAPC     N 2829   2.612   3.935  10.614 -0.1207  0.4813 -0.2129
   22SAPC   C12 2830   2.492   3.841  10.618  0.3125  0.5735 -0.0297
   22SAPC  H12A 2831   2.486   3.790  10.523 -0.6610  4.5224 -2.3215
   22SAPC  H12B 2832   2.402   3.900  10.629  0.4909  0.9336 -0.4867
   22SAPC   C13 2833   2.614   4.017  10.488 -0.0679  0.5724 -0.5896
   22SAPC  H13A 2834   2.677   4.103  10.506  0.9076 -0.2370 -0.0728
   22SAPC  H13B 2835   2.660   3.962  10.408 -0.0640 -1.3163  0.6567
   22SAPC  H13C 2836   2.513   4.047  10.462 -1.1411 -0.0969  2.3794
   22SAPC   C14 2837   2.605   4.034  10.722 -1.2968 -0.0193 -0.7604
   22SAPC  H14A 2838   2.525   4.104  10.708  0.9548  2.7935 -0.3907
   22SAPC  H14B 2839   2.587   3.990  10.819 -1.3472  2.2772  0.3153
   22SAPC  H14C 2840   2.700   4.086  10.731 -3.1371  3.2734  1.4301
   22SAPC   C15 2841   2.736   3.842  10.614  0.1185 -0.0536  0.3782
   22SAPC  H15A 2842   2.824   3.904  10.617  0.0513  0.0130  1.5101
   22SAPC  H15B 2843   2.736   3.780  10.703 -0.0959 -0.3568  0.1655
   22SAPC  H15C 2844   2.738   3.777  10.528  0.7828 -0.2400  0.5259
   22SAPC   C11 2845   2.485   3.733  10.733  0.1280  0.9831 -0.3279
   22SAPC  H11A 2846   2.476   3.785  10.831 -0.0005 -2.8207  1.9051
   22SAPC  H11B 2847   2.585   3.684  10.737  0.1091  1.0036  1.5434
   22SAPC     P 2848   2.242   3.655  10.776  0.1095 -0.1939  0.0213
   22SAPC   O13 2849   2.218   3.542  10.870 -0.0104  0.4115  0.1920
   22SAPC   O14 2850   2.231   3.796  10.818  0.2159 -0.4185  0.2647
   22SAPC   O12 2851   2.388   3.628  10.712  0.6762  0.4498  0.7407
   22SAPC   O11 2852   2.151   3.638  10.651 -0.2614 -0.6785 -0.1568
   22SAPC    C1 2853   2.030   3.711  10.648  0.3957 -0.0558  0.1075
   22SAPC    HA 2854   1.950   3.635  10.660 -1.6537  2.1822  1.3953
   22SAPC    HB 2855   2.005   3.761  10.745 -0.9219 -1.4410  0.5267
   22SAPC    C2 2856   2.023   3.808  10.531  0.4501  0.1554 -0.0635
   22SAPC    HS 2857   1.916   3.833  10.514  0.4691  0.1213 -0.2389
   22SAPC   O21 2858   2.073   3.735  10.415  0.2391 -0.4069  0.2607
   22SAPC   C21 2859   2.012   3.627  10.376 -0.5726  0.6261 -0.2208
   22SAPC   O22 2860   1.910   3.576  10.418  0.4711  0.1736  0.0503
   22SAPC   C22 2861   2.091   3.576  10.259  0.5569 -0.1233  0.3920
   22SAPC   H2R 2862   2.099   3.661  10.188 -3.0891 -0.5135 -0.7089
   22SAPC   H2S 2863   2.189   3.538  10.294  0.6405 -0.8669 -0.5952
   22SAPC    C3 2864   2.113   3.936  10.552 -0.9263  0.7519 -0.2643
   22SAPC    HX 2865   2.215   3.901  10.576 -0.6843  0.8918 -1.0546
   22SAPC    HY 2866   2.088   3.983  10.649 -0.4322 -1.5488  1.0566
   22SAPC   O31 2867   2.111   4.031  10.442  0.8947 -0.1335 -0.0234
   22SAPC   C31 2868   2.220   4.030  10.356  0.4792 -0.7279  0.5629
   22SAPC   O32 2869   2.314   3.954  10.375  0.1732  0.3932  0.8426
   22SAPC   C32 2870   2.190   4.134  10.249 -1.0201 -0.2123  0.6446
   22SAPC   H2X 2871   2.247   4.223  10.284  0.6875 -0.8693 -0.3619
   22SAPC   H2Y 2872   2.081   4.154  10.236 -0.5413  1.1526 -2.0010
   22SAPC   C23 2873   2.019   3.462  10.174  0.4050 -0.3414  0.9004
   22SAPC   H3R 2874   1.960   3.398  10.243  0.6276 -0.8462  0.6270
   22SAPC   H3S 2875   2.092   3.408  10.110  0.6638  0.5023  0.4795
   22SAPC   C24 2876   1.911   3.518  10.077  0.2325 -0.1578  0.7755
   22SAPC   H4R 2877   1.842   3.578  10.141 -0.6192 -1.3583  1.0221
   22SAPC   H4S 2878   1.855   3.432  10.033 -1.3790  1.7650 -1.1934
   22SAPC   C25 2879   1.954   3.591   9.952  0.2925  0.8340  0.5020
   22SAPC   H5R 2880   2.028   3.670   9.973 -1.6558  3.0353 -0.3746
   22SAPC   C26 2881   1.919   3.566   9.826  0.1025  0.3513 -0.0272
   22SAPC   H6R 2882   1.952   3.633   9.746  1.6711 -0.9849 -0.5483
   22SAPC   C27 2883   1.817   3.465   9.783 -0.5526  0.2416  0.3413
   22SAPC   H7R 2884   1.763   3.501   9.693 -0.1615 -0.3477 -0.1425
   22SAPC   H7S 2885   1.747   3.453   9.867 -0.0370 -1.3000  0.5725
   22SAPC   C28 2886   1.881   3.329   9.754  0.2932 -0.3769  0.8814
   22SAPC   H8R 2887   1.898   3.265   9.842  2.6116  1.4330  1.8731
   22SAPC   C29 2888   1.903   3.273   9.631  0.1713 -0.7036 -0.0405
   22SAPC   H9R 2889   1.914   3.164   9.637  0.4964 -0.6014  2.0459
   22SAPC  C210 2890   1.880   3.334   9.497 -0.0162 -0.3840  0.0753
   22SAPC  H10R 2891   1.970   3.316   9.435  1.4672  0.6782  1.8092
   22SAPC  H10S 2892   1.882   3.444   9.510 -2.2958  0.1825 -3.0683
   22SAPC  C211 2893   1.758   3.295   9.410 -1.0227  0.0016 -0.1155
   22SAPC  H11R 2894   1.670   3.303   9.474 -1.3572  4.2202 -0.8421
   22SAPC  C212 2895   1.750   3.255   9.280 -0.5907  0.0313 -0.1393
   22SAPC  H12R 2896   1.651   3.235   9.236 -0.5039  0.6002 -0.5969
   22SAPC  C213 2897   1.874   3.247   9.191  0.0315  0.8256  0.1675
   22SAPC  H13R 2898   1.843   3.196   9.098  0.3682 -2.3716  1.6725
   22SAPC  H13S 2899   1.944   3.172   9.234  0.3738  1.9312  1.6310
   22SAPC  C214 2900   1.948   3.380   9.165  0.3830 -1.0065 -0.1236
   22SAPC  H14R 2901   1.936   3.458   9.241  2.4126 -0.6243 -0.1356
   22SAPC  C215 2902   2.024   3.402   9.056 -0.5275 -0.7165  0.5301
   22SAPC  H15R 2903   2.077   3.499   9.051  1.0256 -1.5864 -2.3537
   22SAPC  C216 2904   2.047   3.307   8.936 -0.1643 -0.2368 -0.0051
   22SAPC  H16R 2905   2.004   3.206   8.950 -0.7083 -0.0901 -0.5893
   22SAPC  H16S 2906   2.156   3.293   8.916 -0.8744 -3.1582 -2.6128
   22SAPC  C217 2907   1.999   3.381   8.817  0.3045 -0.0621  0.0452
   22SAPC  H17R 2908   2.058   3.472   8.793  0.2347 -0.1827 -0.6033
   22SAPC  H17S 2909   1.889   3.394   8.823  0.3089 -0.0961  0.2143
   22SAPC  C218 2910   2.007   3.289   8.691 -0.0749 -0.2836 -1.1619
   22SAPC  H18R 2911   1.940   3.202   8.704 -1.5629  1.1659  1.6773
   22SAPC  H18S 2912   2.112   3.254   8.681  0.5014  0.5768  1.1995
   22SAPC  C219 2913   1.962   3.365   8.563  0.1178  0.2555  0.3521
   22SAPC  H19R 2914   1.966   3.278   8.493  1.5024  0.0989  0.6010
   22SAPC  H19S 2915   2.041   3.441   8.546 -0.9867  1.6727  1.3729
   22SAPC  C220 2916   1.833   3.439   8.571  0.7241 -0.3660  0.8522
   22SAPC  H20R 2917   1.811   3.479   8.470  1.3202  1.9066  1.5651
   22SAPC  H20S 2918   1.836   3.526   8.640  1.9964  0.2460  0.0625
   22SAPC  H20T 2919   1.758   3.363   8.601  0.9402 -0.1956  1.8414
   22SAPC   C33 2920   2.254   4.087  10.114 -0.2827  0.5281  0.4641
   22SAPC   H3X 2921   2.362   4.060  10.115  0.1830  2.1904 -0.4164
   22SAPC   H3Y 2922   2.242   4.166  10.037  0.2235  2.4791  2.2783
   22SAPC   C34 2923   2.183   3.964  10.048 -0.5506  0.4269 -0.4947
   22SAPC   H4X 2924   2.076   3.975  10.023 -0.0915  0.1353 -2.7511
   22SAPC   H4Y 2925   2.197   3.880  10.120 -0.8286  0.4006 -0.4709
   22SAPC   C35 2926   2.245   3.912   9.917 -0.1954 -0.3630 -0.1791
   22SAPC   H5X 2927   2.198   3.811   9.910 -0.2010 -0.3054 -0.9516
   22SAPC   H5Y 2928   2.354   3.893   9.930  0.6023  2.5947 -1.8624
   22SAPC   C36 2929   2.208   3.984   9.786 -0.0534 -0.3967 -0.2956
   22SAPC   H6X 2930   2.255   4.084   9.775 -0.8322  0.0612  0.3878
   22SAPC   H6Y 2931   2.100   4.009   9.787 -0.2363 -1.0354 -1.9249
   22SAPC   C37 2932   2.251   3.904   9.663  0.3645  0.6794  0.3433
   22SAPC   H7X 2933   2.203   3.806   9.686 -0.4085  1.0255  0.2011
   22SAPC   H7Y 2934   2.358   3.873   9.657 -0.8984 -4.4689 -0.3631
   22SAPC   C38 2935   2.193   3.963   9.531  0.7580 -0.1812 -0.7543
   22SAPC   H8X 2936   2.237   4.065   9.533 -0.1494  0.2141  0.3921
   22SAPC   H8Y 2937   2.085   3.980   9.550  0.8922  0.1861 -0.2970
   22SAPC   C39 2938   2.226   3.882   9.407  0.3358  0.2447  0.3358
   22SAPC   H9X 2939   2.213   3.773   9.428  3.6907  0.1492  2.7555
   22SAPC   H9Y 2940   2.334   3.894   9.385  0.4037 -3.2172 -2.0847
   22SAPC  C310 2941   2.146   3.922   9.284 -0.2586  0.2365 -0.1146
   22SAPC  H10X 2942   2.192   4.020   9.261 -1.6873  1.1557  0.7394
   22SAPC  H10Y 2943   2.041   3.959   9.293 -0.2117 -0.0517  2.2140
   22SAPC  C311 2944   2.156   3.816   9.178  0.0843  0.5349 -1.1342
   22SAPC  H11X 2945   2.090   3.729   9.202 -0.2900  1.4661  1.5803
   22SAPC  H11Y 2946   2.262   3.785   9.190 -0.0729  0.7522  1.5574
   22SAPC  C312 2947   2.137   3.870   9.036 -0.2123  0.3210  0.7046
   22SAPC  H12X 2948   2.207   3.953   9.014 -2.0554  1.7723 -0.0385
   22SAPC  H12Y 2949   2.037   3.915   9.017  0.3451  0.4056 -2.5699
   22SAPC  C313 2950   2.162   3.762   8.927  0.0821  0.4919  0.0843
   22SAPC  H13X 2951   2.115   3.668   8.962 -0.8785  1.5176  1.6884
   22SAPC  H13Y 2952   2.269   3.737   8.910 -0.5412 -2.2645 -0.2654
   22SAPC  C314 2953   2.104   3.784   8.790  0.1413  0.2604  0.5604
   22SAPC  H14X 2954   1.995   3.800   8.806 -0.1857 -1.0632 -0.2145
   22SAPC  H14Y 2955   2.129   3.694   8.730 -0.1076 -0.1444  1.0542
   22SAPC  C315 2956   2.165   3.908   8.723 -0.2359  0.3756  0.1485
   22SAPC  H15X 2957   2.270   3.884   8.699 -1.2987 -1.7120 -3.1878
   22SAPC  H15Y 2958   2.148   3.997   8.788  0.4777  1.1414 -0.6985
   22SAPC  C316 2959   2.104   3.937   8.577  0.8648  0.3804 -0.5146
   22SAPC  H16X 2960   2.110   3.841   8.522  1.0864  0.6125 -0.9017
   22SAPC  H16Y 2961   2.170   4.010   8.526  0.6180  0.0996 -1.2578
   22SAPC  C317 2962   1.957   3.990   8.580 -0.2038  0.0682  0.4023
   22SAPC  H17X 2963   1.950   4.082   8.642 -2.1198  2.2088 -2.7190
   22SAPC  H17Y 2964   1.894   3.922   8.641 -2.4709 -0.2987 -2.1303
   22SAPC  C318 2965   1.897   4.036   8.442 -0.3799  0.2734 -0.0964
   22SAPC  H18X 2966   1.795   4.079   8.458 -0.3789  0.3153 -0.2042
   22SAPC  H18Y 2967   1.877   3.953   8.371 -1.9740  1.9709 -1.7658
   22SAPC  H18Z 2968   1.966   4.101   8.385 -1.6812  0.2856 -1.7208
   23SAPC     N 2969   3.584   5.630  10.494  0.3775  0.4701  0.1547
   23SAPC   C12 2970   3.513   5.752  10.449 -0.1035 -0.1983 -0.4883
   23SAPC  H12A 2971   3.413   5.740  10.487  0.0483  1.4971  0.5477
   23SAPC  H12B 2972   3.497   5.755  10.342 -0.9787 -0.1822 -0.3632
   23SAPC   C13 2973   3.572   5.604  10.641 -0.5489 -0.5990 -0.7736
   23SAPC  H13A 2974   3.642   5.530  10.678  1.9305  1.1096 -1.7651
   23SAPC  H13B 2975   3.579   5.697  10.696  0.4927 -1.0740 -0.0632
   23SAPC  H13C 2976   3.480   5.560  10.674 -1.6009  1.6032 -0.5754
   23SAPC   C14 2977   3.533   5.510  10.419 -0.1501 -0.0387  0.6476
   23SAPC  H14A 2978   3.545   5.527  10.313  0.6772 -0.7464  0.6223
   23SAPC  H14B 2979   3.588   5.424  10.453  2.2603  1.5099  0.8930
   23SAPC  H14C 2980   3.428   5.495  10.437 -0.4470  2.0197  0.9807
   23SAPC   C15 2981   3.724   5.658  10.466 -0.2171  0.7089 -0.2045
   23SAPC  H15A 2982   3.761   5.736  10.531  0.7272  0.4178 -0.3637
   23SAPC  H15B 2983   3.779   5.565  10.464 -1.9604 -0.4252  1.5944
   23SAPC  H15C 2984   3.737   5.700  10.367  0.6947 -1.5424 -1.1180
   23SAPC   C11 2985   3.577   5.890  10.493 -0.2625 -0.2430  0.5943
   23SAPC  H11A 2986   3.505   5.966  10.455 -2.1014 -1.9086  0.6066
   23SAPC  H11B 2987   3.674   5.904  10.440 -0.6656 -0.5668 -0.2530
   23SAPC     P 2988   3.588   6.028  10.722 -0.5133  0.2124  0.2832
   23SAPC   O13 2989   3.531   5.980  10.853 -0.1896 -0.1478  0.0142
   23SAPC   O14 2990   3.723   6.091  10.739  0.5858  0.0741  0.5139
   23SAPC   O12 2991   3.599   5.900  10.631  0.6354 -0.4012 -0.3299
   23SAPC   O11 2992   3.495   6.130  10.642 -0.5688 -0.2103  0.3771
   23SAPC    C1 2993   3.361   6.151  10.680  0.2244  0.2215 -0.6598
   23SAPC    HA 2994   3.304   6.058  10.659  0.6368 -0.6109  1.6225
   23SAPC    HB 2995   3.349   6.167  10.789 -0.3524  1.9667 -0.9430
   23SAPC    C2 2996   3.292   6.275  10.618 -0.0499  0.1710  0.3260
   23SAPC    HS 2997   3.182   6.277  10.627 -0.3010 -0.8037 -2.0189
   23SAPC   O21 2998   3.318   6.278  10.476  0.1207 -0.0005 -0.5181
   23SAPC   C21 2999   3.269   6.176  10.414  0.7555  0.9261  0.0008
   23SAPC   O22 3000   3.168   6.114  10.452 -0.2178 -0.0401  0.3784
   23SAPC   C22 3001   3.342   6.153  10.279 -0.0376  0.4618 -0.4994
   23SAPC   H2R 3002   3.347   6.252  10.229  1.8233 -0.2874 -1.9591
   23SAPC   H2S 3003   3.446   6.119  10.299 -0.3234  0.3198  0.7890
   23SAPC    C3 3004   3.362   6.396  10.683  0.2275  0.3558  0.3087
   23SAPC    HX 3005   3.471   6.375  10.676  0.1942 -2.5156  4.4368
   23SAPC    HY 3006   3.336   6.391  10.791  0.1465 -2.1082  0.2277
   23SAPC   O31 3007   3.319   6.526  10.621 -0.6451  0.9171  0.3097
   23SAPC   C31 3008   3.392   6.577  10.513  0.7612  0.4485 -0.5796
   23SAPC   O32 3009   3.498   6.530  10.478 -0.1261  0.1423  0.6465
   23SAPC   C32 3010   3.314   6.696  10.452 -0.6240  0.0160  0.3821
   23SAPC   H2X 3011   3.312   6.783  10.521 -1.0548 -1.3177  2.1195
   23SAPC   H2Y 3012   3.210   6.659  10.440 -1.6830  2.3166  1.8326
   23SAPC   C23 3013   3.280   6.035  10.201  0.5004  0.1782 -0.5553
   23SAPC   H3R 3014   3.180   6.071  10.167  0.4434  1.4331  0.8613
   23SAPC   H3S 3015   3.249   5.947  10.261 -0.0055  1.2919  0.8561
   23SAPC   C24 3016   3.360   5.970  10.082  0.1741 -1.3858 -0.3098
   23SAPC   H4R 3017   3.372   6.058  10.016  0.3364  0.2655  1.7853
   23SAPC   H4S 3018   3.295   5.892  10.036 -0.8568 -1.0415  0.5062
   23SAPC   C25 3019   3.499   5.915  10.107  0.4005 -0.9153 -0.5514
   23SAPC   H5R 3020   3.564   5.993  10.148  1.7965 -2.0050 -0.6155
   23SAPC   C26 3021   3.551   5.794  10.076 -0.6207 -0.7517  0.0943
   23SAPC   H6R 3022   3.656   5.772  10.099  0.0313  1.3191 -0.7228
   23SAPC   C27 3023   3.483   5.688   9.995 -0.4524 -0.2700  0.1584
   23SAPC   H7R 3024   3.554   5.622   9.941 -1.7319 -2.1350  0.6489
   23SAPC   H7S 3025   3.415   5.734   9.920  1.0012 -0.8603 -1.5900
   23SAPC   C28 3026   3.402   5.605  10.086 -0.3046  0.7367 -0.7577
   23SAPC   H8R 3027   3.309   5.645  10.130 -1.1644 -0.8108 -1.0949
   23SAPC   C29 3028   3.412   5.476  10.115 -0.4718  0.3643  0.7308
   23SAPC   H9R 3029   3.343   5.421  10.180  1.1289 -1.5350  0.9182
   23SAPC  C210 3030   3.527   5.383  10.059 -0.6299 -0.1535  0.2830
   23SAPC  H10R 3031   3.612   5.451  10.039 -1.6588  1.8254  2.1952
   23SAPC  H10S 3032   3.499   5.338   9.962  0.4949 -1.2545  0.4417
   23SAPC  C211 3033   3.568   5.272  10.155  0.3061  0.1581 -0.5588
   23SAPC  H11R 3034   3.611   5.315  10.246 -0.2461 -0.2163 -0.1166
   23SAPC  C212 3035   3.532   5.141  10.143 -0.2813 -0.2571 -0.3053
   23SAPC  H12R 3036   3.564   5.077  10.226  0.5511  0.7110  0.1475
   23SAPC  C213 3037   3.461   5.077  10.025 -0.7347 -0.4751 -0.9151
   23SAPC  H13R 3038   3.461   5.147   9.938  0.8137 -1.6511 -1.9091
   23SAPC  H13S 3039   3.353   5.066  10.051 -0.2628  0.1979  1.6035
   23SAPC  C214 3040   3.514   4.943   9.978  1.0268 -0.5322  0.2776
   23SAPC  H14R 3041   3.569   4.883  10.052  1.3251 -0.9791 -0.2987
   23SAPC  C215 3042   3.520   4.903   9.849 -0.1597  0.4103 -0.0051
   23SAPC  H15R 3043   3.579   4.815   9.821 -0.0134  0.7311 -0.7191
   23SAPC  C216 3044   3.455   4.966   9.731 -0.2090 -0.2896 -0.0238
   23SAPC  H16R 3045   3.426   5.069   9.758  0.8362 -0.0374  0.1694
   23SAPC  H16S 3046   3.366   4.907   9.701  0.9241 -1.5702 -1.0368
   23SAPC  C217 3047   3.544   4.970   9.612 -0.3348 -0.3755  0.0318
   23SAPC  H17R 3048   3.488   5.015   9.528  1.6346  2.8106  0.2523
   23SAPC  H17S 3049   3.561   4.869   9.568  0.6702  0.9632 -2.8856
   23SAPC  C218 3050   3.677   5.042   9.625 -0.5397 -1.1141  0.1589
   23SAPC  H18R 3051   3.733   4.996   9.542 -0.7990  1.3226 -1.4828
   23SAPC  H18S 3052   3.722   5.028   9.726  2.7814  0.2813 -0.9898
   23SAPC  C219 3053   3.679   5.196   9.601  0.6677  0.1930  0.0177
   23SAPC  H19R 3054   3.784   5.231   9.600  1.0267 -0.7795 -2.2814
   23SAPC  H19S 3055   3.624   5.253   9.679  0.2845 -0.9858  0.6440
   23SAPC  C220 3056   3.610   5.249   9.477  0.0879 -0.0375  0.5882
   23SAPC  H20R 3057   3.626   5.359   9.472  1.5981 -0.2912 -1.4268
   23SAPC  H20S 3058   3.503   5.221   9.465 -0.5210  2.9629 -2.3048
   23SAPC  H20T 3059   3.673   5.209   9.394 -0.4376  1.4568 -0.5636
   23SAPC   C33 3060   3.375   6.747  10.323 -0.4917  0.2008 -0.1950
   23SAPC   H3X 3061   3.291   6.798  10.269 -0.0199 -0.5367 -1.6892
   23SAPC   H3Y 3062   3.392   6.657  10.260 -1.1299  1.1656 -1.8177
   23SAPC   C34 3063   3.491   6.842  10.333  0.2800  0.2903  0.2428
   23SAPC   H4X 3064   3.569   6.782  10.384  0.5586 -0.7243 -1.2988
   23SAPC   H4Y 3065   3.456   6.926  10.396 -1.8608  0.0401 -0.5225
   23SAPC   C35 3066   3.538   6.889  10.197 -0.1114 -0.1987  0.2174
   23SAPC   H5X 3067   3.622   6.962  10.199 -0.6963  0.4734  2.4072
   23SAPC   H5Y 3068   3.457   6.953  10.157 -0.1724 -0.5435 -0.2230
   23SAPC   C36 3069   3.573   6.786  10.094 -0.5538  0.6496 -0.4709
   23SAPC   H6X 3070   3.486   6.716  10.093  0.6670 -0.9317 -0.5317
   23SAPC   H6Y 3071   3.653   6.717  10.129 -1.5272 -0.6909 -0.7986
   23SAPC   C37 3072   3.608   6.844   9.951 -0.0655 -0.2194 -1.0561
   23SAPC   H7X 3073   3.712   6.883   9.946  0.1447 -0.4127  0.8436
   23SAPC   H7Y 3074   3.552   6.938   9.933  0.4378  0.3614  0.2799
   23SAPC   C38 3075   3.574   6.739   9.839  0.2525 -0.2627 -0.7130
   23SAPC   H8X 3076   3.468   6.706   9.839 -0.4542  1.8320 -1.3957
   23SAPC   H8Y 3077   3.642   6.652   9.857  0.9491  0.3561 -0.2598
   23SAPC   C39 3078   3.597   6.804   9.696  0.0026 -0.2926 -0.5938
   23SAPC   H9X 3079   3.696   6.856   9.695 -0.3049  0.3836  0.9085
   23SAPC   H9Y 3080   3.523   6.883   9.670 -0.9571 -1.2776 -0.9312
   23SAPC  C310 3081   3.595   6.694   9.593 -0.0765  0.4884  0.0061
   23SAPC  H10X 3082   3.688   6.639   9.568 -2.0524 -1.7773 -3.0565
   23SAPC  H10Y 3083   3.575   6.746   9.497  2.2872  0.7477 -0.4097
   23SAPC  C311 3084   3.484   6.589   9.606  0.4170 -0.3353  0.7214
   23SAPC  H11X 3085   3.391   6.632   9.650 -0.2092 -0.8003 -0.0952
   23SAPC  H11Y 3086   3.522   6.510   9.673  2.2591 -0.7429 -0.7122
   23SAPC  C312 3087   3.454   6.536   9.461 -0.1825 -0.1359 -0.4110
   23SAPC  H12X 3088   3.454   6.425   9.455  0.1059 -0.1659  0.0918
   23SAPC  H12Y 3089   3.538   6.571   9.397 -0.2462  0.1640 -0.3295
   23SAPC  C313 3090   3.333   6.588   9.384 -0.1260  0.4648  0.2651
   23SAPC  H13X 3091   3.322   6.698   9.394 -1.1115  0.2779  1.5399
   23SAPC  H13Y 3092   3.242   6.548   9.435 -0.4495 -0.2252 -0.8006
   23SAPC  C314 3093   3.347   6.551   9.240 -0.1963  0.6610 -0.3114
   23SAPC  H14X 3094   3.251   6.532   9.189 -0.4390 -0.4114  0.5056
   23SAPC  H14Y 3095   3.384   6.447   9.242  0.4089  0.8068  3.1447
   23SAPC  C315 3096   3.449   6.632   9.155  0.4522  0.2595 -0.6958
   23SAPC  H15X 3097   3.546   6.639   9.209 -0.6830 -2.2070  1.9512
   23SAPC  H15Y 3098   3.410   6.735   9.138 -0.1646 -0.2370 -2.5774
   23SAPC  C316 3099   3.466   6.560   9.020  0.3615  0.2892 -0.0383
   23SAPC  H16X 3100   3.362   6.540   8.985  0.2715  1.2966 -0.3790
   23SAPC  H16Y 3101   3.520   6.467   9.048  0.5605  0.5015  0.2888
   23SAPC  C317 3102   3.554   6.627   8.914  0.0320 -0.3372 -0.2328
   23SAPC  H17X 3103   3.586   6.560   8.832 -0.9762 -0.2381 -0.7243
   23SAPC  H17Y 3104   3.651   6.651   8.963  0.0197  0.7640 -0.7208
   23SAPC  C318 3105   3.505   6.760   8.859 -0.5360 -0.1317  0.1628
   23SAPC  H18X 3106   3.399   6.761   8.824 -0.1281  0.8655 -1.1666
   23SAPC  H18Y 3107   3.572   6.796   8.778  1.3006  0.3596  1.8206
   23SAPC  H18Z 3108   3.514   6.839   8.937 -0.1324  1.8982 -1.8275
   24SAPC     N 3109   6.207   6.669  11.132  0.4425  0.6538 -0.2927
   24SAPC   C12 3110   6.117   6.649  11.014  0.2852 -0.0204 -0.7849
   24SAPC  H12A 3111   6.084   6.739  10.964 -2.5170 -1.2853 -1.4162
   24SAPC  H12B 3112   6.021   6.613  11.048 -1.5345  3.1279 -2.1108
   24SAPC   C13 3113   6.343   6.696  11.087 -0.9433 -0.0783  0.0840
   24SAPC  H13A 3114   6.390   6.619  11.028  1.1467 -0.1326  1.7053
   24SAPC  H13B 3115   6.343   6.782  11.022  0.4863 -0.5047 -0.5060
   24SAPC  H13C 3116   6.409   6.719  11.169 -1.8872  1.7212  0.4016
   24SAPC   C14 3117   6.160   6.780  11.223  0.1298 -0.1651  0.9904
   24SAPC  H14A 3118   6.233   6.790  11.302  1.9136 -1.3347 -0.4269
   24SAPC  H14B 3119   6.149   6.870  11.163  0.2211 -0.6159  0.2887
   24SAPC  H14C 3120   6.067   6.749  11.268  1.1149 -1.8315  1.9581
   24SAPC   C15 3121   6.204   6.547  11.221 -0.2505 -0.5901  0.2301
   24SAPC  H15A 3122   6.103   6.538  11.261 -0.8520  0.0944 -1.0966
   24SAPC  H15B 3123   6.232   6.464  11.158 -2.6752 -0.1610 -1.5688
   24SAPC  H15C 3124   6.271   6.553  11.305 -1.0934  0.5072  0.8574
   24SAPC   C11 3125   6.173   6.548  10.910  0.1547  1.0897  0.4922
   24SAPC  H11A 3126   6.270   6.585  10.869 -0.6821  2.1937 -0.5479
   24SAPC  H11B 3127   6.103   6.537  10.824  0.2689  0.8917  0.4240
   24SAPC     P 3128   6.074   6.317  11.002 -0.1644 -0.0351  0.1110
   24SAPC   O13 3129   6.136   6.190  11.047 -0.2000 -0.1604 -0.5916
   24SAPC   O14 3130   5.976   6.377  11.097  0.0466  0.2717 -0.3549
   24SAPC   O12 3131   6.187   6.416  10.965 -0.1620 -0.4601 -0.3352
   24SAPC   O11 3132   5.999   6.292  10.864 -0.9503 -0.2554 -0.1387
   24SAPC    C1 3133   5.859   6.287  10.852  0.0522  0.4581  0.4802
   24SAPC    HA 3134   5.798   6.341  10.928 -3.3088 -1.6488 -0.4929
   24SAPC    HB 3135   5.835   6.321  10.749  1.1964 -1.3023 -0.4170
   24SAPC    C2 3136   5.816   6.141  10.867  0.3236 -0.2804  0.2972
   24SAPC    HS 3137   5.827   6.122  10.975 -2.7375  2.4376  1.2584
   24SAPC   O21 3138   5.900   6.061  10.785 -0.3706 -0.1758  0.6167
   24SAPC   C21 3139   5.873   5.928  10.800 -0.1538  0.6461  0.4433
   24SAPC   O22 3140   5.813   5.883  10.891 -0.2693  0.1835 -0.3731
   24SAPC   C22 3141   5.932   5.844  10.683 -0.1589 -1.1827  0.7869
   24SAPC   H2R 3142   5.903   5.897  10.589  1.5949 -4.0277 -1.5217
   24SAPC   H2S 3143   6.042   5.846  10.694  0.0503 -2.4998 -0.7353
   24SAPC    C3 3144   5.658   6.133  10.839 -0.0113 -0.1766 -0.0612
   24SAPC    HX 3145   5.610   6.186  10.924 -0.3141 -2.8757  1.5425
   24SAPC    HY 3146   5.627   6.027  10.842 -3.0947  0.6436  0.8353
   24SAPC   O31 3147   5.627   6.200  10.717 -0.3246  0.3638 -0.5745
   24SAPC   C31 3148   5.645   6.143  10.601  0.2757  0.4497  0.0484
   24SAPC   O32 3149   5.666   6.025  10.573 -0.0461 -0.0169 -0.8638
   24SAPC   C32 3150   5.643   6.254  10.501  0.7642  0.1599 -0.3537
   24SAPC   H2X 3151   5.700   6.339  10.544 -0.1549 -0.0012  1.2329
   24SAPC   H2Y 3152   5.536   6.279  10.489  0.4676 -1.3591 -1.1366
   24SAPC   C23 3153   5.889   5.709  10.664 -0.2058 -0.0442 -0.3377
   24SAPC   H3R 3154   5.789   5.692  10.709  0.0222 -0.3379  0.0714
   24SAPC   H3S 3155   5.949   5.633  10.719  0.2358  0.3399 -0.2835
   24SAPC   C24 3156   5.881   5.670  10.518  0.3317 -0.1618 -0.1771
   24SAPC   H4R 3157   5.815   5.737  10.459  1.3344  0.2390 -0.8626
   24SAPC   H4S 3158   5.845   5.565  10.510  0.2150  0.0073 -2.5627
   24SAPC   C25 3159   6.022   5.666  10.467 -0.3305 -0.8383  0.1586
   24SAPC   H5R 3160   6.084   5.594  10.522 -0.7795 -0.9987  0.4500
   24SAPC   C26 3161   6.092   5.726  10.367 -0.1281  0.8649 -0.3392
   24SAPC   H6R 3162   6.198   5.694  10.363 -0.1672  0.3264  1.7007
   24SAPC   C27 3163   6.041   5.822  10.279  0.0087 -0.2141 -0.0506
   24SAPC   H7R 3164   5.930   5.825  10.278 -0.0210 -0.4630  1.4460
   24SAPC   H7S 3165   6.065   5.786  10.176 -1.5331  0.2892 -0.6280
   24SAPC   C28 3166   6.089   5.960  10.319  0.1683  0.0086  0.6679
   24SAPC   H8R 3167   6.059   5.983  10.422 -0.5487 -1.4727  0.8083
   24SAPC   C29 3168   6.172   6.045  10.251  0.7126  0.1106 -0.0625
   24SAPC   H9R 3169   6.191   6.138  10.306 -3.0368  0.5123  0.8515
   24SAPC  C210 3170   6.230   6.016  10.120 -0.0928 -0.1274 -0.4544
   24SAPC  H10R 3171   6.155   5.968  10.054 -0.9055  1.5509 -0.7873
   24SAPC  H10S 3172   6.305   5.935  10.134 -1.8596 -1.8067 -0.2379
   24SAPC  C211 3173   6.267   6.141  10.056  0.2224  0.0262  0.4351
   24SAPC  H11R 3174   6.180   6.208  10.047 -1.4810 -2.0293  0.8049
   24SAPC  C212 3175   6.384   6.175   9.990 -0.0650  0.3288 -0.2679
   24SAPC  H12R 3176   6.393   6.280   9.960  1.4691  1.1772  2.8241
   24SAPC  C213 3177   6.518   6.096   9.971  0.9211 -0.1749 -0.0279
   24SAPC  H13R 3178   6.513   6.051   9.870 -0.6894  1.8373 -0.9496
   24SAPC  H13S 3179   6.527   6.019  10.050  0.2999 -0.6410 -0.4005
   24SAPC  C214 3180   6.642   6.183   9.979  0.5955 -0.3619  0.1719
   24SAPC  H14R 3181   6.694   6.175  10.075  0.5727  1.3325  0.3550
   24SAPC  C215 3182   6.686   6.267   9.881 -0.2964 -0.1229 -0.2581
   24SAPC  H15R 3183   6.782   6.321   9.879  0.2667 -0.9965 -3.6699
   24SAPC  C216 3184   6.617   6.283   9.748 -0.0006  0.2483 -0.1963
   24SAPC  H16R 3185   6.587   6.387   9.724  1.4708  0.7545  0.0224
   24SAPC  H16S 3186   6.525   6.222   9.736  1.1485 -1.6424  0.2091
   24SAPC  C217 3187   6.720   6.246   9.639  0.0605 -0.2989  0.4915
   24SAPC  H17R 3188   6.776   6.152   9.658 -0.7748 -0.9342 -0.1111
   24SAPC  H17S 3189   6.786   6.335   9.635  0.8308 -0.8515  0.8091
   24SAPC  C218 3190   6.656   6.230   9.502 -0.4651 -0.0621 -0.2523
   24SAPC  H18R 3191   6.563   6.290   9.501  1.5797  3.3779 -0.5323
   24SAPC  H18S 3192   6.612   6.129   9.487 -2.3147  0.8511 -1.3251
   24SAPC  C219 3193   6.743   6.266   9.387  0.3440 -0.4695  0.0719
   24SAPC  H19R 3194   6.850   6.239   9.404  1.0256  2.5413  1.0667
   24SAPC  H19S 3195   6.741   6.376   9.400 -1.5066 -0.4557 -0.1412
   24SAPC  C220 3196   6.700   6.236   9.242  0.1615 -0.1401 -0.1934
   24SAPC  H20R 3197   6.792   6.222   9.180 -0.6044  0.6094 -1.5392
   24SAPC  H20S 3198   6.640   6.312   9.188 -0.9788  0.0594  1.3069
   24SAPC  H20T 3199   6.648   6.138   9.251 -3.1533  1.5948  1.0811
   24SAPC   C33 3200   5.703   6.229  10.361 -0.2409  0.5857  0.0179
   24SAPC   H3X 3201   5.806   6.192  10.379 -0.2208  0.2466 -0.7601
   24SAPC   H3Y 3202   5.712   6.326  10.307 -0.8951  0.4122 -0.4065
   24SAPC   C34 3203   5.640   6.117  10.279 -0.2521 -0.6055  0.2957
   24SAPC   H4X 3204   5.542   6.159  10.250  1.3191  2.0502 -1.6352
   24SAPC   H4Y 3205   5.625   6.036  10.353 -2.0978  1.6333  2.5254
   24SAPC   C35 3206   5.729   6.088  10.152  0.6355 -0.1595  0.1361
   24SAPC   H5X 3207   5.820   6.039  10.193  0.6717 -0.9950 -0.9096
   24SAPC   H5Y 3208   5.767   6.184  10.111 -0.4654  0.1064 -0.2795
   24SAPC   C36 3209   5.667   5.982  10.060 -0.1744  0.1668 -0.5909
   24SAPC   H6X 3210   5.575   6.021  10.012 -0.5083  0.6933  0.4505
   24SAPC   H6Y 3211   5.635   5.891  10.115 -1.6476  0.7963 -0.3725
   24SAPC   C37 3212   5.760   5.939   9.949 -0.2917 -0.0203  0.2181
   24SAPC   H7X 3213   5.869   5.938   9.970  0.3583 -2.3184 -2.6962
   24SAPC   H7Y 3214   5.764   6.008   9.863  0.6456 -2.0714 -1.4844
   24SAPC   C38 3215   5.731   5.797   9.889 -0.8185  0.5786 -0.5262
   24SAPC   H8X 3216   5.623   5.778   9.867 -0.9783  1.7081 -0.7569
   24SAPC   H8Y 3217   5.751   5.715   9.962 -2.7635  0.9617  0.5179
   24SAPC   C39 3218   5.812   5.765   9.763 -0.1461 -0.4674  0.6709
   24SAPC   H9X 3219   5.816   5.654   9.753  1.1506 -0.4393  0.6581
   24SAPC   H9Y 3220   5.918   5.789   9.785 -0.6757  1.2546  1.5510
   24SAPC  C310 3221   5.762   5.835   9.639 -0.3097  0.2764  0.2174
   24SAPC  H10X 3222   5.753   5.945   9.652 -1.6053  0.2945 -0.5789
   24SAPC  H10Y 3223   5.660   5.801   9.612  0.1701 -1.5094  0.5308
   24SAPC  C311 3224   5.853   5.817   9.513  0.0489  0.0140  0.1361
   24SAPC  H11X 3225   5.871   5.707   9.507 -0.1301 -0.1544  1.9412
   24SAPC  H11Y 3226   5.948   5.871   9.533  0.9671 -1.6863  0.5970
   24SAPC  C312 3227   5.787   5.879   9.391 -0.1906  0.3455  0.7999
   24SAPC  H12X 3228   5.761   5.985   9.415  1.1060  0.3203  2.5347
   24SAPC  H12Y 3229   5.689   5.827   9.381  0.8152 -2.2621  3.2436
   24SAPC  C313 3230   5.872   5.892   9.260 -0.5276 -0.1578  0.4873
   24SAPC  H13X 3231   5.940   5.808   9.235  0.7501  0.8595  0.4193
   24SAPC  H13Y 3232   5.940   5.975   9.290 -1.8864  0.5743  1.6872
   24SAPC  C314 3233   5.785   5.939   9.139 -0.2195 -0.1551 -0.6446
   24SAPC  H14X 3234   5.828   6.029   9.091  1.3740  0.3024  1.5211
   24SAPC  H14Y 3235   5.686   5.969   9.179  0.1096 -1.4951  1.2722
   24SAPC  C315 3236   5.762   5.829   9.027  0.1933 -0.4118  0.1289
   24SAPC  H15X 3237   5.718   5.738   9.072 -0.3893  0.0621  0.5513
   24SAPC  H15Y 3238   5.853   5.793   8.975 -0.3540 -1.3584 -0.1839
   24SAPC  C316 3239   5.666   5.878   8.914 -0.0410  0.1325  0.2352
   24SAPC  H16X 3240   5.665   5.805   8.831  2.5949  0.2437  0.0242
   24SAPC  H16Y 3241   5.699   5.967   8.856 -0.0208 -0.6856 -1.0507
   24SAPC  C317 3242   5.521   5.896   8.963 -0.2314  0.2016  0.8433
   24SAPC  H17X 3243   5.531   5.984   9.030  1.1309  1.3394 -0.7656
   24SAPC  H17Y 3244   5.468   5.816   9.020  1.3422 -0.9089  0.8245
   24SAPC  C318 3245   5.415   5.937   8.853  0.1089  0.2738  0.2257
   24SAPC  H18X 3246   5.389   5.844   8.797 -3.8881  0.6391  1.1818
   24SAPC  H18Y 3247   5.454   6.016   8.785  1.4202 -0.4073  0.1528
   24SAPC  H18Z 3248   5.318   5.968   8.898  0.6148 -0.8329  2.1558
   25SAPC     N 3249   3.164   1.834   5.473  0.2485 -0.4618  0.3604
   25SAPC   C12 3250   3.228   1.694   5.468  0.0966  0.2933  0.6858
   25SAPC  H12A 3251   3.267   1.691   5.368  1.4652 -1.3467  1.2355
   25SAPC  H12B 3252   3.154   1.617   5.484  0.0134  0.4195  0.9304
   25SAPC   C13 3253   3.121   1.882   5.607  0.7994  0.0097 -0.4102
   25SAPC  H13A 3254   3.054   1.813   5.658  1.5028  0.8311  1.7269
   25SAPC  H13B 3255   3.201   1.883   5.679  0.8791 -2.8500 -0.3335
   25SAPC  H13C 3256   3.081   1.981   5.592  1.4322  0.0464 -2.0722
   25SAPC   C14 3257   3.250   1.942   5.413 -0.0095 -0.4423 -0.0629
   25SAPC  H14A 3258   3.341   1.960   5.468 -0.9449 -0.0685  1.4250
   25SAPC  H14B 3259   3.270   1.927   5.309  0.7259  0.4933 -0.0725
   25SAPC  H14C 3260   3.193   2.034   5.419  1.0035  0.1929 -0.0315
   25SAPC   C15 3261   3.030   1.828   5.401 -1.8636  0.3475 -0.2723
   25SAPC  H15A 3262   2.966   1.915   5.403 -2.1157  0.2157 -1.4664
   25SAPC  H15B 3263   3.056   1.830   5.296  1.7253 -2.2101  0.3571
   25SAPC  H15C 3264   2.971   1.738   5.415 -0.7846 -0.4423 -0.6897
   25SAPC   C11 3265   3.342   1.655   5.568  0.3217 -0.0890  0.0276
   25SAPC  H11A 3266   3.427   1.721   5.539  0.7761 -1.1508 -1.1117
   25SAPC  H11B 3267   3.385   1.556   5.545 -0.4321 -0.2927 -0.5246
   25SAPC     P 3268   3.390   1.757   5.807  0.1314 -0.2608 -0.3935
   25SAPC   O13 3269   3.497   1.673   5.857 -0.4527  0.0322  0.6491
   25SAPC   O14 3270   3.437   1.889   5.749  0.5936  0.6832 -0.3640
   25SAPC   O12 3271   3.308   1.665   5.707 -0.1322 -0.0711 -0.1497
   25SAPC   O11 3272   3.283   1.775   5.923 -0.3640  0.4526  0.3232
   25SAPC    C1 3273   3.271   1.677   6.031 -0.2054 -0.2808  0.1605
   25SAPC    HA 3274   3.281   1.573   5.994  1.1354  0.2794 -1.1998
   25SAPC    HB 3275   3.361   1.694   6.093  0.1112  1.1487 -0.6330
   25SAPC    C2 3276   3.128   1.695   6.094 -0.7485  0.3568  0.5031
   25SAPC    HS 3277   3.069   1.684   6.000 -1.5512 -0.0110  1.0376
   25SAPC   O21 3278   3.123   1.822   6.160 -0.3429  0.0374 -0.0476
   25SAPC   C21 3279   3.003   1.869   6.179 -0.0627  0.3955  0.5358
   25SAPC   O22 3280   2.906   1.824   6.117 -0.4166  0.2129  0.8929
   25SAPC   C22 3281   2.989   1.983   6.274 -0.1402  0.1841 -0.7151
   25SAPC   H2R 3282   3.059   2.062   6.241  0.0858  0.6943  0.8954
   25SAPC   H2S 3283   2.887   2.027   6.276  0.3861  1.4449 -1.0540
   25SAPC    C3 3284   3.104   1.580   6.204  0.0935 -0.1321  0.6603
   25SAPC    HX 3285   3.125   1.486   6.148 -0.2620  0.1779 -0.0110
   25SAPC    HY 3286   2.995   1.582   6.228  0.2734  0.8077  1.4246
   25SAPC   O31 3287   3.187   1.593   6.320  0.6723  0.4512 -0.3219
   25SAPC   C31 3288   3.300   1.525   6.328  0.3700 -0.0600 -0.0192
   25SAPC   O32 3289   3.333   1.440   6.246  0.7277 -0.3368 -0.0318
   25SAPC   C32 3290   3.394   1.591   6.435  0.6025 -0.1542 -0.2926
   25SAPC   H2X 3291   3.328   1.656   6.496  0.5749  0.5118 -1.0229
   25SAPC   H2Y 3292   3.461   1.661   6.380  0.4486 -0.0865 -0.3963
   25SAPC   C23 3293   3.035   1.927   6.413 -0.4848 -0.5469  0.5074
   25SAPC   H3R 3294   3.087   2.007   6.470 -0.3264 -0.0412 -0.3209
   25SAPC   H3S 3295   3.113   1.849   6.400 -0.3374 -0.0994 -1.8409
   25SAPC   C24 3296   2.928   1.870   6.497 -0.4995  0.2939 -0.5482
   25SAPC   H4R 3297   2.848   1.944   6.522 -0.2435  0.1938  0.6477
   25SAPC   H4S 3298   2.979   1.860   6.596  1.6840 -1.0371 -1.7294
   25SAPC   C25 3299   2.860   1.752   6.444  0.9756 -0.0199 -0.2001
   25SAPC   H5R 3300   2.769   1.770   6.384  0.3961 -0.8515  0.4121
   25SAPC   C26 3301   2.885   1.630   6.490 -0.2899  0.1960 -0.4209
   25SAPC   H6R 3302   2.823   1.545   6.458  0.1534  0.4333 -1.9758
   25SAPC   C27 3303   2.972   1.579   6.602 -0.2294 -0.5417 -0.2762
   25SAPC   H7R 3304   3.027   1.667   6.643 -0.7672  0.7618 -2.2157
   25SAPC   H7S 3305   3.047   1.511   6.556  2.1878  1.7972 -0.0982
   25SAPC   C28 3306   2.898   1.517   6.722 -0.0659 -0.9318 -0.4059
   25SAPC   H8R 3307   2.806   1.461   6.698 -1.4703  0.8957  0.5157
   25SAPC   C29 3308   2.931   1.518   6.850 -0.2462  0.5166  0.2556
   25SAPC   H9R 3309   2.861   1.464   6.915 -0.8197  0.0234 -0.7408
   25SAPC  C210 3310   3.052   1.577   6.914  0.0186  0.2895  0.7152
   25SAPC  H10R 3311   3.123   1.618   6.839 -0.6125 -1.5767 -0.9683
   25SAPC  H10S 3312   3.103   1.490   6.961  0.0048 -0.7674 -1.1434
   25SAPC  C211 3313   3.019   1.687   7.015 -0.2232  0.0604 -0.1493
   25SAPC  H11R 3314   2.985   1.785   6.977 -1.9625 -0.9363 -1.2967
   25SAPC  C212 3315   3.043   1.668   7.152  0.1128 -0.7070  0.7096
   25SAPC  H12R 3316   3.028   1.751   7.222 -2.2521 -0.7839  0.3746
   25SAPC  C213 3317   3.090   1.549   7.217 -0.0746  0.2189 -0.1471
   25SAPC  H13R 3318   3.067   1.454   7.164 -1.0420 -0.1335  0.8600
   25SAPC  H13S 3319   3.061   1.542   7.324  2.9377  1.0929  0.8321
   25SAPC  C214 3320   3.241   1.563   7.216 -0.9023 -0.5142 -0.6507
   25SAPC  H14R 3321   3.286   1.541   7.118  2.1317  2.4968 -0.1146
   25SAPC  C215 3322   3.326   1.598   7.311 -0.1261  0.0659  0.5026
   25SAPC  H15R 3323   3.430   1.595   7.277  0.5327 -0.8239  2.4354
   25SAPC  C216 3324   3.296   1.632   7.457  0.3872 -0.3725 -0.2346
   25SAPC  H16R 3325   3.189   1.634   7.487  0.2390  0.8151 -0.7794
   25SAPC  H16S 3326   3.332   1.735   7.480 -1.4172  0.1565  0.4249
   25SAPC  C217 3327   3.356   1.536   7.559  0.4092 -0.1366 -0.4253
   25SAPC  H17R 3328   3.467   1.538   7.547  0.5361  0.7150  0.7329
   25SAPC  H17S 3329   3.328   1.430   7.543  0.7073 -0.4491  0.9615
   25SAPC  C218 3330   3.311   1.571   7.701  0.4487  0.4844  0.2261
   25SAPC  H18R 3331   3.204   1.556   7.726  0.3684  1.3163  0.3810
   25SAPC  H18S 3332   3.327   1.676   7.732 -1.0898  1.2639 -1.3932
   25SAPC  C219 3333   3.401   1.508   7.802  0.3779  0.2204 -0.2709
   25SAPC  H19R 3334   3.507   1.503   7.768 -0.3600 -0.6721 -2.5702
   25SAPC  H19S 3335   3.380   1.400   7.818  2.1313  0.1887  2.5707
   25SAPC  C220 3336   3.362   1.564   7.940  0.1035 -0.3929  0.0871
   25SAPC  H20R 3337   3.415   1.661   7.954  0.8886 -0.7833 -0.1215
   25SAPC  H20S 3338   3.398   1.506   8.028 -2.7286 -0.7303  1.1270
   25SAPC  H20T 3339   3.252   1.569   7.950  0.2082 -1.6450  3.0186
   25SAPC   C33 3340   3.463   1.488   6.528 -0.4717 -0.3133 -0.6683
   25SAPC   H3X 3341   3.549   1.542   6.572 -1.8749  0.9492  0.6382
   25SAPC   H3Y 3342   3.524   1.407   6.482  1.5096  0.3624  0.6558
   25SAPC   C34 3343   3.370   1.440   6.637 -0.6137 -0.3496 -1.1215
   25SAPC   H4X 3344   3.298   1.369   6.590  0.6189 -1.6770 -1.0748
   25SAPC   H4Y 3345   3.312   1.527   6.675  2.2602  0.8181  0.9568
   25SAPC   C35 3346   3.427   1.371   6.771  0.3702  0.2616  0.4810
   25SAPC   H5X 3347   3.498   1.293   6.738 -0.0423  0.4716 -0.9554
   25SAPC   H5Y 3348   3.343   1.325   6.828 -0.0966  0.2416 -0.2203
   25SAPC   C36 3349   3.494   1.476   6.860 -0.0932 -1.2203  0.1867
   25SAPC   H6X 3350   3.427   1.546   6.915  0.8291 -0.0811 -0.1067
   25SAPC   H6Y 3351   3.552   1.546   6.797  0.0735 -0.2034  1.4397
   25SAPC   C37 3352   3.585   1.406   6.955 -0.8347  0.4397 -1.0563
   25SAPC   H7X 3353   3.662   1.476   6.993  0.4062 -0.9610 -0.8784
   25SAPC   H7Y 3354   3.642   1.329   6.898  0.6373  0.2341  0.5933
   25SAPC   C38 3355   3.529   1.323   7.072  0.1107  0.0213  0.1345
   25SAPC   H8X 3356   3.471   1.240   7.027 -1.8377  0.7644  1.1616
   25SAPC   H8Y 3357   3.457   1.381   7.133 -1.0520 -1.2515  0.0033
   25SAPC   C39 3358   3.639   1.266   7.161 -0.3291 -0.3397  0.2553
   25SAPC   H9X 3359   3.719   1.336   7.192 -1.4953  0.7834  0.8052
   25SAPC   H9Y 3360   3.698   1.190   7.105  1.9290  0.1778  1.8067
   25SAPC  C310 3361   3.591   1.214   7.297  0.6069  0.0308  0.1227
   25SAPC  H10X 3362   3.517   1.131   7.290  0.4854  0.0950  0.5796
   25SAPC  H10Y 3363   3.544   1.289   7.364  0.5369  0.3169 -0.2446
   25SAPC  C311 3364   3.709   1.136   7.372 -0.2491 -0.7196 -0.4154
   25SAPC  H11X 3365   3.787   1.206   7.409 -1.1493 -0.2742  0.6937
   25SAPC  H11Y 3366   3.752   1.074   7.290 -1.7946 -1.9298 -0.3548
   25SAPC  C312 3367   3.652   1.048   7.477  0.4947  0.1779  0.5536
   25SAPC  H12X 3368   3.729   0.980   7.521  0.5459 -1.9321 -2.5080
   25SAPC  H12Y 3369   3.569   0.990   7.433 -0.5493  0.7534  1.6912
   25SAPC  C313 3370   3.590   1.127   7.590  0.7894  0.1267 -0.4512
   25SAPC  H13X 3371   3.537   1.051   7.651 -0.7574  1.9079  0.5359
   25SAPC  H13Y 3372   3.510   1.196   7.555 -0.8217 -0.7617  1.3109
   25SAPC  C314 3373   3.691   1.204   7.665 -0.0537 -0.0875 -0.6274
   25SAPC  H14X 3374   3.682   1.313   7.643  1.8051  0.2782  0.2171
   25SAPC  H14Y 3375   3.799   1.180   7.658 -0.3217 -1.6371  0.1982
   25SAPC  C315 3376   3.646   1.201   7.813 -1.2072  0.4640 -0.0420
   25SAPC  H15X 3377   3.659   1.098   7.852  0.0944  0.3307 -0.7803
   25SAPC  H15Y 3378   3.541   1.237   7.811 -1.7356 -1.0222 -0.0371
   25SAPC  C316 3379   3.717   1.293   7.911  0.0179 -0.3880  1.3272
   25SAPC  H16X 3380   3.705   1.392   7.862  0.0101 -1.5774 -1.2535
   25SAPC  H16Y 3381   3.823   1.262   7.918  1.0438  2.3342 -0.3241
   25SAPC  C317 3382   3.655   1.295   8.045  0.1576  0.4477 -0.3070
   25SAPC  H17X 3383   3.548   1.322   8.032  0.0689  0.1884 -0.1097
   25SAPC  H17Y 3384   3.696   1.375   8.112  1.3069 -0.0313 -0.4100
   25SAPC  C318 3385   3.686   1.168   8.123  0.0242 -0.2719  0.0656
   25SAPC  H18X 3386   3.792   1.138   8.113 -0.4057 -1.6130 -0.6452
   25SAPC  H18Y 3387   3.618   1.093   8.077  1.7508 -1.6127 -0.3623
   25SAPC  H18Z 3388   3.668   1.180   8.232  0.3832 -1.7865  0.3187
   26SAPC     N 3389   1.013   3.571   6.035 -0.1206 -0.0831  0.4912
   26SAPC   C12 3390   1.086   3.650   6.145  0.0569  0.6758  0.1961
   26SAPC  H12A 3391   1.113   3.584   6.226 -1.6889  0.7357  0.8606
   26SAPC  H12B 3392   1.023   3.720   6.197 -0.9679  0.3822 -0.6183
   26SAPC   C13 3393   0.970   3.663   5.924  0.1934 -0.4326 -0.8167
   26SAPC  H13A 3394   0.936   3.757   5.966  0.5061 -0.3053 -0.8446
   26SAPC  H13B 3395   1.055   3.684   5.862  0.8330  0.9283  0.4586
   26SAPC  H13C 3396   0.888   3.626   5.865 -0.9597  1.1296 -0.2600
   26SAPC   C14 3397   1.113   3.472   5.992 -0.7340  0.5493  0.3967
   26SAPC  H14A 3398   1.198   3.524   5.951 -3.1306  3.6282 -1.0637
   26SAPC  H14B 3399   1.132   3.405   6.074 -2.5545  0.0368  0.4467
   26SAPC  H14C 3400   1.091   3.404   5.910  3.4625 -0.1333 -0.3963
   26SAPC   C15 3401   0.898   3.502   6.083 -1.0847 -0.1348 -0.6401
   26SAPC  H15A 3402   0.853   3.452   5.998 -1.3499 -0.4244 -0.3306
   26SAPC  H15B 3403   0.927   3.431   6.159 -0.1834  1.6068  0.7102
   26SAPC  H15C 3404   0.824   3.562   6.133 -0.2623  0.4100 -0.0412
   26SAPC   C11 3405   1.221   3.717   6.114 -0.2110  0.0473  0.2716
   26SAPC  H11A 3406   1.269   3.650   6.039 -0.9223  0.3081 -0.4231
   26SAPC  H11B 3407   1.294   3.721   6.199  0.4045 -0.4261 -0.2215
   26SAPC     P 3408   1.208   3.984   6.121 -0.1143  0.2907  0.3794
   26SAPC   O13 3409   1.346   4.042   6.097  0.5156 -0.2133 -0.4453
   26SAPC   O14 3410   1.095   4.071   6.086  0.0455 -0.4088 -0.2653
   26SAPC   O12 3411   1.204   3.846   6.049 -0.5332 -0.0005  1.2800
   26SAPC   O11 3412   1.194   3.954   6.274 -0.0466  0.3841  0.4025
   26SAPC    C1 3413   1.243   4.044   6.374  0.0027 -0.2037 -0.2941
   26SAPC    HA 3414   1.245   4.148   6.335  3.1898  0.3513  1.0218
   26SAPC    HB 3415   1.167   4.038   6.455 -0.9418  0.5165 -1.1117
   26SAPC    C2 3416   1.387   4.010   6.428  0.8617  0.4491 -0.3895
   26SAPC    HS 3417   1.460   4.030   6.348  0.5903 -0.5669 -0.8939
   26SAPC   O21 3418   1.376   3.869   6.462 -0.4418 -0.1305 -0.1630
   26SAPC   C21 3419   1.484   3.795   6.444 -0.1378  0.1118  0.4486
   26SAPC   O22 3420   1.594   3.831   6.410  0.4150  0.2141 -0.1081
   26SAPC   C22 3421   1.456   3.653   6.498 -1.3438 -0.7846  0.3903
   26SAPC   H2R 3422   1.403   3.660   6.596  0.5072 -1.1966  1.4643
   26SAPC   H2S 3423   1.387   3.614   6.420  1.0831  0.3231 -2.4717
   26SAPC    C3 3424   1.423   4.091   6.552 -0.2296 -0.2352 -0.8759
   26SAPC    HX 3425   1.342   4.085   6.627  1.1985  0.8288  0.8423
   26SAPC    HY 3426   1.411   4.199   6.530 -2.2225 -0.1242  0.4685
   26SAPC   O31 3427   1.557   4.072   6.598 -0.2338  0.3816 -0.2195
   26SAPC   C31 3428   1.656   4.113   6.506 -0.1700 -0.0889 -0.1517
   26SAPC   O32 3429   1.636   4.192   6.419 -0.6275 -0.7775 -0.1593
   26SAPC   C32 3430   1.795   4.053   6.554  0.3114  0.5081 -0.0936
   26SAPC   H2X 3431   1.871   4.075   6.477 -0.1067 -2.5757 -1.5341
   26SAPC   H2Y 3432   1.772   3.946   6.534  0.7641  0.2431  0.7444
   26SAPC   C23 3433   1.585   3.566   6.518 -0.4046  0.0617  0.6742
   26SAPC   H3R 3434   1.667   3.629   6.560 -0.0644 -0.1473  0.3236
   26SAPC   H3S 3435   1.621   3.540   6.416 -0.2055 -0.4769  0.8809
   26SAPC   C24 3436   1.570   3.439   6.607 -0.1335 -0.2548 -0.2987
   26SAPC   H4R 3437   1.546   3.483   6.706  3.1152  0.3954  0.2882
   26SAPC   H4S 3438   1.664   3.381   6.608  0.1126  0.0548 -2.1058
   26SAPC   C25 3439   1.464   3.338   6.560  0.4702  0.0501  0.1201
   26SAPC   H5R 3440   1.492   3.287   6.467  1.0533 -1.0499  0.8790
   26SAPC   C26 3441   1.341   3.316   6.612  0.7700  1.0736  0.1875
   26SAPC   H6R 3442   1.287   3.233   6.564  1.6223  0.3261  0.5044
   26SAPC   C27 3443   1.285   3.385   6.738 -0.0647 -0.3157  0.5905
   26SAPC   H7R 3444   1.227   3.473   6.703  0.8581  1.4392  3.2034
   26SAPC   H7S 3445   1.364   3.433   6.800 -0.5312  1.5177 -0.1750
   26SAPC   C28 3446   1.206   3.281   6.814  0.1020  0.0487 -0.2227
   26SAPC   H8R 3447   1.166   3.199   6.752  2.3326 -1.2442 -0.0723
   26SAPC   C29 3448   1.184   3.275   6.953  0.3390  0.9244  0.0045
   26SAPC   H9R 3449   1.127   3.188   6.988  0.7817  0.9679  0.8506
   26SAPC  C210 3450   1.253   3.360   7.055 -0.0998  0.1693 -0.3454
   26SAPC  H10R 3451   1.174   3.428   7.092 -0.6881 -0.3629 -0.6112
   26SAPC  H10S 3452   1.322   3.436   7.012 -1.5865  1.6539 -0.2154
   26SAPC  C211 3453   1.326   3.292   7.169  1.1344  0.0581 -0.8472
   26SAPC  H11R 3454   1.413   3.228   7.147  0.6561 -1.2045  0.7707
   26SAPC  C212 3455   1.266   3.281   7.296  0.4950 -0.0239  0.6333
   26SAPC  H12R 3456   1.322   3.215   7.364 -0.2556 -1.3000  0.0654
   26SAPC  C213 3457   1.136   3.330   7.348  0.0357  0.4650 -0.4634
   26SAPC  H13R 3458   1.053   3.313   7.275 -1.8033 -1.4209  1.8934
   26SAPC  H13S 3459   1.157   3.438   7.365  0.1291  0.6945 -1.9111
   26SAPC  C214 3460   1.094   3.270   7.484 -0.0140  0.1656  0.5598
   26SAPC  H14R 3461   1.039   3.176   7.482  0.2271  0.0204  0.7004
   26SAPC  C215 3462   1.104   3.338   7.599  0.2207 -0.4137 -0.4170
   26SAPC  H15R 3463   1.059   3.293   7.689 -1.0004  0.5220 -0.5324
   26SAPC  C216 3464   1.146   3.484   7.629 -0.1617 -0.2324  0.5202
   26SAPC  H16R 3465   1.160   3.557   7.546 -1.0456  1.3140  1.6731
   26SAPC  H16S 3466   1.238   3.491   7.690 -0.4003 -0.6839  0.9335
   26SAPC  C217 3467   1.029   3.547   7.701  0.9952 -0.2826 -0.2771
   26SAPC  H17R 3468   0.984   3.486   7.782 -0.6632 -0.2985 -1.1673
   26SAPC  H17S 3469   0.951   3.562   7.623  2.5483  0.2550 -1.8019
   26SAPC  C218 3470   1.057   3.685   7.756 -0.3955 -0.0869  0.8263
   26SAPC  H18R 3471   1.163   3.697   7.787 -0.6716  0.2490  1.6683
   26SAPC  H18S 3472   0.988   3.713   7.839 -1.3969  1.0965 -0.3742
   26SAPC  C219 3473   1.051   3.796   7.649  0.2330 -0.6238  0.1115
   26SAPC  H19R 3474   0.947   3.802   7.612 -0.1010 -2.5110  0.6447
   26SAPC  H19S 3475   1.119   3.761   7.568  3.3148  0.7069  1.9298
   26SAPC  C220 3476   1.108   3.927   7.694 -0.5470 -0.1301  0.3252
   26SAPC  H20R 3477   1.034   3.978   7.758  1.5273  1.2643  1.7457
   26SAPC  H20S 3478   1.119   3.990   7.603  1.3110 -2.4908 -1.2110
   26SAPC  H20T 3479   1.199   3.926   7.758 -1.2181  2.4630  1.4644
   26SAPC   C33 3480   1.828   4.077   6.706  0.4598  0.0722 -0.7922
   26SAPC   H3X 3481   1.761   4.159   6.739 -1.2115 -1.2094 -0.8582
   26SAPC   H3Y 3482   1.936   4.097   6.718  0.4366 -0.9900  2.1728
   26SAPC   C34 3483   1.793   3.953   6.790  0.4052  0.4851  0.0594
   26SAPC   H4X 3484   1.858   3.866   6.765 -1.5426 -0.3123 -2.6269
   26SAPC   H4Y 3485   1.687   3.925   6.778  1.0212 -1.7883 -0.5785
   26SAPC   C35 3486   1.817   3.974   6.942 -0.5278 -0.1405 -0.7091
   26SAPC   H5X 3487   1.777   3.885   6.994 -0.4193 -0.7627 -1.6787
   26SAPC   H5Y 3488   1.762   4.059   6.988  1.4062  0.7534  0.0751
   26SAPC   C36 3489   1.970   3.978   6.971 -0.0496  0.5532  0.2658
   26SAPC   H6X 3490   2.002   4.077   6.932  0.1803  0.4887  0.2920
   26SAPC   H6Y 3491   2.005   3.892   6.911  0.1046  0.7257  0.1092
   26SAPC   C37 3492   1.991   3.968   7.126  0.0340  0.1756  0.1820
   26SAPC   H7X 3493   1.940   3.872   7.148  0.8450 -1.0192 -2.6110
   26SAPC   H7Y 3494   1.943   4.056   7.174  2.1203  1.2927  0.3401
   26SAPC   C38 3495   2.143   3.952   7.164  0.2921  0.2332 -0.0822
   26SAPC   H8X 3496   2.173   3.870   7.095  1.9552  0.5169  0.2747
   26SAPC   H8Y 3497   2.166   3.926   7.269 -1.0574 -2.2759 -0.3282
   26SAPC   C39 3498   2.230   4.080   7.135  0.0326  0.1377  0.1552
   26SAPC   H9X 3499   2.193   4.165   7.197 -2.3384 -0.7648  0.0887
   26SAPC   H9Y 3500   2.216   4.107   7.028  2.1166 -0.1891 -0.2316
   26SAPC  C310 3501   2.373   4.053   7.171  0.0123 -0.3923  0.0049
   26SAPC  H10X 3502   2.430   4.025   7.080  0.7280  1.6118 -0.2196
   26SAPC  H10Y 3503   2.368   3.970   7.245 -1.8016  0.2675  0.6769
   26SAPC  C311 3504   2.451   4.168   7.240 -0.3131  0.0250 -0.3394
   26SAPC  H11X 3505   2.383   4.255   7.226 -2.9324 -1.6168  1.4333
   26SAPC  H11Y 3506   2.552   4.183   7.194 -0.1919 -1.3113 -0.5439
   26SAPC  C312 3507   2.466   4.155   7.392  0.4537  0.2893 -0.1146
   26SAPC  H12X 3508   2.499   4.053   7.422 -2.7138 -0.2389  2.1192
   26SAPC  H12Y 3509   2.361   4.158   7.427  0.2916  0.3142 -0.5922
   26SAPC  C313 3510   2.552   4.266   7.460 -0.4090 -0.3278 -0.1441
   26SAPC  H13X 3511   2.529   4.371   7.436  2.4844  0.1383 -1.3080
   26SAPC  H13Y 3512   2.657   4.240   7.434  0.2790  0.2430  1.8808
   26SAPC  C314 3513   2.520   4.243   7.606 -0.2182 -0.2030 -0.3799
   26SAPC  H14X 3514   2.548   4.139   7.632  2.7799  0.8602  1.0652
   26SAPC  H14Y 3515   2.409   4.250   7.610 -0.1255  0.8879  1.8558
   26SAPC  C315 3516   2.581   4.350   7.705  0.2202  0.4454  0.3784
   26SAPC  H15X 3517   2.577   4.457   7.674 -0.0454  0.6212  0.9949
   26SAPC  H15Y 3518   2.689   4.323   7.708 -0.0046 -0.5257 -0.2068
   26SAPC  C316 3519   2.517   4.337   7.842 -0.1724 -0.1438 -0.1642
   26SAPC  H16X 3520   2.547   4.245   7.897 -0.6129  0.4907  1.1752
   26SAPC  H16Y 3521   2.407   4.330   7.823  0.2435 -2.0726 -2.4437
   26SAPC  C317 3522   2.542   4.455   7.933  0.1587  0.8743  0.3877
   26SAPC  H17X 3523   2.493   4.542   7.884  0.4677  1.3917  0.9794
   26SAPC  H17Y 3524   2.650   4.480   7.943  1.1108 -2.3706 -0.4620
   26SAPC  C318 3525   2.477   4.440   8.072  0.5680  0.1290  0.1285
   26SAPC  H18X 3526   2.502   4.529   8.134  1.2901  0.6108 -0.8335
   26SAPC  H18Y 3527   2.517   4.348   8.121 -4.1479 -1.6207  1.2605
   26SAPC  H18Z 3528   2.370   4.419   8.049  0.5448  0.4394 -0.0491
   27SAPC     N 3529   6.223   4.299   6.380  0.1917 -0.0262 -0.0446
   27SAPC   C12 3530   6.249   4.269   6.527  0.5598  0.3672  0.1589
   27SAPC  H12A 3531   6.154   4.285   6.576  0.2602  1.1128 -0.6539
   27SAPC  H12B 3532   6.311   4.344   6.575  1.1875  1.0969 -1.7315
   27SAPC   C13 3533   6.347   4.271   6.306 -0.4183 -0.0285  0.1346
   27SAPC  H13A 3534   6.335   4.261   6.199  1.0676 -1.2531  0.0399
   27SAPC  H13B 3535   6.423   4.348   6.314  0.1429 -0.1806 -2.7279
   27SAPC  H13C 3536   6.389   4.174   6.326 -0.2171 -0.8991 -3.7452
   27SAPC   C14 3537   6.102   4.227   6.319 -0.3510  0.3974  0.0965
   27SAPC  H14A 3538   6.011   4.226   6.377 -0.6241 -1.6900 -0.2705
   27SAPC  H14B 3539   6.075   4.266   6.222 -1.6058  0.0600  0.2971
   27SAPC  H14C 3540   6.135   4.125   6.306  1.2841  0.6658  1.7688
   27SAPC   C15 3541   6.195   4.447   6.360 -0.1954  0.0795 -0.0314
   27SAPC  H15A 3542   6.188   4.471   6.255 -0.1176 -1.1697 -0.3393
   27SAPC  H15B 3543   6.105   4.481   6.409  0.7624 -1.6197  3.2426
   27SAPC  H15C 3544   6.279   4.499   6.403  0.8441 -0.4923 -1.3112
   27SAPC   C11 3545   6.306   4.132   6.575  0.7081  0.1899 -0.2208
   27SAPC  H11A 3546   6.254   4.046   6.526  2.9509 -0.2417 -2.0383
   27SAPC  H11B 3547   6.289   4.104   6.681  1.6278 -2.2183 -0.6253
   27SAPC     P 3548   6.557   4.187   6.649  0.1789 -0.3802  0.2820
   27SAPC   O13 3549   6.554   4.338   6.648  0.3014 -0.2868 -0.2626
   27SAPC   O14 3550   6.533   4.114   6.776 -0.7672  0.4392 -0.6475
   27SAPC   O12 3551   6.453   4.134   6.547 -0.2233 -0.1251  0.2283
   27SAPC   O11 3552   6.689   4.139   6.591  0.2048  0.0939  0.6510
   27SAPC    C1 3553   6.723   3.994   6.585 -0.7178 -0.2737  0.8748
   27SAPC    HA 3554   6.640   3.927   6.616 -1.2337 -1.0542 -1.9101
   27SAPC    HB 3555   6.731   3.958   6.480  0.6415 -0.5928  1.0660
   27SAPC    C2 3556   6.849   3.963   6.674 -0.2647  0.2477 -0.0422
   27SAPC    HS 3557   6.868   3.854   6.671  2.0523  0.6075 -1.4626
   27SAPC   O21 3558   6.830   4.008   6.807 -0.1933  0.8392 -0.3785
   27SAPC   C21 3559   6.754   3.929   6.881  0.8139  0.3292  0.1320
   27SAPC   O22 3560   6.715   3.817   6.843 -0.1162 -0.4041 -0.2428
   27SAPC   C22 3561   6.714   4.000   7.016 -0.4016  0.6441 -0.6229
   27SAPC   H2R 3562   6.807   4.052   7.046  0.5251 -1.4684  0.4351
   27SAPC   H2S 3563   6.642   4.078   6.985 -0.8985  0.0979 -0.8641
   27SAPC    C3 3564   6.980   4.038   6.619 -0.2885  0.6282 -0.3612
   27SAPC    HX 3565   6.936   4.135   6.587 -3.3940 -0.8052 -0.8239
   27SAPC    HY 3566   7.011   3.981   6.529 -0.9438  0.1201 -0.2737
   27SAPC   O31 3567   7.094   4.050   6.703  0.1501 -0.0189 -0.4991
   27SAPC   C31 3568   7.129   4.174   6.742  1.1482  0.4439  0.8635
   27SAPC   O32 3569   7.081   4.275   6.690 -0.2887 -0.2315  0.2645
   27SAPC   C32 3570   7.204   4.168   6.869 -1.2799  0.2599  0.1160
   27SAPC   H2X 3571   7.286   4.095   6.855 -2.0829 -1.1666  2.3833
   27SAPC   H2Y 3572   7.141   4.122   6.949 -2.6490 -0.1644 -1.1550
   27SAPC   C23 3573   6.660   3.895   7.124 -0.5509 -0.0802  0.2127
   27SAPC   H3R 3574   6.585   3.838   7.065  0.3419  1.3923 -2.5452
   27SAPC   H3S 3575   6.616   3.949   7.210 -1.3979 -2.8384  1.6415
   27SAPC   C24 3576   6.769   3.813   7.190 -0.4827 -0.0325 -0.8351
   27SAPC   H4R 3577   6.815   3.871   7.273  3.8122 -2.6938 -1.0584
   27SAPC   H4S 3578   6.854   3.772   7.132  1.4118 -0.6563  2.1412
   27SAPC   C25 3579   6.702   3.694   7.262  0.1301  0.2179 -0.0999
   27SAPC   H5R 3580   6.646   3.633   7.190  1.2394 -1.7128  0.6008
   27SAPC   C26 3581   6.710   3.647   7.388  0.2194 -0.4976  0.3557
   27SAPC   H6R 3582   6.650   3.557   7.407 -0.8230 -0.6875 -3.0732
   27SAPC   C27 3583   6.791   3.707   7.492  0.3226  0.1486  0.2491
   27SAPC   H7R 3584   6.875   3.768   7.451  2.5094 -2.5921  0.3532
   27SAPC   H7S 3585   6.839   3.616   7.534  0.1618 -0.6095 -1.1453
   27SAPC   C28 3586   6.708   3.761   7.606  0.1471  0.3325  0.3556
   27SAPC   H8R 3587   6.600   3.777   7.591  0.3075  1.8377  0.6229
   27SAPC   C29 3588   6.760   3.774   7.727  0.3916 -0.2823 -0.0304
   27SAPC   H9R 3589   6.697   3.801   7.813  2.2697  0.4497  1.1889
   27SAPC  C210 3590   6.902   3.734   7.768  0.8459 -0.2582  0.3241
   27SAPC  H10R 3591   6.961   3.825   7.746 -2.7379  2.1380 -0.3142
   27SAPC  H10S 3592   6.936   3.644   7.714  1.2381 -1.2021  2.0626
   27SAPC  C211 3593   6.915   3.705   7.917  0.0938  0.2345 -0.1068
   27SAPC  H11R 3594   6.882   3.604   7.945 -1.8207  0.7717 -0.3125
   27SAPC  C212 3595   6.949   3.792   8.017 -0.3230 -0.4487  0.0068
   27SAPC  H12R 3596   6.943   3.758   8.121 -1.1110 -0.0269  0.1093
   27SAPC  C213 3597   6.978   3.937   8.022 -0.3428 -0.1944  0.0105
   27SAPC  H13R 3598   7.012   3.972   7.923  1.2183 -1.2307  0.1338
   27SAPC  H13S 3599   7.070   3.944   8.085  0.2725 -0.8401 -0.7794
   27SAPC  C214 3600   6.864   4.026   8.072 -0.4227 -0.0475  0.2764
   27SAPC  H14R 3601   6.766   4.006   8.027 -0.9021  1.5388  0.5382
   27SAPC  C215 3602   6.875   4.131   8.152  0.2445 -0.1461 -0.5830
   27SAPC  H15R 3603   6.783   4.177   8.194  0.8703  2.0119 -1.4251
   27SAPC  C216 3604   7.010   4.187   8.210  0.8254 -0.2652 -0.0005
   27SAPC  H16R 3605   7.081   4.173   8.126  0.9996 -0.9044  0.2530
   27SAPC  H16S 3606   7.045   4.140   8.304 -1.0870  0.3969  1.1242
   27SAPC  C217 3607   6.995   4.337   8.240  1.1076  0.6508 -0.6586
   27SAPC  H17R 3608   6.965   4.379   8.142  0.9374  0.5611 -0.6461
   27SAPC  H17S 3609   7.095   4.370   8.274  1.8391 -2.1537  0.2118
   27SAPC  C218 3610   6.901   4.379   8.354  0.3254 -0.0063 -0.1301
   27SAPC  H18R 3611   6.940   4.336   8.449  2.5506  0.8599 -0.5832
   27SAPC  H18S 3612   6.801   4.342   8.322  0.6895 -0.1946 -1.0706
   27SAPC  C219 3613   6.900   4.535   8.369  0.6388 -0.0988  0.2166
   27SAPC  H19R 3614   6.994   4.565   8.419  0.3254 -3.3995  3.1406
   27SAPC  H19S 3615   6.819   4.571   8.436  1.7763  0.2638  1.4293
   27SAPC  C220 3616   6.887   4.616   8.237 -0.5325 -0.7617  0.2214
   27SAPC  H20R 3617   6.790   4.607   8.185 -0.9901 -0.9718  1.0862
   27SAPC  H20S 3618   6.973   4.589   8.173  0.3139 -0.6308  1.2681
   27SAPC  H20T 3619   6.903   4.723   8.262  0.0344 -0.3777 -1.6471
   27SAPC   C33 3620   7.266   4.316   6.885  0.3422 -0.1743 -0.2310
   27SAPC   H3X 3621   7.191   4.397   6.878  0.8997  0.5812  1.7673
   27SAPC   H3Y 3622   7.357   4.334   6.823 -0.0811  0.9013 -0.5548
   27SAPC   C34 3623   7.325   4.330   7.027  0.0353  0.8013  0.0793
   27SAPC   H4X 3624   7.417   4.268   7.034  0.6418  1.5360 -1.0626
   27SAPC   H4Y 3625   7.246   4.306   7.101 -0.2387  0.0988 -0.4243
   27SAPC   C35 3626   7.362   4.475   7.063  0.1423  0.1820 -0.0751
   27SAPC   H5X 3627   7.288   4.550   7.029  0.0052  0.3744  0.6363
   27SAPC   H5Y 3628   7.450   4.504   7.002 -1.1423  2.3085 -1.0096
   27SAPC   C36 3629   7.366   4.512   7.210  1.2140 -0.1952 -0.0397
   27SAPC   H6X 3630   7.266   4.504   7.257  0.1260 -0.5480 -2.2518
   27SAPC   H6Y 3631   7.400   4.617   7.225 -2.1964  1.1157 -0.4803
   27SAPC   C37 3632   7.449   4.417   7.296  0.0849 -0.3429  1.0744
   27SAPC   H7X 3633   7.555   4.445   7.282  0.4994 -2.7462 -1.3639
   27SAPC   H7Y 3634   7.430   4.313   7.265 -0.6315  0.5120 -1.6239
   27SAPC   C38 3635   7.413   4.444   7.443  0.0255  0.2516  0.3387
   27SAPC   H8X 3636   7.411   4.554   7.453  0.7931  0.3196 -0.1484
   27SAPC   H8Y 3637   7.503   4.413   7.501 -0.2405  1.6769  1.5585
   27SAPC   C39 3638   7.298   4.357   7.488 -0.2466 -0.0541  0.4524
   27SAPC   H9X 3639   7.342   4.255   7.483  1.8396  0.7350  1.4707
   27SAPC   H9Y 3640   7.216   4.366   7.413  0.1858 -2.7234 -0.4445
   27SAPC  C310 3641   7.240   4.396   7.620  0.5540 -0.0837 -0.1039
   27SAPC  H10X 3642   7.158   4.323   7.638 -0.4974  0.2464 -3.1117
   27SAPC  H10Y 3643   7.188   4.494   7.614  2.2025  0.9867  1.7992
   27SAPC  C311 3644   7.329   4.412   7.743 -0.3117 -0.6041  0.2452
   27SAPC  H11X 3645   7.414   4.476   7.711 -1.8874 -0.1211 -3.4300
   27SAPC  H11Y 3646   7.372   4.313   7.769 -1.5197 -1.2627 -0.2012
   27SAPC  C312 3647   7.249   4.482   7.853 -1.0891  0.3212 -0.5369
   27SAPC  H12X 3648   7.151   4.437   7.881 -1.7811  2.3214  0.4569
   27SAPC  H12Y 3649   7.212   4.578   7.810 -3.1225 -0.1504  0.0288
   27SAPC  C313 3650   7.334   4.532   7.973  0.5075  0.1241  1.0722
   27SAPC  H13X 3651   7.416   4.596   7.935  1.6875 -1.9737 -0.1382
   27SAPC  H13Y 3652   7.368   4.436   8.018 -1.0877 -1.4621 -0.9222
   27SAPC  C314 3653   7.262   4.625   8.075  0.2830  0.2803  0.6948
   27SAPC  H14X 3654   7.222   4.569   8.162 -1.3680 -0.4874 -0.5024
   27SAPC  H14Y 3655   7.175   4.664   8.017  0.5773 -1.2747 -0.8832
   27SAPC  C315 3656   7.336   4.755   8.122 -0.7235 -0.1138 -0.2827
   27SAPC  H15X 3657   7.370   4.801   8.027 -0.2390 -0.7872 -0.4429
   27SAPC  H15Y 3658   7.428   4.728   8.177 -0.6110  3.0915  1.3356
   27SAPC  C316 3659   7.261   4.856   8.222  0.1689 -0.2036  0.2181
   27SAPC  H16X 3660   7.228   4.795   8.309  4.1664 -1.6472  0.9328
   27SAPC  H16Y 3661   7.175   4.903   8.170  0.5331 -1.1259 -1.2995
   27SAPC  C317 3662   7.361   4.958   8.273  0.3579  0.3135 -0.2407
   27SAPC  H17X 3663   7.377   5.018   8.180  0.1315  2.4954  1.0555
   27SAPC  H17Y 3664   7.454   4.907   8.304 -0.1523  0.2466  1.2655
   27SAPC  C318 3665   7.317   5.062   8.383  0.6782 -0.2844  0.6194
   27SAPC  H18X 3666   7.314   5.016   8.484  0.8454  0.4467  0.9690
   27SAPC  H18Y 3667   7.216   5.099   8.356  0.6969  0.4395  1.4655
   27SAPC  H18Z 3668   7.387   5.148   8.385  0.8261 -0.1130 -3.5449
   28SAPC     N 3669   0.339   0.868   6.163 -0.2239 -0.0482 -0.2264
   28SAPC   C12 3670   0.274   0.844   6.298 -0.4755 -0.8039 -0.0513
   28SAPC  H12A 3671   0.223   0.750   6.286  0.5440 -1.5938  1.4903
   28SAPC  H12B 3672   0.202   0.923   6.315  1.9155  1.5041  0.1465
   28SAPC   C13 3673   0.432   0.983   6.150 -0.0637 -0.2827 -0.1471
   28SAPC  H13A 3674   0.382   1.074   6.182  1.2425  0.3419  0.1555
   28SAPC  H13B 3675   0.515   0.968   6.216  1.2111 -0.0691 -1.6419
   28SAPC  H13C 3676   0.465   0.997   6.048 -0.9865 -1.4913 -0.6438
   28SAPC   C14 3677   0.415   0.743   6.118 -0.1828  0.3329 -0.1661
   28SAPC  H14A 3678   0.462   0.741   6.021  0.1687  1.4116 -0.0350
   28SAPC  H14B 3679   0.492   0.718   6.188  1.0903 -1.1872 -2.0166
   28SAPC  H14C 3680   0.348   0.659   6.124 -1.2334  1.1908  0.7669
   28SAPC   C15 3681   0.236   0.887   6.059 -0.1039  0.2870 -0.3017
   28SAPC  H15A 3682   0.173   0.969   6.090 -1.5144 -0.8697  0.0361
   28SAPC  H15B 3683   0.276   0.891   5.959  0.2341  1.1754 -0.1418
   28SAPC  H15C 3684   0.172   0.800   6.067 -0.6356  0.8144  2.5399
   28SAPC   C11 3685   0.366   0.821   6.426  0.1027  0.2550  0.1531
   28SAPC  H11A 3686   0.302   0.833   6.516 -1.8893  1.0012 -1.2876
   28SAPC  H11B 3687   0.435   0.907   6.437 -0.4971  0.7375  0.2256
   28SAPC     P 3688   0.364   0.567   6.450  0.1657  0.0842 -0.3824
   28SAPC   O13 3689   0.244   0.568   6.370  0.4036  0.4249 -0.7518
   28SAPC   O14 3690   0.457   0.451   6.428 -0.0250  0.1117  0.0372
   28SAPC   O12 3691   0.443   0.697   6.417 -0.0111  0.1660 -0.2031
   28SAPC   O11 3692   0.330   0.586   6.608  0.8260 -0.3775  0.4632
   28SAPC    C1 3693   0.447   0.585   6.691  0.0158 -0.4187  0.6475
   28SAPC    HA 3694   0.497   0.486   6.695  0.8224 -0.0425  0.0620
   28SAPC    HB 3695   0.523   0.659   6.659  1.6446 -0.7270  3.4672
   28SAPC    C2 3696   0.395   0.621   6.839 -0.6324  0.2843  0.6006
   28SAPC    HS 3697   0.486   0.603   6.900  0.5313 -1.5977 -1.5311
   28SAPC   O21 3698   0.294   0.530   6.881  0.4466  0.3614 -0.0570
   28SAPC   C21 3699   0.333   0.408   6.910 -0.3418  0.1663  0.0125
   28SAPC   O22 3700   0.449   0.362   6.898 -0.2204  0.3248 -0.1860
   28SAPC   C22 3701   0.201   0.329   6.931 -0.6945 -0.7398 -0.0026
   28SAPC   H2R 3702   0.113   0.389   6.963 -1.7332 -2.4501  0.4561
   28SAPC   H2S 3703   0.176   0.303   6.827  1.7734 -0.9902 -0.5997
   28SAPC    C3 3704   0.347   0.765   6.844 -0.0686 -0.2602 -0.7913
   28SAPC    HX 3705   0.253   0.773   6.784 -0.7632  0.0726  0.3091
   28SAPC    HY 3706   0.423   0.830   6.796  0.5198 -0.3096  0.0437
   28SAPC   O31 3707   0.318   0.794   6.982 -0.1798  0.4288  0.4570
   28SAPC   C31 3708   0.362   0.907   7.026 -0.7166  0.2125 -0.1560
   28SAPC   O32 3709   0.442   0.981   6.969  0.2945  0.2610 -1.0879
   28SAPC   C32 3710   0.328   0.912   7.174 -0.4138 -0.2780 -0.1394
   28SAPC   H2X 3711   0.406   0.850   7.223 -1.9326 -0.0202  2.8225
   28SAPC   H2Y 3712   0.224   0.878   7.192 -1.1498 -0.0047 -3.2027
   28SAPC   C23 3713   0.227   0.196   7.000 -0.6181 -0.7883 -0.5844
   28SAPC   H3R 3714   0.302   0.130   6.949  0.1753  0.4452 -1.0503
   28SAPC   H3S 3715   0.129   0.144   6.996 -0.7310 -0.8535  1.8399
   28SAPC   C24 3716   0.260   0.203   7.153  0.1827 -0.1565 -0.3124
   28SAPC   H4R 3717   0.286   0.104   7.195  0.4543 -0.5869 -1.4658
   28SAPC   H4S 3718   0.353   0.264   7.161 -0.0123  0.1879 -0.6466
   28SAPC   C25 3719   0.152   0.268   7.237 -0.4291 -0.5569  0.2464
   28SAPC   H5R 3720   0.099   0.349   7.183 -1.0405 -1.6399 -0.8312
   28SAPC   C26 3721   0.112   0.244   7.365  0.2360 -0.8026  0.4337
   28SAPC   H6R 3722   0.042   0.319   7.406 -0.3367 -1.2574  0.3020
   28SAPC   C27 3723   0.179   0.149   7.462 -0.0078 -0.4848  0.1810
   28SAPC   H7R 3724   0.254   0.087   7.408  0.4012  0.0806  0.0894
   28SAPC   H7S 3725   0.104   0.089   7.517  0.3376  1.6616  3.2549
   28SAPC   C28 3726   0.257   0.229   7.566  0.1530  0.5257  0.5848
   28SAPC   H8R 3727   0.309   0.322   7.539 -0.3994  0.3982 -1.0239
   28SAPC   C29 3728   0.284   0.187   7.691  0.2228 -0.5487  0.1021
   28SAPC   H9R 3729   0.335   0.262   7.753  1.0568 -2.4248  1.7777
   28SAPC  C210 3730   0.233   0.066   7.764 -0.2221 -0.5664  0.3872
   28SAPC  H10R 3731   0.316   0.008   7.810  0.6062  1.8807  2.1881
   28SAPC  H10S 3732   0.193  -0.007   7.691  1.3798 -1.9834  0.8606
   28SAPC  C211 3733   0.124   0.104   7.859  0.0316  0.2732 -0.6533
   28SAPC  H11R 3734   0.034   0.149   7.813  0.2874 -0.6442 -2.0950
   28SAPC  C212 3735   0.122   0.079   7.991  0.1139  0.7377 -0.0763
   28SAPC  H12R 3736   0.023   0.097   8.037 -0.7300 -2.0897 -0.5991
   28SAPC  C213 3737   0.229   0.018   8.078 -0.2541  0.0433 -0.8376
   28SAPC  H13R 3738   0.287  -0.041   8.003 -2.1360 -1.5277 -1.1335
   28SAPC  H13S 3739   0.183  -0.054   8.149  0.3806  0.1962 -0.2575
   28SAPC  C214 3740   0.314   0.120   8.154  0.0946  0.1875  0.2066
   28SAPC  H14R 3741   0.320   0.211   8.093 -1.4787 -0.5497 -1.1174
   28SAPC  C215 3742   0.375   0.110   8.271 -1.0358 -0.1080  0.4673
   28SAPC  H15R 3743   0.429   0.201   8.303 -1.1270  0.4139 -0.7812
   28SAPC  C216 3744   0.381  -0.003   8.370  0.3434  0.3941  0.3749
   28SAPC  H16R 3745   0.471  -0.064   8.349 -1.9510 -3.3243  0.4330
   28SAPC  H16S 3746   0.292  -0.067   8.354  2.4460 -2.2045 -2.0551
   28SAPC  C217 3747   0.391   0.048   8.515 -0.2028  0.5315 -0.7368
   28SAPC  H17R 3748   0.477   0.116   8.528 -0.1288  0.2064  0.5929
   28SAPC  H17S 3749   0.394  -0.047   8.573  0.6427 -0.1232 -1.8012
   28SAPC  C218 3750   0.264   0.123   8.559 -0.4853  0.0028 -0.3145
   28SAPC  H18R 3751   0.185   0.045   8.554  1.0808 -1.5678 -2.4767
   28SAPC  H18S 3752   0.234   0.195   8.479 -2.5240  2.1735  2.2130
   28SAPC  C219 3753   0.274   0.203   8.682  0.7539 -0.2328 -0.2684
   28SAPC  H19R 3754   0.303   0.133   8.763  0.9769 -1.1729 -1.1475
   28SAPC  H19S 3755   0.175   0.246   8.711  1.6829  1.0933  1.1206
   28SAPC  C220 3756   0.371   0.322   8.685 -0.5888 -0.4000  0.6938
   28SAPC  H20R 3757   0.326   0.418   8.717 -0.5282  0.1254 -0.7179
   28SAPC  H20S 3758   0.409   0.354   8.585  0.2570  1.5998  1.6197
   28SAPC  H20T 3759   0.464   0.297   8.740  0.8341  1.1585 -0.8702
   28SAPC   C33 3760   0.325   1.062   7.218  0.5351 -0.1560  0.8787
   28SAPC   H3X 3761   0.249   1.113   7.154 -0.8398 -0.4783  2.1888
   28SAPC   H3Y 3762   0.411   1.123   7.184  0.4843 -1.6052 -2.1758
   28SAPC   C34 3763   0.304   1.075   7.371  0.5320  0.4011 -0.4197
   28SAPC   H4X 3764   0.209   1.031   7.408  0.3870 -0.2163 -1.4980
   28SAPC   H4Y 3765   0.301   1.182   7.401  0.1555  0.2439  0.1254
   28SAPC   C35 3766   0.421   1.011   7.448 -0.4231  0.3294  0.5595
   28SAPC   H5X 3767   0.523   1.049   7.428  0.9699 -2.8077  1.2513
   28SAPC   H5Y 3768   0.415   0.904   7.420  3.1702 -0.3008  1.6968
   28SAPC   C36 3769   0.405   1.013   7.599 -0.5663  0.9844 -0.2126
   28SAPC   H6X 3770   0.304   0.995   7.643 -0.3236 -0.0360 -0.0407
   28SAPC   H6Y 3771   0.425   1.114   7.640  0.0716  0.9704 -0.4818
   28SAPC   C37 3772   0.502   0.915   7.674 -0.0517 -0.6086  0.4055
   28SAPC   H7X 3773   0.605   0.921   7.632  1.0269  1.5414  2.9805
   28SAPC   H7Y 3774   0.465   0.813   7.652 -1.1594  0.3049 -2.3893
   28SAPC   C38 3775   0.514   0.933   7.820 -0.2441  0.1588 -0.1894
   28SAPC   H8X 3776   0.554   1.033   7.847  1.2991 -0.2011 -1.0150
   28SAPC   H8Y 3777   0.589   0.866   7.868 -1.2236  0.5085  1.9452
   28SAPC   C39 3778   0.385   0.902   7.903  0.0277 -0.1809  1.1027
   28SAPC   H9X 3779   0.331   0.811   7.871  0.7261 -0.5682  0.9928
   28SAPC   H9Y 3780   0.316   0.988   7.888 -0.3099 -0.5395  0.5722
   28SAPC  C310 3781   0.408   0.889   8.056 -0.2050  0.1010 -0.0692
   28SAPC  H10X 3782   0.475   0.806   8.085  0.1646  0.1579 -0.7235
   28SAPC  H10Y 3783   0.309   0.865   8.099 -0.7803  0.8872 -0.9292
   28SAPC  C311 3784   0.449   1.018   8.122 -0.7203  0.0814 -0.2201
   28SAPC  H11X 3785   0.394   1.105   8.080 -0.4025  1.1422  1.4823
   28SAPC  H11Y 3786   0.555   1.039   8.099  0.2055 -0.7766  2.7634
   28SAPC  C312 3787   0.422   1.023   8.276 -0.3649 -0.3600 -0.0584
   28SAPC  H12X 3788   0.467   0.936   8.330 -1.5462 -1.0872 -0.2002
   28SAPC  H12Y 3789   0.313   1.020   8.294 -0.0421 -0.0389  2.2514
   28SAPC  C313 3790   0.462   1.157   8.340 -0.0333 -0.8506  0.0853
   28SAPC  H13X 3791   0.407   1.239   8.289  0.2833 -1.0026 -0.5009
   28SAPC  H13Y 3792   0.570   1.173   8.319  0.0641 -1.5707  0.0050
   28SAPC  C314 3793   0.437   1.177   8.491 -0.3364 -0.3509  0.5021
   28SAPC  H14X 3794   0.498   1.119   8.564  0.4963  3.8952  3.5730
   28SAPC  H14Y 3795   0.333   1.140   8.507 -0.9061 -0.0023 -2.0290
   28SAPC  C315 3796   0.424   1.322   8.532 -0.3493 -0.2143 -0.6397
   28SAPC  H15X 3797   0.369   1.377   8.452  0.5255  0.2925 -0.9018
   28SAPC  H15Y 3798   0.528   1.360   8.534  0.6138 -2.6099 -1.0687
   28SAPC  C316 3799   0.383   1.353   8.675  0.9544  0.5712 -0.1379
   28SAPC  H16X 3800   0.387   1.464   8.689 -1.1220  0.6475  0.2110
   28SAPC  H16Y 3801   0.453   1.307   8.748  1.6512  2.2365  0.2900
   28SAPC  C317 3802   0.249   1.287   8.711  1.2575  0.7392  0.0635
   28SAPC  H17X 3803   0.222   1.289   8.818 -0.5902 -0.3945 -0.3296
   28SAPC  H17Y 3804   0.229   1.185   8.671 -0.4171  0.8531  0.5189
   28SAPC  C318 3805   0.124   1.360   8.647  0.3055 -0.1192  0.4400
   28SAPC  H18X 3806   0.129   1.464   8.684 -0.7612  0.3757 -0.7382
   28SAPC  H18Y 3807   0.024   1.317   8.671  1.2466 -1.1492  2.8467
   28SAPC  H18Z 3808   0.131   1.349   8.536 -0.2041  1.1185  0.2698
   29SAPC     N 3809   6.456   5.051   6.015  0.2650 -0.7808 -0.0418
   29SAPC   C12 3810   6.369   5.047   6.141  0.2670 -0.4594  0.4001
   29SAPC  H12A 3811   6.290   4.976   6.122  0.3549 -0.9193  1.6432
   29SAPC  H12B 3812   6.321   5.143   6.149  0.3896 -0.3128 -0.4530
   29SAPC   C13 3813   6.533   4.929   6.000 -0.0802 -0.4676  0.4224
   29SAPC  H13A 3814   6.470   4.841   5.994  0.9733 -1.3636  1.7487
   29SAPC  H13B 3815   6.611   4.928   5.925 -1.0730  1.2667 -0.6876
   29SAPC  H13C 3816   6.595   4.906   6.086  2.4210 -5.2636 -2.2024
   29SAPC   C14 3817   6.366   5.074   5.899 -0.0901 -0.1359  0.4741
   29SAPC  H14A 3818   6.297   5.154   5.921 -0.3985 -0.8850  2.4318
   29SAPC  H14B 3819   6.428   5.101   5.815  0.2762 -0.8477  0.5093
   29SAPC  H14C 3820   6.313   4.985   5.865 -0.1162  0.1151 -0.1427
   29SAPC   C15 3821   6.551   5.170   6.025  0.7035  0.6829 -0.3397
   29SAPC  H15A 3822   6.493   5.261   6.017 -2.5081 -1.2285 -0.3414
   29SAPC  H15B 3823   6.591   5.171   6.125 -0.4258  2.1135  0.1322
   29SAPC  H15C 3824   6.634   5.169   5.956  0.2206 -0.7875 -0.9311
   29SAPC   C11 3825   6.434   5.029   6.276 -0.4317  0.8200 -0.4237
   29SAPC  H11A 3826   6.362   5.064   6.353 -0.3467 -1.8912  0.9942
   29SAPC  H11B 3827   6.523   5.089   6.301 -0.3370 -0.1561  1.7911
   29SAPC     P 3828   6.387   4.782   6.368  0.1627 -0.0463 -0.1951
   29SAPC   O13 3829   6.242   4.814   6.368 -0.1814 -0.1668  0.1023
   29SAPC   O14 3830   6.418   4.651   6.307 -0.4102  0.1711 -0.1852
   29SAPC   O12 3831   6.479   4.890   6.297  0.1499  0.4642  0.0624
   29SAPC   O11 3832   6.434   4.776   6.525  0.2247  1.1854  0.4894
   29SAPC    C1 3833   6.492   4.894   6.586  0.2216 -0.2679  0.5497
   29SAPC    HA 3834   6.601   4.905   6.567 -0.1510 -1.1598 -2.5621
   29SAPC    HB 3835   6.441   4.990   6.564  4.2169  1.7880 -0.8022
   29SAPC    C2 3836   6.480   4.869   6.741 -0.0591  0.4554 -0.1458
   29SAPC    HS 3837   6.540   4.945   6.795  2.0851 -1.5702  0.4758
   29SAPC   O21 3838   6.524   4.731   6.779 -0.0791  0.4310  0.5934
   29SAPC   C21 3839   6.570   4.720   6.904  0.0523 -0.5285 -0.3575
   29SAPC   O22 3840   6.583   4.812   6.980 -0.3086  0.7860 -0.0932
   29SAPC   C22 3841   6.594   4.576   6.941  0.1254 -0.0440  0.6743
   29SAPC   H2R 3842   6.510   4.545   7.007 -0.1902 -0.4521  0.0899
   29SAPC   H2S 3843   6.576   4.506   6.856  1.0184 -0.4964  0.8401
   29SAPC    C3 3844   6.331   4.885   6.772  0.9824 -0.0560 -0.6124
   29SAPC    HX 3845   6.276   4.804   6.720  2.0918 -1.8081  0.7806
   29SAPC    HY 3846   6.295   4.978   6.724 -0.0098  1.0675  2.0936
   29SAPC   O31 3847   6.295   4.874   6.918  0.0341  0.0214  0.0657
   29SAPC   C31 3848   6.304   4.984   6.979  0.5805  0.0799 -0.3263
   29SAPC   O32 3849   6.326   5.090   6.930 -0.3136  0.2162 -0.0074
   29SAPC   C32 3850   6.273   4.959   7.121 -0.0956 -0.5155 -0.2394
   29SAPC   H2X 3851   6.359   4.903   7.164 -1.2139 -1.6004  0.6780
   29SAPC   H2Y 3852   6.178   4.904   7.138 -0.7305  0.9730  1.3022
   29SAPC   C23 3853   6.731   4.534   7.002 -0.7572 -0.4392 -0.1694
   29SAPC   H3R 3854   6.762   4.597   7.089 -2.0178 -1.7908  1.3428
   29SAPC   H3S 3855   6.800   4.554   6.918 -2.5801 -0.2110 -1.6888
   29SAPC   C24 3856   6.746   4.382   7.039  0.1103  0.6576  0.2445
   29SAPC   H4R 3857   6.723   4.324   6.947 -0.5799 -0.8485  1.3359
   29SAPC   H4S 3858   6.673   4.345   7.114 -1.2819  0.0403 -1.3428
   29SAPC   C25 3859   6.884   4.339   7.085 -0.2766 -0.2206  0.1613
   29SAPC   H5R 3860   6.967   4.349   7.013  0.9613  1.9473  1.7403
   29SAPC   C26 3861   6.918   4.292   7.205 -0.3393  0.4710 -0.4131
   29SAPC   H6R 3862   7.023   4.259   7.215  0.0947  1.6966 -0.7592
   29SAPC   C27 3863   6.830   4.268   7.320 -0.3001  0.1355 -0.3609
   29SAPC   H7R 3864   6.723   4.252   7.293 -0.2071  2.3163 -2.4096
   29SAPC   H7S 3865   6.833   4.367   7.372  0.7010  0.4120 -0.9189
   29SAPC   C28 3866   6.874   4.149   7.407 -0.0082 -0.0061  0.3837
   29SAPC   H8R 3867   6.871   4.051   7.357 -2.2077  0.8758 -1.4043
   29SAPC   C29 3868   6.894   4.156   7.537  0.0558  0.3051  0.8689
   29SAPC   H9R 3869   6.905   4.061   7.593  3.4288  0.6523  0.9889
   29SAPC  C210 3870   6.876   4.276   7.624  0.1769  0.2975  0.7008
   29SAPC  H10R 3871   6.787   4.335   7.593 -1.0338 -1.1758  1.1996
   29SAPC  H10S 3872   6.958   4.348   7.604  0.8198 -0.2563  1.2663
   29SAPC  C211 3873   6.882   4.265   7.777 -0.0427 -0.0149  0.2304
   29SAPC  H11R 3874   6.927   4.167   7.799 -1.0917 -0.9438 -1.5645
   29SAPC  C212 3875   6.848   4.359   7.873 -0.3563 -0.3730  0.3108
   29SAPC  H12R 3876   6.878   4.345   7.978  1.5426 -1.4014 -0.3258
   29SAPC  C213 3877   6.792   4.498   7.851 -0.0015  0.4600  0.5740
   29SAPC  H13R 3878   6.803   4.513   7.742 -0.7951 -0.4532  0.3573
   29SAPC  H13S 3879   6.843   4.585   7.897 -2.1726  2.6789 -1.0157
   29SAPC  C214 3880   6.649   4.500   7.908 -0.1561  0.5682  0.5567
   29SAPC  H14R 3881   6.608   4.416   7.967 -1.9498  0.7625 -0.3323
   29SAPC  C215 3882   6.561   4.587   7.865 -0.0977 -0.5192  0.4433
   29SAPC  H15R 3883   6.462   4.591   7.912 -1.2909  0.9184 -1.9801
   29SAPC  C216 3884   6.593   4.708   7.775 -0.0080 -0.5233 -0.2573
   29SAPC  H16R 3885   6.701   4.731   7.765  0.4301 -2.0775  0.7071
   29SAPC  H16S 3886   6.552   4.802   7.819  2.8243  1.2812 -1.2394
   29SAPC  C217 3887   6.537   4.694   7.633  0.4208 -0.2877  0.0118
   29SAPC  H17R 3888   6.427   4.674   7.630  0.1745  0.9514 -3.4117
   29SAPC  H17S 3889   6.591   4.612   7.581  2.8771  2.2687 -1.7370
   29SAPC  C218 3890   6.560   4.827   7.549  0.2000 -0.9596  0.1969
   29SAPC  H18R 3891   6.669   4.845   7.533  0.0576 -1.3413 -1.3381
   29SAPC  H18S 3892   6.526   4.913   7.610  0.5589  0.4843 -1.5306
   29SAPC  C219 3893   6.488   4.819   7.414  0.2638 -0.0063  0.2229
   29SAPC  H19R 3894   6.484   4.922   7.373  0.8518 -0.7059 -1.6872
   29SAPC  H19S 3895   6.391   4.764   7.425 -0.4028  0.9529 -0.6899
   29SAPC  C220 3896   6.567   4.741   7.314 -0.0646 -0.7584  0.8550
   29SAPC  H20R 3897   6.507   4.738   7.221 -1.2072 -2.1235  1.5886
   29SAPC  H20S 3898   6.565   4.634   7.344 -1.1741 -1.2135 -0.7373
   29SAPC  H20T 3899   6.668   4.781   7.292 -0.7158 -0.8158 -2.7292
   29SAPC   C33 3900   6.264   5.091   7.212  0.1528  0.0694  0.2430
   29SAPC   H3X 3901   6.194   5.169   7.176 -0.2112  0.2053  1.2211
   29SAPC   H3Y 3902   6.364   5.133   7.235  0.2105  0.1807 -0.2105
   29SAPC   C34 3903   6.211   5.057   7.356  0.2117 -0.8113  0.2101
   29SAPC   H4X 3904   6.248   4.954   7.375  1.1774 -0.6741 -0.8513
   29SAPC   H4Y 3905   6.100   5.049   7.358 -0.2255  3.1533  0.0751
   29SAPC   C35 3906   6.242   5.166   7.466 -0.2043 -0.1392  0.0714
   29SAPC   H5X 3907   6.200   5.253   7.413 -0.1380  0.6916  1.3484
   29SAPC   H5Y 3908   6.353   5.169   7.477 -0.2120 -1.3207  0.6744
   29SAPC   C36 3909   6.185   5.134   7.605  0.5772 -0.2023  0.0351
   29SAPC   H6X 3910   6.232   5.041   7.642 -0.3347 -1.0287 -0.8391
   29SAPC   H6Y 3911   6.076   5.114   7.595  0.6578 -0.0336 -1.3361
   29SAPC   C37 3912   6.207   5.248   7.712 -0.9724  0.0317  0.0294
   29SAPC   H7X 3913   6.141   5.333   7.685  0.2644  0.3872 -2.0568
   29SAPC   H7Y 3914   6.309   5.288   7.700 -0.3745 -1.9724 -2.5632
   29SAPC   C38 3915   6.173   5.184   7.854  0.2020  0.4262 -0.6304
   29SAPC   H8X 3916   6.245   5.100   7.855 -0.5565 -0.2736 -2.3249
   29SAPC   H8Y 3917   6.065   5.158   7.852 -0.0065  1.0858  0.6145
   29SAPC   C39 3918   6.189   5.297   7.959  0.8558 -0.5373 -0.4086
   29SAPC   H9X 3919   6.167   5.398   7.918 -1.1297 -0.5316  0.5485
   29SAPC   H9Y 3920   6.297   5.299   7.984  1.0157  2.0807 -1.0758
   29SAPC  C310 3921   6.110   5.277   8.091  0.1210 -0.1445  0.4975
   29SAPC  H10X 3922   6.132   5.174   8.127 -1.7453 -1.0738 -0.8064
   29SAPC  H10Y 3923   6.003   5.276   8.062  0.3715 -0.4295 -0.4513
   29SAPC  C311 3924   6.131   5.385   8.186 -0.4068  0.0793 -0.3604
   29SAPC  H11X 3925   6.103   5.486   8.148  1.6723  1.1504  0.7296
   29SAPC  H11Y 3926   6.240   5.395   8.206 -0.2935  0.5925 -1.1690
   29SAPC  C312 3927   6.061   5.360   8.320  0.0904  0.5701  0.3763
   29SAPC  H12X 3928   5.950   5.359   8.317  0.1199  0.1183 -0.8298
   29SAPC  H12Y 3929   6.076   5.447   8.389 -0.5128 -1.0948  2.7410
   29SAPC  C313 3930   6.093   5.222   8.394 -0.2040  0.1260  0.3054
   29SAPC  H13X 3931   6.095   5.236   8.504 -0.1595  0.1730  0.2990
   29SAPC  H13Y 3932   6.199   5.196   8.374 -0.3333 -0.5462  0.4628
   29SAPC  C314 3933   5.990   5.107   8.369 -1.0889  0.9441  0.6707
   29SAPC  H14X 3934   5.992   5.086   8.260  0.0776  2.4789  0.3519
   29SAPC  H14Y 3935   5.895   5.157   8.397 -1.1544  0.7730  0.7525
   29SAPC  C315 3936   6.016   4.976   8.436 -0.2218 -0.0183  0.1671
   29SAPC  H15X 3937   6.016   4.993   8.546  0.1261 -1.9157  0.5045
   29SAPC  H15Y 3938   6.117   4.946   8.400 -1.0220 -2.5297 -0.2040
   29SAPC  C316 3939   5.927   4.865   8.390 -0.3313 -0.9088  0.2267
   29SAPC  H16X 3940   5.938   4.863   8.279 -0.4496 -0.2348  0.2001
   29SAPC  H16Y 3941   5.820   4.896   8.396  0.4911  2.9270 -1.8591
   29SAPC  C317 3942   5.960   4.730   8.437  0.0858 -0.7986  0.2612
   29SAPC  H17X 3943   5.957   4.739   8.548 -3.2408 -0.5070  0.2616
   29SAPC  H17Y 3944   6.060   4.686   8.418 -0.4393 -1.3736 -1.2950
   29SAPC  C318 3945   5.860   4.632   8.384  0.3984 -0.2604 -0.0698
   29SAPC  H18X 3946   5.894   4.531   8.414 -0.4341 -1.7787 -3.7625
   29SAPC  H18Y 3947   5.865   4.638   8.274  1.0552  0.1412 -0.0223
   29SAPC  H18Z 3948   5.760   4.650   8.429  0.5085  1.8687 -0.5593
   30SAPC     N 3949   1.336   4.556   5.825  0.1554 -0.5758  0.4009
   30SAPC   C12 3950   1.358   4.569   5.975 -0.3310  0.5243 -1.2702
   30SAPC  H12A 3951   1.436   4.501   6.006 -0.7393 -0.3319 -2.0920
   30SAPC  H12B 3952   1.267   4.535   6.022 -0.3232 -0.2433 -1.7944
   30SAPC   C13 3953   1.221   4.647   5.781  1.0404 -0.1044  0.2184
   30SAPC  H13A 3954   1.126   4.618   5.823  0.2988 -0.3634 -1.5486
   30SAPC  H13B 3955   1.246   4.747   5.814 -0.2271  0.5172 -0.6476
   30SAPC  H13C 3956   1.218   4.648   5.673  0.3178  2.2494  0.2215
   30SAPC   C14 3957   1.459   4.596   5.759  0.3337 -0.0171 -0.1419
   30SAPC  H14A 3958   1.481   4.701   5.776  1.8024 -0.4561  0.8051
   30SAPC  H14B 3959   1.541   4.532   5.787 -0.6333 -0.2406  2.4365
   30SAPC  H14C 3960   1.443   4.582   5.653 -1.8675  0.9615  0.0001
   30SAPC   C15 3961   1.304   4.406   5.796 -0.3726 -0.1567  0.0252
   30SAPC  H15A 3962   1.398   4.354   5.793  0.0091  0.5175  0.0090
   30SAPC  H15B 3963   1.234   4.362   5.866  0.5693 -0.1650  0.9921
   30SAPC  H15C 3964   1.255   4.396   5.700 -2.0338 -1.1043  0.9250
   30SAPC   C11 3965   1.408   4.708   6.024 -0.3202  0.4770 -0.1107
   30SAPC  H11A 3966   1.393   4.709   6.134  0.8685 -0.4940  0.0780
   30SAPC  H11B 3967   1.328   4.780   5.996 -1.5888 -0.3959  1.1508
   30SAPC     P 3968   1.590   4.881   6.024  0.2120 -0.2999  0.1667
   30SAPC   O13 3969   1.732   4.888   5.980 -0.2391 -0.3207  0.3756
   30SAPC   O14 3970   1.492   4.986   5.979  0.2056 -0.0353  0.2932
   30SAPC   O12 3971   1.547   4.736   5.990 -0.2896 -0.1621  0.0412
   30SAPC   O11 3972   1.585   4.887   6.179  0.1583  0.4560 -0.0845
   30SAPC    C1 3973   1.654   4.798   6.269  0.4134 -0.0981 -0.1396
   30SAPC    HA 3974   1.663   4.697   6.224  2.4253 -0.2407  0.4983
   30SAPC    HB 3975   1.756   4.834   6.294  0.6549 -1.7248  1.4614
   30SAPC    C2 3976   1.568   4.779   6.397  0.0113 -0.1526  0.3363
   30SAPC    HS 3977   1.466   4.745   6.370 -0.8174  2.4779 -0.0854
   30SAPC   O21 3978   1.569   4.904   6.473 -0.2650 -0.2977 -0.0297
   30SAPC   C21 3979   1.463   4.925   6.552 -0.1324  0.6306 -0.7558
   30SAPC   O22 3980   1.368   4.853   6.556 -0.2750 -0.2148  0.5012
   30SAPC   C22 3981   1.488   5.043   6.647  0.4570  0.1008  0.1013
   30SAPC   H2R 3982   1.581   5.026   6.706  0.2679  0.3471  0.4773
   30SAPC   H2S 3983   1.500   5.138   6.591 -0.2775 -0.0437 -0.3204
   30SAPC    C3 3984   1.619   4.652   6.486  0.7597 -0.1253 -0.1046
   30SAPC    HX 3985   1.728   4.663   6.502  0.6693 -0.1325  0.5358
   30SAPC    HY 3986   1.605   4.558   6.429  0.3678 -1.0060  1.3825
   30SAPC   O31 3987   1.550   4.647   6.617  0.1047  0.0948 -0.3259
   30SAPC   C31 3988   1.445   4.565   6.626 -0.2460 -0.8643  0.5642
   30SAPC   O32 3989   1.399   4.491   6.539 -0.0545 -0.3459 -0.4135
   30SAPC   C32 3990   1.401   4.573   6.769  0.5202  0.0865  0.0526
   30SAPC   H2X 3991   1.305   4.628   6.777  1.5228  1.6636  2.1060
   30SAPC   H2Y 3992   1.478   4.617   6.836  0.1910 -2.6057  2.3771
   30SAPC   C23 3993   1.369   5.066   6.744  0.0742  0.1254 -0.4330
   30SAPC   H3R 3994   1.347   4.966   6.789 -1.0222  0.5950  0.1177
   30SAPC   H3S 3995   1.277   5.085   6.683 -0.0817 -0.7462 -0.4817
   30SAPC   C24 3996   1.381   5.175   6.843 -0.1560 -0.0587  0.0750
   30SAPC   H4R 3997   1.418   5.266   6.790  1.4168  0.2363  1.5863
   30SAPC   H4S 3998   1.458   5.139   6.915  0.3852  1.1876  0.1530
   30SAPC   C25 3999   1.268   5.203   6.935  0.6360 -0.3199 -0.1648
   30SAPC   H5R 4000   1.183   5.253   6.886  3.1553  4.4428 -0.3207
   30SAPC   C26 4001   1.270   5.187   7.070 -0.0962 -0.1465  0.2940
   30SAPC   H6R 4002   1.171   5.199   7.116 -1.1229 -1.4940 -1.4480
   30SAPC   C27 4003   1.384   5.133   7.159  0.2654 -1.0536  0.1113
   30SAPC   H7R 4004   1.372   5.171   7.262  0.2461 -1.9010  0.4295
   30SAPC   H7S 4005   1.484   5.158   7.119  0.4254 -0.5703  0.8180
   30SAPC   C28 4006   1.372   4.983   7.167 -0.8166 -0.7095 -0.1084
   30SAPC   H8R 4007   1.334   4.932   7.077 -0.1486 -2.3383  0.4936
   30SAPC   C29 4008   1.408   4.916   7.277  0.4252 -0.0053  0.1530
   30SAPC   H9R 4009   1.406   4.806   7.277  0.6042 -0.0088  0.1305
   30SAPC  C210 4010   1.467   4.967   7.402  0.7190  0.6956  0.6409
   30SAPC  H10R 4011   1.525   5.058   7.378  2.1361 -0.6950 -1.5858
   30SAPC  H10S 4012   1.551   4.908   7.443  0.9321  0.3441 -0.2761
   30SAPC  C211 4013   1.366   5.008   7.498  0.4545  0.2490  0.3557
   30SAPC  H11R 4014   1.311   5.099   7.468  1.3631  0.8318  0.3930
   30SAPC  C212 4015   1.347   4.953   7.617  0.0592 -0.6130 -0.2045
   30SAPC  H12R 4016   1.266   4.998   7.676 -0.0683  0.8393 -1.4141
   30SAPC  C213 4017   1.410   4.828   7.678 -0.7919  0.6601 -0.3460
   30SAPC  H13R 4018   1.426   4.756   7.595 -0.6939  1.7769 -1.3228
   30SAPC  H13S 4019   1.335   4.787   7.749  0.1412  0.9691  0.8500
   30SAPC  C214 4020   1.540   4.861   7.753 -0.2908  0.4363  0.4738
   30SAPC  H14R 4021   1.629   4.888   7.694 -0.5972  0.8570  0.1990
   30SAPC  C215 4022   1.563   4.851   7.890 -0.0515 -0.3167  0.0116
   30SAPC  H15R 4023   1.665   4.873   7.925 -1.3564  1.0053  3.4434
   30SAPC  C216 4024   1.469   4.813   8.001 -0.0288 -0.3118  0.0885
   30SAPC  H16R 4025   1.367   4.799   7.958  1.2282 -1.5494 -2.7437
   30SAPC  H16S 4026   1.465   4.904   8.065 -1.0307  0.0101 -0.4062
   30SAPC  C217 4027   1.510   4.683   8.068 -0.0778 -0.1543 -0.1791
   30SAPC  H17R 4028   1.547   4.607   7.996 -0.7901  0.1895 -0.9207
   30SAPC  H17S 4029   1.422   4.646   8.125 -2.3621  1.0131 -2.7417
   30SAPC  C218 4030   1.622   4.698   8.175 -0.4768  0.0249  1.3025
   30SAPC  H18R 4031   1.633   4.799   8.219 -0.6987  0.8005 -0.3644
   30SAPC  H18S 4032   1.717   4.681   8.119 -1.5673 -2.1527 -0.0505
   30SAPC  C219 4033   1.601   4.600   8.288  0.1610  0.9749  0.2183
   30SAPC  H19R 4034   1.512   4.636   8.343  0.3774  1.4565  0.2620
   30SAPC  H19S 4035   1.691   4.618   8.351 -0.1786 -1.0906  1.3699
   30SAPC  C220 4036   1.600   4.456   8.236  0.8258  0.3962  0.1989
   30SAPC  H20R 4037   1.631   4.388   8.317  0.4706  0.9451  0.8026
   30SAPC  H20S 4038   1.673   4.456   8.152  2.0369  0.8471  1.2191
   30SAPC  H20T 4039   1.495   4.422   8.220  1.0745 -1.1590  1.6226
   30SAPC   C33 4040   1.385   4.427   6.830  0.2647 -1.2036 -0.4758
   30SAPC   H3X 4041   1.385   4.349   6.751 -2.4286 -0.0903 -1.7045
   30SAPC   H3Y 4042   1.288   4.419   6.885  0.6101  0.6970  0.5139
   30SAPC   C34 4043   1.492   4.395   6.939  0.9588  0.1002  0.0180
   30SAPC   H4X 4044   1.468   4.295   6.981  1.5847  1.0294  2.7769
   30SAPC   H4Y 4045   1.484   4.467   7.023 -1.9671 -2.4704  2.1781
   30SAPC   C35 4046   1.630   4.382   6.888 -0.3239 -0.7387 -0.3757
   30SAPC   H5X 4047   1.657   4.475   6.833 -0.2155 -1.1299 -0.9912
   30SAPC   H5Y 4048   1.626   4.299   6.814 -0.8360  0.7874 -2.1505
   30SAPC   C36 4049   1.745   4.375   7.001 -0.4862 -0.5163  0.0276
   30SAPC   H6X 4050   1.718   4.273   7.038 -5.8079 -0.9988 -3.9277
   30SAPC   H6Y 4051   1.722   4.455   7.074  1.8947  0.8259 -0.6119
   30SAPC   C37 4052   1.887   4.390   6.953  0.1328 -0.1331  0.0338
   30SAPC   H7X 4053   1.904   4.491   6.912  0.4949 -0.8848 -1.7775
   30SAPC   H7Y 4054   1.898   4.314   6.872 -1.4380 -1.7210  1.2204
   30SAPC   C38 4055   1.986   4.370   7.060  0.0579  0.0369  0.4433
   30SAPC   H8X 4056   2.082   4.334   7.016  1.7690  4.4544  0.1316
   30SAPC   H8Y 4057   1.954   4.285   7.125  1.9443 -0.2099  1.1127
   30SAPC   C39 4058   2.028   4.487   7.153  0.6547  1.0517  0.8168
   30SAPC   H9X 4059   1.927   4.517   7.190  0.1681 -1.7130  2.0265
   30SAPC   H9Y 4060   2.072   4.571   7.096  2.0325  0.1706  0.5421
   30SAPC  C310 4061   2.133   4.453   7.260  0.0292 -0.0842  0.5068
   30SAPC  H10X 4062   2.235   4.483   7.226  0.5319  0.0271  2.0227
   30SAPC  H10Y 4063   2.132   4.344   7.277  1.3343 -0.2781 -0.4744
   30SAPC  C311 4064   2.116   4.517   7.396  0.1175 -0.2184  0.0428
   30SAPC  H11X 4065   2.047   4.465   7.465 -0.8501 -0.5959 -1.1691
   30SAPC  H11Y 4066   2.083   4.623   7.389 -0.8836 -0.4273  1.2821
   30SAPC  C312 4067   2.253   4.520   7.473  0.2327  0.6215 -0.3444
   30SAPC  H12X 4068   2.334   4.576   7.422 -0.5974  1.1702 -1.0798
   30SAPC  H12Y 4069   2.295   4.417   7.472 -0.0657  0.4191 -3.3021
   30SAPC  C313 4070   2.233   4.583   7.612  0.2424  0.7471  0.2875
   30SAPC  H13X 4071   2.197   4.687   7.598  1.0176  0.8020 -1.5337
   30SAPC  H13Y 4072   2.339   4.580   7.647 -0.0911  0.8265  1.3358
   30SAPC  C314 4073   2.148   4.497   7.704  0.0168 -0.7265 -0.6275
   30SAPC  H14X 4074   2.181   4.391   7.713  1.6469 -0.3149 -1.2655
   30SAPC  H14Y 4075   2.046   4.509   7.663 -0.3209 -0.0984  0.3796
   30SAPC  C315 4076   2.141   4.559   7.844 -0.2592  0.2033  0.4403
   30SAPC  H15X 4077   2.123   4.668   7.830 -2.2507  0.1462  2.2451
   30SAPC  H15Y 4078   2.240   4.555   7.895  0.4242  0.3302 -0.8349
   30SAPC  C316 4079   2.046   4.492   7.934  0.4050 -0.1190 -1.0560
   30SAPC  H16X 4080   2.061   4.382   7.924  0.8154  0.0042 -1.8762
   30SAPC  H16Y 4081   1.938   4.510   7.912  0.1586 -0.1194  0.0894
   30SAPC  C317 4082   2.064   4.512   8.089 -0.5927  0.8073  0.3621
   30SAPC  H17X 4083   2.034   4.615   8.119  1.9450  1.1682  1.9811
   30SAPC  H17Y 4084   2.172   4.498   8.110 -1.3615 -0.0194  4.6760
   30SAPC  C318 4085   1.990   4.413   8.175  0.3625 -0.2353  0.1194
   30SAPC  H18X 4086   1.882   4.412   8.150  0.2820  2.8197 -0.0414
   30SAPC  H18Y 4087   2.002   4.444   8.281  1.2032  0.8032 -0.2590
   30SAPC  H18Z 4088   2.018   4.307   8.161  2.6586  0.4401 -0.8018
   31SAPC     N 4089   2.826   5.340   6.128  0.4114  0.1705  1.7087
   31SAPC   C12 4090   2.880   5.410   6.246 -0.0034 -0.2926  0.1875
   31SAPC  H12A 4091   2.802   5.476   6.282 -1.6006 -0.4748 -2.6222
   31SAPC  H12B 4092   2.964   5.469   6.212 -0.3437  0.6623  0.9559
   31SAPC   C13 4093   2.761   5.430   6.024  0.0585  0.3131  0.0085
   31SAPC  H13A 4094   2.669   5.470   6.064 -0.6456 -1.1144 -0.1204
   31SAPC  H13B 4095   2.832   5.509   6.003  0.4855  0.4853  1.8665
   31SAPC  H13C 4096   2.751   5.384   5.927 -1.6699  0.7983 -0.0631
   31SAPC   C14 4097   2.946   5.275   6.058  0.0496 -1.2815  0.0559
   31SAPC  H14A 4098   2.916   5.211   5.977  1.6469  1.2022 -2.6851
   31SAPC  H14B 4099   3.001   5.359   6.017 -0.6846 -0.7136  0.1965
   31SAPC  H14C 4100   3.014   5.231   6.130  1.3695 -0.2368 -0.4958
   31SAPC   C15 4101   2.724   5.231   6.152 -0.0490  0.5069  0.2437
   31SAPC  H15A 4102   2.640   5.279   6.200 -0.4849  0.3216 -0.3180
   31SAPC  H15B 4103   2.679   5.193   6.062 -1.9171  1.7890  0.5903
   31SAPC  H15C 4104   2.767   5.159   6.220  1.7406  2.9512  1.8766
   31SAPC   C11 4105   2.947   5.323   6.360 -0.1021 -0.0813  0.1884
   31SAPC  H11A 4106   2.861   5.253   6.372 -1.0180  0.4750 -2.4985
   31SAPC  H11B 4107   2.965   5.379   6.454  0.1469 -1.4761  1.0002
   31SAPC     P 4108   3.200   5.323   6.312  0.0324  0.1530 -0.5075
   31SAPC   O13 4109   3.311   5.224   6.308  0.3383 -0.1433  0.0412
   31SAPC   O14 4110   3.182   5.419   6.195  0.3270  0.4630 -0.0285
   31SAPC   O12 4111   3.060   5.244   6.323  0.3176  0.1615  0.1261
   31SAPC   O11 4112   3.217   5.415   6.445 -0.4589 -0.0760  1.0335
   31SAPC    C1 4113   3.333   5.505   6.449  0.3204  0.0448  1.2605
   31SAPC    HA 4114   3.425   5.443   6.443 -0.5567 -1.1542 -0.6253
   31SAPC    HB 4115   3.344   5.573   6.362  1.9369 -2.3247 -0.4976
   31SAPC    C2 4116   3.314   5.587   6.575  0.2496 -0.3347 -0.3950
   31SAPC    HS 4117   3.399   5.656   6.593  0.1819 -0.8425  2.1723
   31SAPC   O21 4118   3.287   5.516   6.697  0.2988  0.6565 -0.3880
   31SAPC   C21 4119   3.396   5.455   6.738 -0.1614  0.2336  0.1412
   31SAPC   O22 4120   3.510   5.472   6.697  0.4234  0.0838  0.0228
   31SAPC   C22 4121   3.379   5.380   6.868 -0.2136 -0.8159 -0.3643
   31SAPC   H2R 4122   3.268   5.383   6.873 -0.2267  0.5385 -1.0568
   31SAPC   H2S 4123   3.424   5.278   6.865  0.4629 -0.5112 -2.0545
   31SAPC    C3 4124   3.194   5.685   6.551  0.2329 -0.1393 -0.0210
   31SAPC    HX 4125   3.106   5.620   6.534 -0.6468  0.4336  1.9783
   31SAPC    HY 4126   3.222   5.747   6.463  0.9652 -1.2443 -0.5995
   31SAPC   O31 4127   3.189   5.760   6.678 -0.2631  0.8106  0.0447
   31SAPC   C31 4128   3.087   5.851   6.666  0.2391  0.0578 -0.8151
   31SAPC   O32 4129   3.004   5.848   6.578 -0.0945 -0.6571 -0.5382
   31SAPC   C32 4130   3.086   5.930   6.797 -0.1941  0.0046  0.7581
   31SAPC   H2X 4131   3.192   5.960   6.814 -0.0623 -0.3134  0.5003
   31SAPC   H2Y 4132   3.052   5.868   6.883  3.3274  2.2590  4.1273
   31SAPC   C23 4133   3.446   5.464   6.980 -0.3743  0.2044 -0.0444
   31SAPC   H3R 4134   3.411   5.568   6.963 -0.7436  0.4784  2.0861
   31SAPC   H3S 4135   3.553   5.454   6.952 -0.3236  0.4571  0.0540
   31SAPC   C24 4136   3.405   5.420   7.116 -0.1411 -0.6676 -0.1959
   31SAPC   H4R 4137   3.294   5.417   7.129 -0.3323  2.5165 -0.2336
   31SAPC   H4S 4138   3.440   5.495   7.191 -2.6638 -1.4491  1.9445
   31SAPC   C25 4139   3.449   5.283   7.157 -0.8627  0.4594 -0.1572
   31SAPC   H5R 4140   3.500   5.227   7.077  4.5112  3.8677  0.3569
   31SAPC   C26 4141   3.416   5.223   7.276 -0.2129  0.1676 -0.5965
   31SAPC   H6R 4142   3.452   5.120   7.292 -0.0734  0.1374 -1.0837
   31SAPC   C27 4143   3.336   5.293   7.376  0.2888 -0.0414 -0.5850
   31SAPC   H7R 4144   3.290   5.210   7.435 -0.4915 -0.0656 -1.2101
   31SAPC   H7S 4145   3.248   5.337   7.323 -1.2791 -2.1889  0.0823
   31SAPC   C28 4146   3.414   5.393   7.454 -0.6330  0.1227 -0.2025
   31SAPC   H8R 4147   3.511   5.421   7.411  1.0858 -2.5301  1.5668
   31SAPC   C29 4148   3.388   5.420   7.582  0.5005 -0.3617 -0.3767
   31SAPC   H9R 4149   3.460   5.486   7.632 -0.0671 -0.7055  0.9216
   31SAPC  C210 4150   3.276   5.379   7.675 -0.1820  0.0330 -0.4583
   31SAPC  H10R 4151   3.320   5.319   7.757  0.4637  1.9586  0.6613
   31SAPC  H10S 4152   3.200   5.316   7.624 -0.1986 -0.5503  0.2613
   31SAPC  C211 4153   3.214   5.500   7.729 -0.5312  0.4082 -0.0157
   31SAPC  H11R 4154   3.123   5.533   7.677 -0.2352 -0.4354 -1.1299
   31SAPC  C212 4155   3.249   5.568   7.843  0.3806 -0.0318  0.5672
   31SAPC  H12R 4156   3.188   5.658   7.860 -0.3430  0.0942 -2.2710
   31SAPC  C213 4157   3.358   5.526   7.936 -0.3566  0.0631 -0.4289
   31SAPC  H13R 4158   3.450   5.553   7.881 -1.9878  2.2141 -2.2758
   31SAPC  H13S 4159   3.360   5.416   7.954  0.0877  0.2396  0.7266
   31SAPC  C214 4160   3.351   5.606   8.060 -0.5670  0.6720 -0.3137
   31SAPC  H14R 4161   3.329   5.710   8.032 -1.1439  0.1973 -1.7073
   31SAPC  C215 4162   3.354   5.565   8.192 -0.1475 -0.6632  0.4296
   31SAPC  H15R 4163   3.356   5.644   8.268  1.6646  1.2527 -1.4769
   31SAPC  C216 4164   3.364   5.418   8.238 -0.2696  0.0321  0.1491
   31SAPC  H16R 4165   3.447   5.408   8.312 -2.7302 -0.1994  3.0416
   31SAPC  H16S 4166   3.393   5.354   8.152 -1.5500  0.2411 -0.4525
   31SAPC  C217 4167   3.235   5.353   8.285 -0.4860 -0.1857 -0.0063
   31SAPC  H17R 4168   3.251   5.243   8.286 -2.4412 -0.4970  0.5920
   31SAPC  H17S 4169   3.164   5.385   8.206 -0.8409 -1.7899 -0.3673
   31SAPC  C218 4170   3.178   5.397   8.415 -0.1315  0.2601 -0.3585
   31SAPC  H18R 4171   3.069   5.378   8.423 -0.3382  1.9644  2.1051
   31SAPC  H18S 4172   3.186   5.507   8.429 -0.1910  0.3472 -0.9733
   31SAPC  C219 4173   3.254   5.333   8.531  0.3538  0.3383  0.3334
   31SAPC  H19R 4174   3.359   5.369   8.523 -0.1287  1.9362  0.9394
   31SAPC  H19S 4175   3.245   5.223   8.518  0.3775  0.4887 -1.0402
   31SAPC  C220 4176   3.207   5.370   8.672  0.5259 -0.5716  0.4854
   31SAPC  H20R 4177   3.287   5.364   8.749  0.8406  3.1449  0.6030
   31SAPC  H20S 4178   3.122   5.302   8.698 -1.6429  0.9311 -2.2101
   31SAPC  H20T 4179   3.161   5.471   8.664  0.6052 -0.6446 -1.1834
   31SAPC   C33 4180   3.011   6.064   6.800  0.8126 -0.4821  0.1878
   31SAPC   H3X 4181   2.905   6.059   6.769  0.5142  1.3718  0.7387
   31SAPC   H3Y 4182   3.036   6.136   6.718 -1.3457 -0.0688 -0.1595
   31SAPC   C34 4183   3.025   6.137   6.941 -0.0913 -0.0955  0.9249
   31SAPC   H4X 4184   2.970   6.228   6.907  2.3837  0.4209 -2.2102
   31SAPC   H4Y 4185   3.132   6.151   6.967 -0.6499  0.5032  3.0111
   31SAPC   C35 4186   2.962   6.076   7.066  0.3714 -0.5348  0.1343
   31SAPC   H5X 4187   3.010   5.977   7.081  1.6313  0.1066  0.5260
   31SAPC   H5Y 4188   2.855   6.059   7.042 -0.0286 -1.4572  2.3161
   31SAPC   C36 4189   2.964   6.173   7.193  0.6430 -0.7522 -0.3378
   31SAPC   H6X 4190   2.915   6.271   7.173 -0.7318 -1.1722  0.7827
   31SAPC   H6Y 4191   3.071   6.203   7.189  0.1103  1.2375 -4.0456
   31SAPC   C37 4192   2.940   6.120   7.330 -0.0782 -0.3158  0.1792
   31SAPC   H7X 4193   2.995   6.024   7.339  0.4537 -0.1194 -0.7927
   31SAPC   H7Y 4194   2.832   6.095   7.343 -0.0671  0.4832  1.9923
   31SAPC   C38 4195   2.968   6.216   7.440 -0.1768 -0.0278 -0.8650
   31SAPC   H8X 4196   2.891   6.296   7.438 -0.6127 -0.4499 -1.7210
   31SAPC   H8Y 4197   3.068   6.264   7.442 -0.1905 -0.0008  0.1704
   31SAPC   C39 4198   2.944   6.149   7.572 -0.3894 -0.0299 -1.3848
   31SAPC   H9X 4199   3.007   6.059   7.586  0.8316  0.9963 -0.0144
   31SAPC   H9Y 4200   2.837   6.120   7.571 -0.2823 -0.4246 -2.1525
   31SAPC  C310 4201   2.968   6.246   7.687  0.7054 -0.1074  0.0960
   31SAPC  H10X 4202   2.907   6.337   7.666  1.3729 -0.0419 -1.7365
   31SAPC  H10Y 4203   3.073   6.282   7.684  1.4963 -2.3042 -0.4189
   31SAPC  C311 4204   2.918   6.198   7.826 -0.6424  0.1491  0.0486
   31SAPC  H11X 4205   2.955   6.101   7.863 -2.2424 -1.0060 -1.2308
   31SAPC  H11Y 4206   2.807   6.187   7.833 -0.4812 -0.4554  2.4961
   31SAPC  C312 4207   2.945   6.311   7.928  0.4679 -0.2923 -0.1096
   31SAPC  H12X 4208   2.880   6.398   7.909  0.4645 -0.3054 -0.1569
   31SAPC  H12Y 4209   3.048   6.352   7.937 -0.5925  2.2472  1.4763
   31SAPC  C313 4210   2.907   6.255   8.068 -0.2799 -0.2100  0.2572
   31SAPC  H13X 4211   2.969   6.169   8.101  0.4358  0.7407  1.4876
   31SAPC  H13Y 4212   2.800   6.224   8.068 -0.1871 -0.6673 -1.9175
   31SAPC  C314 4213   2.940   6.365   8.169 -0.2445  0.1220  0.1127
   31SAPC  H14X 4214   2.902   6.462   8.129  3.5545  0.7911 -2.3354
   31SAPC  H14Y 4215   3.047   6.385   8.190 -0.7377  2.6413  0.5681
   31SAPC  C315 4216   2.885   6.330   8.306  0.4026  0.2689 -0.2958
   31SAPC  H15X 4217   2.953   6.367   8.386 -0.4533  1.4980 -0.1206
   31SAPC  H15Y 4218   2.894   6.219   8.313 -1.0450  0.1125 -0.6442
   31SAPC  C316 4219   2.740   6.366   8.343  0.2754 -0.1446 -0.5998
   31SAPC  H16X 4220   2.668   6.318   8.273  1.2904  0.0496 -1.8319
   31SAPC  H16Y 4221   2.723   6.471   8.309  2.1349 -0.0650 -1.4051
   31SAPC  C317 4222   2.698   6.338   8.493 -1.2057 -1.1404  0.1901
   31SAPC  H17X 4223   2.611   6.400   8.523 -0.2818 -0.3819  1.3951
   31SAPC  H17Y 4224   2.776   6.394   8.548 -1.2260 -0.2188 -0.6751
   31SAPC  C318 4225   2.706   6.196   8.547 -0.3287  0.1885  0.2867
   31SAPC  H18X 4226   2.617   6.136   8.518  0.2170  0.4685 -2.1928
   31SAPC  H18Y 4227   2.703   6.203   8.657 -2.6719 -2.5095  0.5239
   31SAPC  H18Z 4228   2.791   6.140   8.504 -1.9134 -0.7852 -1.7822
   32SAPC     N 4229   4.689   0.163   6.209  0.1624  0.3455  0.3530
   32SAPC   C12 4230   4.769   0.167   6.082 -0.1237  0.1708  0.5770
   32SAPC  H12A 4231   4.770   0.269   6.047 -1.6713  0.7571  2.0821
   32SAPC  H12B 4232   4.710   0.116   6.008  1.0720  1.5120 -1.3800
   32SAPC   C13 4233   4.694   0.022   6.260 -0.5129 -0.1849  0.2196
   32SAPC  H13A 4234   4.794  -0.008   6.285  0.2041  1.1623 -0.8818
   32SAPC  H13B 4235   4.626   0.026   6.344 -0.5564  1.6716  0.1526
   32SAPC  H13C 4236   4.660  -0.041   6.180  1.9475 -3.6605  1.6746
   32SAPC   C14 4237   4.762   0.246   6.311  0.3469  0.2696  0.1731
   32SAPC  H14A 4238   4.708   0.252   6.404  0.1414  0.7529  0.0262
   32SAPC  H14B 4239   4.865   0.221   6.331  0.1501 -0.4980  0.2577
   32SAPC  H14C 4240   4.762   0.348   6.275  0.5054  0.2720  0.1780
   32SAPC   C15 4241   4.542   0.198   6.199  0.3605  0.9174  0.1962
   32SAPC  H15A 4242   4.492   0.168   6.108 -0.1280 -0.9937  1.0546
   32SAPC  H15B 4243   4.489   0.166   6.287 -1.1332 -0.0803 -1.0284
   32SAPC  H15C 4244   4.531   0.306   6.204  3.6184  1.3635  0.1839
   32SAPC   C11 4245   4.915   0.121   6.088  0.3615  0.0939 -0.8485
   32SAPC  H11A 4246   4.947   0.108   5.982 -0.7744  0.2957 -1.2262
   32SAPC  H11B 4247   4.924   0.012   6.111  0.7427 -0.8023 -4.5751
   32SAPC     P 4248   5.044   0.335   6.109  0.2364 -0.1092 -0.4741
   32SAPC   O13 4249   5.137   0.305   6.001 -0.0856  0.3371  0.4456
   32SAPC   O14 4250   4.931   0.414   6.065  0.5346 -0.6078 -0.2381
   32SAPC   O12 4251   4.996   0.199   6.173 -0.1439  0.1584 -0.3265
   32SAPC   O11 4252   5.116   0.398   6.233  0.3963  0.0676  0.6260
   32SAPC    C1 4253   5.252   0.355   6.261  0.1870  0.1867 -0.4793
   32SAPC    HA 4254   5.302   0.316   6.170  0.6678  1.2996 -0.7128
   32SAPC    HB 4255   5.310   0.445   6.292 -1.3413 -0.0133  3.6563
   32SAPC    C2 4256   5.250   0.256   6.382  0.0869  0.2912  0.5717
   32SAPC    HS 4257   5.205   0.164   6.339 -0.2196 -0.6507  2.7692
   32SAPC   O21 4258   5.164   0.305   6.493 -0.5532 -0.3818  0.2107
   32SAPC   C21 4259   5.066   0.225   6.527  0.5570  0.4019 -0.3350
   32SAPC   O22 4260   5.049   0.110   6.489  0.3568  0.0262 -0.7598
   32SAPC   C22 4261   4.979   0.290   6.634 -0.3476 -0.5968 -0.1308
   32SAPC   H2R 4262   5.048   0.316   6.717  1.2606  1.5718 -2.0039
   32SAPC   H2S 4263   4.947   0.386   6.587 -0.0942 -1.0620 -1.2857
   32SAPC    C3 4264   5.393   0.227   6.442  0.4807 -0.3234  0.0922
   32SAPC    HX 4265   5.440   0.323   6.475  2.4843 -1.1159 -0.2673
   32SAPC    HY 4266   5.461   0.199   6.358  0.5149 -0.1687  0.0673
   32SAPC   O31 4267   5.396   0.138   6.549  0.5243  0.1640 -0.3242
   32SAPC   C31 4268   5.345   0.021   6.537 -0.0693  0.0237 -0.6536
   32SAPC   O32 4269   5.303  -0.035   6.435 -0.2855 -0.5327  0.4673
   32SAPC   C32 4270   5.320  -0.043   6.677  0.3476  0.3983  0.2866
   32SAPC   H2X 4271   5.407  -0.108   6.697  0.4455  0.3527 -0.2896
   32SAPC   H2Y 4272   5.233  -0.111   6.666  0.7897 -0.1018 -0.1161
   32SAPC   C23 4273   4.862   0.200   6.678  0.0579 -0.1960 -0.1073
   32SAPC   H3R 4274   4.798   0.171   6.592 -0.2806 -0.0669  0.0967
   32SAPC   H3S 4275   4.810   0.261   6.755 -1.2099  0.2617 -1.2789
   32SAPC   C24 4276   4.901   0.077   6.758  0.2219 -0.5117 -0.7359
   32SAPC   H4R 4277   4.950   0.097   6.856 -0.7795  0.2786 -0.3800
   32SAPC   H4S 4278   4.963   0.007   6.698  1.7588 -2.4300  2.7973
   32SAPC   C25 4279   4.781  -0.007   6.786  0.3058  0.7128 -0.1100
   32SAPC   H5R 4280   4.737  -0.053   6.696 -0.4223  0.6780  0.2600
   32SAPC   C26 4281   4.721  -0.023   6.904 -0.5761 -0.3617  0.3668
   32SAPC   H6R 4282   4.637  -0.094   6.913 -0.0414 -0.9717  0.5594
   32SAPC   C27 4283   4.748   0.034   7.044  0.1886  0.6478 -0.1584
   32SAPC   H7R 4284   4.650   0.030   7.096 -0.7438 -1.5987 -1.8852
   32SAPC   H7S 4285   4.798   0.133   7.045  0.4728  0.5087 -0.3238
   32SAPC   C28 4286   4.827  -0.076   7.117 -0.5146 -0.4225 -0.4383
   32SAPC   H8R 4287   4.928  -0.099   7.082  0.5447  0.3460  1.9071
   32SAPC   C29 4288   4.800  -0.125   7.237  0.2823 -0.4245  0.5636
   32SAPC   H9R 4289   4.869  -0.204   7.270  0.8088 -0.3065 -0.2315
   32SAPC  C210 4290   4.685  -0.083   7.332 -0.1422 -0.2665 -0.1900
   32SAPC  H10R 4291   4.595  -0.063   7.270  0.0999 -1.6212 -1.0291
   32SAPC  H10S 4292   4.717   0.012   7.380  3.4423 -1.4958  0.1653
   32SAPC  C211 4293   4.646  -0.176   7.444 -0.1661 -0.2608 -0.5339
   32SAPC  H11R 4294   4.652  -0.283   7.419  0.6047 -0.5630  0.7938
   32SAPC  C212 4295   4.606  -0.152   7.576 -0.4779  0.0025 -0.0720
   32SAPC  H12R 4296   4.594  -0.243   7.636  0.4294 -1.6622 -2.2512
   32SAPC  C213 4297   4.591  -0.016   7.646  0.9140  0.2616  0.3475
   32SAPC  H13R 4298   4.491  -0.005   7.693  0.2465 -0.2250 -0.9233
   32SAPC  H13S 4299   4.591   0.064   7.569  2.1596  1.3413  1.4062
   32SAPC  C214 4300   4.702  -0.000   7.746  0.0320  0.0648 -0.8326
   32SAPC  H14R 4301   4.802   0.023   7.706  0.1516 -0.2564 -0.7268
   32SAPC  C215 4302   4.702  -0.014   7.880  1.0966  0.8047  0.4585
   32SAPC  H15R 4303   4.800  -0.008   7.931  0.7491  1.4255  1.0721
   32SAPC  C216 4304   4.575  -0.047   7.965 -0.0311 -0.7288 -0.1787
   32SAPC  H16R 4305   4.555  -0.154   7.984 -1.2795 -0.2652  1.3796
   32SAPC  H16S 4306   4.480  -0.013   7.920 -0.1742 -0.2838  0.4444
   32SAPC  C217 4307   4.571   0.017   8.108  1.0053  0.5470 -0.6081
   32SAPC  H17R 4308   4.466   0.010   8.142  1.3394  0.0681  0.3716
   32SAPC  H17S 4309   4.586   0.127   8.098 -0.8482  0.9114  0.3249
   32SAPC  C218 4310   4.660  -0.052   8.203 -0.4444 -0.2734  0.4326
   32SAPC  H18R 4311   4.761  -0.029   8.161 -0.5718 -0.8436 -0.1945
   32SAPC  H18S 4312   4.655  -0.163   8.206  2.2391 -0.4646  0.8212
   32SAPC  C219 4313   4.646   0.001   8.345 -0.6816  0.2112  0.0726
   32SAPC  H19R 4314   4.696  -0.069   8.416  0.6370  1.7988  0.7593
   32SAPC  H19S 4315   4.538   0.015   8.368 -1.4638 -1.6581 -2.0806
   32SAPC  C220 4316   4.714   0.134   8.365  0.1297 -0.3345 -0.0673
   32SAPC  H20R 4317   4.706   0.191   8.270 -0.3118 -2.1537 -1.1708
   32SAPC  H20S 4318   4.816   0.125   8.407  0.1017  1.4062  0.4663
   32SAPC  H20T 4319   4.657   0.195   8.439 -0.7865  1.6835 -2.2951
   32SAPC   C33 4320   5.326   0.045   6.802  0.6416  0.2279  0.4647
   32SAPC   H3X 4321   5.270   0.141   6.795 -0.7714 -0.3342  3.0562
   32SAPC   H3Y 4322   5.432   0.070   6.826  0.8452  1.7140 -1.7048
   32SAPC   C34 4323   5.261  -0.034   6.910 -0.0336 -0.1709 -0.7610
   32SAPC   H4X 4324   5.316  -0.128   6.928 -2.2932 -1.1707  1.5460
   32SAPC   H4Y 4325   5.157  -0.062   6.881 -1.3718  2.7144  0.7977
   32SAPC   C35 4326   5.260   0.035   7.050  0.2228  0.0577  0.9938
   32SAPC   H5X 4327   5.369   0.044   7.070  0.2456 -1.6602  1.7721
   32SAPC   H5Y 4328   5.221  -0.027   7.134 -2.7970 -1.7001 -1.4855
   32SAPC   C36 4329   5.179   0.166   7.056 -0.0429 -0.4230 -0.0535
   32SAPC   H6X 4330   5.078   0.144   7.014  0.8092 -1.0930 -1.8410
   32SAPC   H6Y 4331   5.227   0.250   7.002 -1.0747 -0.2290 -0.7023
   32SAPC   C37 4332   5.158   0.212   7.199 -0.8059 -0.0337  1.1765
   32SAPC   H7X 4333   5.249   0.249   7.252  0.0046 -2.3060  1.4668
   32SAPC   H7Y 4334   5.115   0.131   7.261 -1.2882 -1.8475 -1.3707
   32SAPC   C38 4335   5.061   0.333   7.213  0.3740  0.4889  0.0999
   32SAPC   H8X 4336   4.983   0.318   7.136  0.0231  2.2626  0.0663
   32SAPC   H8Y 4337   5.115   0.424   7.180  0.8014  0.1247 -0.2207
   32SAPC   C39 4338   5.016   0.361   7.363 -0.1980  0.1553  0.1608
   32SAPC   H9X 4339   5.108   0.406   7.406 -0.2301  1.7688 -1.3525
   32SAPC   H9Y 4340   4.989   0.266   7.415 -3.0964  1.3963  1.1099
   32SAPC  C310 4341   4.900   0.456   7.369 -0.7661  0.5998 -0.2497
   32SAPC  H10X 4342   4.816   0.411   7.311 -0.3561 -0.6645  0.1122
   32SAPC  H10Y 4343   4.924   0.556   7.327 -0.0409  0.8447  0.7342
   32SAPC  C311 4344   4.836   0.479   7.509 -0.4653 -0.4077  0.4300
   32SAPC  H11X 4345   4.818   0.379   7.554  1.6541 -1.0052  0.0581
   32SAPC  H11Y 4346   4.735   0.525   7.502 -0.7944 -0.8963  1.6507
   32SAPC  C312 4347   4.926   0.566   7.597  0.4831 -0.1947  0.2454
   32SAPC  H12X 4348   4.931   0.666   7.550 -0.7915  0.0190  0.5242
   32SAPC  H12Y 4349   5.032   0.534   7.601  0.7919  0.3301 -2.4416
   32SAPC  C313 4350   4.874   0.559   7.747 -0.1162 -0.4237  0.2212
   32SAPC  H13X 4351   4.857   0.458   7.788  2.1730 -0.5476  1.0222
   32SAPC  H13Y 4352   4.773   0.606   7.747 -0.6538 -1.5378  0.8831
   32SAPC  C314 4353   4.967   0.627   7.847 -0.8219 -0.6240 -0.4197
   32SAPC  H14X 4354   4.973   0.729   7.804 -0.3546 -0.6787 -0.4819
   32SAPC  H14Y 4355   5.066   0.579   7.856 -1.1403 -1.3455 -0.6954
   32SAPC  C315 4356   4.906   0.637   7.992  0.0740 -0.3179  0.1380
   32SAPC  H15X 4357   4.910   0.537   8.041 -1.1459 -0.0285  0.8855
   32SAPC  H15Y 4358   4.795   0.645   7.985 -0.2642 -2.8226  1.5692
   32SAPC  C316 4359   4.965   0.751   8.070  0.1635  0.1571 -0.1014
   32SAPC  H16X 4360   4.956   0.845   8.011 -1.1042 -1.9129 -3.5065
   32SAPC  H16Y 4361   5.075   0.746   8.081  0.1235  0.3095  0.4172
   32SAPC  C317 4362   4.907   0.770   8.215 -0.1574 -0.5074  0.1217
   32SAPC  H17X 4363   4.925   0.685   8.285  2.5738 -0.1410 -0.0297
   32SAPC  H17Y 4364   4.797   0.786   8.210  0.0611  1.8290  1.3150
   32SAPC  C318 4365   4.972   0.897   8.273 -0.3764 -0.1520  0.5291
   32SAPC  H18X 4366   5.083   0.899   8.272 -0.3016 -2.2427 -0.9998
   32SAPC  H18Y 4367   4.934   0.918   8.375 -0.2526 -1.5027  0.8767
   32SAPC  H18Z 4368   4.931   0.994   8.237 -0.9008  0.7002  3.1818
   33POPC     N 4369   2.119   1.591  10.828  0.6614 -0.3052  0.3972
   33POPC   C12 4370   2.067   1.524  10.693 -0.2520 -0.2706 -0.4242
   33POPC  H12A 4371   2.013   1.596  10.633 -0.3125  0.3829  0.4024
   33POPC  H12B 4372   1.996   1.449  10.723 -0.6808 -0.0287 -0.8283
   33POPC   C13 4373   2.223   1.501  10.886 -0.3488 -0.3658 -0.9941
   33POPC  H13A 4374   2.276   1.538  10.972  0.4206 -2.2765 -0.5832
   33POPC  H13B 4375   2.177   1.405  10.906  0.8170 -0.4613  1.6658
   33POPC  H13C 4376   2.302   1.486  10.813 -0.9710  2.2744 -2.3055
   33POPC   C14 4377   2.183   1.719  10.786 -0.1058  0.1610  1.3145
   33POPC  H14A 4378   2.227   1.765  10.873 -1.3134  2.4428  0.7849
   33POPC  H14B 4379   2.263   1.694  10.718 -1.0531 -1.6729  0.7858
   33POPC  H14C 4380   2.113   1.786  10.739 -0.2695 -1.0904 -0.3302
   33POPC   C15 4381   2.008   1.613  10.920  0.4245 -0.0135  0.7347
   33POPC  H15A 4382   1.958   1.518  10.935  1.2965 -0.4992  0.5913
   33POPC  H15B 4383   1.939   1.686  10.881  1.5311  1.9585  2.2892
   33POPC  H15C 4384   2.043   1.655  11.013 -0.1316  0.9187  0.5309
   33POPC   C11 4385   2.171   1.458  10.603 -0.0968  0.1585 -0.0795
   33POPC  H11A 4386   2.130   1.434  10.503  1.4614  1.1470 -1.0201
   33POPC  H11B 4387   2.193   1.360  10.650  4.4245  1.2324  0.5475
   33POPC     P 4388   2.391   1.530  10.463  0.3535 -0.2714 -0.0942
   33POPC   O13 4389   2.455   1.399  10.457  0.1175  0.8146  0.2563
   33POPC   O14 4390   2.492   1.635  10.459  0.0853 -0.5065 -0.5830
   33POPC   O12 4391   2.287   1.540  10.578 -0.1158 -0.3570 -0.1798
   33POPC   O11 4392   2.301   1.544  10.332  0.3379  0.1024 -0.0103
   33POPC    C1 4393   2.225   1.658  10.310 -0.3409  0.0711 -0.2843
   33POPC    HA 4394   2.150   1.694  10.384 -0.3192  1.0027 -0.7062
   33POPC    HB 4395   2.304   1.737  10.307 -1.3836  1.2272  1.1049
   33POPC    C2 4396   2.152   1.657  10.172  0.3007 -0.7869  0.7099
   33POPC    HS 4397   2.118   1.760  10.148  2.6428  0.0642  0.8173
   33POPC   O21 4398   2.038   1.572  10.174  0.2562  0.7735 -0.5729
   33POPC   C21 4399   1.935   1.592  10.253 -0.3364  0.6122  0.5596
   33POPC   O22 4400   1.923   1.680  10.338 -0.0498 -1.3967 -0.4979
   33POPC   C22 4401   1.817   1.496  10.217  0.6099 -0.1546 -0.2195
   33POPC   H2R 4402   1.768   1.466  10.312 -1.2960 -0.1162 -1.1495
   33POPC   H2S 4403   1.850   1.401  10.169  0.1593  0.1230 -1.1098
   33POPC    C3 4404   2.234   1.617  10.050  0.7055 -0.0431  0.3719
   33POPC    HX 4405   2.298   1.528  10.071  1.2498  0.8609  2.9574
   33POPC    HY 4406   2.305   1.703  10.048 -0.6228  1.1206 -2.3284
   33POPC   O31 4407   2.155   1.626   9.929 -0.2991 -0.4249  0.2177
   33POPC   C31 4408   2.100   1.505   9.890 -0.8409  0.2279  0.5495
   33POPC   O32 4409   2.114   1.399   9.948  0.1292  0.0090 -0.4464
   33POPC   C32 4410   2.015   1.521   9.762  0.7971 -1.3769  0.8554
   33POPC   H2X 4411   1.958   1.616   9.770  1.9487 -0.4655 -1.0504
   33POPC   H2Y 4412   1.941   1.438   9.763  0.5270 -1.2978 -2.4363
   33POPC   C23 4413   1.709   1.565  10.138 -0.6832  0.1194  0.1917
   33POPC   H3R 4414   1.683   1.665  10.177 -1.5751  0.0173 -0.1029
   33POPC   H3S 4415   1.617   1.505  10.154  0.9053 -2.3347  0.6828
   33POPC   C24 4416   1.740   1.571   9.987  0.1409 -0.5724  0.0590
   33POPC   H4R 4417   1.718   1.474   9.937 -0.1155 -0.9940  0.9569
   33POPC   H4S 4418   1.846   1.598   9.971 -0.0956 -0.1429 -0.8454
   33POPC   C25 4419   1.662   1.687   9.929 -0.0749 -0.4078 -0.0503
   33POPC   H5R 4420   1.694   1.781   9.980  1.1142 -0.2358 -1.0633
   33POPC   H5S 4421   1.553   1.668   9.939 -0.0547  0.1429  1.5191
   33POPC   C26 4422   1.695   1.708   9.780 -0.4622 -0.5140 -0.1740
   33POPC   H6R 4423   1.709   1.611   9.727  1.8385 -0.1662 -0.3079
   33POPC   H6S 4424   1.796   1.755   9.779  0.3976 -2.2154  1.1325
   33POPC   C27 4425   1.587   1.799   9.712  0.3218  0.8430 -0.1036
   33POPC   H7R 4426   1.575   1.883   9.783 -3.0857  1.7599 -1.5416
   33POPC   H7S 4427   1.491   1.742   9.717  0.0018  1.2707 -1.1862
   33POPC   C28 4428   1.629   1.841   9.568  0.5439 -0.0674  0.3672
   33POPC   H8R 4429   1.727   1.893   9.569  0.2000  0.6880 -1.1392
   33POPC   H8S 4430   1.554   1.916   9.533  0.3498 -0.5058 -0.1728
   33POPC   C29 4431   1.643   1.724   9.470 -0.3283 -0.5244  0.1077
   33POPC   H91 4432   1.684   1.633   9.517  0.8362  0.5505  1.2417
   33POPC  C210 4433   1.615   1.729   9.338  0.5989  0.6901 -0.8068
   33POPC  H101 4434   1.618   1.634   9.283  0.0721  0.2327 -0.0589
   33POPC  C211 4435   1.552   1.841   9.256 -0.0199 -0.0604 -0.0672
   33POPC  H11R 4436   1.578   1.944   9.289 -0.4722  0.2769 -0.7271
   33POPC  H11S 4437   1.441   1.830   9.256 -0.0173 -0.0833  0.1683
   33POPC  C212 4438   1.600   1.848   9.111  0.4864 -0.4076  0.7802
   33POPC  H12R 4439   1.587   1.757   9.050  2.1447  0.9607 -1.7672
   33POPC  H12S 4440   1.706   1.880   9.121  0.7226 -0.8579 -0.2502
   33POPC  C213 4441   1.521   1.955   9.039 -0.1378  0.5221  1.6420
   33POPC  H13R 4442   1.525   2.053   9.090 -0.5884  0.6909  1.3615
   33POPC  H13S 4443   1.413   1.928   9.039 -0.3638  1.3700  2.5525
   33POPC  C214 4444   1.580   1.968   8.891  0.2929  0.0253  0.5988
   33POPC  H14R 4445   1.578   1.869   8.840 -0.2460  0.3750 -0.0709
   33POPC  H14S 4446   1.683   2.007   8.903  0.0593  0.4585  1.2839
   33POPC  C215 4447   1.494   2.066   8.809 -0.1497  0.1244  0.5924
   33POPC  H15R 4448   1.508   2.162   8.863  1.4081  0.9609 -1.1519
   33POPC  H15S 4449   1.387   2.038   8.815 -0.3227 -0.2027 -2.4196
   33POPC  C216 4450   1.545   2.072   8.663  0.3689 -0.8590  0.2661
   33POPC  H16R 4451   1.655   2.081   8.650  0.1237  0.1164 -1.4262
   33POPC  H16S 4452   1.501   2.166   8.623 -1.2092 -2.3282 -1.6547
   33POPC  C217 4453   1.492   1.956   8.585  0.0878  0.2334  0.3910
   33POPC  H17R 4454   1.384   1.943   8.606 -0.6258 -2.0956 -3.6310
   33POPC  H17S 4455   1.527   1.853   8.607 -2.2804 -0.9587 -1.0088
   33POPC  C218 4456   1.509   1.987   8.436  0.0838  0.2004  0.1347
   33POPC  H18R 4457   1.512   1.894   8.375 -1.0291 -0.9532  1.7403
   33POPC  H18S 4458   1.603   2.041   8.412  0.7176 -1.6354 -1.9157
   33POPC  H18T 4459   1.419   2.051   8.421  0.6464  0.9753  0.0111
   33POPC   C33 4460   2.095   1.514   9.628 -0.1395 -0.3002 -0.0974
   33POPC   H3X 4461   2.137   1.413   9.614 -1.5685 -1.1713  1.4772
   33POPC   H3Y 4462   2.170   1.596   9.628  0.3880 -0.7828 -0.0078
   33POPC   C34 4463   1.995   1.538   9.509  0.0730  0.1704 -0.2685
   33POPC   H4X 4464   1.939   1.632   9.528  0.9482  0.9846 -1.5817
   33POPC   H4Y 4465   1.925   1.452   9.512  2.0514 -1.5353 -0.9049
   33POPC   C35 4466   2.055   1.542   9.369 -0.0232 -0.7286  0.7564
   33POPC   H5X 4467   2.108   1.450   9.338  0.7977  0.7593 -2.6572
   33POPC   H5Y 4468   2.126   1.626   9.363  0.0283 -0.8590 -0.7233
   33POPC   C36 4469   1.944   1.573   9.273 -0.7985 -0.2761 -0.4079
   33POPC   H6X 4470   1.922   1.682   9.285 -0.5269 -0.2332 -0.2904
   33POPC   H6Y 4471   1.856   1.511   9.299 -0.3098 -0.7620  0.0793
   33POPC   C37 4472   1.977   1.544   9.123 -0.0364 -0.1541 -0.3202
   33POPC   H7X 4473   1.992   1.435   9.104  1.2539 -0.2108  0.8931
   33POPC   H7Y 4474   2.074   1.594   9.104 -0.6964  1.0988 -0.5015
   33POPC   C38 4475   1.881   1.616   9.026 -0.2358 -0.5139 -0.6772
   33POPC   H8X 4476   1.874   1.724   9.051 -5.6168  0.0279 -3.1349
   33POPC   H8Y 4477   1.776   1.581   9.035 -1.3082  2.2389 -1.2875
   33POPC   C39 4478   1.931   1.594   8.882 -0.4806  0.3096 -0.5137
   33POPC   H9X 4479   1.961   1.489   8.861 -1.7546  0.3404 -2.7610
   33POPC   H9Y 4480   2.020   1.659   8.863 -0.8352  0.8159 -0.4533
   33POPC  C310 4481   1.835   1.641   8.781 -0.2933  0.3423  1.1633
   33POPC  H10X 4482   1.805   1.747   8.795 -0.9785  0.2943  0.1540
   33POPC  H10Y 4483   1.742   1.581   8.778  2.0371 -3.5744 -1.3654
   33POPC  C311 4484   1.895   1.641   8.631  0.2705 -0.0642 -0.0271
   33POPC  H11X 4485   1.956   1.548   8.620 -0.2322 -0.4500  0.3646
   33POPC  H11Y 4486   1.974   1.717   8.615 -0.1200  0.5315  0.8371
   33POPC  C312 4487   1.786   1.653   8.526 -0.4661 -0.2285  0.1301
   33POPC  H12X 4488   1.742   1.753   8.546  1.0065 -0.2757  4.8576
   33POPC  H12Y 4489   1.716   1.571   8.551 -1.0389 -0.0965 -0.9874
   33POPC  C313 4490   1.829   1.645   8.375 -0.0505  0.5393 -0.1217
   33POPC  H13X 4491   1.811   1.540   8.344  0.0370 -0.4654  2.9220
   33POPC  H13Y 4492   1.934   1.680   8.373 -0.3445  1.4635 -1.9916
   33POPC  C314 4493   1.755   1.757   8.299  0.0235  0.2744 -0.2579
   33POPC  H14X 4494   1.763   1.854   8.353 -1.3371 -1.0266  2.5318
   33POPC  H14Y 4495   1.646   1.736   8.284  0.2439 -1.2556  0.0833
   33POPC  C315 4496   1.822   1.779   8.158  0.3260 -0.6494  0.4823
   33POPC  H15X 4497   1.743   1.806   8.085  2.9685  1.2997 -1.8983
   33POPC  H15Y 4498   1.877   1.684   8.138  0.7051 -0.9364  2.6424
   33POPC  C316 4499   1.924   1.901   8.155 -0.2481  0.1681  0.2903
   33POPC  H16X 4500   1.992   1.886   8.242  1.9188  1.2251 -1.1528
   33POPC  H16Y 4501   1.875   1.998   8.178  0.2092  0.8782 -1.5951
   33POPC  H16Z 4502   1.972   1.908   8.055 -0.8064  0.5404  0.0452
   34POPC     N 4503   0.108   2.923  10.859  0.2217  0.5715  0.2931
   34POPC   C12 4504  -0.010   3.016  10.852  0.0137 -0.1247  0.1066
   34POPC  H12A 4505  -0.085   2.988  10.923 -1.7456 -2.4576 -2.4744
   34POPC  H12B 4506  -0.050   3.005  10.752 -1.5901  1.7869  0.4777
   34POPC   C13 4507   0.208   2.976  10.763  0.3189  0.9582 -0.7048
   34POPC  H13A 4508   0.281   2.901  10.735 -0.0318  0.5625 -0.5711
   34POPC  H13B 4509   0.154   2.988  10.670 -0.1393 -1.2200 -0.7628
   34POPC  H13C 4510   0.250   3.070  10.796  2.7867 -0.3341  0.0991
   34POPC   C14 4511   0.164   2.910  10.996  0.4222 -0.1470 -0.0724
   34POPC  H14A 4512   0.090   2.880  11.068  0.7462 -0.6885  0.0405
   34POPC  H14B 4513   0.238   2.831  10.991  1.4753  0.8841 -2.5528
   34POPC  H14C 4514   0.215   3.000  11.025  0.9121  0.1508 -1.7526
   34POPC   C15 4515   0.050   2.793  10.816 -0.3950 -0.0288  0.1649
   34POPC  H15A 4516   0.012   2.795  10.715  0.9973  1.0045 -0.3600
   34POPC  H15B 4517  -0.035   2.767  10.878  0.8953  0.1397  2.1040
   34POPC  H15C 4518   0.116   2.709  10.826 -1.2313 -0.7723 -0.3783
   34POPC   C11 4519   0.015   3.170  10.866 -0.5957 -0.0386  0.2498
   34POPC  H11A 4520   0.070   3.204  10.957  0.7062 -0.1882 -0.4522
   34POPC  H11B 4521  -0.087   3.210  10.881 -1.6193 -2.3162 -0.2310
   34POPC     P 4522   0.012   3.326  10.657  0.1025  0.1372  0.0739
   34POPC   O13 4523  -0.014   3.444  10.736 -0.7268 -0.1961 -0.4626
   34POPC   O14 4524  -0.106   3.260  10.599  0.1203 -0.2819  0.2573
   34POPC   O12 4525   0.080   3.221  10.742  0.0279  0.7277 -0.4940
   34POPC   O11 4526   0.111   3.367  10.540  0.0966  0.3651  0.3937
   34POPC    C1 4527   0.147   3.271  10.438 -0.2913 -0.5469 -0.2424
   34POPC    HA 4528   0.115   3.168  10.463 -0.7795 -0.2835  0.2350
   34POPC    HB 4529   0.258   3.281  10.432 -0.1444  0.1037  2.2745
   34POPC    C2 4530   0.088   3.306  10.293  0.5695 -0.1836  0.2054
   34POPC    HS 4531  -0.019   3.279  10.305  0.3428  0.5931 -0.0388
   34POPC   O21 4532   0.163   3.231  10.189  0.8281  0.0513 -0.2888
   34POPC   C21 4533   0.126   3.102  10.178  0.0217  0.2696  0.2425
   34POPC   O22 4534   0.033   3.056  10.238 -0.4946  0.2160  1.2003
   34POPC   C22 4535   0.211   3.028  10.074  0.9103  0.1494  0.0134
   34POPC   H2R 4536   0.314   3.020  10.114  1.3101 -1.2640 -1.2025
   34POPC   H2S 4537   0.225   3.100   9.991 -0.3370 -0.1158 -0.4569
   34POPC    C3 4538   0.113   3.454  10.272  0.3243 -0.3160  0.2709
   34POPC    HX 4539   0.216   3.480  10.305  0.1511 -0.8590  1.2499
   34POPC    HY 4540   0.042   3.507  10.339  0.9026  1.1321 -0.1996
   34POPC   O31 4541   0.080   3.483  10.134 -0.2768 -0.3273 -0.2088
   34POPC   C31 4542   0.182   3.525  10.058 -0.5567 -0.6145  0.5708
   34POPC   O32 4543   0.297   3.541  10.094  0.3625  0.2657 -0.0922
   34POPC   C32 4544   0.145   3.532   9.915 -0.1296  0.2280  0.0378
   34POPC   H2X 4545   0.038   3.509   9.894  0.1166 -0.1015 -0.9078
   34POPC   H2Y 4546   0.203   3.457   9.857 -2.2903 -0.8620 -0.8507
   34POPC   C23 4547   0.151   2.887  10.046  0.6246  0.0099 -0.3125
   34POPC   H3R 4548   0.042   2.903  10.030  0.8683  1.6072 -0.4647
   34POPC   H3S 4549   0.159   2.827  10.139 -1.3919  0.4483  0.2054
   34POPC   C24 4550   0.218   2.828   9.919 -0.7808  0.6429  0.1964
   34POPC   H4R 4551   0.195   2.720   9.921  0.5508  0.3348  0.3038
   34POPC   H4S 4552   0.327   2.834   9.942 -0.3689 -1.4528 -0.9979
   34POPC   C25 4553   0.196   2.891   9.780 -0.3064 -0.3500 -0.2726
   34POPC   H5R 4554   0.212   3.000   9.790  1.1571 -0.6673  1.2628
   34POPC   H5S 4555   0.093   2.870   9.743  0.0848 -1.5903 -0.7054
   34POPC   C26 4556   0.296   2.841   9.676  0.1718  0.5722  0.0460
   34POPC   H6R 4557   0.300   2.730   9.679 -1.4230  0.4819 -0.0317
   34POPC   H6S 4558   0.396   2.881   9.702  1.5890 -1.7483 -1.4575
   34POPC   C27 4559   0.258   2.884   9.537 -0.2418  0.0450  0.1626
   34POPC   H7R 4560   0.274   2.989   9.507  0.2744 -0.7959 -2.8072
   34POPC   H7S 4561   0.149   2.876   9.514 -0.4478 -2.4916  1.5909
   34POPC   C28 4562   0.329   2.797   9.430  0.0748 -0.4309 -0.3781
   34POPC   H8R 4563   0.436   2.797   9.459  0.0636 -0.0683 -0.3278
   34POPC   H8S 4564   0.341   2.845   9.330  1.0605 -1.5761 -0.8361
   34POPC   C29 4565   0.260   2.665   9.404  0.2992 -0.0487 -0.2506
   34POPC   H91 4566   0.292   2.580   9.465  0.1486  0.7075  0.9113
   34POPC  C210 4567   0.158   2.648   9.318 -0.6091  0.3763  0.1413
   34POPC  H101 4568   0.101   2.555   9.330  1.1558 -0.6859  0.6781
   34POPC  C211 4569   0.094   2.749   9.227 -0.6389  0.1292  0.0824
   34POPC  H11R 4570   0.099   2.852   9.267 -0.3694 -0.5184  1.8135
   34POPC  H11S 4571  -0.012   2.717   9.216 -1.4402  2.9189 -1.0396
   34POPC  C212 4572   0.143   2.747   9.075 -0.0161 -0.3224  0.2579
   34POPC  H12R 4573   0.249   2.780   9.080 -0.3185  0.5853  1.0647
   34POPC  H12S 4574   0.084   2.827   9.025 -0.1655 -0.8623 -0.4348
   34POPC  C213 4575   0.132   2.603   9.019 -0.5611  0.6383  0.4693
   34POPC  H13R 4576   0.023   2.581   9.015 -0.2875 -0.8693  0.5320
   34POPC  H13S 4577   0.179   2.525   9.083  1.5166 -0.0021 -1.6925
   34POPC  C214 4578   0.197   2.597   8.880  0.3121 -0.3566  0.2635
   34POPC  H14R 4579   0.152   2.663   8.803  2.0167 -1.1993 -1.5250
   34POPC  H14S 4580   0.182   2.495   8.840  0.1127 -0.5353  0.7810
   34POPC  C215 4581   0.342   2.640   8.873  0.5518  0.4619 -0.7373
   34POPC  H15R 4582   0.392   2.570   8.944  1.9593  0.1834 -1.9588
   34POPC  H15S 4583   0.361   2.745   8.905 -1.7500  0.8519 -0.5270
   34POPC  C216 4584   0.410   2.599   8.747 -0.3242  1.0616 -0.5315
   34POPC  H16R 4585   0.366   2.665   8.669 -4.9589 -0.1592  0.7417
   34POPC  H16S 4586   0.366   2.501   8.719  1.4004  0.0531  0.1150
   34POPC  C217 4587   0.561   2.594   8.745 -0.2151 -0.8182 -0.9930
   34POPC  H17R 4588   0.599   2.529   8.827 -1.6058  1.1423  1.3157
   34POPC  H17S 4589   0.611   2.687   8.780 -1.3751 -1.0975  1.6120
   34POPC  C218 4590   0.621   2.558   8.608  0.0959 -0.2815  0.7485
   34POPC  H18R 4591   0.728   2.590   8.609  0.0886 -0.0616 -1.4878
   34POPC  H18S 4592   0.561   2.623   8.541 -0.6478  1.8458  3.2934
   34POPC  H18T 4593   0.607   2.450   8.583  1.2989 -0.2844  0.0041
   34POPC   C33 4594   0.162   3.675   9.856 -0.0780 -0.2917  0.5809
   34POPC   H3X 4595   0.258   3.726   9.879  0.5983 -0.2540 -1.9494
   34POPC   H3Y 4596   0.084   3.739   9.902 -0.3924  0.3582 -0.7904
   34POPC   C34 4597   0.121   3.677   9.707 -0.9197  0.3871  1.1156
   34POPC   H4X 4598   0.108   3.782   9.672  1.4133 -0.3124 -2.4713
   34POPC   H4Y 4599   0.025   3.624   9.691 -0.8151 -0.0863  2.0391
   34POPC   C35 4600   0.220   3.608   9.605  0.4137  1.0503 -0.8057
   34POPC   H5X 4601   0.178   3.608   9.502 -2.4468  1.4872  0.2642
   34POPC   H5Y 4602   0.236   3.508   9.651 -0.9162  0.5883 -1.2806
   34POPC   C36 4603   0.361   3.674   9.607  0.2146 -0.2061  0.0493
   34POPC   H6X 4604   0.441   3.598   9.592  0.3868 -0.0731  0.2970
   34POPC   H6Y 4605   0.391   3.712   9.707  2.9722 -2.4064  0.1738
   34POPC   C37 4606   0.383   3.788   9.505 -0.2832  0.4169  0.2486
   34POPC   H7X 4607   0.482   3.835   9.520  0.3643 -1.1524  1.1497
   34POPC   H7Y 4608   0.307   3.869   9.511  0.3351  1.0219  0.0652
   34POPC   C38 4609   0.394   3.734   9.357  0.5153  0.5763 -1.2391
   34POPC   H8X 4610   0.292   3.697   9.334 -0.6345 -0.1876  3.8632
   34POPC   H8Y 4611   0.454   3.641   9.355 -0.4925 -0.0841 -1.0854
   34POPC   C39 4612   0.449   3.829   9.258  0.1746 -0.0248 -0.3241
   34POPC   H9X 4613   0.542   3.869   9.304 -0.2194  1.5102 -0.8384
   34POPC   H9Y 4614   0.386   3.918   9.239 -2.4820 -1.1821  2.3091
   34POPC  C310 4615   0.497   3.762   9.128  0.4457 -0.1667  0.3489
   34POPC  H10X 4616   0.538   3.661   9.149 -1.9150 -1.2575  0.0346
   34POPC  H10Y 4617   0.584   3.814   9.083  0.8106 -0.9372  0.1497
   34POPC  C311 4618   0.379   3.743   9.029  0.4492  0.5459  0.6766
   34POPC  H11X 4619   0.353   3.845   8.994  0.3845  0.0200 -0.9193
   34POPC  H11Y 4620   0.292   3.707   9.088 -0.3273  2.4034  0.7339
   34POPC  C312 4621   0.424   3.658   8.909  0.0719 -0.0006 -0.4604
   34POPC  H12X 4622   0.459   3.559   8.944  1.6359  1.1038  1.3715
   34POPC  H12Y 4623   0.501   3.703   8.843  0.8281 -0.0796  0.3488
   34POPC  C313 4624   0.297   3.619   8.830 -0.2359 -0.3467  0.1081
   34POPC  H13X 4625   0.257   3.700   8.765 -1.1701  0.2621  1.4001
   34POPC  H13Y 4626   0.227   3.593   8.911 -0.4168  0.1783  0.1284
   34POPC  C314 4627   0.328   3.517   8.717 -0.1840 -0.7079  0.5293
   34POPC  H14X 4628   0.415   3.452   8.742 -1.0237 -2.4552 -0.9129
   34POPC  H14Y 4629   0.344   3.578   8.626  1.2168  1.9264  2.3674
   34POPC  C315 4630   0.209   3.423   8.694  0.0324 -0.7301  0.2655
   34POPC  H15X 4631   0.155   3.402   8.789 -3.9319  1.1412 -1.3145
   34POPC  H15Y 4632   0.254   3.334   8.646 -0.3362  0.0599 -1.6196
   34POPC  C316 4633   0.096   3.484   8.606 -0.1019  0.0910  0.5415
   34POPC  H16X 4634   0.023   3.406   8.575  0.5655  0.8533 -3.3963
   34POPC  H16Y 4635   0.135   3.545   8.523  3.1775 -2.8172 -0.2916
   34POPC  H16Z 4636   0.048   3.553   8.680  0.9866 -0.0086  1.3592
   35POPC     N 4637   0.764   0.946  11.441 -0.4259 -0.7397 -0.4299
   35POPC   C12 4638   0.693   0.976  11.305 -0.3588 -0.0865  0.2418
   35POPC  H12A 4639   0.649   1.075  11.307  0.0377  0.1280 -0.9063
   35POPC  H12B 4640   0.612   0.904  11.299  0.3876 -0.8205 -1.8142
   35POPC   C13 4641   0.785   0.801  11.454 -0.0144  0.2305 -0.0679
   35POPC  H13A 4642   0.840   0.777  11.544 -0.8931 -1.3813  0.0720
   35POPC  H13B 4643   0.695   0.744  11.463 -0.5754  0.9753 -0.7893
   35POPC  H13C 4644   0.834   0.761  11.366  0.3039  0.4744 -0.0068
   35POPC   C14 4645   0.890   1.028  11.447 -0.2282 -0.3558  0.0664
   35POPC  H14A 4646   0.874   1.134  11.429 -1.1455 -0.6066 -0.6573
   35POPC  H14B 4647   0.921   1.025  11.550  0.5804  0.0874 -0.1460
   35POPC  H14C 4648   0.965   0.989  11.379  0.1415  1.1764 -0.4510
   35POPC   C15 4649   0.681   0.989  11.565  0.5647 -0.4914  0.4097
   35POPC  H15A 4650   0.584   0.942  11.560 -0.2021  0.9965  0.7582
   35POPC  H15B 4651   0.662   1.095  11.555 -1.3067 -0.8222  0.0534
   35POPC  H15C 4652   0.736   0.970  11.656  2.9819 -1.2647 -1.1054
   35POPC   C11 4653   0.789   0.967  11.179 -0.1740  0.2830 -0.3805
   35POPC  H11A 4654   0.875   1.036  11.191  0.9581 -0.9583 -1.1111
   35POPC  H11B 4655   0.735   1.002  11.088  0.4546 -0.6581 -1.1307
   35POPC     P 4656   0.735   0.725  11.106 -0.0407  0.3628 -0.1550
   35POPC   O13 4657   0.596   0.748  11.164 -0.6366  0.2344  0.2106
   35POPC   O14 4658   0.789   0.584  11.129  0.1608  0.2352 -0.0633
   35POPC   O12 4659   0.831   0.828  11.173 -0.0569  0.1634  0.0975
   35POPC   O11 4660   0.735   0.762  10.953 -0.2401  0.9393  0.2044
   35POPC    C1 4661   0.858   0.728  10.883 -0.6007 -0.4662  1.0560
   35POPC    HA 4662   0.839   0.663  10.795 -1.1901  0.2120  0.6709
   35POPC    HB 4663   0.934   0.669  10.939 -0.5600 -1.3634  0.0929
   35POPC    C2 4664   0.937   0.860  10.850  0.0518 -0.4556 -0.3159
   35POPC    HS 4665   0.946   0.900  10.953 -0.0367 -2.7778  0.6607
   35POPC   O21 4666   0.855   0.949  10.770  0.2204 -0.6596 -0.1191
   35POPC   C21 4667   0.879   1.082  10.777 -0.0102 -0.5942 -0.5022
   35POPC   O22 4668   0.958   1.139  10.850 -0.3541  0.0522 -0.1071
   35POPC   C22 4669   0.797   1.146  10.666 -0.4443 -0.6712  1.2845
   35POPC   H2R 4670   0.703   1.185  10.712  0.5200  1.6357  1.4553
   35POPC   H2S 4671   0.771   1.078  10.582  0.1450  1.5819 -0.8259
   35POPC    C3 4672   1.075   0.831  10.786 -0.7816  0.8406  0.1337
   35POPC    HX 4673   1.123   0.761  10.857 -2.4105 -1.4691 -0.8986
   35POPC    HY 4674   1.145   0.916  10.774  0.2532  0.3289  2.2213
   35POPC   O31 4675   1.056   0.743  10.667  0.5611 -0.7337 -0.1046
   35POPC   C31 4676   1.067   0.817  10.547  0.1153  0.5604 -0.8653
   35POPC   O32 4677   1.084   0.936  10.552  0.7099  0.0228  0.9485
   35POPC   C32 4678   1.052   0.717  10.432 -0.0885  0.4848  0.3312
   35POPC   H2X 4679   0.946   0.687  10.418  0.9201 -2.5924 -1.8428
   35POPC   H2Y 4680   1.094   0.619  10.462  0.9805  1.1688  1.1722
   35POPC   C23 4681   0.869   1.268  10.599 -0.3358  0.3037  0.1037
   35POPC   H3R 4682   0.967   1.241  10.554 -0.1374 -1.3854  1.4472
   35POPC   H3S 4683   0.904   1.317  10.693  0.4636 -1.6570  0.8839
   35POPC   C24 4684   0.778   1.361  10.513  0.0722  0.3080  0.7910
   35POPC   H4R 4685   0.837   1.445  10.471 -0.5799  0.9945  1.2197
   35POPC   H4S 4686   0.695   1.407  10.571 -0.5369  2.8081 -1.8491
   35POPC   C25 4687   0.711   1.279  10.402 -0.2737 -0.1364  0.0771
   35POPC   H5R 4688   0.640   1.201  10.437 -1.8996  0.2786 -2.1133
   35POPC   H5S 4689   0.789   1.223  10.346 -1.4456 -1.4097 -0.3213
   35POPC   C26 4690   0.640   1.386  10.318  0.0510  0.2502  0.3547
   35POPC   H6R 4691   0.679   1.487  10.340 -4.6684  2.3954  0.0811
   35POPC   H6S 4692   0.535   1.404  10.350 -0.5190 -0.1251 -1.1854
   35POPC   C27 4693   0.647   1.348  10.168 -0.2835  0.6427  0.1001
   35POPC   H7R 4694   0.593   1.433  10.121 -0.0096  1.4788  1.2562
   35POPC   H7S 4695   0.578   1.264  10.147  0.3696 -0.1357  1.0240
   35POPC   C28 4696   0.788   1.331  10.111  0.0224  0.5075  0.3984
   35POPC   H8R 4697   0.776   1.335  10.001  0.5244 -0.9182  0.2690
   35POPC   H8S 4698   0.814   1.225  10.131 -1.2019 -0.1661 -1.3347
   35POPC   C29 4699   0.891   1.429  10.166  0.0106 -0.3196  0.6557
   35POPC   H91 4700   0.967   1.385  10.232 -1.5233 -0.1429  2.6382
   35POPC  C210 4701   0.888   1.560  10.142 -1.1634 -0.0221 -0.0046
   35POPC  H101 4702   0.961   1.620  10.198 -0.0207 -1.0504 -0.3475
   35POPC  C211 4703   0.793   1.639  10.059 -0.1327  0.0542  0.0747
   35POPC  H11R 4704   0.717   1.696  10.116 -2.1394 -0.7111 -1.6858
   35POPC  H11S 4705   0.733   1.568   9.998  0.4030  0.8763 -1.4820
   35POPC  C212 4706   0.858   1.722   9.949 -1.2939  0.1198  0.4074
   35POPC  H12R 4707   0.919   1.650   9.891 -2.7226  0.1462 -1.1921
   35POPC  H12S 4708   0.922   1.797  10.000  2.0069 -3.6523  2.2772
   35POPC  C213 4709   0.754   1.788   9.848 -0.8487  0.4048 -0.4445
   35POPC  H13R 4710   0.698   1.699   9.810  3.1238 -2.9522  0.7932
   35POPC  H13S 4711   0.808   1.847   9.771  1.7622 -0.6213  0.4843
   35POPC  C214 4712   0.653   1.882   9.902  0.4699 -0.2507  0.2824
   35POPC  H14R 4713   0.606   1.834   9.991  3.8855 -3.0768  0.8051
   35POPC  H14S 4714   0.569   1.907   9.834  0.7635  0.0975  0.0455
   35POPC  C215 4715   0.717   2.018   9.947  0.2913 -0.4118 -0.3724
   35POPC  H15R 4716   0.821   2.004   9.985  0.7332  0.8044 -1.0795
   35POPC  H15S 4717   0.661   2.070  10.028  1.9045 -1.2812  1.3598
   35POPC  C216 4718   0.724   2.133   9.843 -0.1582  0.9673 -0.3631
   35POPC  H16R 4719   0.756   2.227   9.892 -1.2066  1.1122  0.0737
   35POPC  H16S 4720   0.628   2.162   9.795  0.1354  2.0551 -0.3079
   35POPC  C217 4721   0.831   2.098   9.731 -0.0161 -0.0137  0.9377
   35POPC  H17R 4722   0.783   2.028   9.659 -0.4583  2.0844 -0.9173
   35POPC  H17S 4723   0.918   2.049   9.779  1.7491  1.0616 -1.0099
   35POPC  C218 4724   0.874   2.219   9.641  0.2274  0.0500  1.3485
   35POPC  H18R 4725   0.971   2.195   9.594 -0.5273  0.2108 -0.3736
   35POPC  H18S 4726   0.892   2.306   9.708  0.6752 -1.7197  3.6603
   35POPC  H18T 4727   0.800   2.247   9.562  1.9818 -0.1309 -0.4476
   35POPC   C33 4728   1.111   0.770  10.304  1.0038  0.2090 -0.0157
   35POPC   H3X 4729   1.220   0.789  10.315  1.0542  1.0312 -1.5952
   35POPC   H3Y 4730   1.060   0.860  10.265 -2.2026 -0.8244  1.4721
   35POPC   C34 4731   1.099   0.666  10.189 -0.2309  0.4332  0.4900
   35POPC   H4X 4732   0.989   0.650  10.183  0.0033 -1.1971 -0.0102
   35POPC   H4Y 4733   1.147   0.567  10.206  2.2220  1.1186 -1.7736
   35POPC   C35 4734   1.158   0.713  10.058 -0.3055 -0.6550 -0.2731
   35POPC   H5X 4735   1.122   0.814  10.032 -0.2011 -0.1422  1.4078
   35POPC   H5Y 4736   1.102   0.655   9.982  0.4458  0.9570 -2.1391
   35POPC   C36 4737   1.312   0.696  10.045 -0.2155 -0.2089  0.4385
   35POPC   H6X 4738   1.328   0.588  10.067  1.1648  0.0629  0.8732
   35POPC   H6Y 4739   1.361   0.754  10.126 -0.0974 -1.4850  1.3155
   35POPC   C37 4740   1.379   0.743   9.906  0.3207 -0.9763  0.1127
   35POPC   H7X 4741   1.482   0.701   9.901  0.6427 -0.2575  0.5694
   35POPC   H7Y 4742   1.400   0.852   9.901  1.1406 -0.9648  2.5296
   35POPC   C38 4743   1.303   0.697   9.778 -0.5507  0.1749  0.0725
   35POPC   H8X 4744   1.202   0.739   9.794 -1.0990 -1.1051  0.0836
   35POPC   H8Y 4745   1.298   0.586   9.773 -0.4987  0.1680  0.1850
   35POPC   C39 4746   1.366   0.756   9.654  0.2042  0.2933 -0.1394
   35POPC   H9X 4747   1.476   0.740   9.647  0.0162 -0.7065 -1.0561
   35POPC   H9Y 4748   1.362   0.866   9.667 -0.0532  0.1924  0.6641
   35POPC  C310 4749   1.289   0.717   9.524  0.2467 -0.1093  0.8229
   35POPC  H10X 4750   1.186   0.752   9.544 -0.4578 -2.3141  1.3848
   35POPC  H10Y 4751   1.288   0.607   9.507 -0.2393  0.1016 -0.6177
   35POPC  C311 4752   1.342   0.795   9.402  0.3812 -0.5607  0.9926
   35POPC  H11X 4753   1.447   0.826   9.419  0.4015  0.7975 -1.2126
   35POPC  H11Y 4754   1.285   0.890   9.396 -2.6556 -2.1506  2.3297
   35POPC  C312 4755   1.346   0.709   9.277  0.2992 -0.3097 -0.1928
   35POPC  H12X 4756   1.249   0.660   9.256  0.1650  0.4775 -1.4902
   35POPC  H12Y 4757   1.413   0.623   9.299 -0.5089 -0.6689  0.9852
   35POPC  C313 4758   1.374   0.776   9.145  0.5278  0.3800 -0.0465
   35POPC  H13X 4759   1.476   0.819   9.145  1.1107 -0.8834  1.8546
   35POPC  H13Y 4760   1.301   0.859   9.149  1.4163  1.1920 -0.4210
   35POPC  C314 4761   1.344   0.673   9.031  0.7479  0.0798  1.1874
   35POPC  H14X 4762   1.237   0.643   9.039  0.0319  1.6638 -1.2396
   35POPC  H14Y 4763   1.404   0.581   9.043 -3.2892 -2.6144  2.7174
   35POPC  C315 4764   1.356   0.740   8.886 -0.1778  0.3224 -0.2719
   35POPC  H15X 4765   1.458   0.783   8.874  1.8329 -3.4249  1.5340
   35POPC  H15Y 4766   1.288   0.827   8.885  1.3422  1.5571 -1.9809
   35POPC  C316 4767   1.320   0.638   8.784 -0.2971  0.0554  0.3617
   35POPC  H16X 4768   1.408   0.576   8.758 -0.2291  0.2171  0.2058
   35POPC  H16Y 4769   1.279   0.683   8.691  1.2539  1.2087  0.1963
   35POPC  H16Z 4770   1.244   0.572   8.832  1.5546 -1.2336  1.6608
   36POPC     N 4771   0.690   5.237  10.824 -0.1391 -0.5588  0.5604
   36POPC   C12 4772   0.799   5.149  10.881 -0.2733 -0.2361  0.2429
   36POPC  H12A 4773   0.821   5.178  10.983 -0.2801 -1.3869  0.5878
   36POPC  H12B 4774   0.890   5.178  10.830 -1.1738  0.9396 -0.7598
   36POPC   C13 4775   0.691   5.229  10.679  0.2774 -0.0949 -0.0653
   36POPC  H13A 4776   0.783   5.262  10.634 -1.1589  1.5156 -1.9956
   36POPC  H13B 4777   0.660   5.134  10.637  0.4743  0.6458 -1.9618
   36POPC  H13C 4778   0.628   5.305  10.636 -0.9512 -0.3909  1.1515
   36POPC   C14 4779   0.554   5.190  10.866  0.0163  0.4879 -0.0565
   36POPC  H14A 4780   0.539   5.085  10.847  1.4318  0.3099 -0.3472
   36POPC  H14B 4781   0.543   5.206  10.973 -2.4494  1.7556 -0.4170
   36POPC  H14C 4782   0.474   5.245  10.819 -1.6620 -1.0542  0.8799
   36POPC   C15 4783   0.710   5.379  10.877 -0.3601  0.1000 -0.2761
   36POPC  H15A 4784   0.811   5.413  10.862 -1.0632  2.9589  0.8094
   36POPC  H15B 4785   0.700   5.401  10.982  0.2641  0.4970 -0.2975
   36POPC  H15C 4786   0.650   5.445  10.815  1.0783  2.4907  0.7515
   36POPC   C11 4787   0.775   4.999  10.882  0.1494  0.5996  0.5789
   36POPC  H11A 4788   0.680   4.964  10.927 -1.3171  1.4812 -1.6312
   36POPC  H11B 4789   0.849   4.945  10.945 -0.3041  0.2249  0.7951
   36POPC     P 4790   0.919   4.886  10.694  0.1538  0.3386 -0.0789
   36POPC   O13 4791   0.893   4.746  10.652 -0.4887  0.4038  0.2694
   36POPC   O14 4792   1.034   4.900  10.788  0.6213  0.6549 -0.1538
   36POPC   O12 4793   0.781   4.941  10.752  0.4358 -0.5229 -0.2411
   36POPC   O11 4794   0.955   4.963  10.557 -0.1076 -0.1120  0.1445
   36POPC    C1 4795   0.878   4.927  10.441  0.2166 -1.1136  0.0440
   36POPC    HA 4796   0.775   4.952  10.474  0.8267  0.8539  0.5952
   36POPC    HB 4797   0.900   4.822  10.413  0.0467 -1.0464 -0.3505
   36POPC    C2 4798   0.893   5.037  10.334  0.0345 -0.2580 -0.1374
   36POPC    HS 4799   0.890   5.139  10.376  2.7419 -0.5032  0.8568
   36POPC   O21 4800   0.780   5.025  10.242  0.0602 -0.2409  0.1189
   36POPC   C21 4801   0.743   5.139  10.181 -0.2080  0.2739  0.6820
   36POPC   O22 4802   0.799   5.247  10.186  0.7030  0.0612  0.4062
   36POPC   C22 4803   0.607   5.120  10.121  0.4370  0.6437 -0.1642
   36POPC   H2R 4804   0.536   5.122  10.207 -0.6375  4.2505 -0.9574
   36POPC   H2S 4805   0.607   5.018  10.076  2.6386  0.3908  0.3237
   36POPC    C3 4806   1.025   5.028  10.252  0.3255  0.1258  0.2644
   36POPC    HX 4807   1.032   4.935  10.191 -2.0968  1.0868 -1.6085
   36POPC    HY 4808   1.116   5.019  10.315  0.5671 -0.0029 -0.0930
   36POPC   O31 4809   1.045   5.135  10.157  0.4873  0.0989 -0.3312
   36POPC   C31 4810   1.095   5.250  10.203 -0.2539  0.3225 -0.3087
   36POPC   O32 4811   1.125   5.270  10.320 -0.4435 -0.1154 -0.1827
   36POPC   C32 4812   1.099   5.349  10.089  0.2576 -0.5100  0.0431
   36POPC   H2X 4813   1.183   5.418  10.112 -0.0495 -0.8148  2.3611
   36POPC   H2Y 4814   1.003   5.403  10.103  0.8187  0.6084 -0.2625
   36POPC   C23 4815   0.563   5.219  10.013  0.6732 -0.2687 -0.0572
   36POPC   H3R 4816   0.593   5.324  10.037  1.8867  0.1930 -3.1138
   36POPC   H3S 4817   0.453   5.225  10.004  0.5199 -1.1187  0.9996
   36POPC   C24 4818   0.626   5.201   9.871 -0.2663  0.0302 -0.0597
   36POPC   H4R 4819   0.550   5.144   9.813  0.1500 -0.7035  0.0976
   36POPC   H4S 4820   0.717   5.139   9.889 -1.1067 -1.9285 -2.0255
   36POPC   C25 4821   0.679   5.327   9.802  0.0306 -0.2731  0.3596
   36POPC   H5R 4822   0.755   5.299   9.725  1.2945  0.3669  1.3337
   36POPC   H5S 4823   0.737   5.388   9.875 -0.9019 -0.5755  1.3765
   36POPC   C26 4824   0.584   5.408   9.716  0.3067  0.1883 -0.2587
   36POPC   H6R 4825   0.504   5.450   9.780 -1.8131 -1.1221 -1.8946
   36POPC   H6S 4826   0.519   5.341   9.656  0.4888 -1.0830  0.9279
   36POPC   C27 4827   0.642   5.520   9.623  1.2747 -0.9230  0.0367
   36POPC   H7R 4828   0.712   5.559   9.700  0.6426  0.6416 -0.1483
   36POPC   H7S 4829   0.565   5.597   9.602  2.7027  0.3633 -0.6107
   36POPC   C28 4830   0.710   5.471   9.498 -0.2820 -0.1444  0.2540
   36POPC   H8R 4831   0.644   5.403   9.440  1.6871 -1.3155 -0.7385
   36POPC   H8S 4832   0.786   5.393   9.522 -1.4130 -1.4132 -0.1466
   36POPC   C29 4833   0.763   5.577   9.409  0.5484  0.4392 -0.3290
   36POPC   H91 4834   0.869   5.593   9.435  0.3853 -1.2168  1.5564
   36POPC  C210 4835   0.705   5.654   9.317  0.8945  0.0062  0.1046
   36POPC  H101 4836   0.768   5.734   9.276 -3.2378  3.0024 -0.9893
   36POPC  C211 4837   0.560   5.659   9.273  0.2337  0.5019  0.0208
   36POPC  H11R 4838   0.518   5.754   9.311  0.9054  0.8965 -0.2022
   36POPC  H11S 4839   0.499   5.584   9.327  0.3656 -0.4734 -1.1366
   36POPC  C212 4840   0.538   5.643   9.120 -0.4929  0.4110 -0.2157
   36POPC  H12R 4841   0.428   5.638   9.110 -0.7358 -0.2906  2.1996
   36POPC  H12S 4842   0.584   5.552   9.074  0.0123  0.8681 -0.6281
   36POPC  C213 4843   0.600   5.754   9.033 -0.3138 -0.2597  0.1426
   36POPC  H13R 4844   0.697   5.782   9.080 -0.8634  1.1033  0.5037
   36POPC  H13S 4845   0.537   5.844   9.047 -0.7719 -0.6382  0.5636
   36POPC  C214 4846   0.606   5.732   8.878  0.0182  0.5866 -0.3688
   36POPC  H14R 4847   0.568   5.628   8.870  0.0583  0.5444 -0.0163
   36POPC  H14S 4848   0.714   5.736   8.851 -0.2160  2.2263 -1.1469
   36POPC  C215 4849   0.532   5.832   8.793 -0.2551  0.1958 -0.3225
   36POPC  H15R 4850   0.570   5.934   8.816 -1.6595  0.8617 -0.7907
   36POPC  H15S 4851   0.426   5.823   8.827  0.1485 -0.8051  0.7595
   36POPC  C216 4852   0.561   5.817   8.640 -0.5649  0.7666 -0.5853
   36POPC  H16R 4853   0.519   5.717   8.612 -1.1956  0.8839 -0.0710
   36POPC  H16S 4854   0.672   5.821   8.641 -0.5131  0.8428  3.0122
   36POPC  C217 4855   0.491   5.928   8.567 -0.1513  0.5908  0.0470
   36POPC  H17R 4856   0.509   5.903   8.460 -0.7500  0.5992 -0.0567
   36POPC  H17S 4857   0.539   6.021   8.603  0.1890  0.2129  0.6005
   36POPC  C218 4858   0.335   5.939   8.582 -0.0662  0.2986  0.0071
   36POPC  H18R 4859   0.304   5.835   8.562 -0.9026  0.3144  1.1207
   36POPC  H18S 4860   0.295   6.010   8.507 -5.0646 -2.6271 -0.5233
   36POPC  H18T 4861   0.296   5.968   8.682 -0.4133  0.9905 -0.3180
   36POPC   C33 4862   1.105   5.287   9.952 -0.1141 -0.2027 -0.2282
   36POPC   H3X 4863   1.039   5.198   9.942 -0.4422 -0.1668  1.3871
   36POPC   H3Y 4864   1.209   5.252   9.934 -0.2479 -1.3796  1.0947
   36POPC   C34 4865   1.082   5.374   9.826  0.6448 -0.3853 -0.3127
   36POPC   H4X 4866   1.140   5.469   9.831 -1.7379  1.0880  2.6065
   36POPC   H4Y 4867   0.975   5.405   9.818  1.0208  3.3325  4.6446
   36POPC   C35 4868   1.122   5.307   9.700  0.1408  0.0895 -0.1553
   36POPC   H5X 4869   1.062   5.214   9.691  0.3856 -0.0934  0.0923
   36POPC   H5Y 4870   1.230   5.285   9.707  0.4454  1.4157 -0.3719
   36POPC   C36 4871   1.091   5.387   9.571  0.4015 -0.1785  0.4052
   36POPC   H6X 4872   1.127   5.491   9.586  1.7624 -0.4412 -0.8741
   36POPC   H6Y 4873   0.982   5.405   9.583  0.2201 -2.1738  2.6550
   36POPC   C37 4874   1.138   5.325   9.441 -1.2274  0.9552  0.4466
   36POPC   H7X 4875   1.112   5.217   9.437  0.3642  0.5531 -0.0690
   36POPC   H7Y 4876   1.248   5.336   9.426 -1.4485 -0.4252 -3.4881
   36POPC   C38 4877   1.074   5.385   9.315 -0.0719 -0.7114  0.4536
   36POPC   H8X 4878   1.059   5.493   9.336 -2.5963 -0.9185  0.0379
   36POPC   H8Y 4879   0.975   5.338   9.297 -0.3082  0.8850 -3.5152
   36POPC   C39 4880   1.155   5.367   9.191  0.2370  0.5383  0.8228
   36POPC   H9X 4881   1.211   5.271   9.198  0.1399  0.2759 -1.4570
   36POPC   H9Y 4882   1.225   5.453   9.181  2.5281 -1.2818  0.4889
   36POPC  C310 4883   1.069   5.352   9.060  0.1895 -0.5547  0.4851
   36POPC  H10X 4884   0.997   5.268   9.072 -0.8026  0.2054 -0.0984
   36POPC  H10Y 4885   1.142   5.322   8.982  1.1568  0.2072  1.0664
   36POPC  C311 4886   0.990   5.477   9.003 -0.2782 -0.4288  0.5928
   36POPC  H11X 4887   0.962   5.550   9.082  1.8065  0.4687  0.5534
   36POPC  H11Y 4888   0.899   5.459   8.942  0.1305  1.1848 -0.5395
   36POPC  C312 4889   1.074   5.561   8.904 -0.2248  0.6596 -0.0370
   36POPC  H12X 4890   1.171   5.580   8.955  0.4648 -0.7227 -0.7858
   36POPC  H12Y 4891   1.027   5.662   8.902  0.6081  1.0526 -0.1613
   36POPC  C313 4892   1.094   5.502   8.766 -1.1042  0.0383  0.3601
   36POPC  H13X 4893   1.001   5.473   8.712 -0.2743 -0.1381 -1.0260
   36POPC  H13Y 4894   1.163   5.416   8.773  3.0601  3.0874  0.4816
   36POPC  C314 4895   1.166   5.597   8.674  0.3581 -0.1463 -0.0097
   36POPC  H14X 4896   1.268   5.605   8.718  0.6531 -0.0637 -0.7068
   36POPC  H14Y 4897   1.125   5.699   8.684 -0.7459 -0.4488 -1.2908
   36POPC  C315 4898   1.197   5.557   8.528  0.0699 -0.0804 -1.0958
   36POPC  H15X 4899   1.227   5.450   8.529 -0.3292 -0.2230  1.1602
   36POPC  H15Y 4900   1.290   5.607   8.495 -0.0190 -0.4952 -2.0080
   36POPC  C316 4901   1.087   5.594   8.426  0.8740  0.4282 -0.1093
   36POPC  H16X 4902   1.085   5.705   8.428 -0.8651  0.4246  1.7746
   36POPC  H16Y 4903   0.990   5.556   8.463 -0.0813  1.9207 -0.9737
   36POPC  H16Z 4904   1.115   5.549   8.328 -0.4638  2.3508 -1.4553
   37POPC     N 4905   6.455   6.203   6.382  0.1466 -0.1841  0.1002
   37POPC   C12 4906   6.504   6.286   6.502 -0.9427 -0.0660 -0.5550
   37POPC  H12A 4907   6.571   6.234   6.568 -0.5514 -0.1850 -1.0372
   37POPC  H12B 4908   6.419   6.313   6.563 -0.3532 -0.8436  0.6350
   37POPC   C13 4909   6.359   6.282   6.292 -0.4892 -0.6419 -0.1838
   37POPC  H13A 4910   6.395   6.383   6.276  0.4776 -0.8914  0.3631
   37POPC  H13B 4911   6.330   6.228   6.203 -0.0569  0.2016 -0.8598
   37POPC  H13C 4912   6.272   6.315   6.348 -2.0571 -0.9460 -2.2768
   37POPC   C14 4913   6.577   6.168   6.290  0.4756 -0.5575 -0.4293
   37POPC  H14A 4914   6.651   6.123   6.355  0.5001 -1.3303 -0.9759
   37POPC  H14B 4915   6.550   6.100   6.211  0.1673 -0.1288 -0.6950
   37POPC  H14C 4916   6.615   6.256   6.242 -0.6990 -0.4365 -1.1906
   37POPC   C15 4917   6.396   6.076   6.433  0.4720 -0.4590  0.1645
   37POPC  H15A 4918   6.471   6.022   6.490  1.7220 -0.1893 -1.1483
   37POPC  H15B 4919   6.371   6.011   6.350  2.1320  0.0522 -0.7873
   37POPC  H15C 4920   6.303   6.079   6.487 -0.5424 -3.3161 -1.1935
   37POPC   C11 4921   6.560   6.424   6.486 -0.5209 -0.7639  0.4962
   37POPC  H11A 4922   6.632   6.434   6.401 -0.2667  0.6929  0.8565
   37POPC  H11B 4923   6.624   6.460   6.569 -1.1299  1.3028  0.1251
   37POPC     P 4924   6.403   6.589   6.584 -0.3311 -0.2051 -0.0753
   37POPC   O13 4925   6.283   6.670   6.545  0.5389 -0.1771 -0.1903
   37POPC   O14 4926   6.510   6.653   6.663 -0.3801  1.0329  0.2811
   37POPC   O12 4927   6.457   6.514   6.457  0.4408 -0.6199  0.0056
   37POPC   O11 4928   6.352   6.469   6.668  0.3478  0.4812  0.1096
   37POPC    C1 4929   6.227   6.474   6.735  0.2950 -0.1380  0.0304
   37POPC    HA 4930   6.224   6.380   6.795  1.5323  0.9523  1.9053
   37POPC    HB 4931   6.151   6.484   6.655  0.7837 -1.0638 -0.5699
   37POPC    C2 4932   6.212   6.582   6.845 -0.4601 -0.0380 -0.6350
   37POPC    HS 4933   6.204   6.674   6.783 -0.4253 -1.1539 -2.3742
   37POPC   O21 4934   6.332   6.575   6.920 -0.5377  0.3217  0.0646
   37POPC   C21 4935   6.376   6.685   6.967 -0.7255 -0.4839  0.3129
   37POPC   O22 4936   6.340   6.802   6.945  0.1872 -0.1098 -0.5284
   37POPC   C22 4937   6.494   6.654   7.056  0.2426 -0.5137  0.4357
   37POPC   H2R 4938   6.550   6.743   7.092 -0.3622 -1.1423  3.1593
   37POPC   H2S 4939   6.564   6.598   6.990  1.0818  2.2406 -1.2047
   37POPC    C3 4940   6.093   6.569   6.948  0.3005  0.0904 -0.1342
   37POPC    HX 4941   6.119   6.483   7.013  1.3774  0.0383 -0.6017
   37POPC    HY 4942   5.994   6.545   6.903  0.4720  1.8411 -1.5790
   37POPC   O31 4943   6.084   6.690   7.031 -0.4670  0.2341 -0.1734
   37POPC   C31 4944   6.017   6.788   6.958  0.5414 -0.3483  0.3064
   37POPC   O32 4945   5.945   6.763   6.863  0.2548  0.7703  0.4683
   37POPC   C32 4946   6.046   6.928   7.011  0.8871  0.0325  0.0083
   37POPC   H2X 4947   6.022   7.002   6.932 -0.5595 -1.0828 -0.6398
   37POPC   H2Y 4948   6.156   6.940   7.020  1.1810 -2.3650  0.3032
   37POPC   C23 4949   6.461   6.564   7.176 -0.1811 -0.2910  0.4206
   37POPC   H3R 4950   6.561   6.543   7.219 -0.0845  2.3088  1.6966
   37POPC   H3S 4951   6.418   6.463   7.161  0.1697 -0.9250  3.1103
   37POPC   C24 4952   6.377   6.631   7.286  0.6895 -0.0796 -0.4506
   37POPC   H4R 4953   6.274   6.644   7.248 -0.6250 -0.7135  2.5930
   37POPC   H4S 4954   6.414   6.734   7.308 -1.2185  1.4615 -3.7900
   37POPC   C25 4955   6.360   6.538   7.409  0.3621  0.0498  0.0953
   37POPC   H5R 4956   6.448   6.532   7.477 -0.8620  1.1351  1.8576
   37POPC   H5S 4957   6.347   6.431   7.381 -1.0917 -0.4107  2.2682
   37POPC   C26 4958   6.241   6.588   7.497 -0.1427  0.4219  0.8636
   37POPC   H6R 4959   6.158   6.616   7.429  1.4349 -0.0874 -1.3670
   37POPC   H6S 4960   6.264   6.681   7.553 -0.7066  1.5326 -0.6649
   37POPC   C27 4961   6.201   6.484   7.603  0.0269  0.3108 -0.1443
   37POPC   H7R 4962   6.185   6.384   7.557  3.1335 -1.2261  1.8110
   37POPC   H7S 4963   6.101   6.508   7.646  1.3050  1.5009  2.4114
   37POPC   C28 4964   6.293   6.469   7.722  0.8825  0.3275 -0.3800
   37POPC   H8R 4965   6.395   6.438   7.691  0.9412 -0.3407  0.4361
   37POPC   H8S 4966   6.255   6.373   7.763  1.0365  0.7869  0.8861
   37POPC   C29 4967   6.311   6.587   7.815  0.1769  0.2087 -0.6516
   37POPC   H91 4968   6.370   6.674   7.782 -2.4419  2.4757  0.3080
   37POPC  C210 4969   6.243   6.602   7.934  0.2148  0.1412  0.6553
   37POPC  H101 4970   6.260   6.685   8.004  1.3797 -1.3640  2.2507
   37POPC  C211 4971   6.150   6.498   7.990 -0.1766  0.1675  0.7140
   37POPC  H11R 4972   6.164   6.397   7.948  0.4188  0.5902 -0.1231
   37POPC  H11S 4973   6.042   6.507   7.963 -0.3241 -2.0666  0.4103
   37POPC  C212 4974   6.155   6.500   8.144  0.4049  0.3895  0.7302
   37POPC  H12R 4975   6.052   6.492   8.184  1.0043 -2.4897  1.8909
   37POPC  H12S 4976   6.197   6.598   8.176  0.9786  0.3282  0.1867
   37POPC  C213 4977   6.241   6.382   8.203  0.1813  0.1085  0.5004
   37POPC  H13R 4978   6.339   6.379   8.151  0.8975  0.0289  1.7992
   37POPC  H13S 4979   6.178   6.291   8.210  0.4004 -0.0997 -0.1831
   37POPC  C214 4980   6.281   6.411   8.349  0.2121 -0.4901 -0.3830
   37POPC  H14R 4981   6.190   6.430   8.410  0.4735  3.1747 -0.9217
   37POPC  H14S 4982   6.340   6.505   8.345  2.6428 -1.9500 -1.7580
   37POPC  C215 4983   6.367   6.301   8.419 -0.1489 -0.0228  0.4648
   37POPC  H15R 4984   6.416   6.354   8.504 -0.2505  0.6162  0.1292
   37POPC  H15S 4985   6.445   6.261   8.351  1.1747 -0.1987  2.0310
   37POPC  C216 4986   6.290   6.181   8.473 -1.0239  0.2805  0.0208
   37POPC  H16R 4987   6.351   6.090   8.488  0.0607  0.9482 -0.1978
   37POPC  H16S 4988   6.208   6.160   8.402 -0.8060  0.0125 -0.1535
   37POPC  C217 4989   6.223   6.209   8.610 -0.6712 -0.2275  0.1567
   37POPC  H17R 4990   6.156   6.297   8.601  1.1687  1.1642 -0.3865
   37POPC  H17S 4991   6.311   6.230   8.673  3.2990 -1.6014 -4.3225
   37POPC  C218 4992   6.146   6.085   8.663 -0.2681 -0.0909 -0.2071
   37POPC  H18R 4993   6.068   6.117   8.735  0.2560 -0.7240  0.6458
   37POPC  H18S 4994   6.214   6.002   8.690  1.8858  1.5430 -0.3907
   37POPC  H18T 4995   6.085   6.044   8.579 -0.4325 -0.9005  0.3063
   37POPC   C33 4996   5.971   6.966   7.141 -0.7046  0.3037  0.1763
   37POPC   H3X 4997   5.863   6.947   7.124 -0.0528 -2.5023 -1.3843
   37POPC   H3Y 4998   5.990   7.075   7.155 -1.4486  0.5794 -0.8710
   37POPC   C34 4999   6.030   6.900   7.271 -0.0847  0.7252  0.2764
   37POPC   H4X 5000   6.141   6.897   7.264 -0.1104 -0.1743  0.1579
   37POPC   H4Y 5001   5.993   6.796   7.284 -1.1920  1.0054 -0.4420
   37POPC   C35 5002   5.995   6.984   7.392 -0.0203  0.0253  0.1571
   37POPC   H5X 5003   5.886   7.006   7.390  0.6809  4.2850  0.6955
   37POPC   H5Y 5004   6.052   7.078   7.382  1.1059 -0.6936 -0.4599
   37POPC   C36 5005   6.034   6.921   7.525 -0.2965 -0.8564  0.6381
   37POPC   H6X 5006   6.140   6.891   7.521  0.1411  0.7085 -0.2553
   37POPC   H6Y 5007   5.979   6.833   7.563 -0.1988 -0.4709  1.7140
   37POPC   C37 5008   6.026   7.015   7.636 -0.1695  0.1482  0.1253
   37POPC   H7X 5009   5.922   7.054   7.645 -0.9273 -1.7746  0.0657
   37POPC   H7Y 5010   6.084   7.108   7.617 -2.8599  1.6799 -1.2596
   37POPC   C38 5011   6.054   6.964   7.781  0.4398  0.4777  0.5011
   37POPC   H8X 5012   6.150   6.911   7.767 -0.1583  0.0058 -2.7655
   37POPC   H8Y 5013   5.974   6.892   7.812  2.1393 -1.5433  0.3963
   37POPC   C39 5014   6.075   7.075   7.884 -0.0961 -0.6714 -0.7633
   37POPC   H9X 5015   5.982   7.133   7.907 -0.0036 -1.5386  2.2015
   37POPC   H9Y 5016   6.151   7.146   7.843  0.1270 -1.1796 -1.2422
   37POPC  C310 5017   6.139   7.030   8.013  0.1011  0.5313 -0.9038
   37POPC  H10X 5018   6.165   7.123   8.067  0.7318  1.1911 -2.2804
   37POPC  H10Y 5019   6.224   6.962   7.988  0.8118  0.7486  0.8313
   37POPC  C311 5020   6.042   6.941   8.094  0.6831  0.0739 -0.7996
   37POPC  H11X 5021   6.006   6.857   8.031 -0.3627 -0.3557  0.3145
   37POPC  H11Y 5022   5.953   7.005   8.113 -1.9042 -2.6038 -2.9311
   37POPC  C312 5023   6.109   6.896   8.228  0.1228  0.0980  0.1003
   37POPC  H12X 5024   6.157   6.982   8.278 -0.1205  1.5920 -2.0870
   37POPC  H12Y 5025   6.186   6.817   8.215  0.8712  0.4379  2.1415
   37POPC  C313 5026   6.006   6.836   8.328  0.2560  0.2759  0.7402
   37POPC  H13X 5027   5.959   6.747   8.282  3.5391 -2.1935  1.7751
   37POPC  H13Y 5028   5.925   6.907   8.356 -0.3267 -0.0429 -0.0780
   37POPC  C314 5029   6.079   6.784   8.451  0.2195  0.4366 -0.3873
   37POPC  H14X 5030   6.118   6.864   8.517  1.3315 -1.3798  1.2871
   37POPC  H14Y 5031   6.165   6.724   8.415  1.0466  2.3496 -1.7679
   37POPC  C315 5032   5.998   6.689   8.548  0.3156  0.2880 -0.3800
   37POPC  H15X 5033   5.951   6.603   8.495  1.2659 -0.0992 -0.6125
   37POPC  H15Y 5034   5.909   6.743   8.585 -0.4753 -1.2800  0.1200
   37POPC  C316 5035   6.078   6.630   8.663  0.5296 -0.5746  0.1024
   37POPC  H16X 5036   6.149   6.551   8.630 -1.1564 -2.1755  0.1498
   37POPC  H16Y 5037   6.007   6.586   8.736 -1.4739  1.2428 -0.6301
   37POPC  H16Z 5038   6.135   6.714   8.709  2.1568 -1.9734  0.7271
   38POPC     N 5039   6.436   3.172   5.888 -0.2000 -0.3100 -0.0037
   38POPC   C12 5040   6.354   3.229   6.002  0.6274  0.7136  0.2165
   38POPC  H12A 5041   6.253   3.191   6.005 -0.3922  3.2350  0.4151
   38POPC  H12B 5042   6.337   3.332   5.976  0.2607  1.0552  1.7207
   38POPC   C13 5043   6.364   3.205   5.757 -0.1679  0.2795 -0.7858
   38POPC  H13A 5044   6.428   3.191   5.671  2.6367  1.7512  0.9130
   38POPC  H13B 5045   6.282   3.139   5.735  1.9289 -2.1801 -1.7394
   38POPC  H13C 5046   6.327   3.307   5.757 -0.9853  0.0119  0.4073
   38POPC   C14 5047   6.564   3.244   5.891 -0.2420  0.1701 -0.0706
   38POPC  H14A 5048   6.640   3.211   5.821  0.9725  0.3416  1.1172
   38POPC  H14B 5049   6.545   3.348   5.872 -0.8088  0.1266  0.2526
   38POPC  H14C 5050   6.616   3.234   5.986  0.2237  1.0820 -0.2209
   38POPC   C15 5051   6.450   3.025   5.898 -0.6718  0.3551 -0.9362
   38POPC  H15A 5052   6.482   3.003   5.999  1.2155  3.1378 -0.8306
   38POPC  H15B 5053   6.525   2.985   5.831  1.1170  1.3447  0.3935
   38POPC  H15C 5054   6.355   2.978   5.875 -0.7579  0.2300 -0.3333
   38POPC   C11 5055   6.402   3.234   6.146 -1.0140  0.5057  0.2039
   38POPC  H11A 5056   6.323   3.278   6.210 -0.0907 -0.5353  2.1646
   38POPC  H11B 5057   6.497   3.291   6.156 -2.1791  2.8983 -1.3131
   38POPC     P 5058   6.321   3.010   6.263 -0.6761  0.6091 -0.0679
   38POPC   O13 5059   6.347   2.870   6.222  0.0410 -0.2056 -0.0958
   38POPC   O14 5060   6.191   3.064   6.239 -0.5643 -0.3372 -0.0070
   38POPC   O12 5061   6.434   3.100   6.196  0.3363  0.3019 -0.0657
   38POPC   O11 5062   6.351   3.026   6.416  0.1772  0.4690  0.2083
   38POPC    C1 5063   6.481   3.050   6.466  0.3402 -0.0491  0.1255
   38POPC    HA 5064   6.559   2.987   6.417  0.3564 -0.5009  0.7302
   38POPC    HB 5065   6.491   3.023   6.573  0.5522 -1.9926 -0.3518
   38POPC    C2 5066   6.513   3.201   6.463  0.0613 -1.1026 -0.2428
   38POPC    HS 5067   6.541   3.221   6.357  2.5664 -0.5108  0.4891
   38POPC   O21 5068   6.621   3.218   6.556 -0.5388 -0.8001 -0.2823
   38POPC   C21 5069   6.686   3.333   6.534  0.4879 -0.3373  0.4705
   38POPC   O22 5070   6.688   3.395   6.429  0.2429  0.3873  0.1395
   38POPC   C22 5071   6.744   3.395   6.665 -0.0339 -0.4040 -0.6011
   38POPC   H2R 5072   6.783   3.496   6.645 -0.7708 -0.1261 -0.6686
   38POPC   H2S 5073   6.823   3.325   6.700  0.8391  1.5737  1.5502
   38POPC    C3 5074   6.390   3.295   6.504 -0.3134 -0.3791  0.0820
   38POPC    HX 5075   6.307   3.299   6.430  1.5901 -0.3190 -2.2064
   38POPC    HY 5076   6.424   3.401   6.510 -2.0544  0.1335  1.5451
   38POPC   O31 5077   6.348   3.261   6.635 -0.2549 -0.7739  0.5708
   38POPC   C31 5078   6.218   3.266   6.663  0.2135  0.7204  0.6767
   38POPC   O32 5079   6.130   3.307   6.590 -0.6951 -0.6087  0.5231
   38POPC   C32 5080   6.202   3.222   6.806  0.4964 -0.4462 -0.7877
   38POPC   H2X 5081   6.258   3.287   6.876  0.5652  0.4319 -1.6346
   38POPC   H2Y 5082   6.236   3.118   6.821  3.5601  0.7421  1.6744
   38POPC   C23 5083   6.642   3.396   6.789 -0.3602  0.1389  0.0576
   38POPC   H3R 5084   6.622   3.287   6.806 -1.0265  0.1524 -0.5952
   38POPC   H3S 5085   6.550   3.449   6.756 -0.0819 -0.1468 -1.2373
   38POPC   C24 5086   6.697   3.457   6.918  0.7371 -0.2182  0.1516
   38POPC   H4R 5087   6.617   3.464   6.995 -3.0734 -0.6788 -3.3773
   38POPC   H4S 5088   6.732   3.559   6.894 -0.1652 -0.8384 -4.9628
   38POPC   C25 5089   6.814   3.373   6.969 -0.4554  0.5986 -0.3503
   38POPC   H5R 5090   6.897   3.366   6.896  1.1329  2.0415  1.2431
   38POPC   H5S 5091   6.780   3.267   6.977  0.1724  0.5572  3.7843
   38POPC   C26 5092   6.864   3.431   7.098  0.9297 -0.5918  0.7393
   38POPC   H6R 5093   6.787   3.449   7.175  1.1961 -1.5398  1.2513
   38POPC   H6S 5094   6.893   3.534   7.067 -3.1713 -0.0595 -2.0520
   38POPC   C27 5095   6.968   3.351   7.162 -0.1482  0.2018 -0.2316
   38POPC   H7R 5096   7.059   3.349   7.099  0.7271  0.1390  0.9988
   38POPC   H7S 5097   6.940   3.244   7.161 -0.7619  0.3527 -0.2871
   38POPC   C28 5098   6.998   3.384   7.315  0.4450  0.1547  0.0191
   38POPC   H8R 5099   7.057   3.301   7.360 -2.3012 -1.8910  0.1327
   38POPC   H8S 5100   6.906   3.391   7.376  1.7147  1.8121  1.8338
   38POPC   C29 5101   7.067   3.515   7.336 -0.2931  0.5284 -0.2197
   38POPC   H91 5102   7.009   3.599   7.296  0.3095  1.3566  0.6211
   38POPC  C210 5103   7.175   3.543   7.405  0.4346  0.0298 -0.7157
   38POPC  H101 5104   7.200   3.649   7.421 -1.2217  0.1456  1.7298
   38POPC  C211 5105   7.264   3.449   7.483 -0.0968  0.0860  0.3176
   38POPC  H11R 5106   7.370   3.481   7.483 -0.2409  0.5940 -0.4644
   38POPC  H11S 5107   7.258   3.348   7.438  3.9219  0.4263 -1.3906
   38POPC  C212 5108   7.230   3.452   7.633 -0.3740  0.0601 -0.1052
   38POPC  H12R 5109   7.276   3.374   7.697 -0.6111 -0.9866 -1.1530
   38POPC  H12S 5110   7.120   3.451   7.652 -0.0710  1.3200  2.0255
   38POPC  C213 5111   7.253   3.590   7.701  0.3582  0.5586  0.5974
   38POPC  H13R 5112   7.165   3.656   7.688 -0.7822 -0.8895  0.7750
   38POPC  H13S 5113   7.343   3.652   7.681  1.3054 -0.6110  1.0745
   38POPC  C214 5114   7.262   3.558   7.859 -0.1303 -0.3803 -0.5410
   38POPC  H14R 5115   7.190   3.478   7.888 -1.0244  0.4676 -0.3697
   38POPC  H14S 5116   7.232   3.646   7.920 -1.3362 -1.9776  1.2645
   38POPC  C215 5117   7.403   3.517   7.902 -0.0693  0.7374  0.5390
   38POPC  H15R 5118   7.475   3.601   7.894  0.6567  0.1054  0.2285
   38POPC  H15S 5119   7.429   3.443   7.823 -1.0907  0.5450  0.3698
   38POPC  C216 5120   7.401   3.443   8.038 -0.4800 -0.4808  0.0707
   38POPC  H16R 5121   7.499   3.393   8.057 -0.9062 -1.3312  0.0899
   38POPC  H16S 5122   7.338   3.352   8.049  2.4966 -2.9323 -1.6849
   38POPC  C217 5123   7.368   3.529   8.159 -0.4734 -0.8205  0.3341
   38POPC  H17R 5124   7.263   3.564   8.149 -0.1210  0.2126  0.1244
   38POPC  H17S 5125   7.436   3.617   8.155  0.0738 -1.1460  1.9044
   38POPC  C218 5126   7.397   3.455   8.286  0.0988  0.5944 -0.1392
   38POPC  H18R 5127   7.376   3.513   8.379 -2.5612  0.6537 -0.6865
   38POPC  H18S 5128   7.503   3.420   8.284  0.1254  0.3591  2.0040
   38POPC  H18T 5129   7.327   3.370   8.300  0.0650  0.4899 -0.9127
   38POPC   C33 5130   6.048   3.228   6.843  0.6398 -0.3753 -0.3377
   38POPC   H3X 5131   5.985   3.165   6.776  0.2594 -1.2269  0.7993
   38POPC   H3Y 5132   6.017   3.330   6.810  0.1044  0.0004  1.2204
   38POPC   C34 5133   6.013   3.225   6.992  0.6963  0.7673 -0.3500
   38POPC   H4X 5134   5.903   3.211   6.997  0.6343  1.2710 -0.2292
   38POPC   H4Y 5135   6.042   3.318   7.046 -0.6974  0.8772  0.2595
   38POPC   C35 5136   6.081   3.108   7.063  0.3545 -0.6660 -0.5276
   38POPC   H5X 5137   6.184   3.132   7.096  1.1025 -3.1735 -0.7959
   38POPC   H5Y 5138   6.096   3.024   6.992  0.9589 -1.8571  0.9444
   38POPC   C36 5139   6.018   3.067   7.198  0.6658  0.5702 -0.1764
   38POPC   H6X 5140   5.921   3.017   7.174  0.4387  0.8859  0.0658
   38POPC   H6Y 5141   6.010   3.166   7.247 -2.6103  0.7286 -0.7875
   38POPC   C37 5142   6.101   2.959   7.268  0.3394 -0.4970 -0.0194
   38POPC   H7X 5143   6.205   2.995   7.272  0.3492 -0.6233  0.8914
   38POPC   H7Y 5144   6.097   2.863   7.212 -1.4234 -1.2469  1.2795
   38POPC   C38 5145   6.066   2.933   7.413  0.0085 -0.2643  0.0014
   38POPC   H8X 5146   6.064   3.031   7.465 -4.5379  0.2229 -0.6441
   38POPC   H8Y 5147   6.130   2.847   7.443 -0.4355 -0.4092  0.5483
   38POPC   C39 5148   5.919   2.895   7.441 -0.2902 -0.0601 -0.5707
   38POPC   H9X 5149   5.894   2.804   7.383  1.2159 -1.2395  0.5569
   38POPC   H9Y 5150   5.852   2.978   7.407 -1.5395 -1.2040 -1.0083
   38POPC  C310 5151   5.891   2.847   7.589  0.3907 -0.7068  0.7042
   38POPC  H10X 5152   5.976   2.787   7.627 -0.1430 -0.5137  2.2475
   38POPC  H10Y 5153   5.805   2.777   7.589  1.1668 -1.6828  0.9912
   38POPC  C311 5154   5.861   2.966   7.679 -0.2496 -0.3151 -0.7151
   38POPC  H11X 5155   5.797   3.041   7.628 -1.7485 -0.3016  1.1021
   38POPC  H11Y 5156   5.958   3.021   7.689 -1.7040  2.6738 -1.6680
   38POPC  C312 5157   5.786   2.927   7.806 -0.2557  1.0445  0.0195
   38POPC  H12X 5158   5.722   2.836   7.806 -1.7300  2.0521 -0.5988
   38POPC  H12Y 5159   5.713   3.006   7.833 -1.7646  0.1745 -1.3124
   38POPC  C313 5160   5.886   2.919   7.925  0.1680  0.0664  0.4570
   38POPC  H13X 5161   5.982   2.890   7.878 -0.6407 -0.8618 -0.6968
   38POPC  H13Y 5162   5.847   2.838   7.990  0.8592 -0.0401  0.7467
   38POPC  C314 5163   5.894   3.047   8.008 -0.3009 -0.3591 -0.5665
   38POPC  H14X 5164   5.797   3.047   8.062 -0.2148  0.2247 -0.3997
   38POPC  H14Y 5165   5.892   3.137   7.943 -0.5235 -1.3455 -1.9752
   38POPC  C315 5166   6.016   3.053   8.105  0.6402 -0.1839 -0.6280
   38POPC  H15X 5167   6.026   3.157   8.144 -2.7646 -0.2198  0.6965
   38POPC  H15Y 5168   6.104   3.019   8.048  0.9214 -0.1061 -0.2454
   38POPC  C316 5169   5.989   2.960   8.225 -0.3945 -0.2276 -0.0146
   38POPC  H16X 5170   6.076   2.967   8.294  0.9242  0.5455 -1.6558
   38POPC  H16Y 5171   5.992   2.855   8.190  0.4332  0.2389 -1.4333
   38POPC  H16Z 5172   5.903   2.986   8.290  0.3017  0.1578  0.7867
   39POPC     N 5173   5.298   0.846   5.989  0.5408  0.2676 -0.5590
   39POPC   C12 5174   5.258   0.733   6.088 -1.0456  0.8736 -0.1118
   39POPC  H12A 5175   5.345   0.711   6.149  0.9496  0.1395 -3.0128
   39POPC  H12B 5176   5.256   0.643   6.029  0.1977  0.5843  0.2549
   39POPC   C13 5177   5.199   0.854   5.878 -0.4261  0.1277  0.1926
   39POPC  H13A 5178   5.225   0.937   5.815  2.4444 -0.5453  0.3565
   39POPC  H13B 5179   5.195   0.769   5.811  2.0369  0.3443 -0.3128
   39POPC  H13C 5180   5.106   0.859   5.932 -0.0096 -1.9452  1.2052
   39POPC   C14 5181   5.303   0.970   6.063  0.3695  0.2387  0.2381
   39POPC  H14A 5182   5.199   0.978   6.093  0.0863 -0.3047 -0.5712
   39POPC  H14B 5183   5.356   0.964   6.157 -1.0761  0.7948  1.1266
   39POPC  H14C 5184   5.327   1.062   6.013 -0.2855  0.2873 -0.0032
   39POPC   C15 5185   5.432   0.824   5.930  0.5160 -0.9078 -0.2083
   39POPC  H15A 5186   5.505   0.804   6.007  0.5774  0.5128  0.1218
   39POPC  H15B 5187   5.459   0.911   5.871 -2.6081 -1.0609 -2.0936
   39POPC  H15C 5188   5.420   0.751   5.850 -0.2004 -2.1985  1.0350
   39POPC   C11 5189   5.128   0.755   6.179  0.3285 -0.0044 -0.1850
   39POPC  H11A 5190   5.152   0.842   6.244  4.2274 -2.0199  1.3997
   39POPC  H11B 5191   5.133   0.667   6.246  2.1247  1.3029  1.5330
   39POPC     P 5192   4.903   0.880   6.147 -0.4067  0.0015  0.4542
   39POPC   O13 5193   4.800   0.891   6.043 -0.1638  0.4058 -0.2641
   39POPC   O14 5194   4.970   1.007   6.176  0.4547 -0.3868  0.1563
   39POPC   O12 5195   5.005   0.762   6.107  0.4386 -0.4048  0.5026
   39POPC   O11 5196   4.834   0.820   6.275  0.5464  0.7138 -0.0844
   39POPC    C1 5197   4.787   0.906   6.382  0.0757 -0.6800 -0.6045
   39POPC    HA 5198   4.691   0.867   6.422  0.9006 -0.1500  2.0516
   39POPC    HB 5199   4.759   1.010   6.356 -1.8675 -0.5811  1.5873
   39POPC    C2 5200   4.897   0.925   6.488 -0.1092  0.4150 -0.3474
   39POPC    HS 5201   4.967   1.004   6.453  0.9752  0.1306  1.0992
   39POPC   O21 5202   4.976   0.804   6.506  0.1732 -0.1997  0.0403
   39POPC   C21 5203   5.104   0.816   6.543 -0.1759  0.0095  0.3913
   39POPC   O22 5204   5.170   0.919   6.554  0.0872 -0.0750  0.6170
   39POPC   C22 5205   5.158   0.674   6.565 -0.1479 -0.5115 -0.0168
   39POPC   H2R 5206   5.194   0.629   6.470  0.8958 -0.3876  0.3067
   39POPC   H2S 5207   5.070   0.622   6.607  0.6904 -0.2615  2.2078
   39POPC    C3 5208   4.829   0.969   6.617 -0.3552  0.4133 -0.3324
   39POPC    HX 5209   4.742   0.903   6.638  2.2653 -2.7549  1.3476
   39POPC    HY 5210   4.786   1.070   6.598  1.8070  1.8190  1.6428
   39POPC   O31 5211   4.917   0.982   6.726 -0.3075 -0.3770 -0.9085
   39POPC   C31 5212   4.911   1.092   6.802 -0.2604  0.8286  0.5480
   39POPC   O32 5213   4.815   1.164   6.800  0.0464 -0.6121  1.0062
   39POPC   C32 5214   5.037   1.107   6.888  0.5670  0.3517  0.1208
   39POPC   H2X 5215   5.091   1.011   6.904 -1.4800 -0.8760 -0.1096
   39POPC   H2Y 5216   5.107   1.176   6.836  0.6633  0.6542  0.6399
   39POPC   C23 5217   5.274   0.675   6.665  0.4907  0.3845  0.3977
   39POPC   H3R 5218   5.242   0.730   6.756 -2.8492  0.6480 -0.8311
   39POPC   H3S 5219   5.353   0.741   6.623  0.4487  0.5231  0.5366
   39POPC   C24 5220   5.338   0.534   6.687 -0.1880  0.1760 -0.0635
   39POPC   H4R 5221   5.358   0.492   6.586  1.3061  1.3431 -0.2881
   39POPC   H4S 5222   5.269   0.468   6.745  0.5711  0.4833  1.2414
   39POPC   C25 5223   5.469   0.541   6.773 -0.4457  0.0133 -0.6870
   39POPC   H5R 5224   5.454   0.610   6.859  0.5904 -1.3409  0.6147
   39POPC   H5S 5225   5.557   0.577   6.715  0.2288 -0.2676  0.1367
   39POPC   C26 5226   5.506   0.400   6.830  0.4669  0.4597  0.7548
   39POPC   H6R 5227   5.527   0.334   6.743 -1.6313 -2.0405  1.9862
   39POPC   H6S 5228   5.414   0.351   6.869  1.5476 -2.1587  0.2067
   39POPC   C27 5229   5.623   0.394   6.934 -0.4883 -0.4103  0.1952
   39POPC   H7R 5230   5.714   0.440   6.890  0.2364 -1.3647  0.6724
   39POPC   H7S 5231   5.643   0.290   6.965 -1.2446 -1.9826 -4.0251
   39POPC   C28 5232   5.601   0.469   7.067  0.2915 -0.1064 -0.0588
   39POPC   H8R 5233   5.560   0.571   7.048 -1.0206 -0.2834  1.6739
   39POPC   H8S 5234   5.699   0.480   7.119  1.2084  0.3090 -1.7841
   39POPC   C29 5235   5.512   0.373   7.153  0.3083 -0.2343  0.5011
   39POPC   H91 5236   5.423   0.342   7.097  0.4137  1.1540 -0.5139
   39POPC  C210 5237   5.533   0.339   7.279 -0.4024  0.0546 -0.1192
   39POPC  H101 5238   5.455   0.278   7.328 -0.2752  0.6257  0.8139
   39POPC  C211 5239   5.639   0.377   7.379  0.2101 -0.3899  0.2685
   39POPC  H11R 5240   5.731   0.388   7.318 -1.2913  0.7980 -1.9678
   39POPC  H11S 5241   5.650   0.301   7.458  1.0971 -0.2990  0.2420
   39POPC  C212 5242   5.607   0.511   7.439  0.5522 -0.1449 -0.6533
   39POPC  H12R 5243   5.575   0.591   7.368  3.1426 -1.3328 -3.3424
   39POPC  H12S 5244   5.689   0.549   7.504  0.2543 -1.2318  0.4021
   39POPC  C213 5245   5.486   0.515   7.540 -0.4863  0.6762  0.1110
   39POPC  H13R 5246   5.403   0.459   7.489  0.0924  1.6080 -1.9527
   39POPC  H13S 5247   5.458   0.620   7.560  1.9640  1.5012 -0.4426
   39POPC  C214 5248   5.505   0.440   7.677  0.5931  0.4342 -0.0039
   39POPC  H14R 5249   5.576   0.503   7.735 -1.0439  0.6304  1.8609
   39POPC  H14S 5250   5.552   0.340   7.665  0.7779  0.5454 -0.2247
   39POPC  C215 5251   5.379   0.447   7.765 -0.6630 -0.1127 -0.1586
   39POPC  H15R 5252   5.304   0.369   7.740 -0.2713 -0.3663 -0.5575
   39POPC  H15S 5253   5.328   0.544   7.745 -0.9925 -0.7563 -2.7711
   39POPC  C216 5254   5.406   0.446   7.922  0.3071  0.5457 -0.1712
   39POPC  H16R 5255   5.313   0.478   7.974 -0.6350 -0.9912 -0.8339
   39POPC  H16S 5256   5.485   0.518   7.953  0.8007 -0.7354  1.7262
   39POPC  C217 5257   5.440   0.305   7.979  0.3558 -0.0774  0.3508
   39POPC  H17R 5258   5.544   0.286   7.947 -0.4078 -1.5672 -1.3861
   39POPC  H17S 5259   5.368   0.236   7.929  0.7339 -1.2199  1.3526
   39POPC  C218 5260   5.428   0.296   8.134 -0.0528  0.1843  0.2252
   39POPC  H18R 5261   5.323   0.287   8.170  0.1464 -1.8375  0.4497
   39POPC  H18S 5262   5.467   0.388   8.183 -1.4053 -0.1077  1.9752
   39POPC  H18T 5263   5.476   0.207   8.180 -0.2700 -0.6007 -1.0308
   39POPC   C33 5264   5.014   1.158   7.030  0.3222 -0.8993 -1.1401
   39POPC   H3X 5265   5.092   1.128   7.103 -0.2903  1.8263  0.7814
   39POPC   H3Y 5266   4.917   1.126   7.072  1.3890 -2.6541  0.1079
   39POPC   C34 5267   5.002   1.319   7.037 -0.1602  1.3148  0.1036
   39POPC   H4X 5268   4.901   1.357   7.012 -1.1630 -0.2662  1.5838
   39POPC   H4Y 5269   5.054   1.353   6.944  0.6853 -1.1217 -0.4066
   39POPC   C35 5270   5.053   1.383   7.163 -0.0810 -1.2809  0.4569
   39POPC   H5X 5271   5.072   1.491   7.148 -1.0698 -0.6971  2.8813
   39POPC   H5Y 5272   5.155   1.342   7.176  0.7812  0.9483  1.2086
   39POPC   C36 5273   4.951   1.365   7.275  0.6970 -0.3012 -0.7998
   39POPC   H6X 5274   4.921   1.260   7.256 -0.4844 -0.3625  1.1777
   39POPC   H6Y 5275   4.871   1.441   7.269 -1.1298 -1.5791  3.3911
   39POPC   C37 5276   5.018   1.375   7.411 -0.4942 -0.4647 -0.3909
   39POPC   H7X 5277   5.085   1.463   7.415  0.7235 -1.3489  3.1160
   39POPC   H7Y 5278   5.087   1.289   7.426 -2.9052 -2.5987 -0.8055
   39POPC   C38 5279   4.920   1.364   7.523  0.0268 -0.5452  0.3188
   39POPC   H8X 5280   4.830   1.315   7.481 -0.1699  0.4052 -0.4068
   39POPC   H8Y 5281   4.891   1.468   7.550  0.5207 -0.4352  0.4392
   39POPC   C39 5282   4.972   1.290   7.649 -0.4924  0.1830  0.1976
   39POPC   H9X 5283   5.078   1.318   7.665 -0.2781 -0.4006 -0.1684
   39POPC   H9Y 5284   4.974   1.180   7.635 -0.9761  0.3449 -1.3815
   39POPC  C310 5285   4.896   1.342   7.768  0.4193  0.4326  0.1074
   39POPC  H10X 5286   4.795   1.294   7.768  1.0498 -1.0588  2.4859
   39POPC  H10Y 5287   4.884   1.452   7.764 -0.9398  0.3792  1.6092
   39POPC  C311 5288   4.948   1.311   7.907  0.5257 -0.1613  0.1152
   39POPC  H11X 5289   5.043   1.368   7.919  0.5919  0.1306 -1.5725
   39POPC  H11Y 5290   4.962   1.201   7.916  0.1733 -0.4063 -2.0183
   39POPC  C312 5291   4.842   1.343   8.012  0.0757  0.4268  0.7684
   39POPC  H12X 5292   4.742   1.303   7.982 -0.0582 -0.1858  1.9786
   39POPC  H12Y 5293   4.819   1.451   8.016 -0.7749  0.3185 -0.5447
   39POPC  C313 5294   4.892   1.281   8.140  0.8714  0.4253  0.5300
   39POPC  H13X 5295   4.989   1.324   8.171  0.2193  1.8101  0.7431
   39POPC  H13Y 5296   4.898   1.170   8.135 -1.6178  0.2092  0.7254
   39POPC  C314 5297   4.793   1.307   8.253 -0.4088  0.1657 -0.4337
   39POPC  H14X 5298   4.688   1.275   8.233  1.0385 -3.5199 -3.2692
   39POPC  H14Y 5299   4.786   1.418   8.262 -0.8686  0.2638 -1.8019
   39POPC  C315 5300   4.844   1.263   8.390  0.5243 -0.1671 -0.7112
   39POPC  H15X 5301   4.953   1.279   8.406  0.4546 -0.8694  0.6637
   39POPC  H15Y 5302   4.827   1.153   8.401  3.8474 -0.6360  1.4259
   39POPC  C316 5303   4.780   1.335   8.507 -0.7279  0.3064  0.7798
   39POPC  H16X 5304   4.672   1.313   8.492 -0.6126 -0.4634  1.0242
   39POPC  H16Y 5305   4.791   1.445   8.497 -1.3120  0.2840 -0.2012
   39POPC  H16Z 5306   4.809   1.304   8.609 -2.3145 -2.1634  0.5563
   40POPC     N 5307   2.701   6.174   6.168 -0.3434 -0.1075  0.6628
   40POPC   C12 5308   2.657   6.093   6.051  0.0530  0.1056  0.9210
   40POPC  H12A 5309   2.742   6.075   5.987 -0.1578 -0.0025  0.6653
   40POPC  H12B 5310   2.577   6.146   6.002  0.2154 -0.7113 -0.2779
   40POPC   C13 5311   2.748   6.308   6.124  0.5527 -0.8240  0.1542
   40POPC  H13A 5312   2.790   6.378   6.195 -0.7860  0.7734 -0.5395
   40POPC  H13B 5313   2.827   6.283   6.055  2.4101  1.3486  1.3194
   40POPC  H13C 5314   2.669   6.361   6.072  0.3288 -0.6608  0.6482
   40POPC   C14 5315   2.582   6.204   6.265 -0.8398 -0.0399  0.3272
   40POPC  H14A 5316   2.620   6.266   6.345  0.6406  1.2295 -1.3099
   40POPC  H14B 5317   2.494   6.247   6.220 -2.1424  0.1744  2.8405
   40POPC  H14C 5318   2.545   6.111   6.307 -2.3514  0.8908  1.1680
   40POPC   C15 5319   2.808   6.108   6.243  0.0230  0.3128 -0.0314
   40POPC  H15A 5320   2.776   6.010   6.275 -0.8724  0.7095  0.3078
   40POPC  H15B 5321   2.846   6.166   6.326  2.0093 -1.5467  0.4633
   40POPC  H15C 5322   2.889   6.097   6.172 -1.5186 -1.7720 -1.5970
   40POPC   C11 5323   2.593   5.963   6.077 -0.0256 -0.2454 -0.1377
   40POPC  H11A 5324   2.552   5.921   5.982  0.7968 -0.8907 -0.2141
   40POPC  H11B 5325   2.500   5.987   6.133 -1.4196 -1.4530 -1.8265
   40POPC     P 5326   2.628   5.738   6.200  0.1342  0.4738 -0.1252
   40POPC   O13 5327   2.746   5.672   6.261  0.4438 -0.4072 -0.1557
   40POPC   O14 5328   2.546   5.665   6.105  0.5583 -0.3780  0.3356
   40POPC   O12 5329   2.681   5.866   6.126  0.3741 -0.3659 -0.0248
   40POPC   O11 5330   2.537   5.795   6.320  0.1385  0.8773  0.8499
   40POPC    C1 5331   2.402   5.742   6.318 -0.0569  0.0015  0.0694
   40POPC    HA 5332   2.403   5.647   6.377  0.7732  0.3732  0.6606
   40POPC    HB 5333   2.358   5.728   6.217  2.8811 -0.1539 -1.2755
   40POPC    C2 5334   2.305   5.824   6.402  0.4606 -0.4547  0.3118
   40POPC    HS 5335   2.258   5.897   6.333 -1.1683 -0.5857  1.2162
   40POPC   O21 5336   2.375   5.895   6.508 -0.3990 -0.0209 -0.3579
   40POPC   C21 5337   2.295   5.979   6.577  0.3756  0.1779 -0.8138
   40POPC   O22 5338   2.196   6.030   6.534 -0.2241 -0.5107 -0.8255
   40POPC   C22 5339   2.338   5.991   6.720 -0.7319 -0.0714 -1.1536
   40POPC   H2R 5340   2.373   5.891   6.755  0.4686  0.9306  0.6399
   40POPC   H2S 5341   2.251   6.029   6.777  0.8687  1.8670  0.1278
   40POPC    C3 5342   2.179   5.747   6.448 -0.0699 -0.0233 -0.5271
   40POPC    HX 5343   2.152   5.675   6.368  0.4591 -1.3845  0.4788
   40POPC    HY 5344   2.095   5.821   6.448 -0.9202 -0.8700  1.8916
   40POPC   O31 5345   2.190   5.694   6.587 -0.1394 -0.2057 -0.3977
   40POPC   C31 5346   2.222   5.562   6.600 -0.2862 -0.1645  0.0519
   40POPC   O32 5347   2.208   5.484   6.511 -0.1020 -0.4645 -0.1590
   40POPC   C32 5348   2.273   5.536   6.744 -0.6519 -0.2870 -0.1304
   40POPC   H2X 5349   2.384   5.542   6.742 -0.2568 -2.6875  3.5630
   40POPC   H2Y 5350   2.246   5.433   6.777  0.4563  0.1041  2.2794
   40POPC   C23 5351   2.449   6.096   6.730 -0.5200  0.3930  0.1618
   40POPC   H3R 5352   2.395   6.192   6.721 -0.5508  0.4501  0.9571
   40POPC   H3S 5353   2.504   6.103   6.633 -2.5368  0.7007 -0.9974
   40POPC   C24 5354   2.535   6.103   6.865 -0.3765 -0.6307  0.3008
   40POPC   H4R 5355   2.622   6.171   6.853  1.4189 -2.7933  0.5162
   40POPC   H4S 5356   2.585   6.005   6.878 -0.5396 -0.6938  0.4511
   40POPC   C25 5357   2.454   6.129   6.987 -0.4500 -0.5345 -0.1784
   40POPC   H5R 5358   2.366   6.063   6.974 -0.5373 -0.2606 -1.0561
   40POPC   H5S 5359   2.416   6.233   6.996 -0.5103 -0.6898  1.8131
   40POPC   C26 5360   2.521   6.078   7.117  1.0350 -0.5881  0.4287
   40POPC   H6R 5361   2.604   6.144   7.149  0.1721  0.1845  1.1003
   40POPC   H6S 5362   2.576   5.985   7.088  0.2710 -1.5928  2.0624
   40POPC   C27 5363   2.415   6.054   7.237  0.3222  0.8311 -0.9241
   40POPC   H7R 5364   2.451   5.985   7.316 -3.2347  1.7423  1.7130
   40POPC   H7S 5365   2.327   6.002   7.194 -0.0867  0.0345  0.8028
   40POPC   C28 5366   2.365   6.174   7.326  0.1717  0.0693 -0.1783
   40POPC   H8R 5367   2.315   6.248   7.261 -0.9715  0.6251  1.2703
   40POPC   H8S 5368   2.458   6.227   7.356  1.2790 -1.7074 -0.2883
   40POPC   C29 5369   2.279   6.131   7.439  0.6752 -0.6550 -0.3705
   40POPC   H91 5370   2.197   6.059   7.428 -0.8379  0.1565  3.8459
   40POPC  C210 5371   2.306   6.163   7.569  0.5752 -0.5964 -0.1600
   40POPC  H101 5372   2.234   6.142   7.649 -1.9196 -1.5241 -2.4848
   40POPC  C211 5373   2.426   6.241   7.615  0.1043  0.2555  0.0071
   40POPC  H11R 5374   2.390   6.343   7.640  0.4912  0.0002  1.6986
   40POPC  H11S 5375   2.501   6.266   7.537  0.9861 -0.7551  0.5030
   40POPC  C212 5376   2.493   6.177   7.740  0.4135  0.0389 -0.2020
   40POPC  H12R 5377   2.588   6.235   7.753 -0.7577  2.2328 -0.9216
   40POPC  H12S 5378   2.524   6.075   7.710 -1.5839 -0.9556  0.8888
   40POPC  C213 5379   2.414   6.177   7.875  0.2559 -0.0009 -0.1353
   40POPC  H13R 5380   2.322   6.115   7.871  1.7454 -2.2949 -0.9357
   40POPC  H13S 5381   2.390   6.285   7.883 -1.2532 -0.3287  0.0354
   40POPC  C214 5382   2.500   6.135   8.000  0.5661 -0.0229  0.4087
   40POPC  H14R 5383   2.583   6.208   8.010  1.1339 -0.6173  0.1618
   40POPC  H14S 5384   2.534   6.031   7.978  1.3235  0.3103 -0.0146
   40POPC  C215 5385   2.434   6.130   8.132 -0.7421  0.8208 -0.2503
   40POPC  H15R 5386   2.345   6.195   8.124  0.0385  2.1623  1.5322
   40POPC  H15S 5387   2.494   6.177   8.212 -1.7138  1.5299  0.0823
   40POPC  C216 5388   2.388   5.992   8.182  0.3795  0.6338  0.1510
   40POPC  H16R 5389   2.473   5.921   8.193 -0.9205 -1.1238 -0.5184
   40POPC  H16S 5390   2.308   5.960   8.112 -0.7344  2.4798  0.5144
   40POPC  C217 5391   2.322   6.008   8.320 -0.1603  0.1938  0.4659
   40POPC  H17R 5392   2.268   6.104   8.317 -0.5529 -0.0305  0.3057
   40POPC  H17S 5393   2.407   6.014   8.391  1.4887  1.2632 -1.4718
   40POPC  C218 5394   2.226   5.892   8.368  0.0328  0.2448 -0.0147
   40POPC  H18R 5395   2.283   5.797   8.368 -0.6654 -0.2197 -1.8799
   40POPC  H18S 5396   2.147   5.879   8.291 -0.5222  1.9460  0.2143
   40POPC  H18T 5397   2.191   5.919   8.469  1.6138 -1.5774  1.0890
   40POPC   C33 5398   2.226   5.633   6.859  0.3341  0.2264 -0.0452
   40POPC   H3X 5399   2.124   5.671   6.836  0.3324  0.6300  0.6007
   40POPC   H3Y 5400   2.286   5.726   6.856  1.2089 -0.1340  2.8719
   40POPC   C34 5401   2.233   5.567   6.997  0.4194  0.7499 -0.9486
   40POPC   H4X 5402   2.334   5.526   7.023 -0.1490  0.3586  0.8160
   40POPC   H4Y 5403   2.152   5.494   7.017 -0.0799  1.4831 -0.2152
   40POPC   C35 5404   2.212   5.665   7.109 -0.1579  0.0044  0.3762
   40POPC   H5X 5405   2.112   5.713   7.117  1.0557  2.8518 -0.4019
   40POPC   H5Y 5406   2.279   5.751   7.089 -2.7100  1.8036 -1.0064
   40POPC   C36 5407   2.249   5.598   7.247 -0.2717 -0.4863 -0.0164
   40POPC   H6X 5408   2.355   5.566   7.247 -0.0784 -0.0595  2.5728
   40POPC   H6Y 5409   2.189   5.505   7.243 -0.2748 -0.4483 -1.0650
   40POPC   C37 5410   2.229   5.686   7.365  0.1247 -0.5497 -0.6906
   40POPC   H7X 5411   2.127   5.731   7.359  0.5875  0.3440 -3.1375
   40POPC   H7Y 5412   2.311   5.761   7.366 -0.6463  0.6537  4.7056
   40POPC   C38 5413   2.248   5.607   7.501  0.6957 -0.1055 -0.0745
   40POPC   H8X 5414   2.334   5.538   7.485  0.3085 -0.5966 -0.0871
   40POPC   H8Y 5415   2.153   5.551   7.516  1.1319 -1.0708 -0.7767
   40POPC   C39 5416   2.280   5.704   7.612  0.5898  0.9096 -0.1579
   40POPC   H9X 5417   2.185   5.760   7.625 -0.7721 -1.1326 -0.6875
   40POPC   H9Y 5418   2.364   5.770   7.582  0.5624  0.7750 -0.5411
   40POPC  C310 5419   2.324   5.619   7.732 -0.5534 -0.4470 -0.2130
   40POPC  H10X 5420   2.420   5.569   7.707 -0.1715 -0.9468  2.0377
   40POPC  H10Y 5421   2.248   5.542   7.758  0.2613 -1.0216  0.5070
   40POPC  C311 5422   2.339   5.702   7.864  0.8682  0.2893 -0.1826
   40POPC  H11X 5423   2.242   5.744   7.900  0.5277 -0.4155 -0.2652
   40POPC  H11Y 5424   2.405   5.789   7.840 -0.7082  0.9856 -2.2313
   40POPC  C312 5425   2.384   5.629   7.991  0.6372  0.0432 -0.4374
   40POPC  H12X 5426   2.356   5.690   8.079 -1.6680 -0.2528 -0.8950
   40POPC  H12Y 5427   2.495   5.627   7.990  0.7912  3.3317 -0.3024
   40POPC  C313 5428   2.325   5.485   8.010  0.1368  0.0532 -0.3408
   40POPC  H13X 5429   2.350   5.417   7.926 -0.1737  0.8033 -1.0601
   40POPC  H13Y 5430   2.216   5.507   8.008  0.2195  0.5018 -0.1541
   40POPC  C314 5431   2.360   5.430   8.147 -0.1952  0.3493  0.1878
   40POPC  H14X 5432   2.279   5.367   8.190 -0.0009  0.7335  1.1560
   40POPC  H14Y 5433   2.359   5.510   8.224  2.8057  1.4368 -0.7329
   40POPC  C315 5434   2.494   5.356   8.156  0.7163 -0.4644  0.9557
   40POPC  H15X 5435   2.581   5.423   8.138  0.3223  0.4065  2.1617
   40POPC  H15Y 5436   2.484   5.266   8.091  0.1133  0.7185 -0.6480
   40POPC  C316 5437   2.513   5.322   8.303  0.2528  0.0861 -0.7323
   40POPC  H16X 5438   2.610   5.270   8.320 -0.2290 -1.1766 -1.6311
   40POPC  H16Y 5439   2.429   5.254   8.328  0.8101 -0.4742 -0.3512
   40POPC  H16Z 5440   2.512   5.409   8.372 -0.4978  0.3773 -1.1046
   41CHL1    C3 5441   2.936   2.196  10.153  0.2992 -0.0882 -0.3614
   41CHL1    H3 5442   3.023   2.263  10.135  0.3785  0.3574  1.4866
   41CHL1    O3 5443   2.916   2.175  10.292  0.0140  0.4523 -0.2052
   41CHL1   H3' 5444   2.845   2.113  10.309  1.5757 -1.0412  1.2060
   41CHL1    C4 5445   2.812   2.267  10.098 -0.6182  0.6410  0.1550
   41CHL1   H4A 5446   2.721   2.216  10.138  0.7183 -1.9565  0.0818
   41CHL1   H4B 5447   2.802   2.364  10.151 -0.3068  0.8509 -0.1635
   41CHL1    C5 5448   2.833   2.281   9.947 -0.5211 -0.6998 -0.2434
   41CHL1    C6 5449   2.832   2.408   9.895  0.0750  0.7163  0.5815
   41CHL1    H6 5450   2.815   2.489   9.968 -1.2491  0.4314  0.6120
   41CHL1    C7 5451   2.831   2.427   9.750 -0.0265  0.2013  0.4717
   41CHL1   H7A 5452   2.754   2.500   9.715  1.2923  1.0389 -0.7833
   41CHL1   H7B 5453   2.925   2.476   9.718 -0.7258  0.5851 -1.0888
   41CHL1    C8 5454   2.810   2.302   9.664 -0.3817 -0.7465 -0.5454
   41CHL1    H8 5455   2.704   2.269   9.669 -1.2221  1.9113  0.5845
   41CHL1   C14 5456   2.849   2.334   9.521 -1.1238  0.5808 -0.7543
   41CHL1   H14 5457   2.956   2.364   9.527 -0.9443 -0.1150 -0.3682
   41CHL1   C15 5458   2.787   2.446   9.444 -0.0054 -0.1922 -0.5460
   41CHL1  H15A 5459   2.678   2.442   9.463  0.1617 -3.6145  0.3676
   41CHL1  H15B 5460   2.827   2.546   9.470 -0.7565  0.1972 -0.8697
   41CHL1   C16 5461   2.812   2.420   9.299 -0.5138 -0.1694  0.1839
   41CHL1  H16A 5462   2.714   2.413   9.248  1.0972  1.0302 -3.4755
   41CHL1  H16B 5463   2.875   2.502   9.258  0.6684 -0.7831  0.7106
   41CHL1   C17 5464   2.894   2.290   9.296  0.0166 -0.1540 -0.4609
   41CHL1   H17 5465   2.997   2.326   9.314  0.1812 -0.7052 -0.2628
   41CHL1   C13 5466   2.849   2.215   9.421 -0.0980 -0.6808 -0.1067
   41CHL1   C18 5467   2.701   2.167   9.405  0.1946 -0.5317 -0.4471
   41CHL1  H18A 5468   2.654   2.137   9.501  0.5685 -2.0285 -0.7046
   41CHL1  H18B 5469   2.646   2.251   9.357  1.6130  0.7820  0.1374
   41CHL1  H18C 5470   2.691   2.078   9.338 -1.6201  0.8818 -2.1789
   41CHL1   C12 5471   2.938   2.105   9.478  0.6334  0.6366  0.0536
   41CHL1  H12A 5472   2.934   2.008   9.422 -0.4486  1.8077 -2.0163
   41CHL1  H12B 5473   3.046   2.130   9.470  1.3231 -2.4229 -2.5152
   41CHL1   C11 5474   2.910   2.073   9.630  0.1091  0.1120  0.0102
   41CHL1  H11A 5475   2.811   2.023   9.640 -0.7997  2.0052  1.1412
   41CHL1  H11B 5476   2.982   1.997   9.666 -0.2348 -0.3679 -0.3075
   41CHL1    C9 5477   2.892   2.186   9.719 -0.0081 -0.5407 -0.3701
   41CHL1    H9 5478   2.994   2.228   9.731 -0.8540  1.6164 -0.1717
   41CHL1   C10 5479   2.854   2.150   9.870  0.6984 -0.3752 -0.4065
   41CHL1   C19 5480   2.731   2.060   9.883  0.3746 -0.4436  0.2742
   41CHL1  H19A 5481   2.747   1.968   9.824 -0.3901  0.1130 -0.8444
   41CHL1  H19B 5482   2.720   2.010   9.981 -1.7762  1.6133  1.1721
   41CHL1  H19C 5483   2.636   2.105   9.848 -0.5883 -2.4545  0.2271
   41CHL1    C1 5484   2.968   2.072   9.939  0.0358  0.0867  0.3791
   41CHL1   H1A 5485   2.976   1.965   9.911 -1.5590  0.1945 -0.5790
   41CHL1   H1B 5486   3.061   2.125   9.908  0.9363 -2.5463 -1.8412
   41CHL1    C2 5487   2.954   2.059  10.095 -0.1947 -0.3815  0.6734
   41CHL1   H2A 5488   3.050   2.016  10.131 -0.0465 -0.1732  0.5367
   41CHL1   H2B 5489   2.873   1.994  10.134 -0.7826 -0.1188 -0.0962
   41CHL1   C20 5490   2.885   2.228   9.156  0.8549 -0.4524  0.3704
   41CHL1   H20 5491   2.777   2.202   9.154  1.0484 -1.5217  2.0005
   41CHL1   C21 5492   2.979   2.109   9.159  0.3677 -0.5164  0.3923
   41CHL1  H21A 5493   2.996   2.072   9.055 -0.7680  1.5988 -0.6237
   41CHL1  H21B 5494   2.946   2.025   9.223  2.7004 -0.2849  2.0230
   41CHL1  H21C 5495   3.078   2.149   9.189  0.2457 -0.3893  0.6209
   41CHL1   C22 5496   2.918   2.331   9.046  0.5162  0.1904  0.6972
   41CHL1  H22A 5497   2.852   2.420   9.055  0.5331  0.2909 -0.1010
   41CHL1  H22B 5498   3.022   2.370   9.053  0.4781  0.8602 -1.6215
   41CHL1   C23 5499   2.904   2.275   8.903  0.4096 -0.4110  1.1203
   41CHL1  H23A 5500   2.913   2.362   8.835  0.6193 -0.7526  0.7058
   41CHL1  H23B 5501   2.987   2.205   8.876 -0.3383 -0.5065 -1.1187
   41CHL1   C24 5502   2.760   2.207   8.882 -0.4200  0.1293  0.0933
   41CHL1  H24A 5503   2.773   2.117   8.945 -2.5006  1.6162  2.9118
   41CHL1  H24B 5504   2.686   2.271   8.936  0.6003  0.2328  1.4146
   41CHL1   C25 5505   2.714   2.184   8.743 -0.0243  0.2510  0.7594
   41CHL1   H25 5506   2.763   2.090   8.709  2.8002  2.6653 -2.5694
   41CHL1   C26 5507   2.561   2.160   8.732 -0.3777  0.5035 -0.0571
   41CHL1  H26A 5508   2.526   2.117   8.636  1.4490 -0.5867 -0.3005
   41CHL1  H26B 5509   2.531   2.081   8.804  2.8492 -0.0762  0.8273
   41CHL1  H26C 5510   2.505   2.255   8.743  0.5256  0.9881  0.5576
   41CHL1   C27 5511   2.775   2.286   8.634  0.4691  0.7201  0.4481
   41CHL1  H27A 5512   2.880   2.255   8.614  0.5057  2.0134 -1.6081
   41CHL1  H27B 5513   2.727   2.264   8.537  0.9381  1.6384 -0.0056
   41CHL1  H27C 5514   2.769   2.391   8.669 -0.6854  0.5928  0.6690
   42CHL1    C3 5515   1.701   1.087  10.012 -0.0881 -0.4705 -0.4819
   42CHL1    H3 5516   1.742   0.983  10.009  0.4635 -0.2447 -0.9590
   42CHL1    O3 5517   1.687   1.118  10.152 -0.1154  0.0806 -0.8908
   42CHL1   H3' 5518   1.771   1.151  10.183 -0.5316  0.0103  0.3817
   42CHL1    C4 5519   1.797   1.179   9.935 -0.0051  0.0873  0.4344
   42CHL1   H4A 5520   1.760   1.281   9.961 -1.2734 -0.0127 -0.8316
   42CHL1   H4B 5521   1.890   1.170   9.994 -1.7593  0.7426  3.5236
   42CHL1    C5 5522   1.804   1.156   9.786 -0.4118  1.0290 -0.0767
   42CHL1    C6 5523   1.925   1.140   9.728  0.0535 -0.6169 -0.5749
   42CHL1    H6 5524   2.018   1.149   9.786 -0.8414  1.4908  0.6570
   42CHL1    C7 5525   1.926   1.119   9.583  0.0352 -0.2642  0.0452
   42CHL1   H7A 5526   2.008   1.177   9.535  2.0107 -1.9741  1.1939
   42CHL1   H7B 5527   1.941   1.011   9.563  0.2030  0.1105 -2.1649
   42CHL1    C8 5528   1.802   1.160   9.500  0.4364  0.1201 -0.6111
   42CHL1    H8 5529   1.807   1.270   9.484  1.1005 -0.1472 -2.4188
   42CHL1   C14 5530   1.812   1.105   9.359 -0.5300 -0.2783 -0.1454
   42CHL1   H14 5531   1.832   0.996   9.356  0.3056 -0.1561 -3.2118
   42CHL1   C15 5532   1.939   1.148   9.278  0.1586 -0.5363 -0.7032
   42CHL1  H15A 5533   1.941   1.259   9.285  1.9875 -0.6217  0.5343
   42CHL1  H15B 5534   2.032   1.099   9.313  0.2549 -0.4622 -0.8552
   42CHL1   C16 5535   1.902   1.112   9.132  0.1400 -0.7217  0.0570
   42CHL1  H16A 5536   1.919   1.200   9.066 -0.1641 -1.0362 -0.4413
   42CHL1  H16B 5537   1.956   1.025   9.090 -0.0755 -0.9827  0.3165
   42CHL1   C17 5538   1.742   1.077   9.130 -0.1261 -0.0564  0.0291
   42CHL1   H17 5539   1.733   0.967   9.137  0.2897 -0.0638  0.5535
   42CHL1   C13 5540   1.693   1.134   9.262  0.4199  0.8863  0.3395
   42CHL1   C18 5541   1.678   1.280   9.243 -0.3770 -0.0721  0.0214
   42CHL1  H18A 5542   1.585   1.307   9.189 -0.0536 -0.8806 -0.9667
   42CHL1  H18B 5543   1.676   1.334   9.341 -0.3039 -3.0263  1.7779
   42CHL1  H18C 5544   1.764   1.324   9.189  0.0162 -0.8743 -0.0067
   42CHL1   C12 5545   1.567   1.075   9.333 -0.7145 -0.0532 -0.6338
   42CHL1  H12A 5546   1.468   1.095   9.286 -1.3437  1.8211  1.3254
   42CHL1  H12B 5547   1.577   0.965   9.337  1.1756  0.0249 -1.9195
   42CHL1   C11 5548   1.551   1.142   9.476 -0.0001  0.2524  0.3571
   42CHL1  H11A 5549   1.550   1.253   9.468  0.6056  0.2436  0.0765
   42CHL1  H11B 5550   1.456   1.109   9.522  0.4546 -0.9096  0.4904
   42CHL1    C9 5551   1.673   1.115   9.566  0.5098  0.0987 -1.1278
   42CHL1    H9 5552   1.682   1.004   9.567 -0.1596 -0.0033  1.6512
   42CHL1   C10 5553   1.663   1.153   9.716  0.8517 -0.6588  0.3187
   42CHL1   C19 5554   1.617   1.296   9.715 -0.7872 -0.3771 -0.4858
   42CHL1  H19A 5555   1.691   1.360   9.662  1.3335 -1.0795  1.4556
   42CHL1  H19B 5556   1.518   1.312   9.666 -1.8581 -3.6533  0.3681
   42CHL1  H19C 5557   1.622   1.340   9.817  1.5368  1.0679 -1.1506
   42CHL1    C1 5558   1.560   1.066   9.792  0.6575  1.0822  0.9093
   42CHL1   H1A 5559   1.457   1.085   9.758  0.0340 -0.0589  2.0543
   42CHL1   H1B 5560   1.584   0.958   9.782  0.7180  1.2578 -1.1050
   42CHL1    C2 5561   1.559   1.094   9.943 -0.6286  0.5742 -0.3240
   42CHL1   H2A 5562   1.496   1.021   9.998 -0.6862  0.6883 -0.2385
   42CHL1   H2B 5563   1.505   1.190   9.948 -1.2761  0.1860  0.4475
   42CHL1   C20 5564   1.669   1.116   9.000  0.0540  0.1503 -0.1670
   42CHL1   H20 5565   1.687   1.225   8.993 -3.4939  0.8304 -0.6661
   42CHL1   C21 5566   1.518   1.085   9.003  0.1093  0.2628 -0.2843
   42CHL1  H21A 5567   1.466   1.146   9.080  0.5609 -0.5120  0.6752
   42CHL1  H21B 5568   1.505   0.978   9.031  2.6866  0.0316  0.2773
   42CHL1  H21C 5569   1.468   1.102   8.906 -0.2833 -1.6932 -0.4593
   42CHL1   C22 5570   1.737   1.054   8.869  0.6470 -0.1131 -1.0458
   42CHL1  H22A 5571   1.844   1.079   8.881  0.7259 -1.0915  0.5516
   42CHL1  H22B 5572   1.728   0.944   8.877  0.0422 -0.1242 -1.7650
   42CHL1   C23 5573   1.684   1.115   8.744  0.5042  0.1459  0.1862
   42CHL1  H23A 5574   1.576   1.103   8.726  0.0809  2.9956  0.2633
   42CHL1  H23B 5575   1.691   1.226   8.734 -0.6270  0.5049  2.6515
   42CHL1   C24 5576   1.750   1.048   8.621  0.5218  0.4617  0.0033
   42CHL1  H24A 5577   1.858   1.074   8.622  0.5627  0.3385 -0.9351
   42CHL1  H24B 5578   1.741   0.939   8.640  0.0326  0.5873  0.4936
   42CHL1   C25 5579   1.706   1.094   8.481  0.4539  0.4204 -0.4666
   42CHL1   H25 5580   1.610   1.149   8.493  0.9788  1.3918 -0.6139
   42CHL1   C26 5581   1.802   1.199   8.418 -0.6666 -0.6662 -0.3611
   42CHL1  H26A 5582   1.801   1.293   8.478  0.1765 -1.4810  0.9711
   42CHL1  H26B 5583   1.907   1.163   8.415  0.3219  1.8787  0.9669
   42CHL1  H26C 5584   1.764   1.215   8.315 -0.0561 -1.6207 -0.7415
   42CHL1   C27 5585   1.692   0.975   8.377 -0.3000 -0.5812 -0.4278
   42CHL1  H27A 5586   1.658   1.021   8.282  1.9435  0.9984 -0.5539
   42CHL1  H27B 5587   1.789   0.922   8.360  0.4564  1.3751 -2.6572
   42CHL1  H27C 5588   1.618   0.903   8.417  0.3611 -0.0577  1.8584
   43CHL1    C3 5589   2.572   0.994   9.922 -0.1659 -0.6660 -0.7212
   43CHL1    H3 5590   2.647   0.919   9.888  0.5757 -0.9570  1.3804
   43CHL1    O3 5591   2.584   1.014  10.065  0.8336 -0.1009  0.0075
   43CHL1   H3' 5592   2.648   1.083  10.084  0.2670  0.1829  0.9941
   43CHL1    C4 5593   2.599   1.128   9.861 -0.0102 -1.1556  0.1921
   43CHL1   H4A 5594   2.522   1.199   9.899  0.2093 -1.2109  0.7536
   43CHL1   H4B 5595   2.699   1.157   9.899  0.6083 -1.4458 -1.1390
   43CHL1    C5 5596   2.569   1.131   9.715 -0.3821  0.0597 -0.2168
   43CHL1    C6 5597   2.676   1.163   9.638 -0.1840  0.8484  0.2092
   43CHL1    H6 5598   2.766   1.195   9.693  1.3240 -2.2732 -0.2107
   43CHL1    C7 5599   2.681   1.157   9.490 -0.2432  0.3755 -0.2719
   43CHL1   H7A 5600   2.723   1.254   9.455  1.2979 -0.0489  0.3338
   43CHL1   H7B 5601   2.736   1.066   9.461 -2.1433 -0.5185 -1.2158
   43CHL1    C8 5602   2.538   1.151   9.437  1.1269 -0.6866  0.7230
   43CHL1    H8 5603   2.501   1.256   9.449 -0.6638 -1.1100 -0.6024
   43CHL1   C14 5604   2.534   1.126   9.289  0.5199  0.1643 -0.8240
   43CHL1   H14 5605   2.581   1.029   9.265 -0.4338 -0.1896 -1.3085
   43CHL1   C15 5606   2.621   1.223   9.203  0.0793 -0.2489 -0.1961
   43CHL1  H15A 5607   2.609   1.324   9.246  0.9469 -0.4468  0.5420
   43CHL1  H15B 5608   2.731   1.209   9.216 -0.0532 -2.0942 -0.7001
   43CHL1   C16 5609   2.559   1.218   9.061  0.0033 -0.6017 -0.1654
   43CHL1  H16A 5610   2.525   1.321   9.038 -0.2659 -0.5338  0.4968
   43CHL1  H16B 5611   2.619   1.190   8.972 -3.3883 -0.6884 -2.6210
   43CHL1   C17 5612   2.441   1.113   9.073  0.0882 -0.1397 -1.2205
   43CHL1   H17 5613   2.494   1.016   9.062 -0.5639 -0.4597 -1.6322
   43CHL1   C13 5614   2.397   1.122   9.223 -0.0135  0.4536 -0.3189
   43CHL1   C18 5615   2.309   1.250   9.246 -0.2542  0.4127 -0.3112
   43CHL1  H18A 5616   2.359   1.339   9.204 -1.1154  0.2701 -1.7112
   43CHL1  H18B 5617   2.212   1.240   9.193 -0.5651  3.8482 -0.5669
   43CHL1  H18C 5618   2.298   1.266   9.355 -0.1489  1.8772 -0.5063
   43CHL1   C12 5619   2.323   0.992   9.276  0.7389 -0.0579 -0.2526
   43CHL1  H12A 5620   2.220   0.974   9.241  1.4452 -2.8414 -1.1158
   43CHL1  H12B 5621   2.383   0.903   9.245 -1.2383 -1.9265  1.0272
   43CHL1   C11 5622   2.320   0.991   9.429  0.3603  0.4457  0.0919
   43CHL1  H11A 5623   2.238   1.060   9.458 -1.1537 -1.7813  1.4413
   43CHL1  H11B 5624   2.289   0.888   9.457 -0.9174  0.7277 -0.2092
   43CHL1    C9 5625   2.450   1.040   9.503 -0.4215  0.8505 -0.4460
   43CHL1    H9 5626   2.518   0.953   9.493 -0.5006  0.4363  1.9575
   43CHL1   C10 5627   2.436   1.072   9.656 -0.1667  0.5150  0.3197
   43CHL1   C19 5628   2.321   1.169   9.675  0.1543 -0.0583 -0.2344
   43CHL1  H19A 5629   2.318   1.190   9.784  0.0764 -0.1482 -0.2200
   43CHL1  H19B 5630   2.335   1.264   9.620 -0.0262  0.1756  0.1146
   43CHL1  H19C 5631   2.220   1.132   9.647 -1.6255  2.7022  1.9509
   43CHL1    C1 5632   2.409   0.946   9.735  0.3092  0.4055  0.5020
   43CHL1   H1A 5633   2.307   0.915   9.703 -0.3601  2.3848  0.6243
   43CHL1   H1B 5634   2.476   0.866   9.697 -0.7762 -1.2047  1.8213
   43CHL1    C2 5635   2.429   0.948   9.886 -0.4477  0.1527 -0.8186
   43CHL1   H2A 5636   2.407   0.850   9.935  0.2825  0.8480  0.9771
   43CHL1   H2B 5637   2.357   1.016   9.938 -1.6617 -0.1345 -2.0772
   43CHL1   C20 5638   2.330   1.130   8.954 -0.1077 -0.0009 -0.7164
   43CHL1   H20 5639   2.257   1.206   8.986 -0.0076  0.3954 -1.4186
   43CHL1   C21 5640   2.245   1.001   8.952 -0.9964  1.0315  0.1569
   43CHL1  H21A 5641   2.179   0.998   9.041  1.1981 -1.5124  1.8433
   43CHL1  H21B 5642   2.313   0.915   8.968 -2.5125 -0.1042  0.7326
   43CHL1  H21C 5643   2.181   0.992   8.861 -0.6944 -1.2253  0.1178
   43CHL1   C22 5644   2.398   1.163   8.821 -0.1266 -0.1003  0.4919
   43CHL1  H22A 5645   2.434   1.268   8.822 -0.9884  0.2639 -1.3899
   43CHL1  H22B 5646   2.486   1.096   8.808 -2.3083 -2.9021 -0.8943
   43CHL1   C23 5647   2.309   1.144   8.697 -0.1068  0.5299  0.3348
   43CHL1  H23A 5648   2.324   1.041   8.659  0.8426  1.1299 -1.0065
   43CHL1  H23B 5649   2.201   1.152   8.725 -0.4819  0.5275 -1.0235
   43CHL1   C24 5650   2.337   1.242   8.580  0.7910 -0.1002 -0.6455
   43CHL1  H24A 5651   2.324   1.346   8.617 -1.4840  0.0170 -1.6162
   43CHL1  H24B 5652   2.443   1.242   8.547  1.0005 -1.0247  0.0222
   43CHL1   C25 5653   2.255   1.227   8.454  0.0853  0.0027 -0.2396
   43CHL1   H25 5654   2.147   1.247   8.473  0.2625  0.7958 -0.0224
   43CHL1   C26 5655   2.295   1.329   8.339  0.1726  0.2149 -0.5245
   43CHL1  H26A 5656   2.282   1.436   8.366  2.0979  0.5001 -0.5946
   43CHL1  H26B 5657   2.401   1.312   8.311 -0.2231 -0.5100 -1.6296
   43CHL1  H26C 5658   2.229   1.300   8.255 -1.2500 -0.3368  0.7282
   43CHL1   C27 5659   2.260   1.084   8.395  0.0914  0.0652 -0.3182
   43CHL1  H27A 5660   2.227   1.010   8.471 -3.4279  0.9005 -0.8646
   43CHL1  H27B 5661   2.193   1.086   8.307 -1.8041 -0.0919  1.0665
   43CHL1  H27C 5662   2.359   1.072   8.346  0.4030 -0.7974  0.5070
   44CHL1    C3 5663   3.334   2.013  10.289 -0.8416 -0.8270 -0.3088
   44CHL1    H3 5664   3.226   2.038  10.296 -0.7051 -0.4859  0.7790
   44CHL1    O3 5665   3.402   2.011  10.417  0.2896 -0.9515 -0.1646
   44CHL1   H3' 5666   3.418   1.918  10.435  0.6669 -0.6275  1.4009
   44CHL1    C4 5667   3.354   1.876  10.228 -0.3070 -0.1535 -0.4252
   44CHL1   H4A 5668   3.462   1.855  10.241 -0.2602  1.0365  1.4630
   44CHL1   H4B 5669   3.316   1.792  10.289 -2.0770  1.3643  0.6460
   44CHL1    C5 5670   3.324   1.857  10.083  0.0792 -0.2491  0.4898
   44CHL1    C6 5671   3.242   1.762  10.041  0.4577  0.2349  0.1365
   44CHL1    H6 5672   3.203   1.686  10.111  1.3362  0.3189  0.7324
   44CHL1    C7 5673   3.214   1.731   9.899 -0.3863 -0.1249 -0.1377
   44CHL1   H7A 5674   3.217   1.620   9.887 -2.9146 -0.4874  1.7534
   44CHL1   H7B 5675   3.111   1.765   9.876 -0.2392  0.4457  0.0432
   44CHL1    C8 5676   3.309   1.804   9.797 -0.1478 -0.0945 -0.0161
   44CHL1    H8 5677   3.406   1.750   9.799 -0.1682 -0.1070  0.8313
   44CHL1   C14 5678   3.250   1.788   9.665  0.4405 -0.3432 -1.0115
   44CHL1   H14 5679   3.151   1.837   9.659 -0.5516 -2.0832  0.3784
   44CHL1   C15 5680   3.232   1.647   9.622 -0.3444 -0.0195  0.7442
   44CHL1  H15A 5681   3.318   1.582   9.648 -0.6600 -0.5914  0.3829
   44CHL1  H15B 5682   3.144   1.596   9.667  0.1531 -0.9451  0.6973
   44CHL1   C16 5683   3.206   1.661   9.470  0.1726 -0.6346 -0.3581
   44CHL1  H16A 5684   3.278   1.593   9.420 -0.1127 -2.0737  1.0646
   44CHL1  H16B 5685   3.100   1.645   9.443 -0.4368  1.2546  0.7202
   44CHL1   C17 5686   3.241   1.817   9.436 -0.5748 -0.2034 -0.3932
   44CHL1   H17 5687   3.145   1.870   9.448 -0.1527  0.8450 -1.4312
   44CHL1   C13 5688   3.334   1.861   9.552 -0.1421 -0.0590 -0.2049
   44CHL1   C18 5689   3.475   1.792   9.536  0.0332  0.2935  0.0687
   44CHL1  H18A 5690   3.464   1.685   9.509  1.1924 -0.0566  0.8801
   44CHL1  H18B 5691   3.533   1.851   9.461  1.0260 -0.2683  0.3702
   44CHL1  H18C 5692   3.528   1.791   9.634 -5.2125  0.7477  3.2627
   44CHL1   C12 5693   3.350   2.009   9.592  0.1947  0.0656  0.2613
   44CHL1  H12A 5694   3.406   2.069   9.516 -1.7957  1.3293 -0.2850
   44CHL1  H12B 5695   3.248   2.054   9.589  0.7447  1.3606  0.1258
   44CHL1   C11 5696   3.418   2.014   9.733 -0.7190 -0.6253 -0.0963
   44CHL1  H11A 5697   3.520   1.970   9.722  0.1715  0.8945  1.5574
   44CHL1  H11B 5698   3.437   2.121   9.758  1.2446 -1.0973  0.6615
   44CHL1    C9 5699   3.338   1.948   9.840  0.7419  0.0062 -0.4732
   44CHL1    H9 5700   3.246   2.010   9.845  1.0924  0.4827  0.2405
   44CHL1   C10 5701   3.394   1.956   9.989  0.3151 -0.1009  0.4525
   44CHL1   C19 5702   3.546   1.932   9.995  0.2864  0.3440 -0.1338
   44CHL1  H19A 5703   3.558   1.826   9.962 -0.8807 -0.3562  1.5918
   44CHL1  H19B 5704   3.588   2.002   9.920  0.1523 -1.1447 -1.6765
   44CHL1  H19C 5705   3.593   1.942  10.095  0.7797 -3.2417  0.1513
   44CHL1    C1 5706   3.354   2.093  10.049  0.1042  0.5985  0.0704
   44CHL1   H1A 5707   3.409   2.160   9.978 -1.0021  0.4279 -0.9851
   44CHL1   H1B 5708   3.248   2.125  10.037  0.2319  1.6175  1.4770
   44CHL1    C2 5709   3.398   2.118  10.199  0.2684  0.1117 -0.3130
   44CHL1   H2A 5710   3.360   2.218  10.229  1.0055  0.5208 -0.7204
   44CHL1   H2B 5711   3.509   2.124  10.203  0.5401 -2.3191 -1.7784
   44CHL1   C20 5712   3.294   1.834   9.290  0.0660  0.3138  0.7260
   44CHL1   H20 5713   3.371   1.760   9.259 -1.8925 -1.2460 -0.6313
   44CHL1   C21 5714   3.352   1.981   9.260  0.5069  0.7504 -0.2853
   44CHL1  H21A 5715   3.271   2.055   9.278 -0.2129 -0.1007  0.0086
   44CHL1  H21B 5716   3.379   1.985   9.152  1.5129  1.8020 -0.0200
   44CHL1  H21C 5717   3.435   2.009   9.328  0.2049  0.0957  0.3709
   44CHL1   C22 5718   3.166   1.800   9.204  0.6115 -0.0121  0.5793
   44CHL1  H22A 5719   3.125   1.700   9.228  3.4555 -1.4173  0.0367
   44CHL1  H22B 5720   3.098   1.887   9.216  0.1138 -0.4037  0.5975
   44CHL1   C23 5721   3.190   1.786   9.050 -0.5293 -0.0202 -0.5275
   44CHL1  H23A 5722   3.279   1.846   9.019  0.1239 -1.8451 -2.4407
   44CHL1  H23B 5723   3.243   1.688   9.057  0.8037  0.6203 -1.3120
   44CHL1   C24 5724   3.064   1.782   8.968  0.2686  0.1075 -0.9175
   44CHL1  H24A 5725   3.001   1.707   9.020 -0.3669 -0.7873 -2.9142
   44CHL1  H24B 5726   3.029   1.887   8.981  4.1832  1.7322 -1.8499
   44CHL1   C25 5727   3.089   1.748   8.813 -0.2724 -0.6693 -0.6976
   44CHL1   H25 5728   3.172   1.677   8.793  0.4421  0.3586 -1.5247
   44CHL1   C26 5729   2.957   1.690   8.759 -0.9321 -0.5338 -0.6812
   44CHL1  H26A 5730   2.880   1.769   8.772 -0.3911  0.4533 -2.9134
   44CHL1  H26B 5731   2.962   1.672   8.649  1.7185  0.0530 -0.7179
   44CHL1  H26C 5732   2.926   1.596   8.811 -2.4462 -0.0659 -0.6818
   44CHL1   C27 5733   3.127   1.884   8.748 -0.5525 -0.2327  0.0950
   44CHL1  H27A 5734   3.150   1.864   8.641  3.9085 -0.2031  0.8629
   44CHL1  H27B 5735   3.051   1.965   8.746 -0.4562 -0.1558 -1.1057
   44CHL1  H27C 5736   3.225   1.915   8.790 -0.2770  2.9872 -2.4917
   45CHL1    C3 5737   6.495   2.608  10.368  0.0808  0.9430  0.1122
   45CHL1    H3 5738   6.408   2.540  10.380 -0.1391  1.3340  0.8554
   45CHL1    O3 5739   6.540   2.656  10.496 -0.3567  0.0219 -0.2001
   45CHL1   H3' 5740   6.575   2.581  10.545 -0.4740  0.6315  0.8430
   45CHL1    C4 5741   6.617   2.526  10.313 -0.2269 -0.3141 -0.0552
   45CHL1   H4A 5742   6.696   2.603  10.321  1.9142 -2.5207  1.4479
   45CHL1   H4B 5743   6.646   2.445  10.383 -0.8655 -0.1447  0.4122
   45CHL1    C5 5744   6.613   2.479  10.167  0.3389 -0.6284 -0.2079
   45CHL1    C6 5745   6.629   2.351  10.129 -1.1578  0.5493  1.1714
   45CHL1    H6 5746   6.650   2.271  10.202 -2.2769  0.5194  1.4778
   45CHL1    C7 5747   6.608   2.307   9.988  0.3383  0.0862 -0.8210
   45CHL1   H7A 5748   6.693   2.240   9.964  0.0753 -1.9225  3.1206
   45CHL1   H7B 5749   6.517   2.244   9.979  1.1614 -1.2597 -0.0501
   45CHL1    C8 5750   6.588   2.410   9.878  0.3633  0.8288  0.3700
   45CHL1    H8 5751   6.515   2.357   9.813 -1.2241  2.9017  0.3435
   45CHL1   C14 5752   6.709   2.436   9.776 -0.6273  1.0263  0.0156
   45CHL1   H14 5753   6.796   2.459   9.841  0.3589  0.1434 -0.9379
   45CHL1   C15 5754   6.742   2.310   9.688  0.2889 -0.4369 -0.1775
   45CHL1  H15A 5755   6.851   2.322   9.670  0.3191  0.5230  0.5698
   45CHL1  H15B 5756   6.726   2.215   9.744 -1.7956  0.5617  1.0328
   45CHL1   C16 5757   6.658   2.325   9.563 -0.7943 -0.3713  0.3039
   45CHL1  H16A 5758   6.721   2.303   9.474  0.1858 -1.8699  1.3288
   45CHL1  H16B 5759   6.580   2.247   9.565 -1.6272  0.4573  1.6277
   45CHL1   C17 5760   6.583   2.460   9.575  0.5962 -0.3278  0.5488
   45CHL1   H17 5761   6.489   2.432   9.628 -0.1250 -2.8724 -1.8309
   45CHL1   C13 5762   6.675   2.541   9.673 -0.1827  0.7131  0.4096
   45CHL1   C18 5763   6.811   2.568   9.611 -0.0302  0.0034 -0.3845
   45CHL1  H18A 5764   6.810   2.661   9.552 -0.3591  0.1625 -0.1336
   45CHL1  H18B 5765   6.887   2.585   9.691 -0.3956 -0.2692  0.0293
   45CHL1  H18C 5766   6.839   2.490   9.537 -1.7751 -1.7909  0.7405
   45CHL1   C12 5767   6.626   2.669   9.740  0.0463 -1.2709  0.4807
   45CHL1  H12A 5768   6.709   2.704   9.804  0.1561  0.2170 -0.4306
   45CHL1  H12B 5769   6.594   2.746   9.667 -1.9375 -2.9157 -0.4832
   45CHL1   C11 5770   6.503   2.642   9.819 -0.2446 -0.5214  0.0445
   45CHL1  H11A 5771   6.477   2.738   9.869  1.4224  0.4182 -0.8182
   45CHL1  H11B 5772   6.428   2.614   9.742  0.6859  0.3485 -1.2154
   45CHL1    C9 5773   6.516   2.537   9.931  0.1312  0.4119  0.8989
   45CHL1    H9 5774   6.417   2.488   9.943 -0.9377  1.5210 -2.3368
   45CHL1   C10 5775   6.562   2.593  10.068 -0.1512  0.3507  0.0543
   45CHL1   C19 5776   6.674   2.696  10.059  0.1045  0.0254  0.3543
   45CHL1  H19A 5777   6.699   2.730  10.161  1.1556  1.7364 -0.4291
   45CHL1  H19B 5778   6.775   2.656  10.036  0.8374  0.5613  2.4944
   45CHL1  H19C 5779   6.656   2.782   9.990  0.5187  3.8969  4.6285
   45CHL1    C1 5780   6.434   2.661  10.130 -0.1972  0.2804 -0.2434
   45CHL1   H1A 5781   6.387   2.741  10.068 -2.6848  0.3836  1.5806
   45CHL1   H1B 5782   6.363   2.576  10.138 -0.8401  0.9011  0.9375
   45CHL1    C2 5783   6.455   2.723  10.267  0.7643  0.5787 -0.4390
   45CHL1   H2A 5784   6.355   2.759  10.298  0.3197 -1.9003  1.2399
   45CHL1   H2B 5785   6.535   2.800  10.256  0.1498  1.0170 -2.3168
   45CHL1   C20 5786   6.549   2.523   9.440 -0.1359 -0.1360 -0.7148
   45CHL1   H20 5787   6.643   2.579   9.422  0.7805 -0.4513  2.4218
   45CHL1   C21 5788   6.437   2.623   9.446 -0.2734  0.3313  0.1546
   45CHL1  H21A 5789   6.341   2.578   9.480  0.5986 -3.1968 -1.5443
   45CHL1  H21B 5790   6.416   2.674   9.349 -1.0937  1.0011  0.6811
   45CHL1  H21C 5791   6.456   2.702   9.521  2.1169 -1.4658  1.6016
   45CHL1   C22 5792   6.529   2.433   9.317  0.8428 -0.4384 -0.7776
   45CHL1  H22A 5793   6.584   2.337   9.325 -0.6973 -1.2036  1.7614
   45CHL1  H22B 5794   6.419   2.421   9.319  0.5922  1.5828  0.7055
   45CHL1   C23 5795   6.579   2.501   9.184  0.3944 -0.2895 -0.5997
   45CHL1  H23A 5796   6.552   2.608   9.200 -1.2161 -1.0785  2.5934
   45CHL1  H23B 5797   6.690   2.491   9.187  0.6103  1.7461  0.3653
   45CHL1   C24 5798   6.506   2.449   9.055 -0.3072  0.1977  0.1510
   45CHL1  H24A 5799   6.492   2.339   9.055 -0.0475  0.1596  1.0925
   45CHL1  H24B 5800   6.402   2.488   9.050 -0.3386  0.0214 -0.6628
   45CHL1   C25 5801   6.567   2.506   8.926 -1.0954 -0.4137  0.1177
   45CHL1   H25 5802   6.674   2.476   8.928 -0.0381  2.6144 -2.3755
   45CHL1   C26 5803   6.502   2.450   8.801 -0.7491 -0.0567 -0.1390
   45CHL1  H26A 5804   6.559   2.484   8.712  1.6533  0.4368  1.4888
   45CHL1  H26B 5805   6.509   2.340   8.813  0.3108  0.0564  0.4569
   45CHL1  H26C 5806   6.396   2.482   8.795 -0.1242  2.0175 -0.7944
   45CHL1   C27 5807   6.565   2.663   8.925  0.2968  0.9622 -0.0991
   45CHL1  H27A 5808   6.632   2.694   9.009  0.9838 -0.9172  0.0905
   45CHL1  H27B 5809   6.605   2.699   8.828 -0.0460 -1.0238 -1.0117
   45CHL1  H27C 5810   6.463   2.706   8.934  0.4740  1.2150  0.7804
   46CHL1    C3 5811   1.647   6.029  10.107 -0.1725  0.0255  0.3349
   46CHL1    H3 5812   1.537   6.012  10.098 -0.1760  0.2478 -0.0456
   46CHL1    O3 5813   1.675   6.021  10.245 -0.0161  0.4181  0.1173
   46CHL1   H3' 5814   1.594   6.049  10.289 -0.4254  1.9960 -1.5247
   46CHL1    C4 5815   1.726   5.921  10.031 -0.1105 -0.5016 -0.3054
   46CHL1   H4A 5816   1.831   5.940  10.060 -0.1985 -0.3932 -0.0536
   46CHL1   H4B 5817   1.701   5.818  10.065  1.1565 -0.9061 -0.5604
   46CHL1    C5 5818   1.710   5.911   9.884  0.1599 -0.5631  0.7656
   46CHL1    C6 5819   1.661   5.812   9.812 -0.1601 -0.6670  0.2121
   46CHL1    H6 5820   1.631   5.719   9.863 -1.3276  0.3398  1.4264
   46CHL1    C7 5821   1.656   5.814   9.658 -0.2713 -0.8442  0.5669
   46CHL1   H7A 5822   1.677   5.715   9.613  0.3854 -1.6170  2.4893
   46CHL1   H7B 5823   1.549   5.838   9.638 -0.0682  0.0291  0.5096
   46CHL1    C8 5824   1.742   5.934   9.598  0.1311 -0.3891 -0.3887
   46CHL1    H8 5825   1.849   5.912   9.614  0.1995  1.3948  2.1319
   46CHL1   C14 5826   1.705   5.946   9.452 -0.3348  0.3040 -0.5325
   46CHL1   H14 5827   1.597   5.971   9.454 -0.0867  1.4125  1.5320
   46CHL1   C15 5828   1.730   5.828   9.357  0.8256  0.2868  0.2059
   46CHL1  H15A 5829   1.827   5.783   9.386  0.6263 -0.9375 -0.9432
   46CHL1  H15B 5830   1.649   5.751   9.359  0.0667  1.0111 -1.2834
   46CHL1   C16 5831   1.747   5.890   9.217  0.6402  0.1662  0.4228
   46CHL1  H16A 5832   1.846   5.860   9.176  0.9786  0.7848  0.7746
   46CHL1  H16B 5833   1.673   5.851   9.143 -0.0693 -3.0838  2.5896
   46CHL1   C17 5834   1.733   6.045   9.232  0.0305 -0.5246 -0.7615
   46CHL1   H17 5835   1.629   6.083   9.242  1.4206  3.5532  0.5194
   46CHL1   C13 5836   1.781   6.063   9.382  0.1658  0.6730 -0.6821
   46CHL1   C18 5837   1.934   6.049   9.377 -0.2803 -0.5443  0.0003
   46CHL1  H18A 5838   1.975   6.030   9.479 -1.9188 -1.5281  0.5170
   46CHL1  H18B 5839   1.964   5.963   9.314 -0.1374 -0.1839 -0.4275
   46CHL1  H18C 5840   1.980   6.143   9.341  2.0107 -1.0992  1.2580
   46CHL1   C12 5841   1.729   6.199   9.442  0.3740  0.2744 -0.1219
   46CHL1  H12A 5842   1.768   6.287   9.387  0.6040  1.1089  1.3317
   46CHL1  H12B 5843   1.620   6.186   9.431  0.3644  0.0989  0.1571
   46CHL1   C11 5844   1.759   6.197   9.590 -0.4394 -0.1069 -0.6884
   46CHL1  H11A 5845   1.869   6.197   9.605 -0.6666 -1.0810  1.1879
   46CHL1  H11B 5846   1.727   6.279   9.657 -0.6694 -0.7672  0.0305
   46CHL1    C9 5847   1.711   6.063   9.669  0.3281  0.3033  0.0181
   46CHL1    H9 5848   1.600   6.070   9.662  0.1451 -2.6490 -1.2778
   46CHL1   C10 5849   1.759   6.055   9.817 -0.0356  0.0214  0.5090
   46CHL1   C19 5850   1.912   6.074   9.821 -0.7562  0.3220  0.1636
   46CHL1  H19A 5851   1.965   5.999   9.759  2.3639  1.7818  0.8758
   46CHL1  H19B 5852   1.950   6.169   9.778 -1.8024  1.1856  1.0895
   46CHL1  H19C 5853   1.949   6.062   9.924  1.0089  1.2400 -0.3316
   46CHL1    C1 5854   1.684   6.162   9.895 -0.1261 -0.4185 -0.2830
   46CHL1   H1A 5855   1.728   6.261   9.869  0.0016 -0.2929  0.3989
   46CHL1   H1B 5856   1.581   6.161   9.853  0.0886 -1.7218 -0.8285
   46CHL1    C2 5857   1.701   6.159  10.049 -0.3596  0.1794  0.1878
   46CHL1   H2A 5858   1.645   6.245  10.093 -2.9619 -1.0864 -0.4563
   46CHL1   H2B 5859   1.810   6.167  10.070 -0.3761  0.6115  0.1356
   46CHL1   C20 5860   1.800   6.139   9.131  0.2221 -0.1897 -0.1208
   46CHL1   H20 5861   1.844   6.230   9.176 -0.6020  1.3612 -2.3104
   46CHL1   C21 5862   1.685   6.177   9.036  0.2878 -0.1807 -0.0891
   46CHL1  H21A 5863   1.615   6.241   9.094 -0.2376  1.0585 -1.9981
   46CHL1  H21B 5864   1.636   6.092   8.985  0.3406 -0.0430 -0.3746
   46CHL1  H21C 5865   1.717   6.257   8.966 -2.5293  1.1339 -0.0050
   46CHL1   C22 5866   1.905   6.078   9.040  0.6920 -0.1889 -0.3468
   46CHL1  H22A 5867   1.985   6.056   9.113 -1.0005 -0.9440  1.3875
   46CHL1  H22B 5868   1.866   5.994   8.978 -1.3622  1.0371 -0.8244
   46CHL1   C23 5869   1.959   6.172   8.931  0.0952  0.6692  0.0232
   46CHL1  H23A 5870   1.876   6.191   8.861 -1.7902 -0.5570  1.7920
   46CHL1  H23B 5871   1.990   6.267   8.980 -1.5954  0.5843  1.3777
   46CHL1   C24 5872   2.076   6.100   8.867 -0.4433 -0.0233  0.2200
   46CHL1  H24A 5873   2.143   6.097   8.956 -2.8712  0.4897  2.1736
   46CHL1  H24B 5874   2.072   5.991   8.847 -0.5859 -0.0662  0.4864
   46CHL1   C25 5875   2.162   6.183   8.771  0.5340  0.6096  0.3446
   46CHL1   H25 5876   2.111   6.181   8.672  0.4396  0.1999  0.3967
   46CHL1   C26 5877   2.161   6.335   8.810  0.0437  0.2966 -0.0134
   46CHL1  H26A 5878   2.220   6.351   8.903  0.5781  1.3291 -0.5111
   46CHL1  H26B 5879   2.222   6.393   8.737  2.6248 -3.2256 -0.9265
   46CHL1  H26C 5880   2.063   6.384   8.826  0.3377  0.6134  0.8712
   46CHL1   C27 5881   2.308   6.132   8.744  0.1681  0.1405 -0.5933
   46CHL1  H27A 5882   2.366   6.127   8.839  1.9672 -0.1231 -1.6796
   46CHL1  H27B 5883   2.317   6.038   8.686  1.4407  0.4924 -1.0088
   46CHL1  H27C 5884   2.348   6.206   8.671 -1.7041  1.6777 -0.1445
   47CHL1    C3 5885   2.923   2.861  10.124 -1.0951  0.2480  0.4922
   47CHL1    H3 5886   2.979   2.950  10.158  0.3333  0.0821 -1.2527
   47CHL1    O3 5887   2.915   2.778  10.239 -0.3644 -0.8207  0.0299
   47CHL1   H3' 5888   2.835   2.726  10.225 -1.1757  0.8479 -2.0867
   47CHL1    C4 5889   2.776   2.895  10.069 -0.1062  0.5392 -0.2168
   47CHL1   H4A 5890   2.717   2.803  10.052  0.7938  0.2118 -1.7391
   47CHL1   H4B 5891   2.726   2.949  10.153 -0.2185 -1.8692  1.3708
   47CHL1    C5 5892   2.781   2.987   9.954 -0.0970  0.2218  0.1400
   47CHL1    C6 5893   2.722   3.103   9.947  0.2848 -0.8881 -1.0231
   47CHL1    H6 5894   2.663   3.141  10.031  1.3236  0.6493 -0.9523
   47CHL1    C7 5895   2.726   3.191   9.829 -0.4293 -0.0113  1.7937
   47CHL1   H7A 5896   2.621   3.222   9.810 -0.8380 -1.5739  1.3664
   47CHL1   H7B 5897   2.779   3.286   9.855  2.8013 -0.5079 -2.0368
   47CHL1    C8 5898   2.768   3.125   9.699  0.1668 -0.3131  0.3708
   47CHL1    H8 5899   2.682   3.061   9.668 -0.7546  0.4110  1.3814
   47CHL1   C14 5900   2.810   3.232   9.590 -1.1908  0.6508 -0.4591
   47CHL1   H14 5901   2.901   3.278   9.634 -0.6386 -1.5078  0.7872
   47CHL1   C15 5902   2.721   3.348   9.551  0.4305 -0.0630  0.8355
   47CHL1  H15A 5903   2.624   3.305   9.519  1.3868 -0.7446 -1.4114
   47CHL1  H15B 5904   2.712   3.432   9.622  0.3878  1.1936 -0.5976
   47CHL1   C16 5905   2.780   3.393   9.413 -0.0759 -0.9785  0.2163
   47CHL1  H16A 5906   2.702   3.399   9.334  1.1570 -0.4788 -1.0061
   47CHL1  H16B 5907   2.824   3.495   9.411  0.3665 -1.1430 -2.4760
   47CHL1   C17 5908   2.900   3.299   9.382  0.2737 -0.5575 -0.9550
   47CHL1   H17 5909   2.975   3.346   9.448 -0.6945 -0.4524  0.1067
   47CHL1   C13 5910   2.863   3.174   9.459 -0.3040  0.3632  0.2135
   47CHL1   C18 5911   2.748   3.109   9.384  1.2339  1.0046 -0.7766
   47CHL1  H18A 5912   2.787   3.058   9.293 -0.7775  0.0729 -1.1707
   47CHL1  H18B 5913   2.701   3.023   9.435  2.6903  0.1896 -0.7641
   47CHL1  H18C 5914   2.674   3.183   9.347 -1.7581 -2.2232 -1.7786
   47CHL1   C12 5915   2.981   3.072   9.485 -0.4567  0.4191 -0.6524
   47CHL1  H12A 5916   3.002   3.017   9.391  2.1081 -1.0421  0.6774
   47CHL1  H12B 5917   3.066   3.131   9.525  1.4456 -2.1328 -0.6584
   47CHL1   C11 5918   2.946   2.966   9.595  0.2832  0.3230  0.2313
   47CHL1  H11A 5919   2.857   2.911   9.555  0.8776  0.2340 -1.0410
   47CHL1  H11B 5920   3.036   2.902   9.609  0.6073  1.3152  3.4411
   47CHL1    C9 5921   2.889   3.030   9.725  0.1895 -0.2825  0.1801
   47CHL1    H9 5922   2.965   3.100   9.765 -0.5166  2.9233 -3.4914
   47CHL1   C10 5923   2.866   2.931   9.839  0.2215  0.6220  0.6020
   47CHL1   C19 5924   2.790   2.799   9.788  0.4360 -0.1857 -0.5715
   47CHL1  H19A 5925   2.796   2.715   9.861  1.0565  0.1308 -0.2499
   47CHL1  H19B 5926   2.679   2.810   9.791  0.2480 -1.7755  2.0921
   47CHL1  H19C 5927   2.843   2.746   9.706 -0.5078 -0.5189 -0.9790
   47CHL1    C1 5928   3.008   2.872   9.883  0.5541  1.5002 -0.6658
   47CHL1   H1A 5929   3.050   2.815   9.797 -3.6183 -1.0371 -1.3367
   47CHL1   H1B 5930   3.081   2.956   9.890  0.7374  1.2626  0.2726
   47CHL1    C2 5931   3.012   2.787  10.015  0.5144  0.1847 -0.6213
   47CHL1   H2A 5932   3.114   2.777  10.057  0.0125  2.4506  1.3719
   47CHL1   H2B 5933   2.951   2.694  10.009  0.0903  0.3559  0.6760
   47CHL1   C20 5934   2.962   3.286   9.245  0.3412  0.0486  0.4578
   47CHL1   H20 5935   3.009   3.186   9.237 -0.7471 -0.3364 -2.4680
   47CHL1   C21 5936   3.084   3.382   9.250  0.1515 -0.0864  0.3431
   47CHL1  H21A 5937   3.148   3.370   9.160 -0.9388 -0.3810 -0.4174
   47CHL1  H21B 5938   3.149   3.346   9.332  0.3036 -0.4298  0.0740
   47CHL1  H21C 5939   3.048   3.487   9.257 -0.1038 -0.0936 -0.7396
   47CHL1   C22 5940   2.869   3.300   9.120 -0.1928 -0.5181 -0.5961
   47CHL1  H22A 5941   2.777   3.246   9.150  1.0570 -0.9673  2.9247
   47CHL1  H22B 5942   2.851   3.406   9.090 -1.7170 -0.3491  0.7872
   47CHL1   C23 5943   2.931   3.224   9.006 -0.5021 -0.0313 -0.6381
   47CHL1  H23A 5944   3.038   3.251   8.991 -0.5747 -0.1007 -1.3141
   47CHL1  H23B 5945   2.940   3.118   9.036  0.5352  0.8874  2.8490
   47CHL1   C24 5946   2.861   3.254   8.870  0.3316 -0.3421 -0.6962
   47CHL1  H24A 5947   2.761   3.206   8.866  0.8012 -1.3473 -0.5445
   47CHL1  H24B 5948   2.856   3.365   8.859  3.4965 -0.3035 -3.7339
   47CHL1   C25 5949   2.937   3.204   8.744  0.8371  0.3811  0.3148
   47CHL1   H25 5950   2.953   3.095   8.754 -1.9800  0.0368  2.1645
   47CHL1   C26 5951   2.844   3.208   8.614  0.7287 -0.1085  0.0918
   47CHL1  H26A 5952   2.786   3.303   8.616 -1.1088 -1.1620  2.3647
   47CHL1  H26B 5953   2.788   3.112   8.610  2.6715 -1.2561 -1.1831
   47CHL1  H26C 5954   2.917   3.209   8.530  2.1370  0.8041  1.3087
   47CHL1   C27 5955   3.074   3.274   8.719 -0.0490  0.5490  0.1958
   47CHL1  H27A 5956   3.124   3.219   8.636 -0.5947 -0.1263  0.3063
   47CHL1  H27B 5957   3.072   3.381   8.690  0.5118 -0.2100 -2.9749
   47CHL1  H27C 5958   3.138   3.266   8.809  1.2847 -0.2273 -0.7950
   48CHL1    C3 5959   3.338   2.468   9.892 -0.8813 -0.5587  0.8823
   48CHL1    H3 5960   3.433   2.411   9.906 -0.2486 -0.5253 -2.4003
   48CHL1    O3 5961   3.283   2.497  10.023  0.3121 -0.1109  0.0748
   48CHL1   H3' 5962   3.348   2.525  10.088  0.1925 -2.0935  1.1076
   48CHL1    C4 5963   3.366   2.603   9.816 -0.3155 -0.1396  0.6823
   48CHL1   H4A 5964   3.279   2.672   9.810 -1.0199 -1.0912 -0.5501
   48CHL1   H4B 5965   3.443   2.652   9.880  0.0911  0.1394 -0.0057
   48CHL1    C5 5966   3.410   2.589   9.671 -0.9418 -0.5095  0.5501
   48CHL1    C6 5967   3.527   2.646   9.622  0.3492  1.2682  0.5160
   48CHL1    H6 5968   3.599   2.686   9.694  1.9284 -0.0707 -0.2542
   48CHL1    C7 5969   3.569   2.645   9.478  0.1992 -0.5731  0.3112
   48CHL1   H7A 5970   3.587   2.750   9.444 -0.8584 -1.5056 -3.7335
   48CHL1   H7B 5971   3.662   2.585   9.472  0.5401 -0.0165 -0.1557
   48CHL1    C8 5972   3.453   2.594   9.378 -0.3525  0.1113  0.0704
   48CHL1    H8 5973   3.391   2.680   9.344  0.1809 -0.1072 -1.5436
   48CHL1   C14 5974   3.505   2.530   9.252  0.5972  0.5479  0.6536
   48CHL1   H14 5975   3.563   2.446   9.296 -0.0154  0.1014  0.6159
   48CHL1   C15 5976   3.600   2.614   9.167  0.3880 -0.3331 -0.7319
   48CHL1  H15A 5977   3.563   2.719   9.162  2.9685  0.7438  0.5597
   48CHL1  H15B 5978   3.699   2.623   9.216 -0.9981  0.5834  2.1351
   48CHL1   C16 5979   3.595   2.552   9.026 -0.0297  0.0864 -0.1976
   48CHL1  H16A 5980   3.572   2.641   8.963  0.8969  0.0759 -0.5701
   48CHL1  H16B 5981   3.694   2.509   9.000  0.1936 -0.6517  1.7015
   48CHL1   C17 5982   3.488   2.439   9.026  0.4251  0.4146  0.2251
   48CHL1   H17 5983   3.537   2.345   9.059 -2.6822 -1.8686 -1.1001
   48CHL1   C13 5984   3.402   2.476   9.151  0.2603 -0.1155  0.7965
   48CHL1   C18 5985   3.298   2.576   9.106  0.2780 -0.0839  0.7512
   48CHL1  H18A 5986   3.223   2.522   9.044 -2.6611  0.4829  3.5762
   48CHL1  H18B 5987   3.241   2.614   9.193  1.3613 -0.1579  1.5075
   48CHL1  H18C 5988   3.343   2.670   9.067  2.1165 -0.3927  2.0052
   48CHL1   C12 5989   3.327   2.359   9.217 -0.2882  1.0344 -0.0566
   48CHL1  H12A 5990   3.242   2.336   9.148 -0.0195 -2.1784  0.5307
   48CHL1  H12B 5991   3.391   2.269   9.224 -2.3041 -0.4165  0.8370
   48CHL1   C11 5992   3.268   2.404   9.354 -0.5840  0.3557  0.8525
   48CHL1  H11A 5993   3.176   2.462   9.331 -1.4162 -1.2957 -0.1055
   48CHL1  H11B 5994   3.228   2.312   9.401  0.0390 -0.8061 -0.8223
   48CHL1    C9 5995   3.367   2.485   9.445 -0.0060 -0.3745  0.0451
   48CHL1    H9 5996   3.443   2.406   9.462 -0.6276 -0.9309  0.3024
   48CHL1   C10 5997   3.308   2.515   9.587 -0.8260  0.3802 -0.0765
   48CHL1   C19 5998   3.178   2.595   9.567  0.4611 -0.8675 -0.3561
   48CHL1  H19A 5999   3.129   2.627   9.661  0.1902  0.3974 -0.9094
   48CHL1  H19B 6000   3.207   2.680   9.501  2.8756 -0.7135  0.7736
   48CHL1  H19C 6001   3.108   2.527   9.514 -1.1984 -0.2117  0.9071
   48CHL1    C1 6002   3.281   2.380   9.655 -0.0406  0.9600  0.0596
   48CHL1   H1A 6003   3.205   2.317   9.604 -0.9699  1.0351  1.2839
   48CHL1   H1B 6004   3.377   2.324   9.651  0.8650  2.4546  0.3447
   48CHL1    C2 6005   3.235   2.388   9.804 -0.3978 -0.2558 -0.6989
   48CHL1   H2A 6006   3.233   2.283   9.841 -0.1614 -0.6192 -1.6675
   48CHL1   H2B 6007   3.131   2.422   9.822 -0.2145 -0.0672  0.0552
   48CHL1   C20 6008   3.428   2.402   8.896 -0.4287  0.0779  0.9242
   48CHL1   H20 6009   3.382   2.490   8.846  0.7946 -0.7340 -1.8435
   48CHL1   C21 6010   3.319   2.290   8.890  0.2362 -1.0501  0.0554
   48CHL1  H21A 6011   3.288   2.276   8.784 -0.2433  0.8915 -0.0946
   48CHL1  H21B 6012   3.227   2.323   8.942  1.1511  0.9724  0.4611
   48CHL1  H21C 6013   3.347   2.194   8.939  2.5583 -0.0821  0.7177
   48CHL1   C22 6014   3.539   2.363   8.789  0.1189 -0.0354  0.0605
   48CHL1  H22A 6015   3.484   2.344   8.694  1.8484 -2.2306 -0.5857
   48CHL1  H22B 6016   3.610   2.445   8.762 -0.8842  0.9318  0.2823
   48CHL1   C23 6017   3.615   2.232   8.823  0.5529  0.8286 -0.6366
   48CHL1  H23A 6018   3.673   2.237   8.918 -1.8194  0.6645  0.9244
   48CHL1  H23B 6019   3.543   2.147   8.829  2.6095 -0.9176  0.5592
   48CHL1   C24 6020   3.723   2.199   8.718 -0.3971  0.9231  0.0584
   48CHL1  H24A 6021   3.659   2.176   8.630 -0.9605 -0.9488  0.8883
   48CHL1  H24B 6022   3.783   2.281   8.674 -1.1220  1.5239  0.1752
   48CHL1   C25 6023   3.829   2.087   8.749 -0.1174  0.0694 -1.2027
   48CHL1   H25 6024   3.863   2.101   8.853  2.2636 -2.9475 -1.4336
   48CHL1   C26 6025   3.767   1.948   8.743  0.1469  0.2287  0.7980
   48CHL1  H26A 6026   3.837   1.871   8.782 -1.2084 -0.8104  1.2421
   48CHL1  H26B 6027   3.668   1.949   8.793  0.0807 -0.9728  0.7222
   48CHL1  H26C 6028   3.737   1.923   8.639  0.3840 -1.3457  1.0900
   48CHL1   C27 6029   3.950   2.099   8.658  0.7268  0.1922 -0.1494
   48CHL1  H27A 6030   3.918   2.076   8.554  1.7028 -2.9101  0.1278
   48CHL1  H27B 6031   3.983   2.204   8.669 -2.4961  1.1256  2.4756
   48CHL1  H27C 6032   4.028   2.024   8.684 -0.5575 -1.1218  0.0639
   49CHL1    C3 6033   2.009   5.141  10.020  0.1570 -0.4275  0.2885
   49CHL1    H3 6034   1.964   5.242  10.002 -1.6687 -1.1678  0.4604
   49CHL1    O3 6035   2.032   5.130  10.163  0.0898  0.1258 -0.2233
   49CHL1   H3' 6036   1.945   5.113  10.200 -0.6954  0.1740 -1.9341
   49CHL1    C4 6037   1.917   5.031   9.960  0.7846  0.5505  0.4014
   49CHL1   H4A 6038   1.959   4.932   9.989  1.1822 -0.5826 -3.4657
   49CHL1   H4B 6039   1.816   5.042  10.005  0.0809  0.0763 -1.0158
   49CHL1    C5 6040   1.911   5.024   9.804  0.4649 -0.7062 -0.3165
   49CHL1    C6 6041   1.796   5.047   9.742 -0.0628 -0.0311  0.1933
   49CHL1    H6 6042   1.700   5.042   9.796 -0.1139  1.9389  0.3425
   49CHL1    C7 6043   1.780   5.054   9.594  0.3453  0.9847  0.0877
   49CHL1   H7A 6044   1.699   4.985   9.562  0.3136  2.0568 -2.3174
   49CHL1   H7B 6045   1.740   5.153   9.566  3.0202  1.8086 -1.1117
   49CHL1    C8 6046   1.902   5.014   9.507  0.0988  0.3837 -0.6263
   49CHL1    H8 6047   1.922   4.906   9.522  3.3995  1.1182  1.3747
   49CHL1   C14 6048   1.885   5.060   9.366  0.0262 -0.7383  0.1308
   49CHL1   H14 6049   1.883   5.170   9.362  1.2280 -0.7393 -1.4456
   49CHL1   C15 6050   1.751   5.014   9.301  0.4178  0.8152  0.0572
   49CHL1  H15A 6051   1.737   4.908   9.332  1.4836  0.8008  0.5132
   49CHL1  H15B 6052   1.661   5.069   9.337 -0.9463 -1.8331  1.0246
   49CHL1   C16 6053   1.784   5.024   9.154 -0.7691  0.1930 -0.0979
   49CHL1  H16A 6054   1.743   4.931   9.111  0.5482 -0.4621  0.0033
   49CHL1  H16B 6055   1.723   5.102   9.104  1.1986  1.1360 -1.1597
   49CHL1   C17 6056   1.934   5.063   9.138  0.0773  0.5230  0.0728
   49CHL1   H17 6057   1.954   5.172   9.145  1.6473  0.2955 -0.3855
   49CHL1   C13 6058   2.001   5.012   9.269 -0.2178  0.0974  0.1637
   49CHL1   C18 6059   2.012   4.861   9.268 -0.2344  0.5529  0.6599
   49CHL1  H18A 6060   1.920   4.816   9.223 -0.9193  1.4052  1.1796
   49CHL1  H18B 6061   2.094   4.835   9.197 -1.7839 -0.9202 -0.7135
   49CHL1  H18C 6062   2.025   4.810   9.365 -0.9215  1.6872  1.3679
   49CHL1   C12 6063   2.129   5.089   9.327  0.1677 -0.0293 -0.3225
   49CHL1  H12A 6064   2.225   5.072   9.274 -0.1860  0.4630 -1.1417
   49CHL1  H12B 6065   2.108   5.197   9.315 -1.9106 -0.4314 -0.6764
   49CHL1   C11 6066   2.155   5.069   9.483  0.3629  0.6818  0.2960
   49CHL1  H11A 6067   2.179   4.961   9.476  1.9119  0.9575  0.9307
   49CHL1  H11B 6068   2.241   5.128   9.521  0.9726 -0.0862  0.1286
   49CHL1    C9 6069   2.026   5.078   9.571  0.1871  0.6458  0.1199
   49CHL1    H9 6070   2.007   5.187   9.578 -0.7887  0.4944 -0.1305
   49CHL1   C10 6071   2.045   5.031   9.727 -0.7192  0.1541 -0.2996
   49CHL1   C19 6072   2.123   4.894   9.725  0.2836  0.2463  0.1530
   49CHL1  H19A 6073   2.117   4.853   9.828 -4.7667  0.3477  0.1803
   49CHL1  H19B 6074   2.068   4.831   9.651 -2.1446 -0.2924  2.2477
   49CHL1  H19C 6075   2.230   4.906   9.700  0.1354 -1.0020 -1.1872
   49CHL1    C1 6076   2.132   5.139   9.800  0.3659 -0.3093 -0.0050
   49CHL1   H1A 6077   2.237   5.126   9.767  0.4314  1.0978 -0.3900
   49CHL1   H1B 6078   2.103   5.242   9.771  0.9136 -0.7170 -2.1344
   49CHL1    C2 6079   2.147   5.122   9.956 -0.3686 -0.4638  0.2006
   49CHL1   H2A 6080   2.215   5.195  10.006 -1.8955  0.1636  1.4133
   49CHL1   H2B 6081   2.181   5.016   9.963 -1.1829 -0.7037  0.5993
   49CHL1   C20 6082   1.992   5.017   9.002  1.0896 -0.2470  0.5802
   49CHL1   H20 6083   1.990   4.906   8.995 -1.7054 -0.1825 -1.3951
   49CHL1   C21 6084   2.137   5.062   8.991 -0.2407 -0.5492 -0.3584
   49CHL1  H21A 6085   2.202   5.021   8.911  3.2544  1.3338  1.2667
   49CHL1  H21B 6086   2.190   5.035   9.085 -0.2309  0.8302  0.0596
   49CHL1  H21C 6087   2.130   5.173   8.992 -1.3022 -0.6055  0.5309
   49CHL1   C22 6088   1.909   5.056   8.877  0.2354  0.2084 -0.8904
   49CHL1  H22A 6089   1.807   5.015   8.858 -0.8693  2.1298  0.5484
   49CHL1  H22B 6090   1.901   5.167   8.883  1.9344  0.3129  0.2145
   49CHL1   C23 6091   1.993   5.037   8.748  0.3222  0.0409 -0.6849
   49CHL1  H23A 6092   2.080   5.106   8.755 -0.2107  0.5923  0.6471
   49CHL1  H23B 6093   2.033   4.933   8.742 -0.8306 -0.4078 -0.8854
   49CHL1   C24 6094   1.914   5.072   8.625 -0.9088  0.0295 -0.0363
   49CHL1  H24A 6095   1.806   5.049   8.637 -0.5554 -1.9536 -0.2706
   49CHL1  H24B 6096   1.927   5.182   8.617  0.8165  0.0889  2.3903
   49CHL1   C25 6097   1.981   5.012   8.509  1.0370 -0.4560 -0.2875
   49CHL1   H25 6098   2.090   4.994   8.517  1.0271  0.0052  0.9833
   49CHL1   C26 6099   1.909   4.877   8.479 -0.3148  0.0596 -0.6258
   49CHL1  H26A 6100   1.922   4.808   8.565 -0.7615  0.7760  0.0217
   49CHL1  H26B 6101   1.802   4.901   8.468  0.0436  1.3370 -1.5535
   49CHL1  H26C 6102   1.942   4.831   8.383  1.2087 -0.5012  0.1353
   49CHL1   C27 6103   1.972   5.099   8.385 -0.7080 -0.6337  0.3883
   49CHL1  H27A 6104   1.874   5.140   8.353  0.2623 -0.6554 -3.0076
   49CHL1  H27B 6105   2.048   5.178   8.403 -0.4230 -1.0465  1.0480
   49CHL1  H27C 6106   1.996   5.040   8.294 -0.6408  1.6696 -1.1882
   50CHL1    C3 6107   5.659   1.032   9.955  0.8226  0.3419  0.3111
   50CHL1    H3 6108   5.757   0.988   9.925  1.5272  0.8286  1.8348
   50CHL1    O3 6109   5.645   1.030  10.093 -0.5901 -0.0120 -0.1409
   50CHL1   H3' 6110   5.706   1.095  10.129 -1.1012 -0.7645  2.2354
   50CHL1    C4 6111   5.649   1.176   9.900 -0.6245 -0.3241 -0.0339
   50CHL1   H4A 6112   5.555   1.228   9.927 -0.3912  0.0450  0.0694
   50CHL1   H4B 6113   5.732   1.236   9.942 -0.3537 -0.0493 -0.9339
   50CHL1    C5 6114   5.652   1.178   9.749  0.0392 -0.2269 -1.0001
   50CHL1    C6 6115   5.756   1.220   9.684 -0.3454 -0.2294 -0.4623
   50CHL1    H6 6116   5.839   1.265   9.740  1.3406 -3.1382 -0.4544
   50CHL1    C7 6117   5.778   1.208   9.539 -0.0045 -0.2233  0.3163
   50CHL1   H7A 6118   5.834   1.295   9.498  0.4291 -1.7595 -2.6673
   50CHL1   H7B 6119   5.847   1.124   9.518 -1.0520 -0.6019 -1.9963
   50CHL1    C8 6120   5.636   1.187   9.470 -0.4947 -0.2178  0.1085
   50CHL1    H8 6121   5.569   1.274   9.486  0.9753  0.9907 -0.1529
   50CHL1   C14 6122   5.669   1.159   9.320 -0.7491 -0.5371 -0.0013
   50CHL1   H14 6123   5.742   1.076   9.320  0.1394  0.2260  0.4979
   50CHL1   C15 6124   5.745   1.268   9.245  0.0425  0.0158 -0.6348
   50CHL1  H15A 6125   5.730   1.369   9.287  1.7011 -0.9318  2.5728
   50CHL1  H15B 6126   5.854   1.244   9.250  0.0651  0.0353 -0.9887
   50CHL1   C16 6127   5.700   1.245   9.099 -0.0186 -0.7399 -0.2574
   50CHL1  H16A 6128   5.642   1.332   9.060  1.1816  0.7225  1.0355
   50CHL1  H16B 6129   5.792   1.248   9.038  0.5774  2.7939  0.5722
   50CHL1   C17 6130   5.601   1.122   9.099 -0.4445 -0.5727  0.2419
   50CHL1   H17 6131   5.668   1.034   9.089  1.5441  0.9793 -1.0669
   50CHL1   C13 6132   5.543   1.122   9.237 -0.3988  0.4044  0.0796
   50CHL1   C18 6133   5.429   1.220   9.231  0.2775 -0.3968  0.9082
   50CHL1  H18A 6134   5.459   1.315   9.183 -2.5266 -0.8444 -2.0668
   50CHL1  H18B 6135   5.340   1.175   9.182  0.2517  0.2000  0.4002
   50CHL1  H18C 6136   5.393   1.252   9.331 -0.9796 -0.1638  0.3950
   50CHL1   C12 6137   5.507   0.986   9.289  0.0499  0.4968 -0.5777
   50CHL1  H12A 6138   5.418   0.932   9.248 -0.2633 -0.7040  1.5458
   50CHL1  H12B 6139   5.588   0.910   9.292 -1.0428 -0.8508 -2.5274
   50CHL1   C11 6140   5.465   0.998   9.442 -0.4467 -0.4200  0.0030
   50CHL1  H11A 6141   5.371   1.057   9.448  0.3864  0.7991  2.3629
   50CHL1  H11B 6142   5.429   0.902   9.485 -0.2163  0.2239  1.7156
   50CHL1    C9 6143   5.580   1.063   9.528 -0.4883 -0.0810 -0.2357
   50CHL1    H9 6144   5.661   0.987   9.530 -0.9872 -0.7519  4.3367
   50CHL1   C10 6145   5.543   1.085   9.679 -0.1918 -0.0779  0.2372
   50CHL1   C19 6146   5.407   1.164   9.697 -0.1647  0.9597  0.0703
   50CHL1  H19A 6147   5.322   1.101   9.661  0.8021  0.0678 -0.7268
   50CHL1  H19B 6148   5.387   1.183   9.804 -1.3689 -0.6550  0.1783
   50CHL1  H19C 6149   5.406   1.261   9.642 -2.7963  1.0718  0.1640
   50CHL1    C1 6150   5.547   0.942   9.745 -0.2972 -0.0650 -0.1433
   50CHL1   H1A 6151   5.465   0.879   9.705 -0.3057 -1.7780  2.4151
   50CHL1   H1B 6152   5.646   0.902   9.714  0.9848  2.2044  0.7668
   50CHL1    C2 6153   5.541   0.951   9.898 -0.3113 -0.2429  0.3305
   50CHL1   H2A 6154   5.544   0.848   9.938  2.2319 -0.9828 -1.4630
   50CHL1   H2B 6155   5.443   0.994   9.926 -0.8023 -1.6365  0.8177
   50CHL1   C20 6156   5.511   1.121   8.971 -0.8446  0.0139 -0.7344
   50CHL1   H20 6157   5.437   1.204   8.966  0.1285  0.8814 -1.0930
   50CHL1   C21 6158   5.442   0.980   8.966  0.2933 -0.0971  0.0555
   50CHL1  H21A 6159   5.362   0.974   9.043 -0.2700  3.0216 -0.1331
   50CHL1  H21B 6160   5.508   0.892   8.979 -0.5058 -0.7666 -0.3414
   50CHL1  H21C 6161   5.383   0.971   8.872  1.5727  1.8710 -1.0176
   50CHL1   C22 6162   5.593   1.139   8.839 -0.6678 -0.0362 -0.2732
   50CHL1  H22A 6163   5.532   1.140   8.746 -2.3441 -3.3310  0.6421
   50CHL1  H22B 6164   5.653   1.232   8.853 -0.3273 -0.4686  1.3689
   50CHL1   C23 6165   5.702   1.033   8.819 -0.7093 -0.1581  0.6884
   50CHL1  H23A 6166   5.784   1.041   8.894  1.2771 -1.1462 -1.2675
   50CHL1  H23B 6167   5.669   0.927   8.824 -0.3238 -0.3750 -0.9328
   50CHL1   C24 6168   5.768   1.045   8.681  0.8060  0.2985 -0.5489
   50CHL1  H24A 6169   5.686   1.049   8.606  1.5915  0.5932 -1.4133
   50CHL1  H24B 6170   5.812   1.147   8.691  2.3293 -0.4633  1.0956
   50CHL1   C25 6171   5.872   0.937   8.655  0.6412 -0.4737  0.7955
   50CHL1   H25 6172   5.945   0.937   8.739  1.7188  0.8480 -0.1037
   50CHL1   C26 6173   5.817   0.790   8.638  0.5604 -0.0366  0.0206
   50CHL1  H26A 6174   5.791   0.743   8.736 -0.6705  1.3089  0.3711
   50CHL1  H26B 6175   5.735   0.793   8.563  0.7058 -1.0650 -0.2009
   50CHL1  H26C 6176   5.892   0.726   8.588 -2.0932 -1.0424 -3.0150
   50CHL1   C27 6177   5.943   0.986   8.527 -0.4000  0.2065 -0.6040
   50CHL1  H27A 6178   5.999   1.080   8.547  0.9096 -0.7671  0.5752
   50CHL1  H27B 6179   6.025   0.913   8.504  0.8787  1.0389  1.0655
   50CHL1  H27C 6180   5.879   0.999   8.437 -1.1931 -0.6536 -0.1816
   51CHL1    C3 6181   5.738   4.251  10.386 -0.3034  0.5243 -0.0493
   51CHL1    H3 6182   5.823   4.322  10.392  0.5977 -0.5504  0.3383
   51CHL1    O3 6183   5.701   4.216  10.524  0.1724  0.3080 -0.4391
   51CHL1   H3' 6184   5.633   4.149  10.519 -1.0019  1.2767  1.6575
   51CHL1    C4 6185   5.624   4.319  10.307 -0.3275  0.4486 -0.7093
   51CHL1   H4A 6186   5.538   4.250  10.321  0.5220 -0.4078  0.4933
   51CHL1   H4B 6187   5.605   4.420  10.350  0.6961  0.2120  0.3415
   51CHL1    C5 6188   5.672   4.336  10.164  0.2084 -0.3868 -0.4251
   51CHL1    C6 6189   5.671   4.460  10.109 -0.5551 -0.9919  0.3451
   51CHL1    H6 6190   5.634   4.541  10.174 -0.2600 -0.7410  0.2053
   51CHL1    C7 6191   5.696   4.485   9.965 -0.4133  0.2111  0.3018
   51CHL1   H7A 6192   5.615   4.543   9.916  1.7524  1.5425 -1.9587
   51CHL1   H7B 6193   5.785   4.551   9.949 -0.6853  0.1808 -1.5151
   51CHL1    C8 6194   5.705   4.359   9.875 -0.1806  0.0616 -0.1460
   51CHL1    H8 6195   5.601   4.320   9.870  0.6886 -2.4840  0.2880
   51CHL1   C14 6196   5.771   4.389   9.741 -0.0785  0.0274 -0.3096
   51CHL1   H14 6197   5.877   4.416   9.763  0.1799  0.2059 -1.6519
   51CHL1   C15 6198   5.718   4.505   9.663 -0.5219 -0.3407 -0.3963
   51CHL1  H15A 6199   5.608   4.511   9.653 -0.3417  2.3217 -1.7631
   51CHL1  H15B 6200   5.749   4.596   9.719 -1.0309  0.1590 -0.9114
   51CHL1   C16 6201   5.780   4.491   9.523 -0.6810 -0.3986  0.0054
   51CHL1  H16A 6202   5.703   4.511   9.445  1.0784  2.4053 -1.1611
   51CHL1  H16B 6203   5.853   4.571   9.498 -3.4044  1.8486 -1.4733
   51CHL1   C17 6204   5.847   4.349   9.522 -0.6157 -0.3757 -0.2193
   51CHL1   H17 6205   5.953   4.367   9.552 -0.6541  0.1989 -0.4315
   51CHL1   C13 6206   5.780   4.274   9.639 -0.7302 -0.3383  0.3041
   51CHL1   C18 6207   5.639   4.227   9.601  0.3766 -0.3094  0.0981
   51CHL1  H18A 6208   5.576   4.204   9.690  0.4913 -0.4680  0.1367
   51CHL1  H18B 6209   5.583   4.315   9.562  0.2621  0.5235  2.0392
   51CHL1  H18C 6210   5.631   4.147   9.524  2.0240  0.7390 -1.2318
   51CHL1   C12 6211   5.849   4.153   9.702 -0.6511  0.1338 -0.0068
   51CHL1  H12A 6212   5.820   4.067   9.637 -0.8939 -0.5558  0.9827
   51CHL1  H12B 6213   5.959   4.163   9.704 -0.2598 -1.6899 -3.7224
   51CHL1   C11 6214   5.790   4.122   9.845  0.3854 -0.3681 -0.4674
   51CHL1  H11A 6215   5.685   4.090   9.831 -0.0439  1.3116 -1.3161
   51CHL1  H11B 6216   5.858   4.047   9.891 -0.1698  0.0298  1.0623
   51CHL1    C9 6217   5.784   4.249   9.944 -0.1611  0.0865  0.3168
   51CHL1    H9 6218   5.883   4.295   9.962  0.1893 -0.2112 -0.7971
   51CHL1   C10 6219   5.721   4.218  10.083 -0.1589  0.7972 -0.0679
   51CHL1   C19 6220   5.599   4.125  10.071 -0.7062 -0.0242 -0.6426
   51CHL1  H19A 6221   5.525   4.170  10.001 -1.2075  0.3633  0.1242
   51CHL1  H19B 6222   5.633   4.026  10.033 -2.5039 -0.9992  0.1643
   51CHL1  H19C 6223   5.549   4.104  10.168 -0.9444  0.9089 -0.5521
   51CHL1    C1 6224   5.837   4.162  10.176  0.1806  0.0434 -0.4560
   51CHL1   H1A 6225   5.865   4.062  10.136  0.3838 -0.2195  0.3320
   51CHL1   H1B 6226   5.916   4.240  10.168  2.0619 -1.9325 -4.4051
   51CHL1    C2 6227   5.789   4.126  10.317  0.4993 -0.7201 -0.9114
   51CHL1   H2A 6228   5.876   4.097  10.380 -1.5911  0.0488  2.6003
   51CHL1   H2B 6229   5.716   4.043  10.320 -1.0057  0.5117 -2.2635
   51CHL1   C20 6230   5.847   4.285   9.384 -0.3596 -0.1477 -0.0024
   51CHL1   H20 6231   5.747   4.242   9.363 -0.2490  0.3913 -1.9122
   51CHL1   C21 6232   5.963   4.184   9.396 -0.7090 -0.0854 -0.1244
   51CHL1  H21A 6233   5.953   4.096   9.463  1.7605  0.1361  0.5938
   51CHL1  H21B 6234   6.052   4.245   9.420 -0.0795 -0.4171 -1.5039
   51CHL1  H21C 6235   5.981   4.135   9.297 -1.0522 -1.4757  0.4685
   51CHL1   C22 6236   5.865   4.392   9.271 -0.2419  0.2063  0.1281
   51CHL1  H22A 6237   5.783   4.466   9.261  0.2912  0.9468  1.1119
   51CHL1  H22B 6238   5.955   4.449   9.303  2.4558 -3.7849  0.3977
   51CHL1   C23 6239   5.893   4.334   9.132 -0.5740 -0.3274 -0.0281
   51CHL1  H23A 6240   5.997   4.298   9.116  0.5595  1.9696  1.5840
   51CHL1  H23B 6241   5.825   4.251   9.102 -1.3280  1.1580 -2.7408
   51CHL1   C24 6242   5.881   4.449   9.026  0.7832 -0.0454  0.0834
   51CHL1  H24A 6243   5.772   4.470   9.026  0.6430 -0.7025  1.0299
   51CHL1  H24B 6244   5.930   4.541   9.066  0.7374 -0.6328  1.5884
   51CHL1   C25 6245   5.942   4.416   8.888 -0.6213 -0.7573  0.2588
   51CHL1   H25 6246   6.046   4.384   8.910 -0.2913  1.3042  2.0426
   51CHL1   C26 6247   5.866   4.316   8.801 -0.6027  0.0044  0.1198
   51CHL1  H26A 6248   5.872   4.211   8.839 -0.6173 -0.6180 -1.5149
   51CHL1  H26B 6249   5.757   4.337   8.803 -0.3283  1.5170  2.5552
   51CHL1  H26C 6250   5.906   4.324   8.698  1.8737 -0.4669  0.9695
   51CHL1   C27 6251   5.963   4.550   8.810  0.0536  0.4277  0.0918
   51CHL1  H27A 6252   5.868   4.603   8.786  0.9874  2.7851  1.2709
   51CHL1  H27B 6253   6.014   4.623   8.877 -1.6914  2.0323 -0.2397
   51CHL1  H27C 6254   6.021   4.533   8.717 -0.2575 -0.3923  0.0395
   52CHL1    C3 6255   2.726   1.543  10.011  0.1763 -0.5484 -0.0428
   52CHL1    H3 6256   2.801   1.461  10.001  0.4524 -0.4459  1.0602
   52CHL1    O3 6257   2.722   1.564  10.150  0.0512 -0.0329  0.2359
   52CHL1   H3' 6258   2.635   1.596  10.175  0.9644  1.5300  1.6094
   52CHL1    C4 6259   2.781   1.667   9.942 -0.7838 -0.0695  0.1872
   52CHL1   H4A 6260   2.727   1.753   9.988 -1.9574 -0.0218 -1.1823
   52CHL1   H4B 6261   2.887   1.672   9.974 -0.4463 -0.3655 -0.8278
   52CHL1    C5 6262   2.764   1.658   9.791 -0.0675 -0.2392  0.5188
   52CHL1    C6 6263   2.870   1.668   9.695 -0.0441  0.3116 -0.1676
   52CHL1    H6 6264   2.970   1.694   9.732 -1.1510  0.8060  2.7913
   52CHL1    C7 6265   2.856   1.678   9.545  0.2296  0.1028  1.0896
   52CHL1   H7A 6266   2.909   1.759   9.491 -0.0342  0.0811  0.7947
   52CHL1   H7B 6267   2.879   1.580   9.499  1.0568  1.4686 -1.6234
   52CHL1    C8 6268   2.709   1.697   9.501  0.2417 -0.2663 -0.0763
   52CHL1    H8 6269   2.688   1.803   9.526 -0.7036 -0.5736  0.4819
   52CHL1   C14 6270   2.692   1.677   9.345  0.1549  0.2110  0.2258
   52CHL1   H14 6271   2.706   1.567   9.344 -1.1018  0.0254  0.7530
   52CHL1   C15 6272   2.780   1.752   9.242  0.0837 -0.6751  0.9707
   52CHL1  H15A 6273   2.798   1.854   9.281 -1.6885 -0.9466  2.6134
   52CHL1  H15B 6274   2.876   1.695   9.244 -0.2246 -1.1814  1.8227
   52CHL1   C16 6275   2.690   1.753   9.113  0.2709 -0.1205 -0.2676
   52CHL1  H16A 6276   2.662   1.855   9.078  3.8954  1.2101  0.2794
   52CHL1  H16B 6277   2.749   1.709   9.031  1.4335  1.9188 -0.6058
   52CHL1   C17 6278   2.566   1.670   9.144  0.0760  0.2635 -0.4965
   52CHL1   H17 6279   2.607   1.567   9.130  0.6777  0.1610  1.7038
   52CHL1   C13 6280   2.550   1.689   9.295  0.2830  0.7096 -0.1270
   52CHL1   C18 6281   2.512   1.836   9.324  0.4701  0.1247 -0.3669
   52CHL1  H18A 6282   2.403   1.844   9.304  0.5059 -0.0041 -0.6231
   52CHL1  H18B 6283   2.522   1.872   9.429 -0.4527  1.5518 -0.7488
   52CHL1  H18C 6284   2.569   1.903   9.257  1.0451 -1.0068 -1.0497
   52CHL1   C12 6285   2.462   1.586   9.369  0.3342  0.2196 -0.7663
   52CHL1  H12A 6286   2.356   1.594   9.338  0.2758  1.7183 -0.2728
   52CHL1  H12B 6287   2.492   1.479   9.364 -2.0089 -0.4830 -0.7836
   52CHL1   C11 6288   2.471   1.610   9.520 -0.0542 -0.8222  0.3829
   52CHL1  H11A 6289   2.417   1.703   9.547 -1.8905 -1.1638 -1.8135
   52CHL1  H11B 6290   2.414   1.520   9.555  1.4024 -2.1513 -0.5142
   52CHL1    C9 6291   2.615   1.609   9.585  0.1129 -0.2682 -0.3437
   52CHL1    H9 6292   2.655   1.507   9.567  2.1712  0.9968 -3.9409
   52CHL1   C10 6293   2.619   1.628   9.737 -0.7186 -0.4305  0.8094
   52CHL1   C19 6294   2.535   1.755   9.781  0.2572 -0.3990 -0.3145
   52CHL1  H19A 6295   2.536   1.771   9.891 -3.0393 -0.3676 -0.1964
   52CHL1  H19B 6296   2.576   1.849   9.739  1.8898 -0.0586  1.8865
   52CHL1  H19C 6297   2.428   1.740   9.755  0.4021 -0.6990 -0.7521
   52CHL1    C1 6298   2.578   1.494   9.810 -0.1683  0.1164  0.3036
   52CHL1   H1A 6299   2.478   1.457   9.780 -1.7047  3.3990  0.9060
   52CHL1   H1B 6300   2.654   1.415   9.792 -0.2850 -0.4030  1.9496
   52CHL1    C2 6301   2.583   1.507   9.962  0.1836  0.6320  0.2317
   52CHL1   H2A 6302   2.544   1.411  10.002  2.5030  0.1805  1.5558
   52CHL1   H2B 6303   2.509   1.585   9.991 -0.2007  0.4830 -0.3281
   52CHL1   C20 6304   2.445   1.699   9.054  0.2696  0.1639 -0.0912
   52CHL1   H20 6305   2.390   1.792   9.081 -0.5012 -0.0304 -0.9583
   52CHL1   C21 6306   2.355   1.580   9.064 -0.4765 -0.2769 -0.0010
   52CHL1  H21A 6307   2.285   1.570   9.150 -0.4174 -1.5386 -0.0729
   52CHL1  H21B 6308   2.421   1.493   9.045  2.4489  1.9026 -0.4921
   52CHL1  H21C 6309   2.288   1.575   8.976 -1.8166 -1.4353  1.0266
   52CHL1   C22 6310   2.490   1.725   8.908 -0.7515 -1.0397  0.3364
   52CHL1  H22A 6311   2.396   1.753   8.856 -0.0844 -1.0891 -0.9602
   52CHL1  H22B 6312   2.550   1.819   8.904 -1.2915 -0.5733  2.3707
   52CHL1   C23 6313   2.561   1.609   8.833  0.3008  0.3821 -0.2921
   52CHL1  H23A 6314   2.642   1.577   8.901  0.2833  3.4490  1.3074
   52CHL1  H23B 6315   2.486   1.526   8.829  0.0184  0.6694 -2.7933
   52CHL1   C24 6316   2.603   1.660   8.698  0.3454 -0.4034 -0.0915
   52CHL1  H24A 6317   2.682   1.737   8.716 -0.3099  0.5224 -0.9905
   52CHL1  H24B 6318   2.669   1.586   8.648  1.3124 -0.8044  1.7217
   52CHL1   C25 6319   2.492   1.720   8.609 -0.4872 -0.2959 -0.1261
   52CHL1   H25 6320   2.424   1.791   8.661  0.1204 -0.4870  0.9508
   52CHL1   C26 6321   2.577   1.795   8.496  0.2224 -0.9852 -0.2747
   52CHL1  H26A 6322   2.642   1.731   8.432  0.2928  1.6557 -3.0608
   52CHL1  H26B 6323   2.508   1.840   8.421  1.1063 -0.7961 -0.9927
   52CHL1  H26C 6324   2.634   1.876   8.545  1.1632  1.1239 -4.4098
   52CHL1   C27 6325   2.404   1.601   8.564 -0.4088 -0.7823 -0.0472
   52CHL1  H27A 6326   2.369   1.562   8.663 -0.2877 -1.9442 -0.4411
   52CHL1  H27B 6327   2.306   1.617   8.514  0.0358 -2.2000 -1.4455
   52CHL1  H27C 6328   2.462   1.524   8.510 -0.3353 -0.9262  0.2327
   53CHL1    C3 6329   4.315   1.607  10.046  0.7352  0.3345  0.2606
   53CHL1    H3 6330   4.420   1.642  10.055  0.8059  0.4083 -0.7290
   53CHL1    O3 6331   4.238   1.663  10.157  0.0837 -0.0362  0.0166
   53CHL1   H3' 6332   4.155   1.616  10.160  0.6350 -0.9997  0.8600
   53CHL1    C4 6333   4.248   1.657   9.911 -0.0019  0.1543 -0.0419
   53CHL1   H4A 6334   4.140   1.634   9.917 -0.4649  2.4050  1.1882
   53CHL1   H4B 6335   4.248   1.768   9.910 -1.0389  0.1729 -2.3347
   53CHL1    C5 6336   4.312   1.600   9.786  0.2271  0.8883 -0.2468
   53CHL1    C6 6337   4.352   1.674   9.684  0.0165  0.1763  0.8206
   53CHL1    H6 6338   4.335   1.783   9.684 -1.0533  0.0508 -1.0395
   53CHL1    C7 6339   4.404   1.615   9.555 -0.3807 -0.3222  0.0612
   53CHL1   H7A 6340   4.363   1.665   9.465 -1.9251 -3.3226 -1.0382
   53CHL1   H7B 6341   4.514   1.633   9.548 -0.1087 -2.0433 -0.7061
   53CHL1    C8 6342   4.377   1.462   9.548 -0.0135 -0.0838  0.2054
   53CHL1    H8 6343   4.268   1.460   9.523  0.2604  1.8207 -1.3958
   53CHL1   C14 6344   4.444   1.398   9.431 -0.3881  0.1200  0.4982
   53CHL1   H14 6345   4.550   1.404   9.461  0.1780 -1.4095 -0.9981
   53CHL1   C15 6346   4.439   1.462   9.293 -0.1127  0.7958  0.1322
   53CHL1  H15A 6347   4.330   1.479   9.275 -1.0229  0.1735  4.0074
   53CHL1  H15B 6348   4.487   1.561   9.280  0.5378  0.4063 -0.4847
   53CHL1   C16 6349   4.490   1.355   9.195 -0.1749  0.0743  0.0273
   53CHL1  H16A 6350   4.409   1.343   9.120  0.7998 -0.5607 -0.9712
   53CHL1  H16B 6351   4.582   1.388   9.141  0.1659  1.7059  1.5160
   53CHL1   C17 6352   4.511   1.222   9.280 -0.1382  0.0095 -0.1528
   53CHL1   H17 6353   4.615   1.237   9.317  0.3317 -2.4066 -0.3349
   53CHL1   C13 6354   4.419   1.244   9.403 -0.0458 -0.2963  0.7539
   53CHL1   C18 6355   4.265   1.214   9.376  0.6441  0.3510 -0.0458
   53CHL1  H18A 6356   4.248   1.105   9.391 -1.8073  0.3661 -1.9701
   53CHL1  H18B 6357   4.202   1.276   9.444 -0.0036 -0.0506 -0.2685
   53CHL1  H18C 6358   4.242   1.259   9.278  0.9981  1.1822  0.2510
   53CHL1   C12 6359   4.467   1.173   9.535  0.4850 -0.5649  0.2124
   53CHL1  H12A 6360   4.462   1.062   9.541 -1.9289 -0.4684  0.7400
   53CHL1  H12B 6361   4.572   1.200   9.559  1.3679 -3.3632 -0.1567
   53CHL1   C11 6362   4.385   1.233   9.654 -0.1881  0.4599 -0.4555
   53CHL1  H11A 6363   4.281   1.200   9.632  0.0723 -1.2274  0.5748
   53CHL1  H11B 6364   4.428   1.181   9.742  2.0312 -0.6817 -2.1156
   53CHL1    C9 6365   4.404   1.387   9.673  0.0848  0.5241  0.1911
   53CHL1    H9 6366   4.513   1.396   9.689  0.7551 -2.9360 -1.4497
   53CHL1   C10 6367   4.323   1.447   9.789 -0.0188  0.3605  0.1309
   53CHL1   C19 6368   4.178   1.390   9.788  0.1852  0.3984 -0.0358
   53CHL1  H19A 6369   4.181   1.285   9.824  0.9592  0.4452  0.0682
   53CHL1  H19B 6370   4.116   1.438   9.866  2.6776  2.6860  0.7017
   53CHL1  H19C 6371   4.125   1.387   9.690  0.2741  0.1234 -0.0767
   53CHL1    C1 6372   4.392   1.397   9.925  0.2527  0.1270  0.6206
   53CHL1   H1A 6373   4.396   1.286   9.932  0.9499  0.0193 -1.0989
   53CHL1   H1B 6374   4.499   1.427   9.934  0.6325 -1.2750  1.2218
   53CHL1    C2 6375   4.316   1.451  10.047  0.0182  0.0088 -0.3499
   53CHL1   H2A 6376   4.365   1.415  10.140  2.9103 -2.1812 -2.5257
   53CHL1   H2B 6377   4.211   1.415  10.044  0.3004 -0.9237  0.2415
   53CHL1   C20 6378   4.496   1.096   9.194 -0.2020  0.1221  0.3348
   53CHL1   H20 6379   4.387   1.087   9.171 -0.2167  1.5316 -0.2767
   53CHL1   C21 6380   4.521   0.969   9.275  0.5054 -0.8216  0.4466
   53CHL1  H21A 6381   4.437   0.942   9.343  0.1924  0.5059  0.6248
   53CHL1  H21B 6382   4.614   0.983   9.336 -0.0319  2.6820  0.6407
   53CHL1  H21C 6383   4.544   0.881   9.211 -0.6729  0.2772 -1.5822
   53CHL1   C22 6384   4.577   1.091   9.063  0.1381 -0.1388  0.0519
   53CHL1  H22A 6385   4.557   1.184   9.006  2.0999  1.4726  1.8241
   53CHL1  H22B 6386   4.686   1.083   9.082 -0.0607 -1.1017  0.8426
   53CHL1   C23 6387   4.547   0.979   8.950  0.0640 -0.6811 -0.4616
   53CHL1  H23A 6388   4.562   0.885   9.008 -0.8842 -0.7013 -0.2254
   53CHL1  H23B 6389   4.438   0.990   8.928  0.8409  1.0628 -4.2593
   53CHL1   C24 6390   4.621   0.983   8.821 -0.0392  0.8254  0.8004
   53CHL1  H24A 6391   4.606   1.064   8.746 -0.3781 -0.4451 -0.5402
   53CHL1  H24B 6392   4.727   0.994   8.852  0.7165 -1.7672 -0.6321
   53CHL1   C25 6393   4.612   0.853   8.743 -0.0062 -0.1614 -0.4703
   53CHL1   H25 6394   4.611   0.770   8.817 -2.1143 -0.2654 -0.5651
   53CHL1   C26 6395   4.484   0.836   8.656 -0.3626 -0.0888  0.5440
   53CHL1  H26A 6396   4.478   0.914   8.577 -0.2583  1.8468  2.3690
   53CHL1  H26B 6397   4.501   0.745   8.595 -0.1105 -0.0648  0.5758
   53CHL1  H26C 6398   4.385   0.836   8.706  0.1909 -1.2546  1.6972
   53CHL1   C27 6399   4.726   0.839   8.641 -0.3699 -0.8434  0.1130
   53CHL1  H27A 6400   4.828   0.832   8.685 -0.4372 -0.3994  0.3402
   53CHL1  H27B 6401   4.713   0.751   8.575  1.6833 -0.5960 -0.6829
   53CHL1  H27C 6402   4.722   0.933   8.582  1.2181 -0.0900  1.1377
   54CHL1    C3 6403   5.694   2.174  10.145 -0.6230 -0.1619 -0.4694
   54CHL1    H3 6404   5.762   2.261  10.144  1.5277 -1.6910 -3.2834
   54CHL1    O3 6405   5.659   2.125  10.273  0.0622 -0.4296 -0.0292
   54CHL1   H3' 6406   5.570   2.089  10.269 -0.0872  0.0315 -1.8670
   54CHL1    C4 6407   5.575   2.212  10.063  0.4772 -0.1916  0.7158
   54CHL1   H4A 6408   5.506   2.126  10.061  0.2850 -0.0598  1.4512
   54CHL1   H4B 6409   5.523   2.291  10.121 -0.7817 -0.6517  0.2481
   54CHL1    C5 6410   5.604   2.247   9.920 -0.2343 -0.4507 -0.0284
   54CHL1    C6 6411   5.551   2.358   9.873 -0.3151 -0.2306 -0.2906
   54CHL1    H6 6412   5.485   2.416   9.938  1.1578  1.0234  0.1398
   54CHL1    C7 6413   5.557   2.395   9.727 -0.4848 -0.1462  0.1151
   54CHL1   H7A 6414   5.463   2.433   9.680  1.2123  2.9033 -1.1517
   54CHL1   H7B 6415   5.631   2.474   9.704  0.4594 -1.0569 -0.0389
   54CHL1    C8 6416   5.610   2.272   9.643 -0.1397  0.6849  0.0974
   54CHL1    H8 6417   5.527   2.199   9.636  0.0710  0.6406 -2.6689
   54CHL1   C14 6418   5.654   2.312   9.507  0.0739  0.1293  0.3279
   54CHL1   H14 6419   5.746   2.373   9.515  1.9602 -2.2819 -1.4830
   54CHL1   C15 6420   5.557   2.403   9.420 -0.2724  0.7051 -0.5903
   54CHL1  H15A 6421   5.450   2.372   9.417  0.8439 -3.9083 -0.3783
   54CHL1  H15B 6422   5.561   2.508   9.457  0.1926  0.9595 -1.3364
   54CHL1   C16 6423   5.608   2.385   9.277 -0.9398 -0.0208  0.0353
   54CHL1  H16A 6424   5.520   2.353   9.217  0.0966 -0.6141 -1.2237
   54CHL1  H16B 6425   5.637   2.487   9.243  1.2523 -0.5257  0.2380
   54CHL1   C17 6426   5.723   2.286   9.282  0.4774 -0.2869 -0.1305
   54CHL1   H17 6427   5.819   2.340   9.299  0.2252 -0.2850  1.4891
   54CHL1   C13 6428   5.702   2.206   9.410  0.0179  0.3430 -0.6579
   54CHL1   C18 6429   5.589   2.101   9.390 -0.6516 -0.7791 -0.2205
   54CHL1  H18A 6430   5.611   2.019   9.318  0.0124 -1.1634  0.3995
   54CHL1  H18B 6431   5.561   2.061   9.490 -1.5841 -1.1523 -0.6204
   54CHL1  H18C 6432   5.495   2.150   9.359  1.1011  1.3222 -2.6316
   54CHL1   C12 6433   5.824   2.133   9.462  0.0952  0.5014 -0.6502
   54CHL1  H12A 6434   5.849   2.042   9.403 -0.1608  0.5962 -0.9089
   54CHL1  H12B 6435   5.910   2.203   9.465  1.8554 -1.5694 -1.0108
   54CHL1   C11 6436   5.798   2.092   9.614 -0.6132  0.2265  0.8746
   54CHL1  H11A 6437   5.724   2.010   9.605 -2.1932  1.7728 -0.9579
   54CHL1  H11B 6438   5.895   2.063   9.661 -0.0674 -0.7264 -0.7596
   54CHL1    C9 6439   5.723   2.199   9.707 -0.9200  0.2934 -0.6628
   54CHL1    H9 6440   5.799   2.279   9.720 -1.7416  0.9047  0.5439
   54CHL1   C10 6441   5.690   2.145   9.844  0.9747  0.0610  0.0498
   54CHL1   C19 6442   5.610   2.012   9.830 -0.2607 -0.3121  0.0290
   54CHL1  H19A 6443   5.680   1.930   9.802  0.5772  0.2264  0.5052
   54CHL1  H19B 6444   5.555   1.981   9.921  0.8839 -0.5534  0.6598
   54CHL1  H19C 6445   5.540   2.012   9.744  0.8066  2.2136 -0.9441
   54CHL1    C1 6446   5.825   2.127   9.929 -0.1393 -0.5508  0.9869
   54CHL1   H1A 6447   5.882   2.049   9.875  0.3886 -0.7062  1.7496
   54CHL1   H1B 6448   5.879   2.224   9.942 -1.3706  0.0527  1.8115
   54CHL1    C2 6449   5.793   2.075  10.069  0.1277 -0.1521  0.5666
   54CHL1   H2A 6450   5.885   2.080  10.131  0.4414  0.7683  0.0388
   54CHL1   H2B 6451   5.737   1.979  10.062 -1.3877  0.7077  0.4534
   54CHL1   C20 6452   5.733   2.210   9.155 -1.3114  0.7512 -0.2699
   54CHL1   H20 6453   5.639   2.155   9.137 -1.1495  0.7960 -1.3187
   54CHL1   C21 6454   5.847   2.105   9.159 -0.2557  0.0196  0.0078
   54CHL1  H21A 6455   5.817   2.010   9.209  0.3048  0.1056  0.5187
   54CHL1  H21B 6456   5.939   2.148   9.204 -0.2047  1.1262 -1.1010
   54CHL1  H21C 6457   5.876   2.071   9.057  1.3204 -0.7390  0.6588
   54CHL1   C22 6458   5.751   2.297   9.028  0.0842  0.1101  0.1863
   54CHL1  H22A 6459   5.658   2.359   9.033  0.1367  0.2249 -0.2084
   54CHL1  H22B 6460   5.846   2.354   9.038 -0.3588  0.7912  0.6625
   54CHL1   C23 6461   5.738   2.221   8.889 -0.1215 -0.1428  0.3531
   54CHL1  H23A 6462   5.818   2.145   8.876  0.4348  0.6403 -0.9860
   54CHL1  H23B 6463   5.632   2.190   8.870  0.3716 -1.0977 -1.0413
   54CHL1   C24 6464   5.773   2.324   8.779  0.6587 -0.5858  0.3398
   54CHL1  H24A 6465   5.691   2.399   8.771  1.0902 -0.2217 -0.9636
   54CHL1  H24B 6466   5.869   2.377   8.798  0.0771  0.7528 -0.2774
   54CHL1   C25 6467   5.782   2.264   8.636  0.9195  0.7759  0.0496
   54CHL1   H25 6468   5.848   2.176   8.647  0.6080  0.3785 -1.1090
   54CHL1   C26 6469   5.643   2.222   8.575 -0.4254  0.3902 -0.2390
   54CHL1  H26A 6470   5.669   2.181   8.475 -1.5125  2.1613 -1.3062
   54CHL1  H26B 6471   5.593   2.151   8.644  0.7753 -0.6851 -0.4276
   54CHL1  H26C 6472   5.580   2.313   8.562 -3.0609 -1.4251 -0.8698
   54CHL1   C27 6473   5.850   2.366   8.545 -0.1410  0.6618  0.2584
   54CHL1  H27A 6474   5.779   2.450   8.536 -1.3222 -0.3671 -0.3441
   54CHL1  H27B 6475   5.950   2.390   8.587  0.6964 -0.6615 -0.8921
   54CHL1  H27C 6476   5.868   2.312   8.449 -2.1171 -0.9972  0.7373
   55CHL1    C3 6477   5.674   0.492   9.865  0.4993 -0.2462  0.3376
   55CHL1    H3 6478   5.780   0.460   9.847  0.4598  0.4486 -1.3432
   55CHL1    O3 6479   5.652   0.511  10.001 -0.7212 -0.9411 -0.0998
   55CHL1   H3' 6480   5.559   0.491  10.018 -1.3007  0.5444 -1.2927
   55CHL1    C4 6481   5.645   0.621   9.785  0.5617 -0.2211  0.0993
   55CHL1   H4A 6482   5.551   0.673   9.813 -0.2948  0.2195 -3.1724
   55CHL1   H4B 6483   5.724   0.694   9.812  0.7810 -0.3698 -0.1406
   55CHL1    C5 6484   5.658   0.590   9.635 -0.2919 -0.0766  0.6610
   55CHL1    C6 6485   5.741   0.661   9.556 -0.2798  0.4175  0.1305
   55CHL1    H6 6486   5.805   0.739   9.601  1.5088  0.2830 -2.0094
   55CHL1    C7 6487   5.756   0.644   9.408 -0.4279 -0.4620 -0.2180
   55CHL1   H7A 6488   5.778   0.738   9.354  0.5022 -0.6174 -0.1322
   55CHL1   H7B 6489   5.844   0.582   9.379  0.4958 -0.3872  2.1959
   55CHL1    C8 6490   5.642   0.572   9.344  0.1400  0.2145 -0.6046
   55CHL1    H8 6491   5.555   0.641   9.347  1.9182  2.5622 -0.1853
   55CHL1   C14 6492   5.671   0.540   9.200 -0.4261 -0.4925 -0.5150
   55CHL1   H14 6493   5.759   0.472   9.205 -0.2946 -0.3584 -0.9976
   55CHL1   C15 6494   5.718   0.657   9.111  0.0900 -0.2686 -0.1585
   55CHL1  H15A 6495   5.649   0.743   9.122  0.5286  0.2940 -1.6052
   55CHL1  H15B 6496   5.822   0.696   9.121  0.0301  0.5342 -2.2945
   55CHL1   C16 6497   5.686   0.604   8.964 -0.1905  0.4580 -0.0265
   55CHL1  H16A 6498   5.611   0.676   8.925  0.6693  1.1884 -0.3662
   55CHL1  H16B 6499   5.782   0.602   8.908 -1.4391 -1.0658 -2.2605
   55CHL1   C17 6500   5.642   0.458   8.982  0.1289  0.2468 -0.0646
   55CHL1   H17 6501   5.737   0.401   8.991 -0.0888  0.0787  1.4240
   55CHL1   C13 6502   5.578   0.448   9.119  0.7504  0.0832  0.0563
   55CHL1   C18 6503   5.446   0.521   9.115 -0.5067  0.3375 -0.2598
   55CHL1  H18A 6504   5.366   0.458   9.069 -0.6893  1.4985 -1.5960
   55CHL1  H18B 6505   5.420   0.559   9.216  0.1524  3.5103 -1.1730
   55CHL1  H18C 6506   5.459   0.613   9.054  0.5567 -0.2824 -0.9979
   55CHL1   C12 6507   5.576   0.312   9.192  0.4199  0.2752  0.1467
   55CHL1  H12A 6508   5.513   0.238   9.139 -0.6928  1.6229 -0.4859
   55CHL1  H12B 6509   5.676   0.265   9.202  0.7932  0.8600 -0.6177
   55CHL1   C11 6510   5.535   0.331   9.343 -0.0941 -0.3927  0.5055
   55CHL1  H11A 6511   5.430   0.367   9.346 -0.5583 -1.5439 -0.8127
   55CHL1  H11B 6512   5.529   0.233   9.395  0.6330 -0.2535  0.8635
   55CHL1    C9 6513   5.616   0.442   9.424 -0.2291  0.2056 -0.2329
   55CHL1    H9 6514   5.717   0.396   9.431  0.6465  2.2124  1.1424
   55CHL1   C10 6515   5.587   0.468   9.576 -0.3853 -0.5618  0.7270
   55CHL1   C19 6516   5.437   0.507   9.583  0.5058 -0.1507 -0.4092
   55CHL1  H19A 6517   5.370   0.429   9.540  1.2208 -0.2950 -1.2824
   55CHL1  H19B 6518   5.394   0.530   9.683  2.8986  1.4453  0.3534
   55CHL1  H19C 6519   5.411   0.597   9.522 -1.5993 -2.3746 -3.0505
   55CHL1    C1 6520   5.614   0.346   9.669 -0.2119  0.2165  0.6009
   55CHL1   H1A 6521   5.538   0.268   9.647  1.3273 -1.2256  0.1878
   55CHL1   H1B 6522   5.720   0.318   9.649  0.2366  1.3472  1.2938
   55CHL1    C2 6523   5.589   0.374   9.820  0.1165  0.1486 -0.3054
   55CHL1   H2A 6524   5.615   0.286   9.883 -1.6300  0.1230  0.4387
   55CHL1   H2B 6525   5.483   0.391   9.845  0.2541 -0.1005  0.4736
   55CHL1   C20 6526   5.560   0.406   8.858  0.9050  0.2288  0.3172
   55CHL1   H20 6527   5.454   0.440   8.860 -0.1372 -2.6729  2.8662
   55CHL1   C21 6528   5.541   0.254   8.856  0.2594 -0.1833 -0.3947
   55CHL1  H21A 6529   5.456   0.236   8.925  1.0086  2.6222  1.3951
   55CHL1  H21B 6530   5.633   0.200   8.884 -0.9415 -1.5606  1.0576
   55CHL1  H21C 6531   5.523   0.217   8.752  0.8128  2.7986 -1.6822
   55CHL1   C22 6532   5.617   0.450   8.715 -0.4163  0.1278 -0.6466
   55CHL1  H22A 6533   5.538   0.415   8.645 -2.0950  1.7602  0.3518
   55CHL1  H22B 6534   5.621   0.561   8.722  0.7678  0.0017  1.9665
   55CHL1   C23 6535   5.754   0.382   8.688 -0.2769 -0.4251  0.9098
   55CHL1  H23A 6536   5.823   0.407   8.770  1.0769 -0.5753 -0.1528
   55CHL1  H23B 6537   5.739   0.274   8.668  0.9885 -0.2615 -1.2184
   55CHL1   C24 6538   5.813   0.426   8.551 -0.3212 -0.1723  0.1363
   55CHL1  H24A 6539   5.739   0.422   8.468  0.3056  1.9516 -0.5876
   55CHL1  H24B 6540   5.840   0.533   8.552 -1.6211  0.1878 -0.8312
   55CHL1   C25 6541   5.938   0.347   8.507 -0.7785 -0.7572 -0.3751
   55CHL1   H25 6542   5.921   0.237   8.503 -2.3044 -0.5849  0.6900
   55CHL1   C26 6543   5.983   0.395   8.365 -0.6172  0.3332  0.1937
   55CHL1  H26A 6544   5.996   0.505   8.365  1.8662  0.1738 -2.5979
   55CHL1  H26B 6545   6.084   0.356   8.338  0.2480  2.4027  0.2444
   55CHL1  H26C 6546   5.911   0.365   8.287  1.5518 -0.7938 -1.4970
   55CHL1   C27 6547   6.064   0.367   8.598  0.2169 -0.3872 -0.3679
   55CHL1  H27A 6548   6.026   0.345   8.700 -0.3621 -0.0568 -0.5070
   55CHL1  H27B 6549   6.148   0.301   8.569  1.5670  1.3762 -0.6819
   55CHL1  H27C 6550   6.098   0.473   8.599  2.2902 -0.9929 -1.4918
   56CHL1    C3 6551   2.933   5.249  10.038  0.2000 -0.6332 -0.1327
   56CHL1    H3 6552   2.854   5.171  10.036  0.0084 -0.4442 -2.0908
   56CHL1    O3 6553   2.954   5.290  10.176 -0.7051  0.3104 -0.0896
   56CHL1   H3' 6554   3.032   5.239  10.199 -0.6386 -0.1832 -1.3335
   56CHL1    C4 6555   3.064   5.189   9.984  0.6435  0.4483 -0.5356
   56CHL1   H4A 6556   3.145   5.263   9.996  0.1431  0.7273  1.5571
   56CHL1   H4B 6557   3.081   5.103  10.053  0.0558  1.7876  1.3689
   56CHL1    C5 6558   3.054   5.142   9.840 -0.0695  0.1232  0.2668
   56CHL1    C6 6559   3.055   5.010   9.806 -0.0174 -0.3115  0.1277
   56CHL1    H6 6560   3.079   4.934   9.882 -1.9380 -1.6816 -0.5762
   56CHL1    C7 6561   3.043   4.974   9.660 -0.2300  0.0831  0.3202
   56CHL1   H7A 6562   3.107   4.891   9.622 -2.1741 -0.6386 -1.5765
   56CHL1   H7B 6563   2.944   4.930   9.636  0.6425 -1.5378 -0.5025
   56CHL1    C8 6564   3.064   5.088   9.560 -0.4029 -0.1436  0.3427
   56CHL1    H8 6565   3.173   5.112   9.559 -0.0572 -1.5577  0.7849
   56CHL1   C14 6566   3.025   5.042   9.423  0.0186  0.8218  0.1109
   56CHL1   H14 6567   2.919   5.011   9.432  0.8854 -2.3967  0.2298
   56CHL1   C15 6568   3.092   4.918   9.363 -0.0499  0.0519  0.3028
   56CHL1  H15A 6569   3.202   4.932   9.348  0.0928 -1.3631 -0.1447
   56CHL1  H15B 6570   3.055   4.826   9.412 -0.6228  0.1220  0.0135
   56CHL1   C16 6571   3.020   4.912   9.226  0.4846 -0.4829  0.5380
   56CHL1  H16A 6572   3.076   4.864   9.142 -0.6686 -0.0552 -0.5144
   56CHL1  H16B 6573   2.929   4.849   9.235 -0.3455  0.7118  0.7154
   56CHL1   C17 6574   2.968   5.056   9.193 -0.2306 -0.7847 -0.1012
   56CHL1   H17 6575   2.857   5.057   9.193 -0.2566 -0.6547 -1.5449
   56CHL1   C13 6576   3.020   5.147   9.311 -0.2430 -0.1793 -0.1570
   56CHL1   C18 6577   3.166   5.208   9.285 -0.3055 -0.7459  0.3213
   56CHL1  H18A 6578   3.146   5.287   9.209 -1.5029 -1.7453 -0.4281
   56CHL1  H18B 6579   3.212   5.254   9.375 -1.4935 -0.3784  0.7618
   56CHL1  H18C 6580   3.236   5.132   9.244 -1.2071 -0.0476 -2.8135
   56CHL1   C12 6581   2.924   5.260   9.360 -0.3725  0.5964  0.2574
   56CHL1  H12A 6582   2.914   5.338   9.282 -0.2150  0.5060  0.1452
   56CHL1  H12B 6583   2.826   5.210   9.371 -0.1713  0.2570  0.5529
   56CHL1   C11 6584   2.970   5.321   9.491  0.3793 -0.0365  0.1069
   56CHL1  H11A 6585   3.066   5.370   9.468  0.7653 -1.2968 -1.1342
   56CHL1  H11B 6586   2.904   5.401   9.530  0.6525 -1.3054  3.5819
   56CHL1    C9 6587   2.981   5.208   9.598 -0.1284 -0.7169 -0.1119
   56CHL1    H9 6588   2.877   5.171   9.609 -0.7958  0.4784 -1.8059
   56CHL1   C10 6589   3.021   5.260   9.745  0.4374 -0.1843 -0.6285
   56CHL1   C19 6590   3.139   5.359   9.730  0.6696  0.1022 -0.4869
   56CHL1  H19A 6591   3.205   5.296   9.666 -0.7901 -2.2227  0.1811
   56CHL1  H19B 6592   3.111   5.457   9.685  0.5853 -0.1485 -0.9925
   56CHL1  H19C 6593   3.189   5.377   9.827  0.7416  0.5759 -0.6067
   56CHL1    C1 6594   2.897   5.335   9.805 -0.5659  0.0833 -0.7176
   56CHL1   H1A 6595   2.887   5.426   9.742 -0.7068  1.4295  1.1369
   56CHL1   H1B 6596   2.808   5.269   9.798 -0.8237  0.1273  1.3806
   56CHL1    C2 6597   2.908   5.368   9.952  0.8331 -0.4971 -0.2934
   56CHL1   H2A 6598   2.812   5.417   9.981  1.2511  0.1720 -0.0340
   56CHL1   H2B 6599   2.983   5.446   9.976  0.8994 -0.6227 -0.0946
   56CHL1   C20 6600   2.992   5.107   9.048  0.0111  0.1810  0.2752
   56CHL1   H20 6601   3.101   5.128   9.041  0.1668  1.0937  3.7006
   56CHL1   C21 6602   2.917   5.245   9.026 -0.0781 -0.3894  0.1460
   56CHL1  H21A 6603   2.814   5.223   9.060  0.0806 -1.5888 -0.1160
   56CHL1  H21B 6604   2.919   5.274   8.919 -1.7710  1.4581  0.5593
   56CHL1  H21C 6605   2.962   5.323   9.091  0.1747 -0.2393 -0.2037
   56CHL1   C22 6606   2.940   5.003   8.944 -0.3772  0.3595  0.0893
   56CHL1  H22A 6607   2.980   4.902   8.968 -0.2149  0.1433 -1.0260
   56CHL1  H22B 6608   2.829   5.006   8.951 -0.4098  1.2231 -0.5950
   56CHL1   C23 6609   2.982   5.038   8.796 -0.3454  0.6751  0.4634
   56CHL1  H23A 6610   2.935   5.132   8.761 -1.0430  0.5446  1.0064
   56CHL1  H23B 6611   3.092   5.042   8.799  0.0209 -3.6359  0.0717
   56CHL1   C24 6612   2.946   4.919   8.697  0.0978 -0.0112 -0.1927
   56CHL1  H24A 6613   3.000   4.827   8.731  0.8588  0.4481 -0.1298
   56CHL1  H24B 6614   2.840   4.895   8.721  0.5981 -0.9686  1.2509
   56CHL1   C25 6615   2.969   4.950   8.554 -0.7946  0.0060 -0.3403
   56CHL1   H25 6616   2.917   4.868   8.500 -0.3198 -1.1656  0.9247
   56CHL1   C26 6617   2.907   5.086   8.510  0.3934 -0.0240 -0.3480
   56CHL1  H26A 6618   2.802   5.094   8.543  0.9538  2.1219  1.1617
   56CHL1  H26B 6619   2.956   5.175   8.556 -0.5714 -0.2639  1.1814
   56CHL1  H26C 6620   2.915   5.105   8.400 -1.7225  2.3005 -0.1872
   56CHL1   C27 6621   3.119   4.946   8.519 -0.6626  0.2635 -0.0122
   56CHL1  H27A 6622   3.141   4.963   8.411  0.3765  2.7043  0.4954
   56CHL1  H27B 6623   3.174   5.017   8.585  1.9396 -2.3559  0.8166
   56CHL1  H27C 6624   3.162   4.848   8.548 -0.7880 -0.1114 -1.0379
   57CHL1    C3 6625   6.099   1.534  10.309 -0.5246  0.0069 -0.6028
   57CHL1    H3 6626   6.002   1.481  10.296 -1.4223  0.6693  2.5733
   57CHL1    O3 6627   6.133   1.536  10.449 -0.1894 -0.2112  0.3183
   57CHL1   H3' 6628   6.225   1.562  10.444  0.0290 -0.8298  0.8994
   57CHL1    C4 6629   6.216   1.469  10.218 -0.7797  0.5340 -0.0644
   57CHL1   H4A 6630   6.313   1.518  10.241 -1.9503  2.5026  0.8907
   57CHL1   H4B 6631   6.223   1.364  10.255  3.4135 -0.5035 -2.9354
   57CHL1    C5 6632   6.192   1.478  10.071 -0.3167 -0.0221 -0.8432
   57CHL1    C6 6633   6.201   1.362  10.000 -0.3225 -0.3573  0.3668
   57CHL1    H6 6634   6.230   1.265  10.044 -0.4330 -0.7165 -0.3283
   57CHL1    C7 6635   6.177   1.366   9.855  0.0723 -0.9060  0.0887
   57CHL1   H7A 6636   6.255   1.307   9.802  2.0251 -0.3947  2.2574
   57CHL1   H7B 6637   6.090   1.301   9.830  0.7372 -2.0357  0.6114
   57CHL1    C8 6638   6.165   1.503   9.794  1.1132 -0.3414 -0.0693
   57CHL1    H8 6639   6.268   1.540   9.776  1.3077  0.0053  1.5572
   57CHL1   C14 6640   6.107   1.495   9.659  0.1341 -0.3733 -0.7273
   57CHL1   H14 6641   6.004   1.455   9.671  1.0011 -2.1654  1.6929
   57CHL1   C15 6642   6.170   1.398   9.565 -0.3455  0.1909 -0.3100
   57CHL1  H15A 6643   6.276   1.430   9.574 -0.9640  2.3415 -0.0890
   57CHL1  H15B 6644   6.160   1.290   9.589 -1.3540  0.6163  1.3123
   57CHL1   C16 6645   6.115   1.438   9.427  0.1279  0.0283 -0.3074
   57CHL1  H16A 6646   6.192   1.432   9.348 -0.5976 -0.3813 -0.9997
   57CHL1  H16B 6647   6.041   1.362   9.392 -1.0803  1.1485 -0.2589
   57CHL1   C17 6648   6.048   1.576   9.450 -0.4456 -0.0299  0.4713
   57CHL1   H17 6649   5.943   1.549   9.472 -0.1937 -0.4781  1.1571
   57CHL1   C13 6650   6.104   1.629   9.584  0.3003 -0.2389  0.0316
   57CHL1   C18 6651   6.245   1.694   9.553  0.7039  1.0667 -0.3154
   57CHL1  H18A 6652   6.228   1.792   9.503 -0.2125 -0.0609 -2.3113
   57CHL1  H18B 6653   6.294   1.720   9.650 -1.9341  2.8660  0.6387
   57CHL1  H18C 6654   6.318   1.626   9.505  1.6461  1.2134  0.8679
   57CHL1   C12 6655   6.015   1.722   9.659 -0.2506 -0.4259  0.1452
   57CHL1  H12A 6656   6.023   1.822   9.613  0.3671 -1.1472 -1.3922
   57CHL1  H12B 6657   5.906   1.706   9.666 -0.2016 -0.4850  0.9414
   57CHL1   C11 6658   6.063   1.742   9.803 -0.4544  0.2078 -0.3932
   57CHL1  H11A 6659   6.150   1.810   9.802 -1.4140  1.5073  0.5623
   57CHL1  H11B 6660   5.990   1.791   9.871  1.4282  1.3280  0.9245
   57CHL1    C9 6661   6.086   1.611   9.878 -0.1395 -0.1250  0.6092
   57CHL1    H9 6662   5.987   1.560   9.889 -0.3068  0.0561 -0.0206
   57CHL1   C10 6663   6.152   1.620  10.018  0.4218 -0.4107 -0.0655
   57CHL1   C19 6664   6.279   1.709  10.016  0.4159  0.2098  0.1104
   57CHL1  H19A 6665   6.317   1.701   9.912 -2.9513  2.0783 -1.4504
   57CHL1  H19B 6666   6.255   1.816  10.034  1.0759  0.2515  0.7937
   57CHL1  H19C 6667   6.356   1.663  10.082 -1.3522 -5.0529 -0.9427
   57CHL1    C1 6668   6.048   1.678  10.116 -0.1851  0.0785  0.1960
   57CHL1   H1A 6669   6.041   1.786  10.090 -2.6113 -0.6931 -2.9620
   57CHL1   H1B 6670   5.949   1.629  10.106  0.5709 -1.3723 -0.4269
   57CHL1    C2 6671   6.087   1.676  10.260 -0.1090  0.7166  0.4366
   57CHL1   H2A 6672   6.014   1.731  10.322  2.8431  2.5936  2.5469
   57CHL1   H2B 6673   6.180   1.735  10.276 -0.8834  1.2958  3.2839
   57CHL1   C20 6674   6.043   1.661   9.325 -0.9656 -0.6872 -0.5065
   57CHL1   H20 6675   6.144   1.705   9.309 -0.3712 -1.9626 -0.4345
   57CHL1   C21 6676   5.938   1.775   9.337 -0.2778  0.9125  0.4452
   57CHL1  H21A 6677   5.837   1.731   9.349 -0.3664  1.0554  0.2252
   57CHL1  H21B 6678   5.940   1.834   9.243 -0.3010 -1.2627 -0.9925
   57CHL1  H21C 6679   5.952   1.846   9.422  0.7894  3.2296 -1.5394
   57CHL1   C22 6680   6.029   1.580   9.196  0.6906  0.3893  0.5629
   57CHL1  H22A 6681   5.967   1.488   9.205  0.7368  0.2502 -0.4396
   57CHL1  H22B 6682   5.958   1.651   9.149  1.6383  2.5794  2.2344
   57CHL1   C23 6683   6.150   1.564   9.105 -0.4603  0.0843  0.9404
   57CHL1  H23A 6684   6.193   1.663   9.080 -0.1823 -0.4833 -1.0265
   57CHL1  H23B 6685   6.230   1.498   9.146 -2.2255 -3.0774 -0.2737
   57CHL1   C24 6686   6.114   1.512   8.968 -0.6678  0.0451 -0.2503
   57CHL1  H24A 6687   6.208   1.508   8.909  0.2139  0.8433  1.0626
   57CHL1  H24B 6688   6.066   1.412   8.974  0.5589 -0.7246 -2.2127
   57CHL1   C25 6689   6.015   1.583   8.872 -0.5508  0.0326  0.0763
   57CHL1   H25 6690   5.914   1.555   8.909 -1.0039 -0.7373 -1.6428
   57CHL1   C26 6691   6.017   1.730   8.859 -0.3140  0.3596  0.2286
   57CHL1  H26A 6692   6.117   1.751   8.815  0.3279 -1.6477  0.6285
   57CHL1  H26B 6693   5.942   1.774   8.789 -0.7257 -1.2556 -0.3728
   57CHL1  H26C 6694   6.008   1.772   8.962  2.5366 -0.6489  0.9706
   57CHL1   C27 6695   6.017   1.516   8.732  0.1489 -0.1530 -0.1563
   57CHL1  H27A 6696   6.114   1.522   8.679 -0.6304  0.7384 -1.5485
   57CHL1  H27B 6697   5.986   1.409   8.741  0.3734 -0.1215  1.2250
   57CHL1  H27C 6698   5.945   1.567   8.664 -0.1113  0.6986  0.7387
   58CHL1    C3 6699   1.275   0.194  10.157  0.2175 -0.4802  0.5024
   58CHL1    H3 6700   1.362   0.124  10.153  0.9678  0.3615  1.5608
   58CHL1    O3 6701   1.244   0.217  10.291 -0.3219  0.6583 -0.1437
   58CHL1   H3' 6702   1.301   0.288  10.321 -1.3222  0.6376  1.9954
   58CHL1    C4 6703   1.310   0.332  10.093 -0.2499 -0.0882  0.8733
   58CHL1   H4A 6704   1.228   0.404  10.115 -0.1288 -0.0520  1.1944
   58CHL1   H4B 6705   1.399   0.372  10.145 -0.3581  2.4356 -0.6920
   58CHL1    C5 6706   1.335   0.313   9.942  1.0410 -0.5408 -0.3636
   58CHL1    C6 6707   1.457   0.334   9.893 -0.2042 -0.1847 -0.1809
   58CHL1    H6 6708   1.532   0.379   9.960 -1.0707  0.8439  0.1316
   58CHL1    C7 6709   1.494   0.297   9.751  0.4071 -0.1642  0.0463
   58CHL1   H7A 6710   1.547   0.381   9.700  2.8598 -1.6545  0.0019
   58CHL1   H7B 6711   1.553   0.203   9.744 -0.4725 -0.7825  0.6958
   58CHL1    C8 6712   1.368   0.279   9.664 -0.8976 -0.2834  0.2907
   58CHL1    H8 6713   1.306   0.369   9.648 -2.5526 -1.7127 -2.0908
   58CHL1   C14 6714   1.415   0.229   9.528 -0.4247  0.1232 -0.1023
   58CHL1   H14 6715   1.450   0.124   9.543 -0.5539  0.3556  2.1940
   58CHL1   C15 6716   1.522   0.316   9.458 -0.3584 -0.1878 -0.3751
   58CHL1  H15A 6717   1.511   0.425   9.472  0.6325  0.4162 -3.4963
   58CHL1  H15B 6718   1.626   0.299   9.494 -0.2377  0.8002 -0.2330
   58CHL1   C16 6719   1.499   0.276   9.308  0.5573 -0.0733  0.8802
   58CHL1  H16A 6720   1.480   0.367   9.248 -0.7640 -1.1947 -0.5054
   58CHL1  H16B 6721   1.595   0.238   9.266  1.1295  0.3839  1.7507
   58CHL1   C17 6722   1.385   0.169   9.306 -0.2796  0.5698 -0.4623
   58CHL1   H17 6723   1.436   0.071   9.322  0.4607  0.3929 -3.2593
   58CHL1   C13 6724   1.304   0.204   9.429  0.4432  0.0721  0.2271
   58CHL1   C18 6725   1.229   0.332   9.407 -0.3521  0.1639 -0.4437
   58CHL1  H18A 6726   1.166   0.359   9.494 -0.8318 -0.7731 -0.4916
   58CHL1  H18B 6727   1.294   0.420   9.385  2.5851 -0.9578  2.7505
   58CHL1  H18C 6728   1.166   0.313   9.318  1.5813 -0.7450 -1.6899
   58CHL1   C12 6729   1.224   0.089   9.486  0.2040  0.5374 -0.2554
   58CHL1  H12A 6730   1.135   0.064   9.425 -0.6878  1.4179  0.6529
   58CHL1  H12B 6731   1.278  -0.008   9.483 -1.1069 -0.3460  1.8337
   58CHL1   C11 6732   1.172   0.109   9.635  0.6342 -0.8887  0.2665
   58CHL1  H11A 6733   1.084   0.173   9.613  1.1367 -0.5793 -0.9187
   58CHL1  H11B 6734   1.124   0.020   9.682  1.6086 -1.0675  0.9565
   58CHL1    C9 6735   1.273   0.170   9.724  0.1787 -0.5704 -0.1875
   58CHL1    H9 6736   1.345   0.091   9.755  0.4800  0.4008  1.8122
   58CHL1   C10 6737   1.226   0.230   9.864 -0.5066  0.2410  0.4287
   58CHL1   C19 6738   1.101   0.326   9.839 -0.4050  0.5059 -0.4112
   58CHL1  H19A 6739   1.133   0.400   9.764  2.2687 -0.4237 -0.3167
   58CHL1  H19B 6740   1.012   0.271   9.802  0.0600  0.1852 -1.0775
   58CHL1  H19C 6741   1.066   0.373   9.934 -2.5404 -1.3653 -0.1538
   58CHL1    C1 6742   1.180   0.109   9.949  0.5061 -0.0844  0.4077
   58CHL1   H1A 6743   1.088   0.069   9.901 -0.7466 -1.7716  3.8953
   58CHL1   H1B 6744   1.255   0.027   9.938 -1.1691 -1.8016  1.2760
   58CHL1    C2 6745   1.152   0.134  10.093  0.2079 -1.1538  0.6110
   58CHL1   H2A 6746   1.136   0.033  10.138  0.7295 -0.9861  1.1989
   58CHL1   H2B 6747   1.064   0.201  10.104  0.6372 -0.7856  2.0138
   58CHL1   C20 6748   1.323   0.170   9.163  0.3855 -0.1743 -0.4421
   58CHL1   H20 6749   1.277   0.270   9.151 -1.7349 -1.0476 -0.2272
   58CHL1   C21 6750   1.207   0.070   9.150 -0.4896  0.4278  0.3449
   58CHL1  H21A 6751   1.166   0.066   9.046  0.7273 -0.4104 -0.1235
   58CHL1  H21B 6752   1.125   0.091   9.221  0.6662  0.7803  1.6131
   58CHL1  H21C 6753   1.248  -0.031   9.170  0.8741  0.7000 -0.8835
   58CHL1   C22 6754   1.418   0.144   9.043 -0.1901 -0.7984 -0.1901
   58CHL1  H22A 6755   1.527   0.152   9.062 -0.2125  2.7661 -0.7657
   58CHL1  H22B 6756   1.396   0.040   9.012  1.2190 -0.8100 -1.2417
   58CHL1   C23 6757   1.386   0.246   8.934  0.1510 -0.1082 -0.2380
   58CHL1  H23A 6758   1.279   0.243   8.905  0.2749  0.7879 -0.8369
   58CHL1  H23B 6759   1.407   0.338   8.993 -0.0077  0.5448 -1.1782
   58CHL1   C24 6760   1.474   0.253   8.816  0.5603 -0.1652 -0.0413
   58CHL1  H24A 6761   1.442   0.340   8.755 -0.8605  0.7610  1.9152
   58CHL1  H24B 6762   1.578   0.281   8.845  1.3152 -1.0491 -1.7344
   58CHL1   C25 6763   1.500   0.132   8.720 -0.0554  0.0902 -0.8549
   58CHL1   H25 6764   1.529   0.045   8.782  3.2673  2.1538  0.7154
   58CHL1   C26 6765   1.377   0.097   8.637  0.3337 -0.1945  0.1720
   58CHL1  H26A 6766   1.398   0.009   8.572 -1.3708  0.5509 -1.4620
   58CHL1  H26B 6767   1.301   0.066   8.712 -0.3047  1.4740  0.2448
   58CHL1  H26C 6768   1.332   0.180   8.580 -0.7902 -1.7343 -1.2689
   58CHL1   C27 6769   1.618   0.177   8.630  0.1756  0.7734 -0.4822
   58CHL1  H27A 6770   1.711   0.192   8.688 -0.5625  1.1352  0.6461
   58CHL1  H27B 6771   1.645   0.102   8.552  3.4771  1.0143  0.2706
   58CHL1  H27C 6772   1.595   0.281   8.598  0.3739  0.0763 -3.0659
   59CHL1    C3 6773   1.276   5.852  10.178 -0.7856  0.2579 -0.5178
   59CHL1    H3 6774   1.383   5.884  10.176 -0.8611  0.5014 -1.7095
   59CHL1    O3 6775   1.250   5.834  10.316 -0.1717  0.3609 -0.1394
   59CHL1   H3' 6776   1.164   5.794  10.331  0.2042  0.0232  1.2535
   59CHL1    C4 6777   1.180   5.962  10.120  0.0625 -0.2498  0.2238
   59CHL1   H4A 6778   1.080   5.925  10.150  0.8918 -0.7541  2.5583
   59CHL1   H4B 6779   1.175   6.060  10.173 -1.0148 -0.0969 -0.1295
   59CHL1    C5 6780   1.211   5.981   9.975 -0.1938  0.2874  0.3676
   59CHL1    C6 6781   1.245   6.099   9.931  0.2284 -0.2835  0.3233
   59CHL1    H6 6782   1.267   6.178  10.004 -0.2043 -0.3287  0.5083
   59CHL1    C7 6783   1.265   6.133   9.787  0.1751 -1.0058 -0.1458
   59CHL1   H7A 6784   1.207   6.220   9.751 -0.4128 -1.5598 -0.5678
   59CHL1   H7B 6785   1.372   6.155   9.765 -0.7829  1.4710 -2.9778
   59CHL1    C8 6786   1.228   6.010   9.688 -0.1513 -0.0879 -0.4976
   59CHL1    H8 6787   1.118   5.998   9.683 -0.2562  0.5624  0.1569
   59CHL1   C14 6788   1.285   6.035   9.551 -0.0250 -0.0138  0.0576
   59CHL1   H14 6789   1.394   6.014   9.555 -0.3947 -1.9374  2.5420
   59CHL1   C15 6790   1.263   6.175   9.483 -0.4726  0.2082  0.4514
   59CHL1  H15A 6791   1.153   6.196   9.483 -0.9013 -1.7353 -0.6277
   59CHL1  H15B 6792   1.322   6.253   9.535 -3.6597  1.9047  1.8162
   59CHL1   C16 6793   1.315   6.148   9.337  0.1904  0.0858 -0.1730
   59CHL1  H16A 6794   1.239   6.189   9.267  1.2515  0.5856 -1.0623
   59CHL1  H16B 6795   1.407   6.205   9.315 -1.1064  1.2228 -3.2353
   59CHL1   C17 6796   1.320   5.987   9.321 -0.7397  0.0969 -0.8866
   59CHL1   H17 6797   1.425   5.951   9.330 -0.5499 -0.2679 -3.6160
   59CHL1   C13 6798   1.247   5.931   9.448  0.2062 -0.0788 -0.0606
   59CHL1   C18 6799   1.093   5.949   9.419  0.2076 -0.1671  0.3284
   59CHL1  H18A 6800   1.057   5.868   9.353  2.8463 -0.0007 -1.4588
   59CHL1  H18B 6801   1.034   5.954   9.514 -1.0633  0.1610 -0.4534
   59CHL1  H18C 6802   1.064   6.040   9.363  0.5180  0.3291  0.9523
   59CHL1   C12 6803   1.281   5.797   9.500 -0.0353  0.5487 -0.4076
   59CHL1  H12A 6804   1.248   5.722   9.425 -1.7560 -1.1681  1.9088
   59CHL1  H12B 6805   1.392   5.801   9.493 -0.0443 -0.6989 -2.1308
   59CHL1   C11 6806   1.227   5.770   9.633  0.1089 -0.1147  1.0657
   59CHL1  H11A 6807   1.118   5.766   9.612 -0.0081 -0.6642  1.7362
   59CHL1  H11B 6808   1.260   5.676   9.681 -0.9666  0.3583  2.8380
   59CHL1    C9 6809   1.270   5.875   9.734  0.1503 -0.1690  0.0013
   59CHL1    H9 6810   1.381   5.881   9.742  0.1483  2.0630 -1.0202
   59CHL1   C10 6811   1.214   5.855   9.882 -0.2741 -0.4410  0.5523
   59CHL1   C19 6812   1.063   5.811   9.879 -0.3882 -0.7727 -0.4826
   59CHL1  H19A 6813   0.998   5.891   9.837  1.9899  1.7403  0.2999
   59CHL1  H19B 6814   1.065   5.713   9.827  0.6657 -1.2444  0.4119
   59CHL1  H19C 6815   1.022   5.785   9.979 -1.0440 -0.6838 -0.7232
   59CHL1    C1 6816   1.300   5.748   9.952 -0.1859  0.0809  0.0474
   59CHL1   H1A 6817   1.304   5.655   9.893  1.6297 -0.2093  0.5811
   59CHL1   H1B 6818   1.403   5.788   9.953 -0.5218  0.9777  1.1935
   59CHL1    C2 6819   1.265   5.721  10.101  0.5461  0.0782 -0.9936
   59CHL1   H2A 6820   1.332   5.638  10.133 -1.0130 -0.2359  1.7679
   59CHL1   H2B 6821   1.160   5.685  10.106  0.2919  0.8619 -0.4196
   59CHL1   C20 6822   1.262   5.937   9.181 -0.0363  0.2849  0.3556
   59CHL1   H20 6823   1.163   5.985   9.163  1.4783  4.1002  1.2257
   59CHL1   C21 6824   1.247   5.787   9.154 -0.1020 -0.0826 -0.0210
   59CHL1  H21A 6825   1.348   5.741   9.154  1.2345  2.5402  1.9544
   59CHL1  H21B 6826   1.208   5.764   9.052  1.4183 -1.7085 -0.2990
   59CHL1  H21C 6827   1.186   5.739   9.233 -2.3580 -0.8407 -2.1006
   59CHL1   C22 6828   1.362   5.983   9.066 -0.6039  0.2119  0.0962
   59CHL1  H22A 6829   1.418   6.074   9.097  2.9758 -1.3957 -1.2006
   59CHL1  H22B 6830   1.448   5.916   9.047  0.0953  1.0919  0.1033
   59CHL1   C23 6831   1.298   6.006   8.931  0.0481 -0.8299 -0.1625
   59CHL1  H23A 6832   1.218   5.931   8.909 -2.0584  1.7324 -1.8895
   59CHL1  H23B 6833   1.237   6.099   8.938  1.6432  0.3742 -1.5638
   59CHL1   C24 6834   1.401   6.029   8.818  0.3632 -0.5654  0.2494
   59CHL1  H24A 6835   1.483   6.095   8.854 -0.5687  1.0661 -0.5096
   59CHL1  H24B 6836   1.445   5.931   8.789  3.3727 -0.1916  2.9094
   59CHL1   C25 6837   1.344   6.110   8.701 -0.4511 -0.7367 -0.0707
   59CHL1   H25 6838   1.305   6.204   8.746 -0.5990 -1.1236  0.6337
   59CHL1   C26 6839   1.460   6.152   8.603  0.3573  0.1086 -0.0295
   59CHL1  H26A 6840   1.519   6.237   8.643 -1.1799  1.9417 -1.4225
   59CHL1  H26B 6841   1.517   6.060   8.580  0.8574  0.3400  0.2779
   59CHL1  H26C 6842   1.422   6.186   8.504  1.0166 -1.2527 -0.7714
   59CHL1   C27 6843   1.229   6.038   8.631  0.5000 -0.3024  0.3768
   59CHL1  H27A 6844   1.270   5.948   8.581  1.0254 -1.7683  3.1973
   59CHL1  H27B 6845   1.156   6.001   8.706 -1.8509 -0.3817 -1.8431
   59CHL1  H27C 6846   1.171   6.107   8.566  0.3994 -1.1480 -0.4424
   60CHL1    C3 6847   6.455   4.926  10.283  0.3276  0.3460 -0.2580
   60CHL1    H3 6848   6.394   5.017  10.299 -0.1644  0.1327 -0.8530
   60CHL1    O3 6849   6.470   4.850  10.396  0.4670 -0.3586 -0.6161
   60CHL1   H3' 6850   6.562   4.829  10.408  0.4770 -1.8945 -2.8430
   60CHL1    C4 6851   6.375   4.839  10.188 -0.3608  0.1348  0.7474
   60CHL1   H4A 6852   6.438   4.749  10.175 -1.7396 -0.6109 -1.3080
   60CHL1   H4B 6853   6.281   4.798  10.232  0.9162 -0.6112  2.9511
   60CHL1    C5 6854   6.359   4.907  10.051 -0.4960  0.0269 -0.3912
   60CHL1    C6 6855   6.242   4.932   9.996 -0.3461  0.1383  0.4430
   60CHL1    H6 6856   6.155   4.894  10.051 -1.0420  0.6520 -0.2914
   60CHL1    C7 6857   6.221   5.004   9.870 -0.7025 -0.2504 -0.2280
   60CHL1   H7A 6858   6.143   4.957   9.806 -1.0783 -0.1860  0.1851
   60CHL1   H7B 6859   6.193   5.109   9.892  1.0007  0.2336 -0.1972
   60CHL1    C8 6860   6.347   5.014   9.781 -0.4027 -0.0787 -0.2406
   60CHL1    H8 6861   6.373   4.912   9.746 -0.7582 -0.3995  0.4043
   60CHL1   C14 6862   6.324   5.099   9.657 -0.2775 -0.6628 -0.4532
   60CHL1   H14 6863   6.317   5.203   9.694 -0.1271 -0.0474 -2.0608
   60CHL1   C15 6864   6.205   5.065   9.572  0.1115 -0.9422 -0.9709
   60CHL1  H15A 6865   6.203   4.955   9.552  0.9737 -1.7898  2.9173
   60CHL1  H15B 6866   6.108   5.099   9.612  1.8159 -1.3509  4.1697
   60CHL1   C16 6867   6.238   5.131   9.441 -0.0644  0.2190 -0.2887
   60CHL1  H16A 6868   6.241   5.068   9.350  1.7537  2.2260 -1.7170
   60CHL1  H16B 6869   6.167   5.214   9.421 -2.9395 -1.6262  1.3950
   60CHL1   C17 6870   6.387   5.196   9.456 -0.4527 -0.0976 -0.2220
   60CHL1   H17 6871   6.370   5.293   9.507 -1.5919  0.2226 -1.1491
   60CHL1   C13 6872   6.446   5.110   9.566  0.3724  0.4195 -0.4014
   60CHL1   C18 6873   6.478   4.965   9.506 -1.1291 -0.9167  0.1367
   60CHL1  H18A 6874   6.400   4.934   9.432  0.7102 -1.0194 -1.8616
   60CHL1  H18B 6875   6.573   4.966   9.449 -1.7357  0.2425 -0.9247
   60CHL1  H18C 6876   6.490   4.893   9.589 -0.6178  0.4784  1.3124
   60CHL1   C12 6877   6.564   5.161   9.655 -0.2761  0.0690  0.5276
   60CHL1  H12A 6878   6.657   5.170   9.596 -0.8173  2.4758 -0.0722
   60CHL1  H12B 6879   6.550   5.265   9.691 -2.6917 -0.5985  1.7662
   60CHL1   C11 6880   6.594   5.070   9.777 -0.2766 -0.3948  0.3913
   60CHL1  H11A 6881   6.630   4.974   9.736 -2.4710 -1.3614  0.6327
   60CHL1  H11B 6882   6.669   5.119   9.843 -0.9974 -0.8599  1.5990
   60CHL1    C9 6883   6.470   5.053   9.867  0.4445  0.0282 -0.5214
   60CHL1    H9 6884   6.446   5.158   9.895  1.7626  0.9094 -2.4617
   60CHL1   C10 6885   6.496   4.960   9.993 -0.0680 -0.0485  0.3892
   60CHL1   C19 6886   6.590   4.851   9.944  0.5759  0.8945  0.2631
   60CHL1  H19A 6887   6.552   4.807   9.849 -0.3158  0.8114  0.6466
   60CHL1  H19B 6888   6.685   4.902   9.922  0.3657  1.2221  0.1084
   60CHL1  H19C 6889   6.604   4.769  10.018  1.4599  0.6168 -0.2004
   60CHL1    C1 6890   6.573   5.044  10.097 -0.4349  0.0836  0.0489
   60CHL1   H1A 6891   6.673   5.081  10.066 -0.3012  0.5539  1.0011
   60CHL1   H1B 6892   6.511   5.134  10.115 -0.9658  0.3546 -2.6536
   60CHL1    C2 6893   6.595   4.968  10.234 -0.0791  0.4273  0.0420
   60CHL1   H2A 6894   6.663   5.019  10.305  1.6176  1.4750 -2.2157
   60CHL1   H2B 6895   6.644   4.871  10.211 -0.6180  0.2264 -0.2857
   60CHL1   C20 6896   6.458   5.222   9.325 -0.2655  0.4408 -0.5358
   60CHL1   H20 6897   6.481   5.131   9.266 -0.5705  1.7599 -2.8149
   60CHL1   C21 6898   6.598   5.288   9.351 -0.0189  0.4942  0.2038
   60CHL1  H21A 6899   6.654   5.310   9.258  2.0007 -3.1704  0.3989
   60CHL1  H21B 6900   6.664   5.210   9.395  0.3996  1.0807  0.6242
   60CHL1  H21C 6901   6.590   5.387   9.401 -0.2740  0.9068 -0.6373
   60CHL1   C22 6902   6.364   5.299   9.224  0.8306  0.4756  0.7472
   60CHL1  H22A 6903   6.419   5.301   9.128 -2.0566 -1.0136 -1.0755
   60CHL1  H22B 6904   6.272   5.238   9.209  2.8310 -2.5643 -0.0586
   60CHL1   C23 6905   6.318   5.440   9.266  0.1465  0.2355  0.3932
   60CHL1  H23A 6906   6.232   5.436   9.336 -0.6261  3.3745 -0.2073
   60CHL1  H23B 6907   6.405   5.475   9.325  1.2457 -2.0235  0.2241
   60CHL1   C24 6908   6.282   5.536   9.149 -0.0598 -0.2621 -0.6633
   60CHL1  H24A 6909   6.375   5.542   9.089  1.0822 -3.6244  0.5226
   60CHL1  H24B 6910   6.197   5.494   9.091 -0.6162 -1.0149  0.6540
   60CHL1   C25 6911   6.255   5.676   9.191  0.4274  0.3087 -0.3899
   60CHL1   H25 6912   6.189   5.678   9.281 -0.0149  1.4595 -0.7303
   60CHL1   C26 6913   6.389   5.749   9.234  0.2683 -0.3728 -0.0082
   60CHL1  H26A 6914   6.461   5.752   9.149 -3.1155 -4.2055 -3.4702
   60CHL1  H26B 6915   6.361   5.854   9.253  1.2901 -0.1657  0.4481
   60CHL1  H26C 6916   6.430   5.705   9.328 -0.0324  1.1896  0.8940
   60CHL1   C27 6917   6.184   5.757   9.082  0.0411  0.2607 -0.1260
   60CHL1  H27A 6918   6.164   5.856   9.127 -1.0367 -0.7665  1.7779
   60CHL1  H27B 6919   6.251   5.759   8.993  2.6591 -3.5667  1.4916
   60CHL1  H27C 6920   6.081   5.722   9.060 -0.2086  0.6865  0.3440
   61CHL1    C3 6921   2.780   3.909  10.068 -0.6114  0.2057 -0.3786
   61CHL1    H3 6922   2.814   4.015  10.068 -1.1102  0.4010 -2.7183
   61CHL1    O3 6923   2.765   3.866  10.203  0.3656 -0.0605 -0.0749
   61CHL1   H3' 6924   2.676   3.833  10.216  0.4976 -0.0325  1.0519
   61CHL1    C4 6925   2.646   3.894   9.990  0.5413 -0.0772  0.1083
   61CHL1   H4A 6926   2.586   3.802  10.010 -2.2743  1.7483  0.6010
   61CHL1   H4B 6927   2.578   3.976  10.019 -0.0094 -0.2120 -0.7592
   61CHL1    C5 6928   2.671   3.918   9.839  0.4173  0.3883  0.3282
   61CHL1    C6 6929   2.603   4.014   9.777  0.0703  0.4795  0.1837
   61CHL1    H6 6930   2.527   4.071   9.833  1.9625  1.6428  1.7079
   61CHL1    C7 6931   2.625   4.040   9.626  0.0129 -0.1034 -0.0501
   61CHL1   H7A 6932   2.520   4.041   9.589  0.0052  0.2223 -0.0187
   61CHL1   H7B 6933   2.650   4.147   9.611 -3.1664  0.4051 -2.9864
   61CHL1    C8 6934   2.691   3.925   9.550  1.1924 -0.4990  0.0101
   61CHL1    H8 6935   2.624   3.838   9.534  0.5600  0.4176 -2.9438
   61CHL1   C14 6936   2.736   3.976   9.412 -0.3072 -0.0018 -0.0292
   61CHL1   H14 6937   2.811   4.057   9.425 -0.2084 -0.1193  0.1355
   61CHL1   C15 6938   2.624   4.041   9.325 -0.5654  0.0412  0.0158
   61CHL1  H15A 6939   2.535   3.978   9.342 -1.0193  0.5797 -0.3126
   61CHL1  H15B 6940   2.597   4.143   9.360 -0.6412 -0.4118  1.3257
   61CHL1   C16 6941   2.678   4.024   9.182  0.3940  0.3543 -0.5953
   61CHL1  H16A 6942   2.605   3.962   9.126  1.9635 -1.1226 -1.0905
   61CHL1  H16B 6943   2.690   4.128   9.147 -0.0857  1.6594  2.7258
   61CHL1   C17 6944   2.811   3.947   9.191  0.3962  0.0393 -1.0791
   61CHL1   H17 6945   2.889   4.024   9.208  1.2322 -0.5864 -1.9855
   61CHL1   C13 6946   2.794   3.862   9.322  0.0446  0.0593 -0.0519
   61CHL1   C18 6947   2.690   3.742   9.302 -0.3753 -0.2076  0.9018
   61CHL1  H18A 6948   2.611   3.752   9.225  1.0018 -0.9702 -0.6752
   61CHL1  H18B 6949   2.756   3.661   9.265  2.0026  1.9276  0.1793
   61CHL1  H18C 6950   2.652   3.703   9.399 -1.5114  2.0659  1.4300
   61CHL1   C12 6951   2.918   3.808   9.398  0.3797 -0.1178 -0.3252
   61CHL1  H12A 6952   2.974   3.730   9.342  0.8240 -0.1295  0.1273
   61CHL1  H12B 6953   2.987   3.895   9.399 -0.0139  0.1967  0.0332
   61CHL1   C11 6954   2.882   3.764   9.543 -0.2433  0.3028 -0.1185
   61CHL1  H11A 6955   2.815   3.676   9.533 -0.9932  0.8932 -0.4270
   61CHL1  H11B 6956   2.970   3.748   9.609  0.6311 -0.8345 -1.5049
   61CHL1    C9 6957   2.811   3.873   9.625  0.0767  0.6973  0.3407
   61CHL1    H9 6958   2.880   3.959   9.639  0.7175  0.0398  1.3320
   61CHL1   C10 6959   2.782   3.826   9.774  0.0334  0.9574  0.0112
   61CHL1   C19 6960   2.735   3.669   9.775 -0.1178  0.0404 -0.5601
   61CHL1  H19A 6961   2.819   3.603   9.745 -1.1488 -1.1055 -1.0052
   61CHL1  H19B 6962   2.685   3.632   9.867  0.8450 -1.0118 -0.4472
   61CHL1  H19C 6963   2.651   3.663   9.702  0.1184  3.2426 -1.2395
   61CHL1    C1 6964   2.916   3.832   9.856  0.0741  0.2115 -0.7640
   61CHL1   H1A 6965   2.987   3.750   9.833  0.7686  1.1656 -2.2115
   61CHL1   H1B 6966   2.977   3.919   9.822  1.3611 -0.4271 -0.1620
   61CHL1    C2 6967   2.884   3.813  10.009 -0.5970 -0.1024 -0.8513
   61CHL1   H2A 6968   2.975   3.816  10.072  0.2360 -1.1111 -1.9643
   61CHL1   H2B 6969   2.854   3.706  10.008  0.4315 -0.4462 -3.4597
   61CHL1   C20 6970   2.855   3.867   9.068  0.4540  0.4087 -0.4641
   61CHL1   H20 6971   2.786   3.782   9.050  0.7102  0.0488  0.2198
   61CHL1   C21 6972   2.995   3.807   9.076  0.3034 -0.0964 -0.3468
   61CHL1  H21A 6973   3.069   3.881   9.114 -2.4650  2.2275  0.8969
   61CHL1  H21B 6974   3.027   3.764   8.978 -0.4526 -1.6463  0.0516
   61CHL1  H21C 6975   2.998   3.722   9.147  0.7258  0.7433  0.6584
   61CHL1   C22 6976   2.849   3.956   8.942 -0.7341  0.4860 -0.2934
   61CHL1  H22A 6977   2.743   3.992   8.946 -1.3455 -1.3261  0.6694
   61CHL1  H22B 6978   2.915   4.043   8.961 -0.5280  0.0674  0.9419
   61CHL1   C23 6979   2.853   3.877   8.807  0.2525 -0.3147 -0.1806
   61CHL1  H23A 6980   2.956   3.855   8.771  0.5244  2.1271 -1.1368
   61CHL1  H23B 6981   2.784   3.791   8.798  0.0356  0.0506 -2.5754
   61CHL1   C24 6982   2.804   3.972   8.683 -0.0091 -0.0315  0.0836
   61CHL1  H24A 6983   2.714   4.029   8.715  1.4812  1.1978  2.3199
   61CHL1  H24B 6984   2.887   4.045   8.671 -0.8644  0.8149 -0.8548
   61CHL1   C25 6985   2.788   3.896   8.545  0.2385  0.2281 -0.0371
   61CHL1   H25 6986   2.772   3.968   8.461  2.3929 -2.8442 -3.3195
   61CHL1   C26 6987   2.920   3.818   8.504  0.4066 -0.2350 -0.1959
   61CHL1  H26A 6988   2.913   3.784   8.399  2.9819 -0.0585 -0.4775
   61CHL1  H26B 6989   3.001   3.894   8.497  3.3711 -3.3520 -2.4736
   61CHL1  H26C 6990   2.943   3.747   8.586  0.3427 -0.8471 -0.7045
   61CHL1   C27 6991   2.670   3.805   8.543  0.6969  1.0662 -0.1371
   61CHL1  H27A 6992   2.694   3.712   8.601 -2.7460 -0.8859 -1.5467
   61CHL1  H27B 6993   2.570   3.837   8.581  0.3769 -2.6475  2.7949
   61CHL1  H27C 6994   2.643   3.766   8.442 -0.2902  0.4617  0.3381
   62CHL1    C3 6995   5.067   1.389   9.805 -0.0062 -0.6041 -0.3874
   62CHL1    H3 6996   5.178   1.393   9.802 -0.0609  0.5515 -1.7761
   62CHL1    O3 6997   5.035   1.396   9.943  0.7309 -0.2709  0.2962
   62CHL1   H3' 6998   5.082   1.319   9.976  1.0951 -0.5364 -0.7778
   62CHL1    C4 6999   5.012   1.510   9.725  0.0231  0.0906  0.1605
   62CHL1   H4A 7000   4.905   1.526   9.748  0.1941  0.8092  0.4586
   62CHL1   H4B 7001   5.074   1.592   9.767 -0.3326  0.3402  0.2007
   62CHL1    C5 7002   5.038   1.489   9.576  0.3311  0.6415 -0.5597
   62CHL1    C6 7003   5.109   1.569   9.503  0.1292  0.3574  0.0030
   62CHL1    H6 7004   5.128   1.661   9.559  0.3693  0.9664 -1.0385
   62CHL1    C7 7005   5.142   1.557   9.351 -0.1312  0.5088 -0.2417
   62CHL1   H7A 7006   5.140   1.659   9.307  2.3438  0.9831  0.5631
   62CHL1   H7B 7007   5.247   1.524   9.336 -0.8070 -2.2325  0.5601
   62CHL1    C8 7008   5.057   1.444   9.286  0.4444 -0.7074  0.5447
   62CHL1    H8 7009   4.953   1.485   9.280 -0.3916 -2.3086  2.9112
   62CHL1   C14 7010   5.109   1.394   9.151  0.0002  0.0618  0.0190
   62CHL1   H14 7011   5.206   1.348   9.178  0.3243  2.2208  2.9735
   62CHL1   C15 7012   5.151   1.500   9.044 -0.2484 -0.3829  0.1890
   62CHL1  H15A 7013   5.099   1.597   9.058  0.8485  0.2181  0.1744
   62CHL1  H15B 7014   5.260   1.515   9.060  0.1474 -2.1220 -0.5544
   62CHL1   C16 7015   5.131   1.435   8.909  0.0329  0.0466  0.6182
   62CHL1  H16A 7016   5.040   1.480   8.864  1.2610  1.6915 -0.3250
   62CHL1  H16B 7017   5.211   1.464   8.839 -0.8254 -1.0750 -0.8979
   62CHL1   C17 7018   5.099   1.286   8.935  0.1674  0.0169 -0.0668
   62CHL1   H17 7019   5.200   1.247   8.958  1.2833  1.1538 -2.7249
   62CHL1   C13 7020   5.024   1.293   9.073 -0.6149  0.7051  0.0836
   62CHL1   C18 7021   4.877   1.332   9.060 -0.1009 -0.2758 -0.2275
   62CHL1  H18A 7022   4.819   1.246   9.022  0.2436 -1.3268  1.5372
   62CHL1  H18B 7023   4.835   1.362   9.158 -2.1336  0.7304 -1.3375
   62CHL1  H18C 7024   4.873   1.416   8.987  1.9449 -0.6526 -0.8433
   62CHL1   C12 7025   5.028   1.167   9.163 -0.1297 -0.5465  0.0219
   62CHL1  H12A 7026   4.970   1.087   9.112  2.2600 -1.4199 -1.5059
   62CHL1  H12B 7027   5.133   1.131   9.173  0.8633  2.5380  2.4184
   62CHL1   C11 7028   4.981   1.199   9.308  0.7065  0.0310  0.8575
   62CHL1  H11A 7029   4.872   1.207   9.288  1.2675 -1.3385 -3.8611
   62CHL1  H11B 7030   5.000   1.110   9.372  4.2437  1.4135  1.9500
   62CHL1    C9 7031   5.048   1.322   9.375 -0.1949 -0.2044  0.5028
   62CHL1    H9 7032   5.153   1.286   9.387 -0.4450 -1.1333  0.0055
   62CHL1   C10 7033   4.991   1.357   9.518  0.3422  0.6490  0.5021
   62CHL1   C19 7034   4.839   1.367   9.510  0.9582 -0.9962  0.1388
   62CHL1  H19A 7035   4.801   1.462   9.468  1.7344  0.5806  2.7958
   62CHL1  H19B 7036   4.787   1.275   9.473  1.7065 -1.9784  1.4318
   62CHL1  H19C 7037   4.796   1.375   9.612  0.7418  2.3408 -0.1165
   62CHL1    C1 7038   5.039   1.230   9.604 -1.1559 -0.3995 -0.2288
   62CHL1   H1A 7039   4.969   1.148   9.576 -0.2337 -1.4093  0.3276
   62CHL1   H1B 7040   5.143   1.198   9.583 -1.1668  0.7691 -2.3816
   62CHL1    C2 7041   5.009   1.258   9.757  0.0794 -0.1756 -0.6182
   62CHL1   H2A 7042   5.054   1.170   9.807  0.5826 -1.6325 -3.4592
   62CHL1   H2B 7043   4.898   1.267   9.764  0.0388 -1.9564  2.4065
   62CHL1   C20 7044   5.037   1.206   8.820  0.6157  0.5748  0.2988
   62CHL1   H20 7045   4.939   1.251   8.792 -0.8590 -2.0943  0.7868
   62CHL1   C21 7046   5.009   1.055   8.852  0.3736 -0.9376  0.6740
   62CHL1  H21A 7047   4.972   1.017   8.754  0.2461  0.5574  0.1230
   62CHL1  H21B 7048   4.927   1.044   8.926 -1.4610 -0.4098 -1.1690
   62CHL1  H21C 7049   5.103   1.000   8.875  0.9765  0.3550  1.4276
   62CHL1   C22 7050   5.115   1.228   8.689  0.5897 -0.5155 -0.0764
   62CHL1  H22A 7051   5.064   1.182   8.602 -0.7917 -0.2841  0.5882
   62CHL1  H22B 7052   5.116   1.332   8.651 -2.1159 -0.9664 -1.6144
   62CHL1   C23 7053   5.252   1.170   8.680 -0.0743 -0.0822  0.1102
   62CHL1  H23A 7054   5.329   1.220   8.742 -0.7879  1.8497 -0.4583
   62CHL1  H23B 7055   5.233   1.065   8.711 -0.3408 -0.0754 -0.0214
   62CHL1   C24 7056   5.312   1.171   8.536  0.2346 -0.0507  0.3136
   62CHL1  H24A 7057   5.394   1.096   8.532 -0.6699 -1.0465 -0.0742
   62CHL1  H24B 7058   5.234   1.136   8.465  0.3015  1.4515 -0.5390
   62CHL1   C25 7059   5.350   1.310   8.480 -0.8367  0.5279 -0.3700
   62CHL1   H25 7060   5.264   1.380   8.482 -1.6121 -0.3972  0.0804
   62CHL1   C26 7061   5.453   1.389   8.562  0.3925  0.3905  0.2073
   62CHL1  H26A 7062   5.404   1.435   8.650  0.0227 -1.1304  0.8197
   62CHL1  H26B 7063   5.530   1.314   8.591 -0.4328 -0.6992 -0.3218
   62CHL1  H26C 7064   5.504   1.464   8.498  0.8441  0.4403  0.6239
   62CHL1   C27 7065   5.409   1.294   8.334 -0.3143  0.2679  0.1616
   62CHL1  H27A 7066   5.487   1.217   8.351 -0.6968  0.2309  2.0029
   62CHL1  H27B 7067   5.331   1.261   8.262 -0.9636  1.9728  0.0353
   62CHL1  H27C 7068   5.457   1.390   8.307 -0.6912  1.2120  2.5517
   63CHL1    C3 7069   6.366   3.901  10.221  0.1750 -0.4061  0.4670
   63CHL1    H3 7070   6.319   3.807  10.186  1.1370 -0.8527  0.3269
   63CHL1    O3 7071   6.374   3.906  10.359  0.4695  0.5111 -0.2057
   63CHL1   H3' 7072   6.287   3.932  10.390  1.4753  1.0393  2.3823
   63CHL1    C4 7073   6.510   3.918  10.169 -0.1832  0.4332 -0.1940
   63CHL1   H4A 7074   6.550   4.012  10.213 -0.3938  0.6281 -0.4180
   63CHL1   H4B 7075   6.565   3.830  10.209 -0.6729 -0.1130 -0.6985
   63CHL1    C5 7076   6.520   3.933  10.020  0.0190 -0.1894  0.2254
   63CHL1    C6 7077   6.592   3.847   9.947 -0.7522 -0.3152 -0.6060
   63CHL1    H6 7078   6.656   3.777  10.002  1.2841  1.6556 -0.3161
   63CHL1    C7 7079   6.599   3.849   9.796 -0.6713 -0.1661 -0.0610
   63CHL1   H7A 7080   6.706   3.850   9.767 -0.5063 -1.2584  0.4543
   63CHL1   H7B 7081   6.554   3.756   9.755  0.8481 -0.5776 -0.8857
   63CHL1    C8 7082   6.539   3.974   9.734  0.1434  0.8968  0.1865
   63CHL1    H8 7083   6.612   4.057   9.746  0.6468  0.9735 -2.7392
   63CHL1   C14 7084   6.510   3.943   9.583  0.0922  0.1772 -0.0070
   63CHL1   H14 7085   6.430   3.866   9.575  0.8182 -0.4246 -2.0459
   63CHL1   C15 7086   6.621   3.885   9.496 -0.4441  0.0259  0.5526
   63CHL1  H15A 7087   6.717   3.934   9.523 -0.6662 -0.5805  2.6325
   63CHL1  H15B 7088   6.647   3.777   9.506  0.1598 -0.2998 -3.1802
   63CHL1   C16 7089   6.588   3.928   9.352  0.5438 -0.2415 -0.0555
   63CHL1  H16A 7090   6.668   3.993   9.309 -1.2526  1.2025 -1.3646
   63CHL1  H16B 7091   6.560   3.846   9.282 -2.3029 -0.3399  1.0773
   63CHL1   C17 7092   6.450   4.013   9.367 -0.4035  0.4781  0.7619
   63CHL1   H17 7093   6.362   3.945   9.377 -0.4442  0.2249 -1.1117
   63CHL1   C13 7094   6.462   4.070   9.515 -0.3309 -0.1113  0.2505
   63CHL1   C18 7095   6.568   4.186   9.511  0.9335 -0.3546  0.7529
   63CHL1  H18A 7096   6.595   4.226   9.611 -1.0468  2.1159  0.3998
   63CHL1  H18B 7097   6.660   4.144   9.465 -0.1502 -1.7905 -0.1786
   63CHL1  H18C 7098   6.524   4.269   9.451  1.4075  1.5293  2.8586
   63CHL1   C12 7099   6.340   4.128   9.583 -0.1682  0.0236 -0.0858
   63CHL1  H12A 7100   6.314   4.223   9.533  1.2758  0.2033 -0.5328
   63CHL1  H12B 7101   6.256   4.061   9.557 -0.3025  0.0252  0.3361
   63CHL1   C11 7102   6.359   4.144   9.733 -0.9481  0.4110 -0.2039
   63CHL1  H11A 7103   6.426   4.232   9.744  0.2674 -0.4713 -0.3649
   63CHL1  H11B 7104   6.262   4.162   9.785 -0.2081 -1.4612  2.0399
   63CHL1    C9 7105   6.413   4.020   9.808 -0.1903  0.2684 -0.3224
   63CHL1    H9 7106   6.334   3.944   9.790 -0.2143  0.6661 -2.0584
   63CHL1   C10 7107   6.422   4.038   9.965 -0.5324  0.3146 -0.2926
   63CHL1   C19 7108   6.474   4.181   9.995 -0.0447  0.0435  0.0354
   63CHL1  H19A 7109   6.471   4.199  10.105  1.3964  1.2236 -0.0958
   63CHL1  H19B 7110   6.578   4.198   9.960  0.0823 -0.6561  0.0627
   63CHL1  H19C 7111   6.404   4.256   9.952 -1.2406 -0.9342  0.1890
   63CHL1    C1 7112   6.276   4.015  10.016 -0.5859 -0.3182 -0.7622
   63CHL1   H1A 7113   6.204   4.088   9.974 -0.3549 -1.2009 -2.8684
   63CHL1   H1B 7114   6.233   3.917   9.985 -0.0702 -0.2026 -1.9401
   63CHL1    C2 7115   6.281   4.017  10.164 -0.4770 -0.0876 -0.6395
   63CHL1   H2A 7116   6.177   4.014  10.203 -0.0049  0.3759  0.7309
   63CHL1   H2B 7117   6.323   4.113  10.201 -0.1977 -0.1032 -0.9142
   63CHL1   C20 7118   6.428   4.097   9.241 -0.0766 -0.0331 -0.2632
   63CHL1   H20 7119   6.488   4.191   9.244  0.4296 -0.3705  1.1485
   63CHL1   C21 7120   6.279   4.137   9.242  0.4414  1.1686 -0.3105
   63CHL1  H21A 7121   6.254   4.172   9.344  1.3964  0.9106  0.0304
   63CHL1  H21B 7122   6.221   4.046   9.215  0.7261  0.4451  1.3704
   63CHL1  H21C 7123   6.258   4.214   9.165 -0.2216 -2.6038 -4.3391
   63CHL1   C22 7124   6.447   4.020   9.109  0.1711  0.0174  0.5114
   63CHL1  H22A 7125   6.550   3.980   9.096  0.9077  1.7864  0.6009
   63CHL1  H22B 7126   6.377   3.934   9.110  2.3801 -1.8835 -0.2470
   63CHL1   C23 7127   6.421   4.113   8.986  0.0097  0.2964  0.2632
   63CHL1  H23A 7128   6.325   4.169   8.994 -0.6931 -0.4387 -2.0970
   63CHL1  H23B 7129   6.501   4.189   8.986  0.2479  0.0620 -0.7213
   63CHL1   C24 7130   6.423   4.037   8.856 -0.7760  0.2785 -0.0518
   63CHL1  H24A 7131   6.528   4.002   8.846 -1.1568 -0.7955 -0.4531
   63CHL1  H24B 7132   6.354   3.950   8.857 -1.4199  0.7609  2.0779
   63CHL1   C25 7133   6.371   4.127   8.736 -0.2306 -0.8648 -0.1649
   63CHL1   H25 7134   6.421   4.225   8.747  0.4140 -1.1379 -0.6200
   63CHL1   C26 7135   6.415   4.064   8.606 -1.1811 -0.3424 -0.6066
   63CHL1  H26A 7136   6.354   3.973   8.590 -1.8507 -0.9536  3.8826
   63CHL1  H26B 7137   6.402   4.135   8.521  0.0280  1.5166  0.6671
   63CHL1  H26C 7138   6.523   4.043   8.620 -1.0004  0.3342 -0.9575
   63CHL1   C27 7139   6.216   4.133   8.746 -0.0439  0.1547 -0.2217
   63CHL1  H27A 7140   6.186   4.120   8.853 -0.5244 -1.7277 -0.5578
   63CHL1  H27B 7141   6.180   4.219   8.685  0.6676  0.8814  0.3400
   63CHL1  H27C 7142   6.178   4.039   8.703 -2.3071  1.8216 -2.0692
   64CHL1    C3 7143   6.190   3.208  10.129 -0.0214 -0.1935 -0.4060
   64CHL1    H3 7144   6.222   3.310  10.099  1.3059 -0.4341  0.1179
   64CHL1    O3 7145   6.153   3.198  10.264 -0.0095 -0.0173 -0.7333
   64CHL1   H3' 7146   6.230   3.205  10.320 -0.0447 -0.8428 -0.5586
   64CHL1    C4 7147   6.069   3.161  10.045 -0.0946 -0.5148  0.2116
   64CHL1   H4A 7148   6.045   3.056  10.074  1.5811 -1.3881 -1.2966
   64CHL1   H4B 7149   5.981   3.226  10.059 -0.4496 -0.5176 -1.6779
   64CHL1    C5 7150   6.105   3.161   9.900  0.1840 -0.6219 -0.0681
   64CHL1    C6 7151   6.032   3.219   9.806  0.4794 -0.5132 -0.3902
   64CHL1    H6 7152   5.947   3.281   9.836  0.9845  0.3040 -0.6174
   64CHL1    C7 7153   6.074   3.242   9.667 -1.0367 -0.0670  0.4808
   64CHL1   H7A 7154   5.992   3.251   9.593 -0.5678 -1.6495 -0.2753
   64CHL1   H7B 7155   6.128   3.339   9.668  2.2499 -1.7192  2.7249
   64CHL1    C8 7156   6.159   3.121   9.623 -0.5551 -0.0816 -0.2707
   64CHL1    H8 7157   6.084   3.039   9.614 -2.1825  1.3692 -0.3931
   64CHL1   C14 7158   6.225   3.150   9.484 -0.6469 -0.0364  0.4857
   64CHL1   H14 7159   6.296   3.234   9.498  1.7257 -1.6669 -0.8644
   64CHL1   C15 7160   6.128   3.182   9.374 -0.4245 -0.3188  0.1719
   64CHL1  H15A 7161   6.041   3.116   9.394 -1.2071  1.1003  1.7200
   64CHL1  H15B 7162   6.087   3.285   9.382 -0.5512 -0.3748  0.2496
   64CHL1   C16 7163   6.193   3.159   9.240 -0.8542 -0.6571  0.5883
   64CHL1  H16A 7164   6.130   3.084   9.187 -1.4167  0.3591 -0.2316
   64CHL1  H16B 7165   6.220   3.255   9.190 -0.1047 -0.6889  0.9258
   64CHL1   C17 7166   6.329   3.086   9.273  0.8279  0.4307  0.2994
   64CHL1   H17 7167   6.409   3.162   9.283  1.6101 -0.3957  0.5630
   64CHL1   C13 7168   6.310   3.040   9.418 -0.5097 -0.0616 -0.0387
   64CHL1   C18 7169   6.225   2.913   9.419 -0.1645  0.2541  0.1630
   64CHL1  H18A 7170   6.222   2.860   9.516  2.9777  1.5258  1.1006
   64CHL1  H18B 7171   6.119   2.927   9.390  0.0529 -0.9426 -1.2725
   64CHL1  H18C 7172   6.250   2.831   9.349 -0.4153 -0.9124  1.4132
   64CHL1   C12 7173   6.437   3.029   9.510  0.3282  0.0632 -0.0055
   64CHL1  H12A 7174   6.496   2.937   9.488  0.3758  0.7701 -3.6016
   64CHL1  H12B 7175   6.501   3.119   9.507  1.0707 -0.4691 -1.2918
   64CHL1   C11 7176   6.386   3.005   9.658  0.4234 -0.2585  0.1135
   64CHL1  H11A 7177   6.365   2.898   9.676  1.1608 -0.2924  0.8553
   64CHL1  H11B 7178   6.473   3.036   9.720  0.5317 -0.3162 -0.0084
   64CHL1    C9 7179   6.274   3.106   9.715  0.1679  0.9117  0.1906
   64CHL1    H9 7180   6.326   3.203   9.723 -0.9933  1.6484 -0.8468
   64CHL1   C10 7181   6.231   3.078   9.862  0.5490  0.2803  0.5029
   64CHL1   C19 7182   6.184   2.932   9.878 -0.0840 -0.1578 -0.2111
   64CHL1  H19A 7183   6.085   2.920   9.828 -0.3225 -2.3605  0.6930
   64CHL1  H19B 7184   6.258   2.857   9.844  0.2461 -1.4416  3.0404
   64CHL1  H19C 7185   6.169   2.898   9.983  1.1087 -0.9677 -0.2878
   64CHL1    C1 7186   6.347   3.109   9.962  0.4470 -0.8620  0.9200
   64CHL1   H1A 7187   6.423   3.028   9.956 -1.4556 -2.7322  0.5424
   64CHL1   H1B 7188   6.403   3.199   9.931 -0.3181 -1.2192 -1.7273
   64CHL1    C2 7189   6.310   3.113  10.108  0.2430 -0.9153 -0.1086
   64CHL1   H2A 7190   6.400   3.150  10.162  0.0446  1.0756 -1.0325
   64CHL1   H2B 7191   6.289   3.013  10.151 -0.8595 -0.0390  1.4803
   64CHL1   C20 7192   6.381   2.993   9.163 -0.1672 -0.2972 -0.0549
   64CHL1   H20 7193   6.318   2.901   9.168 -1.2544  0.1185 -3.4620
   64CHL1   C21 7194   6.524   2.939   9.199 -0.1331 -0.8873 -0.7372
   64CHL1  H21A 7195   6.538   2.876   9.289 -0.5685 -1.8384 -1.3159
   64CHL1  H21B 7196   6.602   3.018   9.202 -0.6219 -0.4489  0.6705
   64CHL1  H21C 7197   6.566   2.884   9.111  0.3825 -0.3839 -0.8114
   64CHL1   C22 7198   6.371   3.049   9.021 -0.1018 -0.6122  0.5537
   64CHL1  H22A 7199   6.435   2.982   8.958  1.1922 -1.9853  3.1596
   64CHL1  H22B 7200   6.266   3.049   8.986 -0.0449  1.2310  0.2607
   64CHL1   C23 7201   6.443   3.187   9.011  0.1298  0.3472  0.0012
   64CHL1  H23A 7202   6.389   3.255   9.081  2.6774  2.8271 -0.2432
   64CHL1  H23B 7203   6.548   3.176   9.046 -0.1467 -0.5436  0.5722
   64CHL1   C24 7204   6.432   3.249   8.872  0.0086  0.4377  0.4561
   64CHL1  H24A 7205   6.325   3.265   8.847  0.0365  3.1595  1.7539
   64CHL1  H24B 7206   6.473   3.351   8.859 -0.0410  0.6283  1.6989
   64CHL1   C25 7207   6.492   3.167   8.765  0.1376 -0.2978  0.0694
   64CHL1   H25 7208   6.434   3.073   8.750  0.0361 -0.5803  1.9553
   64CHL1   C26 7209   6.478   3.243   8.632 -0.0527 -0.5780  0.2263
   64CHL1  H26A 7210   6.511   3.174   8.551 -0.6031 -1.8979  1.0936
   64CHL1  H26B 7211   6.373   3.269   8.607  0.4411 -1.3329 -3.0462
   64CHL1  H26C 7212   6.533   3.339   8.625 -1.4197  0.1083 -2.0194
   64CHL1   C27 7213   6.636   3.133   8.783  0.7722  0.4001 -0.3061
   64CHL1  H27A 7214   6.655   3.053   8.858  0.6358  1.3082  0.7243
   64CHL1  H27B 7215   6.693   3.098   8.694  1.1443 -1.0253  0.4686
   64CHL1  H27C 7216   6.681   3.229   8.817 -1.9092  1.9245 -0.8115
   65CHL1    C3 7217   0.240   5.545  10.267  0.3664  0.2762 -0.4747
   65CHL1    H3 7218   0.218   5.654  10.279  0.3499  0.0333  2.4227
   65CHL1    O3 7219   0.270   5.493  10.396  0.2617 -0.6530 -0.6344
   65CHL1   H3' 7220   0.216   5.415  10.413  1.0119 -0.5705  2.6168
   65CHL1    C4 7221   0.117   5.473  10.222 -0.5097  0.6049 -0.4439
   65CHL1   H4A 7222   0.137   5.364  10.215  2.9374  1.0923  0.3857
   65CHL1   H4B 7223   0.034   5.478  10.296 -1.2009 -1.1049 -1.0331
   65CHL1    C5 7224   0.080   5.519  10.084  0.0714 -0.6654  0.2254
   65CHL1    C6 7225  -0.036   5.574  10.058  0.3280  0.0439  0.5183
   65CHL1    H6 7226  -0.110   5.573  10.140 -0.5031 -2.7063 -0.1481
   65CHL1    C7 7227  -0.089   5.613   9.922 -0.8967  0.2956 -1.0980
   65CHL1   H7A 7228  -0.190   5.573   9.898 -0.9607  0.2061 -0.6752
   65CHL1   H7B 7229  -0.090   5.723   9.933 -0.5394  0.1185  1.0006
   65CHL1    C8 7230   0.004   5.569   9.809  0.3764  0.3445 -0.6976
   65CHL1    H8 7231  -0.023   5.463   9.793 -0.1411  0.1972  0.9635
   65CHL1   C14 7232  -0.029   5.648   9.689 -0.9526 -0.2933 -1.0753
   65CHL1   H14 7233  -0.009   5.752   9.723 -0.5797 -0.7897  0.3206
   65CHL1   C15 7234  -0.173   5.645   9.636 -0.5988 -0.4748 -0.4953
   65CHL1  H15A 7235  -0.205   5.539   9.633 -0.7027 -0.5078 -4.6332
   65CHL1  H15B 7236  -0.243   5.710   9.694  0.4564 -0.2791  0.5857
   65CHL1   C16 7237  -0.155   5.687   9.490  0.3873 -0.1298  0.0384
   65CHL1  H16A 7238  -0.198   5.599   9.438  0.8522 -0.0392 -0.5065
   65CHL1  H16B 7239  -0.219   5.776   9.475 -1.6271 -1.5548 -0.1938
   65CHL1   C17 7240  -0.006   5.702   9.461  0.3695  0.2126  0.1613
   65CHL1   H17 7241   0.020   5.807   9.487  1.8224 -0.4736  1.6922
   65CHL1   C13 7242   0.064   5.620   9.571 -0.3658 -0.5778 -0.3171
   65CHL1   C18 7243   0.044   5.474   9.533  0.4580 -0.2919 -0.0324
   65CHL1  H18A 7244   0.082   5.442   9.434 -3.9461 -2.7060 -1.1946
   65CHL1  H18B 7245   0.090   5.399   9.601 -1.0355 -1.1381  0.0812
   65CHL1  H18C 7246  -0.062   5.441   9.534  0.6720 -0.9797  0.2302
   65CHL1   C12 7247   0.208   5.653   9.603  0.1569 -0.2122 -0.1130
   65CHL1  H12A 7248   0.268   5.620   9.515  0.6119 -0.0290  0.1216
   65CHL1  H12B 7249   0.209   5.764   9.613  0.4168  0.0871 -2.7181
   65CHL1   C11 7250   0.257   5.586   9.731  0.3101  0.3196 -1.2202
   65CHL1  H11A 7251   0.281   5.485   9.692 -1.0492 -0.2058 -0.7398
   65CHL1  H11B 7252   0.352   5.637   9.760 -1.3682  2.9678  0.0181
   65CHL1    C9 7253   0.148   5.585   9.852  0.3480  0.0170 -0.3457
   65CHL1    H9 7254   0.152   5.692   9.883 -2.0673 -0.0739  0.4941
   65CHL1   C10 7255   0.187   5.505   9.978 -0.5981  0.2721 -0.0438
   65CHL1   C19 7256   0.205   5.350   9.945 -0.1636  0.2003 -0.2303
   65CHL1  H19A 7257   0.280   5.346   9.863  2.1572  0.0063  1.8200
   65CHL1  H19B 7258   0.247   5.278  10.018  2.3002  2.8929  1.2033
   65CHL1  H19C 7259   0.105   5.308   9.921 -0.0438 -0.1601 -0.0928
   65CHL1    C1 7260   0.322   5.570  10.035  0.6660 -0.4424 -0.7328
   65CHL1   H1A 7261   0.393   5.547   9.952  0.7673  0.1157 -0.8038
   65CHL1   H1B 7262   0.311   5.680  10.032 -3.1150 -0.6017  0.9886
   65CHL1    C2 7263   0.360   5.520  10.177 -0.0821 -0.3017  0.2898
   65CHL1   H2A 7264   0.451   5.573  10.209 -0.5569  0.8121 -0.1682
   65CHL1   H2B 7265   0.372   5.410  10.167  0.1933 -0.2291 -0.2231
   65CHL1   C20 7266   0.024   5.682   9.309 -0.5087 -0.3286 -0.8458
   65CHL1   H20 7267  -0.020   5.586   9.275 -0.8529 -0.6501  0.4805
   65CHL1   C21 7268   0.172   5.692   9.292  0.2748 -0.2002  0.3578
   65CHL1  H21A 7269   0.194   5.707   9.184 -1.1033 -1.1471 -0.0830
   65CHL1  H21B 7270   0.227   5.601   9.321 -0.9382 -0.9896  0.2749
   65CHL1  H21C 7271   0.208   5.779   9.351 -1.8459  0.2887  1.0454
   65CHL1   C22 7272  -0.059   5.791   9.232 -0.0849 -0.5200  0.3170
   65CHL1  H22A 7273  -0.165   5.762   9.245 -0.3068  0.6324  1.4144
   65CHL1  H22B 7274  -0.026   5.892   9.264 -0.0968 -0.0754 -1.0147
   65CHL1   C23 7275  -0.038   5.794   9.080 -0.0933  0.6414 -0.3119
   65CHL1  H23A 7276   0.068   5.818   9.057  0.8566 -2.2390  0.5591
   65CHL1  H23B 7277  -0.060   5.692   9.040  0.2305  1.1187 -1.7764
   65CHL1   C24 7278  -0.140   5.884   8.996 -0.1866 -0.6052 -1.0646
   65CHL1  H24A 7279  -0.244   5.847   9.004  0.5069 -2.9413 -2.0903
   65CHL1  H24B 7280  -0.150   5.983   9.047 -2.3576 -0.9689 -0.7055
   65CHL1   C25 7281  -0.102   5.889   8.849  0.0202 -0.8505 -0.4414
   65CHL1   H25 7282  -0.091   5.783   8.816 -1.7936 -1.0527 -0.4965
   65CHL1   C26 7283  -0.222   5.949   8.774 -0.2241  0.0370  0.0529
   65CHL1  H26A 7284  -0.226   6.059   8.779  1.4219  0.1040  0.5269
   65CHL1  H26B 7285  -0.212   5.936   8.664  0.8184  1.4043 -0.0445
   65CHL1  H26C 7286  -0.314   5.901   8.814 -1.3060  1.5489 -0.5533
   65CHL1   C27 7287   0.034   5.960   8.822  0.2601 -0.3730 -0.1464
   65CHL1  H27A 7288   0.119   5.906   8.869 -1.1230 -0.3436  2.6558
   65CHL1  H27B 7289   0.055   5.960   8.713  0.5628 -4.5026 -0.2705
   65CHL1  H27C 7290   0.038   6.063   8.863  2.5158 -0.4045 -0.1561
   66CHL1    C3 7291   4.971   3.578  10.422  0.3416  0.5910 -0.1196
   66CHL1    H3 7292   4.935   3.475  10.402 -0.7033  0.8466  0.3710
   66CHL1    O3 7293   4.960   3.601  10.569 -0.6073 -0.3300 -0.1210
   66CHL1   H3' 7294   4.984   3.691  10.590 -1.1429 -0.1249 -0.3633
   66CHL1    C4 7295   5.113   3.577  10.364 -0.8044  0.0413 -0.3549
   66CHL1   H4A 7296   5.154   3.678  10.389 -1.3111  0.0509  0.4796
   66CHL1   H4B 7297   5.180   3.505  10.413 -1.3429  0.3815  0.9136
   66CHL1    C5 7298   5.125   3.555  10.213  0.1166  0.4949  0.1024
   66CHL1    C6 7299   5.186   3.451  10.150  0.8255 -0.0159 -1.0016
   66CHL1    H6 7300   5.227   3.381  10.224 -2.1411  0.3681  1.1729
   66CHL1    C7 7301   5.192   3.429  10.004  0.2623  1.1850  0.0390
   66CHL1   H7A 7302   5.292   3.393   9.971  0.2849  2.1703 -1.0271
   66CHL1   H7B 7303   5.121   3.350   9.975  0.9075 -0.9254  3.5807
   66CHL1    C8 7304   5.150   3.550   9.923  0.1601 -0.7369  0.5394
   66CHL1    H8 7305   5.228   3.627   9.941  0.8114 -1.1917 -0.2972
   66CHL1   C14 7306   5.139   3.511   9.774 -0.0097  0.0859  0.6816
   66CHL1   H14 7307   5.055   3.438   9.770 -1.7813  1.9834  1.3330
   66CHL1   C15 7308   5.254   3.445   9.699 -0.1557 -0.0653  0.4054
   66CHL1  H15A 7309   5.348   3.494   9.732 -0.0846 -0.2524  0.4818
   66CHL1  H15B 7310   5.249   3.340   9.735 -3.7440 -0.3389 -0.4715
   66CHL1   C16 7311   5.215   3.471   9.554  0.3368  0.5250  0.8249
   66CHL1  H16A 7312   5.304   3.519   9.509 -0.8651  1.2873 -0.8234
   66CHL1  H16B 7313   5.186   3.378   9.500  1.5308 -0.8745  2.4885
   66CHL1   C17 7314   5.098   3.569   9.549 -0.1863  0.1385 -0.2955
   66CHL1   H17 7315   5.009   3.503   9.561  0.7354 -0.7205  3.1283
   66CHL1   C13 7316   5.103   3.632   9.689 -0.6571 -0.7500  0.4279
   66CHL1   C18 7317   5.206   3.741   9.692  0.3440  0.1775  0.5775
   66CHL1  H18A 7318   5.228   3.780   9.794  0.0076  0.3352  0.5885
   66CHL1  H18B 7319   5.301   3.706   9.645 -0.0960  0.3806 -0.4944
   66CHL1  H18C 7320   5.161   3.819   9.629 -3.4424 -1.8160  0.5468
   66CHL1   C12 7321   4.964   3.679   9.744 -0.2956 -0.5708 -0.4714
   66CHL1  H12A 7322   4.917   3.761   9.686  0.6931  0.2636 -0.1169
   66CHL1  H12B 7323   4.885   3.602   9.727 -0.4395  0.1777 -3.9835
   66CHL1   C11 7324   4.971   3.720   9.892  0.2531 -0.3933  0.1701
   66CHL1  H11A 7325   5.036   3.809   9.897 -1.2507  0.8104 -0.8642
   66CHL1  H11B 7326   4.869   3.756   9.918  0.0250  0.2890 -1.5275
   66CHL1    C9 7327   5.024   3.614   9.983 -0.1112  0.4633 -0.2752
   66CHL1    H9 7328   4.955   3.527   9.985 -1.5033  1.5346  0.2173
   66CHL1   C10 7329   5.038   3.655  10.131 -0.1094  0.0749 -0.3386
   66CHL1   C19 7330   5.105   3.794  10.149 -0.0866 -0.1069 -0.2001
   66CHL1  H19A 7331   5.204   3.786  10.099 -0.3468 -0.9433 -0.5968
   66CHL1  H19B 7332   5.047   3.875  10.100  1.7724  1.3602 -0.0843
   66CHL1  H19C 7333   5.129   3.832  10.250  0.9803  0.5515 -0.6860
   66CHL1    C1 7334   4.891   3.643  10.196  0.6353  0.7147  0.4922
   66CHL1   H1A 7335   4.822   3.710  10.139  0.6115 -0.1324 -0.5102
   66CHL1   H1B 7336   4.860   3.537  10.182  1.6338  0.4822 -0.0343
   66CHL1    C2 7337   4.879   3.675  10.344  0.8021  0.3340  0.2330
   66CHL1   H2A 7338   4.777   3.660  10.384  0.5731 -0.6195 -0.6633
   66CHL1   H2B 7339   4.908   3.781  10.357  1.2963  0.2683 -0.2579
   66CHL1   C20 7340   5.095   3.655   9.422  0.1166  0.8443  0.4017
   66CHL1   H20 7341   5.175   3.732   9.429  1.8932 -0.7668 -1.0040
   66CHL1   C21 7342   4.968   3.739   9.395 -0.1694  0.5743 -0.7751
   66CHL1  H21A 7343   4.949   3.824   9.464 -1.9391  0.2641 -0.8289
   66CHL1  H21B 7344   4.881   3.670   9.406 -0.0983  0.3787 -1.3899
   66CHL1  H21C 7345   4.975   3.780   9.292  0.9267  0.4044 -0.7870
   66CHL1   C22 7346   5.146   3.565   9.300 -0.2291 -0.2887 -0.4948
   66CHL1  H22A 7347   5.250   3.529   9.317 -0.2236  1.1145  3.5946
   66CHL1  H22B 7348   5.089   3.471   9.287  0.0218 -0.7768  1.5865
   66CHL1   C23 7349   5.151   3.647   9.167 -0.0076  0.5181 -0.4118
   66CHL1  H23A 7350   5.043   3.644   9.138  0.3613  0.4510 -1.8588
   66CHL1  H23B 7351   5.173   3.755   9.184 -0.7798  0.3074  2.4178
   66CHL1   C24 7352   5.238   3.576   9.056  0.3267 -0.1010 -0.0353
   66CHL1  H24A 7353   5.345   3.570   9.088  0.7721  1.6765 -1.0641
   66CHL1  H24B 7354   5.216   3.470   9.032 -1.1689  0.5148 -1.4915
   66CHL1   C25 7355   5.245   3.662   8.923 -0.1150 -0.3674 -0.3090
   66CHL1   H25 7356   5.299   3.756   8.950 -0.8824 -0.4222  1.5440
   66CHL1   C26 7357   5.321   3.581   8.815 -0.2482 -0.1515 -0.3276
   66CHL1  H26A 7358   5.360   3.648   8.736 -1.0856  1.1439  0.3305
   66CHL1  H26B 7359   5.416   3.551   8.865 -0.0442  2.5021  1.0564
   66CHL1  H26C 7360   5.255   3.496   8.789  0.0479 -0.9143  1.2671
   66CHL1   C27 7361   5.106   3.702   8.869 -0.5967 -0.6076  0.1222
   66CHL1  H27A 7362   5.046   3.754   8.947  1.8964  2.6752  0.0469
   66CHL1  H27B 7363   5.105   3.757   8.772 -1.2199  0.3727  0.6579
   66CHL1  H27C 7364   5.063   3.603   8.844  0.6194 -1.9810  3.0769
   67CHL1    C3 7365   3.665   4.046  10.248  0.4787 -0.3614  0.2075
   67CHL1    H3 7366   3.559   4.063  10.222  0.2868 -1.7202  0.0635
   67CHL1    O3 7367   3.664   4.031  10.386 -0.0118 -0.3458 -0.2164
   67CHL1   H3' 7368   3.667   3.938  10.408 -0.8263 -0.1194  0.9188
   67CHL1    C4 7369   3.725   3.918  10.181  0.1298  0.0218 -0.0810
   67CHL1   H4A 7370   3.825   3.896  10.224  0.2331 -1.8094 -1.1649
   67CHL1   H4B 7371   3.659   3.836  10.219  2.9341 -1.9837  0.7995
   67CHL1    C5 7372   3.720   3.926  10.026  0.1350 -0.0196 -0.2265
   67CHL1    C6 7373   3.663   3.835   9.954  0.9423 -0.1957  0.4653
   67CHL1    H6 7374   3.617   3.746   9.999 -1.5099  0.2824 -0.8801
   67CHL1    C7 7375   3.651   3.842   9.799 -0.2804  0.9439 -0.4797
   67CHL1   H7A 7376   3.673   3.744   9.751 -0.6612  0.3701  0.4812
   67CHL1   H7B 7377   3.550   3.881   9.775 -0.9005 -0.5444 -0.4246
   67CHL1    C8 7378   3.760   3.944   9.746  0.3754 -0.5714 -0.1586
   67CHL1    H8 7379   3.857   3.892   9.759  0.9432  0.7429  1.1917
   67CHL1   C14 7380   3.742   3.967   9.599 -0.0493  0.2776 -0.9368
   67CHL1   H14 7381   3.641   4.010   9.585 -0.6489 -0.8538 -0.2246
   67CHL1   C15 7382   3.740   3.850   9.503  0.0971 -0.2725  0.5610
   67CHL1  H15A 7383   3.827   3.782   9.521  1.2998  1.1670  0.3486
   67CHL1  H15B 7384   3.641   3.800   9.515  0.2368 -0.1404  2.7707
   67CHL1   C16 7385   3.760   3.915   9.362 -0.4966  0.1931 -0.6313
   67CHL1  H16A 7386   3.854   3.872   9.323 -0.0569 -0.7040  1.2815
   67CHL1  H16B 7387   3.675   3.888   9.296 -1.1017  2.2984 -0.8006
   67CHL1   C17 7388   3.773   4.072   9.386  0.1250 -0.2906 -0.6019
   67CHL1   H17 7389   3.672   4.116   9.383  0.1443 -0.0526  1.2031
   67CHL1   C13 7390   3.824   4.086   9.529  0.1183 -0.3689  0.1532
   67CHL1   C18 7391   3.977   4.053   9.529  0.4644 -0.9607 -0.1400
   67CHL1  H18A 7392   4.027   4.139   9.481  1.2806 -2.4703 -2.1356
   67CHL1  H18B 7393   4.019   4.033   9.630 -0.4777 -0.2165  0.4281
   67CHL1  H18C 7394   4.013   3.960   9.480  1.1037 -1.4104  1.1310
   67CHL1   C12 7395   3.801   4.211   9.605  0.1977  0.4643 -0.8292
   67CHL1  H12A 7396   3.876   4.287   9.576  2.5168 -1.3637  0.0105
   67CHL1  H12B 7397   3.704   4.262   9.583 -0.4969  0.3915  1.7700
   67CHL1   C11 7398   3.818   4.194   9.761 -0.0715 -0.3074  0.7558
   67CHL1  H11A 7399   3.926   4.189   9.784 -0.0302 -1.1484  0.3958
   67CHL1  H11B 7400   3.781   4.288   9.809 -2.6057 -1.5886  1.5225
   67CHL1    C9 7401   3.748   4.078   9.822 -0.5387 -0.3668  0.6634
   67CHL1    H9 7402   3.640   4.102   9.819  0.0310  2.5462  0.6884
   67CHL1   C10 7403   3.785   4.054   9.972  0.7014  0.1189 -0.2805
   67CHL1   C19 7404   3.933   4.038   9.988 -0.7899 -0.5047 -0.2490
   67CHL1  H19A 7405   3.961   3.989  10.084 -1.3316 -2.6728 -1.1491
   67CHL1  H19B 7406   3.987   3.983   9.908  0.0192 -4.1096  2.5174
   67CHL1  H19C 7407   3.974   4.142   9.990 -0.8808 -0.4408 -1.2824
   67CHL1    C1 7408   3.735   4.180  10.052  0.1623  0.2753 -0.3504
   67CHL1   H1A 7409   3.789   4.266  10.007 -0.8053  0.2356 -1.6476
   67CHL1   H1B 7410   3.629   4.189  10.022  0.2075 -0.9314 -0.9430
   67CHL1    C2 7411   3.744   4.173  10.202  0.4245  0.4881  0.4683
   67CHL1   H2A 7412   3.702   4.263  10.251  1.2189  0.8910  0.4156
   67CHL1   H2B 7413   3.850   4.163  10.233  0.3290 -1.9586  0.2084
   67CHL1   C20 7414   3.861   4.133   9.274  0.0804 -0.0782 -0.1641
   67CHL1   H20 7415   3.962   4.089   9.263  1.9668  3.6937  0.5417
   67CHL1   C21 7416   3.874   4.282   9.313  0.5043  0.2882  0.7170
   67CHL1  H21A 7417   3.961   4.292   9.381  0.8863 -0.2893  0.3263
   67CHL1  H21B 7418   3.781   4.317   9.364  1.0010  0.4106  1.5483
   67CHL1  H21C 7419   3.895   4.358   9.234  1.3274  0.9663  1.5607
   67CHL1   C22 7420   3.779   4.136   9.140 -0.1500  0.4690  0.2124
   67CHL1  H22A 7421   3.774   4.035   9.093  1.9128  1.3164 -2.0383
   67CHL1  H22B 7422   3.680   4.180   9.164  0.1392  0.0801  2.2656
   67CHL1   C23 7423   3.834   4.219   9.019 -0.6251 -0.4175  0.0832
   67CHL1  H23A 7424   3.864   4.322   9.047  0.2341 -0.1687 -1.6018
   67CHL1  H23B 7425   3.931   4.171   8.992  0.0396  0.4285  0.8699
   67CHL1   C24 7426   3.743   4.212   8.895  0.1110 -0.0288 -0.1119
   67CHL1  H24A 7427   3.743   4.111   8.848  1.4661 -0.5088  0.8329
   67CHL1  H24B 7428   3.638   4.224   8.930  0.2684 -1.7823  1.0838
   67CHL1   C25 7429   3.782   4.326   8.797  0.2562 -0.2206 -0.3933
   67CHL1   H25 7430   3.752   4.422   8.845  1.3302  0.5816 -1.2587
   67CHL1   C26 7431   3.928   4.341   8.765 -0.6712  0.3755 -0.3125
   67CHL1  H26A 7432   3.965   4.245   8.722  1.0478 -0.1403  2.1080
   67CHL1  H26B 7433   3.942   4.413   8.682  3.2934  1.5843  1.1717
   67CHL1  H26C 7434   3.990   4.373   8.851 -1.8285  0.9663  0.3336
   67CHL1   C27 7435   3.700   4.316   8.669  0.2624 -0.3984 -0.5748
   67CHL1  H27A 7436   3.593   4.294   8.689  0.1398  0.7960  0.1937
   67CHL1  H27B 7437   3.711   4.407   8.606 -3.0004 -0.3464 -1.2853
   67CHL1  H27C 7438   3.746   4.230   8.617  1.1890  0.1748 -0.7212
   68CHL1    C3 7439   0.877   4.513  10.137 -0.5288  0.3870  0.1953
   68CHL1    H3 7440   0.812   4.428  10.106  1.1005 -0.8236 -0.0591
   68CHL1    O3 7441   0.941   4.474  10.256  0.0053 -0.0418  0.2829
   68CHL1   H3' 7442   0.979   4.387  10.245  0.0848 -0.5823  3.6560
   68CHL1    C4 7443   0.989   4.530  10.036  0.1447  0.7038  0.2829
   68CHL1   H4A 7444   1.066   4.600  10.076  0.9871  1.6634 -2.6919
   68CHL1   H4B 7445   1.042   4.434  10.021  0.0881  0.6646  0.3399
   68CHL1    C5 7446   0.956   4.579   9.901  0.5967 -1.0025  0.5987
   68CHL1    C6 7447   0.982   4.516   9.791  0.0494  0.1451 -0.3648
   68CHL1    H6 7448   1.037   4.421   9.793 -0.9518 -0.6194 -3.5094
   68CHL1    C7 7449   0.953   4.569   9.647  0.6897  0.8439  0.6150
   68CHL1   H7A 7450   1.041   4.557   9.579  0.6076 -1.2808  0.8148
   68CHL1   H7B 7451   0.876   4.508   9.595  0.3530  0.4985  1.5058
   68CHL1    C8 7452   0.905   4.719   9.648 -0.3475  0.6611  0.2237
   68CHL1    H8 7453   0.995   4.784   9.659 -0.7687  0.9836  2.2012
   68CHL1   C14 7454   0.841   4.759   9.511 -0.1279 -0.0409 -0.5996
   68CHL1   H14 7455   0.749   4.696   9.504  0.4401 -1.2113  1.5265
   68CHL1   C15 7456   0.922   4.736   9.380 -0.6600 -0.3661  0.3508
   68CHL1  H15A 7457   1.028   4.753   9.405 -0.3066  0.2487 -1.3925
   68CHL1  H15B 7458   0.907   4.633   9.341  0.1004  0.1710 -1.4857
   68CHL1   C16 7459   0.869   4.837   9.279 -0.7613  0.6753 -0.3525
   68CHL1  H16A 7460   0.949   4.910   9.259  0.7703 -0.6838  0.5246
   68CHL1  H16B 7461   0.827   4.783   9.191  0.9054  0.9919 -1.3735
   68CHL1   C17 7462   0.753   4.908   9.361  0.4756  0.3643  0.2025
   68CHL1   H17 7463   0.665   4.845   9.337  0.7628 -0.1117  0.3932
   68CHL1   C13 7464   0.787   4.900   9.507  0.7779 -0.3958  0.4361
   68CHL1   C18 7465   0.906   5.004   9.533  0.5032  0.1212 -0.3243
   68CHL1  H18A 7466   0.975   4.988   9.448 -0.0360  0.5587 -0.8603
   68CHL1  H18B 7467   0.876   5.111   9.533 -0.9733 -0.2315  1.6713
   68CHL1  H18C 7468   0.959   4.991   9.630  3.7610  4.0252 -1.3152
   68CHL1   C12 7469   0.681   4.908   9.616 -0.1098 -1.4164  1.0265
   68CHL1  H12A 7470   0.644   5.013   9.627  2.0414 -0.6538  1.6016
   68CHL1  H12B 7471   0.596   4.842   9.589 -2.7819  3.5118 -5.4825
   68CHL1   C11 7472   0.738   4.879   9.756 -0.7332 -0.0597  0.7625
   68CHL1  H11A 7473   0.802   4.965   9.783 -1.3050  0.7133 -0.3055
   68CHL1  H11B 7474   0.657   4.871   9.832 -0.5763  1.3073  1.0995
   68CHL1    C9 7475   0.811   4.743   9.768  0.3299  0.0694 -0.5221
   68CHL1    H9 7476   0.735   4.663   9.754  1.2066 -0.8940  0.0994
   68CHL1   C10 7477   0.872   4.708   9.906 -0.2312 -0.4525  0.2031
   68CHL1   C19 7478   0.962   4.830   9.950 -0.1305  0.0505  0.4591
   68CHL1  H19A 7479   0.897   4.918   9.967 -2.0527 -1.3101  0.5195
   68CHL1  H19B 7480   1.011   4.811  10.048  2.5692  2.3247 -0.3321
   68CHL1  H19C 7481   1.040   4.851   9.874 -1.3627 -2.2408 -1.5908
   68CHL1    C1 7482   0.757   4.692  10.006  0.2042 -1.0553 -0.4413
   68CHL1   H1A 7483   0.703   4.788  10.018 -0.0371 -1.4646  2.6412
   68CHL1   H1B 7484   0.691   4.614   9.963  0.5860 -0.2579 -2.5810
   68CHL1    C2 7485   0.796   4.642  10.143  0.7067  0.0788 -0.1652
   68CHL1   H2A 7486   0.700   4.626  10.197  1.5697 -1.0903  1.0677
   68CHL1   H2B 7487   0.861   4.722  10.185  1.2505 -0.6902  0.4873
   68CHL1   C20 7488   0.721   5.044   9.294 -0.3943  0.1530 -0.1545
   68CHL1   H20 7489   0.812   5.108   9.288  0.3189 -0.9373 -1.6360
   68CHL1   C21 7490   0.613   5.115   9.382  0.3366  0.1334  0.6418
   68CHL1  H21A 7491   0.554   5.200   9.341  1.6173  0.1868 -1.2193
   68CHL1  H21B 7492   0.670   5.153   9.470 -0.9210  0.0622  1.5138
   68CHL1  H21C 7493   0.540   5.039   9.416  1.3238 -0.3618  1.7451
   68CHL1   C22 7494   0.659   5.027   9.149  0.3375 -0.3438  0.2328
   68CHL1  H22A 7495   0.731   4.958   9.101 -0.0229 -0.2197 -0.5020
   68CHL1  H22B 7496   0.566   4.966   9.146  0.9441 -1.3555  1.1633
   68CHL1   C23 7497   0.640   5.164   9.067 -0.0734  0.1800  0.0894
   68CHL1  H23A 7498   0.581   5.230   9.134 -0.3288  1.1246 -1.0311
   68CHL1  H23B 7499   0.746   5.200   9.064  0.6110 -1.6561  0.9625
   68CHL1   C24 7500   0.574   5.143   8.930  0.0811  0.7043  0.2532
   68CHL1  H24A 7501   0.643   5.079   8.871  2.5167  2.0071  1.5312
   68CHL1  H24B 7502   0.479   5.094   8.959  0.5335 -0.1785  0.2621
   68CHL1   C25 7503   0.548   5.265   8.844 -0.0475  0.1575 -0.8576
   68CHL1   H25 7504   0.483   5.314   8.919 -0.6322 -1.8889  0.0420
   68CHL1   C26 7505   0.678   5.339   8.799  0.4475 -0.1477 -0.6990
   68CHL1  H26A 7506   0.711   5.401   8.885  0.4634 -0.9745 -0.0955
   68CHL1  H26B 7507   0.758   5.265   8.776 -1.2656 -3.2788  2.3523
   68CHL1  H26C 7508   0.666   5.412   8.717 -0.1993  3.2233  2.1539
   68CHL1   C27 7509   0.453   5.232   8.727  0.6190 -0.2344  0.3170
   68CHL1  H27A 7510   0.407   5.325   8.687  2.3829  0.3803 -0.3882
   68CHL1  H27B 7511   0.504   5.183   8.642 -0.3016 -2.5311  1.0032
   68CHL1  H27C 7512   0.385   5.149   8.755 -0.1704  0.2548 -0.1103
   69CHL1    C3 7513   0.841   2.469   6.690 -0.1119 -0.3405  0.2941
   69CHL1    H3 7514   0.813   2.363   6.705 -1.5406  0.1576  1.3129
   69CHL1    O3 7515   0.880   2.495   6.560 -0.2110 -0.5510 -0.5158
   69CHL1   H3' 7516   0.847   2.583   6.540  1.6340 -0.1438 -2.0575
   69CHL1    C4 7517   0.718   2.551   6.720 -0.5622 -0.7575 -0.0933
   69CHL1   H4A 7518   0.736   2.658   6.698  0.4624 -1.0662 -0.8135
   69CHL1   H4B 7519   0.632   2.518   6.657  0.2013 -1.4511 -0.7888
   69CHL1    C5 7520   0.684   2.550   6.869  0.7892  0.1998 -0.3383
   69CHL1    C6 7521   0.567   2.495   6.908  0.1290 -0.6597  0.2735
   69CHL1    H6 7522   0.495   2.470   6.828  0.9773 -0.9422 -0.4093
   69CHL1    C7 7523   0.527   2.464   7.048 -0.9418 -0.0875 -1.0588
   69CHL1   H7A 7524   0.421   2.490   7.069 -0.3443 -0.1082  2.8030
   69CHL1   H7B 7525   0.542   2.356   7.069 -0.8189  0.1044 -0.0979
   69CHL1    C8 7526   0.611   2.534   7.157 -0.7455 -0.2642 -0.1242
   69CHL1    H8 7527   0.594   2.643   7.146  2.5027  0.3302 -0.3299
   69CHL1   C14 7528   0.576   2.482   7.294  0.3917  0.5752  0.3177
   69CHL1   H14 7529   0.601   2.374   7.299  0.6997  0.5130 -1.7900
   69CHL1   C15 7530   0.435   2.490   7.330  1.0406  0.4026 -0.4109
   69CHL1  H15A 7531   0.399   2.589   7.297 -0.2043  1.1246  2.7771
   69CHL1  H15B 7532   0.370   2.414   7.280  1.5855 -0.9155  0.7986
   69CHL1   C16 7533   0.434   2.474   7.482 -0.2815 -0.0820 -0.8088
   69CHL1  H16A 7534   0.382   2.555   7.538  1.4930  0.1570  0.5639
   69CHL1  H16B 7535   0.377   2.384   7.513  0.3452 -1.0205 -2.3141
   69CHL1   C17 7536   0.590   2.478   7.521  0.5604 -0.1358  0.0894
   69CHL1   H17 7537   0.622   2.371   7.518 -1.0799 -0.6600  0.2970
   69CHL1   C13 7538   0.658   2.546   7.402 -0.3521 -1.0327  0.8595
   69CHL1   C18 7539   0.628   2.706   7.410 -0.2027  0.6892 -0.2021
   69CHL1  H18A 7540   0.658   2.751   7.314  0.3693  0.9625  0.0993
   69CHL1  H18B 7541   0.520   2.729   7.427 -0.0544  1.9036 -0.8577
   69CHL1  H18C 7542   0.683   2.759   7.490 -0.3503 -1.2932  1.3032
   69CHL1   C12 7543   0.808   2.525   7.378  0.4141  0.1987 -0.9613
   69CHL1  H12A 7544   0.877   2.579   7.447  1.0126 -2.2380  0.4696
   69CHL1  H12B 7545   0.825   2.416   7.385 -0.2721  0.2028  2.1374
   69CHL1   C11 7546   0.854   2.563   7.233  0.1113 -0.3959 -0.8479
   69CHL1  H11A 7547   0.856   2.674   7.232 -1.2475 -0.3632 -0.6863
   69CHL1  H11B 7548   0.953   2.513   7.218  1.1274  1.0892  0.5359
   69CHL1    C9 7549   0.757   2.519   7.123 -0.7974 -0.5875 -0.4650
   69CHL1    H9 7550   0.774   2.409   7.122 -2.3170 -0.8334 -1.2919
   69CHL1   C10 7551   0.794   2.574   6.978  0.2130 -0.2422 -0.0517
   69CHL1   C19 7552   0.820   2.725   6.988  0.2443 -0.0884  0.6625
   69CHL1  H19A 7553   0.906   2.738   7.057  0.7821 -2.1512  0.4562
   69CHL1  H19B 7554   0.848   2.762   6.887 -2.4197  0.4786  0.0594
   69CHL1  H19C 7555   0.729   2.779   7.019  0.6860  2.2670 -1.7282
   69CHL1    C1 7556   0.925   2.508   6.930 -0.2218 -0.4221 -0.6411
   69CHL1   H1A 7557   1.007   2.566   6.978  0.3836 -1.5697 -0.2444
   69CHL1   H1B 7558   0.929   2.408   6.979 -0.3524 -0.2555 -0.2887
   69CHL1    C2 7559   0.957   2.512   6.781 -0.4798  0.3775  0.0056
   69CHL1   H2A 7560   1.046   2.448   6.761 -1.1548  0.1993 -2.8082
   69CHL1   H2B 7561   0.985   2.614   6.748 -1.0638  0.1952 -1.0852
   69CHL1   C20 7562   0.623   2.539   7.662 -0.0175 -0.2939  0.2671
   69CHL1   H20 7563   0.605   2.649   7.657 -2.5059 -0.6222  0.7351
   69CHL1   C21 7564   0.771   2.498   7.698  0.0872 -1.1576 -0.1386
   69CHL1  H21A 7565   0.843   2.583   7.689  0.2939 -0.8215  3.3076
   69CHL1  H21B 7566   0.803   2.405   7.646 -0.0731 -1.5878  0.5304
   69CHL1  H21C 7567   0.784   2.474   7.806 -2.5198  1.1083  0.7982
   69CHL1   C22 7568   0.540   2.475   7.773  0.2116  0.4745 -0.3573
   69CHL1  H22A 7569   0.434   2.462   7.743  0.6402 -1.1114 -1.2720
   69CHL1  H22B 7570   0.577   2.375   7.803 -1.3039  0.0028  0.0225
   69CHL1   C23 7571   0.527   2.572   7.896  0.2240 -0.1261  0.0515
   69CHL1  H23A 7572   0.629   2.581   7.938  0.1349 -0.0144  0.2457
   69CHL1  H23B 7573   0.498   2.667   7.847  2.9536 -0.0646 -1.6606
   69CHL1   C24 7574   0.429   2.535   8.003 -0.1182  0.4025  0.0447
   69CHL1  H24A 7575   0.328   2.554   7.961 -0.3673 -1.0207 -0.0593
   69CHL1  H24B 7576   0.432   2.425   8.019 -1.4795  0.4346  0.6712
   69CHL1   C25 7577   0.457   2.603   8.139  0.2033  0.5439  0.8484
   69CHL1   H25 7578   0.463   2.713   8.124  4.6834  0.0273 -4.6615
   69CHL1   C26 7579   0.338   2.585   8.232  0.0180 -0.0943 -0.1566
   69CHL1  H26A 7580   0.246   2.646   8.218 -0.9554 -1.0381  1.7805
   69CHL1  H26B 7581   0.305   2.480   8.240  2.4076 -0.8213  1.3555
   69CHL1  H26C 7582   0.361   2.606   8.339 -2.4777  0.7618  0.2721
   69CHL1   C27 7583   0.580   2.543   8.211  0.5079 -0.0366 -0.1267
   69CHL1  H27A 7584   0.597   2.599   8.305  0.5025  1.0631 -0.7652
   69CHL1  H27B 7585   0.570   2.436   8.239  1.0380 -0.0593  0.0015
   69CHL1  H27C 7586   0.676   2.564   8.158  0.0025  1.1500 -0.5971
   70CHL1    C3 7587   0.101   6.706   7.160 -0.1213  0.0573 -0.1476
   70CHL1    H3 7588   0.144   6.793   7.215 -3.3281  2.2531 -0.8029
   70CHL1    O3 7589   0.125   6.718   7.020 -0.4865 -0.0624 -0.0527
   70CHL1   H3' 7590   0.143   6.630   6.986 -1.6739  0.0342 -1.0202
   70CHL1    C4 7591   0.166   6.571   7.208 -0.6332 -0.3914 -0.8987
   70CHL1   H4A 7592   0.126   6.480   7.159  1.6567 -1.2638 -1.3109
   70CHL1   H4B 7593   0.271   6.575   7.170 -0.3235  1.5317  0.0668
   70CHL1    C5 7594   0.152   6.552   7.357 -0.1608  0.1642 -0.7528
   70CHL1    C6 7595   0.262   6.532   7.439 -0.0382 -0.0240  0.0334
   70CHL1    H6 7596   0.361   6.520   7.393  0.0940 -0.8602  0.5291
   70CHL1    C7 7597   0.253   6.524   7.580  0.0627  0.0799 -0.1149
   70CHL1   H7A 7598   0.310   6.438   7.620  0.0196 -0.3861 -1.0286
   70CHL1   H7B 7599   0.289   6.618   7.627  1.2813 -0.0987 -0.6439
   70CHL1    C8 7600   0.109   6.496   7.635  0.2861 -0.0443  0.1562
   70CHL1    H8 7601   0.090   6.388   7.618  1.9217 -0.6939  2.0947
   70CHL1   C14 7602   0.093   6.516   7.782  0.0409 -0.0579  0.8726
   70CHL1   H14 7603   0.113   6.622   7.810  1.1665  0.0040 -0.0882
   70CHL1   C15 7604   0.204   6.452   7.866  0.4255 -0.3505 -0.3594
   70CHL1  H15A 7605   0.205   6.345   7.835 -0.1480 -0.0198 -1.5674
   70CHL1  H15B 7606   0.303   6.501   7.861 -0.1510  0.9298  0.4226
   70CHL1   C16 7607   0.143   6.472   8.003  0.3382  1.2811  0.7602
   70CHL1  H16A 7608   0.161   6.375   8.053 -0.9566 -0.0581 -1.2473
   70CHL1  H16B 7609   0.198   6.542   8.069  1.6537 -0.0050  1.0639
   70CHL1   C17 7610  -0.009   6.511   7.996 -0.3339 -0.0897  0.9023
   70CHL1   H17 7611  -0.005   6.619   8.020 -0.0965 -0.3524  2.1106
   70CHL1   C13 7612  -0.037   6.491   7.850  0.3013  0.3683  0.0325
   70CHL1   C18 7613  -0.075   6.344   7.824 -0.5284 -0.2491  0.4633
   70CHL1  H18A 7614  -0.083   6.320   7.716 -2.0245 -3.3454  1.1293
   70CHL1  H18B 7615  -0.001   6.273   7.867  0.7275  0.3641 -0.6401
   70CHL1  H18C 7616  -0.177   6.334   7.868 -0.4544 -0.0837  0.6764
   70CHL1   C12 7617  -0.132   6.598   7.790  0.2037  0.0736 -0.6688
   70CHL1  H12A 7618  -0.233   6.587   7.835  0.1667  0.3260 -0.6899
   70CHL1  H12B 7619  -0.082   6.688   7.831  1.5404 -1.7534  1.9668
   70CHL1   C11 7620  -0.136   6.600   7.635  0.0016  0.1652 -0.6046
   70CHL1  H11A 7621  -0.196   6.509   7.612  2.3008 -1.5366 -0.2220
   70CHL1  H11B 7622  -0.190   6.688   7.593 -2.2172 -0.2071  1.2368
   70CHL1    C9 7623   0.000   6.590   7.573 -0.2794 -0.4183 -0.0828
   70CHL1    H9 7624   0.046   6.691   7.586  0.8477 -0.4549 -2.9707
   70CHL1   C10 7625   0.004   6.577   7.414  0.0203 -0.5067  0.6279
   70CHL1   C19 7626  -0.067   6.452   7.378 -0.3640 -0.1872  0.4574
   70CHL1  H19A 7627  -0.175   6.467   7.402 -0.5944  2.7269 -1.8964
   70CHL1  H19B 7628  -0.072   6.412   7.275 -0.2331 -1.7656  1.0226
   70CHL1  H19C 7629  -0.032   6.372   7.447  2.1353 -0.2280 -0.7581
   70CHL1    C1 7630  -0.069   6.699   7.347  0.1682 -0.8637 -0.2991
   70CHL1   H1A 7631  -0.177   6.683   7.366  0.4642  0.6848  3.3724
   70CHL1   H1B 7632  -0.034   6.792   7.397  1.8252 -1.6752  0.1257
   70CHL1    C2 7633  -0.050   6.713   7.197  0.0415  0.4200  0.6063
   70CHL1   H2A 7634  -0.089   6.808   7.155  0.5979  0.2296 -0.3667
   70CHL1   H2B 7635  -0.100   6.628   7.145  0.6884  1.6756 -2.2396
   70CHL1   C20 7636  -0.106   6.458   8.106 -0.5361 -0.3554  0.1626
   70CHL1   H20 7637  -0.116   6.348   8.096 -3.2462 -0.2597  1.0194
   70CHL1   C21 7638  -0.241   6.531   8.094  1.1463  0.0941  0.0611
   70CHL1  H21A 7639  -0.292   6.488   8.005  1.5996  1.0312 -0.6717
   70CHL1  H21B 7640  -0.231   6.642   8.096 -0.6233  0.2668  0.1202
   70CHL1  H21C 7641  -0.303   6.511   8.183  1.0961  3.1815  0.8277
   70CHL1   C22 7642  -0.048   6.464   8.249 -0.0381  0.2823  0.0832
   70CHL1  H22A 7643   0.054   6.422   8.240 -1.0680 -1.9534 -2.8466
   70CHL1  H22B 7644  -0.050   6.572   8.274  0.4465  0.0857  0.9952
   70CHL1   C23 7645  -0.137   6.398   8.360 -0.4739 -0.2959 -0.8655
   70CHL1  H23A 7646  -0.223   6.460   8.391  0.8293 -0.8902  5.0746
   70CHL1  H23B 7647  -0.171   6.298   8.326 -0.0503 -1.2711  1.4280
   70CHL1   C24 7648  -0.042   6.383   8.486 -0.0983  0.3441 -0.1120
   70CHL1  H24A 7649   0.039   6.310   8.461  0.0765  0.7194 -0.6739
   70CHL1  H24B 7650   0.014   6.476   8.509  0.7645 -0.6035  1.7959
   70CHL1   C25 7651  -0.116   6.333   8.612 -0.6123 -0.2497  0.2033
   70CHL1   H25 7652  -0.148   6.231   8.579 -0.2708 -0.4608  0.5117
   70CHL1   C26 7653  -0.018   6.298   8.723 -0.2238  0.5707 -0.2068
   70CHL1  H26A 7654  -0.055   6.231   8.804 -0.5465  1.8850  0.7564
   70CHL1  H26B 7655   0.075   6.255   8.680  0.1516  1.2665 -0.0940
   70CHL1  H26C 7656   0.013   6.397   8.764 -2.4946  1.1101  0.3626
   70CHL1   C27 7657  -0.226   6.418   8.666  0.5888 -0.0668 -0.4318
   70CHL1  H27A 7658  -0.271   6.479   8.584  0.6751 -1.1255 -1.2852
   70CHL1  H27B 7659  -0.306   6.363   8.719 -0.7018  0.3552 -1.8521
   70CHL1  H27C 7660  -0.188   6.497   8.734 -0.8063  0.7376 -0.5579
   71CHL1    C3 7661   0.006   0.843   6.954 -0.4133 -0.7634  0.4645
   71CHL1    H3 7662   0.099   0.897   6.981  0.5313 -1.6521 -0.8667
   71CHL1    O3 7663  -0.000   0.855   6.813 -0.1658 -0.7589 -0.3620
   71CHL1   H3' 7664   0.025   0.770   6.778 -0.2678 -0.9006 -0.0968
   71CHL1    C4 7665   0.018   0.690   6.991 -0.3321  0.1662 -0.1679
   71CHL1   H4A 7666  -0.068   0.633   6.949  0.4512  0.6351 -2.5989
   71CHL1   H4B 7667   0.109   0.658   6.935 -1.3522 -2.0709 -0.6900
   71CHL1    C5 7668   0.027   0.688   7.139  0.2437 -0.1084  0.1097
   71CHL1    C6 7669   0.131   0.629   7.188  0.1694  0.0244 -0.8295
   71CHL1    H6 7670   0.216   0.586   7.132  0.3019 -1.1177  0.2001
   71CHL1    C7 7671   0.149   0.608   7.338  0.0837 -0.1350  0.0616
   71CHL1   H7A 7672   0.200   0.512   7.361  2.5071  1.0343 -0.0941
   71CHL1   H7B 7673   0.233   0.678   7.360 -0.7482  1.0042 -0.3094
   71CHL1    C8 7674   0.025   0.646   7.417  0.0164 -0.0160  0.2985
   71CHL1    H8 7675  -0.048   0.562   7.411 -2.1045  1.8125 -1.1430
   71CHL1   C14 7676   0.062   0.671   7.556  1.0711  0.4006 -0.8137
   71CHL1   H14 7677   0.128   0.760   7.559  1.2570  0.2423  0.1578
   71CHL1   C15 7678   0.151   0.553   7.620  0.0278  0.5231  0.6850
   71CHL1  H15A 7679   0.109   0.458   7.582 -0.0199  0.9848 -0.4731
   71CHL1  H15B 7680   0.255   0.565   7.582  0.1440  1.4418  1.2467
   71CHL1   C16 7681   0.137   0.567   7.770  0.5064  0.6767  0.2384
   71CHL1  H16A 7682   0.109   0.472   7.820  0.9818  0.1382 -0.4868
   71CHL1  H16B 7683   0.241   0.592   7.800  1.8283 -0.2160 -3.1173
   71CHL1   C17 7684   0.038   0.692   7.786 -0.5283  0.4792 -0.0706
   71CHL1   H17 7685   0.100   0.784   7.782  0.4057 -0.1142  0.3902
   71CHL1   C13 7686  -0.050   0.694   7.658 -0.6837  0.4252  0.1233
   71CHL1   C18 7687  -0.148   0.582   7.672  0.1384  0.3430 -0.1267
   71CHL1  H18A 7688  -0.191   0.562   7.571  1.5363  0.8071 -0.8310
   71CHL1  H18B 7689  -0.103   0.483   7.697  0.1241 -0.0660 -1.5839
   71CHL1  H18C 7690  -0.227   0.597   7.748  2.3815  1.1974  2.1487
   71CHL1   C12 7691  -0.127   0.817   7.616 -0.2272 -0.0876  0.0678
   71CHL1  H12A 7692  -0.223   0.846   7.663  0.3961  1.6520  0.3596
   71CHL1  H12B 7693  -0.053   0.900   7.628  2.1843 -1.6626 -2.5425
   71CHL1   C11 7694  -0.159   0.807   7.468  0.1640 -0.5345  0.0840
   71CHL1  H11A 7695  -0.251   0.746   7.464 -0.4278  0.1914  1.6588
   71CHL1  H11B 7696  -0.204   0.906   7.448 -2.5494 -1.5679  0.6389
   71CHL1    C9 7697  -0.046   0.766   7.368 -0.0272  0.0656  0.1603
   71CHL1    H9 7698   0.035   0.841   7.381 -0.4791  0.3581  1.4097
   71CHL1   C10 7699  -0.089   0.762   7.224 -0.4537  0.2019 -0.2503
   71CHL1   C19 7700  -0.222   0.687   7.203  0.0531  0.3552 -0.6041
   71CHL1  H19A 7701  -0.225   0.589   7.257 -2.7358  0.9198  0.4432
   71CHL1  H19B 7702  -0.309   0.752   7.226  0.6077 -0.1187  3.6953
   71CHL1  H19C 7703  -0.244   0.663   7.097  1.0465  1.4050 -1.0644
   71CHL1    C1 7704  -0.101   0.904   7.170 -0.0783  0.2203 -1.0107
   71CHL1   H1A 7705  -0.203   0.934   7.203 -0.2397 -0.2751 -1.0557
   71CHL1   H1B 7706  -0.028   0.974   7.216  1.6927 -1.3595 -1.2944
   71CHL1    C2 7707  -0.116   0.911   7.018 -0.0362 -0.0064  0.0294
   71CHL1   H2A 7708  -0.122   1.016   6.981  0.6078  0.3861  0.9893
   71CHL1   H2B 7709  -0.207   0.856   6.987 -1.9659  3.3454 -0.8213
   71CHL1   C20 7710  -0.034   0.690   7.917 -0.3144  0.3683  0.2333
   71CHL1   H20 7711  -0.078   0.590   7.932  0.5004  0.0013  0.2197
   71CHL1   C21 7712  -0.132   0.801   7.923  0.1824 -0.4399  1.1172
   71CHL1  H21A 7713  -0.174   0.827   8.023 -0.7110  1.5479  0.2889
   71CHL1  H21B 7714  -0.228   0.781   7.872  1.3017 -1.0743 -0.8412
   71CHL1  H21C 7715  -0.100   0.897   7.876 -0.8659  0.4026  2.0863
   71CHL1   C22 7716   0.059   0.704   8.041 -0.0918  0.2955  0.3270
   71CHL1  H22A 7717   0.161   0.664   8.019 -0.0130  0.8004 -0.2455
   71CHL1  H22B 7718   0.069   0.808   8.079 -0.2803 -0.0366  1.3110
   71CHL1   C23 7719   0.010   0.642   8.172 -0.1160 -0.3571  0.5032
   71CHL1  H23A 7720  -0.083   0.695   8.201 -0.9883 -1.6462  0.1624
   71CHL1  H23B 7721  -0.012   0.535   8.154  3.2745 -0.6970 -2.9518
   71CHL1   C24 7722   0.116   0.671   8.279  0.0543 -0.0116  0.3566
   71CHL1  H24A 7723   0.219   0.636   8.259 -0.4537 -1.8627  0.7247
   71CHL1  H24B 7724   0.111   0.778   8.308 -1.8930 -0.0652  0.3401
   71CHL1   C25 7725   0.092   0.584   8.409 -0.1779  0.4364  0.5831
   71CHL1   H25 7726  -0.017   0.596   8.426 -0.0961  2.3423 -0.0349
   71CHL1   C26 7727   0.121   0.433   8.381 -0.1348  0.1718  0.5932
   71CHL1  H26A 7728   0.225   0.402   8.359 -0.8735 -2.4123  0.3697
   71CHL1  H26B 7729   0.092   0.371   8.469 -1.9023  1.3281  0.8879
   71CHL1  H26C 7730   0.060   0.393   8.297  0.4754 -0.4671  0.4413
   71CHL1   C27 7731   0.178   0.644   8.527  0.4259  0.5735  0.0684
   71CHL1  H27A 7732   0.136   0.745   8.548 -0.2877  0.7606 -1.9780
   71CHL1  H27B 7733   0.170   0.579   8.616 -2.0829 -0.5976 -0.9052
   71CHL1  H27C 7734   0.285   0.636   8.500 -0.4845 -2.4817 -3.4912
   72CHL1    C3 7735   0.674   0.609   7.169  0.6521  0.2654  0.7849
   72CHL1    H3 7736   0.644   0.713   7.190  0.5948  0.1589  1.2269
   72CHL1    O3 7737   0.684   0.598   7.025 -0.1900  0.8489  0.2639
   72CHL1   H3' 7738   0.699   0.504   7.012 -2.6103  0.7783 -4.6924
   72CHL1    C4 7739   0.811   0.581   7.236  0.2751  0.1515  0.2496
   72CHL1   H4A 7740   0.840   0.477   7.210 -0.3866  0.4503 -1.8604
   72CHL1   H4B 7741   0.882   0.654   7.192  0.0099  1.1840  1.4601
   72CHL1    C5 7742   0.799   0.589   7.387  0.0030  0.0190  0.2302
   72CHL1    C6 7743   0.889   0.664   7.455  0.4209  0.0477  0.2065
   72CHL1    H6 7744   0.963   0.721   7.397 -1.4719  0.8179 -1.6045
   72CHL1    C7 7745   0.879   0.678   7.600 -0.1762 -0.2594 -0.4701
   72CHL1   H7A 7746   0.979   0.691   7.647 -0.6592 -1.0102  0.8323
   72CHL1   H7B 7747   0.831   0.775   7.626  1.1540  0.9111 -2.1802
   72CHL1    C8 7748   0.801   0.565   7.675 -0.1315  0.2184  0.5998
   72CHL1    H8 7749   0.862   0.473   7.668 -1.0153 -0.4524  1.5686
   72CHL1   C14 7750   0.768   0.599   7.817 -0.5054  0.4043 -0.3329
   72CHL1   H14 7751   0.697   0.683   7.808 -0.5388  0.4019 -0.0794
   72CHL1   C15 7752   0.890   0.625   7.907  0.7478 -0.2272  0.1954
   72CHL1  H15A 7753   0.969   0.550   7.886 -0.8705 -2.0714  0.4453
   72CHL1  H15B 7754   0.939   0.724   7.900  1.2536 -0.4640  0.3008
   72CHL1   C16 7755   0.827   0.607   8.047  0.9043 -0.5002  0.1174
   72CHL1  H16A 7756   0.892   0.551   8.118  0.0854  0.8374  2.0120
   72CHL1  H16B 7757   0.822   0.706   8.097 -0.0984 -0.5548  0.1399
   72CHL1   C17 7758   0.681   0.559   8.029 -0.6440 -0.1883 -0.2348
   72CHL1   H17 7759   0.613   0.646   8.020  0.3671  0.3968 -4.1655
   72CHL1   C13 7760   0.680   0.498   7.884 -0.3685  0.4171  1.0504
   72CHL1   C18 7761   0.750   0.358   7.894  0.0148 -0.1277 -0.2465
   72CHL1  H18A 7762   0.685   0.284   7.945 -1.6710  1.2666 -0.2539
   72CHL1  H18B 7763   0.747   0.323   7.788 -1.6235 -3.2779  0.7073
   72CHL1  H18C 7764   0.853   0.349   7.933  0.5663  0.1581 -1.5730
   72CHL1   C12 7765   0.538   0.497   7.824 -0.6132  0.0143 -0.2854
   72CHL1  H12A 7766   0.481   0.416   7.875  0.3362 -0.5220 -0.0469
   72CHL1  H12B 7767   0.482   0.591   7.847  1.2543  0.9581  0.6904
   72CHL1   C11 7768   0.549   0.467   7.672 -0.0505 -0.4658 -1.0979
   72CHL1  H11A 7769   0.571   0.360   7.653 -0.3715 -1.1309  1.7829
   72CHL1  H11B 7770   0.448   0.486   7.631 -1.2707 -3.5151  0.1872
   72CHL1    C9 7771   0.664   0.552   7.597  0.5251  0.0679 -0.7525
   72CHL1    H9 7772   0.617   0.653   7.591 -1.9870 -1.0201 -0.4679
   72CHL1   C10 7773   0.688   0.510   7.449 -0.5224  0.1939  0.0277
   72CHL1   C19 7774   0.724   0.362   7.443 -0.1227 -0.6660  0.0826
   72CHL1  H19A 7775   0.642   0.293   7.471 -0.2350 -0.3513  0.5230
   72CHL1  H19B 7776   0.758   0.326   7.343 -0.1514  1.5882 -0.8057
   72CHL1  H19C 7777   0.806   0.342   7.516 -0.5983  1.3187  1.2192
   72CHL1    C1 7778   0.554   0.524   7.366  0.5694  0.1054  1.1087
   72CHL1   H1A 7779   0.478   0.459   7.415 -1.8679  1.8869 -0.0328
   72CHL1   H1B 7780   0.518   0.628   7.383 -0.8549 -0.4714  1.7717
   72CHL1    C2 7781   0.569   0.507   7.217  0.0274 -0.1126 -0.1966
   72CHL1   H2A 7782   0.471   0.511   7.165  0.0958 -1.2877 -0.4343
   72CHL1   H2B 7783   0.604   0.404   7.198  0.8167  0.2110 -0.5383
   72CHL1   C20 7784   0.620   0.479   8.146  0.3113 -0.7445 -0.4386
   72CHL1   H20 7785   0.645   0.374   8.122  1.7397 -0.6856  0.6034
   72CHL1   C21 7786   0.471   0.508   8.162 -0.4518  0.4005  0.4773
   72CHL1  H21A 7787   0.452   0.615   8.184 -1.4865 -0.2318  2.9375
   72CHL1  H21B 7788   0.425   0.445   8.241 -1.1040  1.6561  1.1202
   72CHL1  H21C 7789   0.433   0.488   8.059  1.5868  0.6026 -0.3597
   72CHL1   C22 7790   0.694   0.506   8.278 -0.1134  0.0479 -0.0447
   72CHL1  H22A 7791   0.801   0.478   8.271  0.2571  1.1364  1.0700
   72CHL1  H22B 7792   0.692   0.617   8.279  1.2392  0.0873  1.2027
   72CHL1   C23 7793   0.619   0.449   8.399 -0.2739  0.0290 -0.0460
   72CHL1  H23A 7794   0.523   0.499   8.425  0.9849  1.9287  1.1731
   72CHL1  H23B 7795   0.610   0.339   8.387  0.8902 -0.1972  0.9308
   72CHL1   C24 7796   0.701   0.462   8.526  0.3033  0.5595 -0.1366
   72CHL1  H24A 7797   0.633   0.433   8.608 -0.0773  1.5188 -0.1001
   72CHL1  H24B 7798   0.797   0.405   8.523  0.1846  0.3959 -1.2304
   72CHL1   C25 7799   0.749   0.611   8.570  0.5800  0.4424  0.4266
   72CHL1   H25 7800   0.817   0.644   8.489  1.1885  0.6387  1.0009
   72CHL1   C26 7801   0.630   0.697   8.593 -0.1285  1.1321  0.0393
   72CHL1  H26A 7802   0.559   0.629   8.646 -0.6324  0.5765 -1.3134
   72CHL1  H26B 7803   0.665   0.790   8.642  0.7372  0.1676  1.3205
   72CHL1  H26C 7804   0.584   0.727   8.496 -1.8125  1.3886  0.8742
   72CHL1   C27 7805   0.831   0.616   8.701  0.0370  0.3597 -0.6831
   72CHL1  H27A 7806   0.787   0.592   8.800 -0.1407  0.6150 -0.6976
   72CHL1  H27B 7807   0.914   0.545   8.684 -0.6025 -0.0997 -2.0226
   72CHL1  H27C 7808   0.883   0.713   8.717  0.8975 -0.1851 -0.1375
   73CHL1    C3 7809   6.398   2.816   6.878 -0.0607 -0.3840  0.2995
   73CHL1    H3 7810   6.298   2.834   6.922  0.2033  1.0144  0.3514
   73CHL1    O3 7811   6.378   2.765   6.746 -0.0689 -0.0382 -0.1063
   73CHL1   H3' 7812   6.302   2.808   6.705  0.7681  1.0521 -0.5752
   73CHL1    C4 7813   6.467   2.949   6.871 -0.7010 -0.2664  0.0928
   73CHL1   H4A 7814   6.564   2.936   6.818 -1.0421 -0.5643 -0.4600
   73CHL1   H4B 7815   6.408   3.022   6.812 -1.5970 -2.7370 -2.2866
   73CHL1    C5 7816   6.498   3.009   7.007 -0.3924  0.5722 -0.3354
   73CHL1    C6 7817   6.466   3.139   7.034  0.3657 -0.0546 -0.1554
   73CHL1    H6 7818   6.420   3.207   6.960 -0.6563  0.0265  0.5377
   73CHL1    C7 7819   6.489   3.199   7.170  0.4337 -0.1660 -0.2996
   73CHL1   H7A 7820   6.517   3.306   7.161  0.5877 -0.1346  0.4627
   73CHL1   H7B 7821   6.386   3.203   7.212  0.2728 -0.8396 -0.6311
   73CHL1    C8 7822   6.566   3.110   7.264 -0.2021  0.6182  0.8000
   73CHL1    H8 7823   6.671   3.114   7.228 -0.0890 -0.2521  1.0269
   73CHL1   C14 7824   6.547   3.160   7.407 -0.3467 -0.4660 -0.0751
   73CHL1   H14 7825   6.440   3.139   7.429 -0.2388  0.9513  2.1008
   73CHL1   C15 7826   6.579   3.308   7.431  0.0321  0.2965  0.5991
   73CHL1  H15A 7827   6.680   3.325   7.386 -0.6144  1.2274 -0.5478
   73CHL1  H15B 7828   6.500   3.371   7.384 -1.0785 -0.7489  1.0110
   73CHL1   C16 7829   6.587   3.318   7.586  0.2583  0.4259  0.6043
   73CHL1  H16A 7830   6.682   3.368   7.615  1.1887 -0.1164 -1.3156
   73CHL1  H16B 7831   6.506   3.366   7.644  1.9811  1.9649  1.8427
   73CHL1   C17 7832   6.579   3.168   7.634  1.0743 -0.3239  0.5169
   73CHL1   H17 7833   6.471   3.148   7.648  0.9260  0.9718  1.4215
   73CHL1   C13 7834   6.626   3.082   7.511  0.3918  0.9480  0.2282
   73CHL1   C18 7835   6.783   3.092   7.495 -0.2589 -0.4518 -0.5554
   73CHL1  H18A 7836   6.836   3.032   7.571  0.7066  1.2415  0.1835
   73CHL1  H18B 7837   6.830   3.064   7.398  1.3704 -0.4073  0.1854
   73CHL1  H18C 7838   6.817   3.197   7.514  0.4510 -0.9853  1.3531
   73CHL1   C12 7839   6.567   2.934   7.504  0.1395  0.3838  0.7722
   73CHL1  H12A 7840   6.605   2.870   7.586 -0.5562 -1.7596 -0.4875
   73CHL1  H12B 7841   6.457   2.936   7.522 -0.4827 -1.1404 -2.1303
   73CHL1   C11 7842   6.582   2.869   7.368 -0.6309  0.0823  0.2420
   73CHL1  H11A 7843   6.685   2.833   7.351 -1.2913 -0.6199 -2.8959
   73CHL1  H11B 7844   6.526   2.773   7.368  0.4006 -0.5323 -0.1049
   73CHL1    C9 7845   6.527   2.963   7.254  0.3846  0.1758  0.9794
   73CHL1    H9 7846   6.417   2.955   7.269  0.4716 -0.0477  1.4990
   73CHL1   C10 7847   6.554   2.906   7.110  0.3177 -0.3669 -0.2410
   73CHL1   C19 7848   6.700   2.892   7.085  0.2467 -0.0043 -0.3689
   73CHL1  H19A 7849   6.754   2.989   7.092 -0.5324  0.4305 -0.1828
   73CHL1  H19B 7850   6.737   2.818   7.160 -1.2046  2.0037  2.5548
   73CHL1  H19C 7851   6.710   2.851   6.983 -1.8229 -1.9006  0.0990
   73CHL1    C1 7852   6.482   2.764   7.108 -0.2244  0.2542  0.1156
   73CHL1   H1A 7853   6.544   2.683   7.151 -0.2571 -0.1442 -0.5724
   73CHL1   H1B 7854   6.385   2.767   7.161 -0.4450 -0.5773 -0.2256
   73CHL1    C2 7855   6.470   2.714   6.966 -0.1980 -0.4576  0.0920
   73CHL1   H2A 7856   6.421   2.615   6.954  1.3128 -1.4728  1.8089
   73CHL1   H2B 7857   6.569   2.694   6.919  1.1834  2.8436  1.3471
   73CHL1   C20 7858   6.649   3.143   7.767 -0.0884 -0.1729 -0.6615
   73CHL1   H20 7859   6.753   3.176   7.751 -0.4676  1.4073 -0.0697
   73CHL1   C21 7860   6.647   3.003   7.818 -0.0958  0.8418  0.0034
   73CHL1  H21A 7861   6.546   2.967   7.789 -0.3433  0.3938  1.3637
   73CHL1  H21B 7862   6.662   2.993   7.927 -1.9049 -1.0089  0.1450
   73CHL1  H21C 7863   6.719   2.934   7.768  1.0332  3.2543 -1.9619
   73CHL1   C22 7864   6.606   3.249   7.877 -0.3881  0.0464 -0.7679
   73CHL1  H22A 7865   6.581   3.352   7.844  4.0110  2.0489  1.3055
   73CHL1  H22B 7866   6.517   3.200   7.923 -0.5457  1.5692  0.6399
   73CHL1   C23 7867   6.708   3.261   7.987 -0.1742  0.0807 -0.2571
   73CHL1  H23A 7868   6.718   3.158   8.028 -0.4779  0.2216  0.1752
   73CHL1  H23B 7869   6.805   3.295   7.945  0.6865 -0.3361  1.3102
   73CHL1   C24 7870   6.661   3.357   8.102  0.5631 -0.2464  0.0128
   73CHL1  H24A 7871   6.641   3.461   8.067 -1.0051  0.3567  2.4225
   73CHL1  H24B 7872   6.559   3.322   8.126  1.0818  0.2465  3.5073
   73CHL1   C25 7873   6.746   3.367   8.234  0.1672  0.2665  0.2018
   73CHL1   H25 7874   6.689   3.444   8.290 -0.1011  0.7190 -0.6674
   73CHL1   C26 7875   6.742   3.234   8.315  0.0100  0.1304 -0.2521
   73CHL1  H26A 7876   6.789   3.237   8.415 -0.7203 -2.0190  0.2027
   73CHL1  H26B 7877   6.636   3.204   8.326  0.0137 -0.1650 -0.9535
   73CHL1  H26C 7878   6.794   3.151   8.264  1.3896  0.7835  0.0531
   73CHL1   C27 7879   6.887   3.426   8.200  0.1249  0.3038 -0.2065
   73CHL1  H27A 7880   6.944   3.371   8.123 -0.8304 -1.9455  0.6079
   73CHL1  H27B 7881   6.872   3.527   8.157 -1.2652 -0.3831 -1.4177
   73CHL1  H27C 7882   6.947   3.426   8.294 -0.7792 -3.5200  0.5409
   74CHL1    C3 7883   5.032   1.855   6.839  0.2066  0.6455  0.2952
   74CHL1    H3 7884   5.088   1.949   6.861 -1.0573  1.1843  1.3816
   74CHL1    O3 7885   5.055   1.816   6.706 -0.1758 -0.1750 -0.5742
   74CHL1   H3' 7886   5.047   1.721   6.696  2.0252 -0.5754  0.6879
   74CHL1    C4 7887   5.086   1.742   6.932 -0.8694 -0.1797  0.0709
   74CHL1   H4A 7888   5.056   1.641   6.896 -2.3495  0.4207 -0.4713
   74CHL1   H4B 7889   5.195   1.740   6.909 -0.7358  4.8173 -0.9870
   74CHL1    C5 7890   5.053   1.769   7.078 -0.2382  0.2560 -0.1717
   74CHL1    C6 7891   5.149   1.767   7.173 -0.2872 -0.1306  0.1733
   74CHL1    H6 7892   5.251   1.751   7.135 -0.1923  0.3637  0.2107
   74CHL1    C7 7893   5.123   1.783   7.319 -0.0542  0.1147  0.5365
   74CHL1   H7A 7894   5.176   1.713   7.387 -0.6189  1.4540  2.4453
   74CHL1   H7B 7895   5.173   1.871   7.365  2.5791 -1.0015 -0.0384
   74CHL1    C8 7896   4.975   1.790   7.358  0.7580  0.2422  0.6983
   74CHL1    H8 7897   4.931   1.689   7.350 -0.2725  0.4957  2.5170
   74CHL1   C14 7898   4.951   1.845   7.499 -0.1000 -0.5322  0.1918
   74CHL1   H14 7899   4.994   1.948   7.492 -0.4235 -0.3785  0.4385
   74CHL1   C15 7900   5.020   1.774   7.621  0.8717  0.3646  0.1526
   74CHL1  H15A 7901   5.024   1.663   7.615 -0.1778  0.2044  1.9645
   74CHL1  H15B 7902   5.128   1.797   7.631  0.6853  2.7030 -2.1658
   74CHL1   C16 7903   4.926   1.814   7.748 -0.1544  0.0061  0.4146
   74CHL1  H16A 7904   4.869   1.724   7.779 -1.3927 -0.0576 -1.9036
   74CHL1  H16B 7905   4.997   1.835   7.832  1.9506  1.1110 -1.5373
   74CHL1   C17 7906   4.834   1.928   7.691  0.6476  1.0321 -0.5136
   74CHL1   H17 7907   4.894   2.021   7.679 -0.0657  1.2857 -2.6109
   74CHL1   C13 7908   4.810   1.873   7.546 -0.5184  0.4198 -0.1608
   74CHL1   C18 7909   4.722   1.744   7.552 -0.7260  0.4887  0.1930
   74CHL1  H18A 7910   4.618   1.773   7.579 -0.6630 -0.0324  1.0149
   74CHL1  H18B 7911   4.723   1.688   7.456  1.2005 -0.8117  0.9221
   74CHL1  H18C 7912   4.761   1.670   7.625 -0.4450 -0.4155 -0.8458
   74CHL1   C12 7913   4.756   1.968   7.444  0.2194 -0.1416  0.2366
   74CHL1  H12A 7914   4.647   1.987   7.458  0.1000 -2.2748  3.1691
   74CHL1  H12B 7915   4.822   2.057   7.442 -2.6783  2.1467 -0.3152
   74CHL1   C11 7916   4.755   1.916   7.293 -0.2001  0.2505 -0.3551
   74CHL1  H11A 7917   4.690   1.826   7.289 -0.7884  0.7015 -3.0637
   74CHL1  H11B 7918   4.710   1.991   7.224 -0.8020  1.6148  1.4284
   74CHL1    C9 7919   4.897   1.877   7.249  0.0850 -0.0164 -0.2039
   74CHL1    H9 7920   4.957   1.971   7.246  2.1630 -1.2901 -1.1148
   74CHL1   C10 7921   4.911   1.811   7.106 -0.2969  0.0519 -0.7316
   74CHL1   C19 7922   4.815   1.694   7.092  0.2268  0.1816 -0.1234
   74CHL1  H19A 7923   4.835   1.636   7.000  0.2390  0.0180 -0.0179
   74CHL1  H19B 7924   4.825   1.626   7.179  1.5263  1.7244  1.0035
   74CHL1  H19C 7925   4.709   1.726   7.095  0.3427  0.5837 -0.2703
   74CHL1    C1 7926   4.859   1.916   7.011  0.2467 -0.0887  1.2203
   74CHL1   H1A 7927   4.749   1.931   7.016  0.0348  0.3500 -2.3599
   74CHL1   H1B 7928   4.913   2.010   7.036  0.2851  0.6376 -1.3369
   74CHL1    C2 7929   4.886   1.886   6.861  0.2031  0.1556 -0.3424
   74CHL1   H2A 7930   4.863   1.983   6.811  1.9628  1.8689  1.9786
   74CHL1   H2B 7931   4.824   1.803   6.820  0.3486  1.0957 -2.6694
   74CHL1   C20 7932   4.713   1.967   7.782  0.5383 -0.1040  0.3480
   74CHL1   H20 7933   4.643   1.881   7.783  1.1104 -0.6106  2.1413
   74CHL1   C21 7934   4.654   2.098   7.728 -0.0114  0.1969  0.2716
   74CHL1  H21A 7935   4.576   2.128   7.800 -0.0958  0.2453  0.1610
   74CHL1  H21B 7936   4.610   2.086   7.626  0.1359 -2.8922  0.4665
   74CHL1  H21C 7937   4.734   2.175   7.722  1.7183 -1.3885  1.5911
   74CHL1   C22 7938   4.744   1.990   7.930 -0.4496 -0.2007 -0.1211
   74CHL1  H22A 7939   4.822   1.915   7.955 -0.1634 -0.2026 -0.9851
   74CHL1  H22B 7940   4.798   2.087   7.935  0.2633 -0.5588 -0.6511
   74CHL1   C23 7941   4.633   1.968   8.028 -0.4902 -0.1956 -1.3059
   74CHL1  H23A 7942   4.569   2.058   8.019 -1.0090  0.1549  3.4039
   74CHL1  H23B 7943   4.574   1.883   7.988 -1.0898  0.3618 -1.6291
   74CHL1   C24 7944   4.683   1.932   8.170 -0.0706  0.4267  0.4019
   74CHL1  H24A 7945   4.730   1.832   8.176 -1.5967 -0.2738  1.3511
   74CHL1  H24B 7946   4.755   2.011   8.202  3.7822 -2.1312 -1.1806
   74CHL1   C25 7947   4.571   1.911   8.271 -0.3283  0.2566 -0.0606
   74CHL1   H25 7948   4.501   1.848   8.211  1.1559 -2.0431  0.4970
   74CHL1   C26 7949   4.621   1.842   8.394  0.6340  0.0601 -0.0407
   74CHL1  H26A 7950   4.551   1.840   8.480 -2.9106  0.6619 -2.6886
   74CHL1  H26B 7951   4.647   1.738   8.365  1.3634 -0.7451  3.1048
   74CHL1  H26C 7952   4.712   1.891   8.435  0.6742  0.5101 -0.6655
   74CHL1   C27 7953   4.494   2.036   8.304  0.3655 -0.0028  0.2296
   74CHL1  H27A 7954   4.392   2.015   8.341  0.0811  1.6038  0.4215
   74CHL1  H27B 7955   4.546   2.092   8.385 -2.5714  1.7944  1.0314
   74CHL1  H27C 7956   4.487   2.107   8.219 -1.5505 -0.1693  0.2161
   75CHL1    C3 7957   1.733   1.973   6.790 -0.0701  0.4552  0.0725
   75CHL1    H3 7958   1.797   1.884   6.805  0.1602  0.5080 -0.5506
   75CHL1    O3 7959   1.757   2.016   6.656  0.5432  0.3856  0.1623
   75CHL1   H3' 7960   1.691   2.086   6.651  1.6354  1.3528 -1.7482
   75CHL1    C4 7961   1.585   1.938   6.828  0.1266 -0.0210 -0.4249
   75CHL1   H4A 7962   1.515   2.023   6.819 -1.7219 -1.2664  1.5341
   75CHL1   H4B 7963   1.541   1.864   6.758 -0.2781  1.1530 -1.4396
   75CHL1    C5 7964   1.591   1.883   6.977  0.2806  0.6233  0.5307
   75CHL1    C6 7965   1.534   1.762   7.012 -0.3059  0.0250 -0.1468
   75CHL1    H6 7966   1.484   1.706   6.932 -0.6118  0.5222 -0.3074
   75CHL1    C7 7967   1.524   1.709   7.148 -0.7147  0.3193 -0.0538
   75CHL1   H7A 7968   1.417   1.692   7.172 -0.1470 -1.1130  1.6688
   75CHL1   H7B 7969   1.584   1.615   7.153  0.6508  1.2320  2.5520
   75CHL1    C8 7970   1.581   1.802   7.258  0.2342  0.3515  0.1092
   75CHL1    H8 7971   1.494   1.863   7.289  1.1263  1.4061  0.5887
   75CHL1   C14 7972   1.629   1.718   7.374  0.6398  0.1539  0.7015
   75CHL1   H14 7973   1.717   1.666   7.329 -0.4231 -0.9199 -0.2030
   75CHL1   C15 7974   1.532   1.612   7.425  0.0253  0.1602 -0.4342
   75CHL1  H15A 7975   1.425   1.643   7.423 -0.2528  0.2549  4.4134
   75CHL1  H15B 7976   1.543   1.524   7.358 -0.6329  0.7568 -1.3461
   75CHL1   C16 7977   1.574   1.594   7.569  0.5336 -0.6747  0.6829
   75CHL1  H16A 7978   1.485   1.609   7.634 -0.4859  0.5465 -0.9141
   75CHL1  H16B 7979   1.616   1.494   7.593  0.2671 -1.0273 -0.2551
   75CHL1   C17 7980   1.685   1.697   7.601  0.2504  0.2691  0.3242
   75CHL1   H17 7981   1.783   1.657   7.566  0.1221  1.0476 -1.0172
   75CHL1   C13 7982   1.662   1.806   7.490  0.3251  0.0333  0.2324
   75CHL1   C18 7983   1.537   1.887   7.538  0.1381  0.6004 -0.3434
   75CHL1  H18A 7984   1.537   1.986   7.486  0.5112 -0.6933 -2.9446
   75CHL1  H18B 7985   1.444   1.832   7.512  0.8369 -0.2691 -1.0641
   75CHL1  H18C 7986   1.542   1.907   7.647 -1.2778  1.1667 -0.3518
   75CHL1   C12 7987   1.777   1.900   7.459 -0.7715  0.6388  0.2664
   75CHL1  H12A 7988   1.781   1.976   7.540  1.7521  0.2460  0.5963
   75CHL1  H12B 7989   1.870   1.839   7.461 -0.6770  0.7589 -0.2466
   75CHL1   C11 7990   1.756   1.975   7.326 -1.0492 -0.5263 -0.5318
   75CHL1  H11A 7991   1.687   2.060   7.347 -0.2924 -0.2510  1.0158
   75CHL1  H11B 7992   1.851   2.017   7.286 -0.9781 -2.8584 -3.1152
   75CHL1    C9 7993   1.698   1.896   7.214  0.0708  0.3606 -0.1296
   75CHL1    H9 7994   1.776   1.824   7.180 -0.1385  0.6681 -1.2989
   75CHL1   C10 7995   1.666   1.977   7.080  0.6669 -0.3562  0.4080
   75CHL1   C19 7996   1.566   2.087   7.119  0.5216  0.1660  0.2719
   75CHL1  H19A 7997   1.624   2.180   7.138  0.8471  0.6112 -2.5086
   75CHL1  H19B 7998   1.495   2.112   7.037  1.0246  2.1123  0.3848
   75CHL1  H19C 7999   1.504   2.055   7.206  1.6758 -1.2873  0.5975
   75CHL1    C1 8000   1.800   2.041   7.022  0.1773 -0.2556  0.8892
   75CHL1   H1A 8001   1.842   2.122   7.086  0.6051 -1.1211  1.7279
   75CHL1   H1B 8002   1.873   1.958   7.014  1.2060  0.6308  0.8950
   75CHL1    C2 8003   1.783   2.086   6.877 -0.0860 -0.3339 -0.1435
   75CHL1   H2A 8004   1.880   2.124   6.838  0.1073 -0.3433  0.3214
   75CHL1   H2B 8005   1.709   2.169   6.876  0.9955  0.6921  1.0194
   75CHL1   C20 8006   1.700   1.723   7.746 -0.2378  0.0527  0.0262
   75CHL1   H20 8007   1.603   1.761   7.785  0.9525  2.8569  0.5035
   75CHL1   C21 8008   1.803   1.838   7.771  0.1462 -0.1087  0.0014
   75CHL1  H21A 8009   1.820   1.845   7.880 -1.2911  1.8476  0.1381
   75CHL1  H21B 8010   1.765   1.938   7.745  1.2826  1.0018  2.3097
   75CHL1  H21C 8011   1.888   1.818   7.702 -0.3885  1.8660 -1.3114
   75CHL1   C22 8012   1.731   1.596   7.829  0.7206 -0.8884  0.5317
   75CHL1  H22A 8013   1.724   1.630   7.935  0.3777 -0.3271  0.3316
   75CHL1  H22B 8014   1.655   1.517   7.810 -2.7779  2.1019  1.1865
   75CHL1   C23 8015   1.867   1.541   7.798 -0.3595  0.0981 -0.0466
   75CHL1  H23A 8016   1.889   1.532   7.690  0.8001 -0.5484  0.2295
   75CHL1  H23B 8017   1.938   1.618   7.835 -0.8944  1.2959 -1.4258
   75CHL1   C24 8018   1.883   1.405   7.862 -0.1157  0.1384 -0.3349
   75CHL1  H24A 8019   1.864   1.404   7.971 -0.0507 -0.0378 -0.3251
   75CHL1  H24B 8020   1.803   1.344   7.814  1.1611 -1.2093 -0.8029
   75CHL1   C25 8021   2.019   1.333   7.841 -0.1398 -0.8048 -1.1131
   75CHL1   H25 8022   2.018   1.243   7.906  0.5223  0.7031  1.0876
   75CHL1   C26 8023   2.054   1.298   7.693  0.0896 -0.4342 -0.1847
   75CHL1  H26A 8024   2.081   1.391   7.637  0.3147  0.6204  1.5976
   75CHL1  H26B 8025   2.148   1.239   7.696  0.4334  0.0973 -0.2915
   75CHL1  H26C 8026   1.974   1.242   7.641 -1.4338 -1.5219  3.0424
   75CHL1   C27 8027   2.148   1.413   7.892 -0.0650  0.2379  0.1865
   75CHL1  H27A 8028   2.144   1.439   8.000  0.2217  0.7934  0.0665
   75CHL1  H27B 8029   2.233   1.342   7.885  0.7628  1.2442 -0.1181
   75CHL1  H27C 8030   2.163   1.499   7.824 -2.2442  1.8469  1.5849
   76CHL1    C3 8031   4.261   5.824   7.081  0.2149  0.5291 -0.1918
   76CHL1    H3 8032   4.152   5.824   7.101 -0.0869 -1.6856 -1.5077
   76CHL1    O3 8033   4.287   5.811   6.946  0.4325 -0.9096  0.7002
   76CHL1   H3' 8034   4.380   5.789   6.938  0.6638 -0.1365  1.1885
   76CHL1    C4 8035   4.322   5.958   7.136 -0.2584  0.5059  0.4019
   76CHL1   H4A 8036   4.430   5.955   7.110 -0.3726 -1.0114  0.0278
   76CHL1   H4B 8037   4.271   6.038   7.078 -0.8200 -1.5866 -2.1499
   76CHL1    C5 8038   4.296   5.976   7.286  0.2940 -0.0994 -0.3081
   76CHL1    C6 8039   4.239   6.087   7.334 -0.1729 -0.2504  0.8970
   76CHL1    H6 8040   4.206   6.165   7.264 -2.9276 -0.6170  1.6742
   76CHL1    C7 8041   4.211   6.109   7.481 -0.6932 -0.0271  0.6517
   76CHL1   H7A 8042   4.243   6.205   7.527  0.7959 -0.4616  0.5939
   76CHL1   H7B 8043   4.106   6.088   7.509 -0.5844 -1.2695  0.1894
   76CHL1    C8 8044   4.298   6.004   7.570 -0.2196 -0.1587  0.0861
   76CHL1    H8 8045   4.404   6.037   7.558  0.3407 -1.1149  1.9996
   76CHL1   C14 8046   4.245   6.011   7.707  0.7552  1.1200 -0.6712
   76CHL1   H14 8047   4.135   5.993   7.706  0.7442  0.1934  2.9692
   76CHL1   C15 8048   4.223   6.147   7.783  0.1991  1.1171  0.2882
   76CHL1  H15A 8049   4.308   6.218   7.770  0.8113  0.1890 -1.0183
   76CHL1  H15B 8050   4.140   6.205   7.738 -1.8737 -1.8073  0.0701
   76CHL1   C16 8051   4.200   6.110   7.927  0.3660 -0.4711  0.0237
   76CHL1  H16A 8052   4.268   6.164   7.995 -0.0012  0.8325 -0.6215
   76CHL1  H16B 8053   4.094   6.119   7.960  1.0556  0.9304  2.0278
   76CHL1   C17 8054   4.228   5.954   7.938  0.5336 -0.1168 -0.0693
   76CHL1   H17 8055   4.127   5.909   7.927  0.9235 -0.8261 -0.8700
   76CHL1   C13 8056   4.305   5.912   7.808 -0.2604  0.2365  0.1221
   76CHL1   C18 8057   4.452   5.935   7.835 -0.6798  0.1777  0.0068
   76CHL1  H18A 8058   4.515   5.911   7.747 -0.1307  0.3533  0.3413
   76CHL1  H18B 8059   4.473   6.040   7.868 -0.6581  0.5016 -1.0110
   76CHL1  H18C 8060   4.494   5.862   7.908  0.1200 -0.4420 -1.0481
   76CHL1   C12 8061   4.295   5.767   7.756  0.0963 -0.1132 -0.6310
   76CHL1  H12A 8062   4.344   5.698   7.828 -3.0657 -3.0919 -1.0397
   76CHL1  H12B 8063   4.186   5.744   7.749 -0.3118  1.4366  0.1717
   76CHL1   C11 8064   4.336   5.749   7.616 -0.0626  0.1879  0.6313
   76CHL1  H11A 8065   4.447   5.742   7.626 -0.2430 -1.0471  2.2285
   76CHL1  H11B 8066   4.288   5.652   7.590 -0.5255  0.1688  1.5149
   76CHL1    C9 8067   4.279   5.859   7.520 -0.2867  0.2216  0.3372
   76CHL1    H9 8068   4.170   5.837   7.515 -0.0345 -0.7660 -2.2010
   76CHL1   C10 8069   4.339   5.851   7.373  0.5743  0.2460 -0.5812
   76CHL1   C19 8070   4.496   5.852   7.371 -0.2284 -0.1270 -0.5913
   76CHL1  H19A 8071   4.540   5.942   7.419  0.2238 -0.5436 -0.2121
   76CHL1  H19B 8072   4.538   5.761   7.420 -0.0071  0.8170  1.0694
   76CHL1  H19C 8073   4.531   5.858   7.266  0.2671  0.8859 -0.3886
   76CHL1    C1 8074   4.287   5.720   7.307 -0.2608  0.4026 -0.0767
   76CHL1   H1A 8075   4.349   5.643   7.358  1.3463  1.7496  0.0840
   76CHL1   H1B 8076   4.178   5.717   7.329  0.2383  0.4974  2.8971
   76CHL1    C2 8077   4.323   5.702   7.157 -0.1173 -0.4638  0.2009
   76CHL1   H2A 8078   4.298   5.602   7.114  0.1922 -0.0863 -0.8821
   76CHL1   H2B 8079   4.433   5.709   7.162 -0.1931  0.3380  0.9816
   76CHL1   C20 8080   4.280   5.907   8.074 -0.1352  0.0192 -0.0303
   76CHL1   H20 8081   4.379   5.956   8.082 -0.9005  1.7025 -0.2901
   76CHL1   C21 8082   4.307   5.757   8.096  0.1049 -0.2001  0.2499
   76CHL1  H21A 8083   4.383   5.721   8.023 -0.4526 -1.8391  0.4385
   76CHL1  H21B 8084   4.225   5.683   8.082  0.8496 -0.8425 -0.8648
   76CHL1  H21C 8085   4.350   5.730   8.195 -0.0255 -2.3461 -0.2124
   76CHL1   C22 8086   4.206   5.970   8.192 -0.4517  0.2271  0.2617
   76CHL1  H22A 8087   4.284   6.000   8.265 -1.0604 -0.4892  1.2368
   76CHL1  H22B 8088   4.144   6.058   8.165 -1.2171 -0.8229 -1.6739
   76CHL1   C23 8089   4.116   5.874   8.271 -0.4881  0.3844  0.2101
   76CHL1  H23A 8090   4.042   5.817   8.210  1.2909 -2.8176  0.8018
   76CHL1  H23B 8091   4.193   5.806   8.314  0.4641  0.0833 -1.8659
   76CHL1   C24 8092   4.028   5.938   8.376 -0.4336  0.4113  0.6890
   76CHL1  H24A 8093   4.090   6.004   8.440 -1.0378  0.5262  1.1594
   76CHL1  H24B 8094   3.952   5.999   8.324  0.4483  0.8539 -0.1159
   76CHL1   C25 8095   3.968   5.842   8.483  0.0925 -0.1904 -0.4100
   76CHL1   H25 8096   3.920   5.759   8.427 -0.3727 -0.6102  0.5834
   76CHL1   C26 8097   4.071   5.784   8.580  0.0742  0.3351  1.3255
   76CHL1  H26A 8098   4.021   5.705   8.640 -0.1208 -0.3164  0.3281
   76CHL1  H26B 8099   4.160   5.744   8.526 -0.1848 -1.1529  1.9550
   76CHL1  H26C 8100   4.106   5.855   8.658  2.1694  1.2730 -0.3510
   76CHL1   C27 8101   3.842   5.907   8.550  0.1443  0.1434 -0.0499
   76CHL1  H27A 8102   3.877   5.980   8.626 -0.4421  2.9392 -2.2858
   76CHL1  H27B 8103   3.794   5.971   8.472 -0.5619  1.3031  1.2910
   76CHL1  H27C 8104   3.770   5.832   8.589  0.0696 -1.3951 -2.8963
   77CHL1    C3 8105   6.092   3.810   6.821 -0.0099 -0.1043 -0.6100
   77CHL1    H3 8106   5.981   3.805   6.829 -0.1212 -0.4304 -2.1291
   77CHL1    O3 8107   6.120   3.864   6.688  0.1087  1.0814 -0.5398
   77CHL1   H3' 8108   6.216   3.855   6.683 -0.1372 -2.3138 -1.8573
   77CHL1    C4 8109   6.148   3.908   6.926 -0.3256 -0.6063 -0.3015
   77CHL1   H4A 8110   6.258   3.920   6.912 -0.6049  1.1738 -1.2672
   77CHL1   H4B 8111   6.103   4.007   6.903 -0.2572 -0.6127 -0.4689
   77CHL1    C5 8112   6.127   3.847   7.062  0.9325 -0.3572 -0.4624
   77CHL1    C6 8113   6.076   3.923   7.165  0.3985  0.1460  0.7172
   77CHL1    H6 8114   6.044   4.028   7.155 -2.0662 -0.5733  0.3034
   77CHL1    C7 8115   6.055   3.860   7.298  0.0569  0.1743  0.0391
   77CHL1   H7A 8116   6.076   3.935   7.378 -2.3398 -0.3455  1.2609
   77CHL1   H7B 8117   5.948   3.829   7.307  0.0131 -0.1599 -1.4352
   77CHL1    C8 8118   6.142   3.739   7.327  0.0451 -0.4766  0.5715
   77CHL1    H8 8119   6.241   3.786   7.341  0.6844 -2.3518  2.8380
   77CHL1   C14 8120   6.091   3.662   7.447  0.2226  0.1506  0.8914
   77CHL1   H14 8121   5.997   3.607   7.426 -1.7649  2.1803  3.6520
   77CHL1   C15 8122   6.061   3.745   7.576 -0.5030 -0.1233  0.4598
   77CHL1  H15A 8123   6.140   3.823   7.584 -0.1579 -0.2202 -1.4524
   77CHL1  H15B 8124   5.955   3.779   7.566 -0.6486 -0.9711 -1.2347
   77CHL1   C16 8125   6.062   3.643   7.689  0.3447  0.5787 -0.1125
   77CHL1  H16A 8126   6.136   3.681   7.763 -0.2366  2.6006 -0.5075
   77CHL1  H16B 8127   5.965   3.613   7.734  0.3348  3.2806  1.9593
   77CHL1   C17 8128   6.121   3.507   7.628  0.0886 -0.1482 -0.1901
   77CHL1   H17 8129   6.030   3.448   7.606  0.8903 -2.2422  1.6453
   77CHL1   C13 8130   6.181   3.549   7.491  0.0473 -0.5570  0.3561
   77CHL1   C18 8131   6.331   3.601   7.523  0.5442 -0.3771  0.7542
   77CHL1  H18A 8132   6.380   3.642   7.432  0.4950  0.6020  1.1607
   77CHL1  H18B 8133   6.335   3.675   7.605 -0.5868  1.2219 -0.5572
   77CHL1  H18C 8134   6.390   3.511   7.551  1.0461 -0.0617  0.7113
   77CHL1   C12 8135   6.175   3.441   7.380  0.4570 -0.0908 -0.0477
   77CHL1  H12A 8136   6.254   3.370   7.414 -0.5386 -0.2182  2.1475
   77CHL1  H12B 8137   6.081   3.383   7.385  1.0476 -1.1345 -0.6883
   77CHL1   C11 8138   6.212   3.503   7.247 -0.1245 -0.8730 -0.1747
   77CHL1  H11A 8139   6.318   3.535   7.245 -0.8894  1.9619 -1.5558
   77CHL1  H11B 8140   6.203   3.430   7.164  0.0540 -0.4951 -0.5353
   77CHL1    C9 8141   6.134   3.641   7.211 -0.1965  0.3774 -0.6603
   77CHL1    H9 8142   6.028   3.612   7.194 -0.1477  0.0668 -0.4289
   77CHL1   C10 8143   6.176   3.701   7.078 -0.3272  0.0150 -0.0643
   77CHL1   C19 8144   6.331   3.703   7.064 -0.2552  0.0227  0.9329
   77CHL1  H19A 8145   6.373   3.756   6.976 -0.6481  1.4766  1.5949
   77CHL1  H19B 8146   6.390   3.732   7.154  1.1626  0.7769 -0.1920
   77CHL1  H19C 8147   6.349   3.595   7.050 -1.4638 -0.1991  0.9697
   77CHL1    C1 8148   6.116   3.608   6.957  0.2522  0.3718 -0.4403
   77CHL1   H1A 8149   6.156   3.505   6.968  1.9410  0.7977 -2.1249
   77CHL1   H1B 8150   6.005   3.607   6.961  0.1898  1.6219 -1.3889
   77CHL1    C2 8151   6.143   3.670   6.824 -0.0375  0.1804 -0.1509
   77CHL1   H2A 8152   6.098   3.615   6.738 -1.1449  1.5211 -0.4623
   77CHL1   H2B 8153   6.253   3.675   6.808 -0.0035  1.3386  0.3675
   77CHL1   C20 8154   6.200   3.429   7.728  0.1664  0.3309 -0.2142
   77CHL1   H20 8155   6.302   3.473   7.737 -0.0509  0.8664 -0.3611
   77CHL1   C21 8156   6.205   3.275   7.699  0.1320  0.3582  0.3473
   77CHL1  H21A 8157   6.277   3.229   7.769  0.6848 -0.4095 -0.6981
   77CHL1  H21B 8158   6.234   3.237   7.599 -1.8250  0.7536 -0.4198
   77CHL1  H21C 8159   6.104   3.234   7.724 -1.0873  1.0714 -2.9227
   77CHL1   C22 8160   6.139   3.436   7.879 -0.1062 -0.2009  0.6131
   77CHL1  H22A 8161   6.122   3.544   7.903 -0.5230  0.0255 -0.6343
   77CHL1  H22B 8162   6.039   3.389   7.868 -0.4993  0.5616  0.7869
   77CHL1   C23 8163   6.227   3.383   7.989 -0.3004  0.2195 -0.3624
   77CHL1  H23A 8164   6.245   3.274   7.981 -0.7224  0.1331 -0.1666
   77CHL1  H23B 8165   6.325   3.434   7.985 -0.1320  0.0751  1.4306
   77CHL1   C24 8166   6.182   3.416   8.133  0.4087  0.2116 -0.4117
   77CHL1  H24A 8167   6.155   3.524   8.142 -0.3522 -0.0618  0.9723
   77CHL1  H24B 8168   6.083   3.373   8.158 -0.2771  2.5744  1.4128
   77CHL1   C25 8169   6.276   3.372   8.247  0.1187  0.1324  0.6602
   77CHL1   H25 8170   6.376   3.415   8.222 -0.0057 -0.1045 -0.2932
   77CHL1   C26 8171   6.236   3.437   8.385  1.1720  0.3916 -0.0089
   77CHL1  H26A 8172   6.134   3.403   8.412  0.9224  1.1393  0.0110
   77CHL1  H26B 8173   6.312   3.398   8.456 -0.1507 -0.5857  0.9116
   77CHL1  H26C 8174   6.244   3.547   8.375  1.7631  0.1828 -2.5608
   77CHL1   C27 8175   6.285   3.225   8.257 -0.0236 -0.0566  0.0171
   77CHL1  H27A 8176   6.349   3.202   8.345 -0.5962 -1.0123  0.2034
   77CHL1  H27B 8177   6.186   3.179   8.280  0.3966 -0.7267  0.5213
   77CHL1  H27C 8178   6.315   3.178   8.161  2.4182  1.5463 -0.1004
   78CHL1    C3 8179   0.725   5.197   6.765 -0.2992 -0.4915 -0.0533
   78CHL1    H3 8180   0.653   5.260   6.821  1.2157  0.5938  0.7321
   78CHL1    O3 8181   0.727   5.223   6.628 -0.2649 -0.2773 -0.0603
   78CHL1   H3' 8182   0.705   5.316   6.623  0.2174 -0.0290  1.8808
   78CHL1    C4 8183   0.871   5.225   6.822  0.0887 -0.1058  1.1254
   78CHL1   H4A 8184   0.934   5.151   6.768 -2.2499 -0.6758 -0.9653
   78CHL1   H4B 8185   0.891   5.332   6.804  0.0926 -0.3432 -0.3944
   78CHL1    C5 8186   0.865   5.200   6.970  0.4951 -0.2275 -0.1310
   78CHL1    C6 8187   0.889   5.299   7.059  0.2134 -0.3371 -0.2618
   78CHL1    H6 8188   0.909   5.403   7.027 -0.9209  0.3268  1.0826
   78CHL1    C7 8189   0.880   5.280   7.207  0.3689 -0.5192  0.3246
   78CHL1   H7A 8190   0.968   5.327   7.256  0.7928 -0.1260 -0.7870
   78CHL1   H7B 8191   0.785   5.326   7.240  0.1516  2.3091 -3.6407
   78CHL1    C8 8192   0.880   5.135   7.258  0.5230 -0.0701 -0.1947
   78CHL1    H8 8193   0.985   5.100   7.248  1.9110  2.7994  2.6938
   78CHL1   C14 8194   0.844   5.127   7.404 -0.2825  0.8545 -0.1290
   78CHL1   H14 8195   0.741   5.167   7.415 -0.6296 -0.6165  2.6158
   78CHL1   C15 8196   0.921   5.209   7.506  0.2795  0.0033 -0.7042
   78CHL1  H15A 8197   1.031   5.211   7.495  0.1928  3.2387 -2.2446
   78CHL1  H15B 8198   0.889   5.316   7.500 -1.3190 -0.2471  1.7422
   78CHL1   C16 8199   0.885   5.144   7.640 -0.0081  1.0059  0.3542
   78CHL1  H16A 8200   0.976   5.115   7.696  0.0010  0.9079  0.2895
   78CHL1  H16B 8201   0.828   5.225   7.690  0.8214  0.6635  1.9170
   78CHL1   C17 8202   0.795   5.018   7.601 -0.4736  0.4750  0.0808
   78CHL1   H17 8203   0.686   5.041   7.599 -1.3306 -2.6998  2.2252
   78CHL1   C13 8204   0.840   4.985   7.460  0.0374  0.3669  0.6400
   78CHL1   C18 8205   0.980   4.925   7.460 -0.1730  0.3629 -0.1537
   78CHL1  H18A 8206   1.052   4.988   7.517 -1.2814  1.6812 -0.1520
   78CHL1  H18B 8207   0.990   4.828   7.512  4.0828  1.4210  1.4821
   78CHL1  H18C 8208   1.017   4.924   7.355 -0.3001 -0.5320 -0.1927
   78CHL1   C12 8209   0.753   4.889   7.379  0.2149 -0.4987  0.2014
   78CHL1  H12A 8210   0.764   4.783   7.409  0.1651 -1.3911 -2.6511
   78CHL1  H12B 8211   0.648   4.919   7.397 -0.3989 -2.1049 -0.4868
   78CHL1   C11 8212   0.783   4.906   7.223 -1.0236 -0.4155 -0.0700
   78CHL1  H11A 8213   0.887   4.868   7.212 -2.0020 -2.8569 -1.8216
   78CHL1  H11B 8214   0.710   4.854   7.157 -0.6900  1.2038 -1.7919
   78CHL1    C9 8215   0.780   5.053   7.169  0.9836 -0.7142 -0.4223
   78CHL1    H9 8216   0.680   5.099   7.187  0.9377 -0.4676 -1.2647
   78CHL1   C10 8217   0.816   5.063   7.013  0.0907  0.5079  0.2208
   78CHL1   C19 8218   0.934   4.960   6.981 -0.3356  0.5515  0.2705
   78CHL1  H19A 8219   0.907   4.853   6.974  0.3572  0.3855 -0.0176
   78CHL1  H19B 8220   0.970   4.976   6.877 -0.4610 -0.2497  0.0974
   78CHL1  H19C 8221   1.025   4.962   7.046  0.7453  0.9939 -1.1909
   78CHL1    C1 8222   0.692   5.013   6.934 -0.2088  0.7141  0.7299
   78CHL1   H1A 8223   0.689   4.904   6.954  0.6735  0.3023 -1.1540
   78CHL1   H1B 8224   0.595   5.054   6.969 -2.3338 -2.0604 -1.4084
   78CHL1    C2 8225   0.697   5.049   6.785  0.1447 -0.1500 -0.1999
   78CHL1   H2A 8226   0.601   5.016   6.741  0.8182 -1.3301 -0.8266
   78CHL1   H2B 8227   0.779   4.987   6.740 -1.7066 -2.6182 -0.3744
   78CHL1   C20 8228   0.802   4.901   7.699 -0.1315 -0.1614 -0.2930
   78CHL1   H20 8229   0.892   4.838   7.680  1.3526  1.9276 -0.4397
   78CHL1   C21 8230   0.671   4.815   7.683  0.2275 -0.4967 -0.2723
   78CHL1  H21A 8231   0.656   4.737   7.761 -1.4668  0.8180  0.7823
   78CHL1  H21B 8232   0.668   4.756   7.589 -0.0017 -1.7882  0.5211
   78CHL1  H21C 8233   0.591   4.890   7.696  1.4892  0.8272  0.1668
   78CHL1   C22 8234   0.807   4.944   7.847 -0.4038 -0.2824 -0.3967
   78CHL1  H22A 8235   0.862   5.041   7.855 -1.2478  0.4336 -2.4706
   78CHL1  H22B 8236   0.702   4.955   7.880 -0.2101  0.1375  0.0999
   78CHL1   C23 8237   0.889   4.841   7.926  0.1510  0.4649 -0.2718
   78CHL1  H23A 8238   0.850   4.740   7.900 -1.7949  0.7974  1.0970
   78CHL1  H23B 8239   0.994   4.831   7.892  0.8421  0.9418  1.6052
   78CHL1   C24 8240   0.854   4.832   8.084 -0.4999 -0.3971  0.4123
   78CHL1  H24A 8241   0.886   4.929   8.126 -1.2980 -0.6434  1.6295
   78CHL1  H24B 8242   0.743   4.825   8.091 -0.5587  0.3416  0.2786
   78CHL1   C25 8243   0.914   4.724   8.172  0.0455  0.4542  0.5270
   78CHL1   H25 8244   0.876   4.737   8.275  3.0422  1.4417  1.6291
   78CHL1   C26 8245   0.853   4.586   8.139  0.1219  0.2029  0.2894
   78CHL1  H26A 8246   0.752   4.575   8.184 -0.4431  2.6241 -0.2185
   78CHL1  H26B 8247   0.854   4.565   8.030  0.6368  0.1441  0.3031
   78CHL1  H26C 8248   0.919   4.502   8.170  0.3237 -0.2408 -1.2793
   78CHL1   C27 8249   1.063   4.733   8.177 -0.2916  0.3911 -0.9976
   78CHL1  H27A 8250   1.104   4.826   8.220 -0.9901  1.2022 -2.0224
   78CHL1  H27B 8251   1.104   4.654   8.243  1.7464  1.2756 -1.1370
   78CHL1  H27C 8252   1.108   4.713   8.077  1.2021  0.5993 -0.3774
   79CHL1    C3 8253   4.833   4.746   7.069 -0.3434 -0.3433  0.8953
   79CHL1    H3 8254   4.932   4.788   7.041 -1.3200  0.8211 -1.0669
   79CHL1    O3 8255   4.760   4.703   6.950  0.3829  0.1811  0.0484
   79CHL1   H3' 8256   4.814   4.630   6.918  0.4073 -0.4845  1.5176
   79CHL1    C4 8257   4.846   4.625   7.161 -0.0663 -0.2582 -0.5338
   79CHL1   H4A 8258   4.741   4.591   7.176 -1.2623  3.5043  0.7502
   79CHL1   H4B 8259   4.905   4.541   7.119  0.3640  0.3885 -1.2565
   79CHL1    C5 8260   4.908   4.662   7.298 -0.0632  0.6808  0.7064
   79CHL1    C6 8261   5.010   4.597   7.354 -0.1969 -0.1616  1.0750
   79CHL1    H6 8262   5.054   4.514   7.296 -1.2929 -1.0132  1.4290
   79CHL1    C7 8263   5.071   4.624   7.486  0.1530 -0.4474  0.7375
   79CHL1   H7A 8264   5.097   4.533   7.544  1.2927  0.6448  2.0141
   79CHL1   H7B 8265   5.167   4.679   7.471 -0.2904  0.4261  1.0452
   79CHL1    C8 8266   4.981   4.710   7.576 -0.7021  0.2402  0.1841
   79CHL1    H8 8267   4.898   4.646   7.614 -0.0583 -0.3789  0.5653
   79CHL1   C14 8268   5.058   4.776   7.693 -0.5442 -0.3038 -0.4540
   79CHL1   H14 8269   5.134   4.841   7.646  1.4119  0.7147  3.6861
   79CHL1   C15 8270   5.132   4.685   7.781  0.6264 -0.2905 -0.2232
   79CHL1  H15A 8271   5.073   4.597   7.817  3.2275 -1.6059  1.0877
   79CHL1  H15B 8272   5.226   4.649   7.734  0.5585 -2.4298  1.1263
   79CHL1   C16 8273   5.160   4.766   7.903  0.8782 -0.2014  0.2911
   79CHL1  H16A 8274   5.142   4.704   7.994  0.4876  0.1365  0.4491
   79CHL1  H16B 8275   5.261   4.810   7.903  1.2734 -1.0791  0.7533
   79CHL1   C17 8276   5.067   4.896   7.900  0.2213 -0.3387  0.3222
   79CHL1   H17 8277   5.132   4.983   7.876  0.0878 -0.2444  0.3011
   79CHL1   C13 8278   4.969   4.869   7.781 -0.6791 -0.2126 -0.2961
   79CHL1   C18 8279   4.845   4.787   7.833  0.3009  0.3727 -0.4840
   79CHL1  H18A 8280   4.794   4.746   7.743  0.8451 -1.5550  0.0500
   79CHL1  H18B 8281   4.891   4.706   7.893 -0.3633  0.6827  0.4566
   79CHL1  H18C 8282   4.772   4.851   7.887  0.0737  0.3053 -0.7086
   79CHL1   C12 8283   4.924   4.986   7.696 -0.6621  0.2220  0.1408
   79CHL1  H12A 8284   4.860   5.059   7.751  1.0641  2.1421 -0.2694
   79CHL1  H12B 8285   5.011   5.042   7.657 -0.8390  0.3983 -0.0051
   79CHL1   C11 8286   4.844   4.935   7.575  0.6238 -0.3526 -0.4132
   79CHL1  H11A 8287   4.742   4.906   7.607 -0.4574 -0.1186 -3.3596
   79CHL1  H11B 8288   4.822   5.023   7.512  2.3161 -1.0517 -2.0976
   79CHL1    C9 8289   4.916   4.823   7.496  0.4927 -0.3250  0.3386
   79CHL1    H9 8290   5.007   4.866   7.447 -0.6407 -0.7461 -2.3232
   79CHL1   C10 8291   4.834   4.777   7.371 -0.2291 -0.0342 -0.5553
   79CHL1   C19 8292   4.692   4.719   7.422 -0.3326  0.6218 -0.3885
   79CHL1  H19A 8293   4.629   4.802   7.461 -1.0493  0.6577 -1.5806
   79CHL1  H19B 8294   4.629   4.666   7.347  2.6085 -0.0127 -2.5627
   79CHL1  H19C 8295   4.725   4.650   7.502  0.8020  2.7883  1.1247
   79CHL1    C1 8296   4.811   4.899   7.271 -0.1736  0.1987  0.8059
   79CHL1   H1A 8297   4.753   4.978   7.323  1.5170  2.1293 -0.1231
   79CHL1   H1B 8298   4.904   4.959   7.265  1.1777 -1.8218  0.6811
   79CHL1    C2 8299   4.756   4.856   7.135 -0.0736 -0.8017 -0.5073
   79CHL1   H2A 8300   4.740   4.937   7.061 -1.8654 -1.5009 -0.9338
   79CHL1   H2B 8301   4.655   4.814   7.156  0.5433 -1.1060  2.3644
   79CHL1   C20 8302   5.003   4.930   8.042 -0.3609  0.7831 -0.0388
   79CHL1   H20 8303   4.918   4.862   8.064 -0.9923  1.6524  0.2582
   79CHL1   C21 8304   4.940   5.069   8.034  0.0596 -0.5432  0.3228
   79CHL1  H21A 8305   4.888   5.091   8.130  0.3827  0.0675  0.3625
   79CHL1  H21B 8306   4.869   5.078   7.949  3.1474 -0.1704 -2.3875
   79CHL1  H21C 8307   5.017   5.147   8.016 -1.5401  0.5085 -2.7256
   79CHL1   C22 8308   5.098   4.916   8.164  0.2542  0.0137 -0.2038
   79CHL1  H22A 8309   5.099   4.807   8.184 -0.7053  0.2162  1.0539
   79CHL1  H22B 8310   5.198   4.949   8.129 -0.4849  0.4266 -2.0721
   79CHL1   C23 8311   5.052   4.975   8.299  0.1011  0.5627 -0.0389
   79CHL1  H23A 8312   5.045   5.086   8.296 -2.7628  0.4398 -0.0214
   79CHL1  H23B 8313   4.955   4.931   8.328  0.0438  0.2537 -0.6690
   79CHL1   C24 8314   5.152   4.937   8.404 -0.1871 -0.2354 -0.3751
   79CHL1  H24A 8315   5.150   4.830   8.432 -0.9052 -0.3922 -0.9815
   79CHL1  H24B 8316   5.254   4.945   8.360 -1.2689  0.6468 -2.9438
   79CHL1   C25 8317   5.147   5.029   8.527 -0.1907  0.5143 -0.2314
   79CHL1   H25 8318   5.166   5.136   8.504  1.2208  0.4956  0.6960
   79CHL1   C26 8319   5.020   5.023   8.611 -0.6711 -0.2596 -0.1674
   79CHL1  H26A 8320   4.930   5.046   8.549  0.0649  1.3371 -0.6985
   79CHL1  H26B 8321   5.012   4.927   8.666 -0.0258  0.2398  0.8138
   79CHL1  H26C 8322   5.047   5.100   8.686  0.5544  0.4249 -1.2496
   79CHL1   C27 8323   5.276   4.982   8.612  0.4684  1.0425 -0.3273
   79CHL1  H27A 8324   5.366   4.992   8.548  1.2440 -1.5673  0.2353
   79CHL1  H27B 8325   5.291   5.042   8.704 -0.5207  0.0644  0.4936
   79CHL1  H27C 8326   5.263   4.876   8.643 -1.1339  1.6655  1.3379
   80CHL1    C3 8327   5.644   1.724   6.863 -0.5791 -0.1651 -0.2027
   80CHL1    H3 8328   5.615   1.826   6.829  0.0093  1.0386  2.5770
   80CHL1    O3 8329   5.627   1.634   6.761  0.9209  0.1437  0.3575
   80CHL1   H3' 8330   5.666   1.551   6.789  0.5212  0.0949  0.7761
   80CHL1    C4 8331   5.794   1.730   6.903  0.2398  0.3776 -0.1265
   80CHL1   H4A 8332   5.828   1.624   6.914 -0.2911  0.3259  1.3066
   80CHL1   H4B 8333   5.845   1.767   6.812 -2.1333  1.2090 -1.2033
   80CHL1    C5 8334   5.832   1.820   7.024 -0.0575 -0.5247 -0.1905
   80CHL1    C6 8335   5.918   1.924   7.009 -0.2304 -0.4788 -0.0030
   80CHL1    H6 8336   5.967   1.927   6.911  0.4390 -0.9493  0.3084
   80CHL1    C7 8337   5.955   2.019   7.118  0.5525 -0.3123 -0.5679
   80CHL1   H7A 8338   6.065   2.032   7.116  0.7763 -1.9040 -0.0859
   80CHL1   H7B 8339   5.916   2.121   7.097  0.3336  0.2106  1.9925
   80CHL1    C8 8340   5.902   1.972   7.256 -0.1392  0.7524  0.4654
   80CHL1    H8 8341   5.965   1.887   7.289  1.7416  1.7662 -0.3224
   80CHL1   C14 8342   5.906   2.091   7.352  0.8814  0.0377 -0.0727
   80CHL1   H14 8343   5.832   2.165   7.316  1.1935  0.7677  0.7400
   80CHL1   C15 8344   6.033   2.177   7.364  0.2207  0.4442  0.1316
   80CHL1  H15A 8345   6.113   2.100   7.369 -0.6550 -0.4659  0.4365
   80CHL1  H15B 8346   6.045   2.240   7.273  1.2045 -0.6990 -0.5648
   80CHL1   C16 8347   6.016   2.235   7.500 -0.1060 -0.1375  0.8085
   80CHL1  H16A 8348   6.098   2.193   7.562  1.9748  0.6660 -1.2499
   80CHL1  H16B 8349   6.018   2.346   7.507 -0.1618 -0.0736 -0.0652
   80CHL1   C17 8350   5.884   2.190   7.565  0.3838 -0.2382 -0.1326
   80CHL1   H17 8351   5.819   2.270   7.524  1.2292  0.5589  0.0648
   80CHL1   C13 8352   5.860   2.053   7.494 -0.6902 -1.0929 -0.7119
   80CHL1   C18 8353   5.962   1.949   7.557 -0.1098 -0.3967 -0.1825
   80CHL1  H18A 8354   5.938   1.851   7.510  1.9282 -0.8489 -0.3775
   80CHL1  H18B 8355   6.067   1.966   7.527 -0.7029 -0.8543 -2.7280
   80CHL1  H18C 8356   5.954   1.944   7.668 -2.0984  0.2384 -0.2498
   80CHL1   C12 8357   5.717   2.011   7.479  0.1924 -0.2820 -0.2786
   80CHL1  H12A 8358   5.665   1.975   7.571 -3.0413  1.5157 -1.2248
   80CHL1  H12B 8359   5.657   2.099   7.448  3.6367  1.5942 -2.1816
   80CHL1   C11 8360   5.695   1.893   7.378  1.1408 -0.3666  0.2676
   80CHL1  H11A 8361   5.740   1.801   7.423 -0.3312 -1.2779 -0.0556
   80CHL1  H11B 8362   5.587   1.870   7.376  1.0214  0.0857  1.0082
   80CHL1    C9 8363   5.752   1.921   7.243 -0.1032 -0.0807  0.3219
   80CHL1    H9 8364   5.696   2.003   7.194 -1.5573 -0.9765  0.4110
   80CHL1   C10 8365   5.742   1.804   7.144 -0.1332 -0.3823 -0.3160
   80CHL1   C19 8366   5.796   1.666   7.212 -0.4718 -0.5631  0.4580
   80CHL1  H19A 8367   5.724   1.641   7.293 -0.8839  1.9621  0.9641
   80CHL1  H19B 8368   5.804   1.581   7.141 -0.8340  0.5503 -0.9757
   80CHL1  H19C 8369   5.898   1.675   7.256  0.4499  1.6099 -1.8714
   80CHL1    C1 8370   5.591   1.781   7.093 -0.0111  0.3410  0.7664
   80CHL1   H1A 8371   5.536   1.748   7.183 -2.2667  1.6354 -0.0431
   80CHL1   H1B 8372   5.555   1.880   7.055  1.7168  1.1688  1.1907
   80CHL1    C2 8373   5.560   1.678   6.983 -1.2729  0.5129 -0.6476
   80CHL1   H2A 8374   5.452   1.680   6.957 -1.2107  0.5469 -0.9119
   80CHL1   H2B 8375   5.602   1.578   7.005 -0.4168  0.5962 -1.7895
   80CHL1   C20 8376   5.876   2.203   7.710 -0.0139  0.0526  0.1677
   80CHL1   H20 8377   5.954   2.137   7.754 -2.0148 -3.0790 -0.6483
   80CHL1   C21 8378   5.741   2.142   7.757 -0.3226  0.7719 -0.8820
   80CHL1  H21A 8379   5.667   2.190   7.690 -0.9056  2.4494  0.8583
   80CHL1  H21B 8380   5.709   2.166   7.861 -0.0290 -1.7460 -0.1163
   80CHL1  H21C 8381   5.733   2.031   7.746  1.7160  0.5482 -0.5185
   80CHL1   C22 8382   5.890   2.351   7.757  0.2753 -0.4256 -0.1085
   80CHL1  H22A 8383   5.998   2.372   7.742  0.3897 -0.8906  0.0453
   80CHL1  H22B 8384   5.854   2.424   7.682  3.1376 -1.4081 -2.6258
   80CHL1   C23 8385   5.858   2.368   7.910  1.0384 -0.0608  0.1257
   80CHL1  H23A 8386   5.748   2.367   7.922  0.8769 -1.3501 -1.2114
   80CHL1  H23B 8387   5.908   2.290   7.972  0.1852 -1.0171 -0.3582
   80CHL1   C24 8388   5.906   2.504   7.967  0.6201 -0.0161 -0.3605
   80CHL1  H24A 8389   6.011   2.523   7.936  0.8320 -0.2951  0.1588
   80CHL1  H24B 8390   5.851   2.590   7.924  0.7085  0.8958  1.2517
   80CHL1   C25 8391   5.890   2.526   8.117  0.5195 -0.3174 -0.2871
   80CHL1   H25 8392   5.928   2.630   8.126 -0.4751  0.0955 -0.7552
   80CHL1   C26 8393   5.751   2.516   8.159 -0.9842  0.6220 -0.3641
   80CHL1  H26A 8394   5.686   2.583   8.099 -0.2669 -0.0477 -1.9607
   80CHL1  H26B 8395   5.710   2.418   8.127 -3.1123  1.7547 -1.2661
   80CHL1  H26C 8396   5.730   2.535   8.266 -0.4236 -1.1332  0.1033
   80CHL1   C27 8397   5.981   2.441   8.206  0.0513  0.0113  0.5667
   80CHL1  H27A 8398   5.992   2.497   8.302  1.2641  0.9645 -0.0959
   80CHL1  H27B 8399   5.937   2.341   8.227  0.0125  0.4100  2.7012
   80CHL1  H27C 8400   6.089   2.433   8.179  0.6079  1.9021  1.9726
   81CHL1    C3 8401   3.717   2.966   7.069  0.0687 -0.0591  0.5874
   81CHL1    H3 8402   3.718   3.077   7.069 -0.8363 -0.0458  0.9546
   81CHL1    O3 8403   3.719   2.947   6.927 -0.3797 -0.0139 -0.8722
   81CHL1   H3' 8404   3.740   2.854   6.919 -0.0246  0.0158 -0.3437
   81CHL1    C4 8405   3.840   2.915   7.132 -0.6184 -0.4586  0.1301
   81CHL1   H4A 8406   3.849   2.805   7.130  1.4968 -0.3638  1.7158
   81CHL1   H4B 8407   3.929   2.957   7.081 -0.4499  0.8321  1.4201
   81CHL1    C5 8408   3.846   2.960   7.279 -0.2559 -0.0388 -0.3649
   81CHL1    C6 8409   3.945   3.033   7.337 -0.3523 -0.7687  0.9320
   81CHL1    H6 8410   4.039   3.063   7.288  0.1739 -1.9453  1.1721
   81CHL1    C7 8411   3.958   3.063   7.482  0.0174  0.1519 -0.2360
   81CHL1   H7A 8412   4.051   3.021   7.524 -0.8543 -0.2962  1.3374
   81CHL1   H7B 8413   3.957   3.174   7.487  0.3746  0.1930 -0.9149
   81CHL1    C8 8414   3.852   2.995   7.563  0.6053  0.4327 -0.0413
   81CHL1    H8 8415   3.874   2.886   7.568 -0.0892  0.1520 -2.0754
   81CHL1   C14 8416   3.841   3.065   7.694  0.0050 -0.4674  0.4875
   81CHL1   H14 8417   3.797   3.161   7.659 -0.6206 -0.1754  1.9719
   81CHL1   C15 8418   3.968   3.096   7.788 -0.5181  0.4223 -0.5938
   81CHL1  H15A 8419   4.038   3.011   7.778 -1.8786 -0.4789 -3.7557
   81CHL1  H15B 8420   4.005   3.198   7.763  0.5824 -0.1262 -1.2623
   81CHL1   C16 8421   3.907   3.104   7.931 -0.5103 -0.0733  0.6297
   81CHL1  H16A 8422   3.947   3.023   7.995 -0.2677  0.5982  1.3464
   81CHL1  H16B 8423   3.948   3.202   7.966 -0.4250  0.1540 -0.0790
   81CHL1   C17 8424   3.752   3.093   7.914 -0.0753 -0.2921 -0.0596
   81CHL1   H17 8425   3.734   3.198   7.882  2.4284  0.5475  0.9741
   81CHL1   C13 8426   3.738   3.008   7.786 -0.1444 -0.3619 -0.3031
   81CHL1   C18 8427   3.761   2.861   7.821 -0.1077  0.3977  0.0558
   81CHL1  H18A 8428   3.766   2.801   7.727  0.8002  2.1722 -1.0853
   81CHL1  H18B 8429   3.866   2.854   7.858  0.3255 -0.6490 -1.2619
   81CHL1  H18C 8430   3.679   2.832   7.889  0.5693  3.4036  2.3571
   81CHL1   C12 8431   3.598   3.024   7.713 -0.3348 -0.8602 -0.1738
   81CHL1  H12A 8432   3.523   2.996   7.790 -2.3302 -0.0026 -1.6881
   81CHL1  H12B 8433   3.577   3.132   7.700 -1.0445 -1.0674 -0.8313
   81CHL1   C11 8434   3.588   2.951   7.582 -0.0998  1.0676 -0.5056
   81CHL1  H11A 8435   3.588   2.843   7.608 -1.1941  1.3300  0.7129
   81CHL1  H11B 8436   3.495   2.969   7.524 -1.1234 -0.7168  0.4658
   81CHL1    C9 8437   3.714   2.988   7.491  0.8111  0.2785  0.5516
   81CHL1    H9 8438   3.703   3.098   7.474 -2.1742  0.2879  1.9086
   81CHL1   C10 8439   3.721   2.918   7.350  0.1664 -0.4015 -0.1731
   81CHL1   C19 8440   3.723   2.765   7.377  0.1440 -0.2454 -0.1465
   81CHL1  H19A 8441   3.638   2.733   7.441  2.1944 -0.6053  2.5810
   81CHL1  H19B 8442   3.727   2.702   7.285  0.5900 -0.8766  0.2932
   81CHL1  H19C 8443   3.808   2.728   7.439  0.0734 -0.8729 -0.4066
   81CHL1    C1 8444   3.592   2.951   7.275 -1.0347  0.3995 -0.4053
   81CHL1   H1A 8445   3.510   2.900   7.330  1.1669 -0.4128  2.3756
   81CHL1   H1B 8446   3.560   3.055   7.296  2.2931  1.5385 -0.4116
   81CHL1    C2 8447   3.591   2.917   7.124 -0.0041  0.3630 -0.0614
   81CHL1   H2A 8448   3.513   2.968   7.064  0.8950 -0.5390 -2.1069
   81CHL1   H2B 8449   3.573   2.808   7.110  0.2365  0.1292  1.3122
   81CHL1   C20 8450   3.672   3.065   8.038  0.4642  0.7030 -0.3715
   81CHL1   H20 8451   3.570   3.024   8.019  0.0161  0.4726  2.2649
   81CHL1   C21 8452   3.634   3.210   8.102 -0.4316 -0.3448  0.7900
   81CHL1  H21A 8453   3.731   3.250   8.138 -0.5011 -0.4180  1.0637
   81CHL1  H21B 8454   3.567   3.213   8.191 -2.0899  2.2015 -0.4430
   81CHL1  H21C 8455   3.591   3.270   8.019  2.6113 -0.1371 -0.7871
   81CHL1   C22 8456   3.735   2.968   8.144  0.2386 -0.2075 -0.2260
   81CHL1  H22A 8457   3.747   2.869   8.095  1.4760 -0.2065  0.0393
   81CHL1  H22B 8458   3.830   3.013   8.181  0.5922  0.2134 -1.5976
   81CHL1   C23 8459   3.657   2.960   8.278  0.6513  0.5400  0.0107
   81CHL1  H23A 8460   3.726   2.998   8.356 -0.0656  2.6636 -0.3223
   81CHL1  H23B 8461   3.568   3.027   8.278 -0.3297 -0.5832  3.4536
   81CHL1   C24 8462   3.605   2.813   8.312 -0.1276  0.0110  0.5331
   81CHL1  H24A 8463   3.518   2.825   8.380  0.3535  1.0801  0.9815
   81CHL1  H24B 8464   3.561   2.765   8.222 -2.3672  0.6953  1.1999
   81CHL1   C25 8465   3.703   2.718   8.389 -0.2019 -1.4163 -0.0555
   81CHL1   H25 8466   3.800   2.718   8.334 -0.1885 -2.5857 -0.0522
   81CHL1   C26 8467   3.726   2.764   8.529  0.2867 -0.4770 -0.9935
   81CHL1  H26A 8468   3.644   2.717   8.586  1.1281  1.2799  1.8133
   81CHL1  H26B 8469   3.824   2.727   8.566 -0.2513 -0.2571  0.7048
   81CHL1  H26C 8470   3.711   2.874   8.530 -0.2538 -0.5520 -0.0974
   81CHL1   C27 8471   3.667   2.573   8.388  0.0791 -0.1996  0.0231
   81CHL1  H27A 8472   3.562   2.569   8.425 -0.9860  0.5242 -2.6793
   81CHL1  H27B 8473   3.667   2.527   8.287  0.2717  2.6357 -1.3772
   81CHL1  H27C 8474   3.732   2.516   8.458 -0.3701 -1.4542 -0.5567
   82CHL1    C3 8475   3.918   4.316   7.222  0.8597  0.9105  0.7377
   82CHL1    H3 8476   4.014   4.270   7.251  0.1744 -1.0619  0.0211
   82CHL1    O3 8477   3.902   4.300   7.082  0.0108  0.0574  0.6355
   82CHL1   H3' 8478   3.906   4.391   7.052  1.3547  0.0671  0.7621
   82CHL1    C4 8479   3.791   4.233   7.286  0.1320 -0.5270 -0.9484
   82CHL1   H4A 8480   3.693   4.259   7.240 -0.5714 -1.9247 -0.3177
   82CHL1   H4B 8481   3.812   4.128   7.255  0.9341 -0.1891 -1.6010
   82CHL1    C5 8482   3.787   4.252   7.434  0.3250  0.5266 -0.3252
   82CHL1    C6 8483   3.789   4.143   7.517  0.0580 -0.4859  0.6762
   82CHL1    H6 8484   3.782   4.042   7.475  1.7850 -0.5651  0.5228
   82CHL1    C7 8485   3.783   4.148   7.667  1.0893  0.6190  0.0535
   82CHL1   H7A 8486   3.714   4.070   7.706  0.6427 -0.1717 -2.1244
   82CHL1   H7B 8487   3.886   4.125   7.698  1.4086  1.0151 -0.6778
   82CHL1    C8 8488   3.739   4.296   7.714  0.0097  0.3718  1.3878
   82CHL1    H8 8489   3.632   4.307   7.687  0.2381 -0.2945  0.1160
   82CHL1   C14 8490   3.762   4.310   7.865  0.6880  0.9933 -0.0120
   82CHL1   H14 8491   3.871   4.301   7.888  0.8235  1.0766 -0.5890
   82CHL1   C15 8492   3.694   4.207   7.954  0.3007  0.5626 -0.3264
   82CHL1  H15A 8493   3.593   4.183   7.915  0.0395 -0.9962  1.1442
   82CHL1  H15B 8494   3.754   4.113   7.956 -0.1951  0.2265 -0.9554
   82CHL1   C16 8495   3.685   4.275   8.089  0.1008 -0.8080 -0.0226
   82CHL1  H16A 8496   3.580   4.269   8.125 -0.0823  2.9865  0.4789
   82CHL1  H16B 8497   3.732   4.227   8.178 -2.0588 -1.6472  0.7460
   82CHL1   C17 8498   3.738   4.425   8.064 -0.2601  0.5487 -0.7862
   82CHL1   H17 8499   3.846   4.416   8.086 -0.8077  0.5398  2.3257
   82CHL1   C13 8500   3.718   4.445   7.919  0.1482 -0.1329  1.5105
   82CHL1   C18 8501   3.565   4.465   7.881 -0.3134 -0.3973 -0.2092
   82CHL1  H18A 8502   3.545   4.464   7.772 -0.3804  1.3299 -0.2476
   82CHL1  H18B 8503   3.499   4.397   7.939 -2.0065  0.9029 -0.5153
   82CHL1  H18C 8504   3.531   4.567   7.910  0.3543 -0.4073  0.6464
   82CHL1   C12 8505   3.809   4.549   7.849  0.1177  0.2837  0.5874
   82CHL1  H12A 8506   3.791   4.653   7.886 -2.3182 -0.7680  2.7179
   82CHL1  H12B 8507   3.914   4.522   7.872  0.3494  0.5797 -0.1032
   82CHL1   C11 8508   3.794   4.548   7.694  0.0852 -0.1010 -0.4062
   82CHL1  H11A 8509   3.695   4.592   7.668  1.0340  2.3806 -0.1260
   82CHL1  H11B 8510   3.855   4.616   7.631 -0.9263 -0.8607 -2.2651
   82CHL1    C9 8511   3.807   4.406   7.627 -0.6744  0.6255 -0.1253
   82CHL1    H9 8512   3.914   4.385   7.650 -1.2281 -0.4086  1.7662
   82CHL1   C10 8513   3.784   4.394   7.473  0.2712  0.0425  0.7890
   82CHL1   C19 8514   3.644   4.447   7.431  0.8882 -0.8100  0.3194
   82CHL1  H19A 8515   3.628   4.449   7.321  0.9958 -0.6489  0.3070
   82CHL1  H19B 8516   3.561   4.390   7.478 -1.1061 -0.7358 -2.7592
   82CHL1  H19C 8517   3.628   4.548   7.472  2.1585 -0.7959  0.8384
   82CHL1    C1 8518   3.899   4.473   7.408  0.1396  0.4194 -0.0570
   82CHL1   H1A 8519   3.886   4.582   7.427 -1.2312  0.3115 -0.2371
   82CHL1   H1B 8520   3.996   4.449   7.456 -0.2842  1.0976  1.1912
   82CHL1    C2 8521   3.909   4.458   7.255  0.3206  0.3060 -0.7147
   82CHL1   H2A 8522   3.993   4.525   7.225 -0.2400  0.9179 -0.9398
   82CHL1   H2B 8523   3.818   4.509   7.217 -1.8563 -1.3920  1.8541
   82CHL1   C20 8524   3.679   4.527   8.159 -0.2283 -0.5134 -0.4446
   82CHL1   H20 8525   3.572   4.550   8.145 -0.5212 -0.3331  1.6795
   82CHL1   C21 8526   3.749   4.662   8.138 -0.0709 -0.2047 -0.1969
   82CHL1  H21A 8527   3.708   4.728   8.058  0.8775 -1.0394 -1.4021
   82CHL1  H21B 8528   3.857   4.641   8.125 -0.4012 -2.0146 -0.2816
   82CHL1  H21C 8529   3.730   4.715   8.234 -0.3937  0.5039 -0.6387
   82CHL1   C22 8530   3.674   4.485   8.312 -0.1169  0.2033 -0.2407
   82CHL1  H22A 8531   3.652   4.376   8.305 -0.0113  0.0816  1.0569
   82CHL1  H22B 8532   3.776   4.510   8.348 -0.3811  0.3705  0.4117
   82CHL1   C23 8533   3.573   4.563   8.401 -0.0991 -0.0986  0.5128
   82CHL1  H23A 8534   3.592   4.521   8.502 -1.3147 -0.9876  0.4006
   82CHL1  H23B 8535   3.598   4.671   8.410  2.2644 -0.5267 -0.2678
   82CHL1   C24 8536   3.423   4.543   8.371  0.4201  0.8962 -0.7074
   82CHL1  H24A 8537   3.397   4.560   8.264  0.3072 -0.4170 -0.9039
   82CHL1  H24B 8538   3.409   4.435   8.389 -1.1423  1.2112  0.1355
   82CHL1   C25 8539   3.333   4.622   8.464 -0.1844  0.0359 -0.2716
   82CHL1   H25 8540   3.331   4.731   8.445  1.9072  0.1022 -0.3394
   82CHL1   C26 8541   3.188   4.573   8.475  0.3746 -0.4162 -0.4410
   82CHL1  H26A 8542   3.181   4.468   8.511 -0.8939 -0.1005  0.2812
   82CHL1  H26B 8543   3.128   4.633   8.546 -1.9344  0.1998 -2.7801
   82CHL1  H26C 8544   3.133   4.586   8.380 -0.7235  0.0578  0.2427
   82CHL1   C27 8545   3.382   4.626   8.617  0.1857 -0.9158 -0.0090
   82CHL1  H27A 8546   3.304   4.681   8.674 -2.2565 -2.7756 -1.3416
   82CHL1  H27B 8547   3.396   4.522   8.652  3.4228 -0.6581 -0.2491
   82CHL1  H27C 8548   3.479   4.679   8.631  0.2185 -0.1969 -2.4951
   83CHL1    C3 8549   6.221   4.496   6.902  0.1600  0.5941  0.3822
   83CHL1    H3 8550   6.324   4.538   6.896 -0.7954  3.3626  1.5009
   83CHL1    O3 8551   6.145   4.513   6.783 -0.5272 -0.0245  0.0203
   83CHL1   H3' 8552   6.215   4.525   6.718 -1.4841 -1.3307 -1.3168
   83CHL1    C4 8553   6.213   4.346   6.929 -0.5896 -0.1300 -0.1927
   83CHL1   H4A 8554   6.104   4.323   6.926 -0.7078  0.5052 -1.7990
   83CHL1   H4B 8555   6.256   4.289   6.844 -0.6760 -0.4455 -0.0260
   83CHL1    C5 8556   6.278   4.311   7.063  0.4013  0.1826  0.3375
   83CHL1    C6 8557   6.376   4.221   7.076 -1.0594  0.5102  0.1597
   83CHL1    H6 8558   6.420   4.170   6.989  0.4389  1.1389  0.5197
   83CHL1    C7 8559   6.424   4.174   7.211 -0.0083 -0.3878  0.1279
   83CHL1   H7A 8560   6.423   4.063   7.217  0.9582 -0.4021  0.0972
   83CHL1   H7B 8561   6.532   4.199   7.217  0.0535 -0.6444  0.1079
   83CHL1    C8 8562   6.333   4.220   7.331  0.6104  0.1720 -0.0370
   83CHL1    H8 8563   6.243   4.155   7.328  1.3751 -0.9446  0.5975
   83CHL1   C14 8564   6.404   4.194   7.467  0.7062  0.9885  0.2195
   83CHL1   H14 8565   6.503   4.242   7.459  1.1625 -0.0763 -0.9144
   83CHL1   C15 8566   6.431   4.043   7.487  0.5468  0.4483  0.5605
   83CHL1  H15A 8567   6.340   3.987   7.456  1.4917 -1.8701  1.6791
   83CHL1  H15B 8568   6.519   4.007   7.429  0.8793  0.2235  1.1959
   83CHL1   C16 8569   6.452   4.041   7.639 -0.4715  0.3181 -0.8876
   83CHL1  H16A 8570   6.381   3.966   7.680 -0.8836  1.4423  0.5635
   83CHL1  H16B 8571   6.561   4.028   7.656 -1.0258 -0.7985  2.9145
   83CHL1   C17 8572   6.407   4.182   7.697  0.1135  0.6138  0.3234
   83CHL1   H17 8573   6.505   4.235   7.702  1.2752 -1.4439  0.3667
   83CHL1   C13 8574   6.330   4.246   7.584 -0.1857  0.2002  0.4939
   83CHL1   C18 8575   6.183   4.197   7.587 -0.0064  0.3406  0.8880
   83CHL1  H18A 8576   6.133   4.225   7.492 -0.2897  2.2931  1.5605
   83CHL1  H18B 8577   6.182   4.086   7.593  0.9007  0.3611  1.6979
   83CHL1  H18C 8578   6.124   4.246   7.668 -2.3543 -0.7394 -0.0763
   83CHL1   C12 8579   6.333   4.396   7.576  0.1254 -0.0147  0.2589
   83CHL1  H12A 8580   6.265   4.435   7.655  1.1794  0.8319  0.7756
   83CHL1  H12B 8581   6.441   4.421   7.575 -0.1700  1.3700 -0.1235
   83CHL1   C11 8582   6.260   4.444   7.440  1.0643  0.1329 -0.7400
   83CHL1  H11A 8583   6.151   4.438   7.462  1.5848 -1.7480  1.8252
   83CHL1  H11B 8584   6.279   4.553   7.427 -2.6662  0.8758 -1.0699
   83CHL1    C9 8585   6.306   4.373   7.308 -0.3331  0.0353  0.1112
   83CHL1    H9 8586   6.409   4.410   7.286  0.2489 -2.2499 -1.3734
   83CHL1   C10 8587   6.217   4.389   7.182  0.0486 -0.1351 -0.1259
   83CHL1   C19 8588   6.071   4.346   7.214  0.6491 -0.1519 -0.0182
   83CHL1  H19A 8589   6.003   4.337   7.127 -1.6211 -1.4012  1.7819
   83CHL1  H19B 8590   6.076   4.245   7.258 -2.7583 -1.0727 -1.4013
   83CHL1  H19C 8591   6.023   4.422   7.280  0.0968 -0.3012 -0.2453
   83CHL1    C1 8592   6.213   4.546   7.151 -0.2707  0.8511  0.0022
   83CHL1   H1A 8593   6.150   4.595   7.229 -0.1639 -0.9068  1.2358
   83CHL1   H1B 8594   6.317   4.577   7.172  0.2273 -0.4980 -0.3984
   83CHL1    C2 8595   6.156   4.580   7.012 -0.0830  0.4499 -0.4986
   83CHL1   H2A 8596   6.162   4.689   6.990  0.7607  0.5967  0.3660
   83CHL1   H2B 8597   6.051   4.544   7.020 -0.4682  1.1060 -2.1666
   83CHL1   C20 8598   6.338   4.169   7.832  0.0533 -0.0715 -0.6452
   83CHL1   H20 8599   6.245   4.109   7.833 -0.6615  0.9628  1.9985
   83CHL1   C21 8600   6.295   4.311   7.890 -0.3700  0.2693  0.5879
   83CHL1  H21A 8601   6.221   4.366   7.828 -0.4508 -0.3149  0.1530
   83CHL1  H21B 8602   6.383   4.378   7.891 -0.6429  0.6318  0.6527
   83CHL1  H21C 8603   6.255   4.304   7.994 -0.1929 -0.6388  0.6020
   83CHL1   C22 8604   6.430   4.085   7.927 -0.4580  0.4366 -0.8581
   83CHL1  H22A 8605   6.480   3.999   7.878 -2.7595 -0.9363 -0.9539
   83CHL1  H22B 8606   6.511   4.149   7.968  0.5798 -0.5830 -1.2768
   83CHL1   C23 8607   6.359   4.027   8.055  0.2045 -0.1971 -0.1830
   83CHL1  H23A 8608   6.319   4.118   8.104 -0.3778 -0.3592 -0.3540
   83CHL1  H23B 8609   6.268   3.975   8.019 -0.1189  0.5879 -0.5180
   83CHL1   C24 8610   6.443   3.954   8.162  0.5644  0.8995 -0.3885
   83CHL1  H24A 8611   6.523   4.023   8.197  1.3295  0.4709 -1.2365
   83CHL1  H24B 8612   6.371   3.927   8.242  1.5732 -1.4623 -0.1953
   83CHL1   C25 8613   6.515   3.824   8.113 -0.1891  0.3718 -0.5311
   83CHL1   H25 8614   6.576   3.850   8.024  0.9906  0.4776  0.2837
   83CHL1   C26 8615   6.610   3.774   8.218  0.7001  0.6760  0.1797
   83CHL1  H26A 8616   6.649   3.673   8.194  1.3580  1.1036 -0.6180
   83CHL1  H26B 8617   6.694   3.842   8.245  2.9133 -1.2689 -1.4390
   83CHL1  H26C 8618   6.555   3.759   8.313  2.0783 -0.8548  0.7771
   83CHL1   C27 8619   6.410   3.718   8.071  0.7483  0.3167 -0.5833
   83CHL1  H27A 8620   6.326   3.698   8.141  0.5474 -0.3299 -1.0135
   83CHL1  H27B 8621   6.382   3.741   7.966 -1.7312  0.6652  0.0937
   83CHL1  H27C 8622   6.466   3.622   8.068 -0.9662 -0.8235  1.3529
   84CHL1    C3 8623   2.285   1.204   6.950  0.6484 -0.1092  1.3885
   84CHL1    H3 8624   2.253   1.112   7.004 -0.2705  0.1207  1.2586
   84CHL1    O3 8625   2.210   1.206   6.829 -0.0060 -0.0940 -0.9959
   84CHL1   H3' 8626   2.207   1.294   6.790 -0.1870 -0.1818 -1.1786
   84CHL1    C4 8627   2.219   1.316   7.035  0.3675 -0.5391  0.2141
   84CHL1   H4A 8628   2.194   1.415   6.991  1.0615 -0.3702  0.1913
   84CHL1   H4B 8629   2.126   1.264   7.066 -0.2063 -0.2918 -1.0431
   84CHL1    C5 8630   2.299   1.327   7.163 -0.2321  0.6555 -0.7088
   84CHL1    C6 8631   2.244   1.306   7.282 -0.0888 -0.3005 -0.2722
   84CHL1    H6 8632   2.135   1.287   7.281 -0.3750  0.9716 -3.2008
   84CHL1    C7 8633   2.320   1.328   7.410 -0.1377  0.2811 -0.3964
   84CHL1   H7A 8634   2.256   1.384   7.482  1.5295  1.2515  0.4093
   84CHL1   H7B 8635   2.338   1.231   7.460 -0.7273  0.4603  0.1804
   84CHL1    C8 8636   2.447   1.417   7.398 -0.9776  0.4704 -0.3635
   84CHL1    H8 8637   2.409   1.520   7.383 -1.2651  0.5099  0.5577
   84CHL1   C14 8638   2.533   1.417   7.523 -0.3680 -0.1863 -0.4463
   84CHL1   H14 8639   2.581   1.318   7.539  1.5147  0.8853  0.9773
   84CHL1   C15 8640   2.459   1.440   7.659 -0.3254  0.4973  0.1554
   84CHL1  H15A 8641   2.377   1.515   7.651 -0.3313  0.5243  0.4613
   84CHL1  H15B 8642   2.406   1.351   7.698 -3.4067  2.6464  1.3001
   84CHL1   C16 8643   2.566   1.499   7.754  0.1219 -0.7596  0.2472
   84CHL1  H16A 8644   2.534   1.584   7.817  0.4845 -1.0966  0.8956
   84CHL1  H16B 8645   2.594   1.417   7.824  0.5443  0.1704  1.1991
   84CHL1   C17 8646   2.693   1.517   7.662  0.3456  0.1099 -0.4722
   84CHL1   H17 8647   2.748   1.421   7.665 -1.4473 -0.9340  1.6080
   84CHL1   C13 8648   2.645   1.518   7.519  0.6446  0.7056  0.2829
   84CHL1   C18 8649   2.595   1.664   7.487 -0.1719  0.3621  0.0166
   84CHL1  H18A 8650   2.678   1.737   7.493 -1.1962  1.4944  0.7541
   84CHL1  H18B 8651   2.547   1.678   7.388  0.2473 -1.2344 -0.4503
   84CHL1  H18C 8652   2.517   1.679   7.564  2.0141 -1.1295  2.7111
   84CHL1   C12 8653   2.737   1.475   7.406 -0.2077 -0.0022  0.3758
   84CHL1  H12A 8654   2.806   1.559   7.383  0.9063 -0.9870 -0.0182
   84CHL1  H12B 8655   2.785   1.384   7.448 -2.2388 -0.7682  1.1427
   84CHL1   C11 8656   2.671   1.437   7.269  0.2690  0.2553 -0.8121
   84CHL1  H11A 8657   2.653   1.536   7.221 -1.1003  0.0241 -0.8184
   84CHL1  H11B 8658   2.725   1.379   7.191 -0.4786 -1.2247 -0.2634
   84CHL1    C9 8659   2.532   1.361   7.289 -0.9298 -0.2377  1.2083
   84CHL1    H9 8660   2.562   1.260   7.324 -0.5337 -0.7385 -0.4540
   84CHL1   C10 8661   2.452   1.358   7.152  0.0296 -0.4025 -0.0489
   84CHL1   C19 8662   2.447   1.505   7.086 -0.0542  0.3155  0.2471
   84CHL1  H19A 8663   2.404   1.566   7.168  1.5665  0.7911  0.7794
   84CHL1  H19B 8664   2.550   1.540   7.063 -0.0094 -0.0593 -0.1365
   84CHL1  H19C 8665   2.390   1.528   6.994 -0.0668 -1.1905 -0.1424
   84CHL1    C1 8666   2.506   1.258   7.058  0.3541  0.7371 -0.4641
   84CHL1   H1A 8667   2.609   1.281   7.023  0.6958  0.3088  0.2436
   84CHL1   H1B 8668   2.531   1.160   7.102 -3.1106 -1.1931 -2.3698
   84CHL1    C2 8669   2.427   1.232   6.925 -0.7957 -0.0649 -0.4979
   84CHL1   H2A 8670   2.480   1.152   6.869  1.7210  2.2592 -1.6479
   84CHL1   H2B 8671   2.427   1.326   6.867 -1.4193  1.1038  1.2847
   84CHL1   C20 8672   2.798   1.625   7.713  0.1301  0.1192  0.1186
   84CHL1   H20 8673   2.759   1.727   7.693 -0.4356 -0.3114 -1.1080
   84CHL1   C21 8674   2.929   1.612   7.634  0.3652  0.1593 -0.0487
   84CHL1  H21A 8675   2.961   1.710   7.594 -1.5474  0.6695 -0.4156
   84CHL1  H21B 8676   2.928   1.533   7.556 -0.3418 -0.0001  0.1109
   84CHL1  H21C 8677   3.012   1.583   7.702 -0.3190  0.3478  0.8967
   84CHL1   C22 8678   2.827   1.614   7.859  0.1960  0.5409 -0.2363
   84CHL1  H22A 8679   2.729   1.622   7.911  0.2571  1.4951 -0.2580
   84CHL1  H22B 8680   2.867   1.513   7.883  1.1104  0.8471 -0.4307
   84CHL1   C23 8681   2.922   1.721   7.924 -0.4338  0.4805 -0.0341
   84CHL1  H23A 8682   3.022   1.715   7.877 -0.2662  2.0156  0.0507
   84CHL1  H23B 8683   2.881   1.822   7.902  0.3002  0.8918  0.4317
   84CHL1   C24 8684   2.940   1.695   8.069  1.0053  0.5316  0.2769
   84CHL1  H24A 8685   2.848   1.660   8.120  1.3999 -0.6654  0.2035
   84CHL1  H24B 8686   3.013   1.612   8.082 -0.3251 -0.7006  0.1675
   84CHL1   C25 8687   2.990   1.814   8.156  0.2184 -0.4980 -0.4110
   84CHL1   H25 8688   2.915   1.896   8.149 -0.2693 -0.8451  0.5249
   84CHL1   C26 8689   2.968   1.780   8.313 -0.5397  0.4685  0.5167
   84CHL1  H26A 8690   3.016   1.857   8.378 -0.0045  0.1310  0.5280
   84CHL1  H26B 8691   2.860   1.767   8.333 -0.3922  1.2363  1.9703
   84CHL1  H26C 8692   3.031   1.694   8.346  0.5181  1.9869  2.7522
   84CHL1   C27 8693   3.137   1.856   8.130 -0.6256 -0.0317  0.7031
   84CHL1  H27A 8694   3.207   1.771   8.115 -0.0584  0.9400 -3.5029
   84CHL1  H27B 8695   3.138   1.903   8.029  0.2334  1.5678  1.4151
   84CHL1  H27C 8696   3.180   1.926   8.204 -0.3931 -1.6345  2.1357
   85CHL1    C3 8697   2.405   5.048   6.606  0.2867 -0.3837 -0.0014
   85CHL1    H3 8698   2.496   4.985   6.600 -0.2308 -1.0562 -1.3135
   85CHL1    O3 8699   2.355   5.072   6.477  0.2779  0.4631 -0.1561
   85CHL1   H3' 8700   2.278   5.121   6.509  0.5959  0.5326  0.5252
   85CHL1    C4 8701   2.293   4.985   6.691  0.2151  0.3238  0.0645
   85CHL1   H4A 8702   2.200   5.038   6.660 -0.4554 -1.4884 -1.2146
   85CHL1   H4B 8703   2.281   4.885   6.645  0.8018  0.5588 -0.6093
   85CHL1    C5 8704   2.312   4.979   6.842 -0.2791 -0.1866 -1.0830
   85CHL1    C6 8705   2.302   4.859   6.906  1.1456 -0.1237 -0.3362
   85CHL1    H6 8706   2.282   4.767   6.849  0.0359 -1.4737  2.0479
   85CHL1    C7 8707   2.302   4.855   7.056 -0.7585  0.3145 -0.3887
   85CHL1   H7A 8708   2.215   4.801   7.098  0.0563 -0.0428  0.9038
   85CHL1   H7B 8709   2.393   4.802   7.093 -0.6774  0.3197 -0.5786
   85CHL1    C8 8710   2.292   4.998   7.124  0.1860  0.6831 -0.2214
   85CHL1    H8 8711   2.183   5.020   7.127 -0.3025 -1.5346  2.0129
   85CHL1   C14 8712   2.344   4.984   7.265 -0.2924  0.3190 -0.5018
   85CHL1   H14 8713   2.453   4.961   7.254 -0.0564 -0.6918  2.7141
   85CHL1   C15 8714   2.287   4.873   7.353 -0.1407  0.1970 -0.0230
   85CHL1  H15A 8715   2.177   4.867   7.342 -0.2499  1.2252  0.4174
   85CHL1  H15B 8716   2.333   4.774   7.333 -0.9791 -0.5312  1.4917
   85CHL1   C16 8717   2.324   4.915   7.497  0.5579  0.0537 -0.7516
   85CHL1  H16A 8718   2.232   4.908   7.559  0.5952 -0.5620 -0.7607
   85CHL1  H16B 8719   2.400   4.843   7.534 -0.3903 -0.9285 -0.6577
   85CHL1   C17 8720   2.383   5.062   7.490  0.1351 -0.4075  0.4592
   85CHL1   H17 8721   2.494   5.064   7.480 -0.0086 -0.6086 -1.5603
   85CHL1   C13 8722   2.335   5.117   7.353  0.1424 -0.5975 -0.4262
   85CHL1   C18 8723   2.186   5.169   7.361  0.6819  0.9294 -0.5347
   85CHL1  H18A 8724   2.129   5.088   7.411 -0.9999  0.9270 -2.3239
   85CHL1  H18B 8725   2.174   5.266   7.414 -2.5643  0.8469 -0.8805
   85CHL1  H18C 8726   2.127   5.170   7.266  0.7143  0.4749 -0.5653
   85CHL1   C12 8727   2.423   5.218   7.280 -0.7122 -0.9159  0.4965
   85CHL1  H12A 8728   2.433   5.317   7.329 -1.7147 -0.7714  0.4387
   85CHL1  H12B 8729   2.529   5.187   7.274 -0.0625  0.8343  1.9823
   85CHL1   C11 8730   2.382   5.243   7.133 -0.6296 -0.5499 -0.6131
   85CHL1  H11A 8731   2.286   5.297   7.119  0.0561  0.4083 -1.8822
   85CHL1  H11B 8732   2.457   5.311   7.087 -1.5913  1.1040  0.1733
   85CHL1    C9 8733   2.375   5.108   7.054 -0.2859 -0.9238 -0.3008
   85CHL1    H9 8734   2.479   5.068   7.054  0.4797  0.9308  0.9373
   85CHL1   C10 8735   2.336   5.123   6.903  0.3441  0.1883  0.3002
   85CHL1   C19 8736   2.203   5.203   6.890 -0.2694 -0.0433  0.4613
   85CHL1  H19A 8737   2.172   5.201   6.783 -2.1143  1.5646  0.8803
   85CHL1  H19B 8738   2.117   5.154   6.941 -0.4402  0.5234  0.7303
   85CHL1  H19C 8739   2.198   5.305   6.934 -1.0036 -0.6996  1.9879
   85CHL1    C1 8740   2.455   5.185   6.820  0.1010 -0.5035 -0.7606
   85CHL1   H1A 8741   2.477   5.287   6.859 -2.2796 -0.0692 -0.4473
   85CHL1   H1B 8742   2.548   5.126   6.838 -0.0176 -0.8815 -1.3768
   85CHL1    C2 8743   2.446   5.188   6.669  1.0242  0.3648 -0.5349
   85CHL1   H2A 8744   2.547   5.211   6.630  0.7463  0.1041 -1.4335
   85CHL1   H2B 8745   2.367   5.261   6.640 -0.9067 -1.6395 -0.6459
   85CHL1   C20 8746   2.348   5.140   7.612  0.0325 -0.4420  0.0473
   85CHL1   H20 8747   2.239   5.162   7.619 -0.5273 -3.2707  1.7760
   85CHL1   C21 8748   2.428   5.275   7.610 -0.7394 -0.9171 -0.0755
   85CHL1  H21A 8749   2.418   5.343   7.698 -1.0126  2.2479 -2.3532
   85CHL1  H21B 8750   2.408   5.339   7.521 -1.0736  0.0656  0.6842
   85CHL1  H21C 8751   2.538   5.257   7.601 -0.1234  0.0803  3.7022
   85CHL1   C22 8752   2.383   5.065   7.741 -0.3852  0.5010 -0.3047
   85CHL1  H22A 8753   2.382   4.954   7.732 -1.0363  0.5969 -1.8937
   85CHL1  H22B 8754   2.488   5.085   7.769 -0.8139  1.2406  0.8432
   85CHL1   C23 8755   2.290   5.106   7.853  0.1874  0.3104  0.2457
   85CHL1  H23A 8756   2.329   5.079   7.954  2.0969  1.1506 -0.2328
   85CHL1  H23B 8757   2.280   5.216   7.857  0.3240  0.2902  1.4154
   85CHL1   C24 8758   2.146   5.049   7.830  0.2109  0.5444 -0.1663
   85CHL1  H24A 8759   2.099   5.106   7.747 -2.6272  1.1423  1.6824
   85CHL1  H24B 8760   2.148   4.944   7.794 -0.2528  0.9070 -1.2752
   85CHL1   C25 8761   2.049   5.037   7.951 -0.2156  0.3882  0.1999
   85CHL1   H25 8762   2.084   4.953   8.014  2.1034 -0.0237 -1.4817
   85CHL1   C26 8763   2.040   5.165   8.031  0.4638 -0.0358  0.8690
   85CHL1  H26A 8764   2.017   5.254   7.968 -1.2863 -1.6644 -0.9319
   85CHL1  H26B 8765   1.952   5.146   8.095 -0.1069  0.6328  0.3123
   85CHL1  H26C 8766   2.122   5.187   8.102 -0.5628  3.3866  1.2034
   85CHL1   C27 8767   1.911   4.988   7.909  0.9715 -0.1412  0.1520
   85CHL1  H27A 8768   1.910   4.880   7.882 -1.0354  0.4174 -2.3850
   85CHL1  H27B 8769   1.839   5.007   7.992  0.2830  0.3316 -0.5417
   85CHL1  H27C 8770   1.871   5.047   7.824 -2.0616 -2.8947 -0.5497
   86CHL1    C3 8771   4.511   2.118   6.877 -0.3634  0.1928  1.0922
   86CHL1    H3 8772   4.610   2.096   6.924  0.3590  0.8329 -0.1047
   86CHL1    O3 8773   4.530   2.132   6.740 -0.4542  0.3284  0.2525
   86CHL1   H3' 8774   4.532   2.045   6.701 -1.6462  1.8253 -3.6409
   86CHL1    C4 8775   4.412   2.002   6.905 -1.1015 -1.1476 -0.4905
   86CHL1   H4A 8776   4.320   2.029   6.850 -0.6604 -0.2406 -0.8035
   86CHL1   H4B 8777   4.460   1.910   6.864  1.6814 -0.8072  1.6695
   86CHL1    C5 8778   4.382   1.981   7.051 -0.0634 -0.2352 -1.1372
   86CHL1    C6 8779   4.416   1.866   7.112  0.2996 -0.0080 -0.3517
   86CHL1    H6 8780   4.472   1.788   7.058 -0.7551 -0.3953 -0.9220
   86CHL1    C7 8781   4.385   1.836   7.256  0.1883 -0.4587 -0.6001
   86CHL1   H7A 8782   4.325   1.743   7.263 -1.1290  0.5053  3.3812
   86CHL1   H7B 8783   4.469   1.839   7.328  0.7815  2.1347 -1.2912
   86CHL1    C8 8784   4.291   1.948   7.323 -0.3959 -0.3881 -0.9512
   86CHL1    H8 8785   4.186   1.929   7.291 -0.0769 -4.8441 -0.1053
   86CHL1   C14 8786   4.312   1.934   7.470 -0.9141  0.7065  0.3981
   86CHL1   H14 8787   4.421   1.949   7.484  0.3354 -4.0364 -2.1363
   86CHL1   C15 8788   4.269   1.797   7.527 -0.7380  0.2056 -0.1870
   86CHL1  H15A 8789   4.161   1.786   7.501 -0.4493 -1.4816 -0.7815
   86CHL1  H15B 8790   4.328   1.712   7.487  1.0150  0.9790  0.6724
   86CHL1   C16 8791   4.279   1.827   7.676 -0.7418 -0.0110  0.2226
   86CHL1  H16A 8792   4.197   1.777   7.732 -1.3520  2.8624  2.1267
   86CHL1  H16B 8793   4.378   1.791   7.711 -1.8109 -2.6826  0.7736
   86CHL1   C17 8794   4.275   1.983   7.695 -0.3848  0.3406 -0.0532
   86CHL1   H17 8795   4.374   2.017   7.731 -1.2950  1.0812  1.8685
   86CHL1   C13 8796   4.239   2.038   7.563 -0.2434 -0.6223 -0.6650
   86CHL1   C18 8797   4.090   2.033   7.536 -0.3412 -0.7736  0.8082
   86CHL1  H18A 8798   4.046   2.135   7.537  2.1349  0.3755  0.8222
   86CHL1  H18B 8799   4.065   2.002   7.432 -2.5348  1.1592  0.6720
   86CHL1  H18C 8800   4.034   1.963   7.602  0.5957 -3.8409 -1.4002
   86CHL1   C12 8801   4.296   2.179   7.516  0.3639  0.1427 -0.5591
   86CHL1  H12A 8802   4.250   2.250   7.588  3.8164  0.2547  1.7637
   86CHL1  H12B 8803   4.402   2.178   7.549 -0.0136  1.8342  0.8776
   86CHL1   C11 8804   4.276   2.207   7.370 -1.2723  0.5520  1.0786
   86CHL1  H11A 8805   4.168   2.220   7.348 -1.2261 -0.5037  0.1356
   86CHL1  H11B 8806   4.335   2.298   7.344  0.5027 -0.8440 -0.0081
   86CHL1    C9 8807   4.338   2.092   7.281  0.4500 -0.1643 -0.9319
   86CHL1    H9 8808   4.447   2.088   7.306  0.0271  0.1762  1.1472
   86CHL1   C10 8809   4.324   2.113   7.127 -0.9987  0.6050  0.5260
   86CHL1   C19 8810   4.180   2.148   7.088  0.4688 -0.2338  0.1871
   86CHL1  H19A 8811   4.179   2.189   6.985 -2.0243  0.1581  0.3018
   86CHL1  H19B 8812   4.107   2.064   7.093  0.5067 -0.2093  1.3520
   86CHL1  H19C 8813   4.131   2.228   7.149 -1.2055 -0.8791 -0.2495
   86CHL1    C1 8814   4.417   2.231   7.078  0.4219  0.3130  0.2344
   86CHL1   H1A 8815   4.371   2.320   7.128  1.2317  2.4325 -2.5470
   86CHL1   H1B 8816   4.513   2.228   7.134  1.2323 -0.0951 -1.1442
   86CHL1    C2 8817   4.450   2.245   6.924 -1.0653  0.0102  0.7283
   86CHL1   H2A 8818   4.525   2.328   6.924 -3.3075  2.1690  0.3633
   86CHL1   H2B 8819   4.360   2.267   6.864  1.1147  1.7344 -2.1866
   86CHL1   C20 8820   4.188   2.012   7.823  0.2291  0.5094 -0.3481
   86CHL1   H20 8821   4.083   1.983   7.801 -0.4107  0.5004  2.3413
   86CHL1   C21 8822   4.168   2.163   7.854  0.7283 -0.8191 -0.5229
   86CHL1  H21A 8823   4.084   2.165   7.926 -0.2007  1.3706 -1.5718
   86CHL1  H21B 8824   4.147   2.213   7.757  1.6270 -1.4139 -1.0431
   86CHL1  H21C 8825   4.257   2.204   7.906  0.4090 -0.2407 -0.4288
   86CHL1   C22 8826   4.227   1.924   7.950  0.2381 -0.0205 -0.5769
   86CHL1  H22A 8827   4.215   1.815   7.930  0.9459 -1.0425  3.5858
   86CHL1  H22B 8828   4.334   1.951   7.955 -0.2570  1.9151  0.4919
   86CHL1   C23 8829   4.139   1.950   8.078 -0.1296  0.1867 -0.1915
   86CHL1  H23A 8830   4.164   2.046   8.127  1.4614  0.2724 -1.0978
   86CHL1  H23B 8831   4.030   1.949   8.053 -0.4226 -1.7327  0.9030
   86CHL1   C24 8832   4.176   1.842   8.183 -0.6266 -0.5404  0.5868
   86CHL1  H24A 8833   4.143   1.743   8.145  0.0857 -0.5829  0.0644
   86CHL1  H24B 8834   4.286   1.829   8.189 -0.2583  0.9634 -1.7471
   86CHL1   C25 8835   4.138   1.881   8.330 -0.4373  0.0828  0.4672
   86CHL1   H25 8836   4.179   1.982   8.347 -1.2952  0.5963 -0.4227
   86CHL1   C26 8837   3.990   1.883   8.349  0.1693  0.1165  0.4369
   86CHL1  H26A 8838   3.952   1.784   8.319  0.4746 -0.5979  2.2893
   86CHL1  H26B 8839   3.966   1.885   8.458 -4.3463 -0.7802 -0.3116
   86CHL1  H26C 8840   3.939   1.968   8.298  1.6814 -0.6051 -2.4825
   86CHL1   C27 8841   4.196   1.781   8.434 -0.3925  0.2951 -0.4090
   86CHL1  H27A 8842   4.307   1.774   8.425 -0.1367  2.1732  0.7296
   86CHL1  H27B 8843   4.165   1.806   8.538 -1.7880 -2.7575  0.0327
   86CHL1  H27C 8844   4.167   1.678   8.404  0.6807  0.0771 -0.7263
   87CHL1    C3 8845   5.594   6.495   6.929 -0.5670 -0.3455 -0.6932
   87CHL1    H3 8846   5.486   6.522   6.935 -0.8035 -1.4381  0.3661
   87CHL1    O3 8847   5.618   6.468   6.791 -0.1056  0.2082 -0.2839
   87CHL1   H3' 8848   5.694   6.410   6.795 -0.3373 -0.0760  0.0199
   87CHL1    C4 8849   5.676   6.614   6.977  0.0880 -0.1494  0.0582
   87CHL1   H4A 8850   5.777   6.572   6.964 -0.7454 -2.8342  1.4062
   87CHL1   H4B 8851   5.664   6.697   6.905 -2.0842 -1.3726 -1.1091
   87CHL1    C5 8852   5.654   6.642   7.120 -0.4370 -0.1117 -0.6026
   87CHL1    C6 8853   5.613   6.766   7.165  0.1935  0.5944 -0.9544
   87CHL1    H6 8854   5.598   6.846   7.091 -2.9137  1.2065  0.1781
   87CHL1    C7 8855   5.590   6.795   7.312  0.0216 -0.4145 -0.0914
   87CHL1   H7A 8856   5.610   6.900   7.343 -0.7187 -0.1133 -0.6010
   87CHL1   H7B 8857   5.483   6.775   7.332  0.1642 -1.5732 -0.4392
   87CHL1    C8 8858   5.666   6.695   7.400 -0.5737  0.0175 -0.7619
   87CHL1    H8 8859   5.775   6.717   7.397 -0.5968  1.3413  3.0816
   87CHL1   C14 8860   5.627   6.712   7.546  0.4957 -0.3933 -0.1533
   87CHL1   H14 8861   5.517   6.696   7.550  0.3518 -0.8766 -3.2881
   87CHL1   C15 8862   5.641   6.855   7.612 -0.8409 -0.1914  0.4871
   87CHL1  H15A 8863   5.747   6.885   7.601 -0.9410 -0.7681 -3.2368
   87CHL1  H15B 8864   5.578   6.928   7.557  0.1151  0.5040  0.2896
   87CHL1   C16 8865   5.604   6.828   7.756  0.2055  0.6782  0.3310
   87CHL1  H16A 8866   5.667   6.882   7.830  2.3698  1.2564 -1.7958
   87CHL1  H16B 8867   5.501   6.867   7.772 -1.0017 -1.4849 -1.6128
   87CHL1   C17 8868   5.617   6.675   7.784  0.2271 -0.1843  0.7546
   87CHL1   H17 8869   5.511   6.642   7.792 -0.4304  1.1307 -1.4834
   87CHL1   C13 8870   5.681   6.614   7.656  0.1921  0.4469 -0.2209
   87CHL1   C18 8871   5.836   6.616   7.666 -0.3397 -0.0749  0.2524
   87CHL1  H18A 8872   5.873   6.705   7.722 -0.3886  0.7326 -0.9558
   87CHL1  H18B 8873   5.883   6.525   7.709 -2.2975 -1.3774 -0.2536
   87CHL1  H18C 8874   5.876   6.622   7.562 -3.3712  0.7199 -0.9825
   87CHL1   C12 8875   5.636   6.473   7.602 -0.1815  0.6876  0.0253
   87CHL1  H12A 8876   5.682   6.394   7.666  0.0783  1.2737  0.5762
   87CHL1  H12B 8877   5.526   6.468   7.588  0.0979 -2.3730 -2.0983
   87CHL1   C11 8878   5.676   6.447   7.463 -0.9122  0.0048  0.6418
   87CHL1  H11A 8879   5.786   6.434   7.451 -0.7646  0.4105  1.4947
   87CHL1  H11B 8880   5.635   6.346   7.438 -0.0887 -0.7250  2.0979
   87CHL1    C9 8881   5.636   6.550   7.359 -0.1803  0.5310  0.1588
   87CHL1    H9 8882   5.525   6.551   7.366 -0.3473 -1.0534 -1.5374
   87CHL1   C10 8883   5.682   6.523   7.218 -0.1563 -0.1425  0.5398
   87CHL1   C19 8884   5.838   6.485   7.217  0.0448  0.0037 -0.3733
   87CHL1  H19A 8885   5.888   6.554   7.288  1.3721 -3.4606  2.3530
   87CHL1  H19B 8886   5.854   6.381   7.252  0.8786 -0.3850 -1.8196
   87CHL1  H19C 8887   5.880   6.480   7.114 -0.6072 -3.6248 -0.5920
   87CHL1    C1 8888   5.592   6.410   7.163 -0.2760  0.3054 -0.7816
   87CHL1   H1A 8889   5.591   6.319   7.226  0.0886  0.4574 -0.5586
   87CHL1   H1B 8890   5.487   6.445   7.174 -0.4864 -0.9896  2.3441
   87CHL1    C2 8891   5.617   6.371   7.018  0.1109 -0.5502  0.1805
   87CHL1   H2A 8892   5.550   6.292   6.978  1.2505 -2.1443  1.2792
   87CHL1   H2B 8893   5.715   6.319   7.009 -0.0671 -1.5797  3.2171
   87CHL1   C20 8894   5.665   6.638   7.920  0.0798 -0.1687 -0.0506
   87CHL1   H20 8895   5.771   6.667   7.935 -0.6172  3.0435 -0.5881
   87CHL1   C21 8896   5.644   6.489   7.933 -0.2374 -0.2863 -0.4674
   87CHL1  H21A 8897   5.703   6.425   7.864  0.3167  0.3968 -0.6329
   87CHL1  H21B 8898   5.536   6.465   7.919 -0.4937  0.9643 -0.7361
   87CHL1  H21C 8899   5.679   6.450   8.031 -0.9553 -1.8852 -0.8069
   87CHL1   C22 8900   5.586   6.716   8.029  0.4010 -0.3494  0.5151
   87CHL1  H22A 8901   5.603   6.826   8.025 -2.0329  0.0689  0.4193
   87CHL1  H22B 8902   5.478   6.690   8.024  0.4856 -0.8034  0.9465
   87CHL1   C23 8903   5.615   6.681   8.176  0.5692  0.4646  0.7620
   87CHL1  H23A 8904   5.581   6.580   8.207 -1.5410  0.9889  0.3224
   87CHL1  H23B 8905   5.722   6.700   8.200  0.4008  1.3483  0.8778
   87CHL1   C24 8906   5.524   6.770   8.266 -0.1712 -0.3148  0.4427
   87CHL1  H24A 8907   5.563   6.873   8.272  1.3937 -0.9706  2.5277
   87CHL1  H24B 8908   5.421   6.778   8.223 -0.5502  0.1814  1.4117
   87CHL1   C25 8909   5.522   6.730   8.416  0.2796 -0.4617 -0.1251
   87CHL1   H25 8910   5.490   6.625   8.428 -1.5642 -0.0131 -0.6965
   87CHL1   C26 8911   5.658   6.770   8.471  0.4492  0.1099 -0.1560
   87CHL1  H26A 8912   5.734   6.704   8.423  1.0553  0.7590 -0.1069
   87CHL1  H26B 8913   5.691   6.872   8.441 -0.2929  1.1454  2.3220
   87CHL1  H26C 8914   5.665   6.755   8.580  0.5711 -0.9203 -0.2945
   87CHL1   C27 8915   5.407   6.807   8.490 -0.2529 -0.1174  0.4347
   87CHL1  H27A 8916   5.419   6.791   8.599  2.4407  0.1306  0.2379
   87CHL1  H27B 8917   5.415   6.916   8.472  0.1410 -0.1740  0.2591
   87CHL1  H27C 8918   5.309   6.773   8.452 -0.1948  0.4080 -0.2069
   88CHL1    C3 8919   0.896   5.836   6.772  0.1642  0.5518 -0.2558
   88CHL1    H3 8920   0.953   5.928   6.800  0.8645  0.3048 -0.8476
   88CHL1    O3 8921   0.914   5.813   6.633  0.4879 -0.2521 -0.0780
   88CHL1   H3' 8922   1.000   5.772   6.628  1.1337  1.0665 -0.1740
   88CHL1    C4 8923   0.951   5.709   6.839  0.7920 -0.1998  0.3103
   88CHL1   H4A 8924   0.900   5.618   6.801  1.9494 -0.5159 -0.5301
   88CHL1   H4B 8925   1.057   5.709   6.808  0.4049 -0.3414 -1.0590
   88CHL1    C5 8926   0.933   5.703   6.996 -0.2944 -0.0302  0.0084
   88CHL1    C6 8927   1.039   5.679   7.071  0.4100 -0.2951 -0.4984
   88CHL1    H6 8928   1.135   5.647   7.027  1.9558 -0.3792  2.6079
   88CHL1    C7 8929   1.040   5.697   7.219 -0.4210  0.1058  0.7453
   88CHL1   H7A 8930   1.110   5.615   7.247 -0.1438 -0.8070 -2.2397
   88CHL1   H7B 8931   1.097   5.790   7.240 -1.5847  1.6751 -2.5079
   88CHL1    C8 8932   0.899   5.695   7.279 -0.0128 -0.2805  0.3957
   88CHL1    H8 8933   0.853   5.594   7.273 -1.2267  0.2553  0.3895
   88CHL1   C14 8934   0.901   5.736   7.424  0.0667  0.3416  0.1632
   88CHL1   H14 8935   0.945   5.838   7.418  1.1927 -0.1616 -0.7605
   88CHL1   C15 8936   0.989   5.656   7.514 -0.5701  0.2434  0.0445
   88CHL1  H15A 8937   0.978   5.548   7.487 -1.2333  0.4308 -0.4592
   88CHL1  H15B 8938   1.096   5.687   7.519 -1.4954  3.7271  0.6374
   88CHL1   C16 8939   0.931   5.674   7.653  0.5215  0.3572  0.0081
   88CHL1  H16A 8940   0.910   5.575   7.697  2.1910 -0.4049 -0.8263
   88CHL1  H16B 8941   1.006   5.725   7.718 -1.4936  1.9445  1.2246
   88CHL1   C17 8942   0.812   5.768   7.629  0.0720 -0.0618 -0.0320
   88CHL1   H17 8943   0.855   5.870   7.639 -0.6920  0.1430  1.6137
   88CHL1   C13 8944   0.764   5.738   7.486 -0.5503  0.0795 -0.4999
   88CHL1   C18 8945   0.685   5.595   7.484 -0.0056 -0.4578 -0.3646
   88CHL1  H18A 8946   0.745   5.509   7.520  0.0803  0.3568  1.5509
   88CHL1  H18B 8947   0.591   5.586   7.542  1.1364 -1.6166  1.4212
   88CHL1  H18C 8948   0.670   5.568   7.377  2.4130  2.4946 -1.6170
   88CHL1   C12 8949   0.691   5.856   7.414  0.4039 -0.4562  0.0420
   88CHL1  H12A 8950   0.586   5.868   7.448  0.0568 -1.3461 -0.6576
   88CHL1  H12B 8951   0.744   5.949   7.442 -2.0755  1.3487 -0.8489
   88CHL1   C11 8952   0.676   5.826   7.263 -0.5481 -0.2861 -0.2210
   88CHL1  H11A 8953   0.604   5.742   7.252  1.3009 -2.0509  0.4422
   88CHL1  H11B 8954   0.637   5.914   7.207  1.0821  0.0991 -0.7964
   88CHL1    C9 8955   0.808   5.789   7.195  0.0986 -0.1786  0.1375
   88CHL1    H9 8956   0.853   5.890   7.186 -1.9355  0.7817  0.3131
   88CHL1   C10 8957   0.797   5.743   7.050 -0.1382  0.0312  0.6766
   88CHL1   C19 8958   0.690   5.632   7.043 -0.2966 -0.0972  0.1645
   88CHL1  H19A 8959   0.698   5.573   6.949  0.2961  2.8680 -1.7694
   88CHL1  H19B 8960   0.694   5.566   7.133  0.0235  1.5069  1.3724
   88CHL1  H19C 8961   0.585   5.669   7.048 -2.2067 -4.1226 -3.2397
   88CHL1    C1 8962   0.739   5.865   6.962  0.7323 -0.6743 -0.5340
   88CHL1   H1A 8963   0.633   5.870   6.996  0.9614 -0.6930  0.2009
   88CHL1   H1B 8964   0.785   5.962   6.989 -0.4735 -0.7020  1.8848
   88CHL1    C2 8965   0.750   5.854   6.807 -0.4410  0.3624 -0.2581
   88CHL1   H2A 8966   0.705   5.946   6.764 -0.1226  0.4283 -0.4572
   88CHL1   H2B 8967   0.680   5.770   6.789 -0.5484  0.0509  1.4479
   88CHL1   C20 8968   0.698   5.753   7.740 -0.9073  0.1692  0.4110
   88CHL1   H20 8969   0.664   5.647   7.741  1.5899 -0.7415 -1.0883
   88CHL1   C21 8970   0.588   5.862   7.714 -0.0106  0.6044 -0.4698
   88CHL1  H21A 8971   0.641   5.960   7.715  2.1861 -0.5281  0.8427
   88CHL1  H21B 8972   0.517   5.855   7.799 -0.8901  2.2371 -1.0260
   88CHL1  H21C 8973   0.525   5.854   7.623 -0.4917  1.2820 -0.2045
   88CHL1   C22 8974   0.746   5.763   7.878 -0.4922 -0.3295  0.3840
   88CHL1  H22A 8975   0.850   5.725   7.881 -0.0006  0.7238 -1.4894
   88CHL1  H22B 8976   0.754   5.871   7.901 -0.3799  0.0557 -1.3253
   88CHL1   C23 8977   0.656   5.698   7.983  0.4395 -0.2106 -0.2218
   88CHL1  H23A 8978   0.564   5.760   7.986  1.3197  1.0837  1.9492
   88CHL1  H23B 8979   0.642   5.592   7.955  2.6858 -0.5610 -0.1905
   88CHL1   C24 8980   0.716   5.694   8.120 -0.2459 -0.4160 -0.4076
   88CHL1  H24A 8981   0.805   5.628   8.112  1.1096  1.2081  0.6982
   88CHL1  H24B 8982   0.764   5.791   8.145 -0.1870 -0.4982 -0.1975
   88CHL1   C25 8983   0.622   5.649   8.229  0.0873  0.5345 -0.0720
   88CHL1   H25 8984   0.566   5.557   8.203 -1.0080  0.9136  0.8618
   88CHL1   C26 8985   0.681   5.620   8.367 -0.8743  0.1569 -0.3454
   88CHL1  H26A 8986   0.605   5.575   8.436  0.2525 -0.8421  0.2730
   88CHL1  H26B 8987   0.766   5.550   8.355 -1.5651 -0.4687 -1.8084
   88CHL1  H26C 8988   0.709   5.717   8.414  0.0435  0.6706 -1.9058
   88CHL1   C27 8989   0.499   5.753   8.232 -0.6133 -0.7509 -0.9590
   88CHL1  H27A 8990   0.537   5.857   8.222  4.0687 -1.7614  2.7454
   88CHL1  H27B 8991   0.427   5.722   8.154  1.0998 -1.3709 -2.3669
   88CHL1  H27C 8992   0.459   5.741   8.335 -0.6787  0.7160 -0.7966
   89CHL1    C3 8993   3.662   2.367   6.909  0.0399 -0.5839 -0.1373
   89CHL1    H3 8994   3.591   2.446   6.943  2.2288  1.3094  0.2910
   89CHL1    O3 8995   3.693   2.397   6.772 -0.1749  0.7578  0.0350
   89CHL1   H3' 8996   3.742   2.323   6.735 -0.8530  0.0850  0.4592
   89CHL1    C4 8997   3.789   2.372   6.993  0.3704 -0.1486 -0.1422
   89CHL1   H4A 8998   3.859   2.309   6.934 -1.8719 -2.2312 -0.7353
   89CHL1   H4B 8999   3.820   2.478   6.977 -0.1953 -0.1158 -1.1294
   89CHL1    C5 9000   3.769   2.334   7.138  0.2097  0.4121  1.2767
   89CHL1    C6 9001   3.806   2.419   7.233 -0.6488  0.7268 -0.6025
   89CHL1    H6 9002   3.851   2.516   7.207  1.0880  0.8148  2.2283
   89CHL1    C7 9003   3.790   2.395   7.379  0.1192 -0.5461  0.3940
   89CHL1   H7A 9004   3.885   2.421   7.429  0.3881  1.5901 -1.0699
   89CHL1   H7B 9005   3.718   2.472   7.412 -0.8425 -1.6107  0.8411
   89CHL1    C8 9006   3.742   2.252   7.420 -0.5997  0.3240 -0.0403
   89CHL1    H8 9007   3.832   2.188   7.429 -0.5414  0.4716  0.4994
   89CHL1   C14 9008   3.667   2.263   7.548 -0.5899 -0.1447 -0.1206
   89CHL1   H14 9009   3.572   2.315   7.526 -0.3531 -0.0398 -0.9185
   89CHL1   C15 9010   3.730   2.337   7.669 -0.5750 -0.5305  0.4187
   89CHL1  H15A 9011   3.838   2.309   7.672 -0.6718 -1.3181 -1.9644
   89CHL1  H15B 9012   3.724   2.448   7.657 -3.9336 -0.6327  0.3158
   89CHL1   C16 9013   3.638   2.296   7.780 -0.5423 -0.5852  0.7783
   89CHL1  H16A 9014   3.689   2.261   7.873  2.7884  0.8876 -0.3429
   89CHL1  H16B 9015   3.574   2.379   7.815 -1.1764 -1.5354  1.9520
   89CHL1   C17 9016   3.556   2.168   7.731  0.3448  0.8217 -0.2638
   89CHL1   H17 9017   3.456   2.212   7.713 -0.7110  1.6986  5.6139
   89CHL1   C13 9018   3.621   2.123   7.606  0.2724  0.5143 -0.1455
   89CHL1   C18 9019   3.741   2.039   7.640  0.3709 -0.0586 -0.0194
   89CHL1  H18A 9020   3.802   2.024   7.549 -0.9628  1.5989 -1.2417
   89CHL1  H18B 9021   3.807   2.094   7.711  1.8172  0.0790 -1.4199
   89CHL1  H18C 9022   3.695   1.943   7.673  0.4464 -0.7975 -1.9466
   89CHL1   C12 9023   3.526   2.068   7.499  0.1115 -0.5723 -0.1536
   89CHL1  H12A 9024   3.488   1.965   7.518  1.5415 -0.9706  0.7342
   89CHL1  H12B 9025   3.438   2.135   7.483  0.3881  0.3560  1.8812
   89CHL1   C11 9026   3.597   2.057   7.364 -0.2215  0.3942  0.6394
   89CHL1  H11A 9027   3.690   1.996   7.369  0.1523  0.8611 -0.2632
   89CHL1  H11B 9028   3.533   2.006   7.289  0.9538 -0.2702  0.0438
   89CHL1    C9 9029   3.650   2.194   7.318 -0.1341 -0.2091  0.1099
   89CHL1    H9 9030   3.560   2.258   7.323  0.2420  0.2943  0.4877
   89CHL1   C10 9031   3.697   2.205   7.168  1.5404 -0.3573 -0.2761
   89CHL1   C19 9032   3.793   2.091   7.139 -0.4598 -0.0913  0.2242
   89CHL1  H19A 9033   3.846   2.106   7.042  0.8361  1.2390  1.0918
   89CHL1  H19B 9034   3.872   2.106   7.216  1.8709  1.6760 -2.2866
   89CHL1  H19C 9035   3.755   1.987   7.134 -0.4447 -0.0816 -0.1487
   89CHL1    C1 9036   3.578   2.203   7.073  0.0968  0.0191  0.1454
   89CHL1   H1A 9037   3.523   2.107   7.081 -0.2569  0.3124  1.5215
   89CHL1   H1B 9038   3.505   2.281   7.102 -0.2810 -0.0339 -0.6509
   89CHL1    C2 9039   3.600   2.231   6.926 -0.0133 -0.0081  0.2527
   89CHL1   H2A 9040   3.505   2.218   6.870 -0.4082 -0.8271  1.0783
   89CHL1   H2B 9041   3.667   2.152   6.886  0.1401 -1.4095  2.9961
   89CHL1   C20 9042   3.530   2.068   7.848 -0.6139 -0.3115  0.1190
   89CHL1   H20 9043   3.625   2.020   7.883  0.9502  0.2097 -3.0770
   89CHL1   C21 9044   3.444   1.963   7.783 -0.6444  0.7390  0.0238
   89CHL1  H21A 9045   3.355   2.013   7.740 -1.3937 -0.9522 -0.4875
   89CHL1  H21B 9046   3.413   1.891   7.862  1.8083 -0.4938 -0.0382
   89CHL1  H21C 9047   3.496   1.894   7.713 -0.6475 -1.9277  2.4389
   89CHL1   C22 9048   3.455   2.137   7.960  0.3712 -0.2433 -0.8166
   89CHL1  H22A 9049   3.488   2.241   7.983  1.8803 -0.3268 -2.4174
   89CHL1  H22B 9050   3.348   2.131   7.931  0.4365  1.7174 -1.6474
   89CHL1   C23 9051   3.465   2.052   8.094 -0.7820  0.6335  0.1466
   89CHL1  H23A 9052   3.406   1.960   8.075  0.1893  0.1542 -0.5968
   89CHL1  H23B 9053   3.565   2.005   8.106 -0.6074  0.7917 -0.6571
   89CHL1   C24 9054   3.420   2.127   8.212  0.5349 -0.0899  0.4633
   89CHL1  H24A 9055   3.472   2.225   8.226  3.1708 -1.3969  0.4134
   89CHL1  H24B 9056   3.316   2.156   8.185  0.1912 -2.5199 -1.1305
   89CHL1   C25 9057   3.414   2.060   8.342  0.8382 -0.0597 -0.5868
   89CHL1   H25 9058   3.363   1.962   8.330 -0.9315  0.8121 -0.4363
   89CHL1   C26 9059   3.551   2.031   8.395 -0.3825  0.4859  0.1202
   89CHL1  H26A 9060   3.544   1.977   8.492  1.9986 -1.1015 -0.4822
   89CHL1  H26B 9061   3.603   1.956   8.332  0.2127 -0.3185  1.5049
   89CHL1  H26C 9062   3.607   2.126   8.409  0.2198  0.3700 -1.3689
   89CHL1   C27 9063   3.352   2.133   8.466 -0.1037  0.1344  0.1463
   89CHL1  H27A 9064   3.410   2.224   8.495 -0.4112  0.1827  0.6254
   89CHL1  H27B 9065   3.245   2.156   8.445 -0.0837 -0.4825 -0.6504
   89CHL1  H27C 9066   3.344   2.064   8.552 -0.2533 -0.5672 -0.4223
   90CHL1    C3 9067   3.535   3.543   6.903  0.2584 -0.1779 -0.4718
   90CHL1    H3 9068   3.495   3.647   6.895 -0.1693 -0.3044 -0.0605
   90CHL1    O3 9069   3.511   3.490   6.772  0.0796  0.4300 -0.2107
   90CHL1   H3' 9070   3.427   3.523   6.739 -1.0459 -1.5467  0.5403
   90CHL1    C4 9071   3.685   3.538   6.946 -0.3888  0.2343 -0.1169
   90CHL1   H4A 9072   3.727   3.438   6.923  0.9710  0.2890  1.9119
   90CHL1   H4B 9073   3.732   3.603   6.869 -0.8003 -0.4406 -0.9602
   90CHL1    C5 9074   3.701   3.575   7.092 -0.6866 -0.1065 -0.2011
   90CHL1    C6 9075   3.793   3.672   7.118 -0.9971 -0.4926  0.0638
   90CHL1    H6 9076   3.853   3.705   7.032  1.5847 -1.2994  1.4583
   90CHL1    C7 9077   3.821   3.724   7.261  0.7091  0.3248  0.4697
   90CHL1   H7A 9078   3.930   3.735   7.279  1.2726 -1.7107 -1.2652
   90CHL1   H7B 9079   3.776   3.824   7.278  2.2859  1.1239  0.1618
   90CHL1    C8 9080   3.778   3.613   7.359  0.8367  0.4876 -0.0051
   90CHL1    H8 9081   3.839   3.527   7.327  2.4950  1.1210  1.2928
   90CHL1   C14 9082   3.805   3.658   7.501  0.1810  0.1309 -0.1726
   90CHL1   H14 9083   3.738   3.746   7.509  0.2135  0.1038  0.4659
   90CHL1   C15 9084   3.943   3.702   7.548  0.3475  0.7266 -1.0069
   90CHL1  H15A 9085   4.019   3.634   7.503  0.2366 -0.5004  0.5875
   90CHL1  H15B 9086   3.961   3.805   7.510 -1.7634  2.3913  2.0806
   90CHL1   C16 9087   3.929   3.689   7.703  0.0603 -0.3188  0.2133
   90CHL1  H16A 9088   4.005   3.619   7.743 -0.0208 -0.2068  0.5692
   90CHL1  H16B 9089   3.961   3.789   7.740  0.9602  0.2449 -1.9313
   90CHL1   C17 9090   3.779   3.644   7.737 -0.4527  0.4278  0.2703
   90CHL1   H17 9091   3.728   3.743   7.735 -1.9128 -0.3115 -1.5379
   90CHL1   C13 9092   3.738   3.576   7.611 -0.5659 -0.4084 -0.1574
   90CHL1   C18 9093   3.801   3.437   7.607 -0.1997  0.5109 -0.0320
   90CHL1  H18A 9094   3.760   3.370   7.529 -1.3147  0.1548  0.8244
   90CHL1  H18B 9095   3.912   3.441   7.597 -0.1390 -0.2558  0.2453
   90CHL1  H18C 9096   3.768   3.387   7.701 -1.4284 -1.2277 -1.3444
   90CHL1   C12 9097   3.581   3.567   7.588 -0.2496  0.5355 -0.0232
   90CHL1  H12A 9098   3.519   3.514   7.663  0.5895  1.1136  1.1123
   90CHL1  H12B 9099   3.533   3.666   7.571  1.2832  1.0117 -2.0381
   90CHL1   C11 9100   3.566   3.501   7.444 -0.3585  0.4932 -0.7641
   90CHL1  H11A 9101   3.596   3.394   7.448 -3.1723 -0.3497 -0.2495
   90CHL1  H11B 9102   3.456   3.497   7.437 -0.4018  1.5389 -0.8310
   90CHL1    C9 9103   3.631   3.576   7.329 -0.4827  0.1680  0.5026
   90CHL1    H9 9104   3.582   3.674   7.312  0.2503  0.4126 -0.2903
   90CHL1   C10 9105   3.612   3.510   7.198 -0.2240  0.4579 -0.0738
   90CHL1   C19 9106   3.637   3.355   7.206 -0.3323  0.5093 -0.0018
   90CHL1  H19A 9107   3.545   3.303   7.242 -0.3495 -0.1335 -0.9229
   90CHL1  H19B 9108   3.645   3.316   7.102 -1.1695  2.4739 -0.8628
   90CHL1  H19C 9109   3.728   3.323   7.260 -0.8464 -1.6981 -0.3412
   90CHL1    C1 9110   3.471   3.516   7.138 -1.0870  0.2023 -0.3356
   90CHL1   H1A 9111   3.408   3.463   7.212  1.4399  1.0372  2.6319
   90CHL1   H1B 9112   3.440   3.622   7.144  0.8299  0.7786  0.1599
   90CHL1    C2 9113   3.448   3.472   6.995 -1.4607  0.2772  0.4596
   90CHL1   H2A 9114   3.341   3.485   6.966 -1.6955 -1.1469  0.5789
   90CHL1   H2B 9115   3.469   3.363   6.990 -0.8183  0.4443 -1.1978
   90CHL1   C20 9116   3.765   3.569   7.875 -0.2617  0.1015  0.0904
   90CHL1   H20 9117   3.833   3.481   7.878  0.4327  0.6440  2.6734
   90CHL1   C21 9118   3.618   3.525   7.905 -0.3897  0.5265  0.3935
   90CHL1  H21A 9119   3.552   3.613   7.890 -0.3535  0.1668 -2.4511
   90CHL1  H21B 9120   3.603   3.489   8.009 -0.4543  3.2919  1.4270
   90CHL1  H21C 9121   3.580   3.433   7.856  2.8128 -0.2287 -0.8793
   90CHL1   C22 9122   3.825   3.653   7.992 -0.9082  0.2415 -0.5522
   90CHL1  H22A 9123   3.894   3.735   7.962 -1.8413  1.8062  1.3647
   90CHL1  H22B 9124   3.738   3.693   8.049 -0.9581 -2.1131  1.1641
   90CHL1   C23 9125   3.913   3.578   8.092  0.1958 -0.0438 -0.1193
   90CHL1  H23A 9126   3.870   3.478   8.114  1.1055 -0.6665 -1.0460
   90CHL1  H23B 9127   4.016   3.562   8.053  0.4555 -0.8739  0.8484
   90CHL1   C24 9128   3.926   3.655   8.226  0.8264  0.3650  0.4911
   90CHL1  H24A 9129   3.978   3.748   8.193  0.4905 -0.2704 -2.1262
   90CHL1  H24B 9130   3.830   3.682   8.273  1.8364  0.9425  2.3188
   90CHL1   C25 9131   4.012   3.578   8.322  0.0668  0.6386  0.4728
   90CHL1   H25 9132   4.105   3.548   8.268 -0.8443 -0.9132 -0.3261
   90CHL1   C26 9133   4.046   3.666   8.440 -0.4498 -0.0469 -0.4368
   90CHL1  H26A 9134   4.119   3.617   8.508 -0.1903  0.2478 -0.5006
   90CHL1  H26B 9135   4.094   3.758   8.401  1.0479 -1.1309 -1.2297
   90CHL1  H26C 9136   3.961   3.688   8.508  0.7885  1.9464  0.5361
   90CHL1   C27 9137   3.956   3.445   8.368  0.4675  0.0044  0.0012
   90CHL1  H27A 9138   3.946   3.367   8.290 -2.0028 -0.8653  1.0788
   90CHL1  H27B 9139   4.017   3.412   8.455  0.2221  1.0371  0.5802
   90CHL1  H27C 9140   3.857   3.460   8.417  0.8256 -0.1206  0.7861
   91CHL1    C3 9141   3.807   5.523   7.139 -0.1194  0.2334 -0.2181
   91CHL1    H3 9142   3.703   5.536   7.177 -0.2314 -2.4037  0.5642
   91CHL1    O3 9143   3.821   5.523   7.003 -0.0297 -0.1459 -0.2536
   91CHL1   H3' 9144   3.906   5.486   6.979  0.9581  2.2884 -0.8588
   91CHL1    C4 9145   3.895   5.628   7.209 -0.0859 -0.4173 -0.1784
   91CHL1   H4A 9146   4.001   5.620   7.175  0.5576  1.9149  1.0015
   91CHL1   H4B 9147   3.855   5.724   7.168  0.4731 -0.3756 -0.6440
   91CHL1    C5 9148   3.889   5.618   7.363  0.4498  0.0965  0.5238
   91CHL1    C6 9149   3.864   5.725   7.435 -0.0528  0.2157  0.0259
   91CHL1    H6 9150   3.862   5.820   7.380 -1.2768  2.6155  3.8254
   91CHL1    C7 9151   3.861   5.748   7.591 -0.3551 -0.5300  0.2294
   91CHL1   H7A 9152   3.949   5.809   7.620  0.8652 -1.8456 -0.6311
   91CHL1   H7B 9153   3.761   5.782   7.626 -1.2901 -2.2496 -0.6697
   91CHL1    C8 9154   3.896   5.608   7.659 -0.2159 -0.5994  0.0237
   91CHL1    H8 9155   4.006   5.604   7.671 -0.3140 -0.8836  0.8598
   91CHL1   C14 9156   3.834   5.602   7.797 -0.2433 -0.0895 -0.5158
   91CHL1   H14 9157   3.725   5.612   7.779 -0.2796  2.6101  0.7615
   91CHL1   C15 9158   3.875   5.712   7.892 -0.4476  0.1638  0.4916
   91CHL1  H15A 9159   3.982   5.734   7.875 -0.6792  0.6902 -0.2885
   91CHL1  H15B 9160   3.820   5.808   7.890 -1.2669 -0.2822  1.0022
   91CHL1   C16 9161   3.851   5.659   8.029 -1.3136 -0.6730 -0.3264
   91CHL1  H16A 9162   3.943   5.666   8.093 -1.4488  2.5796 -0.3060
   91CHL1  H16B 9163   3.776   5.716   8.088 -0.8153 -0.8178  0.4671
   91CHL1   C17 9164   3.805   5.515   8.019 -0.1440  0.2383  0.1946
   91CHL1   H17 9165   3.696   5.509   7.995 -0.0593  1.1299 -0.4759
   91CHL1   C13 9166   3.859   5.475   7.877 -0.3639  0.1559 -0.0512
   91CHL1   C18 9167   4.010   5.437   7.888  0.7603 -0.3962  0.0546
   91CHL1  H18A 9168   4.021   5.341   7.943 -2.6870 -0.6316  0.5145
   91CHL1  H18B 9169   4.050   5.428   7.784  0.1452  0.5658 -0.2786
   91CHL1  H18C 9170   4.073   5.515   7.935  0.6352  0.4966 -1.2138
   91CHL1   C12 9171   3.781   5.366   7.793 -0.3082 -0.6801  0.7139
   91CHL1  H12A 9172   3.790   5.266   7.841 -0.0344 -1.8156 -1.5650
   91CHL1  H12B 9173   3.674   5.396   7.792  0.1709  1.1598 -0.9325
   91CHL1   C11 9174   3.829   5.358   7.639  0.9574  0.1961  0.6391
   91CHL1  H11A 9175   3.922   5.298   7.638  0.0833 -1.3530  2.8171
   91CHL1  H11B 9176   3.764   5.298   7.571 -1.2216  1.2540  1.6903
   91CHL1    C9 9177   3.845   5.492   7.565  0.8052  0.1966  0.3022
   91CHL1    H9 9178   3.737   5.517   7.551  0.6458 -0.9714 -0.7457
   91CHL1   C10 9179   3.896   5.478   7.424  0.0941 -0.0454  0.1720
   91CHL1   C19 9180   4.042   5.440   7.435  0.7110  0.1953  0.2457
   91CHL1  H19A 9181   4.099   5.528   7.473  1.1358 -0.1078  0.3163
   91CHL1  H19B 9182   4.069   5.345   7.485 -1.3481 -0.9298 -0.6603
   91CHL1  H19C 9183   4.089   5.433   7.334 -0.0816  0.0579 -0.1204
   91CHL1    C1 9184   3.818   5.366   7.336 -0.0842  0.4375  0.5470
   91CHL1   H1A 9185   3.850   5.264   7.367 -0.0701 -0.7008 -2.7962
   91CHL1   H1B 9186   3.709   5.370   7.354 -0.3116 -2.4452  0.2454
   91CHL1    C2 9187   3.842   5.381   7.183 -0.3000  0.3376  0.2174
   91CHL1   H2A 9188   3.771   5.313   7.130 -1.7199  0.2430  2.1424
   91CHL1   H2B 9189   3.945   5.354   7.151 -1.1239 -0.3009 -2.1379
   91CHL1   C20 9190   3.816   5.428   8.144 -0.4411 -0.0314 -0.2452
   91CHL1   H20 9191   3.920   5.423   8.183 -0.3003  1.7072 -0.2992
   91CHL1   C21 9192   3.758   5.290   8.120 -0.1604  0.5052 -0.4008
   91CHL1  H21A 9193   3.816   5.233   8.044  0.4414 -0.6960  0.9362
   91CHL1  H21B 9194   3.650   5.288   8.092 -0.5549 -0.0323  1.1168
   91CHL1  H21C 9195   3.766   5.230   8.212 -1.9312  2.6528  1.2820
   91CHL1   C22 9196   3.749   5.504   8.263  0.3784  0.0889 -0.6747
   91CHL1  H22A 9197   3.822   5.585   8.281 -1.0969  1.2239  0.4590
   91CHL1  H22B 9198   3.651   5.549   8.238  0.4650  1.2596  0.9574
   91CHL1   C23 9199   3.733   5.420   8.394  0.0602  0.4835 -0.3959
   91CHL1  H23A 9200   3.657   5.344   8.368  1.1111 -1.4782  1.9543
   91CHL1  H23B 9201   3.828   5.366   8.415 -0.5410 -0.4622 -0.0954
   91CHL1   C24 9202   3.686   5.513   8.505 -0.0279  0.3745 -0.0517
   91CHL1  H24A 9203   3.763   5.591   8.522  0.1382  0.6146 -1.7683
   91CHL1  H24B 9204   3.590   5.567   8.489  0.3740  1.3444  0.6730
   91CHL1   C25 9205   3.658   5.432   8.636  0.7609 -0.3135  0.2993
   91CHL1   H25 9206   3.597   5.345   8.603 -0.2572  0.2071  0.7689
   91CHL1   C26 9207   3.790   5.388   8.704  0.2519  0.5544  0.4240
   91CHL1  H26A 9208   3.868   5.464   8.682  1.7547 -1.1100 -0.3340
   91CHL1  H26B 9209   3.777   5.372   8.813 -2.7018 -1.4313 -0.0884
   91CHL1  H26C 9210   3.826   5.286   8.676  1.3195  0.7828  0.9082
   91CHL1   C27 9211   3.573   5.517   8.734  0.2446  0.5395  0.3025
   91CHL1  H27A 9212   3.561   5.452   8.824 -0.6024  1.5474  0.9384
   91CHL1  H27B 9213   3.635   5.607   8.753  0.8623  0.4050 -0.9511
   91CHL1  H27C 9214   3.473   5.543   8.693  0.4416 -2.5079 -2.5375
   92CHL1    C3 9215   3.307   6.427   6.941  1.1438 -0.2813 -0.3282
   92CHL1    H3 9216   3.259   6.334   6.980  2.5011 -0.3932  1.1700
   92CHL1    O3 9217   3.312   6.429   6.797 -0.2148  0.3429 -0.6348
   92CHL1   H3' 9218   3.222   6.445   6.767 -0.1966  1.6781 -0.0335
   92CHL1    C4 9219   3.226   6.550   6.986  0.0149  0.3771  0.2413
   92CHL1   H4A 9220   3.277   6.641   6.949 -1.0469  0.1427 -1.9490
   92CHL1   H4B 9221   3.125   6.557   6.943  0.4940  1.0859 -0.8078
   92CHL1    C5 9222   3.218   6.548   7.139 -0.4017  0.3423 -0.2958
   92CHL1    C6 9223   3.099   6.553   7.201 -0.5341 -0.5001  0.7055
   92CHL1    H6 9224   3.011   6.560   7.136  0.6059 -0.2392 -0.8574
   92CHL1    C7 9225   3.080   6.574   7.348  0.0414  0.1375  1.1457
   92CHL1   H7A 9226   2.999   6.651   7.351  1.3956  1.7550 -0.7321
   92CHL1   H7B 9227   3.036   6.481   7.389 -0.7599 -0.1450 -0.2736
   92CHL1    C8 9228   3.211   6.604   7.424 -0.6601 -0.1046 -0.4446
   92CHL1    H8 9229   3.245   6.709   7.410  1.1341 -0.3657  1.4371
   92CHL1   C14 9230   3.196   6.576   7.576  0.0836  0.5183  0.3426
   92CHL1   H14 9231   3.183   6.466   7.575  1.7268  0.3054  0.0481
   92CHL1   C15 9232   3.076   6.633   7.650 -0.1218  0.0675  0.0794
   92CHL1  H15A 9233   3.043   6.736   7.624 -0.6502 -0.0414  0.3214
   92CHL1  H15B 9234   2.992   6.561   7.657  1.6727 -2.1294  0.0611
   92CHL1   C16 9235   3.132   6.647   7.795 -0.2798  0.8704 -0.5908
   92CHL1  H16A 9236   3.145   6.756   7.812 -0.9044  0.4937  3.2611
   92CHL1  H16B 9237   3.057   6.612   7.869  1.8107 -0.2025  1.1618
   92CHL1   C17 9238   3.263   6.565   7.802  0.0922  0.2972 -0.1859
   92CHL1   H17 9239   3.236   6.458   7.791  1.6954  0.1267 -4.2963
   92CHL1   C13 9240   3.323   6.591   7.660 -0.5479  0.3366 -0.1909
   92CHL1   C18 9241   3.380   6.735   7.641 -0.3675 -0.4735 -0.3091
   92CHL1  H18A 9242   3.408   6.751   7.535 -1.1814  0.8138 -0.3448
   92CHL1  H18B 9243   3.306   6.815   7.660 -0.6132 -0.5824 -0.7847
   92CHL1  H18C 9244   3.479   6.742   7.691  0.7858  1.6736 -2.6710
   92CHL1   C12 9245   3.430   6.484   7.606  0.4566  0.2046 -0.0527
   92CHL1  H12A 9246   3.525   6.498   7.662 -0.5225  1.4316  1.3830
   92CHL1  H12B 9247   3.384   6.385   7.624  1.3398 -0.8860 -3.0856
   92CHL1   C11 9248   3.455   6.506   7.455 -0.3628 -0.1544 -0.0052
   92CHL1  H11A 9249   3.519   6.596   7.452 -1.0207  0.5632  3.3697
   92CHL1  H11B 9250   3.522   6.419   7.437 -1.5040 -1.4358  1.5038
   92CHL1    C9 9251   3.330   6.516   7.368  0.1107 -0.4639  0.1562
   92CHL1    H9 9252   3.284   6.415   7.362  1.5168 -1.1652  0.6114
   92CHL1   C10 9253   3.353   6.543   7.219  0.1117  0.9132  0.3208
   92CHL1   C19 9254   3.417   6.682   7.199 -0.4670  0.0062  0.6340
   92CHL1  H19A 9255   3.339   6.757   7.224  0.5348  2.0717 -1.9870
   92CHL1  H19B 9256   3.503   6.697   7.268 -0.9079  2.8619  0.6686
   92CHL1  H19C 9257   3.454   6.700   7.096 -0.2865 -0.1633  0.6693
   92CHL1    C1 9258   3.448   6.431   7.160 -0.0475  0.2336 -0.0608
   92CHL1   H1A 9259   3.544   6.452   7.211 -0.5953 -0.3133  1.2401
   92CHL1   H1B 9260   3.410   6.333   7.196 -0.9272  0.3798 -0.5701
   92CHL1    C2 9261   3.448   6.437   7.005  0.6153  0.2176  0.4709
   92CHL1   H2A 9262   3.493   6.342   6.969 -2.5488 -1.1111 -0.2853
   92CHL1   H2B 9263   3.510   6.525   6.976 -0.0796  0.0707 -1.5505
   92CHL1   C20 9264   3.355   6.602   7.924  0.4942 -0.6447  0.1939
   92CHL1   H20 9265   3.401   6.700   7.899  0.9090 -1.2534 -1.5292
   92CHL1   C21 9266   3.465   6.499   7.947  0.6470  0.0502 -0.1299
   92CHL1  H21A 9267   3.458   6.462   8.051  0.6881 -2.7729 -1.0567
   92CHL1  H21B 9268   3.568   6.541   7.941  0.6594  0.2067  1.0565
   92CHL1  H21C 9269   3.452   6.417   7.873 -0.6362  0.9494 -0.9498
   92CHL1   C22 9270   3.271   6.639   8.055 -0.5454  0.1686 -0.3450
   92CHL1  H22A 9271   3.207   6.724   8.025 -0.1123  0.7301  0.2842
   92CHL1  H22B 9272   3.206   6.554   8.086 -3.0665  2.2402  0.3964
   92CHL1   C23 9273   3.361   6.678   8.173  0.2444  0.1741  0.0414
   92CHL1  H23A 9274   3.409   6.591   8.223 -0.0326  1.2748  2.3746
   92CHL1  H23B 9275   3.438   6.742   8.127 -0.7478 -0.0882 -2.0813
   92CHL1   C24 9276   3.304   6.763   8.288 -0.0956  0.3433 -0.6657
   92CHL1  H24A 9277   3.259   6.852   8.237  1.8972  2.2268  0.7209
   92CHL1  H24B 9278   3.217   6.712   8.335 -0.5025  0.1252 -1.6101
   92CHL1   C25 9279   3.423   6.814   8.380  0.0721  0.2856  0.7500
   92CHL1   H25 9280   3.498   6.841   8.303  1.3664 -2.0409  1.1018
   92CHL1   C26 9281   3.374   6.934   8.447  0.0732 -0.0844 -0.7089
   92CHL1  H26A 9282   3.293   6.913   8.520  0.8713 -2.1656 -0.3509
   92CHL1  H26B 9283   3.456   6.984   8.502 -1.2813 -1.1862  2.5286
   92CHL1  H26C 9284   3.341   7.014   8.376 -3.1399 -0.8241 -0.2293
   92CHL1   C27 9285   3.490   6.712   8.473 -0.0501  0.3789  0.6053
   92CHL1  H27A 9286   3.539   6.627   8.421 -4.1263 -1.0787 -1.2776
   92CHL1  H27B 9287   3.565   6.752   8.545  0.7873 -0.7673  0.3996
   92CHL1  H27C 9288   3.414   6.664   8.538 -3.2562  1.6251 -1.9629
   93CHL1    C3 9289   1.069   3.900   6.788 -0.3679 -0.0511  0.6413
   93CHL1    H3 9290   1.004   3.841   6.856 -0.3490  0.8928  1.5074
   93CHL1    O3 9291   0.997   3.946   6.673  0.1406  0.1742  0.3755
   93CHL1   H3' 9292   0.998   3.872   6.612  0.2222  0.5866 -0.1390
   93CHL1    C4 9293   1.116   4.031   6.865  0.5088 -0.1498  0.1334
   93CHL1   H4A 9294   1.191   4.087   6.805  3.0553 -2.8463  0.5477
   93CHL1   H4B 9295   1.027   4.098   6.871  1.2989  1.0359 -0.9763
   93CHL1    C5 9296   1.190   3.997   6.990  1.0290 -0.5844  0.4423
   93CHL1    C6 9297   1.154   4.050   7.106  0.4634  0.1588  0.3573
   93CHL1    H6 9298   1.071   4.121   7.115  0.2067  0.0395 -0.9371
   93CHL1    C7 9299   1.211   4.016   7.242 -0.1559 -0.2375  0.6000
   93CHL1   H7A 9300   1.208   4.100   7.316 -0.7295 -0.6502  1.0546
   93CHL1   H7B 9301   1.146   3.946   7.298 -0.0348  0.9571  2.3137
   93CHL1    C8 9302   1.354   3.944   7.222 -0.3563  0.1552  0.1106
   93CHL1    H8 9303   1.426   4.027   7.207  1.8331 -1.7445 -0.4888
   93CHL1   C14 9304   1.391   3.876   7.354  0.2350 -0.1658 -0.2877
   93CHL1   H14 9305   1.307   3.807   7.375  1.8525 -1.9942  0.4586
   93CHL1   C15 9306   1.412   3.963   7.475 -0.4266 -0.2131  0.4272
   93CHL1  H15A 9307   1.490   4.040   7.453  0.9209 -1.6398  0.0723
   93CHL1  H15B 9308   1.320   4.022   7.497 -0.9765 -0.3529 -1.3662
   93CHL1   C16 9309   1.463   3.863   7.574  0.2072 -0.7500 -0.4159
   93CHL1  H16A 9310   1.534   3.910   7.645  1.0674 -0.4534 -1.4425
   93CHL1  H16B 9311   1.380   3.812   7.628  1.4558 -0.1866  2.1746
   93CHL1   C17 9312   1.528   3.739   7.494 -0.3626 -0.9375 -0.0001
   93CHL1   H17 9313   1.458   3.653   7.505  1.2467 -2.1878  1.0636
   93CHL1   C13 9314   1.514   3.789   7.348  0.1321 -0.1669 -0.3925
   93CHL1   C18 9315   1.647   3.869   7.309  0.3810 -0.1299 -0.1845
   93CHL1  H18A 9316   1.633   3.917   7.210 -2.0097 -0.0678  0.1134
   93CHL1  H18B 9317   1.654   3.941   7.393 -2.7895  2.3357 -1.7909
   93CHL1  H18C 9318   1.727   3.793   7.301 -0.4355 -1.0730  0.3523
   93CHL1   C12 9319   1.494   3.682   7.245 -0.6641 -0.5599 -0.1153
   93CHL1  H12A 9320   1.589   3.625   7.240  0.2977  0.7699  1.7211
   93CHL1  H12B 9321   1.413   3.609   7.266 -2.4787  1.1237 -0.9196
   93CHL1   C11 9322   1.472   3.739   7.105  0.1286 -0.5876 -0.1522
   93CHL1  H11A 9323   1.562   3.783   7.058  0.0769 -1.7997 -1.4416
   93CHL1  H11B 9324   1.446   3.649   7.045  2.6255 -1.7552  0.3817
   93CHL1    C9 9325   1.352   3.843   7.112  0.2287 -0.2507 -0.2728
   93CHL1    H9 9326   1.271   3.777   7.148  1.2172 -1.0271  0.6023
   93CHL1   C10 9327   1.313   3.896   6.969 -0.3119  0.5146  0.4942
   93CHL1   C19 9328   1.426   3.986   6.921 -0.2944 -0.3004  0.7561
   93CHL1  H19A 9329   1.396   4.077   6.863  2.6736  0.4902  0.2350
   93CHL1  H19B 9330   1.491   4.021   7.004  2.3280 -0.9909 -0.8855
   93CHL1  H19C 9331   1.503   3.941   6.854 -0.0665 -0.0116  0.8216
   93CHL1    C1 9332   1.278   3.775   6.880  0.6250 -0.5385 -0.2703
   93CHL1   H1A 9333   1.367   3.717   6.850  2.0383  0.1221  2.3999
   93CHL1   H1B 9334   1.224   3.709   6.950  0.2605 -0.2612 -0.2812
   93CHL1    C2 9335   1.195   3.818   6.756 -0.7705  0.1377 -0.7453
   93CHL1   H2A 9336   1.160   3.732   6.696 -2.3011 -0.7217  1.2601
   93CHL1   H2B 9337   1.268   3.882   6.700  3.2805 -1.1340  2.5444
   93CHL1   C20 9338   1.661   3.684   7.549  0.0503  0.2625  0.3414
   93CHL1   H20 9339   1.734   3.763   7.524 -2.2226  1.9176 -1.5734
   93CHL1   C21 9340   1.696   3.548   7.490  0.5295  0.4791  0.0132
   93CHL1  H21A 9341   1.600   3.493   7.506  0.2321 -0.0761 -2.9742
   93CHL1  H21B 9342   1.789   3.509   7.536  1.2880 -0.8034 -2.3949
   93CHL1  H21C 9343   1.714   3.557   7.380 -0.9635 -0.1872 -0.3138
   93CHL1   C22 9344   1.663   3.670   7.701 -0.0378  0.1816  0.5787
   93CHL1  H22A 9345   1.567   3.688   7.755 -1.2093 -0.3969 -1.2135
   93CHL1  H22B 9346   1.690   3.565   7.726  3.4990  0.9139  0.2661
   93CHL1   C23 9347   1.781   3.746   7.768  0.1314 -0.3570  0.1286
   93CHL1  H23A 9348   1.875   3.714   7.718  2.8853  3.9164  2.0162
   93CHL1  H23B 9349   1.775   3.855   7.746  2.3958 -0.3707 -0.9156
   93CHL1   C24 9350   1.785   3.719   7.920 -0.0954  0.3046  0.1894
   93CHL1  H24A 9351   1.688   3.739   7.969  0.5248  1.5353  0.9504
   93CHL1  H24B 9352   1.804   3.610   7.935  1.2102  0.6934  1.7094
   93CHL1   C25 9353   1.894   3.811   7.986  0.1906 -0.8640 -0.2977
   93CHL1   H25 9354   1.986   3.820   7.925  0.6860  1.5290  0.6991
   93CHL1   C26 9355   1.846   3.964   7.985  0.6585  0.0456  0.3859
   93CHL1  H26A 9356   1.925   4.030   8.026  2.7132 -1.9462 -0.1314
   93CHL1  H26B 9357   1.812   3.999   7.885 -0.2588 -0.2959  0.5632
   93CHL1  H26C 9358   1.754   3.977   8.046 -0.3252  2.3097 -1.4486
   93CHL1   C27 9359   1.934   3.777   8.133 -0.6564  0.8305  0.6772
   93CHL1  H27A 9360   1.854   3.785   8.210 -1.1900 -1.3490  0.4171
   93CHL1  H27B 9361   1.968   3.671   8.141 -4.0129 -0.2763  2.3095
   93CHL1  H27C 9362   2.021   3.834   8.170 -0.4528  0.9694  0.0060
   94CHL1    C3 9363   2.650   6.608   6.878 -0.3260 -0.3131  0.4676
   94CHL1    H3 9364   2.739   6.542   6.893 -1.2198 -1.7254 -0.2360
   94CHL1    O3 9365   2.617   6.591   6.743  0.7719 -0.0624  0.4419
   94CHL1   H3' 9366   2.682   6.645   6.698  1.1531  0.7174  1.8681
   94CHL1    C4 9367   2.545   6.567   6.970  0.6691  0.2684 -0.6109
   94CHL1   H4A 9368   2.454   6.627   6.946 -1.9278 -2.3153  1.9352
   94CHL1   H4B 9369   2.529   6.458   6.955  2.0108 -0.1190  0.5788
   94CHL1    C5 9370   2.573   6.583   7.120  0.0477  0.2103 -0.1359
   94CHL1    C6 9371   2.553   6.483   7.205 -0.8207  0.1782 -0.1267
   94CHL1    H6 9372   2.509   6.388   7.172 -0.2421 -1.5168  3.5063
   94CHL1    C7 9373   2.575   6.498   7.353 -0.3556 -0.5253  0.0110
   94CHL1   H7A 9374   2.485   6.464   7.408 -0.5825 -1.1220 -0.7085
   94CHL1   H7B 9375   2.660   6.433   7.383 -2.1642 -3.9277 -1.6613
   94CHL1    C8 9376   2.600   6.646   7.399  0.1590 -0.2868 -0.2843
   94CHL1    H8 9377   2.498   6.686   7.413  0.1157 -0.3880 -0.3112
   94CHL1   C14 9378   2.653   6.651   7.542 -0.2360 -0.4397 -0.3227
   94CHL1   H14 9379   2.760   6.623   7.530 -0.3313 -0.5266 -0.9694
   94CHL1   C15 9380   2.595   6.554   7.653 -0.1119 -0.1131  0.0700
   94CHL1  H15A 9381   2.487   6.577   7.666 -0.1301 -0.7153  1.1338
   94CHL1  H15B 9382   2.613   6.448   7.624  0.2848  0.4466 -1.8645
   94CHL1   C16 9383   2.659   6.612   7.782 -0.3008 -0.7812  0.3536
   94CHL1  H16A 9384   2.583   6.638   7.859 -0.8001 -0.1659 -0.3472
   94CHL1  H16B 9385   2.719   6.530   7.829  0.5214 -2.7471 -3.6828
   94CHL1   C17 9386   2.732   6.743   7.750 -0.1484 -0.0185  0.0151
   94CHL1   H17 9387   2.837   6.716   7.729 -0.3791 -1.2756  0.4087
   94CHL1   C13 9388   2.671   6.787   7.618 -0.0320 -0.7509  0.1925
   94CHL1   C18 9389   2.531   6.859   7.633 -0.0803 -0.5558 -0.0606
   94CHL1  H18A 9390   2.542   6.954   7.689  3.0681 -1.8853  1.8631
   94CHL1  H18B 9391   2.484   6.882   7.535  0.1843 -1.6121 -0.4581
   94CHL1  H18C 9392   2.452   6.810   7.693 -2.5861  1.4514 -1.5237
   94CHL1   C12 9393   2.763   6.868   7.522 -0.8995  0.4426  0.6077
   94CHL1  H12A 9394   2.771   6.976   7.549  1.1133 -0.0497  2.2129
   94CHL1  H12B 9395   2.868   6.832   7.514 -0.3555  1.8111  1.2571
   94CHL1   C11 9396   2.708   6.873   7.374  0.2012  1.1279  0.9504
   94CHL1  H11A 9397   2.610   6.923   7.386 -0.4241 -0.0617  0.9989
   94CHL1  H11B 9398   2.775   6.927   7.304  0.2082 -0.7894 -0.6332
   94CHL1    C9 9399   2.685   6.728   7.310  0.3104  0.1547 -0.1736
   94CHL1    H9 9400   2.785   6.680   7.304  0.3099  0.1486 -0.1323
   94CHL1   C10 9401   2.629   6.726   7.163 -0.8550 -0.0541  0.0207
   94CHL1   C19 9402   2.502   6.829   7.170  0.9596 -0.3525  0.0714
   94CHL1  H19A 9403   2.542   6.931   7.182 -0.6449  0.4053 -0.7289
   94CHL1  H19B 9404   2.455   6.825   7.070  1.0571 -0.2204  0.0208
   94CHL1  H19C 9405   2.425   6.800   7.245 -1.1280  1.5532 -1.2336
   94CHL1    C1 9406   2.736   6.775   7.064  0.8455  0.2220 -0.3095
   94CHL1   H1A 9407   2.758   6.883   7.071 -3.1542  1.1778 -0.2636
   94CHL1   H1B 9408   2.832   6.720   7.079  1.7704  1.9896  0.4844
   94CHL1    C2 9409   2.703   6.750   6.914  0.0517 -1.0684  0.0036
   94CHL1   H2A 9410   2.795   6.769   6.855  0.8910  2.4573  2.1444
   94CHL1   H2B 9411   2.633   6.827   6.874 -2.8261 -1.9243  2.9375
   94CHL1   C20 9412   2.736   6.839   7.869  0.2006  0.5599 -0.1732
   94CHL1   H20 9413   2.631   6.847   7.902  0.5030 -0.2410  1.0442
   94CHL1   C21 9414   2.791   6.970   7.824 -1.0323  0.1202 -0.7375
   94CHL1  H21A 9415   2.825   7.040   7.904 -0.2968 -0.6133 -0.3821
   94CHL1  H21B 9416   2.718   7.025   7.762 -1.5638 -0.6789 -0.8367
   94CHL1  H21C 9417   2.888   6.954   7.772 -1.4845  0.6374 -1.7577
   94CHL1   C22 9418   2.799   6.789   8.005 -0.2657 -0.4655 -0.1239
   94CHL1  H22A 9419   2.800   6.679   8.021 -0.6150 -0.2963  1.2241
   94CHL1  H22B 9420   2.907   6.807   7.983 -0.7309  0.2312 -1.9840
   94CHL1   C23 9421   2.743   6.865   8.126 -0.0486 -0.0864 -0.0790
   94CHL1  H23A 9422   2.795   6.963   8.134 -0.2007  0.1894 -2.0358
   94CHL1  H23B 9423   2.634   6.881   8.111 -0.0428 -1.5160 -2.0255
   94CHL1   C24 9424   2.765   6.787   8.258 -0.0740  0.3238 -0.6975
   94CHL1  H24A 9425   2.707   6.840   8.338 -0.2133  1.6278 -1.6264
   94CHL1  H24B 9426   2.729   6.682   8.254  1.6985 -0.3153 -0.4625
   94CHL1   C25 9427   2.909   6.776   8.315 -0.6535  0.2382  0.0665
   94CHL1   H25 9428   2.971   6.720   8.242 -0.7823  1.0214 -0.6600
   94CHL1   C26 9429   2.974   6.917   8.332 -0.4549 -0.6295  0.6644
   94CHL1  H26A 9430   3.080   6.900   8.361  0.8222  2.2245 -1.8072
   94CHL1  H26B 9431   2.987   6.971   8.236 -0.0991 -0.3054  0.8937
   94CHL1  H26C 9432   2.918   6.981   8.404  0.6140 -0.1432  1.0767
   94CHL1   C27 9433   2.924   6.695   8.447  0.0588 -0.0977  0.2062
   94CHL1  H27A 9434   2.838   6.709   8.515 -0.0780  0.5714 -0.0993
   94CHL1  H27B 9435   2.919   6.585   8.433  1.5074 -0.1654  0.0586
   94CHL1  H27C 9436   3.022   6.709   8.499  0.1565  3.6493 -0.6959
   95CHL1    C3 9437   2.748   5.605   6.600 -0.2903 -0.1689  0.7789
   95CHL1    H3 9438   2.787   5.708   6.584  0.9364 -0.5654  1.1382
   95CHL1    O3 9439   2.727   5.538   6.477 -0.6198  0.0722 -0.0931
   95CHL1   H3' 9440   2.721   5.615   6.420  0.9212  0.7680  0.6313
   95CHL1    C4 9441   2.850   5.531   6.691 -0.0547  0.0533 -0.1217
   95CHL1   H4A 9442   2.815   5.425   6.691 -0.5858  0.1558  2.5781
   95CHL1   H4B 9443   2.947   5.537   6.638 -0.5825 -0.4619 -1.1889
   95CHL1    C5 9444   2.866   5.568   6.839 -0.0441  0.9039  0.1986
   95CHL1    C6 9445   2.988   5.578   6.899  0.9978 -0.1396 -0.0534
   95CHL1    H6 9446   3.074   5.568   6.831 -0.6752  1.1941 -2.5598
   95CHL1    C7 9447   3.008   5.604   7.042  0.2886  0.5551  0.5714
   95CHL1   H7A 9448   3.080   5.527   7.076  0.2306  0.7202  1.0666
   95CHL1   H7B 9449   3.063   5.700   7.053 -1.6858  1.5996  2.0378
   95CHL1    C8 9450   2.874   5.606   7.124  0.4370 -1.2885 -0.5609
   95CHL1    H8 9451   2.848   5.502   7.153  1.3376 -1.0873  1.1318
   95CHL1   C14 9452   2.890   5.686   7.259  0.6276  0.4299 -0.4621
   95CHL1   H14 9453   2.896   5.791   7.226 -0.3593 -0.0800 -2.4151
   95CHL1   C15 9454   3.015   5.658   7.335  0.3823  0.6408 -0.2924
   95CHL1  H15A 9455   3.037   5.550   7.336 -0.0787  0.5222 -1.2037
   95CHL1  H15B 9456   3.105   5.701   7.286 -1.0723  1.4657 -2.4182
   95CHL1   C16 9457   2.975   5.704   7.472  0.3683  0.2930 -0.1166
   95CHL1  H16A 9458   2.977   5.611   7.532 -1.5569 -1.4877 -2.5668
   95CHL1  H16B 9459   3.042   5.786   7.505  0.8444 -0.5008  0.9699
   95CHL1   C17 9460   2.830   5.762   7.465  0.0391  0.0965 -0.7160
   95CHL1   H17 9461   2.847   5.868   7.434 -0.3818  0.1630 -0.7207
   95CHL1   C13 9462   2.773   5.679   7.349  0.2399 -0.0275 -0.5437
   95CHL1   C18 9463   2.751   5.529   7.392  0.8351 -0.1836 -0.4741
   95CHL1  H18A 9464   2.654   5.515   7.445  1.4474  0.5888  0.8816
   95CHL1  H18B 9465   2.726   5.469   7.302  2.1693  1.1561 -1.7903
   95CHL1  H18C 9466   2.829   5.477   7.452  0.0537 -0.4029  0.3767
   95CHL1   C12 9467   2.655   5.744   7.265  0.0630 -0.5428  0.1467
   95CHL1  H12A 9468   2.557   5.740   7.317 -1.6395  1.4217 -2.6263
   95CHL1  H12B 9469   2.685   5.851   7.254 -0.3736 -0.4211  0.1369
   95CHL1   C11 9470   2.633   5.671   7.129  0.4672 -0.3379 -1.0614
   95CHL1  H11A 9471   2.597   5.570   7.160 -0.0039  0.3216  0.6176
   95CHL1  H11B 9472   2.546   5.706   7.070 -0.7871 -2.5027 -0.5987
   95CHL1    C9 9473   2.753   5.662   7.042  0.3442 -0.0259  0.2033
   95CHL1    H9 9474   2.789   5.763   7.015  0.4650 -0.0387  0.3156
   95CHL1   C10 9475   2.729   5.588   6.910 -0.2563 -0.5665 -0.0867
   95CHL1   C19 9476   2.657   5.454   6.940  0.1303 -0.8428  0.7098
   95CHL1  H19A 9477   2.667   5.388   6.852  1.4661  2.3742 -1.7447
   95CHL1  H19B 9478   2.686   5.394   7.029  0.6578 -1.5233  0.0883
   95CHL1  H19C 9479   2.549   5.478   6.950  0.0661 -1.1703  0.8045
   95CHL1    C1 9480   2.632   5.667   6.815  0.5691  0.2487  0.7040
   95CHL1   H1A 9481   2.531   5.682   6.859 -0.2220  0.1275 -0.9794
   95CHL1   H1B 9482   2.678   5.768   6.810  1.2170 -0.0816 -0.3068
   95CHL1    C2 9483   2.619   5.607   6.679  0.2629  0.2124  0.8722
   95CHL1   H2A 9484   2.552   5.669   6.616  0.0880 -0.4574  0.3852
   95CHL1   H2B 9485   2.572   5.506   6.672  0.8854 -0.0085 -0.3870
   95CHL1   C20 9486   2.761   5.757   7.608 -0.1299 -0.4463  0.3498
   95CHL1   H20 9487   2.740   5.649   7.626 -3.1523  0.0709  0.5141
   95CHL1   C21 9488   2.625   5.839   7.602 -0.8865 -0.1634 -0.1595
   95CHL1  H21A 9489   2.575   5.835   7.702 -1.9067  1.7342 -0.5474
   95CHL1  H21B 9490   2.552   5.797   7.530 -2.1932  1.9281 -0.1171
   95CHL1  H21C 9491   2.653   5.942   7.573 -1.6227  1.0255  2.9207
   95CHL1   C22 9492   2.862   5.803   7.716  0.3899  0.5705  0.1452
   95CHL1  H22A 9493   2.941   5.726   7.730 -2.5011 -2.6646  0.0071
   95CHL1  H22B 9494   2.910   5.896   7.679 -0.4612  0.6199 -0.8820
   95CHL1   C23 9495   2.795   5.824   7.850  0.2054 -0.3139  0.4916
   95CHL1  H23A 9496   2.733   5.915   7.859  0.3127  0.1423 -2.3368
   95CHL1  H23B 9497   2.717   5.749   7.876 -1.1114  0.3082 -1.4154
   95CHL1   C24 9498   2.896   5.834   7.967  0.2633  0.2993  0.3662
   95CHL1  H24A 9499   2.948   5.736   7.966 -0.6223 -0.1820 -0.9502
   95CHL1  H24B 9500   2.972   5.915   7.968  1.0437 -0.4205  0.1533
   95CHL1   C25 9501   2.825   5.833   8.106  0.3730 -0.4608  0.1609
   95CHL1   H25 9502   2.733   5.894   8.095  0.9039  0.2023 -0.7083
   95CHL1   C26 9503   2.776   5.691   8.139  0.3471  0.0298 -0.9771
   95CHL1  H26A 9504   2.711   5.704   8.228  1.5322  2.9067 -0.4248
   95CHL1  H26B 9505   2.720   5.644   8.055 -0.5790 -1.9882  0.6863
   95CHL1  H26C 9506   2.863   5.623   8.151  1.2638  0.3734 -4.4232
   95CHL1   C27 9507   2.910   5.880   8.229  0.2645 -0.3158  0.4833
   95CHL1  H27A 9508   3.008   5.833   8.212  0.9722  2.0164 -2.9283
   95CHL1  H27B 9509   2.916   5.991   8.227  1.4295 -0.3780 -0.8803
   95CHL1  H27C 9510   2.867   5.856   8.329  0.6548  2.7700  1.5055
   96CHL1    C3 9511   3.041   4.944   6.502 -0.6927  0.0539 -0.3692
   96CHL1    H3 9512   3.042   4.834   6.520 -4.1366 -0.1226 -0.6028
   96CHL1    O3 9513   3.058   4.961   6.363  0.1773 -0.0249 -0.2465
   96CHL1   H3' 9514   3.072   5.056   6.366 -1.0990  0.1721  2.3016
   96CHL1    C4 9515   2.902   4.996   6.555 -0.4063  0.4809 -0.3765
   96CHL1   H4A 9516   2.882   5.102   6.528 -3.5197  0.4605  1.3565
   96CHL1   H4B 9517   2.833   4.928   6.501  0.2921  1.1093 -2.1426
   96CHL1    C5 9518   2.902   4.989   6.714 -0.1129 -0.2950  0.2131
   96CHL1    C6 9519   2.797   4.926   6.774  0.0127  0.0845 -0.2196
   96CHL1    H6 9520   2.711   4.896   6.713  0.8977  0.8951 -1.9225
   96CHL1    C7 9521   2.781   4.909   6.919 -0.6320 -0.2926 -0.4707
   96CHL1   H7A 9522   2.677   4.933   6.952 -0.0658  0.4232  0.8615
   96CHL1   H7B 9523   2.805   4.805   6.952  1.9296 -0.0092 -1.2396
   96CHL1    C8 9524   2.865   5.015   6.997 -0.1251 -0.0317 -0.3368
   96CHL1    H8 9525   2.831   5.117   6.969  0.4713 -0.4825 -2.9294
   96CHL1   C14 9526   2.867   4.993   7.141 -0.6810  0.4404  0.1710
   96CHL1   H14 9527   2.893   4.886   7.155 -3.3269 -0.4371 -0.8737
   96CHL1   C15 9528   2.727   4.998   7.206 -0.1122 -0.1666  0.9804
   96CHL1  H15A 9529   2.676   5.086   7.161  0.2451 -0.2881  0.3292
   96CHL1  H15B 9530   2.665   4.908   7.186  0.7444 -1.0487  2.1873
   96CHL1   C16 9531   2.753   5.038   7.350  0.3635 -0.9641 -0.2364
   96CHL1  H16A 9532   2.707   5.139   7.361 -0.7886 -1.4360 -0.5347
   96CHL1  H16B 9533   2.698   4.969   7.417 -2.0346  2.4862  1.6666
   96CHL1   C17 9534   2.904   5.031   7.370  0.2621  0.1729  0.4184
   96CHL1   H17 9535   2.925   4.923   7.386 -0.0975  0.1980  1.1164
   96CHL1   C13 9536   2.964   5.070   7.236  0.7147 -0.3018 -0.0597
   96CHL1   C18 9537   2.938   5.224   7.216 -0.0360 -0.3413  1.0331
   96CHL1  H18A 9538   2.845   5.258   7.264 -1.5169 -2.6935  0.0145
   96CHL1  H18B 9539   3.017   5.296   7.247  0.5414  0.5945 -2.1942
   96CHL1  H18C 9540   2.927   5.253   7.109  1.0473  2.3170  1.5646
   96CHL1   C12 9541   3.102   5.023   7.197 -0.7964 -0.7046  0.3564
   96CHL1  H12A 9542   3.175   5.079   7.259 -3.2607 -0.9437  3.7342
   96CHL1  H12B 9543   3.111   4.913   7.210  1.6173 -0.8220 -1.5562
   96CHL1   C11 9544   3.123   5.054   7.040 -0.0892  0.4849 -0.2121
   96CHL1  H11A 9545   3.121   5.165   7.036 -0.3753  0.4657 -0.9097
   96CHL1  H11B 9546   3.222   5.025   6.999 -0.7548 -1.2068 -0.6943
   96CHL1    C9 9547   3.013   4.999   6.946  0.6926 -0.1885 -0.1711
   96CHL1    H9 9548   3.033   4.890   6.943  0.1015 -0.3213  0.4354
   96CHL1   C10 9549   3.024   5.035   6.798 -0.0116  0.1986 -0.1003
   96CHL1   C19 9550   3.027   5.194   6.788  0.6822  0.2836  0.7734
   96CHL1  H19A 9551   2.994   5.234   6.689  0.3881  0.2903  0.8728
   96CHL1  H19B 9552   2.963   5.231   6.871  0.4210  1.3632  0.1028
   96CHL1  H19C 9553   3.133   5.224   6.800  1.0833 -0.5059 -0.4791
   96CHL1    C1 9554   3.150   4.968   6.724  0.2207 -1.2068  0.5371
   96CHL1   H1A 9555   3.233   5.020   6.775 -1.6107  1.8262  0.6823
   96CHL1   H1B 9556   3.155   4.861   6.754 -0.7304 -1.2682  0.5182
   96CHL1    C2 9557   3.155   5.002   6.577 -0.3646  0.9996 -0.0778
   96CHL1   H2A 9558   3.251   4.965   6.537 -1.4100 -0.4334 -1.4110
   96CHL1   H2B 9559   3.154   5.112   6.563  1.0998  0.8524 -1.7265
   96CHL1   C20 9560   2.965   5.099   7.492 -0.3761 -0.2388 -0.4060
   96CHL1   H20 9561   2.985   5.206   7.470  1.5854 -0.4507  0.1214
   96CHL1   C21 9562   3.101   5.030   7.531 -0.0640 -0.3660 -0.3695
   96CHL1  H21A 9563   3.146   5.090   7.613 -4.5664  0.0143  2.1179
   96CHL1  H21B 9564   3.176   5.014   7.450 -0.7896  0.5951 -1.2621
   96CHL1  H21C 9565   3.077   4.928   7.568 -0.9233 -0.5782 -1.4663
   96CHL1   C22 9566   2.873   5.108   7.615  0.6347  0.5780 -0.1060
   96CHL1  H22A 9567   2.767   5.126   7.586  0.0123 -2.0171  0.3354
   96CHL1  H22B 9568   2.877   5.009   7.664  0.9430  1.0727  0.9001
   96CHL1   C23 9569   2.921   5.214   7.711 -0.7460  0.0873  0.3017
   96CHL1  H23A 9570   3.030   5.210   7.734 -0.9564  0.9281  1.5326
   96CHL1  H23B 9571   2.909   5.312   7.660  2.3846  0.6487  0.3922
   96CHL1   C24 9572   2.845   5.207   7.843 -0.1686 -0.5031  0.5583
   96CHL1  H24A 9573   2.738   5.227   7.819  0.5391  0.3164 -2.3689
   96CHL1  H24B 9574   2.855   5.105   7.886  2.3539 -1.5965 -2.1934
   96CHL1   C25 9575   2.895   5.305   7.942  0.3116  0.1415  0.3106
   96CHL1   H25 9576   3.005   5.289   7.946  0.5685  1.2177 -1.5044
   96CHL1   C26 9577   2.868   5.450   7.919  0.4326 -0.0665 -0.6400
   96CHL1  H26A 9578   2.919   5.506   8.001 -1.0346 -1.2269  1.1498
   96CHL1  H26B 9579   2.892   5.486   7.817  0.4293 -1.7408 -1.2556
   96CHL1  H26C 9580   2.759   5.461   7.941 -0.7574 -3.5567 -3.7308
   96CHL1   C27 9581   2.835   5.278   8.083 -0.1832 -0.3431 -0.2068
   96CHL1  H27A 9582   2.855   5.363   8.153 -2.2117  0.0983 -0.0980
   96CHL1  H27B 9583   2.725   5.279   8.095 -0.1338  0.8373  0.3633
   96CHL1  H27C 9584   2.880   5.192   8.137  1.0189 -0.6094 -1.5687
   97OSM      N 9585   0.341   6.786  11.233  0.4316  0.2190  0.4368
   97OSM    C15 9586   0.314   6.819  11.090 -0.1397 -0.0989  0.0220
   97OSM   H15A 9587   0.356   6.740  11.028  1.0968  1.3213 -1.0210
   97OSM   H15B 9588   0.362   6.908  11.053  2.4265 -1.6384 -0.6603
   97OSM   H15C 9589   0.207   6.819  11.079 -0.1809 -1.7182  0.0964
   97OSM    C14 9590   0.490   6.819  11.261  1.7369  0.2284 -0.4635
   97OSM   H14A 9591   0.506   6.777  11.359 -0.1258 -1.9245 -1.0032
   97OSM   H14B 9592   0.504   6.925  11.276 -1.0641  0.3736  1.9463
   97OSM   H14C 9593   0.568   6.777  11.199  0.2364  1.7591 -3.6424
   97OSM    C13 9594   0.254   6.864  11.319  0.1679  0.1446 -0.0731
   97OSM   H13A 9595   0.267   6.846  11.425 -1.4932  3.3800  0.8286
   97OSM   H13B 9596   0.151   6.852  11.288  0.0865  0.0069  0.2488
   97OSM   H13C 9597   0.272   6.970  11.313 -0.4993  0.2280 -0.7261
   97OSM    C12 9598   0.326   6.642  11.265 -1.0156  0.5996  0.1152
   97OSM   H12A 9599   0.223   6.622  11.242 -1.1827  0.4573  0.9938
   97OSM   H12B 9600   0.336   6.625  11.371  1.6967 -0.7463 -0.2611
   97OSM    C11 9601   0.426   6.546  11.194  0.1634 -0.2243 -0.1502
   97OSM   H11A 9602   0.427   6.457  11.260 -0.5740 -1.0292 -1.1712
   97OSM   H11B 9603   0.531   6.580  11.199  0.9497 -2.1844 -1.9520
   97OSM      P 9604   0.267   6.423  11.028 -0.2011  0.1405  0.0294
   97OSM    O13 9605   0.309   6.284  11.050  0.0539  0.1934  0.5732
   97OSM    O14 9606   0.144   6.469  11.095  0.0305  0.5923 -0.2360
   97OSM    O11 9607   0.260   6.432  10.869  0.2571 -0.0374 -0.2681
   97OSM    O12 9608   0.391   6.516  11.057  0.2264 -0.5269  0.0165
   97OSM    C1S 9609   0.218   6.558  10.811 -0.1518 -0.0688 -0.3260
   97OSM    H1S 9610   0.276   6.643  10.853  0.4446 -1.4747  1.8472
   97OSM    H1T 9611   0.109   6.573  10.828 -0.1044  1.9907 -1.4566
   97OSM     NF 9612   0.186   6.694  10.597 -0.0925  0.0654 -0.4390
   97OSM    HNF 9613   0.113   6.699  10.530 -1.2120  1.8513  0.8410
   97OSM    C2S 9614   0.230   6.567  10.652  0.2029 -0.3119 -0.3527
   97OSM    H2S 9615   0.341   6.558  10.647  0.3255  1.2925 -1.5879
   97OSM    C3S 9616   0.154   6.456  10.579 -0.0683  0.1035 -0.5335
   97OSM    H3S 9617   0.045   6.478  10.575  0.1091  1.8983  2.0265
   97OSM     O3 9618   0.169   6.322  10.632  0.5244 -0.5330 -0.1896
   97OSM    HO3 9619   0.218   6.329  10.714  0.4167 -0.1828 -0.1546
   97OSM    C4S 9620   0.213   6.450  10.442 -0.4228  0.2492  0.0662
   97OSM    H4S 9621   0.310   6.398  10.448 -1.4115 -1.6055  0.4986
   97OSM    C5S 9622   0.154   6.475  10.323  0.1553  0.2441 -0.5552
   97OSM    H5S 9623   0.046   6.497  10.329  0.2629  0.9465 -1.0327
   97OSM    C6S 9624   0.206   6.472  10.175  0.5573  0.2801 -0.2099
   97OSM    H6S 9625   0.219   6.573  10.130 -0.1729 -0.5551 -2.3906
   97OSM    H6T 9626   0.136   6.408  10.117  0.6761 -0.4106  0.3902
   97OSM    C7S 9627   0.360   6.423  10.167  0.5701  0.0700  0.3865
   97OSM    H7S 9628   0.382   6.341  10.238  0.5558 -0.3827 -0.1276
   97OSM    H7T 9629   0.412   6.517  10.195  1.8704  0.0657 -1.8250
   97OSM    C8S 9630   0.402   6.385  10.022  0.8099  0.4787 -0.5067
   97OSM    H8S 9631   0.349   6.292   9.993  0.8946 -0.4685  2.1214
   97OSM    H8T 9632   0.510   6.359  10.026  1.0673  1.5645  0.5583
   97OSM    C9S 9633   0.390   6.489   9.912  0.2402  0.5222  0.7047
   97OSM    H9S 9634   0.428   6.591   9.933 -2.2338  2.0589 -1.5653
   97OSM    H9T 9635   0.285   6.505   9.879 -0.1599 -0.1294  1.6384
   97OSM   C10S 9636   0.469   6.443   9.790 -0.0130  0.0796 -0.2922
   97OSM   H10S 9637   0.436   6.338   9.778 -0.6311  0.0411  1.3891
   97OSM   H10T 9638   0.579   6.434   9.806 -0.2530 -1.0759  0.9639
   97OSM   C11S 9639   0.448   6.519   9.660  0.2132  0.1862  0.2288
   97OSM   H11S 9640   0.495   6.619   9.666  2.1730 -0.7520  1.8150
   97OSM   H11T 9641   0.340   6.525   9.632 -0.1588 -0.6753  1.3875
   97OSM   C12S 9642   0.531   6.454   9.545  0.8279 -0.3247 -0.4861
   97OSM   H12S 9643   0.478   6.357   9.534 -1.0626  0.5622  0.3601
   97OSM   H12T 9644   0.639   6.439   9.566  0.8765  0.6776  0.0519
   97OSM   C13S 9645   0.516   6.535   9.412  0.4123 -0.0485  0.7635
   97OSM   H13S 9646   0.556   6.637   9.429  1.6434 -0.6373  1.5244
   97OSM   H13T 9647   0.409   6.544   9.382  0.7979 -1.8091 -1.3811
   97OSM   C14S 9648   0.596   6.469   9.298  0.2156  0.4530 -0.2836
   97OSM   H14S 9649   0.569   6.361   9.292  1.5699 -0.0957  2.3158
   97OSM   H14T 9650   0.702   6.472   9.330  0.5048  1.6825 -1.3043
   97OSM   C15S 9651   0.579   6.529   9.156  0.0116 -0.3811  0.3954
   97OSM   H15S 9652   0.471   6.525   9.134  0.1987 -0.7726 -0.4895
   97OSM   H15T 9653   0.645   6.466   9.092 -0.9798 -1.9789  0.8820
   97OSM   C16S 9654   0.627   6.671   9.137 -0.8026 -0.1266 -0.7269
   97OSM   H16S 9655   0.734   6.666   9.166 -0.3976  1.4166 -1.8634
   97OSM   H16T 9656   0.581   6.732   9.217 -2.1061 -1.3540 -0.4919
   97OSM   C17S 9657   0.621   6.737   9.000 -0.4984 -0.5340 -0.4071
   97OSM   H17S 9658   0.620   6.670   8.911  0.8195  0.3797 -1.1381
   97OSM   H17T 9659   0.708   6.804   8.984 -0.9407  0.1898  0.1291
   97OSM   C18S 9660   0.502   6.831   9.002  0.4078 -0.6173  0.2107
   97OSM   H18S 9661   0.480   6.847   8.895  0.5631 -0.4570  0.2018
   97OSM   H18T 9662   0.525   6.927   9.053 -1.0718 -0.1565  0.0514
   97OSM   H18U 9663   0.421   6.781   9.060  0.1598 -1.4798 -0.8433
   97OSM    C1F 9664   0.252   6.813  10.623 -0.3782 -0.0616 -0.1753
   97OSM     OF 9665   0.365   6.814  10.667 -0.2713  0.7302 -0.5879
   97OSM    C2F 9666   0.180   6.939  10.585 -0.5886 -0.1286 -0.0834
   97OSM    H2F 9667   0.182   7.015  10.666 -0.6647  0.7417 -0.8826
   97OSM    H2G 9668   0.075   6.909  10.569  0.1400 -1.1718 -3.8565
   97OSM    C3F 9669   0.244   7.016  10.463  0.3991 -0.7352 -0.4611
   97OSM    H3F 9670   0.348   7.051  10.479  0.0606  2.3882 -3.8656
   97OSM    H3G 9671   0.177   7.103  10.449 -1.1061 -1.5738  1.0805
   97OSM    C4F 9672   0.246   6.936  10.329  0.9621  1.0089  0.1033
   97OSM    H4F 9673   0.141   6.906  10.310 -0.2218  4.3409  0.7138
   97OSM    H4G 9674   0.310   6.846  10.340 -1.6514 -0.9606  0.1058
   97OSM    C5F 9675   0.281   7.009  10.198 -0.9140  0.0192  0.4288
   97OSM    H5F 9676   0.368   7.076  10.210 -0.8079 -0.0248 -0.0747
   97OSM    H5G 9677   0.189   7.062  10.165 -0.8375  0.6011  1.1083
   97OSM    C6F 9678   0.319   6.911  10.090 -0.2242  0.3731 -0.5579
   97OSM    H6F 9679   0.235   6.838  10.090  0.5544 -0.5500 -1.0150
   97OSM    H6G 9680   0.404   6.846  10.120 -1.5872 -1.3418 -0.2397
   97OSM    C7F 9681   0.345   6.975   9.954  0.2266 -0.3111  0.2154
   97OSM    H7F 9682   0.441   7.028   9.937 -1.0141  1.8741 -0.4198
   97OSM    H7G 9683   0.274   7.058   9.936  2.6750  1.4536 -2.1172
   97OSM    C8F 9684   0.322   6.880   9.839  0.0975 -0.0184 -0.4227
   97OSM    H8F 9685   0.376   6.784   9.857  0.5965  0.2178 -0.6541
   97OSM    H8G 9686   0.353   6.927   9.743  3.3366  0.1872  0.6129
   97OSM    C9F 9687   0.178   6.834   9.823  0.1903 -0.3655  0.5493
   97OSM    H9F 9688   0.117   6.828   9.914 -1.0761 -0.1687 -0.2537
   97OSM   C10F 9689   0.101   6.814   9.714  0.1623 -0.5864  0.5697
   97OSM   H10F 9690   0.003   6.766   9.722 -0.6078  0.6738 -0.8766
   97OSM   C11F 9691   0.146   6.824   9.572 -0.2542 -0.0267 -0.2936
   97OSM   H11F 9692   0.255   6.843   9.568 -0.5206  1.4414 -2.8466
   97OSM   H11G 9693   0.095   6.914   9.531  0.4620  0.7175  0.3883
   97OSM   C12F 9694   0.114   6.704   9.491  0.8621 -0.1818  0.3117
   97OSM   H12F 9695   0.022   6.662   9.536  0.9618 -0.8442 -0.0820
   97OSM   H12G 9696   0.204   6.639   9.501  0.0454 -1.4274 -0.2299
   97OSM   C13F 9697   0.089   6.737   9.347  0.4564 -0.2974  0.2356
   97OSM   H13F 9698   0.167   6.799   9.300  0.0857  2.2788  2.7273
   97OSM   H13G 9699  -0.005   6.794   9.330 -0.0806 -1.1284  0.3317
   97OSM   C14F 9700   0.076   6.615   9.259  0.9358  0.2773  0.1637
   97OSM   H14F 9701   0.011   6.541   9.311  0.8833  1.5664  2.0647
   97OSM   H14G 9702   0.174   6.570   9.233  1.4466  1.9700 -0.9901
   97OSM   C15F 9703   0.000   6.650   9.129  0.4464 -0.0895  0.7389
   97OSM   H15F 9704  -0.076   6.727   9.152  1.7142  1.5833 -0.3876
   97OSM   H15G 9705  -0.052   6.562   9.085  0.6287 -0.2632  0.8704
   97OSM   C16F 9706   0.100   6.719   9.031 -0.0403 -0.7326 -0.4648
   97OSM   H16F 9707   0.172   6.646   8.989  0.2602 -1.3378  1.0438
   97OSM   H16G 9708   0.152   6.800   9.085 -1.7072  0.3100 -0.3436
   97OSM   C17F 9709   0.032   6.789   8.916  0.0790  0.2140  0.0009
   97OSM   H17F 9710  -0.046   6.724   8.870 -0.3637  1.0466 -0.4355
   97OSM   H17G 9711   0.114   6.795   8.841 -0.7613 -0.5360 -1.0179
   97OSM   C18F 9712  -0.017   6.928   8.946 -0.4667  0.5454 -0.1038
   97OSM   H18F 9713   0.069   6.989   8.982 -0.7703  2.7562 -2.8355
   97OSM   H18G 9714  -0.077   6.934   9.040 -1.4675  0.4215 -0.7242
   97OSM   H18H 9715  -0.072   6.980   8.865 -2.0561 -0.7203  0.1126
   98OSM      N 9716   0.562   5.996  11.064  0.3055  0.1794 -0.2427
   98OSM    C15 9717   0.426   6.015  11.118 -0.4856  0.0608 -0.3950
   98OSM   H15A 9718   0.353   5.943  11.084 -0.4710  0.0456 -0.3942
   98OSM   H15B 9719   0.386   6.110  11.089  0.0273 -0.0692 -1.5523
   98OSM   H15C 9720   0.430   6.015  11.226 -1.1542 -0.2110 -0.3652
   98OSM    C14 9721   0.546   6.010  10.920 -0.0267  0.2557  1.0108
   98OSM   H14A 9722   0.549   6.112  10.885 -2.7499 -0.1834 -0.7688
   98OSM   H14B 9723   0.453   5.962  10.892 -0.1648  0.7163  0.6614
   98OSM   H14C 9724   0.623   5.960  10.864  0.2195  1.8712 -0.1646
   98OSM    C13 9725   0.656   6.101  11.117 -0.3102 -1.0085 -0.1462
   98OSM   H13A 9726   0.682   6.087  11.221  2.7532 -1.5901 -0.9121
   98OSM   H13B 9727   0.620   6.203  11.108  1.1198 -0.4949 -0.2235
   98OSM   H13C 9728   0.751   6.091  11.067 -0.1913  1.8403 -0.6453
   98OSM    C12 9729   0.613   5.851  11.095  0.1946  0.3005 -0.6970
   98OSM   H12A 9730   0.545   5.771  11.068  1.2797 -1.2743  1.0135
   98OSM   H12B 9731   0.628   5.853  11.202  1.3311 -1.2197 -0.8051
   98OSM    C11 9732   0.744   5.808  11.028 -0.0342  0.0757  0.7098
   98OSM   H11A 9733   0.724   5.781  10.922 -1.2740  3.0016  0.0865
   98OSM   H11B 9734   0.768   5.712  11.077  0.2113  0.4293  1.2966
   98OSM      P 9735   0.934   5.957  10.919 -0.2257 -0.2051 -0.8362
   98OSM    O13 9736   0.964   6.096  10.956  0.2465  0.2458 -0.7986
   98OSM    O14 9737   1.047   5.863  10.904 -0.1200 -0.0207 -0.0294
   98OSM    O11 9738   0.840   5.956  10.795  0.0981  0.2392  0.3594
   98OSM    O12 9739   0.841   5.905  11.039 -0.2067  0.1088 -0.3546
   98OSM    C1S 9740   0.826   6.066  10.709  0.3120  0.6088  0.7830
   98OSM    H1S 9741   0.911   6.136  10.719  1.3438 -0.6060  0.6712
   98OSM    H1T 9742   0.738   6.126  10.742  0.3131  0.4477  1.0831
   98OSM     NF 9743   0.766   6.166  10.495 -0.1044 -0.3694 -0.8214
   98OSM    HNF 9744   0.672   6.174  10.462 -0.2047  2.8001 -0.0812
   98OSM    C2S 9745   0.795   6.035  10.557  0.1511 -0.5056  0.7450
   98OSM    H2S 9746   0.891   5.998  10.515  0.2251  1.3192 -0.8309
   98OSM    C3S 9747   0.674   5.938  10.548  0.1363  0.5898  0.9319
   98OSM    H3S 9748   0.578   5.977  10.590 -1.0469  0.6865 -1.6872
   98OSM     O3 9749   0.688   5.816  10.622 -0.9007 -0.0788 -0.0815
   98OSM    HO3 9750   0.764   5.825  10.681 -2.2226 -1.3290  1.9522
   98OSM    C4S 9751   0.652   5.899  10.405 -0.0695 -0.8367 -0.3767
   98OSM    H4S 9752   0.749   5.858  10.373  0.7405  0.3952  0.3901
   98OSM    C5S 9753   0.549   5.929  10.324 -0.0113 -0.2604  0.5346
   98OSM    H5S 9754   0.471   5.996  10.363 -0.9179 -0.1121 -1.3970
   98OSM    C6S 9755   0.521   5.898  10.175 -0.1080 -0.5567 -0.0395
   98OSM    H6S 9756   0.517   5.994  10.119 -1.1951  0.1437  1.1732
   98OSM    H6T 9757   0.417   5.861  10.161 -0.2939  0.3774 -1.2870
   98OSM    C7S 9758   0.621   5.796  10.112 -0.9333  0.6476 -0.0377
   98OSM    H7S 9759   0.592   5.692  10.139 -1.6745  0.6840 -0.6391
   98OSM    H7T 9760   0.726   5.819  10.139 -0.5521  0.5612 -1.3908
   98OSM    C8S 9761   0.624   5.809   9.958 -0.4784 -0.8033  0.2323
   98OSM    H8S 9762   0.523   5.795   9.912 -0.3761  0.5926 -0.4862
   98OSM    H8T 9763   0.697   5.733   9.923  0.9866  0.2663  0.8754
   98OSM    C9S 9764   0.675   5.943   9.899 -0.0327 -0.0589 -0.4067
   98OSM    H9S 9765   0.771   5.982   9.940  0.2993  1.3520 -2.3503
   98OSM    H9T 9766   0.594   6.016   9.921 -1.7894 -2.6806  2.7703
   98OSM   C10S 9767   0.707   5.921   9.749 -0.0865 -0.4582 -0.0950
   98OSM   H10S 9768   0.618   5.871   9.705 -1.1868 -0.0129  1.5440
   98OSM   H10T 9769   0.790   5.857   9.712 -0.4713 -0.3560 -1.1759
   98OSM   C11S 9770   0.719   6.059   9.666  0.4792  0.7321 -0.9169
   98OSM   H11S 9771   0.816   6.111   9.685 -0.0066  2.0254 -1.8436
   98OSM   H11T 9772   0.625   6.115   9.683 -0.7198 -1.0817 -1.2240
   98OSM   C12S 9773   0.718   6.011   9.518  0.0363  0.3582 -0.2278
   98OSM   H12S 9774   0.624   5.953   9.506 -0.8819  0.6784  4.0318
   98OSM   H12T 9775   0.799   5.942   9.485  1.8375  1.6895  1.1944
   98OSM   C13S 9776   0.730   6.112   9.403  0.1150 -0.2389  0.2218
   98OSM   H13S 9777   0.826   6.165   9.423 -0.1124  0.1168  0.3970
   98OSM   H13T 9778   0.655   6.194   9.404  1.8611  1.4547 -0.9004
   98OSM   C14S 9779   0.741   6.053   9.267  0.5174  0.5963 -0.1739
   98OSM   H14S 9780   0.641   6.009   9.245  1.1734 -0.9117 -0.2748
   98OSM   H14T 9781   0.805   5.963   9.257 -0.8345 -0.3146 -1.0643
   98OSM   C15S 9782   0.784   6.154   9.163  0.6791 -0.2788 -0.1055
   98OSM   H15S 9783   0.888   6.187   9.186  0.4102  0.0852  0.6389
   98OSM   H15T 9784   0.707   6.234   9.164  0.4321 -0.5044 -0.7205
   98OSM   C16S 9785   0.785   6.105   9.020  0.4783  0.5194  0.1481
   98OSM   H16S 9786   0.683   6.112   8.975  0.6133  1.8146 -0.0128
   98OSM   H16T 9787   0.822   6.001   9.021 -0.1604  0.2861  1.7567
   98OSM   C17S 9788   0.882   6.185   8.928  0.1254  0.4659 -0.0327
   98OSM   H17S 9789   0.980   6.202   8.977  0.5722  1.6764 -1.2830
   98OSM   H17T 9790   0.835   6.285   8.919 -1.8225 -0.1483  2.4298
   98OSM   C18S 9791   0.897   6.124   8.781  0.3825 -0.6994 -0.3480
   98OSM   H18S 9792   0.795   6.133   8.738  0.0246  0.6167  0.6766
   98OSM   H18T 9793   0.909   6.014   8.776 -0.0847 -0.7078 -1.7956
   98OSM   H18U 9794   0.979   6.172   8.724  0.6543 -1.0498 -0.2500
   98OSM    C1F 9795   0.850   6.262  10.463 -0.1642  0.5098  0.3430
   98OSM     OF 9796   0.962   6.268  10.515  1.0505 -0.4623 -0.1958
   98OSM    C2F 9797   0.809   6.379  10.365  0.0957 -0.2899 -0.0633
   98OSM    H2F 9798   0.893   6.451  10.368 -1.0538  1.1235 -0.4673
   98OSM    H2G 9799   0.730   6.431  10.424 -0.2053  0.1049 -0.8073
   98OSM    C3F 9800   0.781   6.339  10.219 -0.3716  0.2404  0.0593
   98OSM    H3F 9801   0.750   6.430  10.164  0.7000  0.5882  0.0050
   98OSM    H3G 9802   0.693   6.271  10.215 -0.3788  0.2920 -2.4213
   98OSM    C4F 9803   0.895   6.254  10.152  0.1371  0.3179 -0.2047
   98OSM    H4F 9804   0.895   6.147  10.183 -1.3552  0.3325 -0.0394
   98OSM    H4G 9805   0.987   6.301  10.191  0.2953 -0.8065  0.8195
   98OSM    C5F 9806   0.884   6.248   9.990  0.4273 -0.1826 -1.0437
   98OSM    H5F 9807   0.776   6.220   9.979  0.4658 -0.3681 -0.9640
   98OSM    H5G 9808   0.961   6.177   9.955  0.2530 -0.2585 -1.2722
   98OSM    C6F 9809   0.892   6.383   9.921 -0.0757  0.1980 -0.4170
   98OSM    H6F 9810   0.982   6.442   9.950  0.1967 -0.2106 -0.4164
   98OSM    H6G 9811   0.808   6.449   9.950  0.4147  1.8090 -2.4523
   98OSM    C7F 9812   0.891   6.369   9.769 -0.8385  0.2094  0.5784
   98OSM    H7F 9813   0.801   6.316   9.730  0.8766 -0.3270 -3.1425
   98OSM    H7G 9814   0.977   6.308   9.735 -1.0769  1.3577 -2.4812
   98OSM    C8F 9815   0.904   6.498   9.678  0.5888  0.0388 -0.3698
   98OSM    H8F 9816   0.811   6.558   9.689 -0.4730 -1.4932 -0.6910
   98OSM    H8G 9817   0.885   6.465   9.573 -0.7438  0.5472 -0.3047
   98OSM    C9F 9818   1.031   6.575   9.711 -0.4004  1.2899  1.2643
   98OSM    H9F 9819   1.032   6.623   9.810  1.0855  0.3222  1.7569
   98OSM   C10F 9820   1.135   6.576   9.623  0.7764 -0.1365  0.8031
   98OSM   H10F 9821   1.221   6.642   9.637  1.3360 -0.5112 -0.6964
   98OSM   C11F 9822   1.143   6.512   9.489 -0.2931 -0.1841  0.1662
   98OSM   H11F 9823   1.111   6.406   9.497 -1.4730 -0.0754 -2.1029
   98OSM   H11G 9824   1.248   6.502   9.457 -0.4176 -2.6398  0.3405
   98OSM   C12F 9825   1.049   6.573   9.380 -0.0168  0.3803  0.4935
   98OSM   H12F 9826   1.058   6.682   9.360 -3.4123  0.6922  0.2495
   98OSM   H12G 9827   0.942   6.550   9.397 -0.1303 -1.3962 -2.0808
   98OSM   C13F 9828   1.082   6.510   9.242 -0.3684  0.3305  0.2163
   98OSM   H13F 9829   1.065   6.400   9.240 -2.6171  0.6359  0.4069
   98OSM   H13G 9830   1.188   6.526   9.213 -0.3316 -0.6810 -0.2571
   98OSM   C14F 9831   0.998   6.554   9.122 -0.6929 -0.0797 -0.1616
   98OSM   H14F 9832   0.961   6.657   9.142 -1.1788 -0.1193 -0.7945
   98OSM   H14G 9833   0.907   6.491   9.133  0.3752 -1.2656  2.9497
   98OSM   C15F 9834   1.068   6.548   8.990  0.2067  0.3501  0.3927
   98OSM   H15F 9835   1.087   6.443   8.957 -0.4063  0.4783 -0.4196
   98OSM   H15G 9836   1.159   6.611   8.986 -1.2514  2.5213 -0.5566
   98OSM   C16F 9837   0.986   6.590   8.869  0.8235  0.0743 -0.0662
   98OSM   H16F 9838   0.924   6.669   8.916  2.5957  0.0725  2.5146
   98OSM   H16G 9839   0.913   6.510   8.843 -0.2858  1.4489 -1.3619
   98OSM   C17F 9840   1.070   6.625   8.744 -0.2202 -0.3145 -0.0275
   98OSM   H17F 9841   1.139   6.704   8.778 -0.9252  0.1913  0.2640
   98OSM   H17G 9842   0.998   6.666   8.669  1.1514  1.7332 -0.3105
   98OSM   C18F 9843   1.141   6.508   8.682 -0.0794  0.5047  0.0288
   98OSM   H18F 9844   1.243   6.528   8.644  0.4607 -1.7229  0.1659
   98OSM   H18G 9845   1.083   6.458   8.602  0.7458  1.2627 -1.0761
   98OSM   H18H 9846   1.158   6.412   8.735 -1.9965  0.5951  0.8936
   99OSM      N 9847   1.859   0.890  11.022 -0.0245 -0.0953 -0.7038
   99OSM    C15 9848   2.006   0.906  11.081  0.9516 -0.0013  0.3360
   99OSM   H15A 9849   2.065   0.968  11.015  1.3478  0.7372  1.3603
   99OSM   H15B 9850   2.049   0.807  11.076 -1.9687 -1.3904  0.6140
   99OSM   H15C 9851   2.001   0.933  11.185 -1.1563  0.5795  0.1346
   99OSM    C14 9852   1.782   0.803  11.122 -0.3501 -0.5701  0.3711
   99OSM   H14A 9853   1.786   0.859  11.214 -2.8929  0.6804 -0.1908
   99OSM   H14B 9854   1.821   0.702  11.127  0.3005 -0.3945 -0.8215
   99OSM   H14C 9855   1.682   0.789  11.082 -0.4818 -0.3797  0.6311
   99OSM    C13 9856   1.788   1.019  11.029  0.2034 -0.5472 -0.4858
   99OSM   H13A 9857   1.839   1.099  10.977  1.8464 -2.1412 -1.4250
   99OSM   H13B 9858   1.782   1.054  11.131  0.3725  1.6189 -1.1741
   99OSM   H13C 9859   1.687   1.010  10.991 -0.9578  1.6558  1.8019
   99OSM    C12 9860   1.866   0.829  10.887  0.3061 -0.2003  0.1874
   99OSM   H12A 9861   1.923   0.739  10.899 -0.7140 -0.7765  0.7846
   99OSM   H12B 9862   1.921   0.901  10.828  0.6612  0.3820  1.2058
   99OSM    C11 9863   1.738   0.809  10.808 -0.4699 -0.3351  0.1305
   99OSM   H11A 9864   1.685   0.732  10.868 -1.0738  0.9056  1.2402
   99OSM   H11B 9865   1.776   0.782  10.707 -0.3879 -1.8168  0.5458
   99OSM      P 9866   1.501   0.913  10.817  0.6123  0.1697  0.1776
   99OSM    O13 9867   1.466   0.769  10.828 -0.2478  0.1871 -0.1910
   99OSM    O14 9868   1.459   1.001  10.924  0.5808 -0.6720 -0.0283
   99OSM    O11 9869   1.452   0.962  10.680 -0.6321 -0.3356  1.2360
   99OSM    O12 9870   1.660   0.924  10.795  0.4209  0.3758  0.1499
   99OSM    C1S 9871   1.540   0.938  10.567  0.1894  0.0226  0.8864
   99OSM    H1S 9872   1.576   0.834  10.559 -0.6435 -0.1520 -5.0599
   99OSM    H1T 9873   1.621   1.015  10.562 -1.4715  1.8044 -0.0230
   99OSM     NF 9874   1.549   0.900  10.321 -0.1490  0.1361  0.1481
   99OSM    HNF 9875   1.603   0.963  10.265 -0.5287 -0.5292 -1.0186
   99OSM    C2S 9876   1.467   0.960  10.430 -0.3409  0.5419  0.2872
   99OSM    H2S 9877   1.371   0.905  10.435 -0.0640  0.1018  0.8524
   99OSM    C3S 9878   1.438   1.112  10.404 -0.2092  0.0526 -0.1524
   99OSM    H3S 9879   1.529   1.164  10.369 -0.1287  0.1990  0.2734
   99OSM     O3 9880   1.392   1.179  10.513 -0.7150  0.3939  0.2406
   99OSM    HO3 9881   1.411   1.115  10.582  0.2069  1.8420  1.4062
   99OSM    C4S 9882   1.337   1.119  10.291 -0.2545 -0.0369 -0.0690
   99OSM    H4S 9883   1.378   1.132  10.190  0.2363  2.0587  0.3468
   99OSM    C5S 9884   1.199   1.103  10.291  0.2653  0.4368  0.1297
   99OSM    H5S 9885   1.147   1.086  10.387 -2.6755 -1.7885 -1.6771
   99OSM    C6S 9886   1.112   1.118  10.165  0.7539 -0.2590  0.0802
   99OSM    H6S 9887   1.063   1.218  10.170 -0.0629 -0.6875  0.9104
   99OSM    H6T 9888   1.029   1.047  10.181 -0.2259  0.7321 -0.4823
   99OSM    C7S 9889   1.175   1.092  10.034 -0.6065 -0.3091 -0.3926
   99OSM    H7S 9890   1.221   0.990  10.032  1.4976  0.5420  1.2118
   99OSM    H7T 9891   1.260   1.159  10.012 -2.0814  2.0837  0.7643
   99OSM    C8S 9892   1.069   1.109   9.926  0.3434 -0.3971  0.6399
   99OSM    H8S 9893   1.056   1.219   9.917  0.3005 -0.5774 -3.0296
   99OSM    H8T 9894   0.969   1.071   9.955  1.5267 -3.4574  1.1208
   99OSM    C9S 9895   1.112   1.042   9.788  0.1294 -0.3890 -0.8785
   99OSM    H9S 9896   1.090   0.933   9.794 -0.9022 -0.1313  0.7562
   99OSM    H9T 9897   1.216   1.066   9.759 -0.0480  0.7404 -0.6304
   99OSM   C10S 9898   1.016   1.100   9.679 -0.3218 -0.2733  0.1967
   99OSM   H10S 9899   1.035   1.210   9.678  1.1853 -0.4106  3.3770
   99OSM   H10T 9900   0.911   1.077   9.707 -0.5987  1.0274  0.3065
   99OSM   C11S 9901   1.059   1.047   9.542 -0.4289 -0.0610  0.2221
   99OSM   H11S 9902   1.039   0.939   9.554 -3.0100  0.5493  2.4812
   99OSM   H11T 9903   1.170   1.046   9.536 -0.4468  0.7613 -0.4756
   99OSM   C12S 9904   1.006   1.122   9.420  0.0922 -0.7439  0.0913
   99OSM   H12S 9905   0.896   1.138   9.421  0.3657  1.7347  1.8341
   99OSM   H12T 9906   1.047   1.225   9.432 -3.5470  0.6197  2.6147
   99OSM   C13S 9907   1.051   1.052   9.287 -0.1248 -0.1544 -0.1484
   99OSM   H13S 9908   1.026   0.945   9.303  0.1525 -0.0854  0.7818
   99OSM   H13T 9909   1.161   1.059   9.273 -0.1879 -1.7456 -1.9360
   99OSM   C14S 9910   0.989   1.111   9.160 -0.2332  0.1119  1.2345
   99OSM   H14S 9911   1.025   1.216   9.151 -1.3394  0.5757  2.0423
   99OSM   H14T 9912   0.879   1.106   9.172 -0.5201 -0.2098 -1.0241
   99OSM   C15S 9913   1.032   1.033   9.036 -0.4766 -0.6797 -0.2570
   99OSM   H15S 9914   1.046   0.926   9.061  0.8769 -0.6627 -0.8163
   99OSM   H15T 9915   1.129   1.070   8.994  0.3775 -1.4139  1.0174
   99OSM   C16S 9916   0.919   1.030   8.925 -0.1799  0.6319 -0.5866
   99OSM   H16S 9917   0.821   0.993   8.963 -0.7497  2.9360  0.3118
   99OSM   H16T 9918   0.954   0.948   8.858  1.3825 -0.1489  1.0957
   99OSM   C17S 9919   0.926   1.150   8.830  0.3332 -1.1999  0.1275
   99OSM   H17S 9920   1.031   1.166   8.797  0.1040 -0.2196 -0.1886
   99OSM   H17T 9921   0.903   1.242   8.887  0.9986  0.5401 -2.2240
   99OSM   C18S 9922   0.835   1.166   8.709  0.2965  0.0235 -0.3866
   99OSM   H18S 9923   0.735   1.119   8.723  0.1689  0.1378 -0.8680
   99OSM   H18T 9924   0.875   1.103   8.626  0.4084 -2.3697  1.3722
   99OSM   H18U 9925   0.824   1.272   8.678  0.0576  0.0870 -0.0858
   99OSM    C1F 9926   1.561   0.764  10.308  1.0500 -0.2699 -0.1509
   99OSM     OF 9927   1.494   0.696  10.387 -0.4135  0.0011 -0.1116
   99OSM    C2F 9928   1.650   0.709  10.196  0.3256 -0.0304  0.2440
   99OSM    H2F 9929   1.755   0.741  10.216  0.3777  0.5207 -0.8682
   99OSM    H2G 9930   1.609   0.744  10.100 -1.4525 -2.9154 -0.1904
   99OSM    C3F 9931   1.637   0.559  10.180 -0.4272  0.0715 -0.4459
   99OSM    H3F 9932   1.661   0.514  10.278  1.5665  1.2021 -0.3522
   99OSM    H3G 9933   1.535   0.523  10.154 -1.1538  0.0241  2.1457
   99OSM    C4F 9934   1.748   0.495  10.089 -0.2499 -0.1084 -0.6593
   99OSM    H4F 9935   1.842   0.544  10.121 -0.5006 -0.4838  0.7246
   99OSM    H4G 9936   1.744   0.522   9.982 -0.3277  0.3804 -0.5370
   99OSM    C5F 9937   1.778   0.347  10.112  0.2999 -0.2837  0.1121
   99OSM    H5F 9938   1.677   0.300  10.111 -0.3122  0.7779  3.2287
   99OSM    H5G 9939   1.815   0.333  10.215 -0.8759  3.6554  1.2273
   99OSM    C6F 9940   1.877   0.284  10.013  0.7156  0.0006 -0.9244
   99OSM    H6F 9941   1.910   0.188  10.058 -2.7013 -2.1222 -2.5636
   99OSM    H6G 9942   1.968   0.348  10.019  0.1973  0.7134 -0.6897
   99OSM    C7F 9943   1.818   0.247   9.876 -0.2887  0.2765  0.4562
   99OSM    H7F 9944   1.781   0.336   9.821 -0.0709  1.2936  1.8909
   99OSM    H7G 9945   1.734   0.174   9.890 -1.4699  1.1907 -1.5442
   99OSM    C8F 9946   1.926   0.181   9.786  0.1142 -0.3303  0.1071
   99OSM    H8F 9947   1.991   0.108   9.839 -0.8242 -2.5087 -1.5832
   99OSM    H8G 9948   1.985   0.266   9.746 -0.6234 -1.0487 -2.7686
   99OSM    C9F 9949   1.862   0.120   9.666 -0.3768 -0.2097 -0.1152
   99OSM    H9F 9950   1.785   0.047   9.693  0.2846 -0.0550  2.5408
   99OSM   C10F 9951   1.893   0.151   9.538  0.4488  0.5413  0.0288
   99OSM   H10F 9952   1.839   0.089   9.464  0.8783  1.9391 -1.5108
   99OSM   C11F 9953   1.997   0.243   9.486 -0.0079  0.3072 -0.2244
   99OSM   H11F 9954   2.093   0.192   9.463  2.1233  4.7438 -2.2674
   99OSM   H11G 9955   2.024   0.325   9.555 -0.4899 -0.9018  1.4767
   99OSM   C12F 9956   1.938   0.300   9.355 -0.7524  0.0020  0.0873
   99OSM   H12F 9957   1.983   0.398   9.328 -2.8244  0.7435 -0.8452
   99OSM   H12G 9958   1.832   0.328   9.370 -0.8464 -1.1992  2.0406
   99OSM   C13F 9959   1.951   0.216   9.235 -0.0492 -0.0758  0.2263
   99OSM   H13F 9960   1.884   0.132   9.263  0.1978 -0.0150  1.0264
   99OSM   H13G 9961   2.047   0.162   9.224  0.2664  0.2127  1.4069
   99OSM   C14F 9962   1.908   0.291   9.113  0.5050 -0.5143 -0.9837
   99OSM   H14F 9963   1.974   0.377   9.090  0.6663 -1.0418 -2.5965
   99OSM   H14G 9964   1.809   0.336   9.139  1.6454  0.9866  0.9949
   99OSM   C15F 9965   1.899   0.205   8.988 -0.3452 -0.2726  0.3129
   99OSM   H15F 9966   1.891   0.268   8.897  0.4602 -2.7702 -1.6069
   99OSM   H15G 9967   1.799   0.159   9.000 -1.4270  2.1579  1.3011
   99OSM   C16F 9968   2.006   0.094   8.969 -0.0792 -0.6753 -0.9270
   99OSM   H16F 9969   2.017   0.025   9.056  0.2577  0.7442  0.1953
   99OSM   H16G 9970   2.111   0.130   8.962  0.1205 -1.4409 -2.2669
   99OSM   C17F 9971   1.973   0.012   8.848 -0.3692 -0.4671  0.3391
   99OSM   H17F 9972   1.864  -0.008   8.835 -0.6180  0.2986  1.1474
   99OSM   H17G 9973   2.018  -0.089   8.855  1.3278  0.1968 -0.3721
   99OSM   C18F 9974   2.028   0.068   8.712  0.0841  0.2539 -0.0352
   99OSM   H18F 9975   1.973   0.164   8.701  0.1669  0.3870  0.6772
   99OSM   H18G 9976   2.013   0.003   8.623 -3.3597 -0.2131  0.7675
   99OSM   H18H 9977   2.133   0.099   8.733 -0.5777  1.2038  2.0845
  100OSM      N 9978   3.852   1.329  10.626 -0.0149  0.2808  0.2160
  100OSM    C15 9979   3.967   1.277  10.543  0.0590  0.2100 -0.1133
  100OSM   H15A 9980   4.052   1.267  10.610 -0.3405  1.9294  0.6806
  100OSM   H15B 9981   4.002   1.354  10.476  3.4004 -2.9675 -2.4803
  100OSM   H15C 9982   3.944   1.190  10.483 -0.6016  1.6757 -2.1063
  100OSM    C14 9983   3.891   1.454  10.699  0.3594 -0.4933 -0.4523
  100OSM   H14A 9984   3.924   1.530  10.629  1.0973 -0.0991  0.2989
  100OSM   H14B 9985   3.971   1.438  10.770 -0.6758 -0.1468  0.8362
  100OSM   H14C 9986   3.813   1.498  10.759 -0.1567 -0.6871 -0.9682
  100OSM    C13 9987   3.748   1.342  10.518  0.4064  0.0867 -0.8795
  100OSM   H13A 9988   3.721   1.241  10.494 -0.3872 -0.0348  0.4487
  100OSM   H13B 9989   3.772   1.401  10.430 -0.1631  0.9296 -0.4903
  100OSM   H13C 9990   3.664   1.394  10.562 -0.2720 -1.3423 -0.4568
  100OSM    C12 9991   3.813   1.228  10.737 -0.0630 -0.3636  0.8875
  100OSM   H12A 9992   3.879   1.235  10.822 -1.9766 -0.4093  2.4330
  100OSM   H12B 9993   3.837   1.132  10.695  2.3351  1.1706 -1.5912
  100OSM    C11 9994   3.675   1.230  10.798  0.3867  0.0391  0.4631
  100OSM   H11A 9995   3.651   1.337  10.816  2.3851  1.2985 -3.2692
  100OSM   H11B 9996   3.674   1.175  10.894 -2.1428 -1.2375 -0.2295
  100OSM      P 9997   3.570   1.022  10.682 -0.4550 -0.2004 -0.1684
  100OSM    O13 9998   3.587   0.955  10.808 -0.1893 -0.1079  1.3004
  100OSM    O14 9999   3.450   0.992  10.606  0.5545 -0.0622 -0.3180
  100OSM    O1110000   3.699   1.015  10.585 -0.1734  0.0207 -0.2938
  100OSM    O1210001   3.572   1.178  10.713 -0.2113  0.0920 -0.8891
  100OSM    C1S10002   3.743   0.880  10.553 -0.3264 -0.2478 -0.3144
  100OSM    H1S10003   3.708   0.805  10.627  0.8282  0.6491  1.1809
  100OSM    H1T10004   3.854   0.874  10.556 -0.2437  1.2900  1.6714
  100OSM     NF10005   3.710   0.689  10.384 -0.0429  0.1298  0.0292
  100OSM    HNF10006   3.765   0.664  10.305 -0.2834 -2.0146  0.4791
  100OSM    C2S10007   3.694   0.833  10.410  0.1992  0.1422  0.8070
  100OSM    H2S10008   3.586   0.854  10.391 -0.5558 -2.8915  1.1356
  100OSM    C3S10009   3.769   0.923  10.302 -0.0064 -0.1201  0.3448
  100OSM    H3S10010   3.879   0.906  10.308  0.3196  1.7286  0.3822
  100OSM     O310011   3.773   1.068  10.325 -0.0179  0.5933  0.0912
  100OSM    HO310012   3.753   1.070  10.419  3.0352  0.0643  0.8464
  100OSM    C4S10013   3.728   0.912  10.157  0.1923 -0.7149  0.8759
  100OSM    H4S10014   3.622   0.935  10.136  0.9233  1.2200 -1.0534
  100OSM    C5S10015   3.805   0.890  10.048  0.0165 -0.2682 -0.0323
  100OSM    H5S10016   3.913   0.878  10.064  0.3321 -0.4710 -1.9786
  100OSM    C6S10017   3.754   0.890   9.904 -0.1174  0.0715 -0.1563
  100OSM    H6S10018   3.670   0.820   9.882 -0.1197 -0.4683  1.3872
  100OSM    H6T10019   3.836   0.863   9.834 -1.3430  1.3069 -2.1513
  100OSM    C7S10020   3.717   1.038   9.881 -0.5138  0.6751  1.0786
  100OSM    H7S10021   3.783   1.122   9.908 -0.7995  1.0675  0.5763
  100OSM    H7T10022   3.626   1.034   9.946 -0.5660 -1.5506  0.9626
  100OSM    C8S10023   3.665   1.064   9.739 -1.1800  0.6906  0.3644
  100OSM    H8S10024   3.587   0.990   9.709  2.1061 -2.5484 -0.9447
  100OSM    H8T10025   3.753   1.056   9.672  0.2568 -1.9237  2.3427
  100OSM    C9S10026   3.606   1.204   9.710 -0.8766 -0.6123 -1.1382
  100OSM    H9S10027   3.674   1.274   9.762 -3.3744 -0.0567  1.6374
  100OSM    H9T10028   3.509   1.218   9.761  0.4723  1.6325  1.0132
  100OSM   C10S10029   3.576   1.235   9.565 -0.3854  0.7527  0.2928
  100OSM   H10S10030   3.497   1.164   9.534  1.2664 -1.1068  0.1095
  100OSM   H10T10031   3.661   1.212   9.497 -0.3441  0.5315  0.4171
  100OSM   C11S10032   3.544   1.384   9.527  0.2879 -0.0207 -0.0223
  100OSM   H11S10033   3.630   1.443   9.566 -0.2216  0.4988  0.3346
  100OSM   H11T10034   3.451   1.412   9.581  0.6583  2.3524 -0.4854
  100OSM   C12S10035   3.544   1.417   9.374  0.4623  0.3640 -0.5099
  100OSM   H12S10036   3.643   1.405   9.326  0.0414 -3.0123 -0.7689
  100OSM   H12T10037   3.518   1.525   9.378  4.2530  1.4589 -1.3617
  100OSM   C13S10038   3.424   1.340   9.310 -0.1829  0.6263 -0.3003
  100OSM   H13S10039   3.339   1.343   9.381  1.8472 -1.0814  2.4303
  100OSM   H13T10040   3.456   1.233   9.307  2.9659  1.4293  1.0517
  100OSM   C14S10041   3.386   1.397   9.176 -0.1971  0.1651 -0.2760
  100OSM   H14S10042   3.375   1.506   9.192 -1.2396  0.0450 -0.1107
  100OSM   H14T10043   3.287   1.350   9.158  0.4879 -2.0881  1.3811
  100OSM   C15S10044   3.483   1.360   9.062 -0.5274 -1.0067  0.1257
  100OSM   H15S10045   3.468   1.257   9.024 -0.9815 -0.8754 -0.0552
  100OSM   H15T10046   3.584   1.386   9.100 -0.5118  0.0054 -0.5738
  100OSM   C16S10047   3.463   1.451   8.937  0.5984 -0.0265 -0.2803
  100OSM   H16S10048   3.535   1.535   8.947  2.8991 -2.1592  3.7758
  100OSM   H16T10049   3.359   1.487   8.944 -0.8430 -3.6676 -0.6123
  100OSM   C17S10050   3.469   1.377   8.805 -0.3074 -0.1860 -0.2162
  100OSM   H17S10051   3.387   1.302   8.811  0.7586 -1.4531 -0.8724
  100OSM   H17T10052   3.559   1.315   8.822  0.0141  0.1787 -0.5794
  100OSM   C18S10053   3.480   1.462   8.673 -0.0360  0.8447 -0.0088
  100OSM   H18S10054   3.473   1.402   8.580  0.6930  4.3357 -2.5055
  100OSM   H18T10055   3.561   1.538   8.671 -0.7025  1.5534 -0.7576
  100OSM   H18U10056   3.384   1.515   8.655 -1.8426 -2.4247 -0.9304
  100OSM    C1F10057   3.637   0.601  10.451 -0.6876  0.3195 -0.2816
  100OSM     OF10058   3.552   0.631  10.531  0.3814 -0.6102 -0.2853
  100OSM    C2F10059   3.650   0.451  10.416  0.1227 -0.1873 -0.4651
  100OSM    H2F10060   3.554   0.396  10.425 -0.9205  1.6515  0.0614
  100OSM    H2G10061   3.731   0.412  10.481 -1.2144 -0.9477  0.8133
  100OSM    C3F10062   3.690   0.425  10.265 -0.8123  0.1400  0.2586
  100OSM    H3F10063   3.685   0.315  10.257  2.4355 -0.1073  0.1795
  100OSM    H3G10064   3.799   0.441  10.248 -0.9194  1.1037  0.3993
  100OSM    C4F10065   3.586   0.486  10.176  0.1599 -0.6422 -0.6933
  100OSM    H4F10066   3.608   0.593  10.156 -0.6809 -0.2099  0.5817
  100OSM    H4G10067   3.488   0.480  10.228 -0.1398  1.8865 -0.8577
  100OSM    C5F10068   3.577   0.426  10.038  0.4515 -0.1617  0.2690
  100OSM    H5F10069   3.505   0.494   9.987  0.5875  0.9489  1.5080
  100OSM    H5G10070   3.546   0.320  10.046 -1.5807  0.4832  1.6164
  100OSM    C6F10071   3.719   0.424   9.973 -0.2445 -0.3073 -0.0724
  100OSM    H6F10072   3.789   0.359  10.030  1.7864  0.9790 -0.9988
  100OSM    H6G10073   3.764   0.525   9.971  0.6717 -0.6643  1.2608
  100OSM    C7F10074   3.708   0.373   9.838 -0.0853  0.3121  0.0771
  100OSM    H7F10075   3.626   0.428   9.787 -0.4060  2.3759  2.6061
  100OSM    H7G10076   3.680   0.266   9.841 -0.5664  0.4190 -0.5298
  100OSM    C8F10077   3.830   0.394   9.742  0.5372  1.3618 -0.8831
  100OSM    H8F10078   3.796   0.349   9.646 -0.5505  0.9296 -0.3106
  100OSM    H8G10079   3.911   0.324   9.775  0.3419  0.4338 -2.2802
  100OSM    C9F10080   3.886   0.529   9.728 -0.4518 -0.1037  0.5681
  100OSM    H9F10081   3.955   0.549   9.811 -1.5115  1.0742  1.2050
  100OSM   C10F10082   3.854   0.622   9.637  0.3284 -0.1836  0.4195
  100OSM   H10F10083   3.889   0.723   9.663  0.5267 -0.4179  1.0815
  100OSM   C11F10084   3.747   0.615   9.532 -0.5775  0.3588 -0.0915
  100OSM   H11F10085   3.710   0.510   9.539 -0.2425  0.3491  2.2686
  100OSM   H11G10086   3.786   0.632   9.429  0.1942  2.2433  0.4648
  100OSM   C12F10087   3.624   0.708   9.557 -0.0388 -0.1305 -0.5436
  100OSM   H12F10088   3.655   0.814   9.568  1.4837 -0.4652 -1.3153
  100OSM   H12G10089   3.569   0.666   9.644 -0.3755 -0.6539 -1.0032
  100OSM   C13F10090   3.535   0.720   9.437 -0.4201  0.0679 -0.3139
  100OSM   H13F10091   3.483   0.627   9.407 -0.4740 -1.0533  2.8743
  100OSM   H13G10092   3.601   0.747   9.352  0.5302  0.4273  0.5098
  100OSM   C14F10093   3.428   0.833   9.451 -0.2985  0.4949 -0.3008
  100OSM   H14F10094   3.439   0.881   9.551  0.9845  0.3386 -0.3490
  100OSM   H14G10095   3.326   0.789   9.444 -0.1314 -0.1494  1.0370
  100OSM   C15F10096   3.441   0.946   9.352 -0.1970  0.1551  0.9450
  100OSM   H15F10097   3.547   0.978   9.357 -0.3859  0.8746  0.4913
  100OSM   H15G10098   3.377   1.035   9.374  0.8976  1.5314 -1.0423
  100OSM   C16F10099   3.416   0.895   9.204 -0.4713  0.5971 -0.6533
  100OSM   H16F10100   3.489   0.817   9.176 -1.2597 -1.9882  3.5934
  100OSM   H16G10101   3.430   0.985   9.140  0.2987  1.4917  0.7213
  100OSM   C17F10102   3.282   0.837   9.179 -0.0131 -0.0682 -0.0613
  100OSM   H17F10103   3.220   0.916   9.228  1.1952 -0.2114  1.8041
  100OSM   H17G10104   3.263   0.740   9.229 -0.8502 -0.6816 -1.4955
  100OSM   C18F10105   3.249   0.826   9.028  0.9069  0.4788 -0.0760
  100OSM   H18F10106   3.322   0.751   8.990  1.5034 -0.1167  2.1073
  100OSM   H18G10107   3.254   0.918   8.965 -2.4491 -1.4068 -3.5166
  100OSM   H18H10108   3.152   0.775   9.010  0.9224  0.4179  0.0161
  101OSM      N10109   0.883   0.108  11.413  0.4597 -0.4723 -0.3049
  101OSM    C1510110   0.837  -0.029  11.464 -0.0314  0.1666 -0.8056
  101OSM   H15A10111   0.767  -0.013  11.545  1.6413  3.0035  0.2289
  101OSM   H15B10112   0.924  -0.084  11.497  1.5150  1.3578 -2.6235
  101OSM   H15C10113   0.791  -0.092  11.389  0.0351 -0.3673 -0.4004
  101OSM    C1410114   0.768   0.205  11.417  0.4069  0.7502 -0.5191
  101OSM   H14A10115   0.788   0.311  11.423 -0.6322  0.8795  1.9663
  101OSM   H14B10116   0.713   0.193  11.509  0.9878  0.8074 -0.1606
  101OSM   H14C10117   0.698   0.183  11.338  0.4922  1.4277 -0.7941
  101OSM    C1310118   0.997   0.154  11.505 -0.6272  0.2878  0.7031
  101OSM   H13A10119   1.062   0.067  11.509  0.6914  1.1434 -0.7706
  101OSM   H13B10120   0.965   0.173  11.606 -2.2934 -0.5208  0.3685
  101OSM   H13C10121   1.053   0.240  11.472  1.0618 -0.4115  1.6335
  101OSM    C1210122   0.941   0.097  11.272  0.7520  0.0864  0.1421
  101OSM   H12A10123   1.030   0.036  11.279  0.1665 -0.7558  0.4295
  101OSM   H12B10124   0.970   0.198  11.247  0.6972  0.2415  0.6853
  101OSM    C1110125   0.843   0.039  11.170  0.0431  0.2877 -0.6918
  101OSM   H11A10126   0.893   0.041  11.071 -0.2667 -0.2993 -0.8610
  101OSM   H11B10127   0.758   0.109  11.150 -1.3620 -1.2813 -0.4611
  101OSM      P10128   0.836  -0.209  11.111  0.5054  0.0100  0.5277
  101OSM    O1310129   0.984  -0.220  11.120  0.1082  0.0585  0.0323
  101OSM    O1410130   0.752  -0.319  11.163 -0.3000  0.0894  0.1939
  101OSM    O1110131   0.793  -0.179  10.957  0.2212  0.1797  0.1667
  101OSM    O1210132   0.784  -0.088  11.193 -0.3555  0.4059  0.3902
  101OSM    C1S10133   0.673  -0.102  10.928  0.2486  0.2399 -0.0453
  101OSM    H1S10134   0.663  -0.026  11.008  0.9184  0.7597 -0.4455
  101OSM    H1T10135   0.581  -0.163  10.926 -0.0265  0.6633 -1.4386
  101OSM     NF10136   0.597   0.078  10.784  0.1516  0.1622 -0.0368
  101OSM    HNF10137   0.513   0.048  10.740  1.0582 -1.3143 -0.8733
  101OSM    C2S10138   0.694  -0.037  10.793  0.1116 -0.4381 -0.4341
  101OSM    H2S10139   0.797   0.003  10.786  0.3070 -0.9302 -0.4584
  101OSM    C3S10140   0.682  -0.152  10.675  0.4053  0.0990  0.2378
  101OSM    H3S10141   0.580  -0.195  10.671  0.6079 -0.2986 -0.8485
  101OSM     O310142   0.761  -0.267  10.703 -0.1407 -0.0154 -0.2958
  101OSM    HO310143   0.800  -0.243  10.787  1.6547 -0.0623 -1.0761
  101OSM    C4S10144   0.710  -0.097  10.536  0.1926  0.1998 -0.5336
  101OSM    H4S10145   0.811  -0.056  10.520  0.7323 -1.2251 -0.9275
  101OSM    C5S10146   0.623  -0.106  10.434  0.7802 -0.3357 -0.0430
  101OSM    H5S10147   0.529  -0.161  10.447 -0.2814  1.0355 -1.5385
  101OSM    C6S10148   0.655  -0.045  10.299 -0.2347  0.7014 -0.3045
  101OSM    H6S10149   0.616   0.058  10.285 -3.2904 -0.0852  1.5151
  101OSM    H6T10150   0.603  -0.095  10.214  0.5234  0.8065 -0.8393
  101OSM    C7S10151   0.800  -0.082  10.263 -0.7268  0.0764  0.3568
  101OSM    H7S10152   0.834  -0.175  10.314 -1.3552 -0.1281  0.4167
  101OSM    H7T10153   0.866  -0.000  10.298  1.0670 -2.1505  2.6091
  101OSM    C8S10154   0.835  -0.103  10.119 -0.3010 -0.4538 -0.4245
  101OSM    H8S10155   0.811  -0.209  10.095 -0.2968 -0.0877 -2.1428
  101OSM    H8T10156   0.946  -0.092  10.112 -0.0309 -2.4276  0.0928
  101OSM    C9S10157   0.783   0.004  10.018 -0.2382 -0.3726  0.0805
  101OSM    H9S10158   0.823   0.108  10.021 -1.8524  0.2781  2.6755
  101OSM    H9T10159   0.672   0.009  10.023 -0.7897 -2.9772 -4.3812
  101OSM   C10S10160   0.799  -0.047   9.870  0.7566 -0.3683  0.6040
  101OSM   H10S10161   0.764  -0.151   9.855 -2.4473  0.9963 -3.2135
  101OSM   H10T10162   0.907  -0.052   9.847  0.6517  0.9928 -0.2949
  101OSM   C11S10163   0.744   0.053   9.761  0.3883  0.2151  0.0920
  101OSM   H11S10164   0.778   0.159   9.770 -2.5176  1.2157  0.4265
  101OSM   H11T10165   0.633   0.051   9.762  0.3364  0.8259 -1.7635
  101OSM   C12S10166   0.796  -0.000   9.629  0.4362  0.4734 -0.2474
  101OSM   H12S10167   0.746  -0.096   9.601 -1.0773  0.7750  1.1995
  101OSM   H12T10168   0.904  -0.022   9.641  0.1112 -0.2582  1.8016
  101OSM   C13S10169   0.775   0.098   9.515  0.1472  0.2114  0.2491
  101OSM   H13S10170   0.834   0.190   9.534 -0.9313  0.6895  1.3984
  101OSM   H13T10171   0.667   0.123   9.510 -0.2236 -1.1812  1.0117
  101OSM   C14S10172   0.820   0.048   9.377  0.5783 -0.2980 -0.1753
  101OSM   H14S10173   0.786  -0.058   9.381 -0.9925  0.2114  2.4230
  101OSM   H14T10174   0.931   0.056   9.364  0.6259 -1.5047 -0.6698
  101OSM   C15S10175   0.759   0.124   9.255 -0.4858 -0.9977  0.3084
  101OSM   H15S10176   0.648   0.130   9.250 -0.4875  0.9777  1.4419
  101OSM   H15T10177   0.790   0.058   9.171  2.5010 -2.2561  2.2086
  101OSM   C16S10178   0.823   0.258   9.220  0.2171 -0.1551  0.2825
  101OSM   H16S10179   0.928   0.229   9.199 -0.2861 -1.5524 -0.4602
  101OSM   H16T10180   0.837   0.330   9.303  3.8006  0.3948 -0.6234
  101OSM   C17S10181   0.770   0.312   9.083 -0.2103  0.1170 -0.1521
  101OSM   H17S10182   0.750   0.224   9.018  0.4977  0.4598 -0.8569
  101OSM   H17T10183   0.851   0.371   9.035  1.6370 -1.0877  1.3143
  101OSM   C18S10184   0.647   0.403   9.079  0.1631 -0.5815  0.1431
  101OSM   H18S10185   0.674   0.504   9.114 -0.1718 -0.8724  1.2981
  101OSM   H18T10186   0.585   0.362   9.161 -0.1175 -0.4819 -0.0174
  101OSM   H18U10187   0.598   0.395   8.979  1.0461 -0.2438 -0.3257
  101OSM    C1F10188   0.591   0.193  10.851  0.0243  0.3605  0.0991
  101OSM     OF10189   0.692   0.251  10.899 -0.3813 -0.2025 -0.3771
  101OSM    C2F10190   0.447   0.253  10.861  0.2151 -0.0835  0.0858
  101OSM    H2F10191   0.400   0.219  10.956  1.2351 -4.5472 -0.7676
  101OSM    H2G10192   0.388   0.216  10.773  2.5680  0.4514 -1.8255
  101OSM    C3F10193   0.443   0.403  10.839  0.0110 -0.0499 -0.2734
  101OSM    H3F10194   0.477   0.449  10.933  2.6447 -1.1915 -0.5811
  101OSM    H3G10195   0.337   0.435  10.825  0.4020  1.4481  0.0697
  101OSM    C4F10196   0.527   0.454  10.723 -0.4858 -0.0025  0.3473
  101OSM    H4F10197   0.504   0.387  10.637 -1.7395 -0.7004  1.1840
  101OSM    H4G10198   0.637   0.457  10.735 -0.4301 -1.4323  0.2977
  101OSM    C5F10199   0.490   0.600  10.683 -0.6444 -0.2768  0.8343
  101OSM    H5F10200   0.532   0.673  10.755 -1.1309  2.0258 -1.0959
  101OSM    H5G10201   0.381   0.620  10.696 -0.8816 -2.0011  1.8498
  101OSM    C6F10202   0.542   0.615  10.539 -0.3365 -0.1537  0.0892
  101OSM    H6F10203   0.645   0.575  10.532 -0.7351 -1.0862 -0.6438
  101OSM    H6G10204   0.473   0.553  10.477  1.3209 -0.5942 -1.4112
  101OSM    C7F10205   0.533   0.757  10.489 -0.4331  0.2970 -0.9376
  101OSM    H7F10206   0.571   0.834  10.560  0.4715 -0.0555 -1.0206
  101OSM    H7G10207   0.427   0.789  10.483 -1.1082 -1.5080  0.5140
  101OSM    C8F10208   0.610   0.777  10.355  0.9854 -0.4998 -0.2152
  101OSM    H8F10209   0.707   0.723  10.363  1.8282  0.9923  0.2341
  101OSM    H8G10210   0.644   0.883  10.344  1.4348 -0.6155  0.0437
  101OSM    C9F10211   0.549   0.715  10.235  0.3303  0.2685  0.4378
  101OSM    H9F10212   0.569   0.609  10.214  0.9687  0.4668  0.0133
  101OSM   C10F10213   0.478   0.782  10.144 -0.8006 -0.7692  0.2652
  101OSM   H10F10214   0.441   0.731  10.054 -1.6212 -0.2289  0.2917
  101OSM   C11F10215   0.440   0.926  10.141 -0.3687 -0.1635 -0.1683
  101OSM   H11F10216   0.471   0.982  10.231 -0.5208  1.6984 -1.2376
  101OSM   H11G10217   0.329   0.931  10.136 -0.5061 -1.4658  0.8020
  101OSM   C12F10218   0.509   0.998  10.017  0.0671  0.2842 -0.1202
  101OSM   H12F10219   0.617   0.986  10.036 -0.2084  0.4374  1.7529
  101OSM   H12G10220   0.485   1.106  10.006 -3.0479 -0.5384 -3.0067
  101OSM   C13F10221   0.477   0.947   9.877 -0.1760  1.0020  0.4495
  101OSM   H13F10222   0.371   0.938   9.844 -0.1965  1.1741  0.4710
  101OSM   H13G10223   0.508   0.841   9.866  1.2927  1.4477  0.0556
  101OSM   C14F10224   0.549   1.016   9.763 -0.5019 -0.7687  0.1815
  101OSM   H14F10225   0.656   0.994   9.785 -0.2936  0.7543  0.8640
  101OSM   H14G10226   0.546   1.127   9.769  3.3353 -0.5445  0.3043
  101OSM   C15F10227   0.508   0.964   9.631  0.2121  0.4634  0.3688
  101OSM   H15F10228   0.400   0.983   9.613  0.4884  0.1617 -2.0437
  101OSM   H15G10229   0.518   0.854   9.619  0.9035  0.4825  0.6655
  101OSM   C16F10230   0.587   1.028   9.516 -0.0540 -0.3492  0.1458
  101OSM   H16F10231   0.696   1.008   9.528  0.0503 -1.0020 -1.6248
  101OSM   H16G10232   0.567   1.137   9.521 -1.6046 -0.5878 -0.3194
  101OSM   C17F10233   0.548   0.974   9.378  0.1095  0.0844  0.0142
  101OSM   H17F10234   0.440   0.950   9.377  0.1436 -0.2993  1.9066
  101OSM   H17G10235   0.593   0.873   9.373  1.2258  0.3093  3.2096
  101OSM   C18F10236   0.591   1.065   9.265 -0.4574  0.3034 -0.1170
  101OSM   H18F10237   0.591   1.016   9.165  1.1106  1.9321 -0.9577
  101OSM   H18G10238   0.692   1.102   9.293 -1.9727  3.2338  2.0039
  101OSM   H18H10239   0.537   1.161   9.254  0.0761  0.4842 -1.2264
  102OSM      N10240   1.943   4.439  10.795  0.3701  0.1074  0.2280
  102OSM    C1510241   1.844   4.393  10.894  0.7185  0.0941  0.3216
  102OSM   H15A10242   1.742   4.387  10.857  0.8276  1.1690 -0.1794
  102OSM   H15B10243   1.822   4.467  10.969  1.1661  0.7874 -0.2248
  102OSM   H15C10244   1.874   4.302  10.944  1.9181  0.5380  0.4240
  102OSM    C1410245   1.870   4.545  10.714 -0.1536  0.7978 -0.5651
  102OSM   H14A10246   1.773   4.506  10.688 -1.2543  1.4995  2.1463
  102OSM   H14B10247   1.928   4.581  10.630  0.3113  4.4808  1.1534
  102OSM   H14C10248   1.840   4.634  10.767  0.6952 -0.4069  2.0988
  102OSM    C1310249   2.068   4.498  10.864 -0.1273 -0.3871  0.3425
  102OSM   H13A10250   2.124   4.418  10.909  0.6766 -1.7597 -2.8570
  102OSM   H13B10251   2.035   4.572  10.936 -1.7718 -1.3078  0.5953
  102OSM   H13C10252   2.137   4.554  10.803 -1.5985  0.9371 -0.1958
  102OSM    C1210253   1.984   4.333  10.695 -0.2134 -0.3571 -0.1108
  102OSM   H12A10254   1.896   4.314  10.635  0.6395 -0.3298 -1.4148
  102OSM   H12B10255   2.001   4.243  10.751  2.3275  0.6259  0.8807
  102OSM    C1110256   2.103   4.349  10.600 -0.6749 -0.0556 -0.0809
  102OSM   H11A10257   2.074   4.435  10.535 -1.4491  1.1464  1.7645
  102OSM   H11B10258   2.106   4.261  10.532  1.1826  1.2969 -1.8543
  102OSM      P10259   2.355   4.301  10.661 -0.2741  0.0705 -0.5866
  102OSM    O1310260   2.454   4.366  10.752  0.7066  0.6360 -0.1114
  102OSM    O1410261   2.328   4.159  10.686  0.8643  0.3037  0.3626
  102OSM    O1110262   2.401   4.321  10.512 -0.4203  0.7904  0.1593
  102OSM    O1210263   2.228   4.388  10.663 -0.2528 -0.2384 -0.3798
  102OSM    C1S10264   2.523   4.403  10.487  0.2701 -0.2189  0.3097
  102OSM    H1S10265   2.613   4.352  10.527  2.3940  2.5188 -0.6148
  102OSM    H1T10266   2.510   4.501  10.537 -3.0495 -0.2941 -0.2018
  102OSM     NF10267   2.670   4.467  10.296  0.4983  0.2837 -0.0647
  102OSM    HNF10268   2.691   4.559  10.266  0.5910 -0.0344 -1.0102
  102OSM    C2S10269   2.536   4.431  10.334  0.3028 -0.5418  1.3149
  102OSM    H2S10270   2.509   4.335  10.284 -4.0185  0.7154  0.7918
  102OSM    C3S10271   2.430   4.537  10.296  0.0131 -0.6524 -0.3476
  102OSM    H3S10272   2.453   4.634  10.346 -1.5889  0.2237 -1.2206
  102OSM     O310273   2.296   4.501  10.338 -0.0552 -0.0768  0.2005
  102OSM    HO310274   2.310   4.424  10.394  1.0657 -2.3087 -2.8751
  102OSM    C4S10275   2.436   4.568  10.146  0.8071  0.0677  0.0304
  102OSM    H4S10276   2.527   4.621  10.115  1.2038 -1.3694 -1.3808
  102OSM    C5S10277   2.356   4.533  10.040 -0.1955 -0.0110 -0.4194
  102OSM    H5S10278   2.266   4.477  10.069  1.2984 -1.3871  1.8251
  102OSM    C6S10279   2.371   4.563   9.890 -0.5950  0.7671  0.1686
  102OSM    H6S10280   2.404   4.666   9.869 -1.2024  1.3589  1.9340
  102OSM    H6T10281   2.275   4.554   9.835  0.1593 -2.6797 -0.8320
  102OSM    C7S10282   2.479   4.472   9.823  0.0683  0.3368  0.2621
  102OSM    H7S10283   2.475   4.372   9.870 -3.4708  0.7863  1.1597
  102OSM    H7T10284   2.575   4.523   9.847  0.2013  1.3152 -2.0850
  102OSM    C8S10285   2.475   4.447   9.667 -0.2742 -0.3079 -0.5178
  102OSM    H8S10286   2.378   4.397   9.649 -0.0827 -2.3016  2.9455
  102OSM    H8T10287   2.553   4.369   9.649  2.0384  1.1293  2.4225
  102OSM    C9S10288   2.514   4.564   9.586  0.1752 -0.3389 -0.2054
  102OSM    H9S10289   2.622   4.585   9.603 -0.3669  1.7803  0.9391
  102OSM    H9T10290   2.464   4.661   9.606 -0.9129 -1.1653  1.2147
  102OSM   C10S10291   2.487   4.542   9.435 -0.1229 -0.0083  0.1928
  102OSM   H10S10292   2.555   4.462   9.397 -0.2355 -0.2010  0.3973
  102OSM   H10T10293   2.512   4.637   9.382  0.1962 -0.9701 -1.4548
  102OSM   C11S10294   2.342   4.504   9.406  0.2548 -0.7657 -1.1592
  102OSM   H11S10295   2.277   4.562   9.474  1.2382 -1.7949  0.7453
  102OSM   H11T10296   2.331   4.396   9.432 -0.8711 -0.7168 -1.4052
  102OSM   C12S10297   2.316   4.530   9.258  0.9824 -0.0378  0.4195
  102OSM   H12S10298   2.379   4.462   9.198  1.9265  1.7318 -0.6960
  102OSM   H12T10299   2.327   4.632   9.216 -3.1985 -0.4294 -2.1799
  102OSM   C13S10300   2.172   4.495   9.230  0.1050  0.2966  0.1349
  102OSM   H13S10301   2.103   4.576   9.262 -1.5327 -1.0111  0.0360
  102OSM   H13T10302   2.145   4.402   9.284 -0.3711  0.7553  0.6930
  102OSM   C14S10303   2.144   4.480   9.078 -0.4342 -0.0345  0.6260
  102OSM   H14S10304   2.206   4.396   9.040  0.9878 -0.4440  3.5789
  102OSM   H14T10305   2.193   4.565   9.026  0.3369 -0.0940  1.2415
  102OSM   C15S10306   2.000   4.465   9.049  0.2435 -0.3102 -0.1398
  102OSM   H15S10307   1.942   4.534   9.113  0.7112  0.7042 -0.7890
  102OSM   H15T10308   1.979   4.366   9.095 -0.1552  0.1497  0.6832
  102OSM   C16S10309   1.959   4.469   8.901 -0.3368  0.2532 -0.1691
  102OSM   H16S10310   1.984   4.566   8.851  0.0791 -1.2158 -3.0037
  102OSM   H16T10311   1.849   4.449   8.903  0.3182 -4.3314  1.4307
  102OSM   C17S10312   2.036   4.377   8.807  0.1904 -0.0981 -0.3014
  102OSM   H17S10313   2.009   4.277   8.846 -3.2007  0.0996 -1.7959
  102OSM   H17T10314   2.141   4.403   8.829 -0.7819  2.3451  1.9328
  102OSM   C18S10315   2.003   4.390   8.657 -0.1174 -0.2413  0.0885
  102OSM   H18S10316   2.085   4.349   8.593 -0.3786  0.5676 -0.7821
  102OSM   H18T10317   1.989   4.495   8.623 -0.1845 -0.9854 -2.4315
  102OSM   H18U10318   1.911   4.334   8.630 -1.5479  1.6027  0.9125
  102OSM    C1F10319   2.777   4.392  10.320  0.1199  0.6077 -0.1373
  102OSM     OF10320   2.770   4.266  10.332 -1.2154  0.0062 -0.0444
  102OSM    C2F10321   2.900   4.462  10.346 -0.3383 -0.2381 -0.4647
  102OSM    H2F10322   2.910   4.497  10.451  0.3267 -1.0091 -0.2649
  102OSM    H2G10323   2.912   4.545  10.273 -1.4052  1.6382  1.3646
  102OSM    C3F10324   3.023   4.368  10.328 -0.2594 -0.8241 -0.5533
  102OSM    H3F10325   3.039   4.349  10.220  0.3293  0.1841 -0.6615
  102OSM    H3G10326   3.001   4.270  10.376  1.4300 -0.6898  0.5767
  102OSM    C4F10327   3.150   4.415  10.392 -0.4001 -0.4430  0.2459
  102OSM    H4F10328   3.125   4.433  10.499 -2.3980  1.4756 -0.4806
  102OSM    H4G10329   3.195   4.503  10.342  1.1815 -1.6692 -0.5991
  102OSM    C5F10330   3.259   4.311  10.392  0.5177 -0.7961  0.6012
  102OSM    H5F10331   3.222   4.214  10.430  1.0192 -1.2056  0.0652
  102OSM    H5G10332   3.342   4.342  10.459 -0.6901  2.4962  0.7912
  102OSM    C6F10333   3.322   4.292  10.256  0.7203 -0.2678  0.6003
  102OSM    H6F10334   3.242   4.273  10.181  0.2939  2.0170  0.3755
  102OSM    H6G10335   3.384   4.201  10.264  0.9377 -0.0859  1.0356
  102OSM    C7F10336   3.407   4.406  10.209  0.6331 -1.0833  0.0790
  102OSM    H7F10337   3.500   4.407  10.271  0.3758  0.1716  0.4904
  102OSM    H7G10338   3.359   4.503  10.234  2.4120 -0.1647  0.1644
  102OSM    C8F10339   3.429   4.404  10.060 -1.1485  0.7152  0.1427
  102OSM    H8F10340   3.331   4.412  10.008 -0.0626 -1.1879 -2.3866
  102OSM    H8G10341   3.470   4.302  10.046  2.5992  1.7016  2.2620
  102OSM    C9F10342   3.531   4.499  10.009 -0.0753 -0.7445  0.1300
  102OSM    H9F10343   3.585   4.549  10.091 -2.3769  0.5659  0.9339
  102OSM   C10F10344   3.555   4.535   9.877  0.0247 -0.5105 -0.4522
  102OSM   H10F10345   3.637   4.605   9.855 -0.3961  1.0969  2.5175
  102OSM   C11F10346   3.486   4.479   9.756  0.1271  0.4067 -0.0563
  102OSM   H11F10347   3.393   4.422   9.779 -0.3125  1.6213  1.4051
  102OSM   H11G10348   3.550   4.402   9.708  0.2734  0.5816 -0.1411
  102OSM   C12F10349   3.440   4.586   9.654 -0.9343 -0.4708 -0.1989
  102OSM   H12F10350   3.515   4.660   9.618 -1.0372 -0.7766 -1.0610
  102OSM   H12G10351   3.354   4.647   9.690 -0.9419 -0.3590 -0.4050
  102OSM   C13F10352   3.387   4.521   9.527  0.1047 -0.1576 -0.1943
  102OSM   H13F10353   3.315   4.439   9.546 -1.2986  0.3757 -2.6917
  102OSM   H13G10354   3.469   4.474   9.469 -1.6401  0.2400 -3.2115
  102OSM   C14F10355   3.319   4.629   9.440 -0.5458  0.3891 -0.0207
  102OSM   H14F10356   3.384   4.718   9.428  1.8063 -1.1529  0.5137
  102OSM   H14G10357   3.226   4.650   9.496 -2.7042 -0.3794 -3.0729
  102OSM   C15F10358   3.258   4.580   9.310 -0.2951 -0.3388 -0.6932
  102OSM   H15F10359   3.178   4.654   9.285  0.9659  0.8326 -1.3876
  102OSM   H15G10360   3.213   4.479   9.323  0.5593 -0.3201  3.7651
  102OSM   C16F10361   3.366   4.564   9.202 -0.3626 -0.2274 -0.1023
  102OSM   H16F10362   3.452   4.497   9.220 -0.7527 -0.1823  2.2380
  102OSM   H16G10363   3.406   4.666   9.184 -0.1599 -0.3558 -0.3723
  102OSM   C17F10364   3.291   4.508   9.072 -0.5614 -0.5822 -0.3610
  102OSM   H17F10365   3.208   4.577   9.047  0.0045  0.0888 -0.4148
  102OSM   H17G10366   3.242   4.412   9.097 -0.4695 -0.6315 -0.3692
  102OSM   C18F10367   3.386   4.510   8.957 -0.3932  0.3249 -0.4785
  102OSM   H18F10368   3.335   4.466   8.869 -0.2050  0.9236 -0.8991
  102OSM   H18G10369   3.477   4.447   8.971  0.1525  0.2974 -3.4095
  102OSM   H18H10370   3.401   4.617   8.930 -1.4036  0.2368 -1.4400
  103OSM      N10371   0.487   1.595  10.848 -0.2086 -0.0085 -0.0908
  103OSM    C1510372   0.600   1.548  10.944  0.0813 -0.0860  0.3646
  103OSM   H15A10373   0.603   1.615  11.029  0.4507  0.6049 -0.1787
  103OSM   H15B10374   0.701   1.557  10.909  0.5028 -2.7091  0.6708
  103OSM   H15C10375   0.584   1.444  10.967 -1.7672  0.1181  0.1782
  103OSM    C1410376   0.504   1.529  10.711  0.2069  0.3007 -0.3840
  103OSM   H14A10377   0.482   1.425  10.727 -1.7886  0.9972  2.0464
  103OSM   H14B10378   0.603   1.549  10.673  0.3588 -1.6230 -1.0767
  103OSM   H14C10379   0.434   1.575  10.643 -2.1538 -0.9361  1.0955
  103OSM    C1310380   0.352   1.570  10.897  0.1057  0.6689 -0.1087
  103OSM   H13A10381   0.322   1.609  10.993 -0.0647  0.4775 -0.0828
  103OSM   H13B10382   0.324   1.466  10.902  0.3804  0.6236  0.6784
  103OSM   H13C10383   0.289   1.626  10.831 -1.3913 -1.4637 -0.5740
  103OSM    C1210384   0.514   1.747  10.833  0.4343  0.3997  0.2851
  103OSM   H12A10385   0.470   1.774  10.738  0.2322 -1.4627 -0.1915
  103OSM   H12B10386   0.620   1.760  10.820  0.5455  2.4897  2.5087
  103OSM    C1110387   0.466   1.836  10.954 -0.3935  0.6718  1.0693
  103OSM   H11A10388   0.523   1.931  10.948  1.6689 -0.5776 -0.3969
  103OSM   H11B10389   0.499   1.789  11.049  0.4231 -0.5417  0.2173
  103OSM      P10390   0.265   1.943  10.820 -0.0835  0.0550  0.1410
  103OSM    O1310391   0.138   2.006  10.857 -0.0196 -0.3228  0.0153
  103OSM    O1410392   0.375   2.026  10.766 -0.0904 -0.0479 -0.1951
  103OSM    O1110393   0.234   1.824  10.721 -0.1939  0.2657 -0.3403
  103OSM    O1210394   0.320   1.863  10.948 -0.1532  0.2866 -0.5568
  103OSM    C1S10395   0.250   1.832  10.582 -0.4116 -0.4455  0.3874
  103OSM    H1S10396   0.358   1.836  10.554 -1.0135 -0.6176 -2.2023
  103OSM    H1T10397   0.192   1.911  10.530  1.2473  0.9622  0.5921
  103OSM     NF10398   0.255   1.694  10.379 -0.1194  0.5703 -0.3074
  103OSM    HNF10399   0.196   1.733  10.309  1.0765  1.0727 -1.0712
  103OSM    C2S10400   0.205   1.709  10.511  0.0284 -0.5749 -0.1402
  103OSM    H2S10401   0.229   1.615  10.565 -0.1058  0.0308  1.0130
  103OSM    C3S10402   0.045   1.718  10.518  0.2069  0.1677 -0.4750
  103OSM    H3S10403   0.024   1.819  10.476 -2.4249  0.6905  1.8071
  103OSM     O310404  -0.002   1.725  10.652  0.2557  0.3228 -0.4500
  103OSM    HO310405   0.061   1.779  10.699  0.2123  0.1688 -0.2138
  103OSM    C4S10406  -0.019   1.609  10.453 -0.6755  0.2435 -0.5763
  103OSM    H4S10407   0.011   1.516  10.503 -0.8441  1.6577  2.3763
  103OSM    C5S10408  -0.095   1.624  10.343 -0.0493  0.5712 -0.6740
  103OSM    H5S10409  -0.121   1.724  10.303  0.2067  0.3122 -1.5097
  103OSM    C6S10410  -0.170   1.513  10.271  0.0019  0.2345  0.0022
  103OSM    H6S10411  -0.281   1.518  10.280 -0.0828 -1.0860 -0.1294
  103OSM    H6T10412  -0.137   1.417  10.315 -1.3319  0.1686  0.9386
  103OSM    C7S10413  -0.146   1.516  10.119 -0.1530  0.0597  0.0117
  103OSM    H7S10414  -0.038   1.504  10.096 -0.6168  0.5020 -2.7813
  103OSM    H7T10415  -0.171   1.619  10.087 -1.0677 -0.2323 -0.2406
  103OSM    C8S10416  -0.217   1.410  10.038 -0.1770  1.0845  0.2944
  103OSM    H8S10417  -0.325   1.409  10.064 -0.3675  2.4130 -0.3477
  103OSM    H8T10418  -0.198   1.306  10.070 -4.6914 -0.2717 -0.7179
  103OSM    C9S10419  -0.184   1.427   9.886  0.5239 -0.2088 -0.2908
  103OSM    H9S10420  -0.073   1.424   9.896  0.4024  0.0587  1.5423
  103OSM    H9T10421  -0.233   1.521   9.852  1.6547  0.0802 -1.1995
  103OSM   C10S10422  -0.230   1.312   9.796 -0.7200  0.4931 -0.3332
  103OSM   H10S10423  -0.338   1.290   9.808 -0.8493  1.0418 -0.4761
  103OSM   H10T10424  -0.170   1.221   9.815  1.3228  1.5489 -1.3971
  103OSM   C11S10425  -0.207   1.360   9.651  0.8147  0.1707 -0.3220
  103OSM   H11S10426  -0.098   1.364   9.630  0.7152  1.1622 -0.7080
  103OSM   H11T10427  -0.267   1.451   9.631 -0.8659 -0.4697  1.4843
  103OSM   C12S10428  -0.273   1.265   9.556  0.0479  0.5508 -0.2485
  103OSM   H12S10429  -0.379   1.272   9.587  0.5774  2.6192  1.3562
  103OSM   H12T10430  -0.234   1.164   9.582 -2.0015  0.0162  0.9111
  103OSM   C13S10431  -0.253   1.294   9.410 -0.1213  0.3224  0.1619
  103OSM   H13S10432  -0.157   1.249   9.377 -0.5263 -0.3832 -0.0848
  103OSM   H13T10433  -0.242   1.403   9.390 -0.7330  0.3281 -0.1592
  103OSM   C14S10434  -0.373   1.251   9.314 -0.2126  0.2027 -0.5850
  103OSM   H14S10435  -0.460   1.272   9.379  0.6743 -2.0389  1.5160
  103OSM   H14T10436  -0.366   1.140   9.306  0.1006  0.0376  1.3387
  103OSM   C15S10437  -0.359   1.309   9.175  0.0391 -0.3887 -0.2844
  103OSM   H15S10438  -0.297   1.398   9.196  1.2752 -1.5220  1.1596
  103OSM   H15T10439  -0.460   1.350   9.155 -0.0162  1.0026  2.3311
  103OSM   C16S10440  -0.316   1.214   9.065  0.5050 -0.0004 -0.0513
  103OSM   H16S10441  -0.396   1.140   9.040  2.8082 -2.5472 -0.4529
  103OSM   H16T10442  -0.235   1.154   9.111  0.2426  1.6263  2.6951
  103OSM   C17S10443  -0.270   1.290   8.939 -0.1533  0.1501 -0.1203
  103OSM   H17S10444  -0.354   1.362   8.930  0.6750  1.5678  2.4347
  103OSM   H17T10445  -0.273   1.217   8.856  0.7667  0.5254 -0.4945
  103OSM   C18S10446  -0.131   1.358   8.939 -0.2538  0.1721  0.4416
  103OSM   H18S10447  -0.053   1.280   8.954 -0.0800  0.4017  0.7528
  103OSM   H18T10448  -0.123   1.405   9.040  0.0799 -1.3573  1.1505
  103OSM   H18U10449  -0.113   1.419   8.848  1.1644 -0.3821  0.3309
  103OSM    C1F10450   0.374   1.667  10.350 -0.7014 -0.1850 -0.0079
  103OSM     OF10451   0.461   1.648  10.436  0.2299  0.1404  0.0676
  103OSM    C2F10452   0.419   1.675  10.205 -0.2649  0.3760  0.6042
  103OSM    H2F10453   0.496   1.596  10.188 -2.7758 -1.7794 -1.5426
  103OSM    H2G10454   0.479   1.767  10.185  0.9697 -0.9151 -2.1770
  103OSM    C3F10455   0.300   1.655  10.102 -0.3553 -0.5297 -0.4927
  103OSM    H3F10456   0.239   1.747  10.114 -1.0903 -1.2681  1.9217
  103OSM    H3G10457   0.239   1.564  10.122  0.1554 -0.7991 -0.1174
  103OSM    C4F10458   0.355   1.641   9.961  0.6403  0.3980 -0.3317
  103OSM    H4F10459   0.448   1.580   9.966  0.1367 -0.3062  2.9104
  103OSM    H4G10460   0.400   1.737   9.928  1.5650  0.4129  0.8915
  103OSM    C5F10461   0.261   1.580   9.859 -0.0798 -0.3278 -0.3986
  103OSM    H5F10462   0.190   1.663   9.838  1.1924  1.1198  0.7137
  103OSM    H5G10463   0.203   1.493   9.894  1.2901 -1.1446 -0.0928
  103OSM    C6F10464   0.325   1.525   9.730 -0.1696 -1.1199 -0.1064
  103OSM    H6F10465   0.390   1.437   9.745  1.7269  0.3618  0.8557
  103OSM    H6G10466   0.380   1.608   9.681 -0.5431 -2.1035 -2.3300
  103OSM    C7F10467   0.217   1.501   9.630 -0.1161  0.6542  0.0306
  103OSM    H7F10468   0.142   1.582   9.626 -0.1247  0.8647  2.5500
  103OSM    H7G10469   0.167   1.411   9.672  2.9848 -0.9477  0.5719
  103OSM    C8F10470   0.263   1.444   9.496  0.0008 -0.2080 -0.6681
  103OSM    H8F10471   0.325   1.354   9.517 -0.0108 -0.0551  0.0507
  103OSM    H8G10472   0.342   1.509   9.454  1.5771 -2.8475 -2.0699
  103OSM    C9F10473   0.144   1.426   9.406 -1.1674 -0.7097  0.2912
  103OSM    H9F10474   0.049   1.405   9.458 -0.1689 -1.1853  2.0254
  103OSM   C10F10475   0.154   1.429   9.269 -0.2035  0.2865 -0.0587
  103OSM   H10F10476   0.061   1.427   9.210 -0.9317  1.0140  1.0139
  103OSM   C11F10477   0.283   1.437   9.189  0.0572 -0.1852 -0.8688
  103OSM   H11F10478   0.322   1.336   9.164 -3.0674 -1.7323  0.1158
  103OSM   H11G10479   0.356   1.488   9.256 -2.7541  3.2854 -0.1720
  103OSM   C12F10480   0.281   1.517   9.061  0.2581  0.5502 -0.1037
  103OSM   H12F10481   0.225   1.612   9.078 -1.8102 -0.5522 -0.4814
  103OSM   H12G10482   0.230   1.457   8.982  1.5717 -1.5310  0.5473
  103OSM   C13F10483   0.426   1.546   9.009  0.8072  0.3054  0.7256
  103OSM   H13F10484   0.483   1.614   9.076 -0.9096  0.4248  2.1311
  103OSM   H13G10485   0.421   1.595   8.910 -1.9150  1.0255  1.1370
  103OSM   C14F10486   0.511   1.420   8.997  0.7208  0.3475 -0.2949
  103OSM   H14F10487   0.451   1.341   8.947  0.3676 -0.1550  0.8668
  103OSM   H14G10488   0.536   1.375   9.096  0.2601 -0.5034 -0.5510
  103OSM   C15F10489   0.653   1.441   8.928  0.0147 -0.3924  0.0996
  103OSM   H15F10490   0.629   1.487   8.830 -1.8874 -0.2716  0.5844
  103OSM   H15G10491   0.692   1.339   8.907  0.3160  0.0122 -1.4733
  103OSM   C16F10492   0.757   1.528   9.002  0.2927 -0.2719  0.7747
  103OSM   H16F10493   0.826   1.457   9.053  0.3378 -1.1540 -0.4386
  103OSM   H16G10494   0.693   1.577   9.078 -1.5891 -1.7955  0.2728
  103OSM   C17F10495   0.837   1.629   8.912  0.9635 -1.0557 -0.0424
  103OSM   H17F10496   0.898   1.696   8.977 -1.1452  0.9464  0.0282
  103OSM   H17G10497   0.757   1.702   8.886 -0.4031 -1.4988  2.5520
  103OSM   C18F10498   0.922   1.577   8.798  0.7726 -0.2857  0.8660
  103OSM   H18F10499   0.998   1.497   8.814  0.1877 -1.1709 -0.6252
  103OSM   H18G10500   0.993   1.657   8.770  1.2332 -1.0805 -0.3141
  103OSM   H18H10501   0.858   1.559   8.709 -0.8116  1.4131  1.5925
  104OSM      N10502   3.129   5.849  11.028 -0.1110  0.3035 -0.0356
  104OSM    C1510503   2.990   5.865  11.085  0.1220  0.1780 -0.0352
  104OSM   H15A10504   2.987   5.873  11.192  1.1903 -2.5246  0.2558
  104OSM   H15B10505   2.924   5.787  11.051  0.5643  0.1606 -0.8776
  104OSM   H15C10506   2.941   5.956  11.052 -2.6715 -0.9513  0.6858
  104OSM    C1410507   3.208   5.976  11.055  0.0482 -0.1408  0.2806
  104OSM   H14A10508   3.153   6.065  11.026  0.2596  0.2272  0.9780
  104OSM   H14B10509   3.304   5.978  11.007  0.4639 -0.9812  1.0426
  104OSM   H14C10510   3.227   5.971  11.161 -0.5668  2.2550  0.5670
  104OSM    C1310511   3.198   5.737  11.102  0.3847 -0.7033 -0.0250
  104OSM   H13A10512   3.286   5.711  11.045  1.1720 -0.5065  1.0907
  104OSM   H13B10513   3.143   5.643  11.102  2.0400 -1.7318 -1.0786
  104OSM   H13C10514   3.220   5.759  11.205  0.4843  0.0267 -0.2001
  104OSM    C1210515   3.113   5.826  10.882 -0.1266 -0.4415  0.1411
  104OSM   H12A10516   3.066   5.912  10.838 -0.1668 -0.6948 -0.3304
  104OSM   H12B10517   3.039   5.748  10.875 -0.7975  0.2643 -0.7951
  104OSM    C1110518   3.240   5.792  10.795 -0.0857 -0.6531  0.5608
  104OSM   H11A10519   3.311   5.872  10.824 -1.0106 -0.0151  1.1574
  104OSM   H11B10520   3.212   5.807  10.688 -1.7825  0.0774  1.0640
  104OSM      P10521   3.206   5.540  10.775  0.0769  0.4866 -0.0708
  104OSM    O1310522   3.283   5.445  10.696  0.5132 -0.4298 -0.4879
  104OSM    O1410523   3.146   5.492  10.900 -0.2358  0.4055 -0.9044
  104OSM    O1110524   3.095   5.600  10.684  0.1611 -0.3361  0.0759
  104OSM    O1210525   3.295   5.663  10.818  0.1222 -0.0562  0.2607
  104OSM    C1S10526   3.006   5.496  10.623 -0.1381  0.0132  0.0357
  104OSM    H1S10527   2.914   5.477  10.681  0.8945 -0.5306  1.5383
  104OSM    H1T10528   3.051   5.395  10.611 -2.8551 -1.6500  2.6318
  104OSM     NF10529   2.873   5.445  10.420 -0.4488  0.4609 -0.1635
  104OSM    HNF10530   2.902   5.373  10.357  0.1890  0.2982  0.3020
  104OSM    C2S10531   2.972   5.537  10.479  0.3230 -0.2267  0.3533
  104OSM    H2S10532   2.931   5.639  10.491 -0.0607 -0.5817  2.5319
  104OSM    C3S10533   3.088   5.546  10.379  0.2278  0.1523 -0.4244
  104OSM    H3S10534   3.113   5.442  10.351  2.8389  0.4741  0.4186
  104OSM     O310535   3.213   5.587  10.439 -0.6261 -0.5112 -0.2525
  104OSM    HO310536   3.224   5.546  10.525  1.3753  1.5026  0.5689
  104OSM    C4S10537   3.050   5.613  10.251  0.8095 -0.4167 -0.4637
  104OSM    H4S10538   3.014   5.539  10.178  0.3496 -0.8627  0.1986
  104OSM    C5S10539   3.057   5.742  10.231  0.4081  0.4913  0.0208
  104OSM    H5S10540   3.089   5.806  10.314  1.1733  0.4095 -0.2031
  104OSM    C6S10541   3.012   5.812  10.103 -0.1189 -0.4714 -0.8948
  104OSM    H6S10542   3.102   5.803  10.038  2.4837  4.8131  1.3370
  104OSM    H6T10543   2.999   5.921  10.118  0.1378 -0.2635 -2.1231
  104OSM    C7S10544   2.876   5.750  10.036 -0.1264 -0.1194 -1.0195
  104OSM    H7S10545   2.814   5.755  10.128 -0.2459 -0.4984 -1.0801
  104OSM    H7T10546   2.890   5.644  10.009 -0.8861 -0.1239 -1.4091
  104OSM    C8S10547   2.830   5.826   9.911 -0.6749  0.9448 -0.2366
  104OSM    H8S10548   2.914   5.830   9.839 -0.9402 -4.2714 -1.2697
  104OSM    H8T10549   2.822   5.934   9.932  0.9372  1.1418 -0.5278
  104OSM    C9S10550   2.707   5.778   9.837 -0.2272  0.1436  0.4705
  104OSM    H9S10551   2.627   5.758   9.912 -0.0558  0.0347  0.6268
  104OSM    H9T10552   2.719   5.675   9.797 -0.9018 -0.4203  1.6686
  104OSM   C10S10553   2.658   5.862   9.719  0.3074  0.3792  0.3835
  104OSM   H10S10554   2.650   5.967   9.755 -0.0396  1.0897 -1.6442
  104OSM   H10T10555   2.552   5.834   9.704  0.2218  1.3540 -1.0157
  104OSM   C11S10556   2.731   5.860   9.587 -0.8435  0.3041  0.3163
  104OSM   H11S10557   2.830   5.904   9.612 -0.2264  0.1824 -1.7065
  104OSM   H11T10558   2.689   5.933   9.515 -1.5009 -0.8418 -0.4929
  104OSM   C12S10559   2.745   5.730   9.514  0.3199 -0.1324 -0.3015
  104OSM   H12S10560   2.639   5.700   9.495  0.3864 -0.1908 -0.5856
  104OSM   H12T10561   2.793   5.656   9.581 -1.7896 -1.1862  0.1454
  104OSM   C13S10562   2.811   5.741   9.376  0.1504 -0.2159 -0.2629
  104OSM   H13S10563   2.909   5.790   9.396  0.2946 -1.0251  1.0973
  104OSM   H13T10564   2.755   5.809   9.308 -0.8408  0.7888  1.4836
  104OSM   C14S10565   2.839   5.604   9.315  0.3667  0.3545  0.1719
  104OSM   H14S10566   2.755   5.535   9.341 -1.2781  2.3022  0.2762
  104OSM   H14T10567   2.936   5.578   9.363  0.5310 -1.3954 -1.0223
  104OSM   C15S10568   2.869   5.603   9.163  0.0764 -0.6458  0.6528
  104OSM   H15S10569   2.794   5.659   9.103  0.8116 -0.1989  0.1423
  104OSM   H15T10570   2.853   5.496   9.135 -0.3334 -1.0876  2.4199
  104OSM   C16S10571   3.012   5.637   9.130  0.0037  0.5029 -0.8985
  104OSM   H16S10572   3.073   5.546   9.151 -1.8697  0.0780  4.1486
  104OSM   H16T10573   3.051   5.711   9.203 -0.5536 -1.4934  1.5770
  104OSM   C17S10574   3.028   5.681   8.983  0.1717 -0.6705  0.3007
  104OSM   H17S10575   2.960   5.768   8.968  1.8628  0.4312 -1.4157
  104OSM   H17T10576   2.991   5.597   8.919 -2.6835  0.0519  0.8487
  104OSM   C18S10577   3.168   5.725   8.932 -0.4090  0.1998 -1.2291
  104OSM   H18S10578   3.225   5.630   8.943 -1.5676 -0.3388  0.5740
  104OSM   H18T10579   3.207   5.804   8.998  0.7854 -1.4905  0.1720
  104OSM   H18U10580   3.157   5.755   8.825 -1.0684  2.2563 -0.6127
  104OSM    C1F10581   2.750   5.450  10.469  0.1095  0.4204  0.5055
  104OSM     OF10582   2.705   5.522  10.556 -0.6710 -0.4851  0.2750
  104OSM    C2F10583   2.662   5.344  10.412  0.3003  0.2415  0.3636
  104OSM    H2F10584   2.649   5.267  10.491 -0.9826  0.2663  0.2025
  104OSM    H2G10585   2.720   5.288  10.336  1.9351  1.0027  0.9980
  104OSM    C3F10586   2.529   5.389  10.355  0.5764 -0.3690  0.0316
  104OSM    H3F10587   2.480   5.428  10.447  3.5589 -0.3811  1.7417
  104OSM    H3G10588   2.470   5.301  10.320 -3.3122  1.3274  1.7439
  104OSM    C4F10589   2.545   5.482  10.233 -0.2010  0.4500  0.7104
  104OSM    H4F10590   2.647   5.525  10.222 -0.6547  1.6141  0.8550
  104OSM    H4G10591   2.478   5.569  10.253  0.2150  0.8875  0.2464
  104OSM    C5F10592   2.496   5.415  10.102  0.2795  0.3272  0.0518
  104OSM    H5F10593   2.393   5.390  10.136 -0.5473  1.0824 -1.7987
  104OSM    H5G10594   2.550   5.320  10.085 -1.3221 -0.6232  0.0850
  104OSM    C6F10595   2.478   5.498   9.979 -0.7965  0.6928  0.4210
  104OSM    H6F10596   2.579   5.516   9.937 -1.3741  2.1064 -0.4190
  104OSM    H6G10597   2.432   5.595  10.007  1.7404  1.4827  2.1306
  104OSM    C7F10598   2.393   5.433   9.873  0.2272 -0.0492  0.0776
  104OSM    H7F10599   2.287   5.432   9.907  0.4304  0.4575  0.7713
  104OSM    H7G10600   2.409   5.324   9.864  2.3970 -0.0166  2.2188
  104OSM    C8F10601   2.412   5.502   9.736  0.2417  0.7603 -0.3036
  104OSM    H8F10602   2.400   5.611   9.750  1.5860  0.7891  0.8657
  104OSM    H8G10603   2.336   5.459   9.668  1.2079  0.3463 -1.1525
  104OSM    C9F10604   2.540   5.465   9.669  0.6088  0.3541 -0.1850
  104OSM    H9F10605   2.624   5.476   9.738  0.1776 -1.6117  0.7046
  104OSM   C10F10606   2.560   5.417   9.545  0.0043 -0.5094  0.2202
  104OSM   H10F10607   2.656   5.374   9.515 -1.2592 -2.9443 -0.6042
  104OSM   C11F10608   2.461   5.400   9.436 -0.2156  0.3511  0.9187
  104OSM   H11F10609   2.380   5.471   9.461  2.0267  3.4190  0.0584
  104OSM   H11G10610   2.427   5.294   9.441  0.8893  0.0297  2.3718
  104OSM   C12F10611   2.511   5.430   9.299 -0.1099  0.0968  1.1393
  104OSM   H12F10612   2.604   5.371   9.291 -0.6646 -0.9743  2.3875
  104OSM   H12G10613   2.538   5.538   9.290 -0.2857  0.0704  0.0543
  104OSM   C13F10614   2.417   5.382   9.187  0.5853  0.7459  0.2526
  104OSM   H13F10615   2.315   5.418   9.212 -0.4499 -1.4691 -0.5454
  104OSM   H13G10616   2.427   5.272   9.178  0.3061  0.6548  1.0197
  104OSM   C14F10617   2.445   5.434   9.042  0.1613  0.0167  0.3598
  104OSM   H14F10618   2.552   5.455   9.018 -0.2071  1.6309 -0.0020
  104OSM   H14G10619   2.398   5.534   9.034  0.8858  0.2395 -1.9767
  104OSM   C15F10620   2.386   5.352   8.928  0.0598 -0.1079  0.0164
  104OSM   H15F10621   2.276   5.338   8.932 -0.4519  2.9073 -1.0316
  104OSM   H15G10622   2.427   5.249   8.923 -0.9898 -0.6641  2.0051
  104OSM   C16F10623   2.408   5.428   8.796 -0.9775 -0.2889 -0.2707
  104OSM   H16F10624   2.516   5.450   8.786 -1.0337  0.4023  0.5526
  104OSM   H16G10625   2.361   5.528   8.799 -2.3745 -0.9273  1.5388
  104OSM   C17F10626   2.367   5.345   8.684  0.3817 -0.1164  0.5059
  104OSM   H17F10627   2.407   5.399   8.596  1.1525 -0.4687  0.6275
  104OSM   H17G10628   2.260   5.318   8.675  0.3124  0.3126  0.0376
  104OSM   C18F10629   2.441   5.208   8.670 -0.5568 -1.0916  0.6235
  104OSM   H18F10630   2.548   5.220   8.694 -0.4183 -0.6174 -0.1748
  104OSM   H18G10631   2.425   5.170   8.567  0.0776 -0.3172  0.2264
  104OSM   H18H10632   2.398   5.137   8.744 -2.7866  2.0949  2.6764
  105OSM      N10633   6.621   3.968  10.939 -0.2065  0.3167  0.2023
  105OSM    C1510634   6.541   4.067  10.857 -0.4589  0.2000  0.3102
  105OSM   H15A10635   6.591   4.089  10.763 -0.8441 -0.4159 -0.0451
  105OSM   H15B10636   6.525   4.162  10.905  0.2209 -0.1837  1.3217
  105OSM   H15C10637   6.442   4.028  10.841 -0.0331 -0.5985 -0.4573
  105OSM    C1410638   6.683   3.873  10.848 -0.8530  0.1039  0.3378
  105OSM   H14A10639   6.767   3.819  10.889 -0.6649  0.6024  0.6110
  105OSM   H14B10640   6.726   3.923  10.762 -0.3553  0.3237  0.7057
  105OSM   H14C10641   6.621   3.795  10.805  0.7582  0.0401 -2.1171
  105OSM    C1310642   6.719   4.041  11.020  0.4601 -0.3555 -0.5893
  105OSM   H13A10643   6.761   4.116  10.955  2.0002 -1.0930 -0.4799
  105OSM   H13B10644   6.799   3.988  11.070  0.2049  2.8289  3.7851
  105OSM   H13C10645   6.668   4.081  11.107 -0.5756 -1.4982 -0.6354
  105OSM    C1210646   6.528   3.891  11.032 -0.8096  0.7498 -0.2567
  105OSM   H12A10647   6.472   3.958  11.095  1.6489  3.2642 -0.5891
  105OSM   H12B10648   6.592   3.827  11.091  1.9014  2.8432 -0.7901
  105OSM    C1110649   6.422   3.791  10.971 -0.0189  0.0861 -0.4393
  105OSM   H11A10650   6.384   3.727  11.054  0.5470  0.6345  0.2569
  105OSM   H11B10651   6.461   3.716  10.899 -0.3934 -0.4093 -0.1307
  105OSM      P10652   6.186   3.813  10.879  0.2271 -0.0319  0.3034
  105OSM    O1310653   6.118   3.792  11.009  0.4357 -0.7068 -0.0295
  105OSM    O1410654   6.131   3.908  10.776 -0.3006  0.2050  0.1536
  105OSM    O1110655   6.224   3.677  10.816 -0.2362  0.6376 -0.1514
  105OSM    O1210656   6.317   3.870  10.918 -0.3836  0.0755 -0.1926
  105OSM    C1S10657   6.157   3.614  10.705  0.2544  0.6388  0.3857
  105OSM    H1S10658   6.055   3.658  10.697 -0.1090 -0.3204 -0.4999
  105OSM    H1T10659   6.136   3.508  10.731 -2.2163  1.5627  2.6303
  105OSM     NF10660   6.159   3.573  10.460 -0.2156  0.0995 -0.2686
  105OSM    HNF10661   6.208   3.497  10.418  1.4328  1.0702 -0.1650
  105OSM    C2S10662   6.236   3.628  10.573 -0.0440  0.3304  0.0523
  105OSM    H2S10663   6.245   3.737  10.554  2.8542  0.1294 -0.1761
  105OSM    C3S10664   6.380   3.572  10.575  0.3051  1.1497 -0.8160
  105OSM    H3S10665   6.368   3.467  10.608 -0.7959  1.5683  0.1794
  105OSM     O310666   6.472   3.639  10.663  0.3874  0.0153  0.4130
  105OSM    HO310667   6.420   3.673  10.737 -2.0290 -2.1451 -0.1487
  105OSM    C4S10668   6.446   3.569  10.439  0.2135  0.6769  0.7423
  105OSM    H4S10669   6.445   3.667  10.389  1.0608  1.0039  1.3233
  105OSM    C5S10670   6.505   3.460  10.387 -0.2987  0.0733  1.0588
  105OSM    H5S10671   6.502   3.366  10.444 -2.0714  0.3253  1.4499
  105OSM    C6S10672   6.577   3.459  10.257 -0.2956  0.8989 -0.1172
  105OSM    H6S10673   6.612   3.355  10.238 -1.1858  0.3065  1.3439
  105OSM    H6T10674   6.664   3.529  10.267 -0.1178  0.9155 -1.6484
  105OSM    C7S10675   6.485   3.491  10.143 -0.0899 -0.0191 -0.3551
  105OSM    H7S10676   6.452   3.597  10.148  0.3997  0.1094  0.2912
  105OSM    H7T10677   6.392   3.431  10.150 -0.2526  0.2515 -0.1939
  105OSM    C8S10678   6.551   3.473  10.014  0.0787  0.2499  1.1528
  105OSM    H8S10679   6.584   3.367  10.005 -2.0344 -0.4968  1.7863
  105OSM    H8T10680   6.638   3.540  10.000 -0.0289  0.0537 -0.6921
  105OSM    C9S10681   6.464   3.505   9.894  0.0034  0.3734  0.1521
  105OSM    H9S10682   6.414   3.604   9.901 -3.3673 -1.0172 -1.6568
  105OSM    H9T10683   6.388   3.425   9.883  0.2917  0.0341  0.5751
  105OSM   C10S10684   6.540   3.488   9.759 -0.2982 -0.2361  0.0452
  105OSM   H10S10685   6.559   3.382   9.732 -1.6917 -0.3165 -0.6746
  105OSM   H10T10686   6.633   3.548   9.765  0.1612 -0.5308 -2.9068
  105OSM   C11S10687   6.444   3.529   9.640 -0.4203 -0.0041 -0.6749
  105OSM   H11S10688   6.417   3.636   9.655 -1.8410 -0.7402  3.6542
  105OSM   H11T10689   6.345   3.479   9.644 -0.3486 -0.4402 -3.0582
  105OSM   C12S10690   6.498   3.498   9.502  0.4855  0.2403  0.2776
  105OSM   H12S10691   6.537   3.394   9.501 -0.4824 -0.1802  1.9704
  105OSM   H12T10692   6.589   3.562   9.499 -0.5765  1.8168  0.6215
  105OSM   C13S10693   6.402   3.535   9.382  0.5080  0.6007 -0.1475
  105OSM   H13S10694   6.381   3.644   9.382  1.5269  0.8155  0.7399
  105OSM   H13T10695   6.306   3.479   9.389  2.4964 -2.9080  2.3348
  105OSM   C14S10696   6.460   3.479   9.257  0.2499  0.5789  0.1572
  105OSM   H14S10697   6.374   3.469   9.188  0.6143  1.4992 -0.4435
  105OSM   H14T10698   6.482   3.371   9.271 -1.0760  0.1442 -0.8711
  105OSM   C15S10699   6.580   3.551   9.198  0.2001  0.2257  0.0135
  105OSM   H15S10700   6.670   3.540   9.262  0.5378 -0.0553 -0.4983
  105OSM   H15T10701   6.549   3.658   9.198 -2.1624 -0.3531  2.2043
  105OSM   C16S10702   6.616   3.496   9.062 -0.3931 -0.4977  0.1163
  105OSM   H16S10703   6.526   3.508   8.998 -0.7261  1.5197  0.8779
  105OSM   H16T10704   6.634   3.388   9.080  0.2007 -0.1814  1.5081
  105OSM   C17S10705   6.750   3.557   9.006 -0.1085  0.0581 -0.1764
  105OSM   H17S10706   6.758   3.514   8.904  0.6592 -0.4981  0.1079
  105OSM   H17T10707   6.829   3.519   9.074 -1.4172  2.1702  2.7272
  105OSM   C18S10708   6.751   3.709   9.006 -0.1609 -0.0306  0.7546
  105OSM   H18S10709   6.729   3.756   9.104 -1.6075 -0.0775  0.4857
  105OSM   H18T10710   6.664   3.749   8.949 -1.4856  0.0120  2.7082
  105OSM   H18U10711   6.843   3.752   8.962 -0.6211  1.0470  0.8312
  105OSM    C1F10712   6.048   3.632  10.415  0.3428 -0.7089  0.7611
  105OSM     OF10713   5.999   3.727  10.476 -0.5334  0.1294 -0.1439
  105OSM    C2F10714   5.998   3.609  10.277  0.5336  0.4303  0.1890
  105OSM    H2F10715   5.906   3.546  10.272 -0.0396  1.3458 -1.9711
  105OSM    H2G10716   6.075   3.547  10.226  2.1023  0.5775  2.2285
  105OSM    C3F10717   5.970   3.741  10.190  0.0151  0.4636 -0.2789
  105OSM    H3F10718   6.055   3.811  10.206 -0.0118  0.1732  1.3720
  105OSM    H3G10719   5.874   3.787  10.221 -1.0002 -0.2507 -2.2370
  105OSM    C4F10720   5.971   3.701  10.044  0.8221  0.1931  0.6006
  105OSM    H4F10721   5.970   3.796   9.986 -2.3833 -1.0035 -1.5827
  105OSM    H4G10722   5.873   3.651  10.033  0.0604  1.4957  1.2764
  105OSM    C5F10723   6.071   3.600   9.982  0.2899  0.4417 -0.7549
  105OSM    H5F10724   6.023   3.500   9.972  0.1514  0.4617 -0.2987
  105OSM    H5G10725   6.161   3.592  10.046  0.4976  3.7490 -0.4602
  105OSM    C6F10726   6.113   3.641   9.847 -0.0695  0.4457  0.7581
  105OSM    H6F10727   6.204   3.588   9.811  0.6244  3.2617 -2.1457
  105OSM    H6G10728   6.146   3.747   9.847 -0.1294  0.5651  4.4424
  105OSM    C7F10729   6.002   3.628   9.741 -0.3833 -0.5141  0.1039
  105OSM    H7F10730   5.939   3.719   9.747  2.8616  1.9586  0.0202
  105OSM    H7G10731   5.956   3.529   9.761 -0.4881 -0.3545  0.6764
  105OSM    C8F10732   6.068   3.626   9.602 -0.0736  0.7176  0.6191
  105OSM    H8F10733   5.993   3.579   9.535  0.5298 -0.5269  0.7727
  105OSM    H8G10734   6.153   3.557   9.584  0.8753  1.9328  0.3280
  105OSM    C9F10735   6.134   3.755   9.549  0.3760  0.1087  0.2584
  105OSM    H9F10736   6.161   3.826   9.629 -0.7148  0.5264  0.2631
  105OSM   C10F10737   6.144   3.790   9.420 -0.2591  0.1631  0.3845
  105OSM   H10F10738   6.171   3.891   9.386  1.0416 -0.7721 -1.5736
  105OSM   C11F10739   6.102   3.703   9.308  0.7740  0.1289  0.6818
  105OSM   H11F10740   5.996   3.725   9.282  1.3527  2.6651  0.1921
  105OSM   H11G10741   6.106   3.594   9.330 -0.2605 -0.1098 -0.1722
  105OSM   C12F10742   6.169   3.723   9.168 -0.5827  0.2722 -0.1580
  105OSM   H12F10743   6.279   3.704   9.173 -0.8971 -1.7142  0.2143
  105OSM   H12G10744   6.156   3.833   9.156  0.8177  0.3501 -1.2256
  105OSM   C13F10745   6.104   3.652   9.046  0.2388 -0.9673 -0.5937
  105OSM   H13F10746   5.996   3.679   9.052  0.8967  1.6120  2.8321
  105OSM   H13G10747   6.104   3.542   9.065  1.8690 -0.6417  1.6169
  105OSM   C14F10748   6.162   3.707   8.911  0.4575  0.1845 -0.1960
  105OSM   H14F10749   6.154   3.818   8.917 -3.2610  0.0126  0.5984
  105OSM   H14G10750   6.101   3.668   8.827 -0.1356  1.8799 -0.5988
  105OSM   C15F10751   6.316   3.674   8.881  0.2655 -0.4330  0.2439
  105OSM   H15F10752   6.340   3.566   8.887  0.7234 -0.3458  0.0392
  105OSM   H15G10753   6.383   3.718   8.957  0.1233  0.7717 -0.2899
  105OSM   C16F10754   6.341   3.706   8.738  1.1001  0.0072  0.1546
  105OSM   H16F10755   6.318   3.813   8.718  2.1772  0.8796  3.0190
  105OSM   H16G10756   6.266   3.647   8.681 -2.7277  2.0627  2.6344
  105OSM   C17F10757   6.491   3.671   8.705  0.2550  0.4039  0.5270
  105OSM   H17F10758   6.497   3.561   8.716  0.3933  0.0665 -2.0942
  105OSM   H17G10759   6.557   3.719   8.780  0.9925  0.6409 -0.2597
  105OSM   C18F10760   6.537   3.700   8.557  0.3582 -0.5561 -0.0326
  105OSM   H18F10761   6.643   3.670   8.541  1.3855  3.1719 -1.2449
  105OSM   H18G10762   6.534   3.807   8.529 -0.3436 -0.4087  0.5911
  105OSM   H18H10763   6.470   3.640   8.492  1.0225 -2.5710  1.0242
  106OSM      N10764   6.084   3.401  11.129  0.6880 -0.8166 -0.4390
  106OSM    C1510765   5.994   3.475  11.224 -0.3931  0.5784 -0.1372
  106OSM   H15A10766   6.046   3.529  11.302 -2.8340  3.8542 -0.5733
  106OSM   H15B10767   5.930   3.408  11.281  0.1520  0.9672  0.9684
  106OSM   H15C10768   5.943   3.560  11.182 -2.5977 -0.9867 -0.8596
  106OSM    C1410769   6.185   3.499  11.083  0.3557  0.6382  0.3902
  106OSM   H14A10770   6.148   3.592  11.043 -1.3365 -0.4626 -0.7635
  106OSM   H14B10771   6.237   3.458  10.997 -1.0324 -1.0878  0.3107
  106OSM   H14C10772   6.260   3.515  11.159  1.9074 -2.4376 -0.3346
  106OSM    C1310773   6.156   3.284  11.186  0.0323  0.3638  0.5464
  106OSM   H13A10774   6.093   3.222  11.248  0.6766 -0.4960  0.3642
  106OSM   H13B10775   6.251   3.302  11.233  0.6957 -3.6216  1.0802
  106OSM   H13C10776   6.186   3.212  11.110 -0.4248 -1.4099  1.9668
  106OSM    C1210777   6.002   3.363  11.004  0.5169  0.3260 -0.8569
  106OSM   H12A10778   5.969   3.454  10.957  0.8500 -0.6764 -3.1496
  106OSM   H12B10779   5.913   3.310  11.036  1.5549 -0.1065  1.5616
  106OSM    C1110780   6.079   3.287  10.892  0.2131  0.4951  0.0396
  106OSM   H11A10781   6.180   3.333  10.880 -0.1385  1.2826  0.0336
  106OSM   H11B10782   6.032   3.289  10.791  1.9514  0.6109 -0.8079
  106OSM      P10783   5.993   3.041  10.924  0.1687  0.3107 -0.5378
  106OSM    O1310784   6.072   2.914  10.944 -0.1009  0.1178  0.0503
  106OSM    O1410785   5.884   3.072  11.020  0.3196  0.3838  0.8358
  106OSM    O1110786   5.930   3.061  10.783 -0.3393 -0.0937 -0.0307
  106OSM    O1210787   6.104   3.151  10.927 -0.0583 -0.6109  0.0010
  106OSM    C1S10788   5.994   2.998  10.670  0.0686 -0.5471  0.1448
  106OSM    H1S10789   6.010   2.889  10.685 -2.6762 -0.9892  0.2668
  106OSM    H1T10790   6.099   3.033  10.658 -0.2713  0.6818  0.6142
  106OSM     NF10791   5.994   2.989  10.416  0.9240  0.6311 -0.5503
  106OSM    HNF10792   6.044   3.049  10.355  0.9739  0.9097 -0.2341
  106OSM    C2S10793   5.921   3.033  10.536 -0.0019  0.0151  0.5553
  106OSM    H2S10794   5.821   2.986  10.541  0.1117 -0.1828  0.9909
  106OSM    C3S10795   5.898   3.189  10.521  0.8264  0.6005 -0.4480
  106OSM    H3S10796   5.996   3.238  10.505  0.8177  0.5613 -0.6226
  106OSM     O310797   5.834   3.261  10.626  0.7679 -0.1504 -0.3357
  106OSM    HO310798   5.841   3.198  10.698 -0.7587  0.3132  0.2640
  106OSM    C4S10799   5.820   3.222  10.396  0.0364 -0.4585  0.4685
  106OSM    H4S10800   5.882   3.219  10.305 -0.7111  0.8145 -0.1106
  106OSM    C5S10801   5.685   3.237  10.377  0.3440  0.0953 -0.1095
  106OSM    H5S10802   5.626   3.213  10.466  2.1736 -0.2461  1.0737
  106OSM    C6S10803   5.616   3.272  10.246 -0.4761  0.8911  0.2877
  106OSM    H6S10804   5.518   3.322  10.261 -0.5522  0.4508  1.3148
  106OSM    H6T10805   5.587   3.175  10.200  0.3562  1.3965 -1.3945
  106OSM    C7S10806   5.695   3.347  10.135  0.3878  0.3199  0.6858
  106OSM    H7S10807   5.793   3.300  10.112 -0.1795 -0.3864 -0.3956
  106OSM    H7T10808   5.712   3.451  10.171  0.9333  0.0436  1.2409
  106OSM    C8S10809   5.622   3.364  10.003  0.1721 -0.3131 -0.1786
  106OSM    H8S10810   5.677   3.443   9.947 -1.5921  1.3185  0.2733
  106OSM    H8T10811   5.517   3.390  10.029 -0.5330  1.0852 -3.7283
  106OSM    C9S10812   5.614   3.234   9.920  0.4620 -0.0144  0.1191
  106OSM    H9S10813   5.551   3.159   9.973 -1.3589 -0.7605 -2.8308
  106OSM    H9T10814   5.712   3.183   9.906 -1.1805 -3.2888 -0.5582
  106OSM   C10S10815   5.563   3.258   9.777  0.4189 -0.6171 -0.2589
  106OSM   H10S10816   5.472   3.321   9.766  1.9757  1.4602 -2.0083
  106OSM   H10T10817   5.550   3.160   9.726 -3.0663 -0.2715 -0.2578
  106OSM   C11S10818   5.669   3.322   9.681  0.1411 -0.1631 -0.7588
  106OSM   H11S10819   5.767   3.269   9.687  0.3560  0.4031  1.7096
  106OSM   H11T10820   5.693   3.418   9.731 -1.6191  0.4683 -1.0703
  106OSM   C12S10821   5.622   3.337   9.543 -0.3094  0.1709  0.0694
  106OSM   H12S10822   5.542   3.414   9.538 -0.2378  0.2039 -0.5975
  106OSM   H12T10823   5.578   3.244   9.502  0.3095 -0.2320  0.3079
  106OSM   C13S10824   5.737   3.376   9.446 -0.3448 -0.1327  0.7341
  106OSM   H13S10825   5.803   3.287   9.431  1.0311  1.0013 -0.2947
  106OSM   H13T10826   5.808   3.453   9.483  1.7848 -2.8740  2.9190
  106OSM   C14S10827   5.686   3.423   9.310  0.4160  0.1916  0.0515
  106OSM   H14S10828   5.661   3.528   9.336  0.3697  0.0057  0.7612
  106OSM   H14T10829   5.589   3.376   9.287 -0.6408  2.3107 -0.0771
  106OSM   C15S10830   5.784   3.420   9.191  0.2966  1.0791 -1.0572
  106OSM   H15S10831   5.883   3.456   9.225  1.7029 -1.3932 -2.2436
  106OSM   H15T10832   5.747   3.484   9.108 -0.4830  2.9491  0.6479
  106OSM   C16S10833   5.805   3.273   9.128  0.6553 -0.5125  0.0669
  106OSM   H16S10834   5.713   3.218   9.100  1.1674 -1.3446 -0.0036
  106OSM   H16T10835   5.856   3.217   9.210  1.3826  0.8316  0.5692
  106OSM   C17S10836   5.899   3.277   9.004  0.5203  0.0105 -0.4705
  106OSM   H17S10837   5.992   3.327   9.038 -1.0508  1.8263  1.4010
  106OSM   H17T10838   5.847   3.341   8.930  1.1884  1.3856  0.2188
  106OSM   C18S10839   5.921   3.134   8.948 -0.6803  0.3264 -0.1111
  106OSM   H18S10840   5.820   3.094   8.924 -0.2156 -1.1323  0.2798
  106OSM   H18T10841   5.973   3.068   9.020  1.4501  1.2793 -0.6992
  106OSM   H18U10842   5.974   3.147   8.851  1.4850 -0.4759  0.8987
  106OSM    C1F10843   6.014   2.857  10.395 -0.2400 -0.7762  0.5325
  106OSM     OF10844   5.998   2.768  10.476  0.1698  0.0067 -0.4255
  106OSM    C2F10845   6.057   2.824  10.251 -0.0406 -0.7038  0.4846
  106OSM    H2F10846   6.159   2.859  10.226 -0.8704  0.2171 -2.0201
  106OSM    H2G10847   5.984   2.883  10.191  2.2343  1.7264 -0.1113
  106OSM    C3F10848   6.047   2.671  10.225 -0.2852 -0.3430 -0.4528
  106OSM    H3F10849   5.954   2.621  10.257  1.3138 -1.8432  2.2807
  106OSM    H3G10850   6.129   2.618  10.279 -0.0411  0.0728 -0.4148
  106OSM    C4F10851   6.054   2.642  10.075  0.1697 -0.2149 -0.6768
  106OSM    H4F10852   6.156   2.663  10.035 -0.4658  0.0313 -2.2387
  106OSM    H4G10853   5.981   2.709  10.023 -1.8055 -0.4897  1.5964
  106OSM    C5F10854   6.019   2.502  10.032 -0.2532  0.6652 -0.1188
  106OSM    H5F10855   5.929   2.466  10.086 -0.7762  0.1252 -1.3241
  106OSM    H5G10856   6.103   2.435  10.060  1.1336  1.2490 -2.5915
  106OSM    C6F10857   5.993   2.491   9.885  0.5087 -0.0564  0.0062
  106OSM    H6F10858   5.913   2.565   9.861 -0.0790 -1.0068 -1.1005
  106OSM    H6G10859   5.949   2.392   9.857  0.2423  0.3328 -1.0070
  106OSM    C7F10860   6.125   2.506   9.800  0.2978 -0.0205 -0.0115
  106OSM    H7F10861   6.194   2.433   9.847 -1.1315 -0.9710  0.6987
  106OSM    H7G10862   6.170   2.607   9.809 -1.0794  0.5174  1.2694
  106OSM    C8F10863   6.100   2.465   9.651  0.3341  0.2697 -0.7592
  106OSM    H8F10864   6.029   2.382   9.636 -0.1041  1.0137 -3.4297
  106OSM    H8G10865   6.193   2.416   9.613  0.1886 -2.7170  2.2589
  106OSM    C9F10866   6.048   2.579   9.565  0.2634  0.6787  0.1315
  106OSM    H9F10867   6.007   2.659   9.628  2.7083  1.8930  0.3260
  106OSM   C10F10868   6.034   2.586   9.434 -0.0526 -0.6481 -0.0398
  106OSM   H10F10869   5.993   2.682   9.398  1.8036  0.3078  0.2891
  106OSM   C11F10870   6.082   2.488   9.335  0.3465  0.0986  0.4052
  106OSM   H11F10871   6.032   2.391   9.355 -0.4514  0.1589 -1.1386
  106OSM   H11G10872   6.188   2.463   9.360  0.1301  1.2353  2.7320
  106OSM   C12F10873   6.040   2.522   9.189  0.0070 -0.0070 -1.0211
  106OSM   H12F10874   5.931   2.545   9.177  0.6827  3.4931 -1.5834
  106OSM   H12G10875   6.059   2.439   9.118  1.0772 -2.0448  1.4821
  106OSM   C13F10876   6.105   2.652   9.125 -0.3309 -1.0036 -0.0662
  106OSM   H13F10877   6.214   2.633   9.124  0.2278  1.8594 -0.6662
  106OSM   H13G10878   6.075   2.735   9.192 -1.7848 -1.1447 -0.5071
  106OSM   C14F10879   6.055   2.684   8.979  0.1767  0.2477 -0.0282
  106OSM   H14F10880   5.944   2.695   8.974  0.1198  3.0104  3.3002
  106OSM   H14G10881   6.074   2.591   8.921 -2.4055 -1.3461  1.4647
  106OSM   C15F10882   6.133   2.799   8.925  0.3404 -0.0023 -0.9107
  106OSM   H15F10883   6.233   2.790   8.972  0.0559 -0.1540 -0.3262
  106OSM   H15G10884   6.069   2.884   8.957  1.4307  0.1848  0.9365
  106OSM   C16F10885   6.146   2.784   8.771 -0.3282 -0.6215 -0.1208
  106OSM   H16F10886   6.043   2.770   8.730 -0.9814  2.5130  0.2347
  106OSM   H16G10887   6.202   2.688   8.767 -0.6927 -1.0547  2.7515
  106OSM   C17F10888   6.214   2.900   8.698 -0.6953 -0.2046  0.2966
  106OSM   H17F10889   6.321   2.886   8.727 -0.5373 -2.4796 -1.0964
  106OSM   H17G10890   6.183   3.000   8.734  1.4377  0.8519 -0.6080
  106OSM   C18F10891   6.208   2.889   8.546  0.7688 -0.1996  0.3843
  106OSM   H18F10892   6.103   2.902   8.513  1.0598  0.9339 -0.1752
  106OSM   H18G10893   6.243   2.794   8.500 -0.9178  0.4666 -2.5922
  106OSM   H18H10894   6.254   2.980   8.500 -0.1298  0.4323  0.7128
  107OSM      N10895   1.550   6.452  11.132  0.0594 -0.5534  0.5654
  107OSM    C1510896   1.525   6.411  11.273  0.3313 -0.3963 -0.3109
  107OSM   H15A10897   1.615   6.367  11.313 -0.8887 -3.9799 -1.1213
  107OSM   H15B10898   1.444   6.341  11.286  0.2393 -0.2668 -0.1844
  107OSM   H15C10899   1.496   6.498  11.330  0.7669 -2.4910  3.4459
  107OSM    C1410900   1.632   6.585  11.139 -0.4071 -0.1085 -0.0284
  107OSM   H14A10901   1.579   6.665  11.190 -1.1526  0.5002 -1.6843
  107OSM   H14B10902   1.641   6.621  11.038 -2.0964  0.6032  0.0387
  107OSM   H14C10903   1.729   6.573  11.185  0.5634  1.1062 -1.6595
  107OSM    C1310904   1.625   6.344  11.061  0.0334  0.4945 -0.1434
  107OSM   H13A10905   1.656   6.368  10.960  0.1703  0.5223 -0.0950
  107OSM   H13B10906   1.576   6.248  11.057  0.7458  0.1566 -1.9467
  107OSM   H13C10907   1.719   6.330  11.113 -0.1973 -2.3621 -0.3299
  107OSM    C1210908   1.420   6.488  11.060 -0.5274  0.0240 -0.3451
  107OSM   H12A10909   1.371   6.568  11.113 -0.8827 -0.3556 -0.0897
  107OSM   H12B10910   1.347   6.410  11.076  0.5880 -0.8898  0.5633
  107OSM    C1110911   1.426   6.524  10.910  0.3275 -0.8159  0.4602
  107OSM   H11A10912   1.323   6.499  10.874  0.4005  1.1407 -1.3152
  107OSM   H11B10913   1.497   6.450  10.869 -0.0544 -0.3044 -1.2208
  107OSM      P10914   1.384   6.790  10.924 -0.0387 -0.2093  0.2555
  107OSM    O1310915   1.346   6.776  11.065  0.5188 -0.0912 -0.3792
  107OSM    O1410916   1.457   6.914  10.885 -0.2178 -0.2194 -0.1236
  107OSM    O1110917   1.253   6.787  10.832  0.5972 -0.3219 -0.3685
  107OSM    O1210918   1.466   6.657  10.879 -0.5198 -0.1722  0.1067
  107OSM    C1S10919   1.251   6.770  10.695 -0.4043  0.2412 -0.0103
  107OSM    H1S10920   1.247   6.663  10.666 -2.8355  0.4899 -0.8087
  107OSM    H1T10921   1.336   6.818  10.643 -0.7002  0.7434 -0.0384
  107OSM     NF10922   1.122   6.790  10.479 -0.0651  0.0702  0.5893
  107OSM    HNF10923   1.150   6.861  10.414 -0.1490  0.6186  1.1504
  107OSM    C2S10924   1.118   6.825  10.623 -0.0051  0.6670  0.1029
  107OSM    H2S10925   1.025   6.788  10.671  0.6317 -0.4267  0.5662
  107OSM    C3S10926   1.108   6.980  10.656 -0.5059  0.1584 -0.8343
  107OSM    H3S10927   1.208   7.026  10.640 -0.4260  1.1714  1.9799
  107OSM     O310928   1.071   7.005  10.795 -0.0083  0.7300 -0.2813
  107OSM    HO310929   1.081   6.920  10.838  0.4718  1.3639  0.9033
  107OSM    C4S10930   1.005   7.042  10.564 -0.6159  0.2206 -0.1114
  107OSM    H4S10931   1.040   7.065  10.462 -1.5942  2.4236  0.0028
  107OSM    C5S10932   0.880   7.077  10.588  0.3687  0.6326 -0.2115
  107OSM    H5S10933   0.844   7.059  10.690  0.4650 -0.5348 -0.3772
  107OSM    C6S10934   0.786   7.139  10.492  0.0432 -0.0667  0.2603
  107OSM    H6S10935   0.765   7.242  10.527  0.0076 -0.0165  0.0936
  107OSM    H6T10936   0.686   7.094  10.513  0.1409  0.3557  1.7429
  107OSM    C7S10937   0.829   7.145  10.337 -0.0662  0.1471 -0.6750
  107OSM    H7S10938   0.872   7.046  10.312 -0.1046  0.2695 -1.2443
  107OSM    H7T10939   0.918   7.211  10.332  1.2325 -1.5382 -0.5082
  107OSM    C8S10940   0.718   7.192  10.246  0.1193  0.1537  0.0295
  107OSM    H8S10941   0.664   7.272  10.300  0.5300 -1.5279  3.1211
  107OSM    H8T10942   0.650   7.105  10.234 -0.8251  0.9803 -0.6500
  107OSM    C9S10943   0.764   7.253  10.110  0.2715 -0.3922  0.8850
  107OSM    H9S10944   0.846   7.194  10.063 -0.0211 -0.4738  0.4607
  107OSM    H9T10945   0.813   7.352  10.122  0.1030 -0.1760 -0.1057
  107OSM   C10S10946   0.643   7.275  10.014 -0.8568  1.1389  0.3185
  107OSM   H10S10947   0.551   7.303  10.070 -1.3167  3.6139 -1.4968
  107OSM   H10T10948   0.610   7.177   9.971 -0.4113  1.7069 -1.4233
  107OSM   C11S10949   0.680   7.360   9.886  0.2009  1.0661  0.5556
  107OSM   H11S10950   0.585   7.375   9.831  1.2272 -0.7801 -1.9095
  107OSM   H11T10951   0.741   7.296   9.819  1.7366  1.9681  1.0442
  107OSM   C12S10952   0.758   7.487   9.903 -0.3513 -0.0558  0.0657
  107OSM   H12S10953   0.862   7.461   9.933 -0.0197 -0.2617 -1.2231
  107OSM   H12T10954   0.714   7.539   9.991 -0.9768 -2.1710  1.0684
  107OSM   C13S10955   0.774   7.576   9.777  0.1876 -0.1067  0.4321
  107OSM   H13S10956   0.814   7.676   9.802  1.7293 -0.2218 -1.3706
  107OSM   H13T10957   0.678   7.586   9.722  0.8444  1.7543 -0.4472
  107OSM   C14S10958   0.855   7.516   9.667 -0.3326 -0.0829  0.1070
  107OSM   H14S10959   0.831   7.410   9.647 -0.9778 -0.3312  2.0109
  107OSM   H14T10960   0.960   7.524   9.705 -0.3086 -2.8738  0.8329
  107OSM   C15S10961   0.816   7.571   9.525  0.3696 -0.6049 -0.5767
  107OSM   H15S10962   0.823   7.681   9.537 -0.7779 -0.6100  0.3548
  107OSM   H15T10963   0.707   7.551   9.515 -0.3243  2.0192  0.7718
  107OSM   C16S10964   0.902   7.515   9.415  0.5231 -0.3288  0.4067
  107OSM   H16S10965   0.900   7.405   9.430  0.9980 -0.5100 -0.7504
  107OSM   H16T10966   1.007   7.549   9.430  0.0762  0.5831  1.6742
  107OSM   C17S10967   0.850   7.553   9.278  0.5093 -0.3544 -0.3143
  107OSM   H17S10968   0.838   7.664   9.280  1.4274 -0.1623 -2.2200
  107OSM   H17T10969   0.753   7.500   9.270  0.0509  0.4368 -0.1032
  107OSM   C18S10970   0.944   7.522   9.169 -0.4196 -0.3140  0.6306
  107OSM   H18S10971   0.971   7.414   9.176  2.3038  0.1157 -1.3379
  107OSM   H18T10972   1.045   7.564   9.187 -0.6339 -0.4731  2.3556
  107OSM   H18U10973   0.915   7.561   9.069  0.5145  0.4176  0.6317
  107OSM    C1F10974   1.119   6.663  10.437  0.0470 -0.3668 -0.0571
  107OSM     OF10975   1.061   6.580  10.506  0.2116  0.0767  0.0653
  107OSM    C2F10976   1.180   6.622  10.309  0.7171  0.6641 -0.8031
  107OSM    H2F10977   1.274   6.682  10.302 -0.8303  3.2304 -0.8316
  107OSM    H2G10978   1.111   6.661  10.231 -1.6985  1.1773  1.4355
  107OSM    C3F10979   1.195   6.472  10.295  0.6058  0.2981  0.3871
  107OSM    H3F10980   1.105   6.418  10.329 -1.1118  0.9473 -2.7655
  107OSM    H3G10981   1.279   6.449  10.364 -0.0301 -1.0693  0.7427
  107OSM    C4F10982   1.223   6.418  10.153  0.2033 -0.1418  0.6082
  107OSM    H4F10983   1.133   6.440  10.093  0.3502 -0.5167  0.2511
  107OSM    H4G10984   1.240   6.309  10.140 -1.4956 -0.7914  3.0639
  107OSM    C5F10985   1.335   6.501  10.092  0.1600  0.1126 -0.2240
  107OSM    H5F10986   1.427   6.504  10.155  0.6780 -1.7904 -0.8022
  107OSM    H5G10987   1.291   6.601  10.071 -0.9162 -0.4001 -0.4811
  107OSM    C6F10988   1.377   6.447   9.952 -0.1070  0.1590 -0.0674
  107OSM    H6F10989   1.292   6.391   9.909 -0.0792  1.3489 -1.7668
  107OSM    H6G10990   1.451   6.371   9.986 -0.0105  0.8698  1.3827
  107OSM    C7F10991   1.432   6.553   9.856 -0.1041  0.2988  0.4572
  107OSM    H7F10992   1.474   6.635   9.919  2.3354 -0.3336 -0.2654
  107OSM    H7G10993   1.338   6.589   9.810  0.2003  1.9622  1.0696
  107OSM    C8F10994   1.536   6.517   9.752 -0.7444  0.4745 -0.9390
  107OSM    H8F10995   1.480   6.447   9.686  0.9249 -1.1434 -0.7284
  107OSM    H8G10996   1.624   6.458   9.788 -0.1688  1.4158 -0.7746
  107OSM    C9F10997   1.581   6.635   9.679 -0.2784  0.6013 -0.3324
  107OSM    H9F10998   1.582   6.723   9.745 -1.1292  0.8071 -0.5750
  107OSM   C10F10999   1.594   6.651   9.544 -0.0219 -0.0840  0.2710
  107OSM   H10F11000   1.628   6.752   9.517  1.3170  0.2931  3.0148
  107OSM   C11F11001   1.557   6.542   9.439  0.1925 -0.2094  0.0545
  107OSM   H11F11002   1.451   6.542   9.404  0.0837  2.4595  0.2097
  107OSM   H11G11003   1.560   6.440   9.482  2.3756 -2.0136 -3.8036
  107OSM   C12F11004   1.650   6.544   9.323 -0.1879 -0.4341  0.5237
  107OSM   H12F11005   1.630   6.453   9.263  1.1221 -0.1294 -0.4212
  107OSM   H12G11006   1.754   6.542   9.363 -0.8568 -0.0843  2.3646
  107OSM   C13F11007   1.642   6.670   9.229  0.2599  0.3814  0.0542
  107OSM   H13F11008   1.701   6.757   9.265  1.8530  0.5376 -2.6165
  107OSM   H13G11009   1.539   6.705   9.206  0.3958  1.7124  1.3469
  107OSM   C14F11010   1.715   6.654   9.092  0.9708 -0.3976 -0.1598
  107OSM   H14F11011   1.811   6.601   9.109  0.1273 -2.2497 -0.8368
  107OSM   H14G11012   1.733   6.756   9.052 -1.9997  0.7805  1.2527
  107OSM   C15F11013   1.638   6.565   8.983 -0.9184 -0.1928 -0.8003
  107OSM   H15F11014   1.529   6.584   8.979 -1.2008 -1.1414  1.0498
  107OSM   H15G11015   1.651   6.460   9.018  1.5034  0.2012 -0.3182
  107OSM   C16F11016   1.691   6.575   8.830  0.0146 -0.7110 -0.3046
  107OSM   H16F11017   1.799   6.548   8.836 -0.2568 -1.8638 -0.3604
  107OSM   H16G11018   1.668   6.670   8.777 -1.1810 -0.8503 -0.0579
  107OSM   C17F11019   1.631   6.469   8.733  0.0013  0.0406 -0.9252
  107OSM   H17F11020   1.523   6.494   8.745  0.7023  1.9017  3.1842
  107OSM   H17G11021   1.644   6.368   8.777 -1.2062 -0.6680 -2.1004
  107OSM   C18F11022   1.679   6.475   8.587  0.0884 -0.2244 -0.3509
  107OSM   H18F11023   1.789   6.471   8.574  0.0366  0.5407 -1.0903
  107OSM   H18G11024   1.647   6.565   8.532 -0.8393 -0.2266  0.1623
  107OSM   H18H11025   1.631   6.387   8.538 -0.7948  0.0883 -0.0618
  108OSM      N11026   5.689   2.114  10.809  0.5891 -0.1292  0.4017
  108OSM    C1511027   5.650   2.008  10.904  0.2142 -0.3811 -0.0339
  108OSM   H15A11028   5.568   2.042  10.966  0.5185  0.6118 -0.1735
  108OSM   H15B11029   5.729   1.982  10.972 -1.5258 -2.3457  1.3833
  108OSM   H15C11030   5.607   1.924  10.851 -3.3099 -0.1166  2.0399
  108OSM    C1411031   5.661   2.249  10.868 -0.3292 -0.4276 -0.4555
  108OSM   H14A11032   5.685   2.333  10.805  1.0585 -1.1945 -1.0076
  108OSM   H14B11033   5.724   2.269  10.953 -2.2088  0.6575  0.7571
  108OSM   H14C11034   5.556   2.264  10.890 -0.5896  1.0348 -2.4234
  108OSM    C1311035   5.834   2.109  10.771  0.5196  0.3455 -0.7636
  108OSM   H13A11036   5.863   2.010  10.741  0.9856  0.4431 -0.6359
  108OSM   H13B11037   5.888   2.146  10.857  0.7450  2.9506 -1.9101
  108OSM   H13C11038   5.846   2.180  10.691 -0.7192  0.0686 -1.2240
  108OSM    C1211039   5.596   2.105  10.692  0.2322  0.5286  1.0475
  108OSM   H12A11040   5.612   2.199  10.640  1.1463  0.0121  0.3660
  108OSM   H12B11041   5.499   2.102  10.739 -0.5395  2.6475 -0.2729
  108OSM    C1111042   5.614   1.990  10.593 -0.0573  0.1860 -0.3597
  108OSM   H11A11043   5.710   2.027  10.550 -0.0835  1.3701  0.5446
  108OSM   H11B11044   5.539   1.986  10.511 -2.0420  1.8013  1.2614
  108OSM      P11045   5.734   1.752  10.605 -0.1453 -0.0306  0.2266
  108OSM    O1311046   5.869   1.817  10.578 -0.7447 -0.5396 -0.2955
  108OSM    O1411047   5.742   1.631  10.690 -0.1596  0.0789 -0.4199
  108OSM    O1111048   5.681   1.706  10.462 -0.2285 -0.1193  0.0171
  108OSM    O1211049   5.631   1.864  10.657  0.2614  0.5424 -0.3769
  108OSM    C1S11050   5.543   1.703  10.428  0.0882 -0.1888 -0.0363
  108OSM    H1S11051   5.490   1.797  10.456  0.4690  0.3700 -1.0948
  108OSM    H1T11052   5.491   1.630  10.493  0.4124  0.5637  1.0859
  108OSM     NF11053   5.393   1.739  10.226 -0.6557  0.8240 -0.0378
  108OSM    HNF11054   5.333   1.670  10.186 -3.5361  3.3875 -0.5298
  108OSM    C2S11055   5.534   1.701  10.272  0.4870  0.5465  0.1108
  108OSM    H2S11056   5.612   1.765  10.227  2.3534  0.0151  2.4200
  108OSM    C3S11057   5.568   1.543  10.227 -0.6055 -0.1442 -0.2486
  108OSM    H3S11058   5.495   1.470  10.268 -0.2531 -0.4367 -0.1375
  108OSM     O311059   5.691   1.491  10.269 -0.2874 -0.1327 -0.3503
  108OSM    HO311060   5.726   1.562  10.323  1.7879 -0.5747 -1.0447
  108OSM    C4S11061   5.562   1.538  10.076  0.5236 -0.5164 -0.2752
  108OSM    H4S11062   5.470   1.494  10.036 -0.5738  0.3704  1.1921
  108OSM    C5S11063   5.656   1.590   9.999  0.6703 -0.2367 -0.0347
  108OSM    H5S11064   5.741   1.643  10.045  0.4277  2.7593 -2.6540
  108OSM    C6S11065   5.641   1.595   9.845  0.8178  0.9274 -0.2645
  108OSM    H6S11066   5.708   1.519   9.801 -1.1134 -1.5340  0.7893
  108OSM    H6T11067   5.673   1.694   9.806  2.1215 -0.3234 -2.5793
  108OSM    C7S11068   5.495   1.573   9.789 -0.1790 -0.1681  0.3905
  108OSM    H7S11069   5.427   1.654   9.824  1.2800  1.8432 -1.2316
  108OSM    H7T11070   5.458   1.474   9.824 -2.4742  1.1323  1.9322
  108OSM    C8S11071   5.496   1.570   9.634  0.2053 -0.4914 -0.2903
  108OSM    H8S11072   5.395   1.554   9.592 -0.7360  2.8569  0.4138
  108OSM    H8T11073   5.567   1.487   9.611  1.7749  0.9690 -0.9821
  108OSM    C9S11074   5.555   1.702   9.573  0.6558 -0.1506  0.1483
  108OSM    H9S11075   5.664   1.704   9.597  0.9252 -3.2478 -0.3042
  108OSM    H9T11076   5.507   1.785   9.628 -2.3321 -1.9276  0.4302
  108OSM   C10S11077   5.519   1.717   9.419 -0.6764 -0.2062 -0.2467
  108OSM   H10S11078   5.563   1.812   9.381  1.8349 -0.6566  1.2669
  108OSM   H10T11079   5.409   1.729   9.412 -0.6127  5.0143  2.6395
  108OSM   C11S11080   5.575   1.601   9.332  0.4699  0.1587  0.2023
  108OSM   H11S11081   5.547   1.503   9.376 -0.0781 -0.4964 -1.5115
  108OSM   H11T11082   5.685   1.602   9.346  0.5452 -0.5205 -0.2443
  108OSM   C12S11083   5.541   1.605   9.180 -0.2260  1.0709  0.7132
  108OSM   H12S11084   5.432   1.585   9.171 -0.3652  2.1572 -0.3465
  108OSM   H12T11085   5.592   1.522   9.126  0.9212  1.3343  1.3548
  108OSM   C13S11086   5.576   1.730   9.101 -0.0197 -0.0823  0.5884
  108OSM   H13S11087   5.669   1.781   9.133  0.2823  1.3170 -2.2133
  108OSM   H13T11088   5.506   1.815   9.117 -1.7524 -1.1024 -1.1017
  108OSM   C14S11089   5.575   1.704   8.946  0.2238 -0.1616 -0.6711
  108OSM   H14S11090   5.470   1.693   8.911  0.9603 -1.3605 -2.6919
  108OSM   H14T11091   5.640   1.615   8.930  1.7974  0.8703 -0.2678
  108OSM   C15S11092   5.630   1.823   8.878 -0.3715 -0.7974 -0.4523
  108OSM   H15S11093   5.727   1.844   8.927  0.5128 -3.7810 -0.7389
  108OSM   H15T11094   5.567   1.913   8.893  1.2507  0.3384 -0.1938
  108OSM   C16S11095   5.640   1.802   8.727 -0.0121  0.4761 -0.7866
  108OSM   H16S11096   5.718   1.726   8.709 -0.2170  0.3635 -1.2200
  108OSM   H16T11097   5.674   1.899   8.685  0.0564 -0.0213 -1.9098
  108OSM   C17S11098   5.508   1.759   8.669  0.5462 -0.6883  0.0028
  108OSM   H17S11099   5.429   1.828   8.706 -0.5730 -1.1980 -1.3285
  108OSM   H17T11100   5.491   1.656   8.708  0.8862 -0.6214  0.3351
  108OSM   C18S11101   5.509   1.763   8.517 -0.1170  0.3376 -0.3410
  108OSM   H18S11102   5.517   1.866   8.478 -1.8505 -0.1030 -2.0350
  108OSM   H18T11103   5.412   1.719   8.483 -0.3478 -1.5241  2.3782
  108OSM   H18U11104   5.599   1.711   8.477 -1.0079 -1.1956 -0.4731
  108OSM    C1F11105   5.339   1.855  10.238  0.2899 -0.4114 -0.0353
  108OSM     OF11106   5.391   1.948  10.293 -0.2709  0.0530 -0.2784
  108OSM    C2F11107   5.192   1.869  10.200 -0.1154  0.1144 -0.0398
  108OSM    H2F11108   5.132   1.912  10.284 -3.5920 -1.6113 -1.4782
  108OSM    H2G11109   5.156   1.765  10.194 -0.3104  0.0967  1.1774
  108OSM    C3F11110   5.177   1.941  10.067  0.2813  0.2466 -1.2203
  108OSM    H3F11111   5.220   2.040  10.095  3.2258 -1.1529 -0.4106
  108OSM    H3G11112   5.069   1.959  10.050 -0.4984 -0.8350  2.0263
  108OSM    C4F11113   5.250   1.890   9.943  0.0712  0.3369  0.6141
  108OSM    H4F11114   5.229   1.782   9.927 -1.8263  0.5694  1.2648
  108OSM    H4G11115   5.359   1.894   9.960 -0.1724  1.6338  2.1140
  108OSM    C5F11116   5.206   1.974   9.818  0.6019 -0.0474  0.0319
  108OSM    H5F11117   5.258   2.070   9.839  2.6366 -1.2588  0.9577
  108OSM    H5G11118   5.095   1.981   9.815  0.5267  0.8607  2.4808
  108OSM    C6F11119   5.262   1.899   9.699 -0.4109  0.6242 -0.5664
  108OSM    H6F11120   5.182   1.835   9.657  1.3655 -1.3042 -1.2224
  108OSM    H6G11121   5.348   1.836   9.733  0.4363  2.0545  0.0263
  108OSM    C7F11122   5.318   1.984   9.589 -0.6172  0.4107  0.4616
  108OSM    H7F11123   5.379   1.937   9.509 -0.9319 -0.6340  0.8163
  108OSM    H7G11124   5.376   2.056   9.651 -0.5220 -0.1497  1.0332
  108OSM    C8F11125   5.206   2.053   9.508 -0.5178 -0.2424  0.5478
  108OSM    H8F11126   5.252   2.145   9.465 -0.6051 -1.1356 -1.5810
  108OSM    H8G11127   5.134   2.083   9.587 -0.7632  1.2480 -0.2090
  108OSM    C9F11128   5.140   1.973   9.402 -0.1385  0.4467  0.2402
  108OSM    H9F11129   5.091   1.879   9.431  2.1313 -0.9220 -0.1109
  108OSM   C10F11130   5.138   1.990   9.270 -0.7246  0.2513  0.2926
  108OSM   H10F11131   5.094   1.914   9.204 -1.5854  0.3832  0.7052
  108OSM   C11F11132   5.212   2.104   9.200  0.0086  0.3016 -0.4440
  108OSM   H11F11133   5.244   2.075   9.098 -2.0514 -0.7685 -0.8518
  108OSM   H11G11134   5.297   2.135   9.264  1.3191 -1.4942 -1.2384
  108OSM   C12F11135   5.112   2.221   9.182  0.1918 -0.9695  0.7575
  108OSM   H12F11136   5.168   2.303   9.133 -2.0390  0.8212  1.0222
  108OSM   H12G11137   5.079   2.275   9.274 -0.9771 -0.4919  0.0742
  108OSM   C13F11138   4.983   2.192   9.099 -0.0020 -0.4185  0.6294
  108OSM   H13F11139   4.911   2.124   9.151 -0.2084  0.1611  1.1142
  108OSM   H13G11140   5.012   2.133   9.010  1.4760 -0.8381  1.3608
  108OSM   C14F11141   4.896   2.315   9.052 -0.2203  0.0612  0.9089
  108OSM   H14F11142   4.957   2.397   9.007 -2.5693  1.7881  0.6875
  108OSM   H14G11143   4.837   2.361   9.134  0.4260  1.1006  0.8058
  108OSM   C15F11144   4.797   2.270   8.940  0.3330  0.1318  0.3208
  108OSM   H15F11145   4.738   2.184   8.979  1.1469 -1.3678 -1.5728
  108OSM   H15G11146   4.869   2.235   8.863  2.0009  4.1045 -0.1357
  108OSM   C16F11147   4.696   2.374   8.887  0.4344  0.4480  0.2919
  108OSM   H16F11148   4.750   2.453   8.830  0.1929  0.4474  0.0619
  108OSM   H16G11149   4.638   2.421   8.970  1.3737  0.5789  0.8878
  108OSM   C17F11150   4.601   2.310   8.783  0.1952 -0.0444  0.3540
  108OSM   H17F11151   4.549   2.223   8.828  1.6102 -1.2600 -0.2812
  108OSM   H17G11152   4.655   2.275   8.693 -0.6032  1.3174 -0.6965
  108OSM   C18F11153   4.494   2.404   8.717  0.2610 -0.4059  0.1353
  108OSM   H18F11154   4.546   2.495   8.680 -0.5965  1.6665  3.5012
  108OSM   H18G11155   4.420   2.438   8.793 -0.8843 -0.8691 -0.7406
  108OSM   H18H11156   4.444   2.360   8.629  0.1712 -0.5138  0.2401
  109OSM      N11157   2.193   5.279  10.861  0.1626 -0.1510  0.0424
  109OSM    C1511158   2.269   5.156  10.916  0.3793 -0.4632 -0.5249
  109OSM   H15A11159   2.319   5.100  10.838  2.1523  0.8094 -0.3838
  109OSM   H15B11160   2.201   5.087  10.964  1.7918 -0.5780  1.4472
  109OSM   H15C11161   2.340   5.183  10.992 -2.0975 -0.3341  1.8771
  109OSM    C1411162   2.117   5.332  10.979  0.6780  0.3150  0.6735
  109OSM   H14A11163   2.166   5.307  11.072 -0.3844 -1.6194  0.7835
  109OSM   H14B11164   2.019   5.288  10.996  1.0344 -0.4946  0.6856
  109OSM   H14C11165   2.095   5.434  10.954 -1.2696 -0.3583 -0.6375
  109OSM    C1311166   2.291   5.384  10.828 -0.0549 -0.2507 -1.0062
  109OSM   H13A11167   2.354   5.394  10.915 -0.4255  0.3369 -0.7960
  109OSM   H13B11168   2.242   5.477  10.801 -1.6603 -0.4399  1.0142
  109OSM   H13C11169   2.352   5.355  10.744  1.2073  0.6215 -0.4295
  109OSM    C1211170   2.111   5.237  10.744 -0.1098 -0.2818  0.5140
  109OSM   H12A11171   2.169   5.171  10.681  0.8171  1.1443 -0.1538
  109OSM   H12B11172   2.089   5.319  10.677  2.7869  1.5601  1.6639
  109OSM    C1111173   1.973   5.165  10.771  0.5486  0.5081  0.1068
  109OSM   H11A11174   1.937   5.123  10.675 -2.4085  0.6839  1.0288
  109OSM   H11B11175   1.895   5.237  10.804  1.3983  0.2915  2.8518
  109OSM      P11176   2.014   4.910  10.822  0.2896  0.0849  0.0568
  109OSM    O1311177   2.121   4.846  10.904  0.0090 -0.4196 -0.3697
  109OSM    O1411178   1.882   4.839  10.820 -0.1754  0.3801  0.3398
  109OSM    O1111179   2.066   4.931  10.676  0.1475 -0.5221  0.5339
  109OSM    O1211180   1.982   5.061  10.870 -0.4232  0.4314 -0.2537
  109OSM    C1S11181   2.059   4.828  10.579 -0.1791  0.1684 -0.3266
  109OSM    H1S11182   1.956   4.814  10.541  0.0488 -0.3644 -0.7599
  109OSM    H1T11183   2.080   4.727  10.620 -2.4353 -1.2327 -2.3301
  109OSM     NF11184   2.128   4.744  10.352  0.3008  0.6960  0.2907
  109OSM    HNF11185   2.195   4.670  10.346 -0.0286  0.4133  0.0335
  109OSM    C2S11186   2.142   4.855  10.450  0.6470 -0.1225  0.0539
  109OSM    H2S11187   2.084   4.937  10.401 -1.3219 -2.0833 -1.0558
  109OSM    C3S11188   2.294   4.904  10.480 -0.0822  0.6798 -0.3358
  109OSM    H3S11189   2.352   4.814  10.510 -2.0567 -0.4344  0.3549
  109OSM     O311190   2.305   4.987  10.593 -0.1278 -0.7175  0.6758
  109OSM    HO311191   2.221   4.968  10.636 -0.8390  1.1747  0.2222
  109OSM    C4S11192   2.351   4.964  10.354 -0.5308 -0.2184  0.1536
  109OSM    H4S11193   2.270   5.007  10.294 -0.6939  0.1220  0.6041
  109OSM    C5S11194   2.478   4.979  10.310  0.2738 -0.4254  0.4757
  109OSM    H5S11195   2.556   4.973  10.387  1.2790  2.3407 -0.2045
  109OSM    C6S11196   2.518   5.055  10.184  0.7601  0.5514  0.3059
  109OSM    H6S11197   2.611   5.115  10.193  0.3673  2.0707 -3.7502
  109OSM    H6T11198   2.442   5.131  10.155  1.2464  0.3835 -1.5306
  109OSM    C7S11199   2.533   4.961  10.065 -0.7244 -0.2375 -0.1353
  109OSM    H7S11200   2.433   4.918  10.044 -0.7603  0.5007 -1.6258
  109OSM    H7T11201   2.614   4.884  10.062 -1.9408 -1.5303 -0.7577
  109OSM    C8S11202   2.570   5.049   9.943 -0.1397 -0.1744  0.5536
  109OSM    H8S11203   2.668   5.099   9.957 -0.8745  1.1774  1.1251
  109OSM    H8T11204   2.488   5.125   9.938 -0.1321 -0.2479 -1.3473
  109OSM    C9S11205   2.560   4.969   9.813 -0.0949  0.2205  0.0675
  109OSM    H9S11206   2.461   4.918   9.816 -0.2036  0.4431  0.2828
  109OSM    H9T11207   2.635   4.887   9.819  0.4843  0.7163 -0.2865
  109OSM   C10S11208   2.568   5.053   9.688  0.4027  0.4368  0.5294
  109OSM   H10S11209   2.666   5.103   9.676  0.1423  0.6025 -1.1606
  109OSM   H10T11210   2.486   5.125   9.668  0.5828 -0.0687 -2.5589
  109OSM   C11S11211   2.563   4.957   9.568 -0.5277  1.0027 -0.2739
  109OSM   H11S11212   2.470   4.896   9.565 -0.3512  0.6946  0.3257
  109OSM   H11T11213   2.647   4.885   9.579  0.5160  2.1538 -0.5297
  109OSM   C12S11214   2.566   5.032   9.435  0.3202  0.2041 -0.0806
  109OSM   H12S11215   2.628   5.123   9.443  0.0748  0.2840  1.0601
  109OSM   H12T11216   2.466   5.080   9.439 -1.5180 -3.2843  3.0368
  109OSM   C13S11217   2.588   4.939   9.317 -0.2025  0.7595 -0.7655
  109OSM   H13S11218   2.525   4.848   9.330 -0.4532  0.9280 -0.8009
  109OSM   H13T11219   2.691   4.896   9.314 -1.0227 -1.2416 -2.6019
  109OSM   C14S11220   2.560   5.011   9.192 -0.0549 -0.9876  0.2737
  109OSM   H14S11221   2.623   5.102   9.194 -0.3219 -0.8067  0.9259
  109OSM   H14T11222   2.454   5.045   9.187  0.5412  0.7909 -0.8514
  109OSM   C15S11223   2.587   4.933   9.058  0.0397 -0.0074 -0.0168
  109OSM   H15S11224   2.695   4.904   9.056 -0.8132 -4.0599  1.6920
  109OSM   H15T11225   2.564   5.004   8.976  0.3514  0.9058  0.6677
  109OSM   C16S11226   2.507   4.800   9.036 -0.8499 -0.3342 -0.5205
  109OSM   H16S11227   2.402   4.828   9.063 -0.9298 -1.9870  1.0816
  109OSM   H16T11228   2.553   4.726   9.104 -2.7218 -0.8228  0.2893
  109OSM   C17S11229   2.514   4.725   8.903  0.3932 -0.7939 -0.0232
  109OSM   H17S11230   2.621   4.728   8.877  0.4338  1.3168  0.1430
  109OSM   H17T11231   2.465   4.784   8.822  1.2862  2.1508  1.4148
  109OSM   C18S11232   2.466   4.584   8.914 -0.3382 -0.3228 -0.1556
  109OSM   H18S11233   2.512   4.516   8.989 -1.2350 -2.2641 -1.2630
  109OSM   H18T11234   2.488   4.522   8.824  0.2782 -1.9662  1.0801
  109OSM   H18U11235   2.356   4.573   8.927 -0.0639 -0.6707  2.5132
  109OSM    C1F11236   2.009   4.709  10.301  0.2012 -0.5187 -0.0391
  109OSM     OF11237   1.913   4.780  10.306  0.5007  0.2036  0.3310
  109OSM    C2F11238   2.000   4.575  10.240  0.3382 -0.0400 -0.1284
  109OSM    H2F11239   1.979   4.498  10.318  0.9386  0.1972  0.2786
  109OSM    H2G11240   2.106   4.563  10.208  0.7694  2.0550  0.3489
  109OSM    C3F11241   1.899   4.571  10.128 -0.0495 -0.4532 -0.6229
  109OSM    H3F11242   1.909   4.665  10.069 -2.4648  0.0462 -0.3559
  109OSM    H3G11243   1.797   4.573  10.171 -0.0592  2.0933 -0.6401
  109OSM    C4F11244   1.917   4.456  10.030  0.2884  0.0274  0.7620
  109OSM    H4F11245   1.898   4.360  10.082 -2.3576  0.3980  0.6295
  109OSM    H4G11246   2.017   4.462   9.981 -0.9069  0.0144 -1.8681
  109OSM    C5F11247   1.808   4.460   9.925  0.1035 -0.1010 -0.3568
  109OSM    H5F11248   1.722   4.419   9.982  3.2600 -1.7383  3.6975
  109OSM    H5G11249   1.829   4.386   9.844  1.4896  2.2901 -2.3403
  109OSM    C6F11250   1.791   4.599   9.851 -0.0018 -0.2671 -0.4875
  109OSM    H6F11251   1.882   4.638   9.801 -0.9705  2.3150 -0.3388
  109OSM    H6G11252   1.768   4.682   9.921  1.9518  0.9699 -1.2089
  109OSM    C7F11253   1.665   4.596   9.758 -0.5348 -0.1398 -0.1643
  109OSM    H7F11254   1.630   4.699   9.737  0.2368  0.3872  0.9997
  109OSM    H7G11255   1.578   4.560   9.817  1.2116 -1.9738  1.4504
  109OSM    C8F11256   1.683   4.511   9.626  0.1944  0.3424 -0.8598
  109OSM    H8F11257   1.590   4.496   9.567 -1.1767 -1.1303  1.4901
  109OSM    H8G11258   1.712   4.411   9.666 -1.3683 -0.2999 -1.2683
  109OSM    C9F11259   1.798   4.550   9.537  1.2577 -0.2868  0.7793
  109OSM    H9F11260   1.899   4.546   9.579  1.5044 -1.7010  0.0930
  109OSM   C10F11261   1.779   4.591   9.407 -0.1788 -0.3353  0.0342
  109OSM   H10F11262   1.867   4.608   9.343 -0.7239  3.7440  0.0476
  109OSM   C11F11263   1.647   4.612   9.336  0.0591  0.8349  1.0845
  109OSM   H11F11264   1.611   4.716   9.344 -2.3075  0.1537  0.0214
  109OSM   H11G11265   1.555   4.562   9.373 -0.2504  1.3602  1.0304
  109OSM   C12F11266   1.670   4.582   9.186 -0.4956 -0.8026 -0.2656
  109OSM   H12F11267   1.719   4.483   9.172  2.3840  0.4322  0.2261
  109OSM   H12G11268   1.748   4.654   9.152 -0.1029 -0.7212  0.7557
  109OSM   C13F11269   1.544   4.603   9.096 -0.3742 -0.2421  0.2337
  109OSM   H13F11270   1.504   4.704   9.119  2.2014  0.7716  0.5777
  109OSM   H13G11271   1.461   4.535   9.128 -1.5078  0.9332 -0.1203
  109OSM   C14F11272   1.572   4.591   8.946 -0.1827 -0.2149  0.4535
  109OSM   H14F11273   1.474   4.590   8.894 -0.0011 -0.9136  0.1139
  109OSM   H14G11274   1.630   4.498   8.931  0.3206 -0.1422  1.8876
  109OSM   C15F11275   1.657   4.699   8.886 -0.7449  0.7903  0.3698
  109OSM   H15F11276   1.750   4.703   8.947 -0.8196 -0.1598  0.5623
  109OSM   H15G11277   1.613   4.800   8.895  3.6741  3.1265 -0.9781
  109OSM   C16F11278   1.696   4.667   8.741 -1.0102  0.9725 -0.5376
  109OSM   H16F11279   1.737   4.564   8.742 -4.2202 -0.4142 -0.3091
  109OSM   H16G11280   1.779   4.734   8.709  2.4554 -1.9637  1.5823
  109OSM   C17F11281   1.581   4.681   8.640  0.2269  0.2955  0.3073
  109OSM   H17F11282   1.504   4.605   8.665  0.2528 -0.7570 -2.4507
  109OSM   H17G11283   1.618   4.650   8.540 -2.7745  1.4605 -1.2775
  109OSM   C18F11284   1.521   4.826   8.623  0.6488 -0.3085 -0.3375
  109OSM   H18F11285   1.445   4.833   8.542 -0.5408  2.0461  0.8459
  109OSM   H18G11286   1.604   4.899   8.611  0.6458  0.3902  2.8438
  109OSM   H18H11287   1.459   4.855   8.711  2.1948  0.2427  0.6058
  110OSM      N11288   3.942   3.865  11.280  0.8175  0.1287  0.6299
  110OSM    C1511289   3.885   3.987  11.342  0.2270  0.4883  0.1871
  110OSM   H15A11290   3.964   4.057  11.369  1.7958 -1.2250  0.2493
  110OSM   H15B11291   3.827   3.961  11.429  0.2596 -0.2755 -0.0129
  110OSM   H15C11292   3.821   4.044  11.277 -0.4737 -0.7599 -0.2499
  110OSM    C1411293   3.998   3.900  11.156 -0.0654  0.4187  0.3873
  110OSM   H14A11294   3.916   3.917  11.087  0.2202  2.0200  0.4034
  110OSM   H14B11295   4.061   3.818  11.123 -3.0203 -1.2179 -1.6844
  110OSM   H14C11296   4.047   3.996  11.160 -1.9885  1.3988  2.1946
  110OSM    C1311297   4.057   3.816  11.365 -0.3509 -0.7303  0.4287
  110OSM   H13A11298   4.107   3.735  11.314  1.4677 -0.3680  1.5685
  110OSM   H13B11299   4.021   3.778  11.460  0.3872  0.2689  1.1240
  110OSM   H13C11300   4.134   3.889  11.381 -0.8222 -0.3064  0.7918
  110OSM    C1211301   3.836   3.767  11.254 -0.5104 -0.2847  0.1163
  110OSM   H12A11302   3.800   3.727  11.347  1.4877 -0.5096  0.8379
  110OSM   H12B11303   3.882   3.680  11.210 -2.1132 -1.7951  1.2987
  110OSM    C1111304   3.712   3.808  11.173 -0.2794  0.0106  0.1486
  110OSM   H11A11305   3.683   3.908  11.213 -0.5843 -0.8582  2.2060
  110OSM   H11B11306   3.633   3.733  11.192  0.3550 -1.0905 -1.4176
  110OSM      P11307   3.627   3.852  10.938  0.3388 -0.5884 -0.1105
  110OSM    O1311308   3.549   3.735  10.891  0.4010 -0.7200 -0.4929
  110OSM    O1411309   3.555   3.962  11.004 -0.4147 -0.4467  0.1699
  110OSM    O1111310   3.709   3.909  10.814  0.7247 -0.3268 -0.6036
  110OSM    O1211311   3.739   3.803  11.032 -0.2160  0.8041  0.5739
  110OSM    C1S11312   3.790   3.826  10.736  0.0547 -0.2167  0.1880
  110OSM    H1S11313   3.737   3.748  10.677 -0.2645 -0.7049  1.0890
  110OSM    H1T11314   3.858   3.761  10.795 -0.2764  0.3303  1.1994
  110OSM     NF11315   3.952   3.819  10.553 -0.7252 -0.3018  0.4020
  110OSM    HNF11316   4.051   3.824  10.563 -0.8169  2.2846  0.5588
  110OSM    C2S11317   3.872   3.906  10.631 -0.1899 -1.1148 -0.0108
  110OSM    H2S11318   3.803   3.952  10.558  1.6108 -0.9033 -1.6645
  110OSM    C3S11319   3.965   4.017  10.688  0.6236 -0.6330  0.4070
  110OSM    H3S11320   4.058   3.975  10.731  1.0886 -2.1180 -1.8936
  110OSM     O311321   3.895   4.100  10.779 -0.4713 -0.3385 -0.0880
  110OSM    HO311322   3.815   4.047  10.787 -1.2061  0.5117 -1.3061
  110OSM    C4S11323   4.016   4.107  10.571 -0.5947  0.8140  0.2238
  110OSM    H4S11324   3.933   4.136  10.505 -0.7388 -1.0369 -0.4915
  110OSM    C5S11325   4.140   4.111  10.524 -0.0267 -0.1783  0.1040
  110OSM    H5S11326   4.221   4.062  10.580  1.7897  1.4934 -0.9210
  110OSM    C6S11327   4.190   4.172  10.396  0.2400  0.4032  0.3190
  110OSM    H6S11328   4.300   4.183  10.406  0.3316 -2.1592  4.4624
  110OSM    H6T11329   4.144   4.272  10.389  0.6644  0.6099  0.4426
  110OSM    C7S11330   4.167   4.089  10.261 -0.9601  0.4197  0.7982
  110OSM    H7S11331   4.058   4.090  10.237 -0.8755 -0.1181  0.4003
  110OSM    H7T11332   4.210   3.988  10.275 -3.3045 -1.0639 -1.8459
  110OSM    C8S11333   4.265   4.142  10.162 -0.4959  0.4025  0.4028
  110OSM    H8S11334   4.277   4.082  10.069  2.5037  1.4694 -0.0286
  110OSM    H8T11335   4.371   4.145  10.196 -0.4582  0.7946  0.2509
  110OSM    C9S11336   4.239   4.287  10.118  0.1665  0.5484 -0.1586
  110OSM    H9S11337   4.254   4.353  10.206  0.9758  1.9794 -1.3060
  110OSM    H9T11338   4.136   4.305  10.080 -0.5935 -0.4125  1.3785
  110OSM   C10S11339   4.313   4.321   9.986  0.2929  0.9777  0.3325
  110OSM   H10S11340   4.420   4.293   9.999  0.0142 -0.0956  0.4419
  110OSM   H10T11341   4.306   4.427   9.953  0.3914  0.0219 -3.1069
  110OSM   C11S11342   4.266   4.236   9.868  0.1039  0.2706 -0.6671
  110OSM   H11S11343   4.155   4.233   9.873  0.1093 -1.4035 -0.9416
  110OSM   H11T11344   4.299   4.130   9.873 -0.4866 -0.0082 -2.1821
  110OSM   C12S11345   4.321   4.308   9.742 -0.8958  0.3856  0.0778
  110OSM   H12S11346   4.425   4.271   9.729 -0.8470  0.4273  0.3262
  110OSM   H12T11347   4.339   4.417   9.753  0.4819  0.1593  0.2083
  110OSM   C13S11348   4.260   4.274   9.607 -0.3766 -0.2940 -0.2378
  110OSM   H13S11349   4.151   4.295   9.611 -0.2134  0.5627 -0.0842
  110OSM   H13T11350   4.273   4.165   9.590  0.4100 -0.0798 -1.1060
  110OSM   C14S11351   4.325   4.360   9.506 -0.3565  0.1396  0.4588
  110OSM   H14S11352   4.436   4.350   9.514 -0.4159  0.7541  4.3231
  110OSM   H14T11353   4.318   4.468   9.534  1.8124  0.4325  0.1005
  110OSM   C15S11354   4.273   4.335   9.370 -0.5827 -0.2322  0.2673
  110OSM   H15S11355   4.166   4.365   9.372 -0.9816 -0.8514 -4.0015
  110OSM   H15T11356   4.289   4.230   9.338  2.4673  0.1312  0.3043
  110OSM   C16S11357   4.340   4.411   9.257  0.2783  0.4721 -0.4549
  110OSM   H16S11358   4.449   4.402   9.278  0.3881  3.7380  0.9834
  110OSM   H16T11359   4.317   4.519   9.273 -0.0631 -0.0891  3.8492
  110OSM   C17S11360   4.317   4.359   9.116  0.6317  0.6293 -0.0788
  110OSM   H17S11361   4.360   4.260   9.091 -2.9361 -1.2262  0.5154
  110OSM   H17T11362   4.353   4.428   9.037  3.1939 -1.5692 -0.9831
  110OSM   C18S11363   4.163   4.341   9.095  0.3074 -0.1692 -0.0233
  110OSM   H18S11364   4.124   4.240   9.123 -0.5941  0.3914  0.7932
  110OSM   H18T11365   4.137   4.353   8.987 -2.7778  2.2298  0.8303
  110OSM   H18U11366   4.109   4.420   9.151 -0.0404 -0.6187  0.2881
  110OSM    C1F11367   3.896   3.751  10.452 -0.0179  0.6049 -0.5549
  110OSM     OF11368   3.774   3.752  10.429 -0.7319 -0.5315 -0.1453
  110OSM    C2F11369   3.978   3.678  10.358  0.0246  0.0690 -0.0959
  110OSM    H2F11370   4.027   3.594  10.411  0.1539  0.0557 -0.2379
  110OSM    H2G11371   4.061   3.744  10.326  0.7636  0.0164  1.5957
  110OSM    C3F11372   3.899   3.617  10.243 -0.7016 -0.1079 -0.8197
  110OSM    H3F11373   3.858   3.695  10.176  0.0014 -0.5158 -1.7552
  110OSM    H3G11374   3.817   3.554  10.282 -1.9445  0.6999 -2.0414
  110OSM    C4F11375   3.991   3.531  10.158  1.6486 -0.2162  0.2355
  110OSM    H4F11376   4.025   3.449  10.224 -0.5528 -0.7165  0.8393
  110OSM    H4G11377   4.074   3.593  10.118 -0.5213  2.8092  0.1287
  110OSM    C5F11378   3.933   3.463  10.041  0.2254 -0.3478 -0.4069
  110OSM    H5F11379   4.011   3.390  10.011  1.3569  1.1497 -1.2598
  110OSM    H5G11380   3.912   3.534   9.958 -0.4648  0.4877  0.4579
  110OSM    C6F11381   3.808   3.375  10.073  0.1858  0.0160  0.0289
  110OSM    H6F11382   3.723   3.444  10.092  2.0896  2.2011  1.0472
  110OSM    H6G11383   3.805   3.317  10.168 -1.0943 -0.6350 -0.3864
  110OSM    C7F11384   3.778   3.277   9.955  0.0368  0.0317 -0.4128
  110OSM    H7F11385   3.712   3.196   9.993  2.3509 -0.4513  3.1176
  110OSM    H7G11386   3.873   3.221   9.941  1.3702  2.0317  0.1263
  110OSM    C8F11387   3.731   3.349   9.827  0.2881  0.7565 -0.0673
  110OSM    H8F11388   3.792   3.438   9.800 -0.7434  2.0315  1.5818
  110OSM    H8G11389   3.627   3.381   9.850  0.2792  2.0402 -1.6629
  110OSM    C9F11390   3.719   3.240   9.720 -0.2344  0.1378  0.7807
  110OSM    H9F11391   3.677   3.143   9.750 -2.0766  1.1666  1.7466
  110OSM   C10F11392   3.764   3.246   9.593  0.5082  0.0738  0.9598
  110OSM   H10F11393   3.752   3.161   9.525  0.0119  0.3521  0.6913
  110OSM   C11F11394   3.837   3.361   9.527 -0.9119  0.1701 -0.5158
  110OSM   H11F11395   3.946   3.338   9.520 -1.5134 -2.6245 -1.9399
  110OSM   H11G11396   3.824   3.452   9.589 -1.4815  2.2203 -3.4530
  110OSM   C12F11397   3.800   3.387   9.383  0.2039  0.4100 -0.0979
  110OSM   H12F11398   3.696   3.424   9.378  0.1044  0.2274  0.5195
  110OSM   H12G11399   3.794   3.291   9.327  0.8171  0.7959 -0.8345
  110OSM   C13F11400   3.894   3.485   9.305 -0.3249  0.8613  0.0874
  110OSM   H13F11401   3.990   3.430   9.311  0.1236  1.7864  2.8815
  110OSM   H13G11402   3.893   3.574   9.371  0.6072  0.5033  0.6100
  110OSM   C14F11403   3.847   3.504   9.163  1.2878  0.0610 -0.0104
  110OSM   H14F11404   3.904   3.587   9.115 -0.1305  0.0248 -1.8718
  110OSM   H14G11405   3.739   3.529   9.162  0.9893 -1.1675 -0.0920
  110OSM   C15F11406   3.860   3.387   9.069  0.5523 -0.2555 -0.0072
  110OSM   H15F11407   3.820   3.288   9.102 -0.4340  0.2189  0.2443
  110OSM   H15G11408   3.965   3.365   9.040  1.1970 -0.8979  2.4849
  110OSM   C16F11409   3.773   3.421   8.942  0.6265 -0.3928  0.5025
  110OSM   H16F11410   3.674   3.459   8.975 -0.0067 -0.6599 -1.0192
  110OSM   H16G11411   3.744   3.336   8.877  0.7657 -0.8531  1.0342
  110OSM   C17F11412   3.834   3.532   8.855  1.0008 -0.0774  0.1715
  110OSM   H17F11413   3.813   3.632   8.899  1.6436 -1.2026  3.2988
  110OSM   H17G11414   3.786   3.530   8.755  0.9992 -0.2987  0.1767
  110OSM   C18F11415   3.980   3.526   8.820 -0.4360 -0.3467 -0.1472
  110OSM   H18F11416   4.046   3.550   8.906  0.0100  0.6912 -0.7592
  110OSM   H18G11417   4.000   3.600   8.741  0.7657 -1.0232 -0.4914
  110OSM   H18H11418   4.015   3.431   8.776 -0.8603 -0.1422 -0.9427
  111OSM      N11419   5.559   2.737  10.918 -0.1151  0.0270 -0.2017
  111OSM    C1511420   5.521   2.853  11.004  0.0475  0.0632 -0.7333
  111OSM   H15A11421   5.534   2.950  10.959 -2.4916 -0.1329 -2.0451
  111OSM   H15B11422   5.558   2.831  11.103 -1.3012  0.1729 -0.1783
  111OSM   H15C11423   5.415   2.867  11.018 -0.3924 -1.2612 -2.3738
  111OSM    C1411424   5.704   2.704  10.938 -0.4465  0.4033 -0.4593
  111OSM   H14A11425   5.738   2.624  10.874 -1.0088  0.1967 -0.5024
  111OSM   H14B11426   5.724   2.669  11.038 -2.5363  2.8963  0.9573
  111OSM   H14C11427   5.771   2.785  10.915 -0.0106 -0.2909 -1.7065
  111OSM    C1311428   5.494   2.608  10.968 -0.0851 -0.0864 -0.3164
  111OSM   H13A11429   5.491   2.536  10.887 -1.0615  1.8207 -2.0583
  111OSM   H13B11430   5.392   2.625  10.997 -0.0130 -2.6415  1.8743
  111OSM   H13C11431   5.553   2.570  11.050  0.4529  0.6163 -0.3701
  111OSM    C1211432   5.534   2.779  10.777  0.0504 -0.2180  0.3019
  111OSM   H12A11433   5.570   2.706  10.706 -0.3570 -1.4287  1.2864
  111OSM   H12B11434   5.587   2.865  10.739 -0.5702 -0.5510 -1.4074
  111OSM    C1111435   5.380   2.793  10.752  0.1738 -0.2446  0.1780
  111OSM   H11A11436   5.330   2.703  10.795 -1.1420 -0.2411 -1.2357
  111OSM   H11B11437   5.368   2.787  10.642  0.4773 -0.4678  0.1564
  111OSM      P11438   5.352   3.045  10.727 -0.2793  0.2956 -0.4367
  111OSM    O1311439   5.268   3.156  10.788 -0.3007  0.3305 -0.1566
  111OSM    O1411440   5.494   3.071  10.696 -0.3101  0.1066 -0.7086
  111OSM    O1111441   5.291   3.013  10.590  0.5650 -0.1235  0.0110
  111OSM    O1211442   5.328   2.911  10.807  1.3005 -0.3912  0.2725
  111OSM    C1S11443   5.147   2.978  10.574 -0.8452 -0.3937  0.4748
  111OSM    H1S11444   5.081   3.034  10.643 -0.8794  0.8416 -0.5182
  111OSM    H1T11445   5.124   2.869  10.583 -1.5720 -0.3077 -0.2066
  111OSM     NF11446   4.969   2.996  10.416  0.7452  0.4422 -0.2602
  111OSM    HNF11447   4.949   2.911  10.369  2.8758 -0.1165 -0.2409
  111OSM    C2S11448   5.113   3.015  10.430  0.3247 -0.3728  0.2517
  111OSM    H2S11449   5.134   3.124  10.420 -3.1979  0.3715 -0.4180
  111OSM    C3S11450   5.204   2.945  10.328 -0.4494  0.6285  0.1953
  111OSM    H3S11451   5.210   2.836  10.348 -0.3472  0.0716 -2.4998
  111OSM     O311452   5.342   2.987  10.332 -0.3080  0.0860 -0.3268
  111OSM    HO311453   5.349   3.015  10.423 -3.1543 -1.6025  0.5358
  111OSM    C4S11454   5.150   2.961  10.185  0.5252 -0.9752 -0.3544
  111OSM    H4S11455   5.052   2.914  10.175 -0.5597  0.6587  1.7241
  111OSM    C5S11456   5.201   3.024  10.080 -0.2420  0.6085 -0.2767
  111OSM    H5S11457   5.303   3.065  10.080  0.3312 -0.6968 -1.7989
  111OSM    C6S11458   5.147   3.027   9.942  0.1710  0.6015  0.2980
  111OSM    H6S11459   5.103   3.123   9.908  1.2504 -0.0178 -3.3780
  111OSM    H6T11460   5.072   2.945   9.941  0.5559  0.1998  1.9720
  111OSM    C7S11461   5.245   2.967   9.833  0.1724  0.0167  0.5184
  111OSM    H7S11462   5.286   2.867   9.860 -0.6800 -1.1136 -2.0744
  111OSM    H7T11463   5.328   3.036   9.807  1.3038  0.0142  3.6629
  111OSM    C8S11464   5.177   2.955   9.690  0.0756  0.0913  0.7082
  111OSM    H8S11465   5.100   2.875   9.686  2.0160 -1.9423  1.5196
  111OSM    H8T11466   5.268   2.940   9.627  1.1231 -0.8890  2.3766
  111OSM    C9S11467   5.116   3.086   9.633  0.5229 -0.1597 -0.3339
  111OSM    H9S11468   5.194   3.164   9.639  1.3258 -0.8436 -1.4554
  111OSM    H9T11469   5.029   3.115   9.695  0.9541 -0.4747  0.4236
  111OSM   C10S11470   5.064   3.072   9.484  0.2862  0.0120  0.0401
  111OSM   H10S11471   4.990   3.155   9.479 -0.2427 -0.4816 -0.5732
  111OSM   H10T11472   4.991   2.989   9.476 -0.9507  1.0527  0.1299
  111OSM   C11S11473   5.166   3.056   9.367  0.0455  0.3741 -0.1720
  111OSM   H11S11474   5.216   2.958   9.379  1.5404  1.3223  1.9677
  111OSM   H11T11475   5.236   3.142   9.373 -0.3635  0.6839  0.2089
  111OSM   C12S11476   5.110   3.076   9.225 -0.1072 -0.5206 -0.1488
  111OSM   H12S11477   5.069   3.180   9.218  0.1935 -0.4886 -2.1088
  111OSM   H12T11478   5.033   2.997   9.212  0.8803 -1.5267  0.0386
  111OSM   C13S11479   5.232   3.061   9.126 -0.1539  0.0701  0.2361
  111OSM   H13S11480   5.262   2.954   9.138 -2.1307 -0.4446  0.9784
  111OSM   H13T11481   5.311   3.130   9.164 -1.2333  0.2823  2.1865
  111OSM   C14S11482   5.208   3.110   8.983  0.2504  0.1229 -0.9432
  111OSM   H14S11483   5.271   3.051   8.913 -1.0020 -0.4727 -1.6180
  111OSM   H14T11484   5.215   3.220   8.975 -1.4076  0.5322  1.8256
  111OSM   C15S11485   5.066   3.075   8.936  0.1133 -0.2186 -0.1519
  111OSM   H15S11486   4.993   3.128   9.001 -0.9137 -0.9377 -0.6825
  111OSM   H15T11487   5.056   2.966   8.953 -0.7475  0.0776  1.4384
  111OSM   C16S11488   5.050   3.113   8.785  0.0052  0.8035  0.2131
  111OSM   H16S11489   4.941   3.104   8.765  0.4195 -0.8684 -1.5659
  111OSM   H16T11490   5.100   3.037   8.722 -3.3147 -1.1706 -0.2596
  111OSM   C17S11491   5.093   3.253   8.729  1.0717 -0.4717 -0.1031
  111OSM   H17S11492   5.202   3.260   8.708  1.2846 -0.2739  0.9996
  111OSM   H17T11493   5.075   3.334   8.804 -0.7351 -0.3057 -0.6792
  111OSM   C18S11494   5.016   3.279   8.603 -0.2289 -0.5975 -0.2336
  111OSM   H18S11495   5.052   3.371   8.552 -0.0162  0.7245  2.1572
  111OSM   H18T11496   4.908   3.279   8.627 -0.2387  0.0040 -0.2694
  111OSM   H18U11497   5.030   3.196   8.530  0.3120 -1.5923  0.9575
  111OSM    C1F11498   4.878   3.080  10.471 -0.0481  0.4251 -0.3358
  111OSM     OF11499   4.922   3.169  10.541 -0.0659 -0.1605 -0.5764
  111OSM    C2F11500   4.732   3.064  10.442 -0.2057 -0.1602 -0.3194
  111OSM    H2F11501   4.684   3.074  10.541  0.2401  3.8936 -0.3172
  111OSM    H2G11502   4.715   2.960  10.407  0.4575 -1.7276  3.5168
  111OSM    C3F11503   4.685   3.176  10.343 -1.0176  0.3516  0.7488
  111OSM    H3F11504   4.697   3.272  10.398 -0.6220 -0.7475  2.6709
  111OSM    H3G11505   4.577   3.156  10.323 -0.4310 -3.4771  0.6629
  111OSM    C4F11506   4.762   3.171  10.209 -0.0999 -0.4423  0.4079
  111OSM    H4F11507   4.789   3.067  10.180 -0.4613 -0.0116 -1.6480
  111OSM    H4G11508   4.857   3.224  10.232 -0.1023 -0.6747  0.9675
  111OSM    C5F11509   4.684   3.242  10.096 -0.9889 -0.1511  0.0136
  111OSM    H5F11510   4.652   3.342  10.132  0.9554  0.1081  1.1574
  111OSM    H5G11511   4.589   3.196  10.062 -0.0651 -0.7996 -1.8194
  111OSM    C6F11512   4.776   3.266   9.971 -0.0977 -0.6112  0.4992
  111OSM    H6F11513   4.789   3.169   9.918  2.1331 -0.6463  1.0113
  111OSM    H6G11514   4.878   3.295  10.003  0.0398 -0.9155  0.3445
  111OSM    C7F11515   4.733   3.382   9.884  0.1078 -0.6455  0.1835
  111OSM    H7F11516   4.817   3.413   9.819 -0.2920  2.7235  1.0804
  111OSM    H7G11517   4.722   3.469   9.952  1.9621  2.2425 -2.9248
  111OSM    C8F11518   4.595   3.383   9.813 -0.3298 -0.1507 -0.0487
  111OSM    H8F11519   4.566   3.488   9.791  1.1022  0.0362 -1.1720
  111OSM    H8G11520   4.512   3.349   9.879  0.2746 -2.4405 -0.3637
  111OSM    C9F11521   4.598   3.287   9.695 -0.4197  0.1423 -0.1083
  111OSM    H9F11522   4.570   3.187   9.731 -1.1443  0.5188  0.4100
  111OSM   C10F11523   4.634   3.309   9.571  0.3561 -0.4699 -0.1762
  111OSM   H10F11524   4.638   3.228   9.497  1.5373  1.1946 -2.0133
  111OSM   C11F11525   4.672   3.449   9.522 -0.2588  0.9020 -0.2020
  111OSM   H11F11526   4.781   3.462   9.540 -0.6596  1.7774  1.9110
  111OSM   H11G11527   4.620   3.524   9.585 -1.6089 -0.7533  0.7523
  111OSM   C12F11528   4.632   3.461   9.375 -0.0628  0.3089  0.3862
  111OSM   H12F11529   4.651   3.569   9.356 -0.3036  0.3177  0.1869
  111OSM   H12G11530   4.526   3.449   9.344  0.0230 -1.4753  0.6933
  111OSM   C13F11531   4.731   3.379   9.293 -0.3228 -0.0117 -0.5967
  111OSM   H13F11532   4.735   3.268   9.302  1.6567  0.0666 -0.1276
  111OSM   H13G11533   4.828   3.425   9.318  1.0938 -3.3261  0.6344
  111OSM   C14F11534   4.694   3.390   9.145 -0.3358 -0.4780 -0.1647
  111OSM   H14F11535   4.595   3.342   9.129 -0.2323 -0.7165 -0.0776
  111OSM   H14G11536   4.765   3.335   9.080 -0.2430 -1.0827  0.4498
  111OSM   C15F11537   4.698   3.538   9.098  0.2875  0.1791  0.6184
  111OSM   H15F11538   4.769   3.602   9.156 -1.4101  3.4923 -0.6737
  111OSM   H15G11539   4.595   3.579   9.105  0.1155 -0.2694  0.7553
  111OSM   C16F11540   4.736   3.555   8.950 -0.2874  0.1136 -0.1939
  111OSM   H16F11541   4.669   3.487   8.893 -2.2260  0.0795  1.9790
  111OSM   H16G11542   4.843   3.530   8.933  0.5778  3.9738 -1.2580
  111OSM   C17F11543   4.727   3.701   8.901  0.3754 -0.6566  0.1600
  111OSM   H17F11544   4.778   3.778   8.962  0.5396  1.1907 -2.1799
  111OSM   H17G11545   4.620   3.732   8.901  0.0809 -1.5319  1.6446
  111OSM   C18F11546   4.780   3.724   8.759 -0.9316  0.4920  0.4868
  111OSM   H18F11547   4.876   3.674   8.736  0.5709  3.8721 -1.3237
  111OSM   H18G11548   4.799   3.833   8.753  1.5799  0.0647 -0.4232
  111OSM   H18H11549   4.694   3.697   8.695 -0.3683  1.3832 -0.6785
  112OSM      N11550   4.918   1.409  10.919  0.7075  0.4468 -0.5469
  112OSM    C1511551   4.974   1.269  10.907  0.0070 -0.7888  0.4090
  112OSM   H15A11552   5.082   1.269  10.913  0.0525 -1.3416 -0.3397
  112OSM   H15B11553   4.943   1.225  10.813 -0.7198 -0.5397  0.5324
  112OSM   H15C11554   4.930   1.209  10.985 -0.7373  0.2489  0.8035
  112OSM    C1411555   4.767   1.388  10.932  0.1369 -0.3822  0.2434
  112OSM   H14A11556   4.724   1.360  10.837  0.8504  0.7141 -0.4377
  112OSM   H14B11557   4.716   1.482  10.942  1.0780  0.2462 -0.6356
  112OSM   H14C11558   4.763   1.313  11.009  2.3253 -0.6440  0.1835
  112OSM    C1311559   4.972   1.472  11.042 -0.3076  0.0965 -1.1589
  112OSM   H13A11560   5.077   1.492  11.034 -0.4790  2.2895  0.8607
  112OSM   H13B11561   4.956   1.418  11.134 -1.9336 -1.1851 -2.1187
  112OSM   H13C11562   4.915   1.563  11.055 -0.9188 -0.3258 -0.8390
  112OSM    C1211563   4.960   1.479  10.795 -0.0552  0.0170 -0.1883
  112OSM   H12A11564   5.065   1.504  10.794 -0.3834  1.5009 -1.0731
  112OSM   H12B11565   4.909   1.574  10.788  1.3277  0.6783 -3.2524
  112OSM    C1111566   4.929   1.417  10.657  0.5572  0.2908 -0.2105
  112OSM   H11A11567   4.978   1.317  10.658 -0.4049 -0.2385  2.9787
  112OSM   H11B11568   4.969   1.480  10.575  1.1964  0.3615  0.1494
  112OSM      P11569   4.691   1.512  10.618 -0.4149 -0.4032  0.2825
  112OSM    O1311570   4.561   1.470  10.676  0.4231  0.5597 -0.0874
  112OSM    O1411571   4.740   1.637  10.676 -0.0773  0.4740  0.3315
  112OSM    O1111572   4.685   1.521  10.466 -0.3838 -0.4859  0.3839
  112OSM    O1211573   4.791   1.389  10.651  0.3249 -0.1175 -0.2253
  112OSM    C1S11574   4.755   1.435  10.377  0.1192 -0.3968 -0.6133
  112OSM    H1S11575   4.712   1.334  10.388 -1.7038  0.4049  0.0560
  112OSM    H1T11576   4.864   1.438  10.400 -0.1280  1.3926  0.6005
  112OSM     NF11577   4.789   1.399  10.132  0.2285  0.4057 -0.0768
  112OSM    HNF11578   4.886   1.407  10.111  0.4617  1.1214  1.1634
  112OSM    C2S11579   4.743   1.492  10.230  0.5061  0.1785  0.0371
  112OSM    H2S11580   4.635   1.517  10.224  0.4881 -0.1440 -1.3242
  112OSM    C3S11581   4.815   1.629  10.216 -0.0298 -0.2994 -0.5642
  112OSM    H3S11582   4.925   1.616  10.205  0.1276 -0.4187  0.9728
  112OSM     O311583   4.802   1.711  10.334 -0.5618 -0.3241 -0.3687
  112OSM    HO311584   4.736   1.668  10.389  0.6464  0.8058  2.1735
  112OSM    C4S11585   4.773   1.701  10.094  0.3870  0.0254 -0.7602
  112OSM    H4S11586   4.825   1.676  10.000 -0.6824  0.2809 -1.4340
  112OSM    C5S11587   4.667   1.779  10.074 -0.5203 -0.0229  0.1803
  112OSM    H5S11588   4.605   1.810  10.159 -1.6596  0.4996 -0.8126
  112OSM    C6S11589   4.619   1.853   9.948  0.4597 -0.1659  0.4851
  112OSM    H6S11590   4.637   1.962   9.948  2.6270 -0.4063 -2.2177
  112OSM    H6T11591   4.516   1.833   9.911 -0.4669  2.4092  1.4238
  112OSM    C7S11592   4.708   1.821   9.830 -0.4103  0.8611  0.5864
  112OSM    H7S11593   4.687   1.714   9.810 -0.1156  0.8077  0.5496
  112OSM    H7T11594   4.815   1.848   9.844  1.1506 -3.8393 -0.4205
  112OSM    C8S11595   4.663   1.901   9.703 -0.8150 -0.2492  0.4306
  112OSM    H8S11596   4.713   2.000   9.715  1.4513 -1.1634 -0.7540
  112OSM    H8T11597   4.554   1.901   9.686 -0.7201  0.3740 -0.2004
  112OSM    C9S11598   4.722   1.842   9.579  0.8223  0.3259  0.5522
  112OSM    H9S11599   4.694   1.735   9.590 -0.9191  0.7755  0.7917
  112OSM    H9T11600   4.833   1.856   9.584  0.7370  1.3094 -0.0849
  112OSM   C10S11601   4.672   1.910   9.448 -0.0839  0.3837  0.1541
  112OSM   H10S11602   4.690   2.019   9.434  1.6800  0.0064 -0.8483
  112OSM   H10T11603   4.568   1.882   9.423  0.4682 -0.7576 -0.9914
  112OSM   C11S11604   4.759   1.842   9.339 -0.0171  0.1788 -0.9277
  112OSM   H11S11605   4.735   1.734   9.328  1.1114  0.0035 -1.8576
  112OSM   H11T11606   4.868   1.845   9.356 -0.3658  1.3546  1.4767
  112OSM   C12S11607   4.713   1.890   9.198  0.0342  0.2171 -0.4437
  112OSM   H12S11608   4.761   1.990   9.185  1.0618 -0.2259 -0.1444
  112OSM   H12T11609   4.603   1.894   9.186 -0.3574 -0.4065  2.2863
  112OSM   C13S11610   4.770   1.803   9.086  0.4399 -0.3301 -1.1289
  112OSM   H13S11611   4.721   1.704   9.081  2.2083 -1.2118 -1.7440
  112OSM   H13T11612   4.879   1.791   9.102  0.7763  2.9875 -0.1786
  112OSM   C14S11613   4.741   1.871   8.943 -0.0752 -0.8930 -0.4021
  112OSM   H14S11614   4.786   1.972   8.946  2.8243 -1.9758 -2.6217
  112OSM   H14T11615   4.631   1.885   8.941  0.1242  1.0267  0.3328
  112OSM   C15S11616   4.796   1.795   8.824 -0.3983 -0.2207 -0.3250
  112OSM   H15S11617   4.739   1.819   8.731  0.1297 -1.6725 -1.0644
  112OSM   H15T11618   4.770   1.688   8.836  0.5006 -0.7462 -2.4814
  112OSM   C16S11619   4.947   1.817   8.801  1.0633  0.1092 -0.3202
  112OSM   H16S11620   5.004   1.782   8.891  0.9357 -3.0400 -1.3516
  112OSM   H16T11621   4.963   1.927   8.804 -0.8036  0.3967  1.7715
  112OSM   C17S11622   5.008   1.744   8.677 -0.1375 -0.5909  0.2263
  112OSM   H17S11623   4.950   1.758   8.583  1.0413  1.5483 -0.2606
  112OSM   H17T11624   5.010   1.635   8.695  1.2291 -0.6784 -0.3591
  112OSM   C18S11625   5.146   1.798   8.640  0.7718 -0.3922  0.7737
  112OSM   H18S11626   5.188   1.756   8.546  0.1350  1.2634 -0.2902
  112OSM   H18T11627   5.218   1.774   8.721  0.4086 -0.0756  1.1937
  112OSM   H18U11628   5.145   1.908   8.629 -1.5738 -0.0657  3.3211
  112OSM    C1F11629   4.723   1.282  10.113  0.5803  0.1945  0.1127
  112OSM     OF11630   4.611   1.268  10.169  0.3160  0.5942 -0.0459
  112OSM    C2F11631   4.777   1.162  10.037  0.6559 -1.1195  0.3510
  112OSM    H2F11632   4.815   1.091  10.114  0.9218  0.5498  1.8230
  112OSM    H2G11633   4.868   1.191   9.979  0.1762  0.1327  0.1860
  112OSM    C3F11634   4.669   1.093   9.954 -0.0430 -0.2851 -0.4648
  112OSM    H3F11635   4.606   1.171   9.905 -1.4454 -1.9012 -1.3325
  112OSM    H3G11636   4.606   1.050  10.035 -1.4005  3.2657  0.5720
  112OSM    C4F11637   4.719   0.991   9.851 -0.9198 -0.1747  0.1494
  112OSM    H4F11638   4.777   0.919   9.913 -1.3366  0.5272  1.4043
  112OSM    H4G11639   4.778   1.043   9.772 -2.8748 -0.5003 -1.6055
  112OSM    C5F11640   4.608   0.919   9.783  0.9281 -0.5933 -0.3534
  112OSM    H5F11641   4.552   1.003   9.737 -0.0839 -0.7040  0.6466
  112OSM    H5G11642   4.539   0.871   9.855  1.5307 -2.0078 -0.6710
  112OSM    C6F11643   4.648   0.819   9.673 -0.4363  0.2198  0.6225
  112OSM    H6F11644   4.718   0.742   9.711 -0.4431  0.6552  1.5365
  112OSM    H6G11645   4.711   0.877   9.603 -0.3745 -1.2416 -0.5989
  112OSM    C7F11646   4.528   0.761   9.601  0.7291 -0.4000  0.6976
  112OSM    H7F11647   4.474   0.853   9.573  2.4336  0.8202  1.2715
  112OSM    H7G11648   4.452   0.720   9.672  1.5984 -1.2718  1.1533
  112OSM    C8F11649   4.549   0.676   9.486 -0.5790  0.0936  0.1505
  112OSM    H8F11650   4.633   0.729   9.437  1.0052 -1.9918  0.4575
  112OSM    H8G11651   4.463   0.687   9.416  0.6086 -0.4066 -1.4674
  112OSM    C9F11652   4.591   0.529   9.502 -0.1071 -0.5172  0.1163
  112OSM    H9F11653   4.668   0.508   9.578  1.0808 -2.1728 -1.4618
  112OSM   C10F11654   4.553   0.435   9.414  0.2910  0.9517 -0.1956
  112OSM   H10F11655   4.597   0.334   9.421  1.6094  1.4628 -0.7737
  112OSM   C11F11656   4.452   0.455   9.302 -0.2985  0.2784 -0.2779
  112OSM   H11F11657   4.384   0.542   9.305 -0.8894 -0.0601 -2.4486
  112OSM   H11G11658   4.383   0.368   9.296 -0.6649  0.6754 -2.6781
  112OSM   C12F11659   4.518   0.474   9.164 -0.0130  1.1451  1.0310
  112OSM   H12F11660   4.532   0.585   9.161 -0.6433  1.2798  2.4649
  112OSM   H12G11661   4.437   0.457   9.090 -1.6825  1.7166  2.6538
  112OSM   C13F11662   4.642   0.405   9.118 -0.3899  0.6412 -0.0931
  112OSM   H13F11663   4.628   0.295   9.122  1.6784  0.3660  1.4225
  112OSM   H13G11664   4.727   0.426   9.187  0.9941 -0.8231 -1.2792
  112OSM   C14F11665   4.682   0.440   8.979  0.0366  0.1367 -0.8163
  112OSM   H14F11666   4.787   0.406   8.981  0.0305  0.0795  1.2367
  112OSM   H14G11667   4.685   0.551   8.972 -0.7426  0.6541  3.7657
  112OSM   C15F11668   4.601   0.377   8.874  0.1263 -0.5438 -0.3276
  112OSM   H15F11669   4.494   0.402   8.892  0.3003 -1.1480  1.6944
  112OSM   H15G11670   4.614   0.267   8.869 -0.2192 -0.6315  0.5482
  112OSM   C16F11671   4.632   0.445   8.739  0.1511 -0.4707 -0.0902
  112OSM   H16F11672   4.582   0.544   8.736  0.0214 -0.5018  0.7443
  112OSM   H16G11673   4.587   0.397   8.650  0.0330 -1.7186  0.6206
  112OSM   C17F11674   4.783   0.451   8.709 -0.2253 -0.2660 -0.1596
  112OSM   H17F11675   4.829   0.523   8.781  1.8009 -1.1262 -0.5099
  112OSM   H17G11676   4.801   0.483   8.605 -0.3041 -0.8087 -0.3416
  112OSM   C18F11677   4.863   0.314   8.717 -0.0474 -0.4432 -0.1162
  112OSM   H18F11678   4.820   0.221   8.674 -0.5166 -0.1749 -0.2298
  112OSM   H18G11679   4.879   0.293   8.825  0.1430  1.7027  0.3148
  112OSM   H18H11680   4.967   0.328   8.680  0.4111  1.9532  1.8451
  113OSM      N11681   5.287   0.908  10.653 -0.4061 -0.3065  0.3626
  113OSM    C1511682   5.240   1.057  10.651 -0.3815 -0.6711  0.1271
  113OSM   H15A11683   5.295   1.119  10.582  0.3421 -0.4780  0.8708
  113OSM   H15B11684   5.259   1.090  10.752  0.2009 -0.7403  0.0434
  113OSM   H15C11685   5.135   1.062  10.626 -0.4728 -0.2702  0.5854
  113OSM    C1411686   5.315   0.871  10.508  0.2708  0.3399  0.0202
  113OSM   H14A11687   5.415   0.903  10.482  0.7758 -1.8214 -0.8703
  113OSM   H14B11688   5.247   0.909  10.434  1.4144  1.4119 -0.5070
  113OSM   H14C11689   5.313   0.763  10.503  0.8454  0.3909 -2.3911
  113OSM    C1311690   5.412   0.902  10.733 -0.4071 -0.7727 -0.5892
  113OSM   H13A11691   5.398   0.933  10.836  2.7315  1.9511 -0.8105
  113OSM   H13B11692   5.500   0.946  10.690 -0.6721 -0.1243 -0.4869
  113OSM   H13C11693   5.439   0.800  10.755  1.4745 -0.0631  0.6142
  113OSM    C1211694   5.179   0.818  10.712  0.4789  0.3154 -0.0392
  113OSM   H12A11695   5.106   0.789  10.638  0.8124 -1.5478  0.3256
  113OSM   H12B11696   5.125   0.876  10.786 -0.5865  1.1427 -1.4211
  113OSM    C1111697   5.224   0.682  10.765 -0.2014  0.0577  0.2529
  113OSM   H11A11698   5.296   0.698  10.849  3.0569 -0.1623 -2.2790
  113OSM   H11B11699   5.283   0.644  10.679  0.2786  1.3621 -0.0155
  113OSM      P11700   5.087   0.457  10.789 -0.2846 -0.1031 -0.1683
  113OSM    O1311701   5.170   0.410  10.903  0.4457 -0.2730  0.3953
  113OSM    O1411702   4.946   0.416  10.792  0.5360 -0.3961  0.0110
  113OSM    O1111703   5.162   0.418  10.653 -0.1937  0.3211 -0.0265
  113OSM    O1211704   5.097   0.617  10.788 -0.1216 -0.7773  0.7732
  113OSM    C1S11705   5.086   0.373  10.543  0.1724  0.0876 -0.2626
  113OSM    H1S11706   5.085   0.457  10.472  2.0838  0.6477  0.3160
  113OSM    H1T11707   4.982   0.337  10.563  0.9217 -0.8253  2.4672
  113OSM     NF11708   5.084   0.230  10.344  0.7474  0.4674  0.0118
  113OSM    HNF11709   5.021   0.153  10.340  0.9725  0.2842 -0.0174
  113OSM    C2S11710   5.154   0.253  10.465 -0.2282 -0.6815  0.3833
  113OSM    H2S11711   5.260   0.274  10.438 -0.0647 -2.1354 -0.1943
  113OSM    C3S11712   5.168   0.142  10.564  0.3866  0.6741 -0.5482
  113OSM    H3S11713   5.070   0.134  10.616  0.2230  1.3433 -0.7409
  113OSM     O311714   5.262   0.172  10.674  0.4345 -0.1633  0.4142
  113OSM    HO311715   5.255   0.268  10.686  0.8905  0.0233 -0.7166
  113OSM    C4S11716   5.206   0.006  10.505 -0.6491 -0.6102 -0.4541
  113OSM    H4S11717   5.126  -0.043  10.448  0.8550 -2.1379 -1.3604
  113OSM    C5S11718   5.325  -0.057  10.497  0.2926  0.4234 -0.4226
  113OSM    H5S11719   5.413  -0.013  10.547  0.4810  0.3994 -0.7309
  113OSM    C6S11720   5.353  -0.188  10.431 -0.2828 -0.0635  0.0122
  113OSM    H6S11721   5.342  -0.267  10.509  1.1167 -0.2201  0.0752
  113OSM    H6T11722   5.459  -0.186  10.399 -0.9096  1.9223 -2.2237
  113OSM    C7S11723   5.273  -0.228  10.308 -0.5379 -0.0518  0.0452
  113OSM    H7S11724   5.284  -0.146  10.233  0.2037  0.7530  1.0105
  113OSM    H7T11725   5.164  -0.235  10.327 -1.2676  0.3229 -3.3467
  113OSM    C8S11726   5.332  -0.355  10.250  0.2612  0.5330 -0.1597
  113OSM    H8S11727   5.339  -0.437  10.325 -0.1483 -1.1449 -1.8771
  113OSM    H8T11728   5.433  -0.342  10.206  0.4624  2.0348  0.6871
  113OSM    C9S11729   5.255  -0.406  10.127 -0.5870 -0.6557 -0.0531
  113OSM    H9S11730   5.253  -0.316  10.062 -2.5518 -0.6290 -0.0115
  113OSM    H9T11731   5.151  -0.433  10.155 -0.1282 -1.4684  0.9299
  113OSM   C10S11732   5.335  -0.519  10.057 -0.2171 -0.0500 -0.6823
  113OSM   H10S11733   5.377  -0.601  10.120  1.2986  0.5603 -0.8724
  113OSM   H10T11734   5.426  -0.470  10.018  1.5888 -1.0501  2.0010
  113OSM   C11S11735   5.254  -0.572   9.937  0.6688  0.3328  0.1224
  113OSM   H11S11736   5.237  -0.492   9.862 -1.9049 -0.6502 -0.4507
  113OSM   H11T11737   5.150  -0.609   9.952  0.4217  0.4467 -1.1325
  113OSM   C12S11738   5.332  -0.678   9.854 -0.3787  0.2457 -0.1544
  113OSM   H12S11739   5.259  -0.752   9.815 -2.2858  0.3730  2.8171
  113OSM   H12T11740   5.396  -0.740   9.921 -1.0202  0.9379  1.1513
  113OSM   C13S11741   5.408  -0.616   9.733 -0.6859 -0.0699 -0.0489
  113OSM   H13S11742   5.476  -0.534   9.765  1.4757 -1.7300 -0.1899
  113OSM   H13T11743   5.334  -0.581   9.657 -1.2479 -1.1169  0.0011
  113OSM   C14S11744   5.501  -0.724   9.671 -0.5433  0.0246 -0.6830
  113OSM   H14S11745   5.453  -0.824   9.671 -0.7160  0.1064 -0.2434
  113OSM   H14T11746   5.598  -0.733   9.724 -0.3044  1.1954 -0.8987
  113OSM   C15S11747   5.539  -0.697   9.524 -1.2208  0.0820 -0.1444
  113OSM   H15S11748   5.598  -0.784   9.488 -0.4930 -0.3414  1.9100
  113OSM   H15T11749   5.614  -0.615   9.521  2.2353 -2.8473 -0.2545
  113OSM   C16S11750   5.414  -0.674   9.435 -0.0011  0.1697  0.6024
  113OSM   H16S11751   5.401  -0.566   9.458  0.1915 -0.0494  1.8475
  113OSM   H16T11752   5.327  -0.734   9.468  0.0912 -0.6184 -0.5576
  113OSM   C17S11753   5.424  -0.689   9.281  0.3535  0.4262 -0.8917
  113OSM   H17S11754   5.330  -0.660   9.231 -1.2436 -1.9195  0.5423
  113OSM   H17T11755   5.445  -0.795   9.254  2.2255  0.4627  0.2391
  113OSM   C18S11756   5.545  -0.611   9.221  0.7021  0.9306 -0.0387
  113OSM   H18S11757   5.540  -0.616   9.110 -1.3452  2.3486 -0.0767
  113OSM   H18T11758   5.647  -0.652   9.239  0.6911 -0.5282 -2.7600
  113OSM   H18U11759   5.524  -0.507   9.253 -2.1417  0.6663 -0.6853
  113OSM    C1F11760   5.103   0.300  10.235 -0.4123 -0.4497  0.0581
  113OSM     OF11761   5.195   0.377  10.228 -0.3396  0.0046 -0.4370
  113OSM    C2F11762   5.005   0.300  10.124  0.2377 -0.0468  0.1181
  113OSM    H2F11763   4.994   0.404  10.089  0.3755  0.5505  1.7692
  113OSM    H2G11764   4.910   0.249  10.150 -1.4744  1.1337 -3.2030
  113OSM    C3F11765   5.073   0.226  10.008 -0.3164 -0.1775  0.1242
  113OSM    H3F11766   5.115   0.132  10.051 -0.7055 -1.8560 -2.8746
  113OSM    H3G11767   5.158   0.279   9.960 -0.7979 -0.1883 -0.7468
  113OSM    C4F11768   4.971   0.195   9.895  0.7909 -0.6612 -0.1573
  113OSM    H4F11769   4.908   0.286   9.884  0.9714 -0.5353 -0.1554
  113OSM    H4G11770   4.900   0.117   9.929  1.5357  0.4727  4.6228
  113OSM    C5F11771   5.034   0.161   9.750 -0.5435 -0.1668 -0.3494
  113OSM    H5F11772   4.954   0.107   9.695 -1.7207  0.5421  0.6175
  113OSM    H5G11773   5.114   0.087   9.774 -1.8562 -1.1351  1.3460
  113OSM    C6F11774   5.076   0.292   9.696 -0.2897 -0.6032 -0.1650
  113OSM    H6F11775   5.167   0.314   9.756  1.0255 -1.6184 -1.7217
  113OSM    H6G11776   5.012   0.380   9.722  0.4228 -0.0696 -0.1980
  113OSM    C7F11777   5.109   0.295   9.541  0.6524 -0.1696 -0.2303
  113OSM    H7F11778   5.189   0.225   9.509  1.9672  1.8859 -1.6719
  113OSM    H7G11779   5.158   0.394   9.537 -0.9268  0.6507 -0.3015
  113OSM    C8F11780   4.997   0.288   9.433  0.3785  0.3785 -0.2963
  113OSM    H8F11781   4.912   0.354   9.460 -1.9863 -2.3622 -0.5166
  113OSM    H8G11782   4.935   0.196   9.427 -1.9682  1.9282 -4.2830
  113OSM    C9F11783   5.047   0.316   9.296  0.1340  0.4623 -0.0842
  113OSM    H9F11784   5.100   0.412   9.283  2.3804 -0.4540  1.6467
  113OSM   C10F11785   5.053   0.234   9.190  0.6032  0.1347  0.0708
  113OSM   H10F11786   5.111   0.261   9.100 -0.4109 -1.3586 -1.0951
  113OSM   C11F11787   4.982   0.104   9.172 -0.1905 -0.6634 -0.0303
  113OSM   H11F11788   4.920   0.082   9.261 -0.8743 -0.7403 -0.5200
  113OSM   H11G11789   5.060   0.025   9.169  0.9880  0.3992  1.0280
  113OSM   C12F11790   4.889   0.095   9.055 -0.0821  0.3980  0.4736
  113OSM   H12F11791   4.960   0.121   8.974 -0.2015  0.0806  0.2643
  113OSM   H12G11792   4.814   0.177   9.057 -0.2780  0.2304  0.2281
  113OSM   C13F11793   4.813  -0.036   9.027 -1.0002  0.5233 -0.3177
  113OSM   H13F11794   4.736  -0.067   9.101 -0.7762 -2.2912 -1.1518
  113OSM   H13G11795   4.884  -0.121   9.022 -0.2395  1.1849 -0.9420
  113OSM   C14F11796   4.740  -0.042   8.886 -0.2864 -0.1365 -0.6177
  113OSM   H14F11797   4.807  -0.001   8.808  0.9253 -0.9915 -0.0741
  113OSM   H14G11798   4.661   0.034   8.897  0.8724  1.0597 -0.3186
  113OSM   C15F11799   4.691  -0.181   8.843 -0.1076  0.0109 -0.7136
  113OSM   H15F11800   4.640  -0.234   8.926  0.1938 -3.8889 -2.7874
  113OSM   H15G11801   4.779  -0.241   8.812 -0.3583 -0.9475  0.3196
  113OSM   C16F11802   4.592  -0.165   8.729  0.1793 -0.2624 -0.0755
  113OSM   H16F11803   4.628  -0.094   8.652  0.2761  1.2155  1.2803
  113OSM   H16G11804   4.498  -0.135   8.779  0.8626  4.2558 -1.0381
  113OSM   C17F11805   4.569  -0.297   8.648 -0.5408 -0.8758 -0.1272
  113OSM   H17F11806   4.505  -0.364   8.709  0.2029 -2.2714 -0.8130
  113OSM   H17G11807   4.668  -0.346   8.633  0.4610  1.5329 -1.9605
  113OSM   C18F11808   4.504  -0.278   8.516  0.7209  0.3544 -0.3564
  113OSM   H18F11809   4.580  -0.247   8.441  0.6615 -2.7096 -1.8460
  113OSM   H18G11810   4.412  -0.216   8.515  0.1212 -0.5371 -0.8862
  113OSM   H18H11811   4.469  -0.379   8.487 -3.4141  1.3107  0.6975
  114OSM      N11812   5.369   6.213  11.556 -0.9859  0.3481 -0.1979
  114OSM    C1511813   5.287   6.142  11.662 -0.5002 -0.8280 -0.2098
  114OSM   H15A11814   5.287   6.034  11.656  2.0260 -0.8308 -1.3623
  114OSM   H15B11815   5.189   6.183  11.673 -0.1126  0.0255  0.1084
  114OSM   H15C11816   5.340   6.155  11.756 -1.1226  1.1228 -0.0891
  114OSM    C1411817   5.409   6.353  11.596  0.5476  0.4396 -0.0788
  114OSM   H14A11818   5.464   6.359  11.689 -0.5075 -2.1476  0.8138
  114OSM   H14B11819   5.321   6.415  11.607  0.5185  0.5240 -0.7579
  114OSM   H14C11820   5.472   6.404  11.526 -0.3208  1.6817  0.0202
  114OSM    C1311821   5.490   6.136  11.514 -0.4410  0.3481 -0.3435
  114OSM   H13A11822   5.457   6.044  11.468  0.6845  1.6277 -4.0927
  114OSM   H13B11823   5.558   6.115  11.595 -0.9021  0.0972 -0.0196
  114OSM   H13C11824   5.543   6.188  11.435 -0.8064 -2.9797 -3.0405
  114OSM    C1211825   5.283   6.213  11.430 -0.3573 -0.4170 -0.7071
  114OSM   H12A11826   5.257   6.112  11.403 -1.6550  0.2897 -2.3250
  114OSM   H12B11827   5.340   6.258  11.350 -2.3410  1.8486 -0.9748
  114OSM    C1111828   5.144   6.284  11.422 -0.5784 -0.5016 -0.5968
  114OSM   H11A11829   5.063   6.228  11.473 -0.6525  1.1383  1.2201
  114OSM   H11B11830   5.104   6.291  11.319  1.2758  1.4890 -1.2482
  114OSM      P11831   5.180   6.547  11.380 -0.0209 -0.1644  0.0694
  114OSM    O1311832   5.057   6.622  11.368  0.0076  0.2948 -0.0983
  114OSM    O1411833   5.297   6.618  11.440  0.0755 -0.0019 -0.4967
  114OSM    O1111834   5.219   6.483  11.241 -0.5690 -0.3689 -0.6260
  114OSM    O1211835   5.155   6.419  11.474  0.7834  0.0369  0.0162
  114OSM    C1S11836   5.285   6.552  11.139 -0.2269 -0.8389 -0.2211
  114OSM    H1S11837   5.385   6.589  11.170 -0.5950  1.0521 -1.1458
  114OSM    H1T11838   5.238   6.648  11.107  0.6268 -0.3864 -0.1573
  114OSM     NF11839   5.368   6.544  10.919 -0.7664  0.3807  0.3243
  114OSM    HNF11840   5.315   6.588  10.847  1.1032  0.1343 -1.2731
  114OSM    C2S11841   5.287   6.470  11.011  0.8622 -0.0333 -0.1005
  114OSM    H2S11842   5.341   6.375  11.031 -0.2305 -0.6203  0.1462
  114OSM    C3S11843   5.141   6.437  10.953  0.6275  0.0326 -0.9673
  114OSM    H3S11844   5.075   6.526  10.945  0.4295 -0.0762 -0.5662
  114OSM     O311845   5.069   6.343  11.034  0.2779 -0.0975  0.4605
  114OSM    HO311846   5.116   6.331  11.117 -0.2154  1.1072  0.9427
  114OSM    C4S11847   5.144   6.382  10.813 -0.0281  0.2461 -0.1518
  114OSM    H4S11848   5.192   6.283  10.803  0.6181  0.5154  0.2136
  114OSM    C5S11849   5.083   6.419  10.701 -0.0494  0.5712  0.1976
  114OSM    H5S11850   5.005   6.497  10.697 -0.5802  0.0161 -0.5913
  114OSM    C6S11851   5.099   6.347  10.563 -0.6477 -0.1795 -0.5444
  114OSM    H6S11852   5.157   6.410  10.493 -0.4501  0.2254 -0.0184
  114OSM    H6T11853   4.995   6.339  10.523 -0.7022  2.8640 -1.2685
  114OSM    C7S11854   5.150   6.202  10.551  0.0638  0.0051  0.2317
  114OSM    H7S11855   5.090   6.138  10.620  0.7675 -0.3014  0.5724
  114OSM    H7T11856   5.255   6.197  10.589  0.0410  0.5270  0.3681
  114OSM    C8S11857   5.152   6.129  10.413  0.0727 -0.1997  0.0782
  114OSM    H8S11858   5.157   6.021  10.436  2.2354 -0.1709  0.0066
  114OSM    H8T11859   5.249   6.155  10.365  0.4521  0.2842  1.0608
  114OSM    C9S11860   5.031   6.156  10.321  0.5688 -0.1664 -0.2663
  114OSM    H9S11861   5.019   6.263  10.295 -0.2457  0.4789  2.4120
  114OSM    H9T11862   4.940   6.122  10.375 -0.7880  1.3630 -1.5029
  114OSM   C10S11863   5.026   6.080  10.189 -0.0866  0.0365  0.9931
  114OSM   H10S11864   5.014   5.972  10.210  0.4104 -0.6182 -1.7073
  114OSM   H10T11865   5.131   6.080  10.151 -0.1468  1.4003  0.7870
  114OSM   C11S11866   4.920   6.129  10.101 -0.1215 -0.2296 -0.3111
  114OSM   H11S11867   4.950   6.234  10.082  0.4631 -0.2714  0.3196
  114OSM   H11T11868   4.824   6.138  10.156 -0.8001 -1.2778 -1.2770
  114OSM   C12S11869   4.896   6.043   9.979 -0.4392  0.4797  0.7285
  114OSM   H12S11870   4.858   5.943  10.009  0.4470 -0.2595 -0.5397
  114OSM   H12T11871   4.992   6.019   9.930  0.4821  1.6719  1.8940
  114OSM   C13S11872   4.809   6.104   9.868  0.1869 -0.8240 -0.8122
  114OSM   H13S11873   4.867   6.187   9.822  1.6919 -0.9084  0.8295
  114OSM   H13T11874   4.710   6.140   9.903  0.0250 -1.8694 -0.1551
  114OSM   C14S11875   4.785   6.018   9.741 -0.6412 -0.7189  0.9361
  114OSM   H14S11876   4.721   6.075   9.670  1.3280  1.2614  0.6599
  114OSM   H14T11877   4.725   5.927   9.764 -0.2455 -0.8582  1.4503
  114OSM   C15S11878   4.911   5.977   9.649 -0.3083  0.5853 -0.4790
  114OSM   H15S11879   4.966   5.902   9.711 -2.1005 -2.0788 -1.9272
  114OSM   H15T11880   4.978   6.066   9.653  0.3336  0.0849  0.1811
  114OSM   C16S11881   4.873   5.919   9.521  0.8986 -0.1929  0.1575
  114OSM   H16S11882   4.785   5.852   9.533  1.1533 -0.4286  0.7712
  114OSM   H16T11883   4.954   5.859   9.474 -1.0463 -1.3074 -1.9691
  114OSM   C17S11884   4.829   6.022   9.415 -0.6610 -0.0234 -0.3327
  114OSM   H17S11885   4.752   6.088   9.460  1.6163  2.3324  0.4024
  114OSM   H17T11886   4.788   5.975   9.323  2.1023 -1.3295 -1.0166
  114OSM   C18S11887   4.949   6.104   9.377  0.3669 -0.1347  0.7783
  114OSM   H18S11888   4.941   6.139   9.272 -0.8753 -1.5957  0.3474
  114OSM   H18T11889   5.040   6.041   9.368  0.0473 -0.3951 -1.1424
  114OSM   H18U11890   4.981   6.179   9.452 -1.1974  1.8723 -0.4592
  114OSM    C1F11891   5.496   6.555  10.921 -0.0332 -0.5013  0.9324
  114OSM     OF11892   5.561   6.516  11.014  0.5832  0.2128 -0.2575
  114OSM    C2F11893   5.556   6.632  10.807 -0.3819 -0.2609 -0.0919
  114OSM    H2F11894   5.522   6.738  10.815  0.5746  0.0361  0.1657
  114OSM    H2G11895   5.510   6.593  10.713  1.2760 -1.2435 -0.5300
  114OSM    C3F11896   5.710   6.617  10.786  0.2699 -0.3561 -0.3364
  114OSM    H3F11897   5.745   6.519  10.824 -2.3141 -1.3316 -0.2707
  114OSM    H3G11898   5.760   6.695  10.848 -0.2813 -0.4173  0.1958
  114OSM    C4F11899   5.752   6.639  10.641 -0.3946 -0.1225 -0.3541
  114OSM    H4F11900   5.726   6.743  10.614  1.9865  0.7239  0.3691
  114OSM    H4G11901   5.706   6.562  10.575 -1.4689 -0.5742  0.8662
  114OSM    C5F11902   5.902   6.637  10.620  0.0791 -0.2299 -0.1950
  114OSM    H5F11903   5.945   6.547  10.669 -0.3007 -1.1012 -1.4038
  114OSM    H5G11904   5.953   6.722  10.670 -0.7878 -0.4212  1.0593
  114OSM    C6F11905   5.944   6.643  10.470  0.0783  0.5472  0.3516
  114OSM    H6F11906   6.050   6.678  10.472  0.0036  0.7683  0.4958
  114OSM    H6G11907   5.876   6.719  10.427 -0.5731  2.5991  4.4297
  114OSM    C7F11908   5.927   6.517  10.391  0.5046  1.6142  0.1447
  114OSM    H7F11909   5.817   6.501  10.386  0.5469  1.7160 -1.2332
  114OSM    H7G11910   5.970   6.429  10.444 -0.4188 -0.4740 -2.3466
  114OSM    C8F11911   5.982   6.521  10.248 -0.0175 -0.6784  0.1836
  114OSM    H8F11912   6.086   6.556  10.265  0.3750 -0.4062 -2.3806
  114OSM    H8G11913   5.936   6.604  10.189  1.8189 -1.6473 -2.8628
  114OSM    C9F11914   5.968   6.397  10.171 -0.5283  0.4163  0.1803
  114OSM    H9F11915   5.988   6.306  10.229  0.5912  0.2900 -0.3744
  114OSM   C10F11916   5.950   6.371  10.042  0.8941 -0.3639  0.7108
  114OSM   H10F11917   5.941   6.263  10.026 -0.8279 -0.0206 -1.1515
  114OSM   C11F11918   5.919   6.461   9.923 -0.5884 -0.1316 -0.8086
  114OSM   H11F11919   5.938   6.568   9.947 -0.0651 -0.1972 -0.9263
  114OSM   H11G11920   5.813   6.448   9.892 -0.3457 -1.0763 -1.2868
  114OSM   C12F11921   6.009   6.414   9.811  0.3166  0.2530  0.2347
  114OSM   H12F11922   6.018   6.304   9.799  0.9039  0.3703 -0.4831
  114OSM   H12G11923   6.114   6.448   9.821  0.1245  1.6690 -1.8131
  114OSM   C13F11924   5.970   6.462   9.669 -0.5465 -0.1994 -0.1071
  114OSM   H13F11925   6.047   6.408   9.610  0.8172 -0.2653  1.6606
  114OSM   H13G11926   5.981   6.572   9.665  0.2223 -0.2937 -0.7100
  114OSM   C14F11927   5.836   6.430   9.613 -0.3505  0.3742  0.5186
  114OSM   H14F11928   5.754   6.461   9.682 -1.5137 -0.9421 -0.2246
  114OSM   H14G11929   5.835   6.319   9.610 -0.7690  0.3838  0.1374
  114OSM   C15F11930   5.825   6.492   9.472 -0.5794 -0.4055  0.7750
  114OSM   H15F11931   5.828   6.603   9.474 -2.4891 -0.3453  1.9575
  114OSM   H15G11932   5.725   6.475   9.426 -0.4558 -1.7724  0.9750
  114OSM   C16F11933   5.922   6.444   9.370  0.0483  0.0813  0.4847
  114OSM   H16F11934   5.906   6.334   9.361  0.8687  0.1073 -2.6529
  114OSM   H16G11935   6.028   6.464   9.395  0.7119  0.3887 -2.2040
  114OSM   C17F11936   5.901   6.499   9.226  0.4110  0.3479 -0.1945
  114OSM   H17F11937   5.931   6.605   9.235  0.5957  0.4155 -1.4264
  114OSM   H17G11938   5.792   6.498   9.206  0.2229 -0.5814  0.7419
  114OSM   C18F11939   5.979   6.430   9.121 -0.0776 -0.4078  0.1408
  114OSM   H18F11940   6.089   6.442   9.129 -0.0933  2.2988 -2.1197
  114OSM   H18G11941   5.960   6.461   9.015 -1.7583 -0.1605  0.4792
  114OSM   H18H11942   5.952   6.322   9.116  3.7901 -1.5392  0.9899
  115OSM      N11943   6.656   1.341   6.188  0.0373  0.3814  0.4778
  115OSM    C1511944   6.758   1.334   6.080 -0.1436 -0.2216  0.5592
  115OSM   H15A11945   6.843   1.391   6.115  1.6102 -1.5900 -1.2526
  115OSM   H15B11946   6.732   1.377   5.985  0.6229  1.8266  1.2329
  115OSM   H15C11947   6.793   1.232   6.072 -0.0968 -0.1897  0.3544
  115OSM    C1411948   6.595   1.476   6.198 -0.2672  0.4631 -0.1106
  115OSM   H14A11949   6.537   1.488   6.288  0.7695  1.7224  0.4297
  115OSM   H14B11950   6.519   1.489   6.122 -1.4279  0.8370  1.0810
  115OSM   H14C11951   6.674   1.550   6.199 -0.6708  0.8952  0.3653
  115OSM    C1311952   6.545   1.243   6.161  0.2765 -0.1057 -0.7332
  115OSM   H13A11953   6.478   1.284   6.087  0.7018  0.8395 -0.6048
  115OSM   H13B11954   6.484   1.240   6.251  0.0878 -2.9786 -0.8698
  115OSM   H13C11955   6.576   1.143   6.137 -0.8121 -0.6930  0.1812
  115OSM    C1211956   6.732   1.315   6.319  0.4858  0.1657 -0.3483
  115OSM   H12A11957   6.781   1.219   6.310  1.3646  0.7412 -2.4409
  115OSM   H12B11958   6.666   1.312   6.404  0.9315  0.8499  0.0328
  115OSM    C1111959   6.840   1.415   6.368 -0.1684  0.0197 -1.0284
  115OSM   H11A11960   6.873   1.389   6.471 -3.1075 -2.1243 -0.4767
  115OSM   H11B11961   6.809   1.521   6.370 -0.0627  0.0516  0.3031
  115OSM      P11962   7.039   1.281   6.275  0.0493 -0.1746 -0.0094
  115OSM    O1311963   6.967   1.160   6.223 -0.0056  0.2124  0.0071
  115OSM    O1411964   7.161   1.321   6.203  0.3285  0.2910  0.1032
  115OSM    O1111965   7.067   1.267   6.429 -0.3216  0.4283 -0.3768
  115OSM    O1211966   6.941   1.410   6.276 -0.7656 -0.0783 -0.1668
  115OSM    C1S11967   7.199   1.263   6.485  0.1131  0.2671 -0.1319
  115OSM    H1S11968   7.270   1.331   6.433  0.4964  0.1171  0.1908
  115OSM    H1T11969   7.232   1.157   6.485 -0.5177  0.0649 -0.7339
  115OSM     NF11970   7.347   1.307   6.680  0.8648  0.3007  0.0298
  115OSM    HNF11971   7.376   1.226   6.730  1.6799  0.0352 -0.8520
  115OSM    C2S11972   7.210   1.316   6.632  0.6048 -0.0955  0.6303
  115OSM    H2S11973   7.188   1.425   6.638  0.6029 -0.1771  3.4679
  115OSM    C3S11974   7.109   1.240   6.724 -0.5255 -0.5686  1.2783
  115OSM    H3S11975   7.119   1.130   6.716  2.3810 -0.4301  1.7359
  115OSM     O311976   6.977   1.260   6.683  0.4285  0.5758  0.0351
  115OSM    HO311977   6.999   1.287   6.594  2.2256 -0.6325  0.0599
  115OSM    C4S11978   7.127   1.298   6.867 -0.8872  0.4497  0.4315
  115OSM    H4S11979   7.183   1.234   6.937 -2.0688 -0.1610  0.8488
  115OSM    C5S11980   7.073   1.412   6.908  0.4305  0.2243 -0.0458
  115OSM    H5S11981   7.018   1.486   6.849  0.4490  2.0954  2.1340
  115OSM    C6S11982   7.082   1.468   7.047 -0.2632  0.1400  0.2338
  115OSM    H6S11983   7.172   1.533   7.052 -0.2761  0.3033 -1.3499
  115OSM    H6T11984   7.105   1.396   7.128  1.4865 -0.2467 -0.5710
  115OSM    C7S11985   6.960   1.545   7.097  0.2136 -0.2851  0.0731
  115OSM    H7S11986   6.863   1.492   7.086  1.5451 -3.0987  0.8883
  115OSM    H7T11987   6.954   1.632   7.028  0.6294 -0.3360 -0.0352
  115OSM    C8S11988   6.984   1.595   7.244 -0.0760  0.3296 -0.0448
  115OSM    H8S11989   7.065   1.670   7.240  0.2326  0.0072  0.0614
  115OSM    H8T11990   7.019   1.503   7.297 -0.2886 -0.3135 -0.9839
  115OSM    C9S11991   6.855   1.638   7.315 -0.3588  0.6644 -0.3786
  115OSM    H9S11992   6.770   1.569   7.292 -1.3748  1.8027 -0.1361
  115OSM    H9T11993   6.821   1.733   7.270  0.8693  1.2920 -0.0167
  115OSM   C10S11994   6.856   1.652   7.470  0.4828  0.3929  0.1041
  115OSM   H10S11995   6.921   1.729   7.517  1.5049 -0.4426  0.1168
  115OSM   H10T11996   6.882   1.558   7.525 -1.8110 -1.5178 -1.8431
  115OSM   C11S11997   6.716   1.703   7.508 -0.3208  0.2783 -0.0202
  115OSM   H11S11998   6.637   1.641   7.459 -0.3456  0.1351  0.2007
  115OSM   H11T11999   6.704   1.808   7.474 -3.2811 -0.2216 -0.8284
  115OSM   C12S12000   6.691   1.714   7.661  0.1469  0.1736  0.1496
  115OSM   H12S12001   6.683   1.608   7.696  0.5379  0.7249  2.0125
  115OSM   H12T12002   6.591   1.762   7.672 -0.9082 -1.5927 -1.0579
  115OSM   C13S12003   6.805   1.789   7.732 -0.0162  0.0788  0.1687
  115OSM   H13S12004   6.813   1.892   7.690 -0.5660 -0.2288 -0.7128
  115OSM   H13T12005   6.900   1.736   7.709 -2.0879 -3.1800 -1.5992
  115OSM   C14S12006   6.795   1.789   7.881 -0.1562 -0.0917 -0.2499
  115OSM   H14S12007   6.700   1.824   7.927  0.3849  1.4347 -0.2215
  115OSM   H14T12008   6.869   1.860   7.925  0.4654 -1.8133  1.6746
  115OSM   C15S12009   6.831   1.648   7.933 -0.2759  0.6049 -0.1781
  115OSM   H15S12010   6.935   1.631   7.899  0.0330  1.1947  0.4500
  115OSM   H15T12011   6.759   1.575   7.889  0.5748 -0.1655 -0.3142
  115OSM   C16S12012   6.823   1.613   8.078  0.5658  0.1694  0.6973
  115OSM   H16S12013   6.742   1.538   8.091  1.0090  0.0283  2.9739
  115OSM   H16T12014   6.813   1.706   8.138 -0.7735  0.2611  0.3819
  115OSM   C17S12015   6.940   1.531   8.133  0.2236 -0.0699  0.2472
  115OSM   H17S12016   7.025   1.600   8.114 -1.0530  1.4350 -0.2135
  115OSM   H17T12017   6.963   1.435   8.083 -1.0745 -0.6557  0.7446
  115OSM   C18S12018   6.932   1.498   8.283 -0.2253 -0.0653 -0.2517
  115OSM   H18S12019   6.903   1.577   8.355 -2.0554 -2.0848  1.3569
  115OSM   H18T12020   7.032   1.466   8.319 -0.3133 -1.1868 -0.9619
  115OSM   H18U12021   6.872   1.408   8.308  1.9324 -1.5015 -0.0011
  115OSM    C1F12022   7.446   1.379   6.634  0.6142  0.5769 -0.7067
  115OSM     OF12023   7.429   1.453   6.538 -1.0781  0.2934 -0.1633
  115OSM    C2F12024   7.576   1.375   6.706 -0.0996 -0.1953 -0.6110
  115OSM    H2F12025   7.665   1.390   6.641  1.7600 -2.2274  1.2681
  115OSM    H2G12026   7.586   1.272   6.749 -0.9931  0.5928  1.6431
  115OSM    C3F12027   7.564   1.484   6.815 -0.3018 -0.2598 -0.2406
  115OSM    H3F12028   7.554   1.586   6.773 -0.4878 -0.5200 -0.8414
  115OSM    H3G12029   7.659   1.469   6.871 -0.0544 -0.9864 -0.8384
  115OSM    C4F12030   7.466   1.451   6.929 -0.3323 -0.1094  0.4753
  115OSM    H4F12031   7.478   1.343   6.953  1.0476 -0.5813 -2.0128
  115OSM    H4G12032   7.363   1.480   6.902 -0.4032 -0.4787  0.3375
  115OSM    C5F12033   7.499   1.535   7.056 -0.2511  0.2315 -0.3933
  115OSM    H5F12034   7.462   1.637   7.031  0.0267 -0.1743 -2.7516
  115OSM    H5G12035   7.608   1.548   7.070 -0.5656  2.3087  0.5064
  115OSM    C6F12036   7.456   1.467   7.188  0.3262  0.3705  0.4325
  115OSM    H6F12037   7.521   1.378   7.199 -0.5298 -0.1818  1.0632
  115OSM    H6G12038   7.353   1.427   7.176  0.1268  0.3870  1.8929
  115OSM    C7F12039   7.463   1.552   7.315  0.0929 -0.1035 -0.6909
  115OSM    H7F12040   7.381   1.627   7.317 -0.7512 -1.0239 -0.0772
  115OSM    H7G12041   7.560   1.606   7.314  0.6096 -0.9347  0.7860
  115OSM    C8F12042   7.468   1.489   7.455 -0.1626 -0.2523  1.0649
  115OSM    H8F12043   7.458   1.572   7.529 -0.9254  1.9860 -1.3965
  115OSM    H8G12044   7.550   1.414   7.458 -1.1193 -1.3590  0.2425
  115OSM    C9F12045   7.349   1.402   7.480 -0.3088 -0.2092  0.2626
  115OSM    H9F12046   7.349   1.296   7.449 -1.6505 -0.4272  0.9341
  115OSM   C10F12047   7.236   1.438   7.543 -0.7114  0.2674 -0.4937
  115OSM   H10F12048   7.159   1.360   7.553  0.6835 -1.1235 -0.2745
  115OSM   C11F12049   7.206   1.565   7.611 -0.1538  0.4665 -0.9591
  115OSM   H11F12050   7.099   1.590   7.595 -1.0251 -1.5701  1.2337
  115OSM   H11G12051   7.262   1.643   7.554  0.2430  0.2884 -0.8167
  115OSM   C12F12052   7.232   1.574   7.762  0.6713 -0.1155 -0.1729
  115OSM   H12F12053   7.183   1.489   7.814  2.8463 -1.6656 -0.5016
  115OSM   H12G12054   7.188   1.668   7.803  1.9870 -0.2662  1.7414
  115OSM   C13F12055   7.382   1.582   7.804 -0.0596 -0.0125 -0.4220
  115OSM   H13F12056   7.429   1.667   7.751 -0.1572 -0.5323 -1.3569
  115OSM   H13G12057   7.436   1.487   7.781  0.0382  0.6445 -3.2647
  115OSM   C14F12058   7.402   1.606   7.954  0.1503  0.0656  0.6396
  115OSM   H14F12059   7.350   1.702   7.970  1.8046  0.6725  2.7799
  115OSM   H14G12060   7.508   1.637   7.964  0.3132 -0.2430 -0.0063
  115OSM   C15F12061   7.365   1.491   8.051 -0.4827  0.1911  0.3569
  115OSM   H15F12062   7.443   1.415   8.029 -0.7604  0.6497 -2.5503
  115OSM   H15G12063   7.263   1.454   8.027 -0.6423  0.6690  0.2749
  115OSM   C16F12064   7.351   1.536   8.199  0.3086  0.4523  0.0105
  115OSM   H16F12065   7.348   1.449   8.268 -1.4862  0.9947  0.6774
  115OSM   H16G12066   7.260   1.599   8.200  0.0829  0.1533  1.5632
  115OSM   C17F12067   7.469   1.623   8.248 -0.2756  0.7633  1.5825
  115OSM   H17F12068   7.482   1.719   8.195  0.0359 -0.1786 -0.1133
  115OSM   H17G12069   7.560   1.561   8.234  0.4638  2.3595 -1.6916
  115OSM   C18F12070   7.456   1.643   8.399  0.0943 -0.5561  0.5627
  115OSM   H18F12071   7.450   1.542   8.444 -0.6906 -0.8581 -0.2163
  115OSM   H18G12072   7.367   1.696   8.440  1.3927 -0.0508  2.9869
  115OSM   H18H12073   7.550   1.688   8.440 -0.4660  0.6584  0.5521
  116OSM      N12074   5.872   5.068   5.829  0.0898 -0.4430 -0.2369
  116OSM    C1512075   5.947   5.178   5.742 -0.0043  0.1048  0.0559
  116OSM   H15A12076   5.901   5.275   5.751  2.3145  1.2331  0.7387
  116OSM   H15B12077   5.958   5.148   5.639 -1.2736 -0.0396 -0.0548
  116OSM   H15C12078   6.046   5.197   5.781 -0.0006 -1.5472  0.9076
  116OSM    C1412079   5.754   5.033   5.738  0.8112  0.3211  0.1543
  116OSM   H14A12080   5.695   4.956   5.786  0.9219  0.4373  0.4769
  116OSM   H14B12081   5.793   5.016   5.639  2.6180  1.4421  0.6298
  116OSM   H14C12082   5.691   5.120   5.726  0.8701  0.3215 -0.1449
  116OSM    C1312083   5.955   4.945   5.847  0.1595  0.0643  0.4273
  116OSM   H13A12084   5.995   4.902   5.756  0.0650  1.0397 -0.0813
  116OSM   H13B12085   5.906   4.869   5.907 -3.4862 -0.1512 -2.5413
  116OSM   H13C12086   6.044   4.974   5.901  1.3907 -0.6329 -1.1475
  116OSM    C1212087   5.841   5.123   5.969 -0.4566  0.2385  0.0901
  116OSM   H12A12088   5.937   5.143   6.015 -1.3035  1.0189  1.6039
  116OSM   H12B12089   5.815   5.039   6.031  1.1296 -1.0089 -0.8408
  116OSM    C1112090   5.751   5.251   5.989 -0.6651  0.1838 -0.2146
  116OSM   H11A12091   5.652   5.228   5.943 -0.4666 -0.4100 -0.3619
  116OSM   H11B12092   5.787   5.346   5.945 -1.9980  0.6962 -0.2540
  116OSM      P12093   5.788   5.364   6.227 -0.0049 -0.4471 -0.0076
  116OSM    O1312094   5.939   5.363   6.239  0.0997  0.6107  0.5909
  116OSM    O1412095   5.719   5.492   6.196  0.6125 -0.1186 -0.4357
  116OSM    O1112096   5.722   5.306   6.362  0.0642  0.3700 -0.0554
  116OSM    O1212097   5.727   5.253   6.132 -0.0577  0.0870 -0.1169
  116OSM    C1S12098   5.783   5.261   6.482  0.5405  0.3300  0.0456
  116OSM    H1S12099   5.894   5.264   6.487  0.7389 -2.5761 -1.1534
  116OSM    H1T12100   5.757   5.156   6.507  2.3478  0.4663  2.9947
  116OSM     NF12101   5.796   5.307   6.723 -0.2562  0.4441  0.0104
  116OSM    HNF12102   5.762   5.226   6.771  0.7789  0.6973  1.2197
  116OSM    C2S12103   5.731   5.342   6.603 -0.3391 -0.7908 -0.2472
  116OSM    H2S12104   5.743   5.451   6.585  0.7583 -1.2670 -2.9010
  116OSM    C3S12105   5.581   5.316   6.604  0.1318 -0.2682 -0.2507
  116OSM    H3S12106   5.556   5.208   6.605 -1.2212  0.0225 -0.8669
  116OSM     O312107   5.510   5.373   6.490  0.4288 -0.1251 -0.0688
  116OSM    HO312108   5.575   5.377   6.420 -0.8924 -1.0773 -1.4099
  116OSM    C4S12109   5.513   5.379   6.731 -0.1941  0.2989  0.2472
  116OSM    H4S12110   5.504   5.488   6.721  3.0496  0.6274 -0.1006
  116OSM    C5S12111   5.444   5.299   6.817 -0.2293  0.6698 -0.0539
  116OSM    H5S12112   5.445   5.192   6.794 -1.3853  0.3613  1.2257
  116OSM    C6S12113   5.371   5.346   6.941 -0.6495  0.5341 -0.0814
  116OSM    H6S12114   5.392   5.265   7.014 -1.7653 -1.3226 -1.7325
  116OSM    H6T12115   5.262   5.344   6.919 -0.3216  2.0774 -2.1707
  116OSM    C7S12116   5.425   5.482   7.003 -0.6761  0.0226  0.3862
  116OSM    H7S12117   5.426   5.568   6.932 -0.4549 -0.0873  0.2574
  116OSM    H7T12118   5.528   5.465   7.042 -0.6953 -1.8052 -0.2823
  116OSM    C8S12119   5.350   5.518   7.128  0.6048  0.0884  0.7663
  116OSM    H8S12120   5.242   5.517   7.103  0.2222 -0.1995  2.3475
  116OSM    H8T12121   5.380   5.621   7.154  1.6044  0.1813 -0.6665
  116OSM    C9S12122   5.377   5.443   7.256 -0.2347 -0.1324 -0.1476
  116OSM    H9S12123   5.484   5.446   7.285 -0.7672  1.5118  1.8869
  116OSM    H9T12124   5.361   5.334   7.245 -0.6479 -0.2218  1.1136
  116OSM   C10S12125   5.293   5.502   7.371 -0.0654  0.0532  0.0594
  116OSM   H10S12126   5.187   5.494   7.339  0.7755 -3.6043 -2.4756
  116OSM   H10T12127   5.310   5.609   7.393 -0.8367  0.0905  0.4920
  116OSM   C11S12128   5.318   5.435   7.504  0.2737  0.2576  0.1297
  116OSM   H11S12129   5.427   5.429   7.527  0.2053 -3.4982  0.1056
  116OSM   H11T12130   5.282   5.330   7.506  0.0285  0.3461  1.5238
  116OSM   C12S12131   5.255   5.492   7.622  0.8438 -0.5999  0.5481
  116OSM   H12S12132   5.145   5.493   7.600  1.1558 -0.7776 -1.2221
  116OSM   H12T12133   5.273   5.601   7.635  0.2486 -0.7100  2.6097
  116OSM   C13S12134   5.266   5.421   7.749 -0.1203  0.2603  0.1577
  116OSM   H13S12135   5.370   5.434   7.786  0.5499 -1.9756 -0.8153
  116OSM   H13T12136   5.249   5.314   7.725  1.4065 -0.2249  1.1186
  116OSM   C14S12137   5.156   5.454   7.845 -0.3986 -0.6113 -0.7090
  116OSM   H14S12138   5.062   5.445   7.787 -0.9207 -1.6168  0.2528
  116OSM   H14T12139   5.157   5.556   7.890 -1.3213 -1.1880  0.7136
  116OSM   C15S12140   5.149   5.359   7.972  0.5453 -0.2757 -0.5130
  116OSM   H15S12141   5.152   5.255   7.933 -0.0007 -0.9513  1.1891
  116OSM   H15T12142   5.050   5.382   8.016  0.2710 -0.1502 -1.1717
  116OSM   C16S12143   5.260   5.395   8.076  0.0245  0.2438  0.0077
  116OSM   H16S12144   5.254   5.500   8.114 -0.0561  0.7747 -1.4080
  116OSM   H16T12145   5.360   5.380   8.031  0.5569  2.0906  0.4575
  116OSM   C17S12146   5.246   5.303   8.199  0.0101 -0.5026  0.0302
  116OSM   H17S12147   5.211   5.208   8.153 -1.2472 -0.6162  1.1492
  116OSM   H17T12148   5.154   5.344   8.245 -0.1892 -0.3060 -0.5358
  116OSM   C18S12149   5.370   5.290   8.291  1.2094 -0.1875  0.2882
  116OSM   H18S12150   5.467   5.275   8.239  1.0773 -0.9820  0.2515
  116OSM   H18T12151   5.352   5.218   8.373 -0.1314  0.1885  0.3370
  116OSM   H18U12152   5.371   5.393   8.333 -2.0139  0.2573 -0.4468
  116OSM    C1F12153   5.928   5.344   6.734 -0.2414  0.0510 -0.3568
  116OSM     OF12154   5.970   5.446   6.682  0.2099  0.1748  0.3383
  116OSM    C2F12155   6.021   5.251   6.808  0.3329  0.2234  0.3673
  116OSM    H2F12156   6.120   5.301   6.821 -0.7896  2.6357  0.1904
  116OSM    H2G12157   6.029   5.160   6.745 -1.8327 -0.5545  1.1200
  116OSM    C3F12158   5.972   5.191   6.943 -0.7741  0.1597  0.4596
  116OSM    H3F12159   6.040   5.118   6.991 -0.6655  1.2481  2.0703
  116OSM    H3G12160   5.877   5.137   6.921  0.6253 -1.4330 -2.2080
  116OSM    C4F12161   5.965   5.309   7.049 -0.2523 -0.2880  0.0823
  116OSM    H4F12162   5.899   5.392   7.015  0.2622 -0.0638 -0.3796
  116OSM    H4G12163   6.070   5.344   7.043 -0.1623 -0.6328 -0.3161
  116OSM    C5F12164   5.926   5.275   7.192  0.2197 -0.0654 -0.0755
  116OSM    H5F12165   5.955   5.355   7.264  1.7186 -1.9208  1.4808
  116OSM    H5G12166   5.969   5.174   7.208 -1.1473 -0.8149 -0.8985
  116OSM    C6F12167   5.776   5.255   7.204 -0.0220  0.4605  0.3899
  116OSM    H6F12168   5.752   5.207   7.107  0.0173 -0.2220  0.7161
  116OSM    H6G12169   5.721   5.352   7.196 -0.2149  0.2419 -1.1859
  116OSM    C7F12170   5.724   5.158   7.316  0.2992 -0.7396 -0.2996
  116OSM    H7F12171   5.731   5.054   7.277 -0.7827 -1.0679  0.3185
  116OSM    H7G12172   5.616   5.179   7.331  0.7430  1.1723  0.4279
  116OSM    C8F12173   5.788   5.172   7.449  0.1114  0.8000 -0.1529
  116OSM    H8F12174   5.897   5.157   7.435  0.2100  0.7609  0.6374
  116OSM    H8G12175   5.756   5.079   7.501  0.6404  0.2997 -0.6951
  116OSM    C9F12176   5.756   5.294   7.533  0.7026  0.1791  0.0983
  116OSM    H9F12177   5.772   5.390   7.483  0.7217  0.5734  0.8449
  116OSM   C10F12178   5.694   5.300   7.658 -0.3726 -0.3367  0.7109
  116OSM   H10F12179   5.674   5.398   7.703  0.1320  0.4911 -0.7787
  116OSM   C11F12180   5.658   5.181   7.738 -0.2811 -0.0604 -0.7104
  116OSM   H11F12181   5.731   5.097   7.730 -0.2383  0.0475 -1.5985
  116OSM   H11G12182   5.553   5.155   7.711  0.0659  0.4918 -2.7559
  116OSM   C12F12183   5.650   5.217   7.890  0.0458  0.4682  0.3300
  116OSM   H12F12184   5.589   5.309   7.906  2.6888  2.3707  0.2112
  116OSM   H12G12185   5.753   5.238   7.927  0.7987 -1.7577 -0.3993
  116OSM   C13F12186   5.600   5.098   7.968  0.4429 -0.1980 -0.0304
  116OSM   H13F12187   5.520   5.043   7.915 -1.4005  1.2745  1.0558
  116OSM   H13G12188   5.549   5.148   8.054 -1.1488  0.7742 -1.4851
  116OSM   C14F12189   5.707   5.002   8.019 -0.7461  0.5438  0.5782
  116OSM   H14F12190   5.794   5.064   8.050 -2.8424  3.8654  0.2549
  116OSM   H14G12191   5.741   4.940   7.933  3.1676  2.2409  0.6909
  116OSM   C15F12192   5.673   4.909   8.133 -0.6266  0.7668  0.4106
  116OSM   H15F12193   5.651   4.957   8.231  0.3062  0.9158  0.5616
  116OSM   H15G12194   5.764   4.850   8.155 -0.3139  0.4337 -1.5879
  116OSM   C16F12195   5.558   4.808   8.109  0.3553  0.2489  0.1577
  116OSM   H16F12196   5.566   4.768   8.006 -1.8946  2.9215 -1.1812
  116OSM   H16G12197   5.462   4.862   8.093 -0.9703 -1.8215  0.6734
  116OSM   C17F12198   5.551   4.698   8.214 -0.5710 -0.0496 -0.1736
  116OSM   H17F12199   5.564   4.747   8.313  0.1931  0.7951 -0.6777
  116OSM   H17G12200   5.628   4.620   8.203 -0.7335 -0.5372  1.8320
  116OSM   C18F12201   5.415   4.624   8.210  0.9014 -0.6068  0.0782
  116OSM   H18F12202   5.333   4.699   8.211  1.8615  0.5263 -1.6018
  116OSM   H18G12203   5.399   4.548   8.290 -1.6974 -0.8827 -0.6094
  116OSM   H18H12204   5.400   4.579   8.110 -0.5316  2.0628 -1.0186
  117OSM      N12205   6.409   0.108   6.229 -0.3344  0.4641  0.3050
  117OSM    C1512206   6.534   0.106   6.322  0.0707 -0.6754  0.3313
  117OSM   H15A12207   6.603   0.188   6.307 -2.1518  1.2559  0.0760
  117OSM   H15B12208   6.577   0.008   6.311  0.2204 -0.5331 -0.4437
  117OSM   H15C12209   6.506   0.120   6.425 -1.2730  0.7576 -0.1892
  117OSM    C1412210   6.456   0.091   6.091  0.8371 -0.0640 -0.8755
  117OSM   H14A12211   6.517   0.004   6.078 -0.7960 -1.4404  0.1892
  117OSM   H14B12212   6.507   0.181   6.060 -0.6745  0.4475 -2.0520
  117OSM   H14C12213   6.373   0.092   6.021  0.1288 -3.5780 -0.2482
  117OSM    C1312214   6.331  -0.016   6.267  0.4037 -0.1206  0.3745
  117OSM   H13A12215   6.317  -0.006   6.374  0.9960  0.8972  0.3722
  117OSM   H13B12216   6.388  -0.104   6.242 -1.2112 -0.4936 -2.3641
  117OSM   H13C12217   6.236  -0.025   6.217  1.8847  0.2864 -2.6926
  117OSM    C1212218   6.330   0.232   6.250  0.0682  0.1177 -0.1806
  117OSM   H12A12219   6.316   0.242   6.357 -1.7613 -1.3284 -0.2361
  117OSM   H12B12220   6.230   0.222   6.210 -1.2542 -1.7350  3.1485
  117OSM    C1112221   6.399   0.368   6.218  0.3209  0.0092  0.3826
  117OSM   H11A12222   6.321   0.440   6.251 -0.9661 -0.7912 -0.8069
  117OSM   H11B12223   6.428   0.377   6.111  0.3777 -0.3966  0.3627
  117OSM      P12224   6.600   0.515   6.253 -0.2596 -0.5171 -0.0077
  117OSM    O1312225   6.737   0.459   6.234 -0.1962 -0.6084 -0.3165
  117OSM    O1412226   6.539   0.593   6.141 -0.0064 -0.3368 -0.2346
  117OSM    O1112227   6.595   0.604   6.386 -0.1286  0.1913  0.0324
  117OSM    O1212228   6.512   0.396   6.298 -0.6789  0.7974  0.4721
  117OSM    C1S12229   6.536   0.546   6.503 -0.3232  0.3994 -0.3642
  117OSM    H1S12230   6.583   0.451   6.535 -0.4658  1.8154  4.8782
  117OSM    H1T12231   6.430   0.517   6.487  0.3533 -2.5217 -0.1247
  117OSM     NF12232   6.509   0.582   6.736  0.2646 -0.2482 -0.1976
  117OSM    HNF12233   6.416   0.587   6.773 -0.3184 -0.7108 -1.5270
  117OSM    C2S12234   6.543   0.649   6.611 -0.8667  1.0385  0.6240
  117OSM    H2S12235   6.648   0.686   6.613 -0.5709  0.4689 -1.6447
  117OSM    C3S12236   6.452   0.768   6.584 -0.3139  0.4355  0.0630
  117OSM    H3S12237   6.342   0.748   6.584 -0.0572 -1.1009 -0.4247
  117OSM     O312238   6.478   0.827   6.461 -0.6440 -0.0852 -0.3185
  117OSM    HO312239   6.544   0.764   6.430  1.7467  1.7615  0.6743
  117OSM    C4S12240   6.476   0.875   6.684  0.6571  0.8187 -0.7285
  117OSM    H4S12241   6.581   0.905   6.694  1.6931 -1.8954 -2.4780
  117OSM    C5S12242   6.369   0.924   6.764 -0.1259  0.6988 -0.6078
  117OSM    H5S12243   6.268   0.881   6.755  0.1991 -0.1637 -0.2843
  117OSM    C6S12244   6.379   1.030   6.876 -0.0176  0.2662 -0.1952
  117OSM    H6S12245   6.312   1.112   6.842  1.0315  0.5476 -1.6623
  117OSM    H6T12246   6.480   1.072   6.892 -0.3996  0.2731  2.7929
  117OSM    C7S12247   6.307   0.969   7.000  0.3533  0.7020  0.2125
  117OSM    H7S12248   6.355   0.873   7.032 -3.3306 -0.9569  1.3438
  117OSM    H7T12249   6.204   0.934   6.978  1.1498 -0.7690 -1.4030
  117OSM    C8S12250   6.312   1.063   7.121 -0.1928 -0.1725 -0.8928
  117OSM    H8S12251   6.263   1.162   7.106  3.2319  1.9439  0.5120
  117OSM    H8T12252   6.420   1.089   7.131 -0.4193  0.4955  0.0342
  117OSM    C9S12253   6.267   1.006   7.254  0.9405  0.0336  0.3918
  117OSM    H9S12254   6.300   0.899   7.253 -0.0072 -0.2694 -0.4980
  117OSM    H9T12255   6.156   0.993   7.254  0.8286  0.9782  0.6253
  117OSM   C10S12256   6.319   1.078   7.373 -0.1817  0.2311  0.0500
  117OSM   H10S12257   6.291   1.185   7.369  2.8612  1.1286  0.2415
  117OSM   H10T12258   6.430   1.084   7.371 -0.1736  1.5105  1.7076
  117OSM   C11S12259   6.290   1.014   7.509  0.6590 -0.3332 -0.0857
  117OSM   H11S12260   6.340   0.918   7.535  0.3252 -0.1122  1.5157
  117OSM   H11T12261   6.182   0.984   7.510  0.0839  1.6343  0.0620
  117OSM   C12S12262   6.297   1.103   7.630 -0.4815 -0.2899 -0.4888
  117OSM   H12S12263   6.231   1.192   7.614 -0.2800 -0.3104 -1.5390
  117OSM   H12T12264   6.402   1.137   7.647 -0.5333 -0.7118  0.7531
  117OSM   C13S12265   6.248   1.039   7.767  0.0155 -0.1747 -0.4852
  117OSM   H13S12266   6.338   0.977   7.789  0.9874  1.9785  2.1580
  117OSM   H13T12267   6.159   0.974   7.752 -0.3869  0.0752  0.7304
  117OSM   C14S12268   6.225   1.145   7.876  0.3710  0.0706  0.7586
  117OSM   H14S12269   6.180   1.237   7.831 -0.8821 -0.2111  1.4069
  117OSM   H14T12270   6.320   1.173   7.925  0.6781  1.3540 -0.4776
  117OSM   C15S12271   6.125   1.086   7.984  0.2382 -0.1940  0.3099
  117OSM   H15S12272   6.156   0.986   8.022  0.4330  0.8694  3.2077
  117OSM   H15T12273   6.027   1.091   7.931  0.3751 -0.0395  0.0675
  117OSM   C16S12274   6.108   1.186   8.106 -0.3718  0.1119 -0.2443
  117OSM   H16S12275   6.079   1.285   8.063 -0.7430  0.0376 -0.1717
  117OSM   H16T12276   6.207   1.200   8.154  0.3151  0.5811 -1.7245
  117OSM   C17S12277   6.014   1.142   8.214 -0.6996 -0.0676 -0.4362
  117OSM   H17S12278   6.065   1.071   8.283 -0.5202  0.5569  0.0793
  117OSM   H17T12279   5.933   1.083   8.166 -2.4159 -0.0921  2.2610
  117OSM   C18S12280   5.947   1.252   8.291 -0.3232  0.1127 -0.3772
  117OSM   H18S12281   5.888   1.306   8.214  1.3474  1.4096 -0.8283
  117OSM   H18T12282   6.032   1.312   8.331  1.6198 -3.3437  1.1094
  117OSM   H18U12283   5.883   1.214   8.374  0.4028  0.4171  0.3394
  117OSM    C1F12284   6.586   0.484   6.791 -0.4598  0.0556 -0.8738
  117OSM     OF12285   6.697   0.455   6.745  0.6614 -0.2588  0.5233
  117OSM    C2F12286   6.529   0.404   6.907  0.4855 -0.3163 -0.0859
  117OSM    H2F12287   6.435   0.356   6.870 -2.3363  3.2498  1.7483
  117OSM    H2G12288   6.510   0.482   6.984 -0.9120  1.6208 -2.2259
  117OSM    C3F12289   6.623   0.296   6.958  0.2678 -1.5184  0.2989
  117OSM    H3F12290   6.719   0.342   6.991  0.5317  0.2306 -2.5306
  117OSM    H3G12291   6.654   0.220   6.883  1.2427 -0.3446 -0.5262
  117OSM    C4F12292   6.553   0.224   7.075 -0.0975 -1.1908 -0.5452
  117OSM    H4F12293   6.620   0.140   7.106 -0.0973 -0.3809  1.8354
  117OSM    H4G12294   6.449   0.196   7.048 -0.6884 -0.9184  1.3019
  117OSM    C5F12295   6.558   0.306   7.209 -0.0950  0.4123 -0.8880
  117OSM    H5F12296   6.476   0.382   7.211 -0.2086  0.2881 -0.8071
  117OSM    H5G12297   6.658   0.354   7.209 -0.0136  0.2590 -1.7369
  117OSM    C6F12298   6.541   0.216   7.338 -0.4067 -0.0059  0.1617
  117OSM    H6F12299   6.619   0.137   7.333 -1.7000 -1.3977  1.2318
  117OSM    H6G12300   6.445   0.161   7.336 -0.8700  0.7862  0.1559
  117OSM    C7F12301   6.531   0.291   7.476  0.1758 -0.1047  0.3546
  117OSM    H7F12302   6.438   0.352   7.469 -0.6697 -1.4091 -0.2534
  117OSM    H7G12303   6.617   0.358   7.500 -0.2830  0.8221 -0.5070
  117OSM    C8F12304   6.526   0.191   7.588  1.2126  1.3094  0.1551
  117OSM    H8F12305   6.625   0.162   7.631  0.7487 -0.0368  0.3572
  117OSM    H8G12306   6.485   0.099   7.542 -0.3760  2.8204 -1.6161
  117OSM    C9F12307   6.428   0.228   7.692 -1.0812 -0.4396 -0.2195
  117OSM    H9F12308   6.323   0.243   7.664 -0.8536  1.3107 -0.2691
  117OSM   C10F12309   6.464   0.253   7.815 -0.3710 -0.3796  0.5972
  117OSM   H10F12310   6.386   0.281   7.887 -0.8562  2.8436 -0.9562
  117OSM   C11F12311   6.606   0.229   7.872 -0.2218  0.5035  0.4061
  117OSM   H11F12312   6.687   0.267   7.807 -1.4801 -0.5886 -1.9377
  117OSM   H11G12313   6.604   0.122   7.903 -0.3462  0.3246 -0.2062
  117OSM   C12F12314   6.617   0.308   8.005 -0.2316  0.0023  0.6118
  117OSM   H12F12315   6.622   0.418   7.989  2.1514 -0.3662 -1.9341
  117OSM   H12G12316   6.723   0.282   8.027  0.5905  0.8044 -2.0501
  117OSM   C13F12317   6.518   0.262   8.120  0.5204 -0.4821  0.0660
  117OSM   H13F12318   6.509   0.151   8.125 -0.5302 -0.4324 -0.4920
  117OSM   H13G12319   6.414   0.298   8.112  0.1652 -1.3629  0.6170
  117OSM   C14F12320   6.563   0.324   8.255  0.0806  0.3335  1.3869
  117OSM   H14F12321   6.515   0.420   8.283 -1.6915  0.1429 -0.7423
  117OSM   H14G12322   6.673   0.337   8.240 -0.1770  2.4264  0.9686
  117OSM   C15F12323   6.555   0.217   8.369 -0.4114 -0.1323 -0.3700
  117OSM   H15F12324   6.613   0.249   8.458  0.9414 -0.8246 -0.9750
  117OSM   H15G12325   6.596   0.119   8.335 -1.5834 -0.1080 -1.9766
  117OSM   C16F12326   6.413   0.196   8.430 -0.1019  0.0880 -0.3036
  117OSM   H16F12327   6.363   0.136   8.351  1.7024 -1.0776 -0.6349
  117OSM   H16G12328   6.361   0.290   8.457  1.5046  0.7662  0.6124
  117OSM   C17F12329   6.427   0.106   8.561  0.2051 -0.3785  0.1530
  117OSM   H17F12330   6.514   0.146   8.616 -0.4141  1.6588 -0.2815
  117OSM   H17G12331   6.326   0.116   8.606  0.8270 -1.6272  1.9623
  117OSM   C18F12332   6.451  -0.039   8.531  0.1937 -0.4073  0.1308
  117OSM   H18F12333   6.510  -0.087   8.612 -0.9785 -0.2080  1.1431
  117OSM   H18G12334   6.506  -0.056   8.436 -1.2974 -0.6998 -0.7188
  117OSM   H18H12335   6.355  -0.092   8.516  1.1014 -1.7589 -1.1563
  118OSM      N12336   1.869   3.535   5.952 -0.1025  0.4778  0.2625
  118OSM    C1512337   1.791   3.645   6.011  0.6166  0.1288 -0.0947
  118OSM   H15A12338   1.779   3.719   5.934  2.9810  2.2910  1.4385
  118OSM   H15B12339   1.838   3.716   6.078  0.6264  2.3164 -2.2846
  118OSM   H15C12340   1.695   3.623   6.057 -1.3017  2.0510 -2.8705
  118OSM    C1412341   1.797   3.439   5.854  0.2604 -0.0726  0.8985
  118OSM   H14A12342   1.877   3.381   5.810  0.7286  2.6171 -2.1564
  118OSM   H14B12343   1.755   3.497   5.774 -0.7831  1.6243  2.5805
  118OSM   H14C12344   1.723   3.382   5.908 -0.7775 -1.9432 -2.2464
  118OSM    C1312345   1.982   3.604   5.891 -0.2866 -0.1696  0.0504
  118OSM   H13A12346   2.050   3.537   5.842  0.8087  0.1508  1.0882
  118OSM   H13B12347   2.034   3.670   5.959  1.9428 -0.4198 -1.3258
  118OSM   H13C12348   1.960   3.673   5.811  3.6634 -0.1373 -1.2215
  118OSM    C1212349   1.920   3.446   6.062 -0.2841 -0.2176 -0.5550
  118OSM   H12A12350   2.017   3.477   6.100  0.3169 -1.5905 -0.9137
  118OSM   H12B12351   1.938   3.351   6.015 -0.1080  0.4456 -1.8775
  118OSM    C1112352   1.825   3.436   6.186 -0.1546 -0.1970  0.0761
  118OSM   H11A12353   1.809   3.528   6.246 -1.0008 -1.8367  2.5340
  118OSM   H11B12354   1.877   3.374   6.263  1.0237  1.2468  0.4878
  118OSM      P12355   1.683   3.219   6.146  0.3433  0.1116 -0.3307
  118OSM    O1312356   1.541   3.188   6.176 -1.0803 -0.0360  0.0977
  118OSM    O1412357   1.728   3.171   6.015  0.4064  0.1177 -0.4564
  118OSM    O1112358   1.777   3.151   6.257 -0.4164  0.0632 -0.6643
  118OSM    O1212359   1.704   3.379   6.155  0.3111  0.3580  0.3174
  118OSM    C1S12360   1.761   3.166   6.398 -0.4549 -0.3170 -0.0339
  118OSM    H1S12361   1.669   3.110   6.426  0.0932 -0.7679  0.9021
  118OSM    H1T12362   1.756   3.276   6.417  2.8146 -0.2943  1.2009
  118OSM     NF12363   1.874   3.130   6.624  0.0584  0.2859  0.2261
  118OSM    HNF12364   1.920   3.214   6.652  0.1655  0.6347 -0.9689
  118OSM    C2S12365   1.887   3.114   6.480  0.2968 -0.1196 -0.3775
  118OSM    H2S12366   1.891   3.004   6.463 -1.9282  0.1352 -3.1840
  118OSM    C3S12367   2.020   3.176   6.417  0.7076  0.4816 -0.8745
  118OSM    H3S12368   2.012   3.285   6.437  0.7679  0.6299 -1.6274
  118OSM     O312369   2.037   3.154   6.277 -0.4024  0.1331 -0.0227
  118OSM    HO312370   1.954   3.116   6.249  0.4905 -0.9107 -1.4355
  118OSM    C4S12371   2.138   3.120   6.488 -0.0124 -0.5054  0.3660
  118OSM    H4S12372   2.135   3.011   6.500 -1.9597 -1.0921 -3.7220
  118OSM    C5S12373   2.233   3.199   6.541 -0.0306  0.1435 -0.4736
  118OSM    H5S12374   2.213   3.307   6.541  0.3457  0.2143 -1.1021
  118OSM    C6S12375   2.351   3.158   6.623  0.4383 -0.0483 -0.1086
  118OSM    H6S12376   2.449   3.175   6.574  0.6434 -0.6012  0.0918
  118OSM    H6T12377   2.342   3.049   6.643 -0.6437 -0.4928 -2.6702
  118OSM    C7S12378   2.362   3.218   6.768 -0.4601 -0.2722  0.3053
  118OSM    H7S12379   2.377   3.328   6.766  1.1131 -0.3769 -3.6589
  118OSM    H7T12380   2.454   3.172   6.809  0.9319  0.7415 -1.5320
  118OSM    C8S12381   2.242   3.197   6.864 -0.3103  0.2555  0.1309
  118OSM    H8S12382   2.212   3.090   6.858 -2.9522  0.9903 -1.4304
  118OSM    H8T12383   2.162   3.268   6.834  0.2965  1.0654  0.4013
  118OSM    C9S12384   2.276   3.235   7.010  0.4311  0.5357  0.2594
  118OSM    H9S12385   2.178   3.246   7.061  0.2710  0.2657  0.0115
  118OSM    H9T12386   2.333   3.330   7.010  1.6087 -0.1319 -1.4403
  118OSM   C10S12387   2.350   3.121   7.079  0.0167 -0.2581 -0.8692
  118OSM   H10S12388   2.442   3.098   7.021  0.5297  1.2908 -0.7151
  118OSM   H10T12389   2.291   3.028   7.084  1.5354 -1.2378 -0.5569
  118OSM   C11S12390   2.384   3.164   7.222 -0.6563  0.0601 -0.5143
  118OSM   H11S12391   2.443   3.258   7.224 -0.4295 -0.0222  2.8852
  118OSM   H11T12392   2.448   3.083   7.263 -1.8404 -0.8337 -0.3917
  118OSM   C12S12393   2.267   3.168   7.317 -0.4103 -0.3127 -0.4886
  118OSM   H12S12394   2.205   3.078   7.296  2.3880 -2.6185  0.5378
  118OSM   H12T12395   2.208   3.261   7.301  1.6784  1.5068  1.6327
  118OSM   C13S12396   2.309   3.148   7.463  0.0272  0.0414  0.8293
  118OSM   H13S12397   2.400   3.209   7.479 -1.3495  2.2790  0.6374
  118OSM   H13T12398   2.332   3.042   7.484 -1.5460 -0.2208  1.4249
  118OSM   C14S12399   2.198   3.178   7.556  0.1431  0.1827 -0.3004
  118OSM   H14S12400   2.118   3.103   7.538  1.0659 -0.8602 -0.1569
  118OSM   H14T12401   2.156   3.280   7.540 -0.3457  0.3902  1.9377
  118OSM   C15S12402   2.242   3.179   7.701  0.2464 -0.0740  0.3090
  118OSM   H15S12403   2.341   3.227   7.717  0.0684 -0.2006  2.0238
  118OSM   H15T12404   2.246   3.071   7.728 -2.6074 -0.7072 -1.4070
  118OSM   C16S12405   2.131   3.236   7.794 -0.0762 -0.2433 -0.0542
  118OSM   H16S12406   2.109   3.161   7.874  0.7774 -0.9922 -0.5031
  118OSM   H16T12407   2.033   3.241   7.741  0.3614  0.2067 -0.8271
  118OSM   C17S12408   2.161   3.375   7.851  0.1024  0.0339 -0.6149
  118OSM   H17S12409   2.156   3.442   7.762 -1.4822  0.5209 -0.1893
  118OSM   H17T12410   2.262   3.370   7.896  0.0119  0.9753 -0.2971
  118OSM   C18S12411   2.068   3.411   7.965 -0.7599 -0.7772  0.4690
  118OSM   H18S12412   2.122   3.477   8.036 -0.3653  0.9666 -1.3498
  118OSM   H18T12413   2.023   3.323   8.016 -2.9709 -0.9757 -1.6309
  118OSM   H18U12414   1.985   3.475   7.928  0.9046  2.1721  1.5307
  118OSM    C1F12415   1.776   3.078   6.700  0.1004  0.4543 -0.4937
  118OSM     OF12416   1.703   2.992   6.658  0.0420  0.1627 -0.1253
  118OSM    C2F12417   1.776   3.123   6.842 -0.1049 -0.1336 -0.1841
  118OSM    H2F12418   1.791   3.233   6.839 -0.3435 -0.0877 -3.6423
  118OSM    H2G12419   1.867   3.096   6.900  0.3361  2.6344  0.5491
  118OSM    C3F12420   1.647   3.087   6.917 -0.9019  0.0469  0.2830
  118OSM    H3F12421   1.630   2.978   6.900 -2.0819 -0.0249  1.7956
  118OSM    H3G12422   1.562   3.139   6.868 -2.3882 -1.4595  1.1523
  118OSM    C4F12423   1.651   3.125   7.063  0.6817  0.1600 -0.3043
  118OSM    H4F12424   1.555   3.088   7.105  1.7838 -0.7074  1.6135
  118OSM    H4G12425   1.653   3.235   7.077  2.1399  0.1603 -0.3528
  118OSM    C5F12426   1.772   3.066   7.140  0.6456  0.4572  0.7920
  118OSM    H5F12427   1.868   3.119   7.119  0.0581  0.7305 -1.4773
  118OSM    H5G12428   1.793   2.963   7.105 -0.8533  0.0335  1.0893
  118OSM    C6F12429   1.747   3.083   7.286 -0.6052 -0.0188  0.6135
  118OSM    H6F12430   1.643   3.048   7.303 -0.1520 -0.3511  3.0666
  118OSM    H6G12431   1.743   3.191   7.310  0.2050  0.1399  0.0879
  118OSM    C7F12432   1.838   2.988   7.366  0.6358 -0.2686 -1.2255
  118OSM    H7F12433   1.813   2.996   7.474  1.0630 -0.3576 -1.1158
  118OSM    H7G12434   1.945   3.016   7.354  1.0408 -1.4812 -0.6159
  118OSM    C8F12435   1.812   2.839   7.344  0.2234 -0.1647  0.5584
  118OSM    H8F12436   1.816   2.809   7.237 -2.3056 -1.2286  0.6924
  118OSM    H8G12437   1.714   2.803   7.382  0.2729 -1.9097 -0.7937
  118OSM    C9F12438   1.913   2.761   7.420 -0.0991  0.4376  0.1981
  118OSM    H9F12439   1.998   2.723   7.360 -0.3362 -0.7521  0.5932
  118OSM   C10F12440   1.898   2.733   7.550  0.0549  0.2591 -0.1501
  118OSM   H10F12441   1.977   2.674   7.599  0.8590  0.9593 -0.6086
  118OSM   C11F12442   1.779   2.778   7.633  0.6625 -0.0516 -0.5639
  118OSM   H11F12443   1.740   2.682   7.672 -1.4340  0.6766 -0.7758
  118OSM   H11G12444   1.696   2.829   7.581  0.5891  1.9740  1.4005
  118OSM   C12F12445   1.828   2.860   7.757 -0.0590 -0.3411 -0.7327
  118OSM   H12F12446   1.881   2.947   7.712  2.0766 -0.7145  0.8659
  118OSM   H12G12447   1.890   2.799   7.826 -2.9537 -0.5896  1.8288
  118OSM   C13F12448   1.698   2.913   7.825 -0.2424 -0.0269  0.2249
  118OSM   H13F12449   1.643   2.980   7.754  1.1262  0.9473  0.0480
  118OSM   H13G12450   1.725   2.981   7.909  1.3965  0.2250 -0.4684
  118OSM   C14F12451   1.604   2.805   7.885  0.3983 -0.2435  0.6923
  118OSM   H14F12452   1.562   2.740   7.805  0.3012 -0.1002  0.6253
  118OSM   H14G12453   1.521   2.848   7.945 -0.5296 -1.0961  0.0485
  118OSM   C15F12454   1.674   2.705   7.980 -0.6798 -0.2369  0.9539
  118OSM   H15F12455   1.748   2.760   8.043  1.7080 -0.2402 -1.6324
  118OSM   H15G12456   1.744   2.647   7.916  1.1229  1.9319  0.8177
  118OSM   C16F12457   1.576   2.616   8.053 -0.4375  0.3135 -0.3417
  118OSM   H16F12458   1.504   2.564   7.986 -0.4649 -0.6891  0.4382
  118OSM   H16G12459   1.521   2.683   8.123 -0.1747  0.9162 -0.7003
  118OSM   C17F12460   1.649   2.514   8.147  0.2002  0.9969  0.3784
  118OSM   H17F12461   1.712   2.571   8.220  0.8432  1.6596 -0.6645
  118OSM   H17G12462   1.713   2.446   8.087  0.0506  1.9152 -0.8618
  118OSM   C18F12463   1.554   2.445   8.238  0.3024  0.4359 -0.2954
  118OSM   H18F12464   1.488   2.382   8.174 -0.1929  0.3484  0.3040
  118OSM   H18G12465   1.484   2.509   8.296  2.7462  1.6691  1.4663
  118OSM   H18H12466   1.597   2.369   8.306 -0.6675  1.2822  1.3295
  119OSM      N12467   3.409   0.573   6.079  0.8173 -0.0889  0.1401
  119OSM    C1512468   3.397   0.713   6.031 -0.3438 -0.3652  0.1038
  119OSM   H15A12469   3.383   0.775   6.118 -2.5273 -0.5703 -0.0514
  119OSM   H15B12470   3.311   0.717   5.966 -0.0888 -1.1234 -0.2954
  119OSM   H15C12471   3.491   0.730   5.979  1.2310 -0.9935  2.5799
  119OSM    C1412472   3.535   0.556   6.163  1.0099 -0.7343  0.6235
  119OSM   H14A12473   3.622   0.595   6.112  1.0308  0.8385  1.7717
  119OSM   H14B12474   3.561   0.453   6.181  1.5234 -0.5486  0.9883
  119OSM   H14C12475   3.522   0.603   6.259  0.3250 -0.4048  0.3703
  119OSM    C1312476   3.287   0.550   6.169 -0.8206 -0.3623  0.0140
  119OSM   H13A12477   3.277   0.447   6.200 -0.3565 -0.0466  1.2455
  119OSM   H13B12478   3.196   0.573   6.115  0.1036  2.2581 -0.5468
  119OSM   H13C12479   3.288   0.618   6.253 -3.5810 -1.3846  0.9874
  119OSM    C1212480   3.411   0.483   5.955 -0.0498 -0.6966 -0.0975
  119OSM   H12A12481   3.502   0.512   5.904 -0.2684  1.6782  0.7462
  119OSM   H12B12482   3.331   0.514   5.891 -0.3392  2.3836  1.5991
  119OSM    C1112483   3.403   0.340   5.993  0.2191  0.4864 -0.2390
  119OSM   H11A12484   3.312   0.320   6.052  0.8340  1.0537  0.9323
  119OSM   H11B12485   3.485   0.315   6.064 -0.3574  2.1999  1.1221
  119OSM      P12486   3.444   0.111   5.878  0.3607  0.0635  0.2323
  119OSM    O1312487   3.354   0.032   5.791  0.1690  0.1760  0.5988
  119OSM    O1412488   3.587   0.105   5.852 -0.1536  0.0643  0.7932
  119OSM    O1112489   3.415   0.051   6.021 -0.4014 -0.4577 -0.1533
  119OSM    O1212490   3.392   0.257   5.880 -0.0793  0.5174  0.4895
  119OSM    C1S12491   3.513   0.047   6.127 -0.6451  0.2339 -0.5287
  119OSM    H1S12492   3.570   0.142   6.135 -0.3361 -0.1075  1.6823
  119OSM    H1T12493   3.590  -0.033   6.122  2.3308  2.8859 -0.4600
  119OSM     NF12494   3.522   0.073   6.378 -0.5052 -0.0019 -0.3238
  119OSM    HNF12495   3.550  -0.005   6.433  1.1012  1.3340  0.8581
  119OSM    C2S12496   3.430   0.051   6.263 -0.0367  0.1656 -0.2661
  119OSM    H2S12497   3.363   0.139   6.252 -0.5732 -0.2686 -0.5180
  119OSM    C3S12498   3.336  -0.074   6.288 -0.3443  0.6188  0.5820
  119OSM    H3S12499   3.394  -0.168   6.300  1.3093  1.6423  0.9089
  119OSM     O312500   3.254  -0.110   6.174  0.0294  0.0307 -0.1805
  119OSM    HO312501   3.263  -0.036   6.113  2.0280  0.2396  0.2987
  119OSM    C4S12502   3.252  -0.045   6.406 -0.5600 -0.2444 -0.9168
  119OSM    H4S12503   3.203   0.053   6.399 -1.4655 -0.6484 -0.4302
  119OSM    C5S12504   3.227  -0.116   6.517 -0.2918 -0.1903  0.1719
  119OSM    H5S12505   3.274  -0.214   6.531 -1.2760 -0.8462 -0.8669
  119OSM    C6S12506   3.140  -0.063   6.638  0.1331  0.3848  0.0824
  119OSM    H6S12507   3.123  -0.139   6.718  0.2215  1.5749  1.2813
  119OSM    H6T12508   3.038  -0.040   6.600 -1.2647 -1.2975  2.5064
  119OSM    C7S12509   3.201   0.060   6.694 -0.3769  0.5011  0.0874
  119OSM    H7S12510   3.209   0.135   6.613 -2.7306 -0.5471 -1.2035
  119OSM    H7T12511   3.299   0.029   6.737  0.2956  0.9703 -1.0425
  119OSM    C8S12512   3.109   0.118   6.803  0.3736  0.7777 -0.3825
  119OSM    H8S12513   3.007   0.108   6.759  1.4758  1.3500 -3.3459
  119OSM    H8T12514   3.139   0.225   6.810 -1.3386  1.2168  1.1122
  119OSM    C9S12515   3.107   0.052   6.946 -0.0520  0.1977  0.7691
  119OSM    H9S12516   3.204   0.004   6.970 -0.3417  0.3751  2.3699
  119OSM    H9T12517   3.031  -0.029   6.954 -0.5616  0.6999  1.0448
  119OSM   C10S12518   3.075   0.157   7.054  0.0845  0.0369 -0.4903
  119OSM   H10S12519   2.973   0.196   7.034 -0.2340  0.1753  1.2256
  119OSM   H10T12520   3.149   0.236   7.031  3.3479 -2.4581  0.6436
  119OSM   C11S12521   3.086   0.113   7.199  1.1947 -0.5323 -1.0565
  119OSM   H11S12522   3.189   0.074   7.212  1.0905 -0.6149 -0.4350
  119OSM   H11T12523   3.008   0.034   7.207  1.7620 -0.9733  0.6117
  119OSM   C12S12524   3.059   0.221   7.303 -0.0214 -0.3076 -0.2054
  119OSM   H12S12525   2.955   0.261   7.298 -0.6251 -1.8394 -0.4520
  119OSM   H12T12526   3.122   0.308   7.276 -0.5539  0.4923  1.0593
  119OSM   C13S12527   3.108   0.166   7.441 -0.0874 -0.8096 -0.2665
  119OSM   H13S12528   3.210   0.123   7.445 -0.4399 -1.5803  1.6485
  119OSM   H13T12529   3.034   0.089   7.474 -0.3183 -0.4682  0.0245
  119OSM   C14S12530   3.097   0.275   7.549 -0.0650 -0.7994  0.3770
  119OSM   H14S12531   2.988   0.297   7.542  0.1536  0.7139  1.3262
  119OSM   H14T12532   3.150   0.363   7.508  0.4713 -1.7951 -1.1411
  119OSM   C15S12533   3.139   0.239   7.692  0.1497  0.6783  0.3993
  119OSM   H15S12534   3.246   0.207   7.689  0.0140  0.2296  0.2000
  119OSM   H15T12535   3.083   0.145   7.708 -0.9810  1.3703  0.6169
  119OSM   C16S12536   3.110   0.352   7.790 -0.2060 -0.1472 -0.2960
  119OSM   H16S12537   3.009   0.396   7.776 -1.3920 -1.8774  2.0340
  119OSM   H16T12538   3.182   0.431   7.759 -3.4106  2.6742 -1.1113
  119OSM   C17S12539   3.128   0.318   7.944 -0.5213 -0.5163 -0.5138
  119OSM   H17S12540   3.051   0.248   7.981 -0.1321  0.2675  1.9229
  119OSM   H17T12541   3.104   0.410   8.001  0.4694 -0.0609 -0.7944
  119OSM   C18S12542   3.258   0.251   7.994 -0.2176 -0.4507  0.4311
  119OSM   H18S12543   3.264   0.258   8.105  0.3710  0.7766  0.3437
  119OSM   H18T12544   3.348   0.307   7.962 -1.1532  0.3168 -0.9707
  119OSM   H18U12545   3.274   0.155   7.941  0.5846  0.3152 -0.7474
  119OSM    C1F12546   3.593   0.186   6.396  0.0238  0.0662  0.2566
  119OSM     OF12547   3.577   0.289   6.326 -0.2414  0.1282 -0.0025
  119OSM    C2F12548   3.707   0.165   6.495 -0.1508 -0.1452 -0.8955
  119OSM    H2F12549   3.803   0.186   6.444  1.0334 -0.4803  1.0823
  119OSM    H2G12550   3.719   0.061   6.531  0.1872  0.6841  1.6728
  119OSM    C3F12551   3.689   0.279   6.605 -0.6162  0.1676 -0.3200
  119OSM    H3F12552   3.674   0.381   6.564  1.6756  0.3928 -0.7264
  119OSM    H3G12553   3.783   0.281   6.664  0.0906  1.3867 -1.4237
  119OSM    C4F12554   3.577   0.246   6.705  0.1835  0.5901  0.1736
  119OSM    H4F12555   3.556   0.137   6.716 -1.2877  0.9253  0.7467
  119OSM    H4G12556   3.482   0.292   6.671  0.1073 -1.6072 -3.0370
  119OSM    C5F12557   3.607   0.300   6.848  0.4373  0.3408 -0.3872
  119OSM    H5F12558   3.622   0.410   6.841  0.0425  0.2916 -2.5841
  119OSM    H5G12559   3.700   0.253   6.885 -0.9694 -0.6683  2.1236
  119OSM    C6F12560   3.499   0.269   6.965  0.1154 -0.0310  0.2694
  119OSM    H6F12561   3.492   0.161   6.988 -2.0704  0.4501  2.3405
  119OSM    H6G12562   3.405   0.303   6.915  0.6369  0.7295 -0.2134
  119OSM    C7F12563   3.532   0.358   7.088 -0.4085 -0.1291 -0.9239
  119OSM    H7F12564   3.440   0.362   7.151 -0.7943 -2.5079 -1.2383
  119OSM    H7G12565   3.554   0.460   7.052  2.8819  0.2230  1.6678
  119OSM    C8F12566   3.651   0.312   7.159 -0.1867 -0.4465  0.1619
  119OSM    H8F12567   3.690   0.384   7.234  0.5309  0.4210 -1.0023
  119OSM    H8G12568   3.739   0.301   7.091  1.0007  2.1996  1.1284
  119OSM    C9F12569   3.616   0.191   7.241  0.4372  0.2541  0.1286
  119OSM    H9F12570   3.575   0.103   7.191  1.9041 -0.5632  0.3119
  119OSM   C10F12571   3.622   0.174   7.369 -0.4627 -0.1327 -0.4773
  119OSM   H10F12572   3.605   0.080   7.423  1.2150  1.3084  2.8547
  119OSM   C11F12573   3.685   0.281   7.460  0.1366  0.3622 -0.1115
  119OSM   H11F12574   3.645   0.380   7.429 -0.9097 -0.4340 -1.4336
  119OSM   H11G12575   3.795   0.270   7.447 -0.0278 -0.9235 -0.5936
  119OSM   C12F12576   3.650   0.262   7.610  0.1276  0.5060 -1.0967
  119OSM   H12F12577   3.691   0.171   7.658  0.0980  2.3606  2.7933
  119OSM   H12G12578   3.541   0.261   7.630  0.4374  0.8448  0.7767
  119OSM   C13F12579   3.706   0.371   7.697  0.1912  0.2026  0.1070
  119OSM   H13F12580   3.681   0.467   7.647 -1.8811 -0.6858 -0.6616
  119OSM   H13G12581   3.816   0.381   7.683  0.2266  1.9383  1.3192
  119OSM   C14F12582   3.648   0.380   7.834 -0.6468  0.6096  0.7417
  119OSM   H14F12583   3.537   0.375   7.837 -0.5923 -1.6975  1.1082
  119OSM   H14G12584   3.686   0.479   7.868 -1.2367  0.0388  3.2541
  119OSM   C15F12585   3.704   0.277   7.927  0.0069  0.2110  0.4179
  119OSM   H15F12586   3.808   0.258   7.893 -0.9877  0.2286 -3.0451
  119OSM   H15G12587   3.648   0.183   7.908 -1.5297  1.2053 -0.2463
  119OSM   C16F12588   3.699   0.321   8.072  0.0791  0.1899 -1.2321
  119OSM   H16F12589   3.595   0.324   8.111 -0.2130 -0.1827 -1.9661
  119OSM   H16G12590   3.753   0.418   8.081 -1.4494  1.1288 -1.6665
  119OSM   C17F12591   3.772   0.222   8.169 -0.1504 -0.8717 -1.1782
  119OSM   H17F12592   3.875   0.202   8.131  0.6118 -0.4063  0.5160
  119OSM   H17G12593   3.710   0.130   8.172 -0.0030 -0.9503  0.6484
  119OSM   C18F12594   3.782   0.282   8.316 -0.4028  0.0927 -0.2086
  119OSM   H18F12595   3.817   0.387   8.310 -2.0618  0.6120 -1.7464
  119OSM   H18G12596   3.854   0.225   8.379 -1.7337 -2.4296 -0.8207
  119OSM   H18H12597   3.684   0.296   8.366  0.0367  2.4530  0.1085
  120OSM      N12598   0.186   6.721   6.563 -0.6366 -0.0785  0.3315
  120OSM    C1512599   0.281   6.800   6.474 -0.2797 -0.5310 -0.9334
  120OSM   H15A12600   0.376   6.780   6.522 -0.5793  0.1967 -0.0197
  120OSM   H15B12601   0.254   6.904   6.468  1.1014 -0.1074 -0.2952
  120OSM   H15C12602   0.290   6.766   6.371  0.3188 -3.1639 -0.0872
  120OSM    C1412603   0.191   6.766   6.708 -0.5493 -0.6311  0.6222
  120OSM   H14A12604   0.131   6.710   6.778 -0.2270 -1.0906  0.5296
  120OSM   H14B12605   0.164   6.871   6.712 -0.6135 -0.5274 -1.5723
  120OSM   H14C12606   0.295   6.768   6.736 -0.2556 -1.2022 -0.3947
  120OSM    C1312607   0.052   6.737   6.521 -1.2163  0.0555  0.1298
  120OSM   H13A12608   0.034   6.690   6.426 -3.3590 -0.1978  0.6150
  120OSM   H13B12609   0.026   6.841   6.526  0.3617  0.4861 -0.2074
  120OSM   H13C12610  -0.021   6.688   6.584 -1.5993  0.4944  0.0294
  120OSM    C1212611   0.227   6.577   6.549  0.7000 -0.0816  0.1047
  120OSM   H12A12612   0.223   6.551   6.445  1.9390 -1.3343  0.3454
  120OSM   H12B12613   0.149   6.519   6.595  0.7092  0.5994  1.0318
  120OSM    C1112614   0.369   6.534   6.604 -0.9076  0.7846  0.2633
  120OSM   H11A12615   0.382   6.425   6.587  2.4687  1.3565 -1.6521
  120OSM   H11B12616   0.385   6.562   6.710  0.1326  2.2057 -0.2493
  120OSM      P12617   0.523   6.537   6.394 -0.2187  0.4043 -0.1029
  120OSM    O1312618   0.407   6.477   6.321 -0.0668  0.1166 -0.1578
  120OSM    O1412619   0.599   6.644   6.322 -0.2112 -0.4284  0.6168
  120OSM    O1112620   0.631   6.428   6.435  0.3743  0.6163 -0.4390
  120OSM    O1212621   0.474   6.604   6.533  0.0813 -0.2298 -0.4441
  120OSM    C1S12622   0.750   6.450   6.499  0.1315 -0.0165  0.9030
  120OSM    H1S12623   0.780   6.556   6.481  0.2188 -0.0324  0.9528
  120OSM    H1T12624   0.833   6.383   6.468 -0.9449 -2.5057  3.0429
  120OSM     NF12625   0.854   6.486   6.729 -0.0670  0.4468  0.7139
  120OSM    HNF12626   0.928   6.420   6.738  1.0406  1.7693  1.8993
  120OSM    C2S12627   0.739   6.435   6.653 -0.3605  0.0849 -0.0177
  120OSM    H2S12628   0.656   6.502   6.684 -0.3775  0.1029 -0.1024
  120OSM    C3S12629   0.704   6.286   6.687  0.2367 -0.0402  0.0964
  120OSM    H3S12630   0.795   6.224   6.673  0.6656  1.0834 -2.8313
  120OSM     O312631   0.612   6.218   6.594 -0.6445 -0.2821  0.1768
  120OSM    HO312632   0.599   6.276   6.519  0.9548 -0.5685 -0.3566
  120OSM    C4S12633   0.658   6.276   6.829 -0.8017  0.2056  0.2984
  120OSM    H4S12634   0.552   6.295   6.851 -0.9798 -1.2551  0.8218
  120OSM    C5S12635   0.737   6.245   6.930  0.3618  0.3085  0.0842
  120OSM    H5S12636   0.844   6.224   6.918  0.3425 -0.0888  0.6070
  120OSM    C6S12637   0.700   6.231   7.072 -0.3333  0.7004 -0.8225
  120OSM    H6S12638   0.721   6.128   7.107 -1.6337  0.6366 -0.1488
  120OSM    H6T12639   0.593   6.237   7.102  0.2119 -1.2377  2.0041
  120OSM    C7S12640   0.782   6.326   7.163 -0.0952 -0.0945  0.0791
  120OSM    H7S12641   0.739   6.428   7.151  2.2656  0.7100 -2.7894
  120OSM    H7T12642   0.888   6.320   7.129 -0.1215  2.8250 -0.8239
  120OSM    C8S12643   0.774   6.299   7.318 -0.4677 -0.7811  0.3538
  120OSM    H8S12644   0.823   6.379   7.378 -1.2259 -2.2845  3.1251
  120OSM    H8T12645   0.824   6.202   7.338  1.2866 -0.7204 -2.9680
  120OSM    C9S12646   0.630   6.303   7.365  0.2745  0.6878 -0.6926
  120OSM    H9S12647   0.573   6.236   7.297  1.1257 -0.7328 -0.0471
  120OSM    H9T12648   0.588   6.406   7.360  1.2464  1.1511  0.2168
  120OSM   C10S12649   0.614   6.227   7.497 -0.2643  0.0238  0.4636
  120OSM   H10S12650   0.698   6.155   7.504 -0.5659 -0.2329  1.7133
  120OSM   H10T12651   0.514   6.178   7.503 -0.3782  0.2549  0.4475
  120OSM   C11S12652   0.625   6.322   7.618 -0.1947  0.5960 -0.4099
  120OSM   H11S12653   0.551   6.405   7.609 -1.1438 -0.2271 -0.3516
  120OSM   H11T12654   0.726   6.368   7.621  0.0292  0.0734  1.1810
  120OSM   C12S12655   0.591   6.245   7.743 -0.0969 -0.4179  0.0784
  120OSM   H12S12656   0.674   6.171   7.751 -0.1112 -0.6782 -1.7620
  120OSM   H12T12657   0.493   6.201   7.718 -0.4959 -0.7541  2.1053
  120OSM   C13S12658   0.578   6.349   7.860 -0.1787  0.2657  0.2098
  120OSM   H13S12659   0.517   6.437   7.832 -0.8787 -1.0681 -2.9882
  120OSM   H13T12660   0.678   6.394   7.880 -0.1470  0.0246  0.6016
  120OSM   C14S12661   0.549   6.287   8.002  0.0747  0.1419  1.0167
  120OSM   H14S12662   0.600   6.188   8.003 -2.0835 -1.0313  1.0484
  120OSM   H14T12663   0.443   6.254   8.000  0.2696 -0.4778  0.2378
  120OSM   C15S12664   0.595   6.379   8.110 -0.1960  0.6441 -0.0715
  120OSM   H15S12665   0.554   6.482   8.099 -0.4385  0.8280  2.0773
  120OSM   H15T12666   0.706   6.387   8.101  0.0119 -1.0797  0.5645
  120OSM   C16S12667   0.568   6.329   8.257  0.8205  0.3578  0.8855
  120OSM   H16S12668   0.624   6.392   8.328  0.0985  0.2933  1.5205
  120OSM   H16T12669   0.600   6.223   8.259  0.6222  0.2410 -0.7509
  120OSM   C17S12670   0.419   6.330   8.296 -0.7963 -0.4952 -0.4790
  120OSM   H17S12671   0.412   6.269   8.389 -1.2542  0.4292  0.1071
  120OSM   H17T12672   0.357   6.281   8.219 -2.2747 -1.1254  1.0466
  120OSM   C18S12673   0.386   6.471   8.318  0.0412 -0.2567  0.5357
  120OSM   H18S12674   0.448   6.507   8.403 -0.2124  2.2028 -0.2406
  120OSM   H18T12675   0.277   6.476   8.338 -0.8431  1.5724 -3.5716
  120OSM   H18U12676   0.409   6.538   8.232  2.9476 -1.3016  0.3885
  120OSM    C1F12677   0.877   6.614   6.740 -0.3132 -0.5293  0.5327
  120OSM     OF12678   0.791   6.692   6.701  0.3705  0.9091  0.3250
  120OSM    C2F12679   1.004   6.671   6.789  0.6645 -0.0640 -0.2345
  120OSM    H2F12680   0.992   6.768   6.842  1.4570 -0.5082  0.7835
  120OSM    H2G12681   1.066   6.703   6.703  0.7802  0.0313 -0.1163
  120OSM    C3F12682   1.084   6.576   6.878 -0.2144  0.1824  0.5320
  120OSM    H3F12683   1.187   6.615   6.887  0.3177  0.3890 -4.1105
  120OSM    H3G12684   1.101   6.474   6.836 -1.2568 -0.1161  0.7972
  120OSM    C4F12685   1.020   6.567   7.020  0.1627  0.3767  0.6319
  120OSM    H4F12686   0.935   6.496   7.026  0.2453  0.2453  0.2763
  120OSM    H4G12687   0.984   6.665   7.056 -1.1181  0.4777 -0.8139
  120OSM    C5F12688   1.120   6.515   7.122 -0.1125 -0.0101  0.6261
  120OSM    H5F12689   1.217   6.564   7.104 -0.5755  0.5725 -0.3433
  120OSM    H5G12690   1.144   6.407   7.111  3.6854  0.9339 -2.2362
  120OSM    C6F12691   1.087   6.554   7.269 -0.5957 -0.4169  0.8501
  120OSM    H6F12692   0.983   6.523   7.295 -0.8882 -0.6937 -0.5612
  120OSM    H6G12693   1.083   6.664   7.279  2.1038  0.0217 -1.6366
  120OSM    C7F12694   1.173   6.486   7.372  0.4558  0.6526 -1.0409
  120OSM    H7F12695   1.282   6.495   7.358  0.9886 -0.8281  1.4598
  120OSM    H7G12696   1.148   6.378   7.385 -0.2005  0.9705  0.6547
  120OSM    C8F12697   1.162   6.558   7.510  0.5070 -0.2516 -0.0700
  120OSM    H8F12698   1.052   6.564   7.525  0.1023 -2.6430 -1.5709
  120OSM    H8G12699   1.200   6.662   7.501 -3.1696  1.2081 -0.5008
  120OSM    C9F12700   1.237   6.483   7.615  1.3475 -0.1109 -0.2400
  120OSM    H9F12701   1.346   6.470   7.606  1.6970  0.2951  2.6243
  120OSM   C10F12702   1.171   6.445   7.726 -0.1369 -0.5374 -0.2110
  120OSM   H10F12703   1.233   6.397   7.803 -0.6506  0.7732  1.0733
  120OSM   C11F12704   1.026   6.449   7.763 -0.1481 -0.5514  0.8654
  120OSM   H11F12705   0.962   6.479   7.677 -0.1647 -0.7542  0.8072
  120OSM   H11G12706   1.003   6.530   7.836  0.7369  0.4095  0.1087
  120OSM   C12F12707   0.965   6.309   7.800 -0.4451  0.5464  0.6185
  120OSM   H12F12708   0.991   6.233   7.722 -0.8804  1.8357 -0.8450
  120OSM   H12G12709   0.855   6.313   7.785 -0.6562 -0.0634  1.8783
  120OSM   C13F12710   0.999   6.250   7.935  0.4142  0.6117  0.0275
  120OSM   H13F12711   0.942   6.295   8.019 -2.4216 -1.5517 -0.5958
  120OSM   H13G12712   1.105   6.272   7.960  0.3245  1.3611 -0.2296
  120OSM   C14F12713   0.971   6.098   7.934 -0.0592  0.8062 -0.5858
  120OSM   H14F12714   1.049   6.057   7.866  2.0367 -0.3494  2.3017
  120OSM   H14G12715   0.869   6.080   7.894 -0.5952  0.3407  0.9322
  120OSM   C15F12716   0.996   6.030   8.069  0.1991 -0.6128 -0.5909
  120OSM   H15F12717   1.084   6.079   8.115 -0.3805  1.3380 -1.4412
  120OSM   H15G12718   1.017   5.924   8.044  3.7518 -0.4528  1.1767
  120OSM   C16F12719   0.881   6.050   8.172 -0.0833  0.5418  0.0607
  120OSM   H16F12720   0.791   6.001   8.130  0.5615 -3.4109  2.7064
  120OSM   H16G12721   0.850   6.156   8.183 -1.9737  0.1672 -1.2850
  120OSM   C17F12722   0.909   5.985   8.308 -1.1742  0.1832 -0.1473
  120OSM   H17F12723   0.999   6.025   8.359 -1.6690 -0.6071  1.4109
  120OSM   H17G12724   0.938   5.883   8.276 -2.7850  0.0924 -1.5136
  120OSM   C18F12725   0.785   5.997   8.405 -0.7827  0.0454  0.5111
  120OSM   H18F12726   0.699   5.943   8.359 -2.1435  1.3862  1.4079
  120OSM   H18G12727   0.767   6.105   8.419 -0.8704 -0.0573  1.2391
  120OSM   H18H12728   0.808   5.953   8.504  1.1956  0.2988  0.1986
  121OSM      N12729   1.580   1.712   5.966 -0.4077 -0.4649  0.1645
  121OSM    C1512730   1.546   1.789   5.844  0.2144 -0.4872 -0.1338
  121OSM   H15A12731   1.579   1.888   5.871 -0.2468 -0.7896  1.6757
  121OSM   H15B12732   1.441   1.780   5.817 -0.0679  1.2350  0.2499
  121OSM   H15C12733   1.604   1.747   5.764  0.3062 -2.8142  1.0765
  121OSM    C1412734   1.521   1.782   6.083  1.1837  0.3967  0.2430
  121OSM   H14A12735   1.564   1.880   6.099  2.4706 -0.0558 -0.2759
  121OSM   H14B12736   1.528   1.719   6.171 -1.9303 -0.5185 -0.0344
  121OSM   H14C12737   1.416   1.804   6.070  1.1791  1.3592  1.6825
  121OSM    C1312738   1.526   1.576   5.958 -0.0391 -0.5417 -0.5576
  121OSM   H13A12739   1.421   1.569   5.937 -0.6660  1.1511  1.6079
  121OSM   H13B12740   1.546   1.527   6.052  0.2880  1.6533  0.5839
  121OSM   H13C12741   1.575   1.528   5.875 -1.9851 -2.5843 -0.5983
  121OSM    C1212742   1.731   1.714   5.980 -0.8510  0.4525 -0.0979
  121OSM   H12A12743   1.768   1.816   5.977 -0.0993  0.2162  0.6954
  121OSM   H12B12744   1.770   1.658   5.896 -0.3889  0.4387  0.1250
  121OSM    C1112745   1.800   1.638   6.094  0.4033 -0.4902  0.2072
  121OSM   H11A12746   1.747   1.668   6.187 -0.0334 -1.2995  0.2226
  121OSM   H11B12747   1.905   1.673   6.105 -0.2115  1.5297  0.1615
  121OSM      P12748   1.900   1.398   6.057 -0.0867 -0.3562  0.0580
  121OSM    O1312749   1.841   1.264   6.062  0.0040  0.4077 -0.0089
  121OSM    O1412750   1.995   1.435   5.944  0.0475  0.4467  0.5143
  121OSM    O1112751   1.987   1.409   6.190 -0.2136 -0.4893 -0.1306
  121OSM    O1212752   1.785   1.500   6.074 -0.2053  0.5013  0.4107
  121OSM    C1S12753   1.921   1.409   6.318  0.4259 -0.1304  0.1267
  121OSM    H1S12754   1.907   1.301   6.341  2.1162 -0.3119  0.4280
  121OSM    H1T12755   1.814   1.441   6.310 -0.6544 -3.5502 -0.8376
  121OSM     NF12756   1.919   1.451   6.564 -0.6667  0.5713 -0.3136
  121OSM    HNF12757   1.867   1.530   6.595 -1.2797  0.6808 -1.5749
  121OSM    C2S12758   1.996   1.473   6.446 -0.3848 -0.0803 -0.0960
  121OSM    H2S12759   2.100   1.435   6.443  0.2208  1.5374 -0.6184
  121OSM    C3S12760   2.012   1.630   6.407 -0.2560 -0.0483  0.4632
  121OSM    H3S12761   1.914   1.679   6.392 -0.0202  1.2048  2.6109
  121OSM     O312762   2.095   1.654   6.287  0.4282  0.2526  0.4348
  121OSM    HO312763   2.128   1.567   6.263 -0.9833 -0.1932  0.0405
  121OSM    C4S12764   2.080   1.699   6.517  0.4120  0.7237  0.0192
  121OSM    H4S12765   2.178   1.654   6.536  1.0635  2.0012 -0.1984
  121OSM    C5S12766   2.026   1.799   6.597 -0.3311 -0.6619  0.5804
  121OSM    H5S12767   1.921   1.829   6.579  0.3214  0.5477 -1.6721
  121OSM    C6S12768   2.097   1.876   6.713 -0.0285  0.3297  0.0312
  121OSM    H6S12769   2.057   1.978   6.731  0.5900  0.4253  0.9358
  121OSM    H6T12770   2.205   1.882   6.686  0.4223 -2.3441  0.9483
  121OSM    C7S12771   2.090   1.786   6.832  0.7052  0.2101  0.5781
  121OSM    H7S12772   2.131   1.687   6.803 -1.3663  0.4032 -3.8777
  121OSM    H7T12773   1.990   1.766   6.875  0.8009 -0.1808  0.6194
  121OSM    C8S12774   2.174   1.846   6.949  0.5156 -0.8492  0.4627
  121OSM    H8S12775   2.151   1.954   6.958  1.1906 -0.6496 -0.0581
  121OSM    H8T12776   2.285   1.842   6.936  0.6377  0.7370  0.7828
  121OSM    C9S12777   2.144   1.765   7.075 -0.2408 -0.2407  0.2032
  121OSM    H9S12778   2.164   1.657   7.057 -1.4144 -0.9147  2.4657
  121OSM    H9T12779   2.035   1.783   7.083 -0.3868 -0.8440 -0.3691
  121OSM   C10S12780   2.203   1.827   7.199  0.1172  0.0516 -0.5301
  121OSM   H10S12781   2.174   1.933   7.210  0.0405 -0.0689  0.5630
  121OSM   H10T12782   2.312   1.821   7.183  0.5500  1.7467  1.4624
  121OSM   C11S12783   2.159   1.761   7.325  0.2816  0.3705  0.3840
  121OSM   H11S12784   2.209   1.661   7.324 -1.2519 -0.4130 -0.0373
  121OSM   H11T12785   2.051   1.740   7.339  0.2034  1.7115  2.0937
  121OSM   C12S12786   2.198   1.841   7.450  0.0975 -0.2666 -0.2259
  121OSM   H12S12787   2.136   1.934   7.450 -0.0043 -0.3334  0.3778
  121OSM   H12T12788   2.305   1.870   7.443 -0.5703  2.0706 -4.5035
  121OSM   C13S12789   2.186   1.771   7.584 -0.0168  0.4276  0.3633
  121OSM   H13S12790   2.240   1.675   7.567  0.1565  0.6191 -0.2070
  121OSM   H13T12791   2.078   1.750   7.592 -0.2058  1.3627  0.3549
  121OSM   C14S12792   2.253   1.850   7.694  0.0112 -0.0975  0.2170
  121OSM   H14S12793   2.206   1.951   7.694 -0.5892 -0.3334 -1.3236
  121OSM   H14T12794   2.359   1.865   7.663  0.4926  0.1379  1.9194
  121OSM   C15S12795   2.234   1.792   7.829  0.2843 -0.3545  0.1353
  121OSM   H15S12796   2.306   1.709   7.845  1.5420  0.4374 -1.1522
  121OSM   H15T12797   2.126   1.768   7.828  0.3146 -0.4844 -0.8248
  121OSM   C16S12798   2.250   1.893   7.948 -0.9800 -0.4278 -0.1045
  121OSM   H16S12799   2.217   1.849   8.044  2.4659 -0.7517  1.0645
  121OSM   H16T12800   2.186   1.983   7.935  0.1322  0.2604 -1.0407
  121OSM   C17S12801   2.391   1.957   7.986 -0.4799 -0.9140  1.2118
  121OSM   H17S12802   2.382   2.011   8.082 -2.8709  2.1007 -0.5288
  121OSM   H17T12803   2.423   2.031   7.910  0.8111 -2.4162  0.2284
  121OSM   C18S12804   2.509   1.859   7.998  0.2456  0.0529  0.2592
  121OSM   H18S12805   2.594   1.899   8.056  0.1228  0.2650  0.2943
  121OSM   H18T12806   2.534   1.808   7.902  0.8924  1.8469 -0.5515
  121OSM   H18U12807   2.474   1.785   8.073  1.6171 -0.6849  0.1920
  121OSM    C1F12808   1.920   1.323   6.615  0.5732  0.4460 -0.4177
  121OSM     OF12809   1.971   1.229   6.561 -0.4252  0.0688 -0.5771
  121OSM    C2F12810   1.839   1.296   6.741 -0.7893  0.3914  0.3314
  121OSM    H2F12811   1.855   1.188   6.759  2.6095  0.6205 -0.6039
  121OSM    H2G12812   1.732   1.316   6.717 -0.6140 -0.3122 -1.1596
  121OSM    C3F12813   1.889   1.389   6.852  0.5455 -0.3662 -1.0202
  121OSM    H3F12814   1.890   1.497   6.823  3.0995 -0.4282 -1.4462
  121OSM    H3G12815   1.995   1.362   6.870  0.0947 -0.8271  1.0985
  121OSM    C4F12816   1.817   1.361   6.983 -0.1855  0.3973 -0.9122
  121OSM    H4F12817   1.814   1.256   7.019  0.3089  0.5367 -0.4399
  121OSM    H4G12818   1.714   1.399   6.965  0.0701  2.1900  1.0448
  121OSM    C5F12819   1.872   1.434   7.110 -0.0370 -0.7453 -0.7826
  121OSM    H5F12820   1.856   1.542   7.093 -0.5802 -0.8866 -1.1986
  121OSM    H5G12821   1.982   1.419   7.103  0.1432 -0.1396  0.4988
  121OSM    C6F12822   1.821   1.400   7.251  0.6970 -0.4644 -0.2529
  121OSM    H6F12823   1.715   1.434   7.248  1.7221  3.0940 -2.6873
  121OSM    H6G12824   1.871   1.470   7.321  0.8645  0.8250 -1.6231
  121OSM    C7F12825   1.834   1.249   7.294 -0.1683 -0.2244 -0.0926
  121OSM    H7F12826   1.941   1.221   7.309 -0.1861 -1.0157 -1.3647
  121OSM    H7G12827   1.798   1.179   7.216  1.2963 -0.3153 -0.7265
  121OSM    C8F12828   1.754   1.220   7.429 -0.7287 -0.5895  0.0572
  121OSM    H8F12829   1.650   1.260   7.429 -0.0477  1.2750 -0.6597
  121OSM    H8G12830   1.783   1.291   7.509 -0.4523 -0.4277 -0.1857
  121OSM    C9F12831   1.761   1.076   7.472 -0.2731  0.2665 -0.2924
  121OSM    H9F12832   1.865   1.048   7.494  0.1045  1.2180 -0.8097
  121OSM   C10F12833   1.652   0.994   7.490 -0.4822  0.0568  0.7979
  121OSM   H10F12834   1.665   0.894   7.535 -1.5765  0.5629  2.3650
  121OSM   C11F12835   1.504   1.033   7.455  0.2744  0.3593  0.0661
  121OSM   H11F12836   1.450   0.945   7.414 -0.1176  0.8407 -0.4563
  121OSM   H11G12837   1.483   1.115   7.384  0.8536  0.8247  0.4165
  121OSM   C12F12838   1.423   1.090   7.570  0.4376 -0.1320 -0.3394
  121OSM   H12F12839   1.433   1.006   7.642  4.7192 -0.5547 -1.1172
  121OSM   H12G12840   1.316   1.097   7.541  0.0858  0.4794  1.0484
  121OSM   C13F12841   1.477   1.223   7.639 -0.1054 -0.6225  0.1610
  121OSM   H13F12842   1.466   1.293   7.554  1.4478 -1.1246 -0.4966
  121OSM   H13G12843   1.584   1.209   7.665 -0.3991 -1.9507  0.7824
  121OSM   C14F12844   1.388   1.251   7.762  0.0600  0.0501  0.4258
  121OSM   H14F12845   1.316   1.167   7.771  2.5637 -2.2510  0.0388
  121OSM   H14G12846   1.331   1.344   7.738 -1.7676 -1.3493 -0.9217
  121OSM   C15F12847   1.470   1.258   7.891 -1.0056  0.2380 -0.3019
  121OSM   H15F12848   1.555   1.328   7.880 -0.8632  0.0503 -0.4070
  121OSM   H15G12849   1.504   1.157   7.922 -1.2932  0.0467 -0.6012
  121OSM   C16F12850   1.396   1.307   8.024  0.0174  0.0534 -0.3539
  121OSM   H16F12851   1.309   1.239   8.037 -0.2751  0.1634 -1.5997
  121OSM   H16G12852   1.350   1.405   7.998 -1.1541  1.2184  4.8788
  121OSM   C17F12853   1.475   1.318   8.151  0.4919  0.3662  0.5454
  121OSM   H17F12854   1.527   1.222   8.171  2.3460  1.2383  0.1172
  121OSM   H17G12855   1.408   1.339   8.237  1.9690  0.0173  1.8116
  121OSM   C18F12856   1.582   1.417   8.155  0.6290  0.0324  0.8915
  121OSM   H18F12857   1.667   1.398   8.086 -0.9125 -1.1883 -0.7624
  121OSM   H18G12858   1.615   1.415   8.261 -1.3271  1.5875  1.5885
  121OSM   H18H12859   1.536   1.513   8.122 -0.3472 -0.9580 -0.7993
  122OSM      N12860   1.695   2.703   5.705  0.0473 -0.2171 -0.6003
  122OSM    C1512861   1.640   2.573   5.653 -0.1949 -0.0570 -0.2151
  122OSM   H15A12862   1.600   2.587   5.554 -0.0535 -0.5872 -0.3532
  122OSM   H15B12863   1.567   2.533   5.721 -0.0785  2.8245  1.7800
  122OSM   H15C12864   1.718   2.502   5.629  1.3314  1.1953  0.8340
  122OSM    C1412865   1.797   2.756   5.608 -0.3281  0.3682  0.3178
  122OSM   H14A12866   1.835   2.850   5.645 -2.4095  2.1273 -1.6794
  122OSM   H14B12867   1.755   2.782   5.512 -1.7672  0.1406  0.8691
  122OSM   H14C12868   1.871   2.677   5.600 -1.2930 -0.8688  2.6502
  122OSM    C1312869   1.587   2.806   5.709 -0.1437  0.7161  0.1782
  122OSM   H13A12870   1.546   2.811   5.609  3.4847 -3.2611 -1.8126
  122OSM   H13B12871   1.631   2.902   5.735  1.0996  0.6144 -1.3992
  122OSM   H13C12872   1.509   2.772   5.776 -0.4754 -0.9832 -1.0123
  122OSM    C1212873   1.757   2.684   5.837 -0.5987 -0.1544  0.0374
  122OSM   H12A12874   1.751   2.776   5.894  0.6720 -1.5527  2.6188
  122OSM   H12B12875   1.860   2.656   5.826 -0.8201 -0.7916 -0.4754
  122OSM    C1112876   1.698   2.581   5.941 -0.3160 -0.0913  0.5664
  122OSM   H11A12877   1.752   2.605   6.036 -2.0005  1.0292  1.2907
  122OSM   H11B12878   1.719   2.476   5.914 -1.0661 -0.2585  0.6157
  122OSM      P12879   1.477   2.684   6.048 -0.0531 -0.1055  0.2044
  122OSM    O1312880   1.399   2.776   5.964 -0.1834 -0.5387 -0.1368
  122OSM    O1412881   1.402   2.597   6.138  0.2603  0.4198  0.1340
  122OSM    O1112882   1.573   2.769   6.140  0.4675  0.4165  0.1726
  122OSM    O1212883   1.560   2.592   5.954  0.2877  0.1911  0.2521
  122OSM    C1S12884   1.523   2.828   6.257  0.4063  0.4419 -0.1897
  122OSM    H1S12885   1.413   2.838   6.266  0.5124 -0.3158  4.2426
  122OSM    H1T12886   1.557   2.934   6.254 -0.5272  0.7311 -0.8531
  122OSM     NF12887   1.517   2.832   6.503  0.5081  0.1682  0.2039
  122OSM    HNF12888   1.581   2.903   6.531  0.8162  0.5935 -1.4276
  122OSM    C2S12889   1.567   2.758   6.388 -0.4342 -0.4168 -0.3388
  122OSM    H2S12890   1.541   2.650   6.379  2.1577 -1.1109 -0.2451
  122OSM    C3S12891   1.720   2.749   6.390 -0.1964  0.4166  0.7043
  122OSM    H3S12892   1.761   2.853   6.388  0.5418  0.1208  0.0845
  122OSM     O312893   1.779   2.683   6.276 -0.2537 -0.2525 -0.6344
  122OSM    HO312894   1.704   2.695   6.217 -1.8553  0.3422  1.3834
  122OSM    C4S12895   1.776   2.683   6.515  0.1941 -0.3223  0.6310
  122OSM    H4S12896   1.736   2.581   6.531 -0.4330 -0.2457 -0.3842
  122OSM    C5S12897   1.874   2.736   6.589  1.0452 -0.0285 -0.3371
  122OSM    H5S12898   1.902   2.842   6.579 -1.3105  0.7321  0.5768
  122OSM    C6S12899   1.917   2.660   6.709  0.4411 -0.0697  0.4200
  122OSM    H6S12900   1.957   2.733   6.783 -2.3987 -0.5798  2.6206
  122OSM    H6T12901   2.003   2.598   6.676 -0.9646 -1.7616 -0.2256
  122OSM    C7S12902   1.810   2.564   6.778 -0.3056 -0.1660 -0.3369
  122OSM    H7S12903   1.769   2.494   6.702 -1.0988 -1.5408  1.2812
  122OSM    H7T12904   1.736   2.637   6.817 -0.3127  0.3050 -1.2043
  122OSM    C8S12905   1.876   2.489   6.889  0.1544  0.1338  0.4412
  122OSM    H8S12906   1.934   2.558   6.954 -2.5692  2.2473  0.7981
  122OSM    H8T12907   1.930   2.399   6.850  0.0215 -0.3179  1.2812
  122OSM    C9S12908   1.768   2.433   6.987  0.1548  0.5316  0.3000
  122OSM    H9S12909   1.818   2.359   7.054 -2.2981 -1.9608 -0.4540
  122OSM    H9T12910   1.698   2.381   6.918 -1.2299  0.0858  1.9524
  122OSM   C10S12911   1.691   2.538   7.072  0.3164  0.7451  0.1634
  122OSM   H10S12912   1.628   2.603   7.009 -0.9907  0.5057  1.1709
  122OSM   H10T12913   1.759   2.598   7.137  1.2422  0.3447 -0.4201
  122OSM   C11S12914   1.600   2.465   7.176  0.0554 -1.0022 -0.1649
  122OSM   H11S12915   1.549   2.398   7.103 -3.5008  1.1471  0.1232
  122OSM   H11T12916   1.534   2.539   7.226  0.5969 -0.5325 -0.1436
  122OSM   C12S12917   1.681   2.404   7.291 -0.3812 -0.1357  0.4102
  122OSM   H12S12918   1.761   2.472   7.328 -0.2579 -0.1977  0.2561
  122OSM   H12T12919   1.726   2.307   7.263 -0.2290  0.1672 -0.4009
  122OSM   C13S12920   1.597   2.377   7.420 -0.2252 -0.4547 -0.4019
  122OSM   H13S12921   1.519   2.306   7.386 -0.5901 -1.4347  2.2677
  122OSM   H13T12922   1.540   2.462   7.463 -1.3941 -0.2596 -2.2187
  122OSM   C14S12923   1.682   2.315   7.536 -0.4483  0.2136  0.4426
  122OSM   H14S12924   1.760   2.389   7.564  1.1951 -0.8054 -1.1647
  122OSM   H14T12925   1.735   2.223   7.502 -0.3096  0.3245  0.3556
  122OSM   C15S12926   1.598   2.273   7.653 -0.8852  0.3157 -0.4710
  122OSM   H15S12927   1.554   2.174   7.628  1.4648 -0.3779 -2.2374
  122OSM   H15T12928   1.514   2.342   7.675 -1.0273 -0.2497  0.8331
  122OSM   C16S12929   1.685   2.267   7.781  0.5070 -0.0308 -0.9736
  122OSM   H16S12930   1.716   2.371   7.803  0.6924 -0.6679  2.2624
  122OSM   H16T12931   1.771   2.203   7.751  1.6721  1.8985 -1.9138
  122OSM   C17S12932   1.617   2.201   7.906 -0.1718  0.9117 -0.6191
  122OSM   H17S12933   1.548   2.120   7.875  1.2785 -0.8363  0.4896
  122OSM   H17T12934   1.566   2.284   7.959 -0.3620 -0.5685  1.6480
  122OSM   C18S12935   1.713   2.142   8.008  0.0329 -0.3546  0.6868
  122OSM   H18S12936   1.779   2.228   8.031 -1.5747  1.0720  0.1333
  122OSM   H18T12937   1.782   2.071   7.957  2.5570  3.6576 -2.1456
  122OSM   H18U12938   1.675   2.093   8.100  0.2522 -1.7938  0.0465
  122OSM    C1F12939   1.390   2.831   6.537  0.1326  0.0369  0.7780
  122OSM     OF12940   1.307   2.755   6.479  0.0937  0.0934  0.0177
  122OSM    C2F12941   1.347   2.920   6.654  0.4689  0.3812  0.7796
  122OSM    H2F12942   1.265   2.981   6.611  0.0991  0.2856  1.3446
  122OSM    H2G12943   1.429   2.975   6.703  0.2000  1.4973  0.0117
  122OSM    C3F12944   1.279   2.839   6.763  0.4972 -0.6498 -0.5687
  122OSM    H3F12945   1.201   2.768   6.730  1.0536 -0.2949 -2.8123
  122OSM    H3G12946   1.236   2.911   6.836  3.2413 -0.1801  0.7646
  122OSM    C4F12947   1.377   2.758   6.847  0.2122  0.3070  0.3635
  122OSM    H4F12948   1.456   2.821   6.892  1.3899 -2.3640  2.3078
  122OSM    H4G12949   1.440   2.689   6.787 -0.3220 -1.5541  1.8525
  122OSM    C5F12950   1.315   2.667   6.955 -0.4394  0.0249 -0.6390
  122OSM    H5F12951   1.385   2.596   7.004 -1.7819 -1.0504 -0.2113
  122OSM    H5G12952   1.230   2.609   6.913  1.6227 -2.6211 -1.4746
  122OSM    C6F12953   1.265   2.747   7.074  0.2030  0.2855  0.5412
  122OSM    H6F12954   1.170   2.791   7.039  0.6412  0.6154 -0.2617
  122OSM    H6G12955   1.331   2.835   7.087  0.5050  0.1399  0.0233
  122OSM    C7F12956   1.260   2.686   7.211 -0.1780 -0.2772 -0.0748
  122OSM    H7F12957   1.369   2.677   7.230 -0.5584 -2.2141  1.4264
  122OSM    H7G12958   1.223   2.582   7.205  2.3406 -1.1713 -2.0304
  122OSM    C8F12959   1.184   2.770   7.318  0.5653 -0.0554 -0.9633
  122OSM    H8F12960   1.167   2.718   7.414 -0.0461  1.6131 -0.1310
  122OSM    H8G12961   1.083   2.791   7.278  0.1336  1.6240  0.8691
  122OSM    C9F12962   1.244   2.904   7.349 -0.4446 -1.2361 -0.0999
  122OSM    H9F12963   1.219   2.980   7.274  0.1551 -1.1723 -0.2367
  122OSM   C10F12964   1.324   2.940   7.453  0.1384 -0.0616 -0.8541
  122OSM   H10F12965   1.366   3.041   7.456 -1.2678  0.5329  1.1443
  122OSM   C11F12966   1.367   2.849   7.570 -0.0038 -0.2482  0.6319
  122OSM   H11F12967   1.477   2.861   7.579 -0.0600  0.1182  0.8535
  122OSM   H11G12968   1.353   2.739   7.570 -0.8928 -0.2204  3.6616
  122OSM   C12F12969   1.291   2.904   7.689  0.1264 -0.4003  0.0504
  122OSM   H12F12970   1.336   2.856   7.778  0.3688  1.2154  0.8388
  122OSM   H12G12971   1.184   2.874   7.685  0.0639 -0.0329 -2.6362
  122OSM   C13F12972   1.295   3.059   7.714 -0.1425  0.5068  0.2105
  122OSM   H13F12973   1.209   3.116   7.675 -0.5838 -0.4345 -0.2240
  122OSM   H13G12974   1.387   3.103   7.669 -1.5701  2.4775 -0.9262
  122OSM   C14F12975   1.312   3.091   7.862 -0.3124 -0.3165  0.4564
  122OSM   H14F12976   1.390   3.023   7.903  0.8649 -0.4620 -1.8285
  122OSM   H14G12977   1.214   3.084   7.912 -0.6154 -1.7961 -0.2656
  122OSM   C15F12978   1.370   3.238   7.874 -0.1746  0.0313  0.0345
  122OSM   H15F12979   1.297   3.302   7.821 -0.2497  0.0028  0.1027
  122OSM   H15G12980   1.471   3.257   7.832 -0.3019  0.3438 -0.1338
  122OSM   C16F12981   1.359   3.313   8.007  0.0667 -0.1939 -0.5424
  122OSM   H16F12982   1.395   3.244   8.086 -0.2204 -0.3971 -0.5865
  122OSM   H16G12983   1.254   3.341   8.029  0.4621  1.7262 -0.9590
  122OSM   C17F12984   1.448   3.441   8.016 -0.3654 -0.1778 -0.3343
  122OSM   H17F12985   1.411   3.493   8.107 -0.6368 -0.9701  0.0145
  122OSM   H17G12986   1.428   3.519   7.939  1.7507  0.4303 -0.3103
  122OSM   C18F12987   1.598   3.430   8.039 -0.2690  0.1763 -0.4486
  122OSM   H18F12988   1.647   3.528   8.056  2.1138 -1.2859  2.1679
  122OSM   H18G12989   1.645   3.381   7.951 -3.2002 -0.6682 -1.6524
  122OSM   H18H12990   1.629   3.365   8.124  0.4805  0.7706 -0.2567
  123OSM      N12991   4.474   5.512   6.205 -0.1669 -0.0322  0.1731
  123OSM    C1512992   4.389   5.622   6.151 -0.2549  0.3526 -0.2925
  123OSM   H15A12993   4.447   5.709   6.127 -0.6834  0.0197 -2.7261
  123OSM   H15B12994   4.315   5.655   6.223 -2.5104 -1.2762 -1.7327
  123OSM   H15C12995   4.334   5.606   6.060  1.1333  1.6102 -1.4010
  123OSM    C1412996   4.389   5.393   6.228  0.5250  0.1508 -0.5130
  123OSM   H14A12997   4.445   5.318   6.280  1.4795  1.8575  1.0291
  123OSM   H14B12998   4.344   5.357   6.136  1.6707 -1.2021 -0.5755
  123OSM   H14C12999   4.305   5.414   6.293 -0.1447 -1.8862 -0.6378
  123OSM    C1313000   4.585   5.490   6.098  0.4614 -0.0589  0.1167
  123OSM   H13A13001   4.541   5.483   5.999 -1.2217  2.1548  0.6340
  123OSM   H13B13002   4.647   5.405   6.121  1.1424 -0.2204 -2.0526
  123OSM   H13C13003   4.645   5.579   6.091  0.4121 -0.0803 -0.8118
  123OSM    C1213004   4.538   5.549   6.339 -0.0854  0.2724  0.2779
  123OSM   H12A13005   4.549   5.460   6.400 -2.1887 -0.7142 -0.6396
  123OSM   H12B13006   4.466   5.602   6.399 -2.4051 -2.2944 -0.0225
  123OSM    C1113007   4.668   5.635   6.341 -0.4955 -0.0160  0.4345
  123OSM   H11A13008   4.750   5.576   6.296 -1.0086 -1.0055  0.7859
  123OSM   H11B13009   4.686   5.638   6.451 -1.1475  1.4560  0.5335
  123OSM      P13010   4.615   5.889   6.368 -0.0156  0.3545  0.2522
  123OSM    O1313011   4.746   5.938   6.418  0.1584 -0.0459  0.0622
  123OSM    O1413012   4.549   5.984   6.278  0.0860 -0.2322 -0.3306
  123OSM    O1113013   4.504   5.850   6.474 -0.2441 -0.2446  0.3864
  123OSM    O1213014   4.649   5.760   6.277 -0.1285 -0.7779  0.6410
  123OSM    C1S13015   4.501   5.898   6.610 -0.9913 -0.0237 -0.6199
  123OSM    H1S13016   4.607   5.924   6.632 -1.3583  0.8424  0.1890
  123OSM    H1T13017   4.475   5.818   6.682  0.3301  0.2668  0.2380
  123OSM     NF13018   4.422   6.078   6.765  0.0591  0.1407 -0.2418
  123OSM    HNF13019   4.370   6.032   6.836 -1.5175 -1.6477 -2.4072
  123OSM    C2S13020   4.405   6.015   6.634 -0.3104  0.7486 -0.6449
  123OSM    H2S13021   4.416   6.098   6.561  0.5458  1.2933  0.0812
  123OSM    C3S13022   4.266   5.952   6.611 -0.2726 -0.2832 -0.0586
  123OSM    H3S13023   4.268   5.859   6.671 -0.1756 -1.2078 -1.4378
  123OSM     O313024   4.253   5.913   6.471 -0.0641 -0.8150 -0.2744
  123OSM    HO313025   4.343   5.900   6.438 -0.3913 -1.3630 -0.9585
  123OSM    C4S13026   4.157   6.048   6.639 -0.6819  0.9417 -0.3726
  123OSM    H4S13027   4.135   6.131   6.570 -0.5456  2.9552  1.8659
  123OSM    C5S13028   4.079   6.032   6.748 -0.0130  0.3699 -0.0989
  123OSM    H5S13029   4.103   5.953   6.821  1.2306 -1.7901 -2.6847
  123OSM    C6S13030   3.968   6.127   6.788  0.2578 -0.2798  0.1833
  123OSM    H6S13031   3.866   6.085   6.773  0.1911  0.2401 -0.9242
  123OSM    H6T13032   3.981   6.216   6.723 -1.6062 -1.0282 -1.3045
  123OSM    C7S13033   3.972   6.178   6.929  0.8944  0.6191 -0.5050
  123OSM    H7S13034   4.064   6.238   6.946 -0.3409  2.2852  0.6513
  123OSM    H7T13035   3.979   6.086   6.991  1.2400  1.5533  0.8894
  123OSM    C8S13036   3.843   6.249   6.971 -0.6697 -0.3106 -0.2939
  123OSM    H8S13037   3.771   6.165   6.961 -1.9527 -0.0590  4.3243
  123OSM    H8T13038   3.805   6.322   6.896  1.2466 -0.0220 -1.0512
  123OSM    C9S13039   3.843   6.299   7.114 -0.6755  0.5635 -0.8949
  123OSM    H9S13040   3.748   6.357   7.119  0.3995  2.4708 -1.3064
  123OSM    H9T13041   3.927   6.366   7.143  0.2259 -1.3249  1.1702
  123OSM   C10S13042   3.819   6.188   7.218 -0.1327 -0.8363  0.4217
  123OSM   H10S13043   3.897   6.110   7.209  1.8530  1.0529  0.3358
  123OSM   H10T13044   3.719   6.140   7.210 -0.2142 -0.6506  0.3197
  123OSM   C11S13045   3.842   6.244   7.351 -0.3172  0.7968  0.0397
  123OSM   H11S13046   3.767   6.323   7.368 -0.4271  0.8941 -0.8514
  123OSM   H11T13047   3.939   6.298   7.360 -0.6956  1.9813 -2.3034
  123OSM   C12S13048   3.815   6.135   7.456 -0.5045  0.2034  0.1459
  123OSM   H12S13049   3.906   6.071   7.460 -1.4021 -1.1529 -0.5314
  123OSM   H12T13050   3.723   6.082   7.422 -0.2300  0.4363 -1.0056
  123OSM   C13S13051   3.790   6.196   7.593  0.2215 -0.2171  0.0421
  123OSM   H13S13052   3.690   6.244   7.605 -0.3699 -1.0652 -1.2747
  123OSM   H13T13053   3.860   6.281   7.609 -2.0592  1.6889  0.6670
  123OSM   C14S13054   3.804   6.097   7.712  0.2594 -0.3725 -0.0982
  123OSM   H14S13055   3.907   6.055   7.719  0.4154  0.1084  0.7432
  123OSM   H14T13056   3.731   6.014   7.702 -1.3985  1.1023 -0.7726
  123OSM   C15S13057   3.781   6.166   7.846 -0.0845 -0.0729 -0.1533
  123OSM   H15S13058   3.678   6.207   7.842  0.7796  2.2998  0.7113
  123OSM   H15T13059   3.851   6.251   7.854 -1.1458  1.0039 -1.7309
  123OSM   C16S13060   3.778   6.079   7.972  0.6991 -0.4451 -0.8130
  123OSM   H16S13061   3.868   6.014   7.983  0.7117 -0.1771  0.9634
  123OSM   H16T13062   3.693   6.010   7.952 -1.7168  2.1977 -0.2249
  123OSM   C17S13063   3.735   6.158   8.095 -0.2804 -0.7443  0.1706
  123OSM   H17S13064   3.732   6.080   8.174  0.2590 -0.8996  0.0450
  123OSM   H17T13065   3.628   6.184   8.078 -1.4467 -3.5820  2.3349
  123OSM   C18S13066   3.822   6.282   8.138  0.1161  0.3227  0.3182
  123OSM   H18S13067   3.782   6.319   8.235 -1.2573 -1.7226  0.6080
  123OSM   H18T13068   3.827   6.372   8.073  4.5085  0.3834  0.4350
  123OSM   H18U13069   3.926   6.243   8.147 -0.3062 -1.2028 -0.9183
  123OSM    C1F13070   4.520   6.161   6.791 -0.6337 -0.0630 -0.4412
  123OSM     OF13071   4.575   6.218   6.694  0.3150  0.0651 -0.0362
  123OSM    C2F13072   4.556   6.181   6.935 -0.0206 -0.3595 -0.2100
  123OSM    H2F13073   4.609   6.089   6.968 -1.3682 -0.7711  0.9215
  123OSM    H2G13074   4.464   6.193   6.997 -0.4568 -0.3331 -0.8477
  123OSM    C3F13075   4.661   6.297   6.947  0.5421 -0.4977  0.6402
  123OSM    H3F13076   4.618   6.395   6.916 -0.0668 -1.5039 -1.9734
  123OSM    H3G13077   4.745   6.266   6.881  0.9421  0.8013  0.5032
  123OSM    C4F13078   4.723   6.328   7.084  0.4709 -0.7515 -1.1296
  123OSM    H4F13079   4.799   6.409   7.089  0.6147 -0.6944 -3.3264
  123OSM    H4G13080   4.781   6.236   7.108 -1.6030 -2.4114 -2.1323
  123OSM    C5F13081   4.615   6.327   7.196  0.5008  0.4447 -0.8137
  123OSM    H5F13082   4.554   6.233   7.194  2.4463 -0.8774 -0.7247
  123OSM    H5G13083   4.557   6.421   7.192 -0.1400  0.0220 -2.4399
  123OSM    C6F13084   4.686   6.314   7.339  0.1768 -0.3234 -0.2111
  123OSM    H6F13085   4.755   6.399   7.351  1.3741 -1.0711 -1.4973
  123OSM    H6G13086   4.744   6.221   7.321 -3.8247 -3.4494  1.2984
  123OSM    C7F13087   4.586   6.295   7.454  0.4033  0.0614 -0.2833
  123OSM    H7F13088   4.524   6.207   7.427 -0.5228  0.4304  0.5407
  123OSM    H7G13089   4.525   6.385   7.477 -0.2302 -0.5260  0.3907
  123OSM    C8F13090   4.660   6.277   7.587  0.3675 -0.1031 -0.2368
  123OSM    H8F13091   4.736   6.359   7.591  1.8166 -1.2770 -1.8107
  123OSM    H8G13092   4.732   6.194   7.570  2.2247  0.8620  2.2264
  123OSM    C9F13093   4.587   6.256   7.710  0.3093  0.8115 -0.0987
  123OSM    H9F13094   4.542   6.156   7.722  0.2348  1.0241  1.6953
  123OSM   C10F13095   4.604   6.320   7.826  0.8399  0.3507 -0.1621
  123OSM   H10F13096   4.541   6.289   7.912  0.9062  0.0891 -0.2075
  123OSM   C11F13097   4.686   6.436   7.861  0.0656  0.2703 -0.1149
  123OSM   H11F13098   4.613   6.508   7.902  0.2224  1.0183 -1.1333
  123OSM   H11G13099   4.729   6.479   7.768 -0.6674 -2.0613 -1.6183
  123OSM   C12F13100   4.793   6.414   7.972  0.2240  0.2267  0.9676
  123OSM   H12F13101   4.849   6.508   7.989  1.5506 -0.1426 -1.0132
  123OSM   H12G13102   4.863   6.335   7.935 -0.3865  0.5805 -1.0661
  123OSM   C13F13103   4.733   6.387   8.112  0.6464  0.2721  0.2421
  123OSM   H13F13104   4.679   6.290   8.107  0.2476  0.5500 -1.0632
  123OSM   H13G13105   4.659   6.468   8.126 -0.4897 -0.5732 -0.7146
  123OSM   C14F13106   4.829   6.379   8.231  0.1655 -0.8787  0.4753
  123OSM   H14F13107   4.920   6.322   8.204 -0.9677 -1.7480 -1.7229
  123OSM   H14G13108   4.778   6.329   8.316 -0.2692 -2.0582 -0.4613
  123OSM   C15F13109   4.875   6.516   8.274  0.9931 -0.9662  0.2301
  123OSM   H15F13110   4.785   6.570   8.311  0.0569 -1.8565 -0.6938
  123OSM   H15G13111   4.921   6.568   8.187 -0.7154  0.1968 -0.0419
  123OSM   C16F13112   4.979   6.523   8.387  0.4683 -0.1744 -0.1070
  123OSM   H16F13113   5.081   6.550   8.353  0.4025 -2.5793 -2.4623
  123OSM   H16G13114   4.982   6.424   8.439 -1.6728  0.1991  0.8290
  123OSM   C17F13115   4.943   6.614   8.502 -0.2471  0.4467 -0.1736
  123OSM   H17F13116   4.861   6.571   8.563 -1.1236  0.2315 -1.4427
  123OSM   H17G13117   4.899   6.706   8.458  0.5626  1.3354  0.8422
  123OSM   C18F13118   5.058   6.666   8.593  0.0564  0.7269  0.0554
  123OSM   H18F13119   5.030   6.702   8.694  1.3468  1.7171  0.0922
  123OSM   H18G13120   5.126   6.739   8.545  2.2644  1.2206  3.5597
  123OSM   H18H13121   5.112   6.569   8.608 -1.2955 -0.4574 -2.2620
  124OSM      N13122   5.581   3.575   6.270 -0.0808  0.0585 -0.4630
  124OSM    C1513123   5.696   3.575   6.358  0.4406 -0.3969 -0.6118
  124OSM   H15A13124   5.681   3.505   6.439 -1.4431 -1.1856 -1.5802
  124OSM   H15B13125   5.716   3.674   6.398  3.5941 -0.4451 -1.8461
  124OSM   H15C13126   5.786   3.541   6.311  0.5988 -1.6321  0.5052
  124OSM    C1413127   5.464   3.623   6.352 -0.2566 -0.3447  0.0742
  124OSM   H14A13128   5.378   3.624   6.287  0.5757 -0.4201 -1.0483
  124OSM   H14B13129   5.485   3.724   6.382  0.4365  0.4502 -2.8694
  124OSM   H14C13130   5.452   3.561   6.440  1.1621  0.4496  0.8642
  124OSM    C1313131   5.602   3.685   6.170 -0.2367 -1.2107 -0.2614
  124OSM   H13A13132   5.524   3.679   6.095 -2.1434 -1.2389  1.6509
  124OSM   H13B13133   5.695   3.679   6.115  0.3766  1.8318  0.2659
  124OSM   H13C13134   5.592   3.774   6.230 -1.5538 -1.8030  0.4392
  124OSM    C1213135   5.554   3.442   6.208 -0.5561  0.8580 -0.4156
  124OSM   H12A13136   5.636   3.418   6.141  0.5571  2.3449  0.3294
  124OSM   H12B13137   5.466   3.437   6.147 -0.9592 -1.1074  0.2759
  124OSM    C1113138   5.535   3.324   6.309  0.0042  0.8060  0.5755
  124OSM   H11A13139   5.466   3.354   6.391  0.2963 -3.0583  2.4599
  124OSM   H11B13140   5.630   3.304   6.362 -1.1551 -1.7470  1.8251
  124OSM      P13141   5.353   3.159   6.219 -0.0420 -0.1856 -0.2181
  124OSM    O1313142   5.287   3.257   6.133  0.5338  0.7559 -0.8052
  124OSM    O1413143   5.333   3.018   6.176  0.1180  0.1447  0.0255
  124OSM    O1113144   5.292   3.177   6.367  0.0342  0.0652  0.2535
  124OSM    O1213145   5.507   3.201   6.239 -0.6131 -0.3909 -0.1274
  124OSM    C1S13146   5.341   3.095   6.474  0.0398 -0.0447 -0.0889
  124OSM    H1S13147   5.434   3.145   6.510  1.3927 -2.5315  0.0888
  124OSM    H1T13148   5.358   2.988   6.449  1.8273  0.6251 -2.0575
  124OSM     NF13149   5.310   3.053   6.719 -0.0693  0.5835  0.5251
  124OSM    HNF13150   5.297   2.957   6.744 -0.9097  0.6347  0.3126
  124OSM    C2S13151   5.241   3.090   6.592 -1.3550 -0.3217 -0.3116
  124OSM    H2S13152   5.202   3.191   6.617  0.7351  0.1696  1.2206
  124OSM    C3S13153   5.118   3.012   6.547 -0.4393  0.2671 -0.4238
  124OSM    H3S13154   5.149   2.908   6.524  1.2265  0.0833  2.2339
  124OSM     O313155   5.062   3.073   6.433 -0.3611  0.0207  0.3441
  124OSM    HO313156   5.128   3.133   6.398 -0.6885  0.7454  0.9615
  124OSM    C4S13157   5.016   2.996   6.659  0.2915 -0.4202 -0.0204
  124OSM    H4S13158   4.950   3.083   6.670  2.1745  0.8237  2.4001
  124OSM    C5S13159   5.006   2.891   6.736  0.3595 -0.5590  0.2467
  124OSM    H5S13160   5.078   2.808   6.730  0.8276 -0.0720 -1.6719
  124OSM    C6S13161   4.893   2.873   6.837  0.4403 -0.0515  0.0720
  124OSM    H6S13162   4.946   2.868   6.935  2.5365 -0.4627 -1.0261
  124OSM    H6T13163   4.850   2.771   6.826  1.9664 -0.8837  1.3592
  124OSM    C7S13164   4.783   2.976   6.825  0.7991  0.2985 -0.0797
  124OSM    H7S13165   4.749   2.997   6.721 -1.2117  2.2916  0.8796
  124OSM    H7T13166   4.820   3.077   6.852 -0.9723  1.0544 -0.2701
  124OSM    C8S13167   4.655   2.950   6.902  0.8547  0.9138  0.4244
  124OSM    H8S13168   4.608   2.855   6.868  2.2242 -0.2801  1.7376
  124OSM    H8T13169   4.584   3.033   6.882 -0.1244  0.1660  0.6601
  124OSM    C9S13170   4.670   2.934   7.054  0.2219 -0.8959 -0.4806
  124OSM    H9S13171   4.715   3.031   7.087 -1.1083 -0.5521  0.3746
  124OSM    H9T13172   4.739   2.851   7.081  0.6380  0.1370  1.9094
  124OSM   C10S13173   4.536   2.905   7.121 -0.0437 -0.2735  0.8688
  124OSM   H10S13174   4.502   2.801   7.103  0.9627 -0.7646  1.7134
  124OSM   H10T13175   4.461   2.974   7.078  0.3229 -0.0354  0.6043
  124OSM   C11S13176   4.542   2.919   7.271  0.0415  0.5023 -0.1366
  124OSM   H11S13177   4.547   3.028   7.290 -1.0571  0.5094  0.1640
  124OSM   H11T13178   4.634   2.879   7.318 -0.2632  1.2249  1.1186
  124OSM   C12S13179   4.427   2.852   7.341 -0.6543 -0.6122 -0.0820
  124OSM   H12S13180   4.445   2.743   7.349 -0.8783 -0.9330 -2.8422
  124OSM   H12T13181   4.347   2.871   7.266 -0.1356  0.4836 -0.3745
  124OSM   C13S13182   4.378   2.912   7.474 -0.3359  0.7548 -0.8657
  124OSM   H13S13183   4.452   2.895   7.555 -0.4988  0.3686 -0.7975
  124OSM   H13T13184   4.283   2.863   7.504  0.9156 -1.5900 -0.4696
  124OSM   C14S13185   4.349   3.064   7.465 -0.1581 -0.0029  0.0158
  124OSM   H14S13186   4.267   3.098   7.397 -0.3446 -1.0931 -0.3198
  124OSM   H14T13187   4.440   3.121   7.438  0.9484 -1.4989  0.4826
  124OSM   C15S13188   4.312   3.116   7.601  1.2647 -0.3921 -0.0026
  124OSM   H15S13189   4.251   3.040   7.655  1.2223  0.1765  0.7597
  124OSM   H15T13190   4.247   3.205   7.586  3.1583  1.5487  2.5752
  124OSM   C16S13191   4.419   3.176   7.688  0.5503  0.4699  0.6045
  124OSM   H16S13192   4.466   3.259   7.630 -0.2545  0.5453  0.0537
  124OSM   H16T13193   4.501   3.104   7.710  0.9006  0.8477  0.5595
  124OSM   C17S13194   4.356   3.237   7.820  0.1340  0.3100  0.9135
  124OSM   H17S13195   4.306   3.153   7.872  1.8338  0.2935  2.6408
  124OSM   H17T13196   4.278   3.314   7.803  1.3051  1.4864  0.7441
  124OSM   C18S13197   4.471   3.274   7.911  0.2032  0.5123  0.7827
  124OSM   H18S13198   4.448   3.330   8.004  1.1871  1.2604  0.5975
  124OSM   H18T13199   4.536   3.348   7.858 -0.3865 -0.1361 -0.9124
  124OSM   H18U13200   4.538   3.189   7.935 -0.3331  0.4034  1.9525
  124OSM    C1F13201   5.405   3.120   6.775  0.0041 -0.4585 -0.9465
  124OSM     OF13202   5.423   3.235   6.745 -0.6493  0.1260 -0.5811
  124OSM    C2F13203   5.479   3.054   6.890 -0.4610 -0.6865  0.3616
  124OSM    H2F13204   5.576   3.012   6.856  0.6762  0.4458  2.0811
  124OSM    H2G13205   5.411   2.981   6.939 -1.4041  0.2452  0.4601
  124OSM    C3F13206   5.520   3.160   7.002 -0.6743 -0.0682 -0.4128
  124OSM    H3F13207   5.434   3.216   7.043 -0.2973 -0.2040  0.5870
  124OSM    H3G13208   5.593   3.232   6.959 -0.4212 -0.8751 -1.3968
  124OSM    C4F13209   5.596   3.101   7.124  0.0816  0.2048  0.2478
  124OSM    H4F13210   5.634   3.192   7.177  0.3244 -0.0124  0.4463
  124OSM    H4G13211   5.677   3.039   7.081  1.2523 -0.0955  2.7312
  124OSM    C5F13212   5.495   3.028   7.218  0.3691  0.2514  0.4022
  124OSM    H5F13213   5.461   2.935   7.167 -0.0372  1.2840 -1.2954
  124OSM    H5G13214   5.411   3.101   7.220  0.3580  0.3676 -1.6051
  124OSM    C6F13215   5.562   3.000   7.350  0.3848 -0.8520  0.1053
  124OSM    H6F13216   5.609   3.090   7.395 -0.5558  0.1254 -0.8141
  124OSM    H6G13217   5.649   2.933   7.331  0.7791 -0.3834  0.2177
  124OSM    C7F13218   5.468   2.943   7.447  0.0538 -0.1993 -0.1993
  124OSM    H7F13219   5.513   2.918   7.546 -0.6133  0.5998  0.3211
  124OSM    H7G13220   5.425   2.848   7.407  0.3498  0.5354 -2.3787
  124OSM    C8F13221   5.345   3.030   7.483  0.3511  0.5149  0.2011
  124OSM    H8F13222   5.283   2.980   7.561 -1.9706 -1.3095 -2.6030
  124OSM    H8G13223   5.278   3.024   7.395  1.1911 -1.6971 -0.3423
  124OSM    C9F13224   5.382   3.175   7.513 -0.4166 -0.4625 -0.6064
  124OSM    H9F13225   5.459   3.212   7.445  0.3456 -1.3210 -0.2258
  124OSM   C10F13226   5.340   3.249   7.614  0.0920  0.1975 -0.1241
  124OSM   H10F13227   5.377   3.353   7.619  1.7127 -0.2666 -1.4991
  124OSM   C11F13228   5.233   3.213   7.720  0.3541 -0.0148 -0.5647
  124OSM   H11F13229   5.174   3.125   7.686 -0.2680  1.8100 -4.7897
  124OSM   H11G13230   5.164   3.299   7.730  0.1370 -0.4546  2.9938
  124OSM   C12F13231   5.286   3.196   7.863  0.4484  0.2129  0.5019
  124OSM   H12F13232   5.342   3.285   7.899 -0.3561  0.5405  0.9602
  124OSM   H12G13233   5.372   3.128   7.841  1.0412  0.7214  1.1904
  124OSM   C13F13234   5.180   3.149   7.967 -0.4744  0.0046 -0.2214
  124OSM   H13F13235   5.122   3.061   7.934 -0.6127 -0.1064  0.3062
  124OSM   H13G13236   5.115   3.238   7.979 -1.5667 -0.4877 -2.1047
  124OSM   C14F13237   5.235   3.101   8.107 -0.0881 -0.2448 -0.1399
  124OSM   H14F13238   5.312   3.024   8.081 -0.8979 -1.5034  1.0894
  124OSM   H14G13239   5.143   3.059   8.152 -0.4796  1.7920  1.0809
  124OSM   C15F13240   5.287   3.211   8.198 -0.1367 -1.2787 -0.2397
  124OSM   H15F13241   5.200   3.269   8.234  1.6069  0.7200  0.9947
  124OSM   H15G13242   5.350   3.289   8.150  0.1240 -0.2466  1.6978
  124OSM   C16F13243   5.362   3.156   8.315 -0.2693  0.8796 -0.5494
  124OSM   H16F13244   5.389   3.237   8.387  1.4533 -0.1582  0.0265
  124OSM   H16G13245   5.457   3.121   8.270 -0.3983 -0.5752  0.2577
  124OSM   C17F13246   5.313   3.032   8.392 -0.6876  0.0136 -0.8147
  124OSM   H17F13247   5.296   2.946   8.323 -0.8247  0.2645 -1.0984
  124OSM   H17G13248   5.213   3.056   8.434 -1.0031 -0.1730 -1.4444
  124OSM   C18F13249   5.402   3.002   8.510 -0.3385 -1.1122 -0.0689
  124OSM   H18F13250   5.499   2.951   8.494  0.4842 -0.2532  1.9375
  124OSM   H18G13251   5.357   2.954   8.599  3.2000  1.5467  3.5164
  124OSM   H18H13252   5.429   3.101   8.553 -0.0110 -2.1877  2.3350
  125OSM      N13253   2.809   6.747   6.040 -0.3003  0.3069 -0.0410
  125OSM    C1513254   2.837   6.661   5.916  0.2056  0.3109  0.7311
  125OSM   H15A13255   2.917   6.697   5.853 -1.1849  2.1300 -0.0779
  125OSM   H15B13256   2.748   6.663   5.855  1.1373  1.6123 -0.6686
  125OSM   H15C13257   2.863   6.560   5.945 -0.8330 -0.3707 -0.6229
  125OSM    C1413258   2.779   6.886   5.996 -0.2053  0.0459 -0.2528
  125OSM   H14A13259   2.692   6.881   5.933  0.6077 -2.7549 -1.3190
  125OSM   H14B13260   2.858   6.928   5.936  0.2629  0.3013  0.5164
  125OSM   H14C13261   2.759   6.948   6.082 -0.1131 -0.8401  0.4236
  125OSM    C1313262   2.684   6.690   6.095  0.2938 -0.2260 -0.1745
  125OSM   H13A13263   2.707   6.599   6.147  0.1609  1.3530  2.9115
  125OSM   H13B13264   2.614   6.671   6.015  0.7093  1.2808 -0.9375
  125OSM   H13C13265   2.640   6.759   6.166  1.3235  1.9744 -1.5379
  125OSM    C1213266   2.922   6.753   6.133  0.0902 -0.1284  0.8495
  125OSM   H12A13267   3.005   6.790   6.073 -1.6673  0.9806 -1.0488
  125OSM   H12B13268   2.944   6.652   6.163 -1.0030 -0.8763 -0.7325
  125OSM    C1113269   2.906   6.832   6.269 -0.5001  0.0849 -0.4948
  125OSM   H11A13270   3.001   6.813   6.323 -0.6489  0.7947  0.0218
  125OSM   H11B13271   2.819   6.780   6.314 -0.1745 -0.6664 -0.7218
  125OSM      P13272   2.984   7.070   6.233 -0.0022 -0.0692  0.1647
  125OSM    O1313273   3.105   7.001   6.177  0.1800 -0.1117  0.2808
  125OSM    O1413274   2.922   7.188   6.167 -0.4376  0.6357 -0.4655
  125OSM    O1113275   2.999   7.114   6.383  0.0621 -0.1295  0.1338
  125OSM    O1213276   2.871   6.964   6.257 -0.3176 -0.4408  0.5216
  125OSM    C1S13277   2.895   7.171   6.463  0.5450  0.1812 -0.0111
  125OSM    H1S13278   2.827   7.090   6.498 -2.1617  2.2411 -0.1043
  125OSM    H1T13279   2.844   7.248   6.400  2.4806  2.0250  0.5646
  125OSM     NF13280   2.837   7.286   6.680  0.2207 -0.6397 -0.3040
  125OSM    HNF13281   2.790   7.367   6.645  0.0708 -0.4751  0.2691
  125OSM    C2S13282   2.950   7.234   6.596  0.3429  0.0012 -0.2666
  125OSM    H2S13283   3.004   7.159   6.657  2.5129  0.6167 -1.3194
  125OSM    C3S13284   3.054   7.343   6.569 -0.1414  0.2579 -0.4281
  125OSM    H3S13285   3.016   7.428   6.509  0.7422  0.8181 -0.2112
  125OSM     O313286   3.163   7.295   6.486  0.0042  1.0853  0.0725
  125OSM    HO313287   3.134   7.206   6.464  0.2274  0.3735  2.3621
  125OSM    C4S13288   3.107   7.384   6.702 -0.4429 -0.3599 -0.2402
  125OSM    H4S13289   3.044   7.461   6.749  0.6662  0.0990  0.5330
  125OSM    C5S13290   3.208   7.337   6.782  0.1892 -0.1362  0.0045
  125OSM    H5S13291   3.271   7.251   6.756 -0.2366  0.0987 -1.9810
  125OSM    C6S13292   3.243   7.396   6.919 -0.4269  0.3199 -0.2772
  125OSM    H6S13293   3.320   7.475   6.906 -0.2471  0.6880  2.4409
  125OSM    H6T13294   3.299   7.316   6.973  0.4276 -0.3035 -2.0137
  125OSM    C7S13295   3.130   7.456   7.005 -0.0787  0.1929  0.9517
  125OSM    H7S13296   3.032   7.404   7.017 -0.0278  0.2618  1.7622
  125OSM    H7T13297   3.091   7.541   6.945 -0.1267 -0.1309  0.5174
  125OSM    C8S13298   3.171   7.503   7.147  0.1745  0.1471 -0.1804
  125OSM    H8S13299   3.204   7.416   7.209  0.3663  1.2825  1.3832
  125OSM    H8T13300   3.086   7.548   7.202  1.6281  1.8078  0.8314
  125OSM    C9S13301   3.294   7.611   7.156  0.1016 -0.0423 -0.1752
  125OSM    H9S13302   3.257   7.705   7.109  2.0331  0.8046 -0.1073
  125OSM    H9T13303   3.385   7.578   7.101 -0.0722  0.3371 -0.6970
  125OSM   C10S13304   3.331   7.656   7.295 -0.1925 -0.0904 -1.1345
  125OSM   H10S13305   3.272   7.740   7.338  0.0036 -0.1051 -0.8334
  125OSM   H10T13306   3.436   7.693   7.298  0.0904 -0.9183  0.3064
  125OSM   C11S13307   3.319   7.541   7.392  0.2701 -0.1055  0.1719
  125OSM   H11S13308   3.386   7.458   7.362  0.5830  0.1963  0.0252
  125OSM   H11T13309   3.226   7.484   7.414  0.3177 -0.2526 -0.0074
  125OSM   C12S13310   3.366   7.570   7.537 -0.0706 -0.3097  0.8407
  125OSM   H12S13311   3.297   7.639   7.589 -0.4553 -0.6213  0.7489
  125OSM   H12T13312   3.472   7.602   7.528  0.5450 -2.5394 -0.7209
  125OSM   C13S13313   3.370   7.442   7.624  0.2581 -0.6829  0.0511
  125OSM   H13S13314   3.442   7.373   7.574  0.7237  1.6784 -2.7828
  125OSM   H13T13315   3.269   7.395   7.618  0.0023 -0.1083 -0.2299
  125OSM   C14S13316   3.407   7.478   7.772 -0.0419  0.0536 -0.5781
  125OSM   H14S13317   3.403   7.389   7.838 -0.0347  0.0368 -0.6002
  125OSM   H14T13318   3.326   7.543   7.810  0.5708  0.7410 -0.4157
  125OSM   C15S13319   3.537   7.560   7.785  0.9190 -0.5592 -0.0864
  125OSM   H15S13320   3.534   7.653   7.724  0.3387 -1.8401 -2.0987
  125OSM   H15T13321   3.617   7.498   7.740  3.3008  0.3818  2.5999
  125OSM   C16S13322   3.583   7.591   7.926  0.0974  0.3276 -0.0593
  125OSM   H16S13323   3.582   7.496   7.983  1.5495  0.7295  0.6830
  125OSM   H16T13324   3.513   7.657   7.981 -2.6822 -2.5170  0.1068
  125OSM   C17S13325   3.733   7.642   7.927 -0.4349  0.1258  0.3639
  125OSM   H17S13326   3.747   7.742   7.883  1.6233 -1.5195 -3.1039
  125OSM   H17T13327   3.770   7.574   7.848 -1.4046 -1.1237  0.9293
  125OSM   C18S13328   3.818   7.600   8.053 -0.4417  0.0845  0.0560
  125OSM   H18S13329   3.799   7.657   8.146  0.8760 -0.1649  0.4906
  125OSM   H18T13330   3.925   7.612   8.024 -0.7198 -0.3558 -1.2345
  125OSM   H18U13331   3.800   7.494   8.082  2.5264  0.0662  2.2714
  125OSM    C1F13332   2.765   7.202   6.760  0.0291  0.1333 -0.6362
  125OSM     OF13333   2.789   7.080   6.760 -0.4727 -0.3082 -0.0807
  125OSM    C2F13334   2.656   7.276   6.829  0.1946  0.8101  0.2674
  125OSM    H2F13335   2.575   7.298   6.757 -0.0112 -0.6795 -0.0048
  125OSM    H2G13336   2.696   7.371   6.868 -0.5469 -0.2572  3.9850
  125OSM    C3F13337   2.605   7.207   6.959 -0.9270  0.4542 -0.6714
  125OSM    H3F13338   2.576   7.103   6.933  1.3597 -0.6481  0.8921
  125OSM    H3G13339   2.513   7.261   6.991 -2.3399 -1.2524 -1.6611
  125OSM    C4F13340   2.712   7.212   7.079 -0.3330  0.1825  0.8526
  125OSM    H4F13341   2.806   7.171   7.037 -1.8804 -3.5456  0.6831
  125OSM    H4G13342   2.677   7.133   7.148  1.8734 -1.0444  0.6367
  125OSM    C5F13343   2.745   7.350   7.137 -1.0739 -0.0151 -0.6613
  125OSM    H5F13344   2.657   7.417   7.137 -2.0249 -1.2130 -1.7852
  125OSM    H5G13345   2.815   7.395   7.064 -0.6672 -0.0469 -0.3017
  125OSM    C6F13346   2.813   7.356   7.281 -0.7901 -0.3940 -0.2922
  125OSM    H6F13347   2.922   7.334   7.270 -0.0863  2.6289 -0.2051
  125OSM    H6G13348   2.778   7.275   7.349 -1.5926 -0.4866 -0.8029
  125OSM    C7F13349   2.809   7.494   7.341  0.5556  0.4065 -0.1082
  125OSM    H7F13350   2.701   7.519   7.354 -0.5845 -4.6929  2.5598
  125OSM    H7G13351   2.851   7.572   7.274  1.5324 -0.5020 -0.5732
  125OSM    C8F13352   2.891   7.491   7.468  0.1527  0.0317  0.4296
  125OSM    H8F13353   2.996   7.464   7.441  0.2179  1.3189 -0.6906
  125OSM    H8G13354   2.840   7.410   7.525  0.1244 -0.8370 -0.7923
  125OSM    C9F13355   2.888   7.625   7.538 -0.5052  0.0720 -0.1657
  125OSM    H9F13356   2.864   7.713   7.477 -1.0000  0.2610  0.2953
  125OSM   C10F13357   2.930   7.637   7.673  0.3090 -0.1632  0.3332
  125OSM   H10F13358   2.924   7.735   7.724  1.9204 -0.3462  0.9135
  125OSM   C11F13359   2.973   7.521   7.756 -0.2378  0.1329 -0.4038
  125OSM   H11F13360   3.038   7.452   7.697  1.1936 -0.9517  2.2473
  125OSM   H11G13361   2.887   7.458   7.787  1.3204 -1.8749  0.0889
  125OSM   C12F13362   3.035   7.569   7.885 -0.8944 -0.6089 -0.2986
  125OSM   H12F13363   3.125   7.634   7.874  0.0729 -1.5051  1.7786
  125OSM   H12G13364   3.070   7.480   7.941  1.5472  1.2352  1.2959
  125OSM   C13F13365   2.944   7.649   7.981 -0.2336  0.2724 -0.1335
  125OSM   H13F13366   2.859   7.582   8.005 -0.4273  1.2510  2.1074
  125OSM   H13G13367   2.906   7.745   7.940 -0.3943  1.1596  2.0027
  125OSM   C14F13368   3.014   7.657   8.121 -0.1460 -0.0698 -0.0614
  125OSM   H14F13369   3.110   7.711   8.109 -1.9940  3.5854 -0.1253
  125OSM   H14G13370   3.031   7.551   8.148 -0.8164  0.0130  0.7617
  125OSM   C15F13371   2.937   7.726   8.236  0.3492 -0.3843 -0.1235
  125OSM   H15F13372   2.918   7.830   8.204 -0.5976 -0.8419 -1.1284
  125OSM   H15G13373   3.009   7.715   8.319 -0.6284 -1.0369  0.6663
  125OSM   C16F13374   2.798   7.659   8.254 -0.6526 -0.5666  0.3268
  125OSM   H16F13375   2.817   7.554   8.283  1.1479 -0.9630 -1.9671
  125OSM   H16G13376   2.724   7.675   8.172  1.0729  0.5800 -1.0756
  125OSM   C17F13377   2.729   7.718   8.387  0.3647  0.0894 -0.2195
  125OSM   H17F13378   2.768   7.821   8.398 -0.1651  0.2123  0.5294
  125OSM   H17G13379   2.769   7.649   8.464  1.1330 -1.7472 -2.1640
  125OSM   C18F13380   2.576   7.699   8.374 -0.0810  0.8204  0.2807
  125OSM   H18F13381   2.529   7.734   8.469  1.7917  0.8604  1.2382
  125OSM   H18G13382   2.548   7.593   8.386 -1.4799  1.2600  1.2016
  125OSM   H18H13383   2.526   7.755   8.291 -2.4548 -0.1001  1.0136
  126OSM      N13384   5.616   6.034   6.451  0.0855 -0.2306  0.2557
  126OSM    C1513385   5.688   6.043   6.320 -0.2956 -0.1334 -0.3789
  126OSM   H15A13386   5.630   6.106   6.254  0.8280 -0.2047 -1.4629
  126OSM   H15B13387   5.708   5.947   6.275 -0.3180 -0.2056 -0.2330
  126OSM   H15C13388   5.782   6.094   6.332 -0.0454 -0.5910 -0.3814
  126OSM    C1413389   5.490   5.968   6.436 -0.0359  0.0876 -0.1888
  126OSM   H14A13390   5.501   5.861   6.426  1.3504  0.2639 -0.8206
  126OSM   H14B13391   5.440   6.000   6.346 -0.2607  0.2885  0.0050
  126OSM   H14C13392   5.431   5.990   6.524 -1.3866 -0.1810 -0.9977
  126OSM    C1313393   5.706   5.954   6.541  0.0498  0.7597  0.6704
  126OSM   H13A13394   5.794   6.016   6.542 -1.2760  3.1058 -3.6240
  126OSM   H13B13395   5.737   5.862   6.493 -1.8000  0.8121 -0.7632
  126OSM   H13C13396   5.655   5.934   6.634  0.6335  1.0025  1.0416
  126OSM    C1213397   5.593   6.165   6.519 -0.7671 -0.4775  0.1516
  126OSM   H12A13398   5.528   6.147   6.603 -0.4697 -1.8071  0.1165
  126OSM   H12B13399   5.548   6.230   6.445  1.5096  2.1108  0.8456
  126OSM    C1113400   5.721   6.243   6.569  0.0486  0.2890  0.2927
  126OSM   H11A13401   5.698   6.348   6.598  0.9078  0.1027  1.7506
  126OSM   H11B13402   5.804   6.242   6.495 -0.7940  0.3500 -0.6666
  126OSM      P13403   5.890   6.227   6.769  0.0459  0.0412 -0.1944
  126OSM    O1313404   6.010   6.189   6.689 -0.7757 -0.7205  0.2196
  126OSM    O1413405   5.867   6.367   6.813 -0.3328 -0.2972 -0.1132
  126OSM    O1113406   5.881   6.126   6.895 -0.6686  0.2255  0.1876
  126OSM    O1213407   5.765   6.182   6.689  0.1200 -0.5545 -0.3869
  126OSM    C1S13408   5.905   5.986   6.866 -0.2728  0.2462 -0.5815
  126OSM    H1S13409   5.997   5.964   6.808 -0.8129 -0.4719 -1.1763
  126OSM    H1T13410   5.813   5.940   6.823 -2.0156  2.3030  0.7678
  126OSM     NF13411   5.987   5.777   6.971 -0.2206 -0.3241  0.1596
  126OSM    HNF13412   5.923   5.701   6.967  0.3061 -0.7211 -1.5462
  126OSM    C2S13413   5.931   5.911   6.999  0.4002  0.4880  0.2039
  126OSM    H2S13414   6.012   5.952   7.062 -0.2891  0.9374  0.8162
  126OSM    C3S13415   5.804   5.924   7.091  0.1096 -0.0797  0.1898
  126OSM    H3S13416   5.736   5.854   7.038  0.7199 -0.1976 -0.4478
  126OSM     O313417   5.745   6.053   7.110 -0.2680 -0.6277  0.1929
  126OSM    HO313418   5.806   6.106   7.060 -2.0042  3.1335  1.6755
  126OSM    C4S13419   5.831   5.863   7.229 -0.7769  0.0825  0.0526
  126OSM    H4S13420   5.900   5.915   7.298  0.8806 -1.0253 -0.7107
  126OSM    C5S13421   5.767   5.757   7.272  0.0685  0.0567 -0.8318
  126OSM    H5S13422   5.709   5.698   7.200 -1.3052 -0.3829  0.5746
  126OSM    C6S13423   5.790   5.685   7.401  0.8999 -0.4206  0.3678
  126OSM    H6S13424   5.812   5.578   7.383  2.0098 -0.1679  0.0969
  126OSM    H6T13425   5.698   5.693   7.462 -0.2616 -2.3170 -1.0418
  126OSM    C7S13426   5.910   5.724   7.493 -0.2111 -0.4048 -0.2946
  126OSM    H7S13427   5.919   5.835   7.502 -3.6276 -0.0430  0.2883
  126OSM    H7T13428   6.006   5.683   7.456  0.4664 -0.6699  1.6749
  126OSM    C8S13429   5.889   5.682   7.641 -0.2403  0.3383 -0.5938
  126OSM    H8S13430   5.875   5.572   7.650  1.9679  0.1081  0.9178
  126OSM    H8T13431   5.802   5.736   7.684 -0.9212 -2.2382  1.5529
  126OSM    C9S13432   6.010   5.714   7.732  0.4225 -1.3386 -0.0404
  126OSM    H9S13433   6.007   5.822   7.759  0.3102 -1.5777  0.9279
  126OSM    H9T13434   6.104   5.696   7.677  0.7133  0.8041 -0.3443
  126OSM   C10S13435   6.010   5.636   7.863  0.7784 -0.0041 -0.4920
  126OSM   H10S13436   6.106   5.664   7.909  1.3967  0.1588 -1.8256
  126OSM   H10T13437   6.012   5.531   7.825 -1.3369 -0.3775  0.2960
  126OSM   C11S13438   5.891   5.653   7.960 -0.0094 -0.3703  0.1393
  126OSM   H11S13439   5.861   5.760   7.964  0.2181 -0.3412  1.1567
  126OSM   H11T13440   5.927   5.613   8.057  0.0780 -1.7294 -0.4316
  126OSM   C12S13441   5.767   5.569   7.921  0.7541  0.7035  0.0241
  126OSM   H12S13442   5.805   5.470   7.889  1.6447  1.8549 -2.7491
  126OSM   H12T13443   5.717   5.619   7.835 -0.7661 -1.7150 -0.5917
  126OSM   C13S13444   5.675   5.560   8.042  1.2807 -0.2357  0.4746
  126OSM   H13S13445   5.733   5.538   8.135  2.2171  0.1454 -0.0085
  126OSM   H13T13446   5.593   5.485   8.032  0.6926  0.5402 -0.8187
  126OSM   C14S13447   5.597   5.690   8.075 -0.0546  0.0575  0.3262
  126OSM   H14S13448   5.669   5.758   8.125  0.0481 -1.3102  2.1389
  126OSM   H14T13449   5.526   5.658   8.155 -0.9434 -2.1959 -1.2650
  126OSM   C15S13450   5.513   5.751   7.962 -0.1054 -0.5134 -0.0734
  126OSM   H15S13451   5.463   5.665   7.913 -1.7772  0.0657  0.5383
  126OSM   H15T13452   5.583   5.800   7.891  1.0721 -2.2699 -0.1847
  126OSM   C16S13453   5.407   5.855   8.002 -0.5820 -0.1628 -0.1534
  126OSM   H16S13454   5.346   5.891   7.916 -0.9415 -0.4264 -0.0095
  126OSM   H16T13455   5.466   5.940   8.043  1.1964 -0.6255 -1.5910
  126OSM   C17S13456   5.307   5.823   8.115 -0.2313 -0.4633 -0.0200
  126OSM   H17S13457   5.352   5.768   8.201 -1.2912  1.4171  1.8561
  126OSM   H17T13458   5.238   5.743   8.079 -0.9252  1.3253 -2.9219
  126OSM   C18S13459   5.222   5.937   8.177 -0.7474 -0.2136  0.4303
  126OSM   H18S13460   5.144   5.893   8.242 -0.1271 -0.8099  0.7821
  126OSM   H18T13461   5.183   5.999   8.094 -0.1585 -0.6245 -0.1684
  126OSM   H18U13462   5.275   6.013   8.239  0.0361  1.0244 -1.6374
  126OSM    C1F13463   6.117   5.771   6.938  0.3512  0.2025  0.4502
  126OSM     OF13464   6.186   5.873   6.926  0.0988  0.3092 -0.0096
  126OSM    C2F13465   6.159   5.626   6.907  0.1635  0.4175 -0.4782
  126OSM    H2F13466   6.199   5.618   6.803  2.3435 -0.1349  0.3491
  126OSM    H2G13467   6.071   5.558   6.913 -0.3176  1.1492  1.2506
  126OSM    C3F13468   6.274   5.593   7.006 -0.4351  0.4898 -0.0590
  126OSM    H3F13469   6.362   5.660   6.994  0.2161 -0.3171  0.1358
  126OSM    H3G13470   6.310   5.489   6.997 -0.6001  0.4179  0.1001
  126OSM    C4F13471   6.227   5.618   7.156 -0.1034  0.1793 -0.2056
  126OSM    H4F13472   6.128   5.569   7.168 -0.2109 -0.2459 -2.4727
  126OSM    H4G13473   6.207   5.725   7.180  0.1279  0.0752  0.4595
  126OSM    C5F13474   6.327   5.582   7.266 -1.0024 -0.3087  0.3646
  126OSM    H5F13475   6.418   5.644   7.252 -0.5768 -0.7928  0.9384
  126OSM    H5G13476   6.362   5.478   7.252 -0.0101 -0.3492  2.6970
  126OSM    C6F13477   6.277   5.616   7.404  1.2570  0.1041 -0.7529
  126OSM    H6F13478   6.182   5.561   7.423  0.7827  1.1145 -0.1114
  126OSM    H6G13479   6.248   5.723   7.394  1.7640  0.2333 -0.8537
  126OSM    C7F13480   6.370   5.606   7.529 -0.3872  0.2759  1.1407
  126OSM    H7F13481   6.399   5.500   7.541  2.5044  0.7422 -0.6752
  126OSM    H7G13482   6.313   5.634   7.620  1.2181  1.1385  1.9304
  126OSM    C8F13483   6.498   5.694   7.518  0.6918  0.3846 -0.6490
  126OSM    H8F13484   6.558   5.667   7.428  0.4458 -0.5232 -0.5503
  126OSM    H8G13485   6.564   5.677   7.605  2.7366  2.7009 -1.6080
  126OSM    C9F13486   6.453   5.839   7.507  0.4436  1.0930  0.3595
  126OSM    H9F13487   6.404   5.874   7.414  1.0267  0.3865 -0.2257
  126OSM   C10F13488   6.472   5.931   7.601 -0.8014  0.2763 -0.1070
  126OSM   H10F13489   6.430   6.030   7.579 -3.3454 -0.3369  1.5410
  126OSM   C11F13490   6.547   5.908   7.730  0.1987  0.2881  0.3462
  126OSM   H11F13491   6.642   5.860   7.697 -1.0043 -1.4430 -0.8212
  126OSM   H11G13492   6.496   5.830   7.790 -3.3515  1.7501 -0.5326
  126OSM   C12F13493   6.560   6.032   7.820  0.0971 -0.2944 -0.3230
  126OSM   H12F13494   6.593   6.117   7.757  0.3826  0.1079  0.3576
  126OSM   H12G13495   6.624   5.996   7.903  0.2374 -1.2795 -0.8409
  126OSM   C13F13496   6.426   6.070   7.880 -0.0191  0.2546 -0.1997
  126OSM   H13F13497   6.339   6.053   7.813  0.6354 -1.1536 -0.7267
  126OSM   H13G13498   6.422   6.178   7.908 -1.1121 -0.0277  0.8635
  126OSM   C14F13499   6.400   5.981   8.003  0.4073 -0.3362  0.5051
  126OSM   H14F13500   6.477   5.984   8.083  0.1802 -0.8280  0.7411
  126OSM   H14G13501   6.411   5.874   7.975  1.9937 -0.5089  1.6670
  126OSM   C15F13502   6.261   6.002   8.069  0.6283  0.5745 -0.2661
  126OSM   H15F13503   6.186   5.968   7.995  0.9156  1.0686 -0.7911
  126OSM   H15G13504   6.234   6.103   8.105 -0.7723 -0.1119  0.6840
  126OSM   C16F13505   6.252   5.904   8.185 -0.0011 -0.5360 -0.4821
  126OSM   H16F13506   6.306   5.935   8.277  2.6831 -1.7311 -1.5804
  126OSM   H16G13507   6.295   5.805   8.159  0.3574 -0.1627 -1.3512
  126OSM   C17F13508   6.101   5.876   8.219  0.1260 -0.3640 -0.0631
  126OSM   H17F13509   6.061   5.831   8.125  0.1186  0.3085 -0.3916
  126OSM   H17G13510   6.037   5.967   8.227  0.8895  0.1784 -0.0201
  126OSM   C18F13511   6.071   5.784   8.338 -0.4520 -0.0141 -0.4833
  126OSM   H18F13512   6.131   5.810   8.427 -0.3128 -0.1554 -0.5326
  126OSM   H18G13513   6.102   5.678   8.324  1.8073  0.7506 -1.7361
  126OSM   H18H13514   5.964   5.796   8.365  0.0311 -2.2542  2.9968
  127OSM      N13515   4.751   6.176   6.022  0.3229 -0.1052  0.3671
  127OSM    C1513516   4.866   6.081   6.006 -0.4642  0.0750 -0.1882
  127OSM   H15A13517   4.959   6.123   6.039 -0.4811  1.7875 -2.1308
  127OSM   H15B13518   4.867   6.071   5.898 -1.5105 -0.5186 -0.1563
  127OSM   H15C13519   4.845   5.981   6.040  1.8210 -1.0184 -1.7244
  127OSM    C1413520   4.633   6.101   5.978  0.2255  0.3728  0.2484
  127OSM   H14A13521   4.542   6.160   5.987 -2.1178 -2.2036 -3.5610
  127OSM   H14B13522   4.615   6.014   6.039  0.2217 -0.2806 -0.6747
  127OSM   H14C13523   4.637   6.070   5.875 -3.6688  0.3019 -0.0290
  127OSM    C1313524   4.746   6.195   6.170 -0.1043 -0.1642 -0.0811
  127OSM   H13A13525   4.685   6.279   6.199  1.5121  0.3982  1.8688
  127OSM   H13B13526   4.842   6.205   6.218  0.2922 -0.0729 -0.8764
  127OSM   H13C13527   4.709   6.108   6.222 -0.1315  0.8455  1.6309
  127OSM    C1213528   4.770   6.312   5.943 -0.1516  0.6877 -0.1349
  127OSM   H12A13529   4.814   6.305   5.844  0.0103  1.8819 -0.1633
  127OSM   H12B13530   4.846   6.362   6.001 -1.2093  1.5179  0.5698
  127OSM    C1113531   4.652   6.414   5.929 -0.4305  0.1617 -0.3252
  127OSM   H11A13532   4.583   6.369   5.855 -1.5256  3.5759 -1.5762
  127OSM   H11B13533   4.700   6.497   5.872 -0.7521  0.6837  0.1512
  127OSM      P13534   4.448   6.446   6.080  0.0808 -0.0710  0.0087
  127OSM    O1313535   4.384   6.574   6.035 -0.0544  0.1169 -0.3817
  127OSM    O1413536   4.395   6.319   6.020  0.6326 -0.1523  0.4051
  127OSM    O1113537   4.432   6.446   6.238 -0.2629 -0.0588 -0.3419
  127OSM    O1213538   4.606   6.457   6.058 -0.4139 -0.2150  0.1018
  127OSM    C1S13539   4.544   6.413   6.327  0.8263  0.3823 -0.1504
  127OSM    H1S13540   4.640   6.455   6.291  0.9181  4.0530  3.5857
  127OSM    H1T13541   4.548   6.303   6.341  1.1640  0.3988 -0.1143
  127OSM     NF13542   4.617   6.442   6.567  0.0995  0.2044  0.1325
  127OSM    HNF13543   4.607   6.364   6.628  0.6664 -0.2248 -0.3045
  127OSM    C2S13544   4.514   6.472   6.472 -0.2400 -0.0679 -0.1756
  127OSM    H2S13545   4.516   6.581   6.452  0.0347  0.1821  1.1205
  127OSM    C3S13546   4.368   6.420   6.510  0.0743  0.5545 -0.4137
  127OSM    H3S13547   4.360   6.309   6.505 -0.3425  0.5503  0.2822
  127OSM     O313548   4.258   6.461   6.428  0.0700 -0.9594  0.6104
  127OSM    HO313549   4.297   6.510   6.355 -1.3354 -2.4314 -1.2416
  127OSM    C4S13550   4.339   6.469   6.654  0.3741  0.0878  0.6529
  127OSM    H4S13551   4.351   6.382   6.720 -1.3056 -0.0618  0.8175
  127OSM    C5S13552   4.287   6.589   6.694 -0.6023  0.2881 -0.5359
  127OSM    H5S13553   4.245   6.664   6.624 -1.7703 -0.1829 -0.3654
  127OSM    C6S13554   4.257   6.620   6.840 -0.0058 -0.3817 -0.7552
  127OSM    H6S13555   4.157   6.669   6.843  0.6434  1.0331  2.7800
  127OSM    H6T13556   4.331   6.697   6.872 -1.3754  0.1159  1.3534
  127OSM    C7S13557   4.249   6.510   6.939  0.2585 -0.4383 -0.0608
  127OSM    H7S13558   4.342   6.451   6.931 -1.0909 -2.8248  0.7884
  127OSM    H7T13559   4.170   6.439   6.905 -0.5037  1.0415 -1.4695
  127OSM    C8S13560   4.216   6.564   7.079  0.2196  0.8186  0.2236
  127OSM    H8S13561   4.105   6.572   7.080  0.1128 -0.3777 -0.7670
  127OSM    H8T13562   4.253   6.668   7.092  1.3160  0.6077 -1.0298
  127OSM    C9S13563   4.265   6.480   7.203 -0.5984  0.1991 -0.3444
  127OSM    H9S13564   4.366   6.446   7.173 -0.0760  0.2995  1.2082
  127OSM    H9T13565   4.196   6.394   7.213 -1.3311  0.6550 -1.3332
  127OSM   C10S13566   4.276   6.582   7.324  0.2597 -0.0963  0.4679
  127OSM   H10S13567   4.197   6.660   7.326  0.1034 -0.2188 -0.3936
  127OSM   H10T13568   4.378   6.626   7.318  0.2094  0.1395  1.2537
  127OSM   C11S13569   4.242   6.507   7.456  0.2652 -0.4730  0.7106
  127OSM   H11S13570   4.312   6.422   7.468  2.3745  1.0074 -0.4546
  127OSM   H11T13571   4.142   6.458   7.450  0.4758 -0.8255  0.0334
  127OSM   C12S13572   4.249   6.591   7.582  0.3408  0.1655 -0.1581
  127OSM   H12S13573   4.163   6.660   7.593 -0.7052 -0.8041 -1.7284
  127OSM   H12T13574   4.341   6.652   7.574 -0.7408  1.7373 -1.0780
  127OSM   C13S13575   4.256   6.509   7.712 -0.4149  0.1008 -0.0033
  127OSM   H13S13576   4.317   6.418   7.694  0.0490  0.2818  0.6205
  127OSM   H13T13577   4.152   6.475   7.733 -0.5338 -0.9421 -2.0137
  127OSM   C14S13578   4.320   6.589   7.830  0.2003 -0.2182  0.5230
  127OSM   H14S13579   4.273   6.689   7.817  0.3232 -0.4628 -2.6018
  127OSM   H14T13580   4.426   6.594   7.798 -0.0482 -0.7389 -0.4199
  127OSM   C15S13581   4.310   6.529   7.974 -0.0053 -0.2928  0.1737
  127OSM   H15S13582   4.378   6.592   8.035 -1.2155  2.2443 -0.9662
  127OSM   H15T13583   4.347   6.424   7.974  1.5156  0.2176 -0.8192
  127OSM   C16S13584   4.165   6.538   8.034 -0.3019  0.2686 -0.4171
  127OSM   H16S13585   4.090   6.511   7.956 -2.3815  2.0470  0.8716
  127OSM   H16T13586   4.140   6.641   8.067 -0.2018 -0.5798  2.6107
  127OSM   C17S13587   4.141   6.452   8.159 -0.0457 -0.0464  0.0108
  127OSM   H17S13588   4.188   6.352   8.148 -0.8680 -0.4250 -0.1299
  127OSM   H17T13589   4.037   6.419   8.178  0.2498 -0.0209  1.8147
  127OSM   C18S13590   4.185   6.518   8.289  0.3244 -0.0919  0.6006
  127OSM   H18S13591   4.147   6.461   8.376  2.0969  0.4081  1.7624
  127OSM   H18T13592   4.152   6.622   8.309 -1.3877 -0.5483  0.2993
  127OSM   H18U13593   4.296   6.512   8.297  0.5831  0.3726 -1.9255
  127OSM    C1F13594   4.739   6.500   6.557 -0.3053  0.4980  0.6624
  127OSM     OF13595   4.763   6.573   6.457 -0.3559 -0.0172 -0.1613
  127OSM    C2F13596   4.827   6.470   6.676 -0.2079  0.1658  0.1157
  127OSM    H2F13597   4.852   6.363   6.660 -0.3084  0.5389 -3.1809
  127OSM    H2G13598   4.775   6.498   6.770 -0.5640  1.1878 -0.3788
  127OSM    C3F13599   4.969   6.531   6.669 -0.5497 -0.7096  0.2895
  127OSM    H3F13600   4.964   6.638   6.639 -1.8890 -1.0144 -0.6700
  127OSM    H3G13601   5.014   6.481   6.581  0.7258  0.8406  0.0072
  127OSM    C4F13602   5.062   6.513   6.791  0.7039  0.3727  0.2735
  127OSM    H4F13603   5.030   6.582   6.872 -1.2288 -0.0134 -0.1295
  127OSM    H4G13604   5.163   6.545   6.756  0.2133  2.6466  0.7983
  127OSM    C5F13605   5.076   6.379   6.861  0.1209 -0.2047 -0.7195
  127OSM    H5F13606   5.130   6.311   6.792  1.3499  0.3243 -0.3106
  127OSM    H5G13607   4.982   6.331   6.894  0.2848  0.9817  1.7108
  127OSM    C6F13608   5.167   6.387   6.990  0.2985  0.3883 -0.2614
  127OSM    H6F13609   5.237   6.473   6.982  1.4326 -0.0816  3.0544
  127OSM    H6G13610   5.225   6.294   7.010  2.7819  1.6977 -0.9271
  127OSM    C7F13611   5.091   6.425   7.124 -0.0992 -0.3621 -0.1159
  127OSM    H7F13612   5.000   6.364   7.138 -0.5106  0.6654  2.2085
  127OSM    H7G13613   5.059   6.531   7.113  0.2488 -0.3440 -1.0238
  127OSM    C8F13614   5.178   6.406   7.253  0.0189  0.4169  0.0552
  127OSM    H8F13615   5.254   6.486   7.254  0.9280 -0.4310  0.9377
  127OSM    H8G13616   5.234   6.310   7.250 -0.2999  0.2384 -2.2891
  127OSM    C9F13617   5.089   6.418   7.372 -0.4398 -0.7197  0.0261
  127OSM    H9F13618   5.033   6.325   7.393 -2.0841  0.2175 -0.0777
  127OSM   C10F13619   5.071   6.522   7.456 -0.6787 -0.1947 -0.1001
  127OSM   H10F13620   5.005   6.517   7.544 -1.1529  1.4036 -0.3485
  127OSM   C11F13621   5.124   6.657   7.434 -0.2589 -0.5288 -0.7170
  127OSM   H11F13622   5.037   6.726   7.430  0.2336  0.3758  1.9758
  127OSM   H11G13623   5.173   6.674   7.336  3.3606  0.9793  1.1493
  127OSM   C12F13624   5.203   6.701   7.557 -0.1921 -0.8364  0.3093
  127OSM   H12F13625   5.241   6.802   7.532 -2.2787  0.5855  2.4319
  127OSM   H12G13626   5.280   6.628   7.589 -0.4605 -1.1064  0.3365
  127OSM   C13F13627   5.108   6.735   7.676 -0.5412 -0.3049 -0.2352
  127OSM   H13F13628   5.051   6.644   7.706  1.2234 -0.5382  2.8356
  127OSM   H13G13629   5.049   6.819   7.632 -0.1568 -1.1655 -2.5334
  127OSM   C14F13630   5.188   6.780   7.798 -0.1608 -0.1243  0.0898
  127OSM   H14F13631   5.255   6.859   7.757 -0.7778 -0.2123 -1.1505
  127OSM   H14G13632   5.250   6.689   7.816 -0.9006 -0.6730 -0.0820
  127OSM   C15F13633   5.090   6.821   7.909  0.1505 -0.3496  0.0111
  127OSM   H15F13634   5.041   6.730   7.950 -1.1122  0.7319  1.0154
  127OSM   H15G13635   5.005   6.888   7.881 -0.0377 -0.5134  0.1831
  127OSM   C16F13636   5.152   6.903   8.023 -0.1295  0.9914  0.0793
  127OSM   H16F13637   5.166   7.011   7.999 -0.4341  1.1618  0.6341
  127OSM   H16G13638   5.253   6.861   8.040 -0.6258 -1.2404 -1.9031
  127OSM   C17F13639   5.060   6.889   8.146  0.2157  0.6776  0.1455
  127OSM   H17F13640   5.061   6.779   8.160 -0.4623  0.7829  1.0980
  127OSM   H17G13641   4.953   6.909   8.124 -0.0429 -0.1464  0.6099
  127OSM   C18F13642   5.102   6.966   8.255 -0.9060 -0.3411  0.3583
  127OSM   H18F13643   5.207   6.944   8.282 -0.7228  0.7821  0.6169
  127OSM   H18G13644   5.029   6.943   8.336  1.3569 -2.3336  1.9514
  127OSM   H18H13645   5.091   7.073   8.225 -1.9591 -0.4357  0.3546
  128OSM      N13646   4.154   3.155   6.060  0.1727  0.4050 -0.1117
  128OSM    C1513647   4.256   3.253   6.030 -0.6088  0.5114  0.3750
  128OSM   H15A13648   4.352   3.245   6.079  0.8458  2.1161 -2.0368
  128OSM   H15B13649   4.214   3.351   6.048  0.1386  0.9116 -0.0191
  128OSM   H15C13650   4.285   3.242   5.927  0.7155  1.5003  0.6105
  128OSM    C1413651   4.214   3.024   6.023  0.4697  0.3078  0.0413
  128OSM   H14A13652   4.243   3.013   5.919  2.1652 -1.2271  0.6258
  128OSM   H14B13653   4.132   2.957   6.040  1.0150 -0.1063  1.1227
  128OSM   H14C13654   4.290   2.991   6.092 -0.8812 -1.6973  0.6369
  128OSM    C1313655   4.129   3.150   6.205  0.1108  0.5692 -0.5986
  128OSM   H13A13656   4.220   3.154   6.263  1.0135 -0.7817 -1.8445
  128OSM   H13B13657   4.088   3.053   6.231  1.2618  0.2801  0.2265
  128OSM   H13C13658   4.062   3.230   6.231 -1.2368  0.1533 -2.5679
  128OSM    C1213659   4.022   3.168   5.984  0.2569 -0.2664  0.4265
  128OSM   H12A13660   4.052   3.177   5.881  1.3860  1.3866  0.8746
  128OSM   H12B13661   3.984   3.266   6.009  0.0561 -0.7713  2.2656
  128OSM    C1113662   3.909   3.066   6.005  0.0366 -0.3085 -0.2010
  128OSM   H11A13663   3.949   2.963   5.990  0.8348  0.0591 -0.6753
  128OSM   H11B13664   3.840   3.095   5.923 -0.2604  0.7372  0.4068
  128OSM      P13665   3.730   2.990   6.170  0.0270 -0.1511  0.2818
  128OSM    O1313666   3.620   3.028   6.075  0.2390  0.4084  0.1693
  128OSM    O1413667   3.775   2.851   6.176 -0.7057 -0.1829  0.7632
  128OSM    O1113668   3.671   3.024   6.310 -0.3153 -0.0240  0.3927
  128OSM    O1213669   3.851   3.080   6.139 -0.2814  0.5660 -0.3902
  128OSM    C1S13670   3.753   3.028   6.429 -0.1260 -0.4436  0.4218
  128OSM    H1S13671   3.845   3.087   6.408 -0.2738  0.1318  1.3543
  128OSM    H1T13672   3.777   2.923   6.459 -1.6189 -0.2536  2.4631
  128OSM     NF13673   3.771   3.105   6.674  0.3102  0.4301  0.4660
  128OSM    HNF13674   3.757   3.050   6.756 -1.6052 -1.8916 -1.2536
  128OSM    C2S13675   3.678   3.082   6.560 -0.4933  0.0875  0.2057
  128OSM    H2S13676   3.639   3.181   6.529 -0.1404  1.0590  2.6826
  128OSM    C3S13677   3.562   2.990   6.595 -0.1155 -0.2377 -0.1607
  128OSM    H3S13678   3.611   2.898   6.632  1.8068  0.8334  0.0756
  128OSM     O313679   3.481   2.949   6.485  0.1984 -0.0224 -0.2647
  128OSM    HO313680   3.532   2.975   6.408  0.4387 -1.3829 -0.5905
  128OSM    C4S13681   3.472   3.054   6.702 -0.2551  0.2593  0.0212
  128OSM    H4S13682   3.509   3.032   6.804 -1.1473 -1.5869 -0.0129
  128OSM    C5S13683   3.369   3.137   6.688  0.1089 -0.5575  0.6380
  128OSM    H5S13684   3.339   3.170   6.587  2.1117 -0.2114  0.1134
  128OSM    C6S13685   3.289   3.188   6.804 -0.1795  0.0713  0.3252
  128OSM    H6S13686   3.190   3.214   6.762  0.0932 -0.3011 -0.5611
  128OSM    H6T13687   3.345   3.281   6.829  1.4362 -0.3288 -1.5834
  128OSM    C7S13688   3.271   3.091   6.922 -0.4781 -0.3947  0.6920
  128OSM    H7S13689   3.361   3.048   6.971 -0.8078 -1.1763  0.6121
  128OSM    H7T13690   3.210   3.007   6.884  0.1735 -0.8206  0.5905
  128OSM    C8S13691   3.203   3.165   7.036  0.5043 -0.3289 -0.0362
  128OSM    H8S13692   3.100   3.203   7.018  0.5603  0.7296  1.6735
  128OSM    H8T13693   3.258   3.260   7.055 -0.1344  0.2481 -0.9853
  128OSM    C9S13694   3.204   3.083   7.167  0.2459  0.1623  0.3237
  128OSM    H9S13695   3.303   3.038   7.189  0.1698 -0.5776 -0.7661
  128OSM    H9T13696   3.136   2.996   7.154  1.6738 -0.7655 -1.3524
  128OSM   C10S13697   3.156   3.159   7.296 -0.7577  0.2237  0.4547
  128OSM   H10S13698   3.053   3.188   7.268  0.5536  2.1979 -2.9895
  128OSM   H10T13699   3.218   3.247   7.323 -0.4710  0.3457 -0.5575
  128OSM   C11S13700   3.163   3.061   7.411 -0.3152  0.6592  0.3177
  128OSM   H11S13701   3.262   3.012   7.411 -0.0356  1.2204  0.5720
  128OSM   H11T13702   3.100   2.972   7.387  1.0907 -0.1718 -0.3955
  128OSM   C12S13703   3.129   3.130   7.541  0.1954 -0.2143 -0.4558
  128OSM   H12S13704   3.031   3.181   7.526 -0.6573 -1.9532 -0.9941
  128OSM   H12T13705   3.204   3.204   7.577  1.9010 -1.7432 -0.7386
  128OSM   C13S13706   3.117   3.028   7.662 -0.8807 -0.4692  0.5269
  128OSM   H13S13707   3.207   2.963   7.652 -0.3966 -0.2194  2.6415
  128OSM   H13T13708   3.025   2.969   7.642  0.0188 -1.3096 -1.3783
  128OSM   C14S13709   3.120   3.091   7.800  0.4685  0.0186 -0.3336
  128OSM   H14S13710   3.028   3.151   7.816  0.2717 -0.5968  1.0613
  128OSM   H14T13711   3.212   3.153   7.803  0.8762 -0.5983  2.0876
  128OSM   C15S13712   3.139   3.009   7.930  0.5651 -0.4187  0.3931
  128OSM   H15S13713   3.233   2.951   7.917 -0.5727 -2.1901 -0.2766
  128OSM   H15T13714   3.059   2.932   7.942  0.1436 -0.0359  0.0940
  128OSM   C16S13715   3.164   3.107   8.047 -0.9365  0.3414  0.0469
  128OSM   H16S13716   3.067   3.158   8.065  0.6564  4.1418 -1.1585
  128OSM   H16T13717   3.238   3.184   8.016  1.2244 -1.4097  0.5335
  128OSM   C17S13718   3.226   3.042   8.169  0.3956 -0.0033  0.0785
  128OSM   H17S13719   3.229   3.123   8.245  1.9161 -0.3528  0.4238
  128OSM   H17T13720   3.335   3.022   8.155  0.9135  1.2994  1.8309
  128OSM   C18S13721   3.152   2.918   8.226 -0.8079 -0.2085  0.6368
  128OSM   H18S13722   3.171   2.903   8.335 -0.8592 -0.6840  0.5817
  128OSM   H18T13723   3.184   2.819   8.185 -2.8851 -1.3349  1.5741
  128OSM   H18U13724   3.042   2.926   8.225 -0.7860  0.1970 -1.3297
  128OSM    C1F13725   3.856   3.205   6.690  1.1140  0.6974 -0.1217
  128OSM     OF13726   3.867   3.293   6.606 -0.9112 -0.0978 -0.2172
  128OSM    C2F13727   3.926   3.209   6.822  0.0880  0.5511  0.2013
  128OSM    H2F13728   3.988   3.118   6.835 -0.7129  0.2572  2.2813
  128OSM    H2G13729   3.851   3.199   6.903 -0.4601  0.4929 -0.3081
  128OSM    C3F13730   4.017   3.336   6.841  0.2319  1.1413 -1.1311
  128OSM    H3F13731   3.946   3.420   6.854 -0.7401  0.4100 -1.5606
  128OSM    H3G13732   4.080   3.358   6.752 -0.0879  1.5237 -1.2647
  128OSM    C4F13733   4.097   3.332   6.961 -0.2380 -0.7969  0.6679
  128OSM    H4F13734   4.155   3.428   6.956 -3.1232  1.0087 -0.2952
  128OSM    H4G13735   4.165   3.246   6.947 -0.0926 -0.7184  0.8885
  128OSM    C5F13736   4.023   3.318   7.097  0.1212 -0.2181 -0.2333
  128OSM    H5F13737   3.961   3.226   7.086  2.1436 -1.8806  1.3881
  128OSM    H5G13738   3.957   3.407   7.104  1.9755  1.2844 -1.0261
  128OSM    C6F13739   4.113   3.316   7.226 -0.0889 -0.0862  1.4246
  128OSM    H6F13740   4.176   3.225   7.233 -0.4877 -0.3347  1.7607
  128OSM    H6G13741   4.041   3.326   7.309 -1.3078  0.7558  0.3205
  128OSM    C7F13742   4.212   3.442   7.234  0.2007 -0.0870 -0.1776
  128OSM    H7F13743   4.149   3.532   7.245  1.5006  0.7400  0.7660
  128OSM    H7G13744   4.267   3.460   7.140  1.4451  2.8589  1.0161
  128OSM    C8F13745   4.312   3.431   7.347 -0.0796  0.5558  0.3586
  128OSM    H8F13746   4.387   3.511   7.328 -0.2474  1.2138  2.2847
  128OSM    H8G13747   4.353   3.330   7.324 -0.0466  0.5774  0.3225
  128OSM    C9F13748   4.248   3.448   7.485 -0.4778  0.3702 -0.4483
  128OSM    H9F13749   4.144   3.413   7.498 -0.5787  1.1914  1.1895
  128OSM   C10F13750   4.277   3.535   7.581 -0.3110  0.2640  0.0777
  128OSM   H10F13751   4.222   3.529   7.676  0.9912  2.3903  1.0536
  128OSM   C11F13752   4.387   3.640   7.598 -0.2456 -0.2926  0.0169
  128OSM   H11F13753   4.410   3.696   7.505  0.6734  0.1682  0.5046
  128OSM   H11G13754   4.484   3.595   7.630  0.6767  1.6109  0.0223
  128OSM   C12F13755   4.348   3.745   7.709 -0.1520  0.1218 -0.1031
  128OSM   H12F13756   4.240   3.772   7.701 -0.1633  0.4623  1.0429
  128OSM   H12G13757   4.409   3.837   7.697  2.2256 -1.4837 -0.9188
  128OSM   C13F13758   4.365   3.687   7.853  0.2440 -0.3179 -0.2469
  128OSM   H13F13759   4.472   3.682   7.881  0.0345  1.8135  1.1100
  128OSM   H13G13760   4.334   3.580   7.856 -0.9204 -0.0035 -0.3751
  128OSM   C14F13761   4.275   3.760   7.957  0.2202 -0.2899 -0.0412
  128OSM   H14F13762   4.169   3.756   7.924 -0.3038  0.1039  1.4825
  128OSM   H14G13763   4.292   3.870   7.960 -2.3507  0.1448  1.2986
  128OSM   C15F13764   4.290   3.706   8.104 -0.8502  0.0188 -0.0303
  128OSM   H15F13765   4.268   3.597   8.103  1.4663 -0.5009 -0.8995
  128OSM   H15G13766   4.225   3.767   8.170  0.2802  1.2971 -0.0569
  128OSM   C16F13767   4.439   3.729   8.168  0.7188 -0.2046 -0.2129
  128OSM   H16F13768   4.468   3.834   8.145  1.3143 -0.4587 -0.6384
  128OSM   H16G13769   4.507   3.661   8.112  1.6988  0.7664 -0.2395
  128OSM   C17F13770   4.460   3.705   8.320  0.7759  0.4426 -0.2558
  128OSM   H17F13771   4.569   3.693   8.340  0.8608 -0.2970 -1.1029
  128OSM   H17G13772   4.409   3.609   8.344 -0.5727  1.0460 -0.6516
  128OSM   C18F13773   4.396   3.817   8.406 -0.3010 -0.5285 -0.7351
  128OSM   H18F13774   4.419   3.803   8.514 -1.5196  1.0784 -0.2324
  128OSM   H18G13775   4.290   3.842   8.386  0.6897  2.8203 -2.5419
  128OSM   H18H13776   4.449   3.910   8.377 -0.5859  0.9267  2.8469
  129OSM      N13777   1.971   5.184   6.122 -1.0036  0.0006 -0.5230
  129OSM    C1513778   2.016   5.134   5.985 -0.1958  0.0107  0.3260
  129OSM   H15A13779   1.980   5.032   5.983 -1.2614  0.3671  0.6514
  129OSM   H15B13780   2.124   5.141   5.983 -0.2084  0.1181 -0.5471
  129OSM   H15C13781   1.983   5.192   5.900 -0.8679 -2.3061 -1.0879
  129OSM    C1413782   1.824   5.180   6.130 -0.0806  0.4029  0.0889
  129OSM   H14A13783   1.777   5.263   6.079  1.7314  0.3604 -1.7529
  129OSM   H14B13784   1.788   5.171   6.232 -0.8437  1.7534 -0.0327
  129OSM   H14C13785   1.796   5.089   6.079  2.7813 -0.5976  0.1262
  129OSM    C1313786   2.035   5.104   6.228  0.0198 -0.2328 -0.2732
  129OSM   H13A13787   2.031   5.152   6.325  2.8116  0.2878 -0.3235
  129OSM   H13B13788   2.138   5.092   6.196  0.9104  2.4682  1.2330
  129OSM   H13C13789   1.988   5.007   6.232 -1.6156  0.4653 -1.5198
  129OSM    C1213790   2.020   5.327   6.138 -0.0941 -0.2979 -0.2276
  129OSM   H12A13791   1.981   5.371   6.046  2.1244 -1.7097 -1.9415
  129OSM   H12B13792   2.127   5.326   6.123 -0.1416 -1.5356 -0.6210
  129OSM    C1113793   1.979   5.418   6.257  0.6538 -0.3477  0.2640
  129OSM   H11A13794   2.063   5.489   6.261  0.7875 -0.3831 -1.3835
  129OSM   H11B13795   1.968   5.370   6.357 -2.6118 -0.8108 -0.2036
  129OSM      P13796   1.849   5.642   6.235 -0.1515 -0.1503 -0.0212
  129OSM    O1313797   1.963   5.701   6.162 -0.8143  0.2665 -0.1024
  129OSM    O1413798   1.717   5.685   6.181  0.1703  0.1576  0.3315
  129OSM    O1113799   1.865   5.685   6.381  0.4561 -0.6787 -0.6604
  129OSM    O1213800   1.854   5.485   6.238 -0.2272 -0.3692 -0.2658
  129OSM    C1S13801   1.800   5.604   6.484  0.0620 -1.0565 -0.0571
  129OSM    H1S13802   1.840   5.501   6.470  1.6409 -0.2272 -2.2747
  129OSM    H1T13803   1.689   5.602   6.473  0.2135 -0.6847 -1.9613
  129OSM     NF13804   1.778   5.560   6.727  0.6368 -0.1269 -0.3872
  129OSM    HNF13805   1.703   5.592   6.784  2.0798  1.4219  0.7583
  129OSM    C2S13806   1.822   5.657   6.626 -0.7678 -0.2412  0.2274
  129OSM    H2S13807   1.932   5.662   6.641 -1.1992  0.9810  4.0495
  129OSM    C3S13808   1.759   5.792   6.643 -0.4092  0.4352 -0.7009
  129OSM    H3S13809   1.650   5.772   6.638 -0.4387  0.7819 -1.8539
  129OSM     O313810   1.790   5.887   6.547 -0.3185  0.5098 -0.2116
  129OSM    HO313811   1.848   5.839   6.486  0.4810  1.6632 -0.4012
  129OSM    C4S13812   1.790   5.850   6.780 -0.1909 -0.2852  0.5368
  129OSM    H4S13813   1.708   5.838   6.854  0.2176 -1.0889  0.8739
  129OSM    C5S13814   1.906   5.911   6.825 -0.0519  0.0704 -0.2321
  129OSM    H5S13815   1.989   5.920   6.754  0.0598  0.5692 -0.0374
  129OSM    C6S13816   1.937   5.967   6.961 -0.0746 -0.0754  0.6208
  129OSM    H6S13817   1.948   6.074   6.935 -2.3551  0.6428  2.2559
  129OSM    H6T13818   2.033   5.918   6.990  0.1873  0.4577  0.6563
  129OSM    C7S13819   1.835   5.940   7.078 -0.4124  0.0872  0.2958
  129OSM    H7S13820   1.827   5.831   7.096 -0.8434 -0.1007 -0.9162
  129OSM    H7T13821   1.734   5.971   7.044 -0.6475 -1.9012 -0.9803
  129OSM    C8S13822   1.878   6.015   7.200  0.6458  0.0563  0.2817
  129OSM    H8S13823   1.986   6.001   7.226  1.0924  1.5428 -0.6923
  129OSM    H8T13824   1.814   5.998   7.289 -1.2530  2.5654 -0.5173
  129OSM    C9S13825   1.874   6.163   7.160  0.2092 -0.3206 -0.1735
  129OSM    H9S13826   1.778   6.194   7.113  0.1291  0.9787  0.7714
  129OSM    H9T13827   1.955   6.200   7.095  1.9547 -1.3785  1.3150
  129OSM   C10S13828   1.880   6.253   7.293  0.3893 -0.0807 -0.2429
  129OSM   H10S13829   1.921   6.350   7.257  2.5098 -1.7662 -2.8151
  129OSM   H10T13830   1.959   6.226   7.367 -1.3824 -0.2341  1.6858
  129OSM   C11S13831   1.752   6.255   7.369 -0.2727  0.4594 -0.9178
  129OSM   H11S13832   1.728   6.149   7.391 -2.1088  0.9456 -0.3867
  129OSM   H11T13833   1.669   6.308   7.317 -0.5299  0.0220 -0.9602
  129OSM   C12S13834   1.771   6.318   7.506  0.3358 -0.2770 -0.2423
  129OSM   H12S13835   1.795   6.427   7.510  3.1132 -0.8308 -0.1143
  129OSM   H12T13836   1.855   6.274   7.564  1.4522  2.0404  0.0290
  129OSM   C13S13837   1.646   6.290   7.593 -0.0397  0.3020 -0.4283
  129OSM   H13S13838   1.611   6.185   7.593  0.0363  0.2436 -2.2841
  129OSM   H13T13839   1.564   6.346   7.543 -0.2748  1.2271  0.9410
  129OSM   C14S13840   1.676   6.321   7.741 -0.5398 -1.2920 -0.1887
  129OSM   H14S13841   1.729   6.417   7.759  0.2589 -1.8486  0.5211
  129OSM   H14T13842   1.738   6.242   7.789  0.0349  1.1722  3.6132
  129OSM   C15S13843   1.540   6.308   7.820 -0.4776 -0.9852 -0.0578
  129OSM   H15S13844   1.503   6.208   7.788 -1.2541 -0.2588 -1.5197
  129OSM   H15T13845   1.469   6.386   7.785  1.0034  0.4010 -0.0655
  129OSM   C16S13846   1.565   6.323   7.972 -0.1410 -0.8400  0.1856
  129OSM   H16S13847   1.615   6.414   8.011 -0.0653 -1.1355  0.7965
  129OSM   H16T13848   1.635   6.239   7.991  0.1122 -1.0464 -1.4940
  129OSM   C17S13849   1.428   6.285   8.041 -0.8104  0.2992  0.0186
  129OSM   H17S13850   1.386   6.212   7.968  1.1475 -0.3973 -0.4654
  129OSM   H17T13851   1.361   6.373   8.030  0.7634  1.6916  1.1695
  129OSM   C18S13852   1.440   6.226   8.181 -0.5401  0.1655 -0.0762
  129OSM   H18S13853   1.513   6.142   8.187 -1.9321 -1.0271  0.9986
  129OSM   H18T13854   1.343   6.190   8.222 -2.2921  2.3629 -2.0156
  129OSM   H18U13855   1.478   6.302   8.253 -0.5724 -1.1095  1.3566
  129OSM    C1F13856   1.828   5.441   6.738 -0.7735 -0.4274 -0.3116
  129OSM     OF13857   1.916   5.401   6.660  0.6377  0.1938 -0.3719
  129OSM    C2F13858   1.760   5.351   6.840  0.8562 -0.4683  0.1653
  129OSM    H2F13859   1.743   5.250   6.796 -1.5141  0.9619 -2.5540
  129OSM    H2G13860   1.661   5.389   6.873 -1.5208 -2.6649 -3.6378
  129OSM    C3F13861   1.839   5.332   6.976  0.3884 -0.1200  0.8791
  129OSM    H3F13862   1.941   5.292   6.960 -0.0105 -0.0837 -2.2750
  129OSM    H3G13863   1.780   5.255   7.031 -0.6396 -0.7131 -0.9795
  129OSM    C4F13864   1.850   5.462   7.055 -0.1968  0.0818 -0.9511
  129OSM    H4F13865   1.747   5.497   7.074  0.3333  1.0088  0.4090
  129OSM    H4G13866   1.909   5.540   7.001  0.7738 -0.3449 -0.5354
  129OSM    C5F13867   1.905   5.437   7.197 -0.3855  0.3209  0.8387
  129OSM    H5F13868   1.928   5.532   7.250 -0.8157 -0.4880  2.5381
  129OSM    H5G13869   2.000   5.380   7.200 -0.6900 -0.3483 -1.0113
  129OSM    C6F13870   1.810   5.363   7.292 -0.7658  0.2427  0.7259
  129OSM    H6F13871   1.800   5.263   7.245 -2.7500  0.5444  0.4279
  129OSM    H6G13872   1.714   5.417   7.280 -0.3863  0.4735 -1.7388
  129OSM    C7F13873   1.860   5.352   7.438  0.5146 -0.3573  0.0434
  129OSM    H7F13874   1.888   5.455   7.469  0.6825 -0.2038 -0.6097
  129OSM    H7G13875   1.961   5.305   7.446  0.2349 -0.8884  0.5612
  129OSM    C8F13876   1.756   5.280   7.532 -0.0255 -0.5431 -1.0592
  129OSM    H8F13877   1.763   5.170   7.517 -0.5238 -0.7849  0.3241
  129OSM    H8G13878   1.651   5.300   7.506  0.2011  1.1051 -0.8219
  129OSM    C9F13879   1.778   5.282   7.685  0.1014  0.2881  0.5741
  129OSM    H9F13880   1.880   5.259   7.717  0.7305 -2.5278 -2.8288
  129OSM   C10F13881   1.676   5.276   7.773 -0.3339 -0.1474 -0.3473
  129OSM   H10F13882   1.698   5.268   7.881 -0.5871  0.9599 -0.1960
  129OSM   C11F13883   1.525   5.287   7.751 -0.4035  0.0693  0.0200
  129OSM   H11F13884   1.472   5.216   7.817 -0.9344 -1.1833 -1.6763
  129OSM   H11G13885   1.501   5.260   7.645 -1.2819 -0.5976  0.3774
  129OSM   C12F13886   1.448   5.415   7.789  0.8339  0.2157  0.0905
  129OSM   H12F13887   1.490   5.494   7.723 -2.7059  2.7326  0.5948
  129OSM   H12G13888   1.470   5.450   7.892 -1.3183  2.6907 -0.1863
  129OSM   C13F13889   1.296   5.412   7.770  0.1526 -0.5369 -0.2576
  129OSM   H13F13890   1.267   5.348   7.684 -0.1273  1.0700 -1.3905
  129OSM   H13G13891   1.263   5.517   7.756  1.5599 -0.1222 -0.6600
  129OSM   C14F13892   1.215   5.349   7.888  0.6664 -0.7469 -0.5265
  129OSM   H14F13893   1.270   5.387   7.977 -2.8677  2.0109  0.7349
  129OSM   H14G13894   1.219   5.240   7.905 -0.3090 -0.3355  3.1109
  129OSM   C15F13895   1.063   5.392   7.897 -0.8968  0.5861  0.3935
  129OSM   H15F13896   1.022   5.356   7.800 -1.2856  1.1711  0.3376
  129OSM   H15G13897   1.061   5.503   7.891  0.5097  0.5919 -0.5269
  129OSM   C16F13898   0.981   5.318   7.999  0.2009  0.4649 -0.2154
  129OSM   H16F13899   1.007   5.210   8.000 -0.3417  0.3324 -0.2274
  129OSM   H16G13900   0.873   5.331   7.976  0.6110 -1.7676 -4.2702
  129OSM   C17F13901   0.999   5.377   8.139 -0.3428 -0.4761 -0.1061
  129OSM   H17F13902   0.981   5.486   8.124 -1.4087 -0.6616 -0.1877
  129OSM   H17G13903   1.095   5.347   8.187  0.1285  0.3131 -0.5225
  129OSM   C18F13904   0.897   5.313   8.236  0.7511 -0.5504  0.2232
  129OSM   H18F13905   0.790   5.332   8.209  1.0652 -0.0853 -0.7309
  129OSM   H18G13906   0.916   5.354   8.337 -0.8606  0.3104  0.2225
  129OSM   H18H13907   0.906   5.202   8.237 -0.8978 -0.7623 -1.2678
  130OSM      N13908   4.048   2.310   6.274 -0.0079  0.0341  0.1532
  130OSM    C1513909   3.918   2.249   6.320 -0.1805 -0.9784 -0.0516
  130OSM   H15A13910   3.888   2.304   6.407  1.7075  0.0975 -0.0310
  130OSM   H15B13911   3.934   2.148   6.355  1.2310 -1.6588 -2.3774
  130OSM   H15C13912   3.850   2.246   6.236  1.3812  2.4806 -1.6308
  130OSM    C1413913   4.021   2.447   6.204 -0.6639 -0.3240 -0.5589
  130OSM   H14A13914   3.969   2.514   6.270 -2.0947 -1.9416  0.0492
  130OSM   H14B13915   3.954   2.434   6.120 -1.1322  2.9182 -0.8099
  130OSM   H14C13916   4.107   2.504   6.173 -2.3705  1.8626 -1.5541
  130OSM    C1313917   4.138   2.340   6.385  0.4356  0.1668 -0.1626
  130OSM   H13A13918   4.105   2.426   6.441  1.3791  1.0730 -0.9691
  130OSM   H13B13919   4.233   2.360   6.337 -0.1588  3.8284 -0.0561
  130OSM   H13C13920   4.159   2.255   6.449  0.5605 -1.6259 -2.4530
  130OSM    C1213921   4.118   2.209   6.179  0.4295  0.4732  0.5424
  130OSM   H12A13922   4.045   2.173   6.107 -0.6232 -0.6138  2.1081
  130OSM   H12B13923   4.136   2.121   6.238  1.2152 -0.5363 -1.1410
  130OSM    C1113924   4.250   2.250   6.109 -0.0767  0.0938 -0.4994
  130OSM   H11A13925   4.235   2.341   6.047 -0.0061  0.5073  0.0909
  130OSM   H11B13926   4.280   2.164   6.046  0.5858  0.9655 -1.3999
  130OSM      P13927   4.432   2.149   6.285  0.0413  0.7903  0.1153
  130OSM    O1313928   4.522   2.076   6.194  0.1906 -0.8599  0.0709
  130OSM    O1413929   4.492   2.202   6.405 -0.5656 -0.6428  0.3422
  130OSM    O1113930   4.318   2.047   6.318 -0.3965 -0.3068 -0.2197
  130OSM    O1213931   4.349   2.262   6.213  0.0664  0.3495  0.3606
  130OSM    C1S13932   4.277   2.023   6.455  0.1025  0.6436 -0.7495
  130OSM    H1S13933   4.217   2.109   6.490  0.7030  0.8178 -0.1223
  130OSM    H1T13934   4.366   2.000   6.519 -0.9369 -0.7578  0.2682
  130OSM     NF13935   4.170   1.884   6.621  0.4949  0.3765 -0.7172
  130OSM    HNF13936   4.231   1.824   6.672 -1.7752 -2.8785 -1.4878
  130OSM    C2S13937   4.196   1.894   6.482  0.1396 -0.9227 -0.3704
  130OSM    H2S13938   4.099   1.902   6.428  1.1667 -0.9473 -2.2998
  130OSM    C3S13939   4.281   1.777   6.428 -0.4166  0.3943 -0.0953
  130OSM    H3S13940   4.374   1.778   6.488  0.0431  0.5884 -0.8009
  130OSM     O313941   4.323   1.781   6.289 -0.2136 -0.3724  0.3303
  130OSM    HO313942   4.334   1.876   6.275  1.1998 -0.5591  0.0724
  130OSM    C4S13943   4.213   1.649   6.461 -0.0748 -0.0642 -0.8304
  130OSM    H4S13944   4.231   1.609   6.562  0.3535  1.9165 -0.0893
  130OSM    C5S13945   4.132   1.570   6.389  0.9391 -0.1962 -0.4412
  130OSM    H5S13946   4.112   1.594   6.283  0.6964  1.0068 -0.1445
  130OSM    C6S13947   4.057   1.446   6.423 -0.2491 -0.2103 -1.3021
  130OSM    H6S13948   4.088   1.363   6.356 -0.8359 -1.1790 -0.4108
  130OSM    H6T13949   3.951   1.469   6.399 -0.4252  0.7480  0.2370
  130OSM    C7S13950   4.058   1.411   6.577 -0.0758  0.1238  0.3397
  130OSM    H7S13951   4.012   1.503   6.619  0.5092  0.6090 -0.0414
  130OSM    H7T13952   4.166   1.394   6.599 -0.0117 -0.0907 -0.1245
  130OSM    C8S13953   3.979   1.287   6.603  0.5102  0.3256  0.1771
  130OSM    H8S13954   4.030   1.197   6.562  0.2742  0.1687  0.2253
  130OSM    H8T13955   3.890   1.277   6.538  2.5136 -2.9160 -2.3611
  130OSM    C9S13956   3.933   1.270   6.753  0.0784 -0.1174  0.4452
  130OSM    H9S13957   3.870   1.178   6.756 -1.5157  0.6711 -2.9853
  130OSM    H9T13958   3.872   1.358   6.781 -1.3357 -1.2763  1.1327
  130OSM   C10S13959   4.045   1.265   6.853 -0.5389 -0.3457 -0.7599
  130OSM   H10S13960   4.099   1.363   6.854  0.0980 -0.6218  2.4367
  130OSM   H10T13961   4.119   1.188   6.824 -0.9316 -1.2838  0.6154
  130OSM   C11S13962   4.004   1.228   6.994 -0.4160  0.5908 -0.5152
  130OSM   H11S13963   3.960   1.125   6.995  0.4367  0.2011  1.4634
  130OSM   H11T13964   3.941   1.311   7.033  1.5605  2.0577 -0.3314
  130OSM   C12S13965   4.121   1.229   7.096  0.0595 -1.0115  0.1477
  130OSM   H12S13966   4.140   1.338   7.105 -0.2496 -1.0138  0.9560
  130OSM   H12T13967   4.215   1.181   7.063  0.3018  0.4878 -1.4197
  130OSM   C13S13968   4.087   1.160   7.230 -0.0322 -0.6857 -0.2893
  130OSM   H13S13969   4.056   1.059   7.195 -0.1914 -0.5422 -0.5678
  130OSM   H13T13970   4.004   1.207   7.287  0.9172 -0.5894  1.0412
  130OSM   C14S13971   4.215   1.150   7.322 -0.2211 -0.0641  0.3023
  130OSM   H14S13972   4.277   1.242   7.326 -0.2248 -0.1023  2.0213
  130OSM   H14T13973   4.274   1.065   7.281  0.1140  0.3307 -0.0445
  130OSM   C15S13974   4.181   1.089   7.458  0.0392  0.3169 -0.5137
  130OSM   H15S13975   4.146   0.984   7.451  0.9058 -0.1957  1.8673
  130OSM   H15T13976   4.092   1.142   7.496  0.6021  0.4997  0.5818
  130OSM   C16S13977   4.295   1.121   7.560 -0.8014  0.4558 -0.1972
  130OSM   H16S13978   4.319   1.229   7.554  0.7295  0.1960  0.7690
  130OSM   H16T13979   4.380   1.056   7.531  0.2190  2.0923 -1.0412
  130OSM   C17S13980   4.248   1.093   7.705 -0.9688 -0.7141  0.4383
  130OSM   H17S13981   4.248   0.987   7.739  1.1366 -0.9604 -0.1608
  130OSM   H17T13982   4.146   1.135   7.715 -0.1321  0.9210  3.1115
  130OSM   C18S13983   4.338   1.170   7.809  0.1572  0.6421 -0.1452
  130OSM   H18S13984   4.320   1.280   7.801 -0.1269  0.6053 -0.0321
  130OSM   H18T13985   4.443   1.144   7.787 -0.0758 -0.2508 -0.2433
  130OSM   H18U13986   4.319   1.134   7.912  0.0855 -0.5048 -0.5436
  130OSM    C1F13987   4.062   1.947   6.682  0.1809  0.1624 -0.2709
  130OSM     OF13988   3.986   2.009   6.614 -0.0677 -0.6369 -0.5780
  130OSM    C2F13989   4.026   1.920   6.825 -0.0437 -0.0829  0.1630
  130OSM    H2F13990   3.931   1.970   6.855 -1.0964 -0.5510 -2.1708
  130OSM    H2G13991   4.101   1.976   6.884  1.4542 -0.7515 -1.0502
  130OSM    C3F13992   4.009   1.777   6.874 -0.0220  0.2358  0.2191
  130OSM    H3F13993   4.099   1.714   6.857  1.8126  1.7522  3.3807
  130OSM    H3G13994   3.923   1.734   6.818 -0.4840  1.8384 -0.3617
  130OSM    C4F13995   3.973   1.766   7.018  0.8168 -0.1276  0.0097
  130OSM    H4F13996   3.896   1.843   7.038  2.2572  1.5482 -0.5476
  130OSM    H4G13997   4.063   1.797   7.077  1.0232 -0.3135 -0.2036
  130OSM    C5F13998   3.948   1.628   7.077  0.2527 -0.1623  0.1998
  130OSM    H5F13999   4.039   1.570   7.054 -0.8124 -1.4168 -1.0406
  130OSM    H5G14000   3.863   1.580   7.025 -1.2699  0.2106  2.2010
  130OSM    C6F14001   3.914   1.620   7.221  0.4182 -0.3364  0.7196
  130OSM    H6F14002   3.978   1.678   7.291  1.6506 -1.4099  0.5297
  130OSM    H6G14003   3.923   1.513   7.247  1.7279 -1.1429 -2.5648
  130OSM    C7F14004   3.774   1.667   7.240  0.7248 -0.4030 -0.4048
  130OSM    H7F14005   3.697   1.597   7.202 -1.1229  0.9552  0.6635
  130OSM    H7G14006   3.765   1.761   7.180 -1.9918  1.7878  3.0531
  130OSM    C8F14007   3.741   1.706   7.386 -0.4655 -0.4410 -0.4406
  130OSM    H8F14008   3.640   1.747   7.405 -0.7694 -1.0622 -0.6824
  130OSM    H8G14009   3.811   1.779   7.433 -0.7078  0.0511 -0.8349
  130OSM    C9F14010   3.751   1.577   7.467  0.1722 -0.1093 -0.0832
  130OSM    H9F14011   3.679   1.499   7.438  1.4371 -1.2586 -0.2384
  130OSM   C10F14012   3.811   1.555   7.582 -0.1646 -0.1229  0.2126
  130OSM   H10F14013   3.815   1.451   7.617  2.8600 -0.2273 -0.1459
  130OSM   C11F14014   3.894   1.646   7.671  0.0432 -0.3236 -0.4562
  130OSM   H11F14015   3.911   1.742   7.617 -2.0888  1.0093  1.0843
  130OSM   H11G14016   3.993   1.598   7.689 -0.5793 -0.8702  1.8647
  130OSM   C12F14017   3.816   1.677   7.798  0.0836  0.5277 -0.5448
  130OSM   H12F14018   3.807   1.579   7.849  0.8166  1.6366  1.9020
  130OSM   H12G14019   3.710   1.699   7.773 -0.6721 -0.9196  1.1192
  130OSM   C13F14020   3.875   1.773   7.898 -0.8391  0.1968 -0.1634
  130OSM   H13F14021   3.896   1.869   7.847  0.2439 -0.2292 -0.5435
  130OSM   H13G14022   3.977   1.738   7.924 -0.0518  2.5948  0.2431
  130OSM   C14F14023   3.781   1.798   8.019  0.3943  0.4604  0.1552
  130OSM   H14F14024   3.698   1.858   7.977  1.3958  1.8512  0.1144
  130OSM   H14G14025   3.837   1.870   8.083  0.6501  1.1612 -0.8347
  130OSM   C15F14026   3.753   1.670   8.093 -0.3564 -0.1476  0.2561
  130OSM   H15F14027   3.845   1.611   8.106  0.2890  0.1768 -2.1965
  130OSM   H15G14028   3.689   1.609   8.025  0.0778 -0.6361  0.2875
  130OSM   C16F14029   3.689   1.700   8.226 -0.5224 -0.0948 -0.3092
  130OSM   H16F14030   3.603   1.767   8.204  0.3317  0.5030 -2.0852
  130OSM   H16G14031   3.754   1.748   8.302 -0.1155  0.5787 -1.0714
  130OSM   C17F14032   3.631   1.584   8.314 -0.2730  0.7139  0.5028
  130OSM   H17F14033   3.583   1.504   8.255  1.3394 -1.3514  1.8632
  130OSM   H17G14034   3.552   1.624   8.380 -1.8876 -1.1783 -0.1839
  130OSM   C18F14035   3.744   1.505   8.389  0.4516 -0.6015  0.2896
  130OSM   H18F14036   3.690   1.417   8.428  0.9530 -0.6663  0.8577
  130OSM   H18G14037   3.797   1.581   8.451 -1.4223  0.7961  0.2542
  130OSM   H18H14038   3.822   1.457   8.326  0.1643  0.6700 -1.1186
  131OSM      N14039   3.358   6.517   5.839  0.0304 -0.6779  0.2700
  131OSM    C1514040   3.378   6.370   5.822 -0.4205 -0.3888  0.5341
  131OSM   H15A14041   3.485   6.364   5.817 -0.4884 -0.8417 -0.5869
  131OSM   H15B14042   3.329   6.333   5.733  0.3188  1.7336 -0.8133
  131OSM   H15C14043   3.348   6.312   5.908 -0.5469 -1.3829 -0.1630
  131OSM    C1414044   3.441   6.586   5.738 -0.4443 -0.4962 -0.3165
  131OSM   H14A14045   3.422   6.692   5.732 -0.2013 -0.4438 -0.1650
  131OSM   H14B14046   3.406   6.558   5.640  2.2126 -0.1364 -1.4611
  131OSM   H14C14047   3.543   6.562   5.765 -0.7403  2.2129  4.4677
  131OSM    C1314048   3.222   6.549   5.812 -0.1321 -0.0100 -0.1290
  131OSM   H13A14049   3.204   6.653   5.786 -1.6008 -0.6114 -1.7737
  131OSM   H13B14050   3.167   6.520   5.900  0.1050 -1.3718 -0.4080
  131OSM   H13C14051   3.180   6.490   5.732  0.6996  0.0757 -0.6418
  131OSM    C1214052   3.390   6.563   5.976 -0.3384 -0.1422  0.0648
  131OSM   H12A14053   3.300   6.543   6.034 -2.2829  0.0266 -2.6852
  131OSM   H12B14054   3.393   6.671   5.976 -2.0432 -0.0229  1.7160
  131OSM    C1114055   3.518   6.517   6.049 -0.9260 -0.0901 -0.8114
  131OSM   H11A14056   3.529   6.578   6.141  0.7634 -1.0369 -0.3584
  131OSM   H11B14057   3.605   6.552   5.989 -0.3927  0.5666  0.3156
  131OSM      P14058   3.429   6.312   6.181  0.3812  0.4558 -0.0794
  131OSM    O1314059   3.292   6.361   6.169 -0.3350 -0.0588  0.1545
  131OSM    O1414060   3.454   6.165   6.171  0.1763  0.3930 -0.0882
  131OSM    O1114061   3.497   6.371   6.312 -1.1712  0.3515 -0.1896
  131OSM    O1214062   3.522   6.378   6.080  0.1160 -0.6580  0.1139
  131OSM    C1S14063   3.472   6.301   6.437 -0.6109 -0.5890  0.7909
  131OSM    H1S14064   3.494   6.193   6.426 -0.1717 -0.4844  0.6071
  131OSM    H1T14065   3.365   6.310   6.464 -0.6037  0.0496  0.6428
  131OSM     NF14066   3.545   6.271   6.673  0.2953  0.1599 -0.7697
  131OSM    HNF14067   3.487   6.319   6.739 -0.5616 -1.2292 -0.4842
  131OSM    C2S14068   3.565   6.353   6.559  0.8261 -0.2616  0.1516
  131OSM    H2S14069   3.669   6.331   6.526  0.3810 -1.6237 -0.4097
  131OSM    C3S14070   3.558   6.510   6.578 -0.7105  0.0501 -0.1408
  131OSM    H3S14071   3.456   6.546   6.604 -0.1749  1.1820  0.4549
  131OSM     O314072   3.588   6.587   6.461 -0.0584 -0.2640 -0.0335
  131OSM    HO314073   3.555   6.526   6.395 -0.1149 -0.6928  0.3847
  131OSM    C4S14074   3.651   6.550   6.692  0.7878 -0.5369 -0.2884
  131OSM    H4S14075   3.595   6.557   6.787 -1.1126 -1.4725 -1.2826
  131OSM    C5S14076   3.778   6.584   6.699  0.2720 -0.1765  0.8142
  131OSM    H5S14077   3.839   6.589   6.608 -0.2068  0.4608  0.5179
  131OSM    C6S14078   3.851   6.623   6.826  0.4289 -0.9206 -0.3959
  131OSM    H6S14079   3.959   6.644   6.809  0.5222  1.5614  2.5012
  131OSM    H6T14080   3.836   6.538   6.896 -1.4718 -1.0747 -0.9341
  131OSM    C7S14081   3.790   6.748   6.893 -0.4536 -0.5891 -0.3564
  131OSM    H7S14082   3.682   6.735   6.912 -0.6712 -2.1287 -2.3462
  131OSM    H7T14083   3.792   6.831   6.820  0.1878  0.8537  1.2326
  131OSM    C8S14084   3.862   6.774   7.027 -0.4318  0.3132 -0.9312
  131OSM    H8S14085   3.841   6.878   7.061  1.3553  1.4245 -2.9933
  131OSM    H8T14086   3.970   6.760   7.007  0.4957  1.1815  2.7126
  131OSM    C9S14087   3.821   6.682   7.146  0.7746 -0.0443 -0.0476
  131OSM    H9S14088   3.842   6.577   7.116 -0.3018 -0.0491 -0.8596
  131OSM    H9T14089   3.710   6.689   7.157  0.7510  2.2602 -1.2669
  131OSM   C10S14090   3.874   6.724   7.282 -0.7493  0.0518  0.6877
  131OSM   H10S14091   3.852   6.827   7.319  0.3428  0.1194  1.1964
  131OSM   H10T14092   3.984   6.725   7.266 -0.9765  0.6159 -1.1338
  131OSM   C11S14093   3.841   6.623   7.386  0.4437 -0.2786 -0.2319
  131OSM   H11S14094   3.918   6.543   7.376 -0.5859 -1.2275 -0.8500
  131OSM   H11T14095   3.746   6.569   7.364  0.5000  0.3896 -2.2704
  131OSM   C12S14096   3.847   6.683   7.529  0.2373 -0.7465 -0.3746
  131OSM   H12S14097   3.758   6.748   7.547 -0.5484 -1.3985 -1.7286
  131OSM   H12T14098   3.941   6.741   7.535 -0.0995 -0.3039  1.5129
  131OSM   C13S14099   3.849   6.579   7.639  0.4296 -0.1844 -0.3798
  131OSM   H13S14100   3.918   6.500   7.604  1.1597 -0.0471  0.6870
  131OSM   H13T14101   3.747   6.541   7.661  0.5123  0.6179  1.6632
  131OSM   C14S14102   3.906   6.632   7.773  0.5603  0.4729 -0.4323
  131OSM   H14S14103   4.008   6.670   7.751  1.6514 -1.5083  0.8187
  131OSM   H14T14104   3.925   6.546   7.841  1.8139 -0.0540 -1.4141
  131OSM   C15S14105   3.815   6.741   7.844  0.4889  0.0403  0.0488
  131OSM   H15S14106   3.711   6.703   7.840  0.8042 -1.1183  1.7905
  131OSM   H15T14107   3.812   6.841   7.795  1.0201  0.5137  0.9403
  131OSM   C16S14108   3.840   6.779   7.992 -0.0410 -0.2453 -0.0590
  131OSM   H16S14109   3.754   6.847   8.008 -0.9612 -0.7939 -2.3657
  131OSM   H16T14110   3.938   6.832   7.989 -0.5141  0.6647  0.0713
  131OSM   C17S14111   3.832   6.661   8.092 -0.6617 -1.1890 -0.6423
  131OSM   H17S14112   3.926   6.608   8.067  0.8854  1.9725 -2.0542
  131OSM   H17T14113   3.745   6.592   8.082 -1.5514 -0.3756  0.9680
  131OSM   C18S14114   3.830   6.711   8.238 -0.1857  0.2882  0.5113
  131OSM   H18S14115   3.831   6.635   8.319 -1.7109  1.4636  1.6990
  131OSM   H18T14116   3.741   6.776   8.252 -1.3923 -1.0538 -0.6738
  131OSM   H18U14117   3.926   6.759   8.267  0.6451 -0.7241 -0.4706
  131OSM    C1F14118   3.566   6.137   6.676  0.2311  0.0423  0.7334
  131OSM     OF14119   3.650   6.084   6.597 -0.9414 -0.0911  0.1691
  131OSM    C2F14120   3.473   6.048   6.754 -0.1199 -0.2191 -0.3109
  131OSM    H2F14121   3.416   5.977   6.689 -3.3532  1.2029  0.7419
  131OSM    H2G14122   3.396   6.114   6.798  0.7976  0.4667  0.2821
  131OSM    C3F14123   3.539   5.959   6.861 -0.0617 -0.6932 -0.7454
  131OSM    H3F14124   3.630   6.003   6.906  0.0590 -0.5456 -1.1309
  131OSM    H3G14125   3.582   5.876   6.801  0.2332 -1.5083  0.5535
  131OSM    C4F14126   3.452   5.905   6.973 -0.4629  0.1347  0.2460
  131OSM    H4F14127   3.521   5.845   7.035 -1.9158 -1.3231  0.5099
  131OSM    H4G14128   3.377   5.832   6.935 -0.1537 -0.2636  0.3975
  131OSM    C5F14129   3.398   6.028   7.052 -0.1645  0.5348 -0.5290
  131OSM    H5F14130   3.340   6.090   6.980  0.9288  0.0189 -1.9030
  131OSM    H5G14131   3.490   6.086   7.079  1.2856 -1.7583 -0.2793
  131OSM    C6F14132   3.322   6.010   7.182  0.0484 -0.5644  0.4130
  131OSM    H6F14133   3.223   5.968   7.156  0.9783 -2.5214 -0.1776
  131OSM    H6G14134   3.302   6.112   7.221  0.9808  0.0113 -0.5479
  131OSM    C7F14135   3.405   5.928   7.285  0.6323  0.4090  0.7843
  131OSM    H7F14136   3.505   5.964   7.316  0.9948  0.1306 -0.0521
  131OSM    H7G14137   3.404   5.825   7.244 -0.2870  0.4947  0.5586
  131OSM    C8F14138   3.313   5.910   7.412  0.5899  0.3543  0.6749
  131OSM    H8F14139   3.354   5.828   7.476  0.6649  1.3456  1.9462
  131OSM    H8G14140   3.210   5.884   7.381  1.4773 -1.5527 -0.9228
  131OSM    C9F14141   3.317   6.035   7.489 -0.1037 -0.2366  0.6371
  131OSM    H9F14142   3.266   6.124   7.449 -0.4069  0.2186  1.9714
  131OSM   C10F14143   3.360   6.063   7.610  0.1949  0.0461  0.7065
  131OSM   H10F14144   3.345   6.167   7.644  2.2202  0.2152  1.1869
  131OSM   C11F14145   3.422   5.977   7.718 -0.1488 -0.5736  0.1821
  131OSM   H11F14146   3.524   6.013   7.743  0.0594 -1.9268  1.4171
  131OSM   H11G14147   3.441   5.873   7.683  2.0234  0.2296 -1.2265
  131OSM   C12F14148   3.351   5.960   7.853 -0.1935 -0.2566 -0.9512
  131OSM   H12F14149   3.407   5.887   7.916 -0.7289  0.3511  0.2746
  131OSM   H12G14150   3.250   5.918   7.831 -0.4854  0.5737 -1.2342
  131OSM   C13F14151   3.322   6.089   7.924 -0.0627 -0.3400 -0.6554
  131OSM   H13F14152   3.245   6.151   7.873 -0.1869  1.2109  1.2757
  131OSM   H13G14153   3.414   6.151   7.939  0.7010 -1.9598  1.8539
  131OSM   C14F14154   3.264   6.081   8.069 -0.2209 -0.5338 -0.6379
  131OSM   H14F14155   3.155   6.062   8.063 -0.9106  1.1089  3.3751
  131OSM   H14G14156   3.267   6.184   8.111 -1.7684 -0.5080 -0.5190
  131OSM   C15F14157   3.326   5.982   8.169 -0.0081 -0.1979  0.2099
  131OSM   H15F14158   3.433   5.967   8.145 -0.3770 -1.1512 -0.9833
  131OSM   H15G14159   3.269   5.887   8.156  0.2477 -0.2963 -0.1922
  131OSM   C16F14160   3.314   6.019   8.318  0.3680  0.6126 -0.3022
  131OSM   H16F14161   3.208   6.048   8.331  1.1176  3.2377  0.5218
  131OSM   H16G14162   3.380   6.105   8.341 -0.7942  1.6266 -0.6821
  131OSM   C17F14163   3.352   5.894   8.403 -0.1913  0.6282 -0.1607
  131OSM   H17F14164   3.299   5.805   8.364  1.1578 -0.2609 -0.0622
  131OSM   H17G14165   3.318   5.908   8.508 -2.1557 -0.5825 -0.5969
  131OSM   C18F14166   3.508   5.876   8.411 -0.3522  0.3475  0.5607
  131OSM   H18F14167   3.554   5.970   8.447 -0.6677  0.5027  0.5572
  131OSM   H18G14168   3.551   5.854   8.311 -0.7776  1.8087  0.0280
  131OSM   H18H14169   3.541   5.794   8.478 -0.6347  0.2700  0.6076
  132OSM      N14170   4.876   3.284   6.086 -0.2928  0.0579  0.1782
  132OSM    C1514171   4.943   3.405   6.021  0.2318  0.1022 -0.5651
  132OSM   H15A14172   4.954   3.403   5.913  1.9200 -1.3297 -0.4136
  132OSM   H15B14173   5.034   3.419   6.077  0.0433 -3.3738  0.8515
  132OSM   H15C14174   4.875   3.488   6.032  0.9391  0.6943 -0.5821
  132OSM    C1414175   4.762   3.247   5.994  0.1223 -0.4185  0.2904
  132OSM   H14A14176   4.798   3.221   5.895  1.0059 -1.1697  0.8012
  132OSM   H14B14177   4.689   3.327   5.984  1.4299  0.5568 -2.4891
  132OSM   H14C14178   4.709   3.160   6.030  0.1952 -0.5616  0.0514
  132OSM    C1314179   4.977   3.176   6.075 -0.7478  0.3646  0.0645
  132OSM   H13A14180   5.008   3.165   5.972  0.0585 -0.1818  0.3488
  132OSM   H13B14181   4.942   3.083   6.118  0.2517  0.6743  1.6480
  132OSM   H13C14182   5.061   3.192   6.141 -0.6047  2.1489 -0.4842
  132OSM    C1214183   4.826   3.303   6.227 -0.1587 -0.2405 -0.2124
  132OSM   H12A14184   4.777   3.213   6.262  1.2816 -1.4488 -1.1524
  132OSM   H12B14185   4.750   3.376   6.204 -0.7095 -1.3915 -2.3357
  132OSM    C1114186   4.929   3.355   6.334  0.8396 -0.1693 -0.4980
  132OSM   H11A14187   5.023   3.296   6.328 -0.0149 -1.7028  0.3642
  132OSM   H11B14188   4.893   3.328   6.435  0.7341 -1.2942 -0.8174
  132OSM      P14189   4.830   3.588   6.382  0.3754  0.2156 -0.1133
  132OSM    O1314190   4.881   3.722   6.373 -0.1039 -0.2601  0.3774
  132OSM    O1414191   4.697   3.552   6.324 -0.4732  0.5966  0.2073
  132OSM    O1114192   4.825   3.543   6.536  0.2386  0.4881 -0.2145
  132OSM    O1214193   4.948   3.494   6.321 -0.0143 -0.4671  0.0033
  132OSM    C1S14194   4.915   3.615   6.620 -0.4945  0.1619 -0.1715
  132OSM    H1S14195   4.897   3.724   6.631  0.6800  0.6380 -2.4587
  132OSM    H1T14196   5.021   3.594   6.596 -0.6863 -1.2764  0.1066
  132OSM     NF14197   5.012   3.619   6.841  0.5790  0.0285  0.2580
  132OSM    HNF14198   5.096   3.568   6.857  0.5373 -0.5510 -1.2045
  132OSM    C2S14199   4.917   3.541   6.765 -0.0019 -0.2473 -0.2894
  132OSM    H2S14200   4.815   3.560   6.805  0.3411  1.4300 -0.1431
  132OSM    C3S14201   4.951   3.384   6.752  0.1398 -0.1540 -0.7148
  132OSM    H3S14202   5.050   3.386   6.702  1.9790 -0.6122  2.6324
  132OSM     O314203   4.855   3.303   6.683 -0.2468 -0.3078 -0.1085
  132OSM    HO314204   4.799   3.372   6.645 -1.0818  0.2841  2.0536
  132OSM    C4S14205   4.976   3.323   6.888 -0.2615  0.5329 -0.0226
  132OSM    H4S14206   4.886   3.341   6.949 -1.0952  1.2593 -1.4002
  132OSM    C5S14207   5.087   3.260   6.935  0.3615  0.1749 -0.4951
  132OSM    H5S14208   5.168   3.240   6.865  0.9190 -0.6564  0.3553
  132OSM    C6S14209   5.106   3.202   7.071 -0.4459  0.2368  0.1176
  132OSM    H6S14210   5.202   3.147   7.069 -0.6007 -0.2141 -4.1679
  132OSM    H6T14211   5.023   3.131   7.093  0.6881 -1.3364 -0.5373
  132OSM    C7S14212   5.077   3.288   7.195  0.1755 -1.0635  0.3478
  132OSM    H7S14213   5.050   3.231   7.287 -3.2572 -0.4887 -0.1897
  132OSM    H7T14214   4.981   3.341   7.179  0.8382  0.2735  0.6212
  132OSM    C8S14215   5.184   3.398   7.218 -0.3809 -0.4583  0.9054
  132OSM    H8S14216   5.180   3.472   7.135  0.4649 -0.6139  0.7163
  132OSM    H8T14217   5.287   3.355   7.222 -0.5009 -0.8918 -0.4229
  132OSM    C9S14218   5.166   3.483   7.343  0.0088 -0.8752 -0.2053
  132OSM    H9S14219   5.168   3.410   7.426 -2.3054  0.4557  1.1343
  132OSM    H9T14220   5.062   3.520   7.351  0.5707  0.7996 -0.1098
  132OSM   C10S14221   5.268   3.602   7.348  0.4034 -0.1456  0.5282
  132OSM   H10S14222   5.255   3.654   7.251 -2.9850 -0.9989  0.4117
  132OSM   H10T14223   5.365   3.548   7.358 -0.5798 -2.2741 -0.7737
  132OSM   C11S14224   5.247   3.710   7.466 -0.3088  0.7820 -0.0483
  132OSM   H11S14225   5.147   3.759   7.471 -0.9586 -0.6039  1.1273
  132OSM   H11T14226   5.332   3.782   7.470  0.8435 -0.4587 -1.0341
  132OSM   C12S14227   5.249   3.633   7.597 -0.1386  0.4097 -0.1059
  132OSM   H12S14228   5.346   3.579   7.606  0.0747  0.7821 -0.1573
  132OSM   H12T14229   5.171   3.555   7.604  1.0840 -0.8267  0.2501
  132OSM   C13S14230   5.238   3.722   7.729 -0.3124  0.0793  1.3180
  132OSM   H13S14231   5.127   3.733   7.736 -0.4752 -0.3701 -0.1294
  132OSM   H13T14232   5.283   3.821   7.708  1.0176 -0.7313  0.1963
  132OSM   C14S14233   5.293   3.662   7.859  0.3364  0.8750  0.0467
  132OSM   H14S14234   5.403   3.667   7.855  0.3350  0.3574 -1.2164
  132OSM   H14T14235   5.255   3.558   7.869  1.0956  0.4342 -1.3575
  132OSM   C15S14236   5.258   3.734   7.994  1.1629 -0.2437 -0.1246
  132OSM   H15S14237   5.155   3.712   8.030 -0.2193  0.0889 -3.4810
  132OSM   H15T14238   5.256   3.844   7.982 -0.8625 -0.0880  1.1225
  132OSM   C16S14239   5.356   3.702   8.103 -0.4124  1.1536 -0.6432
  132OSM   H16S14240   5.451   3.756   8.084 -0.0083  1.2143  1.3369
  132OSM   H16T14241   5.381   3.594   8.110 -1.5663  0.9152  0.2226
  132OSM   C17S14242   5.301   3.754   8.241  0.0896  0.1586  0.2762
  132OSM   H17S14243   5.213   3.693   8.270  0.2971 -0.8120 -1.0546
  132OSM   H17T14244   5.254   3.853   8.224  0.1759 -0.0285 -1.1633
  132OSM   C18S14245   5.400   3.746   8.354  0.4006 -0.4358  0.4315
  132OSM   H18S14246   5.454   3.650   8.341  2.0006  0.7406 -2.5479
  132OSM   H18T14247   5.354   3.758   8.455 -0.9192 -0.1214 -0.1896
  132OSM   H18U14248   5.483   3.821   8.357  1.0537 -0.9489 -2.4317
  132OSM    C1F14249   4.990   3.746   6.873  0.1708  0.6172  0.7003
  132OSM     OF14250   4.884   3.804   6.849 -0.1132  0.0969 -0.5522
  132OSM    C2F14251   5.098   3.821   6.941  0.0814 -0.4344  0.4134
  132OSM    H2F14252   5.101   3.918   6.885 -0.4768 -0.1110  0.9293
  132OSM    H2G14253   5.196   3.768   6.939  0.0307 -0.5352 -2.0924
  132OSM    C3F14254   5.053   3.864   7.087 -0.0044  0.2281 -0.3798
  132OSM    H3F14255   5.017   3.781   7.151  0.1951  1.3510  1.2573
  132OSM    H3G14256   4.962   3.926   7.069 -2.0886 -2.3219  0.6931
  132OSM    C4F14257   5.154   3.941   7.176 -0.3001 -0.0288  0.9063
  132OSM    H4F14258   5.205   4.018   7.114  0.1345 -0.2369  0.9949
  132OSM    H4G14259   5.232   3.878   7.225  0.0796  0.4528  0.9254
  132OSM    C5F14260   5.081   4.019   7.282 -0.4603  0.4367 -0.2369
  132OSM    H5F14261   5.008   3.961   7.342 -0.0893 -0.9375 -1.0868
  132OSM    H5G14262   5.029   4.107   7.238 -0.9908 -0.7554 -2.0869
  132OSM    C6F14263   5.180   4.084   7.384  0.1879 -0.1021 -0.2703
  132OSM    H6F14264   5.247   4.158   7.335 -0.9545  3.2425  2.7960
  132OSM    H6G14265   5.237   3.995   7.419  0.7286 -0.2128 -1.3791
  132OSM    C7F14266   5.117   4.163   7.496 -0.5022 -0.6650 -0.7281
  132OSM    H7F14267   5.038   4.107   7.551 -0.0195  0.3080  1.0493
  132OSM    H7G14268   5.061   4.251   7.457  0.3557  1.1316  1.8150
  132OSM    C8F14269   5.226   4.217   7.591  0.0661  0.1506 -0.9103
  132OSM    H8F14270   5.184   4.297   7.656 -0.4711 -1.3283  0.6409
  132OSM    H8G14271   5.312   4.263   7.537  1.4854 -2.8862 -1.4287
  132OSM    C9F14272   5.273   4.105   7.683  0.0307  0.3608 -0.8676
  132OSM    H9F14273   5.340   4.023   7.653 -2.0071 -1.9887  0.6334
  132OSM   C10F14274   5.248   4.102   7.818 -0.4936 -0.7365  0.2030
  132OSM   H10F14275   5.278   4.015   7.878 -2.1387 -0.2749  1.7658
  132OSM   C11F14276   5.171   4.197   7.905 -0.4992  0.3489  0.3854
  132OSM   H11F14277   5.075   4.152   7.937 -0.2767 -0.9867 -0.7304
  132OSM   H11G14278   5.134   4.280   7.841  2.8573  1.2659 -0.5758
  132OSM   C12F14279   5.246   4.246   8.026  0.0465 -0.3838 -0.2664
  132OSM   H12F14280   5.193   4.335   8.065 -0.9373 -0.1065 -2.1081
  132OSM   H12G14281   5.345   4.289   7.999 -0.2826 -0.9637 -2.6311
  132OSM   C13F14282   5.262   4.146   8.144  0.3948 -0.0797 -0.2315
  132OSM   H13F14283   5.300   4.045   8.119  0.1865 -0.9293  2.5581
  132OSM   H13G14284   5.159   4.123   8.179  0.3569  2.0962  1.3524
  132OSM   C14F14285   5.339   4.212   8.249 -0.9480 -0.7161 -0.3216
  132OSM   H14F14286   5.286   4.296   8.298 -3.2374 -2.0472 -0.3684
  132OSM   H14G14287   5.436   4.257   8.220 -0.3527 -1.3071  0.6756
  132OSM   C15F14288   5.361   4.114   8.368 -0.0199  0.6509  0.1434
  132OSM   H15F14289   5.418   4.031   8.322  1.4810  2.3751 -1.2781
  132OSM   H15G14290   5.261   4.080   8.402  0.7178  0.1174  1.8798
  132OSM   C16F14291   5.438   4.167   8.489 -0.4319  0.7272  0.4074
  132OSM   H16F14292   5.387   4.253   8.536 -1.1376  1.7391 -2.0670
  132OSM   H16G14293   5.541   4.195   8.457 -0.7038  0.6839 -0.5325
  132OSM   C17F14294   5.459   4.050   8.590 -0.0784 -0.0979 -0.0762
  132OSM   H17F14295   5.522   4.095   8.670  0.7963  1.5629 -1.6107
  132OSM   H17G14296   5.519   3.965   8.553 -1.8795 -0.7561 -1.6235
  132OSM   C18F14297   5.328   3.991   8.656 -0.8461  0.6469  0.0668
  132OSM   H18F14298   5.340   3.907   8.728  0.5558  0.8470  0.1070
  132OSM   H18G14299   5.260   3.955   8.577 -1.0136  0.5525  0.2537
  132OSM   H18H14300   5.268   4.071   8.705 -0.2945  0.8405  0.4415
  133SAPE     N14301   1.975   2.512  10.613  0.5951  0.1025 -0.2524
  133SAPE   HN114302   1.872   2.528  10.612  1.0123  3.9752  0.0188
  133SAPE   HN214303   2.014   2.601  10.575  0.4695 -0.1641 -1.0212
  133SAPE   HN314304   2.004   2.432  10.555 -0.1511  0.1616 -0.7189
  133SAPE   C1214305   2.015   2.478  10.754 -0.0796 -0.3564  0.1182
  133SAPE  H12A14306   1.981   2.566  10.814  3.3857  2.3353 -1.5029
  133SAPE  H12B14307   2.125   2.484  10.745 -0.1052  0.5344  0.2560
  133SAPE   C1114308   1.967   2.339  10.810  0.2885  0.0631  0.1968
  133SAPE  H11A14309   1.857   2.352  10.811  0.5723  3.0693  1.5882
  133SAPE  H11B14310   1.996   2.315  10.914 -0.6916 -3.6438 -0.2486
  133SAPE     P14311   2.063   2.101  10.777 -0.2941  0.7619  0.0681
  133SAPE   O1314312   2.198   2.140  10.814  0.1000  0.4155 -0.1427
  133SAPE   O1414313   1.981   2.033  10.881 -0.2645 -0.5206 -0.2216
  133SAPE   O1214314   1.999   2.233  10.721 -0.2938 -0.3898  0.3002
  133SAPE   O1114315   2.073   2.005  10.654  0.0396  0.4786  0.1685
  133SAPE    C114316   2.182   2.004  10.561  0.7518  0.0750  0.3121
  133SAPE    HA14317   2.279   2.000  10.615  0.5020 -0.1880  0.7498
  133SAPE    HB14318   2.165   1.913  10.499 -1.4170  1.5240 -1.3748
  133SAPE    C214319   2.180   2.124  10.473  1.1519  0.1845  0.3686
  133SAPE    HS14320   2.162   2.212  10.538 -1.6973 -0.1209  0.1269
  133SAPE   O2114321   2.070   2.116  10.376  0.0477 -0.0668  0.2593
  133SAPE   C2114322   2.012   2.235  10.349 -1.3186  0.7934 -0.1486
  133SAPE   O2214323   2.042   2.338  10.406 -0.4832  0.3113  0.1671
  133SAPE   C2214324   1.906   2.222  10.244  0.6145 -0.5559  1.1556
  133SAPE   H2R14325   1.816   2.201  10.305  0.2184 -0.7672  0.5062
  133SAPE   H2S14326   1.885   2.319  10.195 -1.0895 -1.5822 -0.2878
  133SAPE    C314327   2.312   2.127  10.397  0.1660  0.2317  0.2130
  133SAPE    HX14328   2.352   2.024  10.413 -3.7728 -1.2190  2.1624
  133SAPE    HY14329   2.385   2.198  10.441  1.1532 -0.1474 -0.7693
  133SAPE   O3114330   2.302   2.171  10.266  0.2055  0.0976 -0.2638
  133SAPE   C3114331   2.307   2.075  10.172 -0.9599  0.3483  0.5366
  133SAPE   O3214332   2.330   1.953  10.201  0.0657 -0.2947 -0.7443
  133SAPE   C3214333   2.284   2.132  10.033 -0.3080 -0.2563  0.0715
  133SAPE   H2X14334   2.368   2.203  10.017 -0.0541 -0.0325  2.0689
  133SAPE   H2Y14335   2.200   2.204  10.046  2.5160  3.3856 -0.3637
  133SAPE   C2314336   1.907   2.099  10.137 -0.2775  0.3396  0.3715
  133SAPE   H3R14337   1.983   2.029  10.178 -0.9496  0.8509  2.6713
  133SAPE   H3S14338   1.945   2.137  10.040  1.0468 -1.0008  0.3269
  133SAPE   C2414339   1.778   2.027  10.123 -0.9252 -0.0590 -0.1543
  133SAPE   H4R14340   1.748   1.984  10.221 -0.6460  0.2030  0.0449
  133SAPE   H4S14341   1.800   1.945  10.051  0.6102 -0.1421  0.3876
  133SAPE   C2514342   1.665   2.114  10.078  0.3465 -0.4886  0.3558
  133SAPE   H5R14343   1.629   2.183  10.155  2.7729  0.3255  0.8491
  133SAPE   C2614344   1.649   2.159   9.946  0.0476 -0.1049  0.2040
  133SAPE   H6R14345   1.561   2.218   9.918 -1.2727 -1.5031  1.2342
  133SAPE   C2714346   1.730   2.120   9.819 -0.2090 -0.0882 -0.2024
  133SAPE   H7R14347   1.674   2.073   9.736  1.5047  0.8920 -2.0166
  133SAPE   H7S14348   1.806   2.039   9.830 -0.3895 -0.2783 -0.3615
  133SAPE   C2814349   1.809   2.241   9.774 -0.1342 -0.2056 -0.2286
  133SAPE   H8R14350   1.892   2.272   9.838  0.6647 -0.5286 -1.0765
  133SAPE   C2914351   1.782   2.313   9.661 -0.6466 -0.4673  0.0171
  133SAPE   H9R14352   1.855   2.390   9.634  2.6375 -2.9272  1.1192
  133SAPE  C21014353   1.669   2.288   9.566  0.2093  0.7206  0.1498
  133SAPE  H10R14354   1.629   2.387   9.536  0.2302  0.5713 -0.3658
  133SAPE  H10S14355   1.588   2.231   9.617  0.7947 -2.0607 -1.8267
  133SAPE  C21114356   1.700   2.209   9.438  0.8876  1.0437 -0.3900
  133SAPE  H11R14357   1.680   2.102   9.451 -1.7676  1.5411  0.3010
  133SAPE  C21214358   1.730   2.253   9.311 -0.5689  0.4320 -1.2739
  133SAPE  H12R14359   1.744   2.180   9.230  2.9598 -0.9163  0.3275
  133SAPE  C21314360   1.765   2.398   9.277  0.2417 -0.1298 -0.2900
  133SAPE  H13R14361   1.787   2.464   9.363 -0.2529  0.2403 -0.4423
  133SAPE  H13S14362   1.673   2.447   9.237  0.8110  1.7146  0.5631
  133SAPE  C21414363   1.863   2.411   9.168 -0.5347  0.1411  0.5739
  133SAPE  H14R14364   1.963   2.377   9.200 -0.7235 -2.3411 -1.1866
  133SAPE  C21514365   1.839   2.450   9.038  0.1001  0.0664  1.3061
  133SAPE  H15R14366   1.920   2.443   8.965 -2.1275  1.8598 -1.5498
  133SAPE  C21614367   1.713   2.500   8.973 -0.4427 -0.3805 -0.1394
  133SAPE  H16R14368   1.712   2.608   8.947  2.5956 -0.4685 -1.0439
  133SAPE  H16S14369   1.620   2.484   9.031 -0.4147  0.8767  0.2870
  133SAPE  C21714370   1.697   2.418   8.846 -0.7113 -0.5576  0.3645
  133SAPE  H17R14371   1.592   2.418   8.811 -0.7014 -1.7909  0.2945
  133SAPE  H17S14372   1.718   2.313   8.874 -0.7874 -0.4687  0.7662
  133SAPE  C21814373   1.783   2.470   8.728 -0.8454  0.1527  0.1056
  133SAPE  H18R14374   1.892   2.471   8.752 -0.4574  0.0640 -1.5254
  133SAPE  H18S14375   1.758   2.577   8.711  1.7043  0.8385  0.2133
  133SAPE  C21914376   1.755   2.389   8.604  0.3196  0.8687  0.3059
  133SAPE  H19R14377   1.646   2.382   8.580 -0.1348 -1.0292  2.5705
  133SAPE  H19S14378   1.796   2.287   8.622  1.0922  1.0056 -0.5894
  133SAPE  C22014379   1.825   2.453   8.480 -0.1149  0.5702 -0.7050
  133SAPE  H20R14380   1.934   2.451   8.500 -0.6217 -1.8743  2.8125
  133SAPE  H20S14381   1.811   2.562   8.493  1.8382  0.7277  0.3717
  133SAPE  H20T14382   1.807   2.398   8.385  1.7857 -1.1763 -0.1250
  133SAPE   C3314383   2.270   2.023   9.922  0.7136  0.2153 -0.2144
  133SAPE   H3X14384   2.171   1.975   9.939  0.3673 -0.1779 -2.9483
  133SAPE   H3Y14385   2.352   1.948   9.926  0.4323 -0.1809 -1.6385
  133SAPE   C3414386   2.251   2.097   9.787 -0.4767 -0.5117 -0.0783
  133SAPE   H4X14387   2.346   2.151   9.767  1.0756 -2.0456  2.5401
  133SAPE   H4Y14388   2.169   2.170   9.804 -0.1931 -0.2538  0.2000
  133SAPE   C3514389   2.213   2.007   9.673 -0.2855  0.0235 -0.7082
  133SAPE   H5X14390   2.133   1.940   9.710 -0.2510  0.8473  0.9362
  133SAPE   H5Y14391   2.291   1.931   9.649 -0.7305 -1.4674  2.1832
  133SAPE   C3614392   2.182   2.086   9.541 -0.0566 -0.0668  0.0995
  133SAPE   H6X14393   2.274   2.138   9.506 -0.9879  0.6681 -1.3209
  133SAPE   H6Y14394   2.106   2.163   9.563  1.3389  1.7258 -1.0975
  133SAPE   C3714395   2.138   1.992   9.428 -0.3321  0.4366  0.2495
  133SAPE   H7X14396   2.053   1.928   9.462 -2.0899  2.0832 -0.8447
  133SAPE   H7Y14397   2.217   1.915   9.420  0.9517  1.3901  2.6515
  133SAPE   C3814398   2.106   2.072   9.299  0.1594 -0.0750  0.3540
  133SAPE   H8X14399   2.180   2.151   9.276 -1.7488  1.3323 -1.2651
  133SAPE   H8Y14400   2.013   2.121   9.335  0.4501  0.6159  0.1715
  133SAPE   C3914401   2.086   1.983   9.176  0.6324 -0.9532 -0.3335
  133SAPE   H9X14402   1.998   1.915   9.174  0.9353 -1.3399 -1.1127
  133SAPE   H9Y14403   2.175   1.924   9.145 -0.7301 -2.8807 -0.8063
  133SAPE  C31014404   2.056   2.079   9.056 -0.0776 -0.5118 -0.2383
  133SAPE  H10X14405   2.128   2.160   9.034  0.5287 -1.6207 -2.7082
  133SAPE  H10Y14406   1.954   2.120   9.074 -0.6620 -0.6095 -2.9740
  133SAPE  C31114407   2.056   1.989   8.936  0.4172 -0.0691  0.4341
  133SAPE  H11X14408   1.968   1.924   8.955 -1.7727  2.3415 -0.8666
  133SAPE  H11Y14409   2.147   1.928   8.916  1.6559  2.2856 -1.5304
  133SAPE  C31214410   2.032   2.058   8.798  0.1014  0.2919 -0.4138
  133SAPE  H12X14411   1.928   2.095   8.810  0.3850  2.6109 -3.7533
  133SAPE  H12Y14412   2.024   1.979   8.720 -2.8369  0.2420 -0.1842
  133SAPE  C31314413   2.126   2.176   8.773  0.2771 -0.1724  0.2926
  133SAPE  H13X14414   2.227   2.137   8.798  0.3861 -1.6158 -2.0961
  133SAPE  H13Y14415   2.107   2.259   8.844  1.6325 -0.1505  0.6629
  133SAPE  C31414416   2.133   2.225   8.623  0.5919  0.6594  0.7932
  133SAPE  H14X14417   2.032   2.247   8.582  1.6902  2.3644 -1.1843
  133SAPE  H14Y14418   2.167   2.133   8.570 -1.5375  0.5581 -0.5382
  133SAPE  C31514419   2.221   2.350   8.614 -0.4140 -0.4489  0.5462
  133SAPE  H15X14420   2.312   2.317   8.667  0.9673  0.5040 -1.1253
  133SAPE  H15Y14421   2.168   2.432   8.668 -2.2509 -1.4164  0.3008
  133SAPE  C31614422   2.270   2.384   8.474  0.4994  0.3059 -0.1523
  133SAPE  H16X14423   2.184   2.376   8.404 -0.4685 -0.0462  1.0323
  133SAPE  H16Y14424   2.343   2.308   8.438  2.9830  2.5434 -0.1623
  133SAPE  C31714425   2.348   2.514   8.470  0.4463  0.1769 -0.9160
  133SAPE  H17X14426   2.416   2.523   8.557 -0.7458 -0.4566  0.1281
  133SAPE  H17Y14427   2.280   2.602   8.478  0.4441  0.1585 -0.7405
  133SAPE  C31814428   2.435   2.525   8.345 -0.4914 -0.1380  0.5613
  133SAPE  H18X14429   2.372   2.508   8.255 -1.4344 -0.7571  1.3338
  133SAPE  H18Y14430   2.522   2.456   8.339 -1.3457 -1.2673  1.0675
  133SAPE  H18Z14431   2.472   2.629   8.325  0.8752 -0.6117  0.4846
  134SAPE     N14432   4.457   2.143  10.731  0.1068 -0.7405 -0.3952
  134SAPE   HN114433   4.426   2.242  10.723 -1.3934 -1.1529 -0.0376
  134SAPE   HN214434   4.559   2.139  10.713  0.5379  1.3421  1.2100
  134SAPE   HN314435   4.405   2.098  10.652 -0.4358 -0.0574 -0.4405
  134SAPE   C1214436   4.420   2.085  10.863  0.1716 -0.4456  0.1193
  134SAPE  H12A14437   4.447   2.159  10.941 -0.3599  0.7305 -0.7793
  134SAPE  H12B14438   4.460   1.982  10.871  1.7403  0.0857 -0.4200
  134SAPE   C1114439   4.262   2.075  10.873 -0.4241  0.3527  0.7640
  134SAPE  H11A14440   4.214   2.174  10.881  2.4770  1.9279  0.1232
  134SAPE  H11B14441   4.243   2.022  10.969  4.1899  0.0184  1.7649
  134SAPE     P14442   4.063   1.946  10.748 -0.0226 -0.0991  0.1095
  134SAPE   O1314443   4.066   1.828  10.659 -0.1934 -0.4342 -0.6328
  134SAPE   O1414444   4.014   1.932  10.887 -0.0698 -0.0746  0.0971
  134SAPE   O1214445   4.216   2.001  10.758  0.3983 -0.4440  0.1971
  134SAPE   O1114446   3.979   2.062  10.671  0.3678 -0.0324  0.5977
  134SAPE    C114447   4.052   2.159  10.592  0.7327 -0.0234  0.1101
  134SAPE    HA14448   3.988   2.248  10.575 -0.7975 -1.3812 -1.7769
  134SAPE    HB14449   4.147   2.189  10.641  1.1598 -1.0879 -0.0272
  134SAPE    C214450   4.061   2.089  10.452 -0.0946 -0.3506 -0.2315
  134SAPE    HS14451   4.126   2.001  10.472 -1.7587 -1.7695 -0.8332
  134SAPE   O2114452   4.120   2.178  10.357 -0.3596 -0.2477  0.3935
  134SAPE   C2114453   4.250   2.208  10.373 -0.4331 -0.4282  0.2284
  134SAPE   O2214454   4.325   2.181  10.463  0.1804  0.3414  0.0982
  134SAPE   C2214455   4.295   2.286  10.245  0.0391 -0.0004 -0.5448
  134SAPE   H2R14456   4.224   2.365  10.213  2.4770  2.0585 -1.1964
  134SAPE   H2S14457   4.387   2.345  10.265  0.2582 -0.1631 -1.0458
  134SAPE    C314458   3.917   2.032  10.406  0.3383 -0.7330  0.0471
  134SAPE    HX14459   3.852   2.116  10.438  1.4499 -1.1502  3.8608
  134SAPE    HY14460   3.885   1.950  10.473  0.5587  0.1965  1.3185
  134SAPE   O3114461   3.897   2.008  10.262 -0.3409  0.1421 -0.0392
  134SAPE   C3114462   3.928   1.883  10.218 -0.3035 -0.2184  0.9140
  134SAPE   O3214463   3.964   1.789  10.283  0.4212 -0.6397 -0.2526
  134SAPE   C3214464   3.913   1.876  10.062 -0.3770 -0.4170  0.4964
  134SAPE   H2X14465   3.808   1.908  10.046 -0.0569  0.9060  0.8887
  134SAPE   H2Y14466   3.948   1.777  10.025  0.3059 -0.1798  0.4741
  134SAPE   C2314467   4.319   2.180  10.134  0.5547  0.2269 -0.5564
  134SAPE   H3R14468   4.226   2.142  10.087  0.2623  1.3638 -0.9169
  134SAPE   H3S14469   4.379   2.092  10.165  1.0379  0.9840  0.7387
  134SAPE   C2414470   4.405   2.247  10.023 -0.8136  0.0331 -0.0767
  134SAPE   H4R14471   4.343   2.334   9.993  1.5691  0.9964 -2.6249
  134SAPE   H4S14472   4.412   2.176   9.937 -2.8573 -1.7499  1.1255
  134SAPE   C2514473   4.540   2.304  10.058  0.0119  0.2461 -0.2026
  134SAPE   H5R14474   4.551   2.342  10.161  0.3846 -0.9912  0.2336
  134SAPE   C2614475   4.631   2.347   9.972  0.5271 -0.7912  0.0229
  134SAPE   H6R14476   4.726   2.378  10.016  0.1499 -0.6246  0.7261
  134SAPE   C2714477   4.620   2.358   9.820  0.2997  0.4569  0.9717
  134SAPE   H7R14478   4.596   2.463   9.792 -1.4587 -0.2887 -0.5169
  134SAPE   H7S14479   4.533   2.297   9.789  0.3364  0.1237  1.5153
  134SAPE   C2814480   4.751   2.319   9.743 -0.0253 -0.1780 -0.1661
  134SAPE   H8R14481   4.837   2.274   9.795  1.3362  0.8135 -1.4482
  134SAPE   C2914482   4.765   2.319   9.614  0.7329 -0.3369  0.4133
  134SAPE   H9R14483   4.857   2.277   9.570  0.0556  0.8791 -2.4481
  134SAPE  C21014484   4.659   2.353   9.508  0.5529  0.1776 -0.0461
  134SAPE  H10R14485   4.646   2.462   9.495 -1.3357 -0.1125 -1.0569
  134SAPE  H10S14486   4.559   2.332   9.552  1.1353  1.1413  1.8395
  134SAPE  C21114487   4.685   2.289   9.374 -0.0767  0.0014  0.1016
  134SAPE  H11R14488   4.774   2.224   9.368  0.0154  0.1019  0.4057
  134SAPE  C21214489   4.598   2.299   9.269 -0.3102  0.1754 -0.8969
  134SAPE  H12R14490   4.626   2.244   9.178 -1.5750 -1.1248 -0.5549
  134SAPE  C21314491   4.467   2.367   9.275  0.1482  0.1728 -0.2056
  134SAPE  H13R14492   4.420   2.358   9.375 -0.8450  0.0845 -0.6698
  134SAPE  H13S14493   4.391   2.322   9.208 -1.7442  0.4438  1.6916
  134SAPE  C21414494   4.477   2.511   9.231 -0.2034  0.0542 -0.1479
  134SAPE  H14R14495   4.562   2.534   9.165 -1.8710  2.4935 -1.5949
  134SAPE  C21514496   4.386   2.610   9.253 -0.2905  0.8640  0.6190
  134SAPE  H15R14497   4.404   2.705   9.201 -0.0689  0.6955  0.3909
  134SAPE  C21614498   4.273   2.589   9.353  0.0483 -0.1857 -0.2695
  134SAPE  H16R14499   4.254   2.480   9.362 -0.0712 -0.0625  1.0405
  134SAPE  H16S14500   4.179   2.630   9.310  1.2814  2.1444 -0.9148
  134SAPE  C21714501   4.289   2.648   9.493  0.6853  0.0591  0.1220
  134SAPE  H17R14502   4.265   2.756   9.499  2.9994  0.5221  3.0577
  134SAPE  H17S14503   4.395   2.637   9.524  0.4282 -1.1996  0.6214
  134SAPE  C21814504   4.182   2.582   9.593  0.4326  0.0934  0.3885
  134SAPE  H18R14505   4.179   2.475   9.564 -0.0061  0.3378 -0.5011
  134SAPE  H18S14506   4.088   2.633   9.563  2.0079  1.9677 -1.7302
  134SAPE  C21914507   4.210   2.594   9.741  0.1336  0.1726 -0.7640
  134SAPE  H19R14508   4.140   2.520   9.787  1.8821 -1.1591 -0.1321
  134SAPE  H19S14509   4.193   2.696   9.780 -0.2112  0.9032 -2.7296
  134SAPE  C22014510   4.349   2.553   9.783 -0.4208  0.4280 -0.3154
  134SAPE  H20R14511   4.344   2.541   9.894 -0.4647  0.5507 -0.3049
  134SAPE  H20S14512   4.427   2.622   9.744 -1.0739  1.0940 -0.4630
  134SAPE  H20T14513   4.371   2.450   9.748 -2.6177 -0.9259  1.9430
  134SAPE   C3314514   3.997   1.978   9.989 -0.2265  0.0433 -0.0017
  134SAPE   H3X14515   4.105   1.953   9.995 -0.0520  0.0599 -2.3459
  134SAPE   H3Y14516   3.999   2.079  10.036 -1.6241 -0.0294  0.2614
  134SAPE   C3414517   3.949   1.991   9.839 -0.5161 -0.4772  0.4620
  134SAPE   H4X14518   3.840   2.011   9.845 -0.5660  0.6519 -2.5584
  134SAPE   H4Y14519   3.963   1.898   9.781  3.9574  1.1680 -1.5888
  134SAPE   C3514520   4.026   2.096   9.761  0.6275  0.1874 -0.4137
  134SAPE   H5X14521   4.038   2.181   9.832  0.2049  0.1193 -0.2520
  134SAPE   H5Y14522   3.960   2.124   9.677 -0.6872  1.1083  0.8683
  134SAPE   C3614523   4.153   2.030   9.704  0.1476 -0.0871  0.4946
  134SAPE   H6X14524   4.116   1.946   9.641  1.3242 -0.9670  0.9282
  134SAPE   H6Y14525   4.203   1.986   9.793 -0.3011 -0.8322  0.3865
  134SAPE   C3714526   4.242   2.122   9.624 -0.1191  0.1752 -0.4565
  134SAPE   H7X14527   4.304   2.175   9.699 -1.3983  0.1182  0.6897
  134SAPE   H7Y14528   4.176   2.189   9.564 -2.1589 -0.0635  1.3873
  134SAPE   C3814529   4.345   2.051   9.526  0.2318  0.0586 -0.2767
  134SAPE   H8X14530   4.387   1.974   9.593 -3.1659 -0.3056  1.6540
  134SAPE   H8Y14531   4.423   2.121   9.488  0.6843 -0.8386 -1.0321
  134SAPE   C3914532   4.280   1.966   9.419  0.1383 -0.5829  0.4422
  134SAPE   H9X14533   4.174   1.944   9.441 -0.7464  3.3663  0.8818
  134SAPE   H9Y14534   4.341   1.873   9.408 -1.0379 -1.1426 -2.0143
  134SAPE  C31014535   4.300   2.032   9.284  0.3946 -0.2370 -0.2258
  134SAPE  H10X14536   4.409   2.050   9.268  0.0564 -0.1252 -2.7403
  134SAPE  H10Y14537   4.250   2.130   9.296  0.0397 -0.5039  0.6258
  134SAPE  C31114538   4.259   1.943   9.174 -0.2229  0.6953  0.2401
  134SAPE  H11X14539   4.149   1.929   9.181 -0.1656  0.6678  1.1966
  134SAPE  H11Y14540   4.306   1.842   9.177 -1.9560 -0.1442  0.2899
  134SAPE  C31214541   4.286   2.013   9.046  0.7800  0.6237 -0.1543
  134SAPE  H12X14542   4.391   2.052   9.048  1.1414 -0.3406  0.5753
  134SAPE  H12Y14543   4.217   2.100   9.047 -0.7914 -0.5877 -0.1194
  134SAPE  C31314544   4.268   1.927   8.915  0.3375  0.4786 -0.2971
  134SAPE  H13X14545   4.317   1.980   8.831  0.4564  4.2228  1.9404
  134SAPE  H13Y14546   4.160   1.906   8.900 -0.4781  2.0140  2.5974
  134SAPE  C31414547   4.334   1.786   8.926  0.1660  0.5008  0.4515
  134SAPE  H14X14548   4.271   1.727   8.996 -0.1142  0.1135 -0.1191
  134SAPE  H14Y14549   4.433   1.793   8.976 -0.0679 -1.3933  1.2491
  134SAPE  C31514550   4.339   1.719   8.788 -0.0725 -0.6692  0.2020
  134SAPE  H15X14551   4.417   1.771   8.729 -0.0311 -1.0079 -0.0455
  134SAPE  H15Y14552   4.238   1.731   8.743 -0.8279  0.8476  2.1401
  134SAPE  C31614553   4.392   1.575   8.805 -0.5260  0.1070 -0.4334
  134SAPE  H16X14554   4.335   1.535   8.892  1.6682  1.8223  1.9354
  134SAPE  H16Y14555   4.501   1.565   8.819 -0.7973 -1.3829  1.0414
  134SAPE  C31714556   4.361   1.478   8.687  0.7715  0.4569 -0.3477
  134SAPE  H17X14557   4.431   1.500   8.603 -0.1342 -0.7053 -1.4547
  134SAPE  H17Y14558   4.261   1.499   8.644 -0.3222  1.4335  2.4346
  134SAPE  C31814559   4.377   1.334   8.735 -0.1287  0.6920 -0.8046
  134SAPE  H18X14560   4.485   1.309   8.740 -0.7286 -2.2370 -1.1389
  134SAPE  H18Y14561   4.337   1.262   8.661 -1.0001 -0.6364  0.9124
  134SAPE  H18Z14562   4.320   1.310   8.827 -0.0812  2.1179 -0.3678
  135SAPE     N14563   4.324   1.468  10.556 -0.2597  0.0172 -0.2546
  135SAPE   HN114564   4.282   1.412  10.633 -0.2237 -0.8918 -0.8801
  135SAPE   HN214565   4.427   1.467  10.574 -0.2511  0.8844 -0.1957
  135SAPE   HN314566   4.279   1.561  10.567 -0.2314  0.0789 -0.6734
  135SAPE   C1214567   4.281   1.431  10.417  0.2140 -0.6214 -0.0687
  135SAPE  H12A14568   4.339   1.490  10.343  1.0881 -2.3503 -0.8066
  135SAPE  H12B14569   4.172   1.451  10.406  0.7184  2.0117 -1.0997
  135SAPE   C1114570   4.323   1.283  10.378  1.0801  0.0799 -0.4201
  135SAPE  H11A14571   4.433   1.272  10.366  1.0365 -1.1845  0.2058
  135SAPE  H11B14572   4.259   1.270  10.289 -0.4667 -3.5110  1.0364
  135SAPE     P14573   4.341   1.072  10.545 -0.1340  0.2414  0.3289
  135SAPE   O1314574   4.487   1.092  10.557 -0.1143 -0.3269  0.8284
  135SAPE   O1414575   4.268   1.041  10.670 -0.0440  0.2144  0.1946
  135SAPE   O1214576   4.271   1.201  10.485  0.7035  0.2176  0.0315
  135SAPE   O1114577   4.306   0.963  10.434 -0.3950  0.7573 -0.4019
  135SAPE    C114578   4.176   0.940  10.386  0.2642  0.1581  0.4030
  135SAPE    HA14579   4.131   0.856  10.444  0.8416  0.4563  1.3099
  135SAPE    HB14580   4.112   1.030  10.392  0.1600  0.0074  2.3221
  135SAPE    C214581   4.184   0.893  10.231  0.1479 -0.2655  0.0516
  135SAPE    HS14582   4.082   0.906  10.189  0.7464  1.4656 -0.9474
  135SAPE   O2114583   4.230   0.759  10.209 -0.4701 -0.7325  0.0099
  135SAPE   C2114584   4.144   0.669  10.245 -0.2112 -0.0294  0.6302
  135SAPE   O2214585   4.027   0.684  10.267 -0.3101  0.4369 -0.1745
  135SAPE   C2214586   4.210   0.533  10.250 -0.0819  0.2533 -0.4763
  135SAPE   H2R14587   4.268   0.529  10.345  2.2228  0.2759 -1.7884
  135SAPE   H2S14588   4.125   0.463  10.265  1.1756 -1.4095 -0.6864
  135SAPE    C314589   4.269   0.995  10.158  1.3152 -0.3899 -0.0407
  135SAPE    HX14590   4.364   0.996  10.216  1.3901 -0.3577 -0.1642
  135SAPE    HY14591   4.216   1.091  10.179 -0.6221 -1.3834 -0.1683
  135SAPE   O3114592   4.292   0.951  10.025 -0.4940  0.1820  0.6817
  135SAPE   C3114593   4.194   0.968   9.948  0.7356  0.2563 -0.2590
  135SAPE   O3214594   4.092   1.029   9.984  0.3210 -0.5227 -0.4419
  135SAPE   C3214595   4.215   0.907   9.811 -0.0156 -0.5107 -0.2385
  135SAPE   H2X14596   4.211   0.799   9.839 -0.7356 -0.0813  1.4340
  135SAPE   H2Y14597   4.317   0.935   9.778 -0.2409  0.9055  0.1959
  135SAPE   C2314598   4.298   0.485  10.131 -0.4498 -0.0179  0.2786
  135SAPE   H3R14599   4.332   0.380  10.149 -0.3328 -0.6598 -3.1462
  135SAPE   H3S14600   4.386   0.552  10.145 -0.9705  0.3406  2.1612
  135SAPE   C2414601   4.224   0.500   9.999 -0.4265 -0.0659 -0.1467
  135SAPE   H4R14602   4.164   0.593  10.007 -2.7623 -1.1662 -3.2036
  135SAPE   H4S14603   4.147   0.419  10.006 -0.1596 -0.2975  0.1482
  135SAPE   C2514604   4.320   0.497   9.883 -0.3154  0.2824 -0.0956
  135SAPE   H5R14605   4.413   0.552   9.906  1.4128 -1.7445 -1.9059
  135SAPE   C2614606   4.311   0.427   9.770  0.5662 -0.0432  0.4510
  135SAPE   H6R14607   4.390   0.450   9.697  1.1192 -2.7134  0.1130
  135SAPE   C2714608   4.203   0.348   9.714  0.4815  0.3869  0.5733
  135SAPE   H7R14609   4.134   0.416   9.661  0.9751 -0.7250 -1.5939
  135SAPE   H7S14610   4.134   0.294   9.782 -1.6911  3.0857  0.6851
  135SAPE   C2814611   4.248   0.253   9.605  0.7140 -0.8350  0.0936
  135SAPE   H8R14612   4.331   0.192   9.642  1.0972  1.0899  2.6744
  135SAPE   C2914613   4.198   0.234   9.483 -0.4012  0.0646 -0.2786
  135SAPE   H9R14614   4.251   0.163   9.418 -1.8468 -0.9525 -0.3811
  135SAPE  C21014615   4.075   0.296   9.421  0.1024  0.0140  0.0607
  135SAPE  H10R14616   4.091   0.325   9.314  1.2274 -0.4312  0.0885
  135SAPE  H10S14617   4.045   0.392   9.468  0.3956 -1.2794  3.0633
  135SAPE  C21114618   3.963   0.196   9.443 -0.3811 -1.0504 -1.3107
  135SAPE  H11R14619   3.946   0.183   9.551 -1.2549  0.3289 -1.2621
  135SAPE  C21214620   3.881   0.145   9.347 -0.0536 -0.0968 -0.2752
  135SAPE  H12R14621   3.817   0.066   9.388  2.8503 -1.7795  1.3936
  135SAPE  C21314622   3.879   0.169   9.199  0.4137 -0.0767 -0.1732
  135SAPE  H13R14623   3.958   0.102   9.158  0.6272 -0.6844  1.1519
  135SAPE  H13S14624   3.901   0.272   9.165  1.5823 -0.6953 -1.4034
  135SAPE  C21414625   3.745   0.127   9.137  0.0167 -0.6182 -0.0621
  135SAPE  H14R14626   3.756   0.037   9.075  2.2486  0.8151 -1.9278
  135SAPE  C21514627   3.620   0.161   9.163  0.5113  0.4164  0.4719
  135SAPE  H15R14628   3.537   0.112   9.109  0.5504  0.6932  0.1549
  135SAPE  C21614629   3.572   0.256   9.271  0.4360  0.3308  0.1536
  135SAPE  H16R14630   3.520   0.345   9.228 -1.3640 -0.5824  0.3448
  135SAPE  H16S14631   3.654   0.296   9.334 -0.1115  0.8597  0.5490
  135SAPE  C21714632   3.472   0.204   9.378 -0.0853  0.2419 -0.3381
  135SAPE  H17R14633   3.514   0.107   9.411 -0.8976 -0.4745 -1.3394
  135SAPE  H17S14634   3.371   0.185   9.335 -0.3575  0.7999  0.0413
  135SAPE  C21814635   3.457   0.298   9.497 -0.0501 -0.2377 -0.3525
  135SAPE  H18R14636   3.474   0.402   9.462 -0.3079 -0.4570 -1.1613
  135SAPE  H18S14637   3.545   0.274   9.561 -1.2973  3.0276  2.9137
  135SAPE  C21914638   3.335   0.284   9.581  0.5242 -0.5590  0.3362
  135SAPE  H19R14639   3.335   0.173   9.588 -2.4923 -0.8740 -2.3447
  135SAPE  H19S14640   3.253   0.306   9.509  1.0434 -0.1882 -0.1470
  135SAPE  C22014641   3.327   0.382   9.697 -0.2795 -0.3467 -0.5724
  135SAPE  H20R14642   3.403   0.378   9.777 -1.7286  0.3351  0.9042
  135SAPE  H20S14643   3.227   0.371   9.745  0.0567 -2.4525 -0.2697
  135SAPE  H20T14644   3.347   0.486   9.661  1.8339 -0.6366 -0.3616
  135SAPE   C3314645   4.120   0.956   9.701  0.1022  0.2745  0.7193
  135SAPE   H3X14646   4.140   1.059   9.664  0.7676  0.1897  0.8366
  135SAPE   H3Y14647   4.017   0.950   9.742  0.3965 -2.6486  1.2763
  135SAPE   C3414648   4.130   0.865   9.582 -0.5788 -0.0732 -0.1448
  135SAPE   H4X14649   4.121   0.756   9.599 -1.8747  0.0493  0.0474
  135SAPE   H4Y14650   4.225   0.888   9.529 -0.7266  2.8894  0.6735
  135SAPE   C3514651   4.019   0.901   9.476  0.0909 -0.0193  0.5051
  135SAPE   H5X14652   3.997   1.010   9.486  1.8215  0.2456  1.8076
  135SAPE   H5Y14653   3.926   0.846   9.497 -1.1746  2.4871  1.9510
  135SAPE   C3614654   4.061   0.857   9.333 -0.3543  0.1246  0.0064
  135SAPE   H6X14655   4.129   0.929   9.284  1.1181 -0.2938  1.3417
  135SAPE   H6Y14656   3.969   0.832   9.276 -0.8701 -1.4776  1.4173
  135SAPE   C3714657   4.123   0.718   9.323 -0.5450  0.1381 -0.0082
  135SAPE   H7X14658   4.059   0.654   9.388 -0.4284  0.6329  0.6037
  135SAPE   H7Y14659   4.225   0.715   9.368 -1.0364  0.2412  1.1564
  135SAPE   C3814660   4.125   0.663   9.192  0.1119  0.1660  0.2505
  135SAPE   H8X14661   4.029   0.667   9.137  1.7640  0.6124 -2.8124
  135SAPE   H8Y14662   4.162   0.559   9.202 -0.3165  0.0790  0.9631
  135SAPE   C3914663   4.209   0.746   9.102 -0.6438 -0.7423 -0.1109
  135SAPE   H9X14664   4.301   0.780   9.154 -0.8538  0.2198 -0.3482
  135SAPE   H9Y14665   4.156   0.841   9.079  0.5138 -0.2549 -0.8673
  135SAPE  C31014666   4.255   0.680   8.973 -0.0123 -1.0247 -0.0976
  135SAPE  H10X14667   4.314   0.591   9.004 -0.2811 -1.1743 -0.0139
  135SAPE  H10Y14668   4.326   0.750   8.923 -1.1655 -0.1113 -0.5176
  135SAPE  C31114669   4.149   0.639   8.869 -0.0360 -0.3378 -0.3656
  135SAPE  H11X14670   4.081   0.726   8.866  0.3263  0.1583  2.7215
  135SAPE  H11Y14671   4.093   0.553   8.911 -1.9696  1.5826  1.2170
  135SAPE  C31214672   4.208   0.601   8.740 -0.1655 -0.4736 -0.2690
  135SAPE  H12X14673   4.311   0.565   8.761  0.2248  1.2979  1.0600
  135SAPE  H12Y14674   4.232   0.696   8.687  0.3172 -1.1965 -1.4085
  135SAPE  C31314675   4.133   0.505   8.646  0.0141 -0.9364  0.2056
  135SAPE  H13X14676   4.031   0.542   8.620  0.0061  0.1831  1.7221
  135SAPE  H13Y14677   4.121   0.407   8.697 -2.8099  0.5893  2.7937
  135SAPE  C31414678   4.206   0.495   8.515  0.0560 -0.0374 -0.4616
  135SAPE  H14X14679   4.156   0.415   8.456  1.4146 -0.4219 -1.1286
  135SAPE  H14Y14680   4.311   0.458   8.516 -0.1651 -0.8343 -2.3409
  135SAPE  C31514681   4.193   0.629   8.436  0.5583  0.7499 -0.6076
  135SAPE  H15X14682   4.259   0.713   8.468 -2.2687  2.8639 -0.0079
  135SAPE  H15Y14683   4.089   0.666   8.438 -0.2743 -1.1708  3.5336
  135SAPE  C31614684   4.239   0.608   8.291 -0.3867  0.2532  0.5354
  135SAPE  H16X14685   4.190   0.511   8.265 -0.2272 -0.0691  1.4069
  135SAPE  H16Y14686   4.350   0.613   8.285 -0.2185 -1.5914  1.2433
  135SAPE  C31714687   4.174   0.706   8.193 -0.4679 -1.1148 -0.6380
  135SAPE  H17X14688   4.183   0.815   8.212  0.0195 -0.9090 -1.9009
  135SAPE  H17Y14689   4.065   0.688   8.204 -0.2479 -1.1812  2.2931
  135SAPE  C31814690   4.219   0.691   8.047 -0.5406 -0.2279  0.9420
  135SAPE  H18X14691   4.327   0.714   8.047 -0.5507 -0.1672  0.4761
  135SAPE  H18Y14692   4.156   0.766   7.993  0.9306  0.4623  0.1215
  135SAPE  H18Z14693   4.203   0.585   8.017 -4.0550  0.3552  0.1958
  136SAPE     N14694   6.781   1.971  11.079 -0.0419 -0.0150 -0.0422
  136SAPE   HN114695   6.794   2.072  11.058  1.4415 -0.2913 -0.5802
  136SAPE   HN214696   6.873   1.932  11.111  0.9068  0.9517 -1.4655
  136SAPE   HN314697   6.744   1.913  11.001  0.4139  1.1180 -1.1264
  136SAPE   C1214698   6.682   1.940  11.189 -0.1897  0.4133  0.0295
  136SAPE  H12A14699   6.727   1.974  11.284 -2.8709 -1.7959  2.2723
  136SAPE  H12B14700   6.680   1.829  11.200  0.4061  0.5398  1.6892
  136SAPE   C1114701   6.540   1.994  11.181 -1.3815  0.5691  0.2742
  136SAPE  H11A14702   6.557   2.101  11.206  0.8646  0.0967  1.0007
  136SAPE  H11B14703   6.473   1.956  11.262 -1.4391  1.5621  0.7091
  136SAPE     P14704   6.349   1.934  11.019 -0.3687  0.0497 -0.2772
  136SAPE   O1314705   6.307   1.842  11.131 -0.2725  0.7927  0.6689
  136SAPE   O1414706   6.269   2.059  11.009 -0.5223 -0.0168  0.4954
  136SAPE   O1214707   6.497   1.968  11.049 -0.0573 -0.4913 -0.0885
  136SAPE   O1114708   6.347   1.856  10.887  0.0958  0.4906  0.5689
  136SAPE    C114709   6.418   1.905  10.772  0.5349 -0.0849 -0.1743
  136SAPE    HA14710   6.369   1.997  10.734 -0.7060 -0.2152  1.0519
  136SAPE    HB14711   6.526   1.920  10.794  1.1387 -2.4710 -1.1728
  136SAPE    C214712   6.407   1.806  10.645  0.8762  0.0104  0.7798
  136SAPE    HS14713   6.301   1.778  10.627  1.2106 -0.0062 -1.5685
  136SAPE   O2114714   6.483   1.689  10.679  0.0014  0.3704  1.0303
  136SAPE   C2114715   6.463   1.583  10.602 -0.8196  0.3762 -0.3661
  136SAPE   O2214716   6.400   1.582  10.493  0.2085  0.6132 -0.2829
  136SAPE   C2214717   6.531   1.465  10.673  0.2045  0.6014  0.3201
  136SAPE   H2R14718   6.641   1.472  10.666  0.3057 -0.3110  0.8844
  136SAPE   H2S14719   6.510   1.456  10.782  0.0580 -0.1694  0.2302
  136SAPE    C314720   6.464   1.878  10.518  0.1167  0.6179  0.6382
  136SAPE    HX14721   6.463   1.804  10.434  1.5040  1.3189 -0.0301
  136SAPE    HY14722   6.568   1.893  10.554  0.1346  0.3411  0.7069
  136SAPE   O3114723   6.389   2.000  10.497 -0.0461 -1.0012 -0.2645
  136SAPE   C3114724   6.442   2.072  10.399 -0.3110  0.7162  0.5671
  136SAPE   O3214725   6.544   2.039  10.340  0.0573 -0.0136  0.2216
  136SAPE   C3214726   6.357   2.187  10.371  0.6231  0.2415 -0.1914
  136SAPE   H2X14727   6.414   2.278  10.399  0.6639  0.3390 -0.5830
  136SAPE   H2Y14728   6.267   2.180  10.435  0.3413 -1.3883 -0.7024
  136SAPE   C2314729   6.476   1.332  10.606  0.3299  0.0600  0.7567
  136SAPE   H3R14730   6.450   1.350  10.500  1.1683 -1.9036  0.1863
  136SAPE   H3S14731   6.385   1.299  10.660  0.4060 -1.1565  0.1657
  136SAPE   C2414732   6.570   1.214  10.606 -0.4066  1.2499 -0.7601
  136SAPE   H4R14733   6.577   1.176  10.710 -0.4084  0.0004 -1.2081
  136SAPE   H4S14734   6.674   1.235  10.575  0.7795  0.7933  2.5311
  136SAPE   C2514735   6.490   1.102  10.531  0.3054 -1.1387 -0.0899
  136SAPE   H5R14736   6.400   1.064  10.581  0.5918 -0.0880  1.2985
  136SAPE   C2614737   6.537   1.038  10.421  0.6037 -0.9042 -0.4836
  136SAPE   H6R14738   6.472   0.956  10.386  0.1966 -0.8980  0.2420
  136SAPE   C2714739   6.670   1.075  10.350 -0.5511 -0.0308 -0.4331
  136SAPE   H7R14740   6.737   1.143  10.406  0.0702  1.4071 -2.7927
  136SAPE   H7S14741   6.656   1.133  10.257  0.1801  0.0345 -0.5082
  136SAPE   C2814742   6.737   0.942  10.345  0.4522  0.7272  0.0019
  136SAPE   H8R14743   6.797   0.896  10.426 -1.8008  0.4471  1.6331
  136SAPE   C2914744   6.737   0.861  10.236  0.7045 -0.2454 -0.4749
  136SAPE   H9R14745   6.791   0.765  10.240 -1.3097 -1.5055 -1.4387
  136SAPE  C21014746   6.676   0.892  10.096 -0.0915 -0.1426 -0.4626
  136SAPE  H10R14747   6.759   0.906  10.025  1.2972 -1.3378  0.8515
  136SAPE  H10S14748   6.648   0.999  10.103  0.7208  0.0302  0.3777
  136SAPE  C21114749   6.553   0.823  10.048  0.0160 -0.3937  0.2133
  136SAPE  H11R14750   6.482   0.821  10.132 -0.2946  0.0357 -0.0395
  136SAPE  C21214751   6.521   0.776   9.923 -0.0093 -0.4862  0.1197
  136SAPE  H12R14752   6.419   0.739   9.910 -0.5807  1.7185 -2.5884
  136SAPE  C21314753   6.618   0.769   9.805  0.4396 -0.3593 -0.2597
  136SAPE  H13R14754   6.631   0.664   9.772 -0.4632 -0.4785 -0.2844
  136SAPE  H13S14755   6.718   0.784   9.850  0.0267  1.3970  0.1371
  136SAPE  C21414756   6.600   0.883   9.707 -0.1521  0.3161  0.5772
  136SAPE  H14R14757   6.595   0.988   9.739  0.9049  1.0689 -1.5734
  136SAPE  C21514758   6.588   0.865   9.571 -0.2527  1.1216  0.0168
  136SAPE  H15R14759   6.586   0.947   9.498  0.3241 -1.4353 -3.1120
  136SAPE  C21614760   6.593   0.727   9.500  0.5046 -0.5963  0.5049
  136SAPE  H16R14761   6.498   0.670   9.498  1.4797 -2.3282 -1.7224
  136SAPE  H16S14762   6.663   0.660   9.554  0.5823 -1.3026 -0.4475
  136SAPE  C21714763   6.650   0.743   9.363  0.2112 -0.0880 -0.2395
  136SAPE  H17R14764   6.677   0.640   9.331  1.5950  0.0203  0.4840
  136SAPE  H17S14765   6.744   0.803   9.366  0.5043 -0.5758  1.3058
  136SAPE  C21814766   6.543   0.794   9.271  0.7673  0.2369  0.6386
  136SAPE  H18R14767   6.512   0.899   9.288 -0.8256  0.1362 -1.2938
  136SAPE  H18S14768   6.445   0.742   9.272  0.1473  1.0407 -3.1825
  136SAPE  C21914769   6.591   0.795   9.121  0.2749  0.1305  0.1594
  136SAPE  H19R14770   6.662   0.880   9.112 -0.1883  0.3418 -2.2360
  136SAPE  H19S14771   6.507   0.826   9.056  1.3181  1.3903 -0.6348
  136SAPE  C22014772   6.652   0.661   9.067 -0.0218 -0.4478 -0.4762
  136SAPE  H20R14773   6.648   0.659   8.956 -0.7969 -1.5635 -0.4497
  136SAPE  H20S14774   6.598   0.568   9.096 -0.8841  0.6352  1.6056
  136SAPE  H20T14775   6.757   0.651   9.102  0.7525  1.7538 -1.9561
  136SAPE   C3314776   6.322   2.180  10.222  0.0742 -0.0452  0.0342
  136SAPE   H3X14777   6.413   2.189  10.159 -0.7123  0.5712 -1.0664
  136SAPE   H3Y14778   6.265   2.273  10.199  0.9788  0.8944  1.4462
  136SAPE   C3414779   6.233   2.060  10.168  0.3005  0.3486 -0.6079
  136SAPE   H4X14780   6.168   2.020  10.249 -0.5185  1.5653 -0.6211
  136SAPE   H4Y14781   6.292   1.969  10.149 -1.4487 -0.7942 -0.7865
  136SAPE   C3514782   6.164   2.076  10.035 -0.1178 -0.7147  0.0637
  136SAPE   H5X14783   6.095   2.161  10.054  0.3922  0.0635 -1.3654
  136SAPE   H5Y14784   6.104   1.983  10.019 -2.1060  0.6881 -1.1880
  136SAPE   C3614785   6.253   2.120   9.914 -0.3870  0.2468 -0.4255
  136SAPE   H6X14786   6.334   2.046   9.896 -1.5501 -1.5014  1.1037
  136SAPE   H6Y14787   6.290   2.223   9.934 -2.6760  0.8286  1.0848
  136SAPE   C3714788   6.171   2.115   9.787 -0.3647  0.1258  0.0311
  136SAPE   H7X14789   6.090   2.191   9.789 -2.3649 -1.8902 -0.1088
  136SAPE   H7Y14790   6.122   2.017   9.767  2.0134 -1.5349  1.8631
  136SAPE   C3814791   6.267   2.135   9.662  0.4312  0.0590  0.1976
  136SAPE   H8X14792   6.352   2.064   9.672  1.5107  1.1742 -0.7542
  136SAPE   H8Y14793   6.317   2.234   9.660 -0.3255  0.4486  0.3417
  136SAPE   C3914794   6.186   2.115   9.532 -0.4483  0.5126  0.2660
  136SAPE   H9X14795   6.111   2.196   9.518 -2.1281 -1.0585 -0.1267
  136SAPE   H9Y14796   6.122   2.028   9.553 -0.7138  0.5639 -0.3175
  136SAPE  C31014797   6.288   2.102   9.414  0.0673 -0.2501  0.7953
  136SAPE  H10X14798   6.369   2.030   9.439  1.8472  1.5170  0.3639
  136SAPE  H10Y14799   6.346   2.197   9.413 -1.9465  1.0550 -1.0469
  136SAPE  C31114800   6.226   2.077   9.280  0.5810 -0.2577  0.2559
  136SAPE  H11X14801   6.134   2.133   9.253  0.5515 -0.6480 -0.4888
  136SAPE  H11Y14802   6.204   1.969   9.274  0.1615 -0.3217  2.1898
  136SAPE  C31214803   6.330   2.114   9.179 -0.0120 -0.4983  0.7071
  136SAPE  H12X14804   6.436   2.084   9.196  1.0454  0.2807 -3.3672
  136SAPE  H12Y14805   6.330   2.225   9.171  1.4895 -0.3101  2.6307
  136SAPE  C31314806   6.275   2.073   9.035 -0.4584  0.0751 -0.4014
  136SAPE  H13X14807   6.168   2.091   9.012 -0.0158  0.5333 -2.2597
  136SAPE  H13Y14808   6.285   1.962   9.037  0.9057  0.1540 -1.4893
  136SAPE  C31414809   6.338   2.160   8.923 -0.6411 -0.3514  0.0730
  136SAPE  H14X14810   6.447   2.136   8.925  0.0331  2.1062 -1.8920
  136SAPE  H14Y14811   6.310   2.264   8.949 -1.1062 -0.4239 -0.1383
  136SAPE  C31514812   6.276   2.148   8.779  0.2560  0.9877  0.3404
  136SAPE  H15X14813   6.334   2.213   8.710 -1.4711  1.9073 -0.2897
  136SAPE  H15Y14814   6.171   2.183   8.776  0.0699  0.3936 -1.4116
  136SAPE  C31614815   6.281   2.010   8.713  0.4177 -0.3307 -0.4038
  136SAPE  H16X14816   6.264   1.932   8.791 -0.3146  0.3468  0.1275
  136SAPE  H16Y14817   6.384   2.006   8.672 -0.2571 -1.3040 -2.0852
  136SAPE  C31714818   6.184   1.993   8.599  0.0918  0.5822 -0.0394
  136SAPE  H17X14819   6.191   2.081   8.532  0.1315 -0.0444 -0.8691
  136SAPE  H17Y14820   6.079   1.988   8.635 -0.6482 -3.2035 -2.1841
  136SAPE  C31814821   6.202   1.872   8.517 -0.7321  1.0365  0.4697
  136SAPE  H18X14822   6.119   1.855   8.445 -0.5603  1.6365  0.1228
  136SAPE  H18Y14823   6.213   1.775   8.570  0.2969  0.2199 -1.1291
  136SAPE  H18Z14824   6.285   1.874   8.442 -0.6013 -1.2990  0.4713
  137SAPE     N14825   4.585   3.428  11.028  0.6354  0.3649 -0.4111
  137SAPE   HN114826   4.600   3.368  10.944 -0.1065 -0.1347 -0.2028
  137SAPE   HN214827   4.656   3.387  11.093 -0.2095 -0.5528 -0.0299
  137SAPE   HN314828   4.491   3.413  11.070  1.0098  0.0335  0.3535
  137SAPE   C1214829   4.597   3.569  10.985  0.6862 -0.0749 -0.7984
  137SAPE  H12A14830   4.698   3.590  10.945  0.4112 -0.0582 -1.5066
  137SAPE  H12B14831   4.587   3.624  11.081  2.6874 -2.3225  0.8268
  137SAPE   C1114832   4.476   3.598  10.894  0.0381 -0.1293  0.2505
  137SAPE  H11A14833   4.466   3.517  10.818 -2.0851 -1.9097  2.2916
  137SAPE  H11B14834   4.471   3.699  10.847 -1.6336 -0.5231 -0.5019
  137SAPE     P14835   4.220   3.666  10.953 -0.1442  0.4593  0.4051
  137SAPE   O1314836   4.113   3.596  11.022  0.6862  0.3028  0.3783
  137SAPE   O1414837   4.249   3.805  10.983  0.7261  0.9141 -0.3410
  137SAPE   O1214838   4.356   3.589  10.974 -0.2276  0.0679  0.0554
  137SAPE   O1114839   4.191   3.650  10.800 -0.4732  0.0714 -0.1566
  137SAPE    C114840   4.125   3.549  10.738  0.1546 -0.1851  0.2866
  137SAPE    HA14841   4.053   3.496  10.804  0.6611 -0.9739  0.2287
  137SAPE    HB14842   4.061   3.596  10.661 -3.0885 -3.3172  0.7964
  137SAPE    C214843   4.214   3.445  10.669  0.1692 -0.2860  0.3469
  137SAPE    HS14844   4.273   3.389  10.744  2.3643 -0.5859 -1.4827
  137SAPE   O2114845   4.291   3.511  10.566 -0.5361 -0.9267 -0.3582
  137SAPE   C2114846   4.405   3.446  10.554  0.6007 -0.3517 -1.3138
  137SAPE   O2214847   4.430   3.335  10.604  0.3522  0.5253  0.5374
  137SAPE   C2214848   4.495   3.519  10.451  0.1966 -0.5242 -0.2140
  137SAPE   H2R14849   4.493   3.629  10.470 -0.0226 -0.6656  0.6488
  137SAPE   H2S14850   4.597   3.497  10.490  0.5546  1.8915  0.3560
  137SAPE    C314851   4.116   3.344  10.596  0.4540  0.2126 -0.3387
  137SAPE    HX14852   4.036   3.408  10.554 -0.5525 -0.2146  0.8645
  137SAPE    HY14853   4.072   3.291  10.683  1.2531  1.3866  0.8213
  137SAPE   O3114854   4.178   3.251  10.504 -0.2563  0.2610 -0.2432
  137SAPE   C3114855   4.100   3.191  10.415  0.5028 -0.5199 -0.4980
  137SAPE   O3214856   3.981   3.194  10.409  0.4266  1.0041  0.5797
  137SAPE   C3214857   4.185   3.116  10.309  0.2897  0.0354 -1.1493
  137SAPE   H2X14858   4.145   3.013  10.301 -0.7309  0.5025 -2.2742
  137SAPE   H2Y14859   4.289   3.102  10.346  0.7289 -0.8978 -2.6416
  137SAPE   C2314860   4.488   3.467  10.315  0.4578  0.4792 -0.3020
  137SAPE   H3R14861   4.484   3.356  10.316 -1.1618  0.4620  2.8879
  137SAPE   H3S14862   4.573   3.504  10.253  0.4049 -0.9490 -1.2896
  137SAPE   C2414863   4.358   3.506  10.230 -0.4433  0.1470 -0.0624
  137SAPE   H4R14864   4.269   3.446  10.259 -0.7775  0.7393  0.1546
  137SAPE   H4S14865   4.384   3.468  10.128  0.5681 -1.5459  0.7877
  137SAPE   C2514866   4.335   3.656  10.220 -0.2293 -0.9486  0.4650
  137SAPE   H5R14867   4.302   3.708  10.312 -2.0627  1.0014 -1.1759
  137SAPE   C2614868   4.354   3.740  10.113 -0.0417  0.0126 -0.2545
  137SAPE   H6R14869   4.322   3.844  10.129 -2.4389 -0.4714 -1.4503
  137SAPE   C2714870   4.409   3.704   9.975 -0.3553 -0.7754  0.1338
  137SAPE   H7R14871   4.510   3.659   9.987  0.9178  1.9952  0.5107
  137SAPE   H7S14872   4.424   3.802   9.926 -3.8376  0.0444  0.4439
  137SAPE   C2814873   4.323   3.616   9.892  0.7772 -0.5910 -0.4349
  137SAPE   H8R14874   4.269   3.533   9.940  0.0437 -0.1815 -0.5322
  137SAPE   C2914875   4.289   3.636   9.763 -0.2512  0.1809 -0.1195
  137SAPE   H9R14876   4.225   3.560   9.715  1.6874 -1.7735  0.2813
  137SAPE  C21014877   4.328   3.752   9.680  0.6613 -0.3387  0.2132
  137SAPE  H10R14878   4.411   3.733   9.610  2.5746  0.2885  2.1962
  137SAPE  H10S14879   4.347   3.850   9.728  2.6945 -0.4706 -0.2626
  137SAPE  C21114880   4.194   3.774   9.601  0.2977  0.0060  0.8156
  137SAPE  H11R14881   4.129   3.845   9.655  1.5668  0.5968  1.6042
  137SAPE  C21214882   4.159   3.720   9.488 -0.2866 -0.3001  0.6328
  137SAPE  H12R14883   4.064   3.751   9.441 -0.3382  2.0568  2.0823
  137SAPE  C21314884   4.252   3.625   9.418 -0.0556  0.1127 -0.0310
  137SAPE  H13R14885   4.264   3.540   9.488  1.2968  1.4331  1.4342
  137SAPE  H13S14886   4.354   3.667   9.406  0.1010 -0.3152 -0.1887
  137SAPE  C21414887   4.210   3.578   9.280 -0.4832 -0.8395 -0.1968
  137SAPE  H14R14888   4.209   3.469   9.263 -0.9042 -0.6611 -1.4096
  137SAPE  C21514889   4.198   3.651   9.165 -0.6992 -0.8312 -0.0235
  137SAPE  H15R14890   4.162   3.598   9.076 -1.1070 -2.9068  1.3033
  137SAPE  C21614891   4.217   3.801   9.159 -0.1131 -0.4706 -0.0817
  137SAPE  H16R14892   4.312   3.815   9.103 -0.6855 -1.9297 -1.4809
  137SAPE  H16S14893   4.241   3.851   9.255  0.4568 -1.0320  0.0697
  137SAPE  C21714894   4.097   3.881   9.095 -0.3881 -0.4594  0.3646
  137SAPE  H17R14895   4.110   3.988   9.121 -0.2076 -0.2759 -0.4435
  137SAPE  H17S14896   4.002   3.843   9.138 -0.6861 -0.7000 -0.4732
  137SAPE  C21814897   4.081   3.878   8.941  0.4563 -0.2514  0.3609
  137SAPE  H18R14898   3.978   3.917   8.926  0.0001 -1.5975 -0.2446
  137SAPE  H18S14899   4.070   3.774   8.902 -2.5636  0.3323 -0.6193
  137SAPE  C21914900   4.172   3.965   8.847 -0.1119  0.2463  1.1417
  137SAPE  H19R14901   4.276   3.927   8.847 -0.1024  0.2422  0.0829
  137SAPE  H19S14902   4.179   4.067   8.890 -0.7386  0.8012 -0.0156
  137SAPE  C22014903   4.117   3.978   8.708 -0.3798  0.5119  0.3441
  137SAPE  H20R14904   4.012   4.016   8.712 -0.8578 -0.5690 -1.0113
  137SAPE  H20S14905   4.103   3.881   8.657 -0.1340  1.1199 -0.9384
  137SAPE  H20T14906   4.177   4.039   8.637 -2.1800 -1.8535 -3.5761
  137SAPE   C3314907   4.171   3.176  10.168 -0.3287  0.4166 -0.3491
  137SAPE   H3X14908   4.196   3.284  10.166 -0.9544  0.6062 -3.4922
  137SAPE   H3Y14909   4.068   3.162  10.128  0.0265 -0.8597 -0.8794
  137SAPE   C3414910   4.272   3.107  10.064  0.5051 -0.2765 -0.7396
  137SAPE   H4X14911   4.259   2.997  10.057 -1.0040 -0.2559  1.1283
  137SAPE   H4Y14912   4.368   3.113  10.119 -1.0876 -0.7778  2.2965
  137SAPE   C3514913   4.279   3.176   9.927  0.7730  0.2151  0.1058
  137SAPE   H5X14914   4.379   3.150   9.885 -0.1973 -1.1371 -1.4996
  137SAPE   H5Y14915   4.256   3.285   9.935  0.7708  0.0974  2.4690
  137SAPE   C3614916   4.166   3.126   9.829  0.1660 -0.7001 -0.0879
  137SAPE   H6X14917   4.082   3.102   9.899  1.4857 -0.1300  1.7608
  137SAPE   H6Y14918   4.177   3.027   9.780 -1.2779 -0.2230 -1.4366
  137SAPE   C3714919   4.107   3.224   9.735  0.2652 -0.0032  0.8158
  137SAPE   H7X14920   4.084   3.317   9.791 -1.0171  1.5411 -2.0837
  137SAPE   H7Y14921   4.019   3.173   9.690  2.1699 -1.8234 -1.0802
  137SAPE   C3814922   4.208   3.256   9.626 -0.3598 -0.1057  0.4796
  137SAPE   H8X14923   4.296   3.293   9.683 -1.1913  1.5090  0.7936
  137SAPE   H8Y14924   4.161   3.335   9.563  0.5931 -0.3026 -0.4934
  137SAPE   C3914925   4.243   3.138   9.540 -0.4682 -0.5834  0.2730
  137SAPE   H9X14926   4.156   3.089   9.491  1.5368 -2.6038 -1.5006
  137SAPE   H9Y14927   4.299   3.069   9.608  0.1829 -0.8819 -0.5394
  137SAPE  C31014928   4.325   3.171   9.419 -0.3396 -0.1533  0.1369
  137SAPE  H10X14929   4.398   3.089   9.401 -0.7899 -0.2686 -1.2784
  137SAPE  H10Y14930   4.393   3.257   9.434 -0.9753  0.5502 -0.8636
  137SAPE  C31114931   4.239   3.188   9.288 -0.0170  0.2582 -1.1126
  137SAPE  H11X14932   4.153   3.256   9.303 -0.1694 -0.2476  0.4189
  137SAPE  H11Y14933   4.191   3.088   9.282 -0.0360  0.1009  0.9714
  137SAPE  C31214934   4.331   3.222   9.173 -0.5614  0.3211 -0.0110
  137SAPE  H12X14935   4.397   3.135   9.158 -1.4913 -0.0318 -2.5616
  137SAPE  H12Y14936   4.407   3.294   9.212 -1.0726 -0.1715  2.0564
  137SAPE  C31314937   4.256   3.270   9.046 -0.3433 -0.8400  0.0622
  137SAPE  H13X14938   4.204   3.365   9.071 -0.2188 -1.1917  1.8225
  137SAPE  H13Y14939   4.183   3.197   9.006 -0.8943 -1.2496  1.7209
  137SAPE  C31414940   4.361   3.300   8.941 -0.4039 -0.1358  0.8077
  137SAPE  H14X14941   4.416   3.210   8.906  0.6712  0.3837  1.1317
  137SAPE  H14Y14942   4.425   3.377   8.989  2.1792 -1.8095  0.2052
  137SAPE  C31514943   4.293   3.360   8.817 -1.2591 -0.9274  0.3954
  137SAPE  H15X14944   4.258   3.459   8.853  0.2494  1.0116 -2.9942
  137SAPE  H15Y14945   4.216   3.298   8.767 -0.5683 -0.6293 -1.1034
  137SAPE  C31614946   4.402   3.398   8.716  0.1312  0.2553  0.2481
  137SAPE  H16X14947   4.488   3.453   8.760  0.2694  0.5938 -0.4188
  137SAPE  H16Y14948   4.368   3.463   8.632 -2.1418 -0.0844  0.8444
  137SAPE  C31714949   4.467   3.282   8.641 -0.2344  1.0598  0.1570
  137SAPE  H17X14950   4.390   3.220   8.591  0.2317  0.0294  0.6685
  137SAPE  H17Y14951   4.520   3.211   8.709  0.3473  0.2881 -1.0721
  137SAPE  C31814952   4.558   3.324   8.528  0.0178  0.5870  0.7145
  137SAPE  H18X14953   4.594   3.429   8.538  0.8493  0.4180 -0.3556
  137SAPE  H18Y14954   4.507   3.326   8.430 -0.8888 -0.8073  1.1314
  137SAPE  H18Z14955   4.644   3.256   8.516  0.1075  1.1491 -2.9639
  138SAPE     N14956   1.661   3.479  10.447  0.3763  0.0046 -0.6064
  138SAPE   HN114957   1.567   3.520  10.468  0.2851 -1.1757  1.6118
  138SAPE   HN214958   1.683   3.427  10.534 -0.3716 -1.2774 -1.1544
  138SAPE   HN314959   1.731   3.553  10.430 -1.2041  1.4231 -1.2831
  138SAPE   C1214960   1.643   3.391  10.335 -0.0289  0.4419  0.7727
  138SAPE  H12A14961   1.734   3.334  10.308 -1.3734 -0.9980 -0.9645
  138SAPE  H12B14962   1.618   3.449  10.243  0.2152 -1.4064 -0.5094
  138SAPE   C1114963   1.519   3.302  10.359 -0.2232  0.8949 -0.9827
  138SAPE  H11A14964   1.522   3.235  10.271  1.7591  0.1333 -0.4044
  138SAPE  H11B14965   1.428   3.365  10.365 -1.0577 -0.3930  1.7185
  138SAPE     P14966   1.463   3.079  10.491  0.1054 -0.0032 -0.1228
  138SAPE   O1314967   1.534   3.003  10.595 -0.0178  0.0164 -0.5877
  138SAPE   O1414968   1.310   3.077  10.499 -0.0746 -0.4231 -0.6164
  138SAPE   O1214969   1.533   3.229  10.482 -0.0217  0.2557 -0.3789
  138SAPE   O1114970   1.517   3.002  10.361 -0.0988 -0.0431 -0.5374
  138SAPE    C114971   1.645   2.935  10.345 -0.6444 -0.3190 -0.6505
  138SAPE    HA14972   1.709   2.942  10.436  0.9110 -0.1146 -1.7227
  138SAPE    HB14973   1.633   2.828  10.320  1.3141 -0.3792 -1.5540
  138SAPE    C214974   1.735   2.986  10.231 -0.6355  0.5606  0.1576
  138SAPE    HS14975   1.784   3.082  10.257  1.5455 -1.1921  3.0900
  138SAPE   O2114976   1.665   2.976  10.104  0.9340 -0.0169 -0.3785
  138SAPE   C2114977   1.657   3.094  10.042  0.2185 -0.1064  0.2162
  138SAPE   O2214978   1.724   3.191  10.066  0.9876  0.4405  0.5627
  138SAPE   C2214979   1.557   3.082   9.929  0.4257 -0.3583  0.8431
  138SAPE   H2R14980   1.609   3.061   9.833 -0.8600  0.0588  0.0141
  138SAPE   H2S14981   1.482   3.001   9.940 -1.4744  1.3450  1.2229
  138SAPE    C314982   1.873   2.904  10.220 -0.8560  0.1842  0.2036
  138SAPE    HX14983   1.852   2.797  10.200 -3.0544 -0.0280  2.8723
  138SAPE    HY14984   1.927   2.906  10.317  1.1404  1.3091 -0.8734
  138SAPE   O3114985   1.957   2.964  10.117 -0.1502 -0.0277  0.2073
  138SAPE   C3114986   2.033   3.076  10.154  0.7480  0.1381 -0.5327
  138SAPE   O3214987   2.022   3.130  10.262  0.6268 -0.5303 -0.3041
  138SAPE   C3214988   2.135   3.106  10.040  0.2575 -0.3259 -0.1372
  138SAPE   H2X14989   2.237   3.131  10.076  0.8772  1.3410 -2.8382
  138SAPE   H2Y14990   2.097   3.205  10.008  2.7987  0.5581 -0.6458
  138SAPE   C2314991   1.479   3.208   9.891 -0.3624 -0.2338  0.0284
  138SAPE   H3R14992   1.547   3.295   9.895 -0.4330 -0.1212 -0.9810
  138SAPE   H3S14993   1.404   3.226   9.971  1.8175  1.0623  1.9018
  138SAPE   C2414994   1.411   3.226   9.750 -0.3141  0.5011  0.4645
  138SAPE   H4R14995   1.350   3.139   9.719 -1.6260  1.6949 -0.4442
  138SAPE   H4S14996   1.491   3.224   9.673 -1.5883 -1.0108 -0.9016
  138SAPE   C2514997   1.318   3.341   9.747  0.2351 -0.3783  0.2166
  138SAPE   H5R14998   1.270   3.371   9.842 -1.2924  0.8891 -0.9082
  138SAPE   C2614999   1.290   3.408   9.634 -0.0308  0.3264 -0.2183
  138SAPE   H6R15000   1.216   3.489   9.637 -0.8643 -0.3491  4.5357
  138SAPE   C2715001   1.340   3.386   9.498  0.0323 -0.0474  0.5378
  138SAPE   H7R15002   1.261   3.337   9.436  0.0815  0.0251  0.4168
  138SAPE   H7S15003   1.422   3.311   9.502  0.5687  0.5561  0.9666
  138SAPE   C2815004   1.389   3.510   9.434 -0.4403 -0.2301 -0.5156
  138SAPE   H8R15005   1.433   3.588   9.497  1.2433 -0.7592 -0.9838
  138SAPE   C2915006   1.377   3.539   9.306 -0.3332 -0.5496  0.6725
  138SAPE   H9R15007   1.392   3.643   9.271 -0.8480 -0.2847  1.2220
  138SAPE  C21015008   1.313   3.459   9.197  0.0822 -0.9420 -0.2019
  138SAPE  H10R15009   1.245   3.531   9.147  1.0764 -0.3018 -0.6596
  138SAPE  H10S15010   1.256   3.369   9.232  0.8416 -1.3325  0.0593
  138SAPE  C21115011   1.417   3.411   9.096  0.2110  0.1773 -0.5515
  138SAPE  H11R15012   1.520   3.424   9.132 -0.1709  0.1434  0.5835
  138SAPE  C21215013   1.392   3.383   8.963  0.0909 -0.0524 -0.0226
  138SAPE  H12R15014   1.477   3.351   8.901  0.8458  3.0537 -0.7461
  138SAPE  C21315015   1.260   3.388   8.891  0.3670 -0.3638  0.0714
  138SAPE  H13R15016   1.277   3.438   8.793 -1.9371  0.0459 -0.1904
  138SAPE  H13S15017   1.187   3.453   8.943  0.1547 -1.1564  0.7936
  138SAPE  C21415018   1.210   3.252   8.859 -0.1437 -0.2636  0.0193
  138SAPE  H14R15019   1.224   3.171   8.932 -0.6127 -0.3340  0.0368
  138SAPE  C21515020   1.139   3.221   8.748 -0.0771  0.0636 -0.0999
  138SAPE  H15R15021   1.094   3.121   8.740  0.9017 -0.5425  1.3740
  138SAPE  C21615022   1.093   3.320   8.643 -0.3507  0.3173 -0.6496
  138SAPE  H16R15023   1.090   3.427   8.673  0.5980  0.1338  0.1513
  138SAPE  H16S15024   0.987   3.293   8.624 -0.3732  1.9959 -3.4007
  138SAPE  C21715025   1.155   3.306   8.505  0.1780  0.6481 -0.0897
  138SAPE  H17R15026   1.124   3.209   8.461 -1.9253  0.9541  0.6399
  138SAPE  H17S15027   1.265   3.296   8.520 -0.0116 -1.5088  0.1983
  138SAPE  C21815028   1.130   3.424   8.416 -0.4846 -0.1015 -0.5645
  138SAPE  H18R15029   1.200   3.426   8.330 -2.3718  1.8185 -2.1813
  138SAPE  H18S15030   1.151   3.514   8.477  1.9996 -0.7879 -0.2883
  138SAPE  C21915031   0.982   3.440   8.372  0.1062  0.3173 -0.0320
  138SAPE  H19R15032   0.914   3.465   8.456  0.0134  3.3500 -0.8634
  138SAPE  H19S15033   0.951   3.340   8.335  0.7893 -0.0988  0.5096
  138SAPE  C22015034   0.950   3.540   8.262 -0.3416  0.3299  0.3508
  138SAPE  H20R15035   1.019   3.517   8.178 -0.8946  0.3402 -0.1114
  138SAPE  H20S15036   0.971   3.643   8.298 -0.8263  0.5139  0.1165
  138SAPE  H20T15037   0.847   3.523   8.223  0.5102 -2.0992 -1.0622
  138SAPE   C3315038   2.151   3.018   9.917  1.0631  0.2661 -0.3141
  138SAPE   H3X15039   2.060   3.034   9.855  0.1372 -0.7376  0.7320
  138SAPE   H3Y15040   2.157   2.910   9.942  1.1026 -0.2818 -2.4608
  138SAPE   C3415041   2.274   3.043   9.817  0.2102 -0.7872  0.0032
  138SAPE   H4X15042   2.366   3.018   9.873 -0.6021 -2.5122  0.6238
  138SAPE   H4Y15043   2.269   3.153   9.801 -0.6505 -1.0245 -1.5950
  138SAPE   C3515044   2.263   2.976   9.681 -0.1866  0.3975 -0.3697
  138SAPE   H5X15045   2.169   3.017   9.638 -1.9196 -0.5381  2.3120
  138SAPE   H5Y15046   2.254   2.865   9.685  0.6583  0.2751 -1.2746
  138SAPE   C3615047   2.379   3.010   9.580  0.6340 -0.1212  0.2310
  138SAPE   H6X15048   2.471   2.958   9.612 -1.1782 -3.6842  0.2131
  138SAPE   H6Y15049   2.392   3.120   9.572 -0.6581 -0.0781 -2.9266
  138SAPE   C3715050   2.336   2.948   9.442  0.7053 -1.0214 -0.1571
  138SAPE   H7X15051   2.237   2.993   9.421  2.1415  2.0820 -0.8109
  138SAPE   H7Y15052   2.314   2.840   9.457  0.4137 -0.7121  1.8868
  138SAPE   C3815053   2.431   2.967   9.329  1.1424 -0.0015  0.1677
  138SAPE   H8X15054   2.527   2.911   9.333  1.5644  0.6536 -0.3951
  138SAPE   H8Y15055   2.450   3.077   9.340 -3.0040  0.7260  1.7041
  138SAPE   C3915056   2.364   2.962   9.191  0.7229 -0.2172 -0.2090
  138SAPE   H9X15057   2.267   3.015   9.184 -0.0060 -1.6900 -3.3739
  138SAPE   H9Y15058   2.330   2.856   9.183  2.7607 -0.9490  0.2351
  138SAPE  C31015059   2.447   3.023   9.081 -0.2056  0.3904  0.4617
  138SAPE  H10X15060   2.549   2.979   9.090  0.0105  0.5058 -1.1318
  138SAPE  H10Y15061   2.465   3.132   9.093  0.1904  0.3458  0.2987
  138SAPE  C31115062   2.401   3.001   8.935 -1.3621 -0.3661  0.0281
  138SAPE  H11X15063   2.298   3.041   8.920 -1.0083 -0.0250 -1.6756
  138SAPE  H11Y15064   2.391   2.891   8.926  1.0308 -0.6536  0.2018
  138SAPE  C31215065   2.512   3.030   8.824  0.5622  0.0696  0.2464
  138SAPE  H12X15066   2.609   2.991   8.861  0.7033 -0.0676 -0.2617
  138SAPE  H12Y15067   2.538   3.138   8.821  0.1431  0.1511 -0.7792
  138SAPE  C31315068   2.487   2.971   8.678 -0.1175 -0.2214  0.1613
  138SAPE  H13X15069   2.477   2.862   8.692 -1.7049 -0.0267  0.7734
  138SAPE  H13Y15070   2.568   2.993   8.604  1.1010  0.0370  1.5239
  138SAPE  C31415071   2.353   3.035   8.630  0.6879 -0.6985 -0.5296
  138SAPE  H14X15072   2.359   3.146   8.623  0.1004 -0.6051  0.2972
  138SAPE  H14Y15073   2.280   3.026   8.713  1.5989 -1.6472  0.2036
  138SAPE  C31515074   2.306   2.985   8.497  0.0546 -0.0974  0.4717
  138SAPE  H15X15075   2.303   2.874   8.487  0.3139 -0.1020  0.4329
  138SAPE  H15Y15076   2.382   3.009   8.420 -0.1316  2.0246  0.8956
  138SAPE  C31615077   2.165   3.024   8.475 -0.5575  0.0000  0.0837
  138SAPE  H16X15078   2.167   3.134   8.491 -0.9884  0.1220 -0.6304
  138SAPE  H16Y15079   2.095   2.980   8.549 -1.0369 -0.5204 -0.6595
  138SAPE  C31715080   2.123   3.023   8.329  0.1450  0.3623  1.0071
  138SAPE  H17X15081   2.191   3.093   8.276 -2.6125  1.9290 -0.7138
  138SAPE  H17Y15082   2.022   3.069   8.331  0.2660  0.6186  1.2550
  138SAPE  C31815083   2.101   2.882   8.284  0.2694 -0.8803  0.3641
  138SAPE  H18X15084   2.199   2.831   8.274  0.0686 -1.3192  0.6099
  138SAPE  H18Y15085   2.047   2.870   8.188  1.5937 -0.0196 -0.5310
  138SAPE  H18Z15086   2.059   2.830   8.373  0.6442  0.3240  1.2866
  139SAPE     N15087   0.691   3.999  10.843 -0.5624  0.3635  0.5108
  139SAPE   HN115088   0.695   4.047  10.936  3.0562 -0.5445  0.9800
  139SAPE   HN215089   0.748   3.913  10.833  1.3172  1.8132 -2.7454
  139SAPE   HN315090   0.733   4.059  10.769 -1.2255 -0.3478 -0.4611
  139SAPE   C1215091   0.550   3.960  10.820  0.5445  0.4551 -0.1766
  139SAPE  H12A15092   0.481   4.047  10.817 -0.9937 -0.6386  1.1306
  139SAPE  H12B15093   0.522   3.892  10.904  3.0612 -0.2087  0.1957
  139SAPE   C1115094   0.548   3.883  10.687  0.1542 -0.0473  0.3879
  139SAPE  H11A15095   0.599   3.946  10.610  0.5357 -0.5248  0.2428
  139SAPE  H11B15096   0.442   3.862  10.660  0.2420 -0.5843  0.4519
  139SAPE     P15097   0.704   3.707  10.556 -0.2017 -0.1151 -0.1754
  139SAPE   O1315098   0.835   3.775  10.575  0.3103  0.0688  0.1663
  139SAPE   O1415099   0.687   3.556  10.547 -0.3425  0.2064  0.0871
  139SAPE   O1215100   0.619   3.757  10.685  0.0899  0.5111  0.3813
  139SAPE   O1115101   0.641   3.774  10.429  0.5594  0.7288  0.3968
  139SAPE    C115102   0.555   3.702  10.338 -0.1558 -0.2281 -0.0922
  139SAPE    HA15103   0.619   3.656  10.260 -0.6402 -0.6244 -0.2654
  139SAPE    HB15104   0.490   3.633  10.397  1.2743 -1.2825  0.2922
  139SAPE    C215105   0.432   3.780  10.270  0.1997 -0.0644 -0.6984
  139SAPE    HS15106   0.396   3.713  10.189 -0.8171 -0.6522  0.2206
  139SAPE   O2115107   0.465   3.908  10.210 -0.4667 -0.7697 -0.2239
  139SAPE   C2115108   0.556   3.896  10.111  0.6482  0.3307  0.4341
  139SAPE   O2215109   0.591   3.793  10.057  0.3278  0.0015 -0.2574
  139SAPE   C2215110   0.609   4.038  10.085  0.3554 -0.3830  0.4433
  139SAPE   H2R15111   0.522   4.097  10.051  0.7083 -0.9149 -1.4912
  139SAPE   H2S15112   0.669   4.081  10.168 -0.3179  1.5200 -0.0202
  139SAPE    C315113   0.307   3.792  10.363 -0.1856 -0.3399 -0.1843
  139SAPE    HX15114   0.336   3.873  10.433  1.3655 -0.9189 -0.1125
  139SAPE    HY15115   0.303   3.691  10.409 -1.7229 -0.5960 -0.8117
  139SAPE   O3115116   0.188   3.818  10.280  0.4081 -0.2221 -0.3680
  139SAPE   C3115117   0.156   3.951  10.272 -0.2411 -0.1224 -0.9095
  139SAPE   O3215118   0.225   4.038  10.324  0.2504  0.1944 -0.1647
  139SAPE   C3215119   0.030   3.969  10.189 -0.0101 -1.0749 -0.3155
  139SAPE   H2X15120  -0.042   3.990  10.271  1.9561 -0.3955  1.3320
  139SAPE   H2Y15121   0.003   3.869  10.149 -0.5392 -0.9907 -0.1738
  139SAPE   C2315122   0.714   4.027   9.972  1.1855 -0.5813  0.0749
  139SAPE   H3R15123   0.670   3.977   9.883  0.3498 -0.5889  0.4888
  139SAPE   H3S15124   0.801   3.960   9.995  1.2263 -0.9354 -1.0621
  139SAPE   C2415125   0.762   4.164   9.938 -0.0235 -0.3214 -0.1460
  139SAPE   H4R15126   0.782   4.209  10.038  1.0910 -0.4810 -0.2862
  139SAPE   H4S15127   0.682   4.223   9.888 -0.4686 -0.5074  0.3297
  139SAPE   C2515128   0.894   4.164   9.861  0.1863  0.4007  0.5130
  139SAPE   H5R15129   0.984   4.160   9.925  0.9990 -0.6896 -0.6568
  139SAPE   C2615130   0.910   4.167   9.723 -0.1377  0.4601 -0.2396
  139SAPE   H6R15131   1.011   4.161   9.680 -0.4436 -0.8595 -0.8112
  139SAPE   C2715132   0.798   4.187   9.621  0.6374  0.1928  0.1376
  139SAPE   H7R15133   0.830   4.250   9.535 -0.8150 -0.1554 -0.6949
  139SAPE   H7S15134   0.713   4.249   9.655  1.1459  1.0120 -0.0530
  139SAPE   C2815135   0.752   4.056   9.567 -0.2329 -0.0984  0.5053
  139SAPE   H8R15136   0.735   3.980   9.645  2.2444  0.3942  1.6095
  139SAPE   C2915137   0.748   4.026   9.437 -0.2513  0.4510 -0.1582
  139SAPE   H9R15138   0.709   3.926   9.413 -0.8880  0.3497  1.1938
  139SAPE  C21015139   0.788   4.108   9.312  0.3007 -0.2028  0.4372
  139SAPE  H10R15140   0.863   4.055   9.249  1.8305 -3.6487  4.6650
  139SAPE  H10S15141   0.825   4.210   9.337 -0.6480  0.7124 -1.6219
  139SAPE  C21115142   0.674   4.135   9.218 -0.3639  0.0825 -0.3003
  139SAPE  H11R15143   0.584   4.149   9.281 -0.1449  1.9522 -0.3504
  139SAPE  C21215144   0.676   4.141   9.081  0.2389 -0.3156 -0.1988
  139SAPE  H12R15145   0.584   4.171   9.028  0.4081 -3.4532 -2.5311
  139SAPE  C21315146   0.796   4.141   9.000 -0.5021  0.1357  0.5379
  139SAPE  H13R15147   0.798   4.062   8.922 -0.0870  0.6830 -0.0108
  139SAPE  H13S15148   0.888   4.138   9.062 -0.1210 -1.4001 -0.0566
  139SAPE  C21415149   0.802   4.273   8.934  0.3211 -0.7257  0.4704
  139SAPE  H14R15150   0.792   4.350   9.012 -0.2814 -0.8953  0.5684
  139SAPE  C21515151   0.801   4.306   8.802  0.2330 -0.2071  0.2925
  139SAPE  H15R15152   0.805   4.414   8.782  0.7683 -0.2303  0.2778
  139SAPE  C21615153   0.799   4.205   8.686 -0.4195 -0.0704 -0.7748
  139SAPE  H16R15154   0.694   4.169   8.676 -0.0513 -2.0324  1.6354
  139SAPE  H16S15155   0.866   4.121   8.714  0.4677  0.0344 -2.4425
  139SAPE  C21715156   0.852   4.264   8.550  0.1869 -0.0512  0.3132
  139SAPE  H17R15157   0.787   4.348   8.518  0.9457 -0.1679 -1.6813
  139SAPE  H17S15158   0.841   4.183   8.475  0.4057 -0.0703  0.3020
  139SAPE  C21815159   1.002   4.302   8.555  0.0119 -0.0504  0.5382
  139SAPE  H18R15160   1.059   4.209   8.576 -1.3618 -1.9249 -3.1644
  139SAPE  H18S15161   1.029   4.377   8.633  2.6551  1.6276 -1.8079
  139SAPE  C21915162   1.057   4.367   8.422  0.1578  0.6859 -0.1441
  139SAPE  H19R15163   1.007   4.464   8.404 -1.1615  0.1928  0.6754
  139SAPE  H19S15164   1.014   4.309   8.337  3.0632 -0.7432 -0.7598
  139SAPE  C22015165   1.203   4.375   8.401 -0.7868 -0.2659  0.7531
  139SAPE  H20R15166   1.227   4.406   8.297 -4.9698  1.0713  0.0145
  139SAPE  H20S15167   1.252   4.280   8.433  2.7207  1.1148 -0.0635
  139SAPE  H20T15168   1.262   4.442   8.468  0.5373 -1.5008  0.8689
  139SAPE   C3315169   0.040   4.088  10.093  0.1158  0.1807 -0.5882
  139SAPE   H3X15170   0.092   4.180  10.129 -2.7887  2.3252 -1.4954
  139SAPE   H3Y15171  -0.067   4.103  10.070  0.2747 -1.9344 -3.1868
  139SAPE   C3415172   0.117   4.056   9.961  0.3693 -0.1554 -0.2042
  139SAPE   H4X15173   0.065   3.965   9.924  1.0262 -0.8321  0.5293
  139SAPE   H4Y15174   0.221   4.021   9.976  0.3239 -0.7716 -1.2331
  139SAPE   C3515175   0.101   4.165   9.856  0.0510 -0.5197 -0.5772
  139SAPE   H5X15176   0.162   4.257   9.874 -0.7408  0.3495 -2.0772
  139SAPE   H5Y15177  -0.005   4.199   9.854  0.1194 -0.1780  0.8881
  139SAPE   C3615178   0.140   4.105   9.725 -0.1130 -0.2966  0.0735
  139SAPE   H6X15179   0.076   4.016   9.711 -3.4716  1.8837  0.3883
  139SAPE   H6Y15180   0.247   4.077   9.716 -0.2472 -0.1438 -3.5605
  139SAPE   C3715181   0.114   4.206   9.602 -0.3384  0.2074 -0.6497
  139SAPE   H7X15182   0.167   4.300   9.629 -1.4982  1.5903 -2.8758
  139SAPE   H7Y15183   0.006   4.231   9.611 -0.0640  1.1853  0.1708
  139SAPE   C3815184   0.156   4.157   9.466 -0.5241  0.4486 -0.7866
  139SAPE   H8X15185   0.121   4.052   9.457  1.7708 -0.5222  0.7624
  139SAPE   H8Y15186   0.267   4.151   9.461 -0.4754 -1.7512  1.1277
  139SAPE   C3915187   0.101   4.247   9.354  0.1281 -0.5375  0.0763
  139SAPE   H9X15188   0.143   4.349   9.365 -1.4433 -0.0746  2.4285
  139SAPE   H9Y15189  -0.010   4.250   9.355  0.1251  1.2550  2.7139
  139SAPE  C31015190   0.138   4.192   9.211 -0.0680  0.3677 -0.4665
  139SAPE  H10X15191   0.186   4.093   9.225 -0.2056  0.4952  1.0855
  139SAPE  H10Y15192   0.209   4.252   9.150  0.8279 -1.8087 -1.7011
  139SAPE  C31115193   0.005   4.180   9.130 -0.4267  0.0821 -0.6198
  139SAPE  H11X15194  -0.062   4.266   9.151  1.4706  1.8559 -1.5384
  139SAPE  H11Y15195  -0.050   4.088   9.160  0.9850 -0.7608 -0.4975
  139SAPE  C31215196   0.027   4.169   8.985  0.3224  0.5217 -0.4916
  139SAPE  H12X15197   0.078   4.261   8.948  0.3622  0.8175  0.2627
  139SAPE  H12Y15198  -0.068   4.170   8.929  0.8376  0.3774 -1.3781
  139SAPE  C31315199   0.099   4.036   8.941 -0.1914 -0.3627  0.7461
  139SAPE  H13X15200   0.031   3.953   8.967 -0.3522 -0.8473 -1.0637
  139SAPE  H13Y15201   0.189   4.043   9.006  0.4560 -0.5626 -0.1100
  139SAPE  C31415202   0.145   4.016   8.799  0.8194  0.5595  0.9153
  139SAPE  H14X15203   0.206   3.924   8.789 -2.1346 -1.2844 -2.7027
  139SAPE  H14Y15204   0.204   4.107   8.773  2.4446 -0.7552 -0.2143
  139SAPE  C31515205   0.026   4.001   8.698 -0.0104 -0.1399 -0.2881
  139SAPE  H15X15206  -0.034   4.092   8.718  0.4375  0.0010  0.4616
  139SAPE  H15Y15207  -0.037   3.912   8.719 -1.0871  0.8298  0.7932
  139SAPE  C31615208   0.059   3.987   8.550  0.1829  0.1484  0.6708
  139SAPE  H16X15209  -0.032   3.997   8.487  0.7405 -2.5821 -0.7625
  139SAPE  H16Y15210   0.137   4.063   8.528  1.7208 -0.7620  2.6422
  139SAPE  C31715211   0.107   3.846   8.527 -0.1578 -0.2898  0.2131
  139SAPE  H17X15212   0.044   3.768   8.576 -1.1798 -0.4593 -1.2935
  139SAPE  H17Y15213   0.200   3.828   8.585  2.5470  1.4866 -3.2211
  139SAPE  C31815214   0.144   3.818   8.387 -0.2686  0.0381  0.6015
  139SAPE  H18X15215   0.057   3.774   8.335  0.2027 -1.2889  0.8961
  139SAPE  H18Y15216   0.228   3.746   8.391  1.0725  1.1444 -3.1207
  139SAPE  H18Z15217   0.187   3.907   8.335  0.9217 -0.9221 -0.1037
  140SAPE     N15218   3.592   6.801  11.041  0.1497  0.5474  0.4456
  140SAPE   HN115219   3.686   6.828  11.075 -0.6803 -1.4572  5.0579
  140SAPE   HN215220   3.530   6.830  11.119 -1.2484 -1.6157  0.2176
  140SAPE   HN315221   3.596   6.698  11.026  1.1057  0.7004 -0.4734
  140SAPE   C1215222   3.529   6.869  10.924 -0.3346 -0.3137 -0.0676
  140SAPE  H12A15223   3.585   6.849  10.831 -0.0063  1.8319 -0.3941
  140SAPE  H12B15224   3.534   6.978  10.946 -0.1541 -0.5949  1.4318
  140SAPE   C1115225   3.382   6.818  10.899 -1.0523 -0.1455 -0.1192
  140SAPE  H11A15226   3.393   6.709  10.879  3.6473  0.5151 -2.7155
  140SAPE  H11B15227   3.349   6.859  10.801 -1.7497 -0.4576 -0.0176
  140SAPE     P15228   3.132   6.846  10.979  0.0508 -0.1597 -0.2665
  140SAPE   O1315229   3.070   6.738  11.049 -0.4428 -0.6450 -0.0685
  140SAPE   O1415230   3.091   6.987  11.011 -0.0159  0.7126 -0.2040
  140SAPE   O1215231   3.285   6.839  11.003 -0.3337  0.2094  0.3495
  140SAPE   O1115232   3.116   6.819  10.824 -0.3193  0.0030  0.0728
  140SAPE    C115233   3.090   6.925  10.737 -0.0913 -0.3455  0.3354
  140SAPE    HA15234   3.129   7.023  10.771 -0.3200 -0.3320  0.5605
  140SAPE    HB15235   3.149   6.907  10.644 -1.2641  1.2793 -0.7640
  140SAPE    C215236   2.944   6.935  10.700 -0.1529  0.1166  0.1104
  140SAPE    HS15237   2.882   6.955  10.790 -1.9270 -0.4454 -0.9331
  140SAPE   O2115238   2.903   6.809  10.649  0.2154  0.4211 -0.5364
  140SAPE   C2115239   2.775   6.793  10.626 -0.1279  1.0494 -0.5410
  140SAPE   O2215240   2.686   6.868  10.662  0.3277 -0.1153  0.4153
  140SAPE   C2215241   2.751   6.673  10.536 -0.2016  0.2940  0.0193
  140SAPE   H2R15242   2.840   6.630  10.485 -0.7858 -1.8203  0.6571
  140SAPE   H2S15243   2.717   6.595  10.608 -1.0225 -0.2668 -0.9615
  140SAPE    C315244   2.919   7.056  10.604 -0.6671  0.0699 -0.9459
  140SAPE    HX15245   2.947   7.153  10.649  1.4960 -0.5348 -0.8841
  140SAPE    HY15246   2.813   7.055  10.570 -0.9682  1.5765 -0.1292
  140SAPE   O3115247   3.015   7.044  10.496  0.0082 -0.1753  0.6970
  140SAPE   C3115248   2.973   7.073  10.379 -0.3846  0.1249 -1.2672
  140SAPE   O3215249   2.862   7.118  10.351  0.3454  0.4533  0.2011
  140SAPE   C3215250   3.080   7.046  10.280 -0.0009  0.2311  0.5365
  140SAPE   H2X15251   3.076   6.939  10.250  1.6386  0.7251 -1.6580
  140SAPE   H2Y15252   3.181   7.082  10.309 -0.1367  0.3162  0.9164
  140SAPE   C2315253   2.639   6.696  10.430  0.4887 -0.3037 -0.1008
  140SAPE   H3R15254   2.553   6.728  10.492  0.8413 -2.7026  1.7994
  140SAPE   H3S15255   2.615   6.599  10.381 -0.9064  0.5824 -1.2573
  140SAPE   C2415256   2.666   6.816  10.328 -0.4168  0.4248 -0.7833
  140SAPE   H4R15257   2.701   6.902  10.390  1.7864  0.3708 -1.8788
  140SAPE   H4S15258   2.571   6.848  10.279  0.3513  2.8130 -0.8574
  140SAPE   C2515259   2.780   6.784  10.227  0.0800 -0.4773  0.1560
  140SAPE   H5R15260   2.867   6.736  10.274  0.3815  0.1174  0.2110
  140SAPE   C2615261   2.774   6.802  10.099 -0.1157  0.4288 -0.7963
  140SAPE   H6R15262   2.857   6.777  10.031 -0.2870  0.7646 -1.1272
  140SAPE   C2715263   2.655   6.836  10.020 -0.4352 -0.7293  0.2333
  140SAPE   H7R15264   2.563   6.838  10.082 -1.1499 -0.1675 -0.8112
  140SAPE   H7S15265   2.621   6.754   9.953  0.0011 -0.7508  0.0373
  140SAPE   C2815266   2.674   6.958   9.930 -0.4919 -0.4293  0.0155
  140SAPE   H8R15267   2.738   7.035   9.975 -0.9716 -1.5351  2.8050
  140SAPE   C2915268   2.631   6.979   9.806 -0.4103 -0.0137  0.3248
  140SAPE   H9R15269   2.657   7.076   9.761  0.1267 -0.6907 -0.8479
  140SAPE  C21015270   2.553   6.886   9.709 -0.7979 -0.7516  0.3585
  140SAPE  H10R15271   2.542   6.786   9.756  0.2355 -1.7325 -1.3976
  140SAPE  H10S15272   2.598   6.872   9.609 -3.1579  1.6432 -1.1679
  140SAPE  C21115273   2.415   6.936   9.684 -0.2509  0.0776 -0.2080
  140SAPE  H11R15274   2.348   6.934   9.771  1.0328  0.3252  0.8186
  140SAPE  C21215275   2.369   6.969   9.563 -0.4317 -0.2381 -0.5760
  140SAPE  H12R15276   2.263   6.998   9.563 -0.4220 -0.1843  0.2981
  140SAPE  C21315277   2.444   6.968   9.427 -0.1474  0.3165  1.0640
  140SAPE  H13R15278   2.522   6.889   9.432  0.7612  0.9901 -1.0691
  140SAPE  H13S15279   2.506   7.059   9.409 -2.4542  2.1097  1.6557
  140SAPE  C21415280   2.360   6.957   9.301  0.2759 -0.8584  0.4798
  140SAPE  H14R15281   2.251   6.967   9.309  0.4388  0.6473  1.1947
  140SAPE  C21515282   2.408   6.965   9.178  0.0708  0.7759  0.3365
  140SAPE  H15R15283   2.337   6.976   9.095 -0.3982 -1.5569  0.3490
  140SAPE  C21615284   2.546   6.983   9.128 -0.0461  0.1561 -0.0777
  140SAPE  H16R15285   2.624   6.962   9.205  1.8759  0.5624 -1.8325
  140SAPE  H16S15286   2.556   7.090   9.101  0.2167  0.6553  1.8482
  140SAPE  C21715287   2.586   6.893   9.006 -0.4131  0.0566  0.4654
  140SAPE  H17R15288   2.569   6.783   9.019  0.6981 -0.0581  1.0018
  140SAPE  H17S15289   2.694   6.903   8.983 -0.7181 -0.4022 -1.4011
  140SAPE  C21815290   2.512   6.936   8.878 -0.0344  0.4207  0.0407
  140SAPE  H18R15291   2.404   6.917   8.889 -0.0052  0.5384  0.5586
  140SAPE  H18S15292   2.556   6.867   8.803  0.3656  0.0903  0.5700
  140SAPE  C21915293   2.537   7.081   8.840  0.0415 -0.6051  0.2972
  140SAPE  H19R15294   2.497   7.147   8.921 -1.4980  2.1329 -2.4783
  140SAPE  H19S15295   2.480   7.107   8.748 -0.4332 -1.4771  0.3368
  140SAPE  C22015296   2.684   7.109   8.809  0.0076  0.1277  0.3546
  140SAPE  H20R15297   2.735   7.016   8.775 -0.1283 -1.5940  4.3277
  140SAPE  H20S15298   2.742   7.140   8.899  0.3686 -1.2786  0.6270
  140SAPE  H20T15299   2.685   7.190   8.733  0.0182 -0.0847  0.1290
  140SAPE   C3315300   3.060   7.122  10.146  0.4593 -0.3440 -1.2003
  140SAPE   H3X15301   3.023   7.224  10.173 -0.6818 -0.7727 -1.0599
  140SAPE   H3Y15302   2.974   7.075  10.093 -0.1000 -1.0319  0.2587
  140SAPE   C3415303   3.183   7.139  10.056 -0.1488  0.5142 -0.2393
  140SAPE   H4X15304   3.267   7.171  10.120  0.3533 -1.9219  0.4404
  140SAPE   H4Y15305   3.170   7.212   9.974  1.4119 -1.0190 -1.9379
  140SAPE   C3515306   3.235   7.009   9.994 -0.2529  0.3553 -0.1351
  140SAPE   H5X15307   3.261   6.943  10.080 -2.0167  1.4161  1.2764
  140SAPE   H5Y15308   3.325   7.024   9.931 -1.2253  0.2679 -1.5891
  140SAPE   C3615309   3.124   6.941   9.908 -0.2972 -0.0041  0.1044
  140SAPE   H6X15310   3.086   7.009   9.829 -1.4984 -2.8883 -1.9818
  140SAPE   H6Y15311   3.042   6.898   9.970  0.3246  1.7782  2.2963
  140SAPE   C3715312   3.187   6.812   9.837 -0.0570 -0.5500  0.2485
  140SAPE   H7X15313   3.211   6.740   9.918  0.5802 -1.9331 -1.1287
  140SAPE   H7Y15314   3.280   6.854   9.792 -0.3283  0.0099  0.1913
  140SAPE   C3815315   3.102   6.747   9.726 -0.7325  0.2986 -0.2147
  140SAPE   H8X15316   3.158   6.661   9.684  1.0464  0.4068  1.7860
  140SAPE   H8Y15317   3.098   6.834   9.656 -1.7544 -0.2178 -0.8176
  140SAPE   C3915318   2.966   6.705   9.767 -0.2255 -0.3745  0.0520
  140SAPE   H9X15319   2.930   6.778   9.844  0.8638  0.3090 -0.0752
  140SAPE   H9Y15320   2.974   6.602   9.808 -2.8400 -1.3975 -1.7047
  140SAPE  C31015321   2.863   6.708   9.649  0.4425 -0.2893  0.3980
  140SAPE  H10X15322   2.833   6.814   9.631  0.2930 -0.4427 -0.2625
  140SAPE  H10Y15323   2.775   6.646   9.675 -1.2626  2.0413  0.5616
  140SAPE  C31115324   2.930   6.663   9.519  0.1280 -0.9437 -0.1126
  140SAPE  H11X15325   2.965   6.557   9.518  0.3276 -0.9038 -2.1125
  140SAPE  H11Y15326   3.015   6.729   9.493 -0.6300  0.4835  0.9314
  140SAPE  C31215327   2.833   6.675   9.403 -0.0638 -0.0933  0.3199
  140SAPE  H12X15328   2.811   6.783   9.394 -1.7563 -0.5184 -1.8778
  140SAPE  H12Y15329   2.733   6.628   9.415 -0.8043  1.5122  0.6881
  140SAPE  C31315330   2.882   6.631   9.274  0.2866 -0.2912  0.2843
  140SAPE  H13X15331   2.803   6.628   9.196  0.3642  1.1727  0.1159
  140SAPE  H13Y15332   2.934   6.533   9.273  1.1679  0.1403 -1.9355
  140SAPE  C31415333   2.986   6.736   9.228 -0.0464  0.1522  0.5397
  140SAPE  H14X15334   3.082   6.711   9.279  0.7585  0.8428 -0.5786
  140SAPE  H14Y15335   2.952   6.838   9.256 -1.1472 -0.7905  2.8669
  140SAPE  C31515336   3.009   6.722   9.070 -0.2741  0.0618  0.0680
  140SAPE  H15X15337   2.910   6.725   9.018  1.7320 -1.5212 -4.3037
  140SAPE  H15Y15338   3.052   6.622   9.052  1.2940  0.7154  0.0660
  140SAPE  C31615339   3.095   6.830   9.015 -0.0667  0.3695 -0.1820
  140SAPE  H16X15340   3.198   6.820   9.055 -0.1624  3.4664  1.0813
  140SAPE  H16Y15341   3.074   6.934   9.047  0.1513 -0.1244  1.7170
  140SAPE  C31715342   3.104   6.825   8.860 -0.4244  0.1154 -0.1912
  140SAPE  H17X15343   3.126   6.721   8.827 -2.1616  0.2671 -2.0270
  140SAPE  H17Y15344   3.187   6.881   8.814  1.2842 -0.9931  1.3999
  140SAPE  C31815345   2.984   6.862   8.781 -0.0721 -0.5257 -0.2456
  140SAPE  H18X15346   2.987   6.842   8.672 -1.5486  0.2976 -0.4686
  140SAPE  H18Y15347   2.943   6.961   8.808  0.4746  0.0877 -1.5978
  140SAPE  H18Z15348   2.898   6.798   8.812 -1.4399 -0.0774 -2.8579
  141SAPE     N15349   4.200   6.555  11.183  0.0882 -0.0799 -0.3009
  141SAPE   HN115350   4.122   6.569  11.250  1.4428 -0.3754  1.4111
  141SAPE   HN215351   4.258   6.474  11.213 -0.4035 -0.8847 -1.4333
  141SAPE   HN315352   4.258   6.641  11.184  0.3831 -0.2760  0.6579
  141SAPE   C1215353   4.131   6.541  11.049 -0.6957  0.3368 -0.6150
  141SAPE  H12A15354   4.124   6.432  11.028  3.0851 -0.1301 -0.1245
  141SAPE  H12B15355   4.207   6.568  10.973 -0.4321 -1.4513 -1.0331
  141SAPE   C1115356   4.004   6.622  11.048 -0.6590 -0.1562  0.0138
  141SAPE  H11A15357   3.918   6.596  11.114 -0.8589 -1.1193 -0.6109
  141SAPE  H11B15358   3.964   6.605  10.946  0.5656  3.8103 -1.3496
  141SAPE     P15359   3.973   6.876  10.976 -0.2714  0.2222  0.1615
  141SAPE   O1315360   3.836   6.915  11.006  0.5895  0.2911  1.2972
  141SAPE   O1415361   4.061   6.992  10.993  0.2540  0.0277 -0.1635
  141SAPE   O1215362   4.027   6.758  11.064 -0.2989  0.2522 -0.2096
  141SAPE   O1115363   3.986   6.827  10.825  0.4371 -0.8454 -0.2379
  141SAPE    C115364   4.119   6.821  10.770  0.0578 -0.7334  0.9711
  141SAPE    HA15365   4.155   6.925  10.755  0.2577 -0.9671 -0.2048
  141SAPE    HB15366   4.188   6.772  10.842  1.3696  1.4877  1.2972
  141SAPE    C215367   4.122   6.761  10.622  0.3026  0.2989  0.1098
  141SAPE    HS15368   4.218   6.801  10.583  0.4494  0.8975  1.0512
  141SAPE   O2115369   4.009   6.799  10.547  0.1531  0.1613  0.2978
  141SAPE   C2115370   4.004   6.914  10.484  0.1884 -0.1049 -0.3233
  141SAPE   O2215371   4.077   7.011  10.504  0.1455  0.1458  0.7898
  141SAPE   C2215372   3.893   6.910  10.376 -0.0217  0.2953 -0.0738
  141SAPE   H2R15373   3.836   6.815  10.380 -0.9493  0.8069 -0.6803
  141SAPE   H2S15374   3.823   6.993  10.401 -0.3250 -0.6618  2.6250
  141SAPE    C315375   4.123   6.603  10.624  0.8168 -0.1254  0.3753
  141SAPE    HX15376   4.032   6.572  10.678 -0.0297  1.0832 -0.3253
  141SAPE    HY15377   4.208   6.587  10.694  1.3780  0.5030 -0.1499
  141SAPE   O3115378   4.138   6.552  10.493 -0.8718 -0.0041  0.2265
  141SAPE   C3115379   4.023   6.533  10.428  0.3455 -0.3882 -0.0051
  141SAPE   O3215380   3.909   6.535  10.475  0.7232 -0.1250 -0.4488
  141SAPE   C3215381   4.053   6.492  10.284 -0.0337  0.8434  0.5348
  141SAPE   H2X15382   4.117   6.402  10.282 -0.7644  0.3300 -0.4707
  141SAPE   H2Y15383   4.111   6.573  10.235  0.2634 -0.9505 -2.2578
  141SAPE   C2315384   3.946   6.953  10.229 -0.3800  0.8553 -0.6549
  141SAPE   H3R15385   3.976   7.060  10.233  0.8027  0.6089 -2.2895
  141SAPE   H3S15386   3.857   6.948  10.163  0.4340 -2.5347 -1.7200
  141SAPE   C2415387   4.050   6.862  10.165 -0.4446 -0.2410 -0.0357
  141SAPE   H4R15388   3.996   6.772  10.131 -1.7982 -0.5283  2.6698
  141SAPE   H4S15389   4.121   6.823  10.241 -0.8879  0.4106  0.7276
  141SAPE   C2515390   4.119   6.933  10.049  0.2680 -0.5434  0.6452
  141SAPE   H5R15391   4.173   7.022  10.083  2.3317 -1.0166 -1.1175
  141SAPE   C2615392   4.129   6.893   9.918 -0.3071  0.5103  0.1333
  141SAPE   H6R15393   4.200   6.945   9.851 -1.6103  0.9299 -0.9674
  141SAPE   C2715394   4.073   6.765   9.853 -0.3769  0.4870 -0.4002
  141SAPE   H7R15395   4.000   6.710   9.915  2.3317 -1.2036  1.5226
  141SAPE   H7S15396   4.165   6.703   9.852  0.8672  2.1957  0.8092
  141SAPE   C2815397   4.012   6.794   9.719 -0.3879 -0.2903 -0.2196
  141SAPE   H8R15398   3.980   6.897   9.701  1.3166  0.5560  1.3062
  141SAPE   C2915399   3.991   6.701   9.620  0.1337  0.8647 -0.1631
  141SAPE   H9R15400   3.930   6.735   9.535  0.2953  1.2367 -0.1299
  141SAPE  C21015401   4.047   6.557   9.615  0.4914 -0.5047 -0.3467
  141SAPE  H10R15402   3.958   6.491   9.623  0.3625 -0.3034 -0.0994
  141SAPE  H10S15403   4.115   6.530   9.699  0.4507  1.4476  0.3694
  141SAPE  C21115404   4.094   6.514   9.477  0.7776  0.6466  0.5809
  141SAPE  H11R15405   4.200   6.483   9.474  0.2475 -1.3702  1.2190
  141SAPE  C21215406   4.025   6.500   9.358 -1.0414  0.0670 -0.1515
  141SAPE  H12R15407   4.089   6.465   9.275 -1.8821  1.4511 -1.4515
  141SAPE  C21315408   3.881   6.526   9.327  0.5610  0.3074 -0.5674
  141SAPE  H13R15409   3.872   6.636   9.315 -0.9365  0.2938  0.1034
  141SAPE  H13S15410   3.813   6.496   9.410  1.5237 -1.4749 -0.3790
  141SAPE  C21415411   3.827   6.455   9.208  0.8521 -0.1669  0.2339
  141SAPE  H14R15412   3.765   6.366   9.230  1.9891 -1.1082 -0.2716
  141SAPE  C21515413   3.847   6.485   9.076  0.4214 -0.0347  0.1793
  141SAPE  H15R15414   3.805   6.409   9.010  0.5702 -2.1600  2.3734
  141SAPE  C21615415   3.927   6.592   9.012 -0.3677  0.2122 -0.3202
  141SAPE  H16R15416   4.000   6.630   9.087 -0.6507  1.8708 -0.8501
  141SAPE  H16S15417   3.864   6.683   9.000 -0.4230  0.2755  0.3706
  141SAPE  C21715418   3.994   6.559   8.879 -0.6347  0.2646  0.7710
  141SAPE  H17R15419   4.079   6.492   8.901 -0.6471  0.1006  0.3357
  141SAPE  H17S15420   4.030   6.656   8.837  2.1649 -2.0659 -2.7511
  141SAPE  C21815421   3.907   6.494   8.769 -0.1290  0.6600  0.6510
  141SAPE  H18R15422   3.818   6.559   8.752 -1.1908 -1.2354 -1.7477
  141SAPE  H18S15423   3.874   6.392   8.797 -1.3159  0.9960  0.5474
  141SAPE  C21915424   3.980   6.473   8.632 -0.1714 -0.6420 -0.0964
  141SAPE  H19R15425   4.069   6.407   8.644  0.1668  0.0438  1.3241
  141SAPE  H19S15426   4.023   6.565   8.587 -1.2213 -1.1382 -2.2561
  141SAPE  C22015427   3.887   6.420   8.519 -0.4468  0.6712  0.0644
  141SAPE  H20R15428   3.793   6.479   8.529  1.2392  3.1379  3.6064
  141SAPE  H20S15429   3.858   6.318   8.550 -1.6157  0.5322 -1.4000
  141SAPE  H20T15430   3.930   6.415   8.417  0.3722 -3.0072  0.4414
  141SAPE   C3315431   3.922   6.490  10.195  0.6180 -0.3955  0.4766
  141SAPE   H3X15432   3.874   6.588  10.175  2.1607  0.4308  0.6481
  141SAPE   H3Y15433   3.839   6.437  10.247 -1.2154  1.9526  0.1152
  141SAPE   C3415434   3.972   6.432  10.065  0.1218  0.1421  0.1557
  141SAPE   H4X15435   4.020   6.337  10.097  0.5426  0.6117  0.9438
  141SAPE   H4Y15436   4.050   6.505  10.036 -1.6522  2.6236  1.2378
  141SAPE   C3515437   3.869   6.413   9.957 -0.0234 -0.4166 -0.1138
  141SAPE   H5X15438   3.927   6.390   9.866  0.0097  1.1965 -0.5336
  141SAPE   H5Y15439   3.799   6.499   9.945 -0.0759 -0.5583 -0.8110
  141SAPE   C3615440   3.763   6.299   9.981  0.1591  0.0694  0.7907
  141SAPE   H6X15441   3.720   6.323  10.081 -0.4330 -0.8778  0.7710
  141SAPE   H6Y15442   3.818   6.206  10.005 -1.1308 -0.5961  1.2523
  141SAPE   C3715443   3.657   6.291   9.870  0.3012  0.4932 -1.1243
  141SAPE   H7X15444   3.611   6.391   9.864 -0.3481  0.4359  1.7402
  141SAPE   H7Y15445   3.574   6.224   9.899 -0.0441  0.4138 -2.2423
  141SAPE   C3815446   3.711   6.258   9.728 -0.2623  0.4046  0.7106
  141SAPE   H8X15447   3.799   6.191   9.720 -0.0296  0.8471 -0.8843
  141SAPE   H8Y15448   3.739   6.350   9.672 -0.0364 -0.8101 -1.2896
  141SAPE   C3915449   3.601   6.194   9.637 -0.4004 -0.3009  0.4157
  141SAPE   H9X15450   3.513   6.258   9.663 -2.4394 -2.9538  0.4700
  141SAPE   H9Y15451   3.582   6.090   9.670  1.1961 -0.5070  0.7633
  141SAPE  C31015452   3.630   6.205   9.485 -0.3503 -0.4197  0.0867
  141SAPE  H10X15453   3.727   6.153   9.464 -1.9073 -3.2445 -0.6647
  141SAPE  H10Y15454   3.639   6.312   9.458  2.5242 -0.3008  1.1797
  141SAPE  C31115455   3.525   6.147   9.391  0.2897  0.4571 -0.8071
  141SAPE  H11X15456   3.425   6.180   9.425 -0.0513 -2.1253  1.0227
  141SAPE  H11Y15457   3.535   6.036   9.392  0.1574  0.4436 -0.9220
  141SAPE  C31215458   3.542   6.179   9.243 -0.5417 -0.5367  0.1440
  141SAPE  H12X15459   3.586   6.280   9.230  1.8718 -1.5079  0.3939
  141SAPE  H12Y15460   3.447   6.187   9.185  0.4338 -0.0134 -1.4501
  141SAPE  C31315461   3.628   6.069   9.175  0.1004 -0.3575  1.0460
  141SAPE  H13X15462   3.576   5.974   9.149  0.9715 -0.2977 -1.1732
  141SAPE  H13Y15463   3.714   6.047   9.241  0.7965 -2.9687 -0.5513
  141SAPE  C31415464   3.684   6.121   9.039  0.4747  0.0633 -0.1943
  141SAPE  H14X15465   3.776   6.067   9.008 -0.6325 -2.5072  0.7175
  141SAPE  H14Y15466   3.705   6.230   9.045  0.3999  0.2120 -2.1459
  141SAPE  C31515467   3.569   6.110   8.941  0.1738 -0.1177 -0.3555
  141SAPE  H15X15468   3.482   6.163   8.986  0.8029  0.4989  0.1643
  141SAPE  H15Y15469   3.539   6.007   8.912  0.6241 -0.4475  0.3379
  141SAPE  C31615470   3.596   6.184   8.805 -0.7675  0.1148  0.5646
  141SAPE  H16X15471   3.701   6.161   8.776 -1.0053  1.3609 -1.3917
  141SAPE  H16Y15472   3.598   6.294   8.820  0.1914  0.3587 -1.0958
  141SAPE  C31715473   3.521   6.144   8.681  0.4928  0.0474  0.0289
  141SAPE  H17X15474   3.414   6.168   8.697  0.9351  1.6324  0.8556
  141SAPE  H17Y15475   3.529   6.041   8.641 -2.8442  0.6895 -2.7584
  141SAPE  C31815476   3.565   6.245   8.568  0.1142  0.9195 -0.5099
  141SAPE  H18X15477   3.627   6.329   8.607  0.1420  0.5320  0.2919
  141SAPE  H18Y15478   3.473   6.280   8.515 -1.8716 -1.8703  0.8848
  141SAPE  H18Z15479   3.631   6.197   8.493  0.0413  2.2605 -1.4880
  142SAPE     N15480   4.406   0.379  11.122  0.5875  0.2225 -0.0799
  142SAPE   HN115481   4.316   0.376  11.175  0.8936 -2.1242  0.4019
  142SAPE   HN215482   4.376   0.364  11.024 -2.1485  3.2595  0.0829
  142SAPE   HN315483   4.467   0.298  11.145 -0.8716 -1.0168 -0.4301
  142SAPE   C1215484   4.479   0.513  11.118 -0.4653  0.2652 -0.3416
  142SAPE  H12A15485   4.588   0.492  11.113 -0.4137  0.0561  1.0841
  142SAPE  H12B15486   4.458   0.559  11.218 -1.9423  0.2105 -0.6019
  142SAPE   C1115487   4.438   0.606  11.003 -0.4919  0.8695 -0.6517
  142SAPE  H11A15488   4.328   0.618  11.013 -0.4755 -0.1513  1.2475
  142SAPE  H11B15489   4.463   0.559  10.905  0.1368 -1.0204  0.3691
  142SAPE     P15490   4.644   0.766  10.971 -0.5110  0.2839  0.6288
  142SAPE   O1315491   4.661   0.906  10.986  0.3018  0.1711  0.7136
  142SAPE   O1415492   4.731   0.694  11.072 -0.0469 -0.1948  0.0043
  142SAPE   O1215493   4.494   0.738  10.996  0.0250  0.1018 -0.1217
  142SAPE   O1115494   4.656   0.713  10.821 -0.5072 -0.4015  0.0394
  142SAPE    C115495   4.581   0.763  10.713 -1.3023 -0.2280 -0.1219
  142SAPE    HA15496   4.471   0.750  10.720 -1.4187  1.0532  0.9442
  142SAPE    HB15497   4.588   0.874  10.713  2.4584 -0.3085  1.8962
  142SAPE    C215498   4.631   0.704  10.587  0.2990 -0.3536 -0.7670
  142SAPE    HS15499   4.573   0.758  10.509  0.2162  1.3951  0.4514
  142SAPE   O2115500   4.622   0.565  10.582 -0.2323 -0.0523 -0.1971
  142SAPE   C2115501   4.503   0.511  10.562  0.2496 -0.1647 -0.1155
  142SAPE   O2215502   4.397   0.573  10.544  0.3481 -0.5830 -0.6276
  142SAPE   C2215503   4.510   0.364  10.590 -0.7131 -0.2472 -0.0338
  142SAPE   H2R15504   4.616   0.330  10.580 -0.2772  1.2391 -0.7781
  142SAPE   H2S15505   4.488   0.357  10.698  2.8572  1.8541  1.0116
  142SAPE    C315506   4.772   0.749  10.564 -0.0312 -0.1238 -0.0016
  142SAPE    HX15507   4.832   0.695  10.640 -0.8263 -1.0024  0.0246
  142SAPE    HY15508   4.791   0.850  10.605  0.8212 -0.3710  0.2190
  142SAPE   O3115509   4.808   0.732  10.421  0.3827 -0.5501 -0.1340
  142SAPE   C3115510   4.921   0.783  10.378 -0.5588 -0.8519  0.7671
  142SAPE   O3215511   5.002   0.846  10.444 -0.4204 -0.1769  0.7043
  142SAPE   C3215512   4.937   0.749  10.228  0.3904  0.4731 -0.4435
  142SAPE   H2X15513   4.840   0.793  10.197 -1.2104 -0.8376  2.2912
  142SAPE   H2Y15514   4.940   0.639  10.213 -0.3101  0.3156  0.4576
  142SAPE   C2315515   4.431   0.278  10.494 -0.1203  0.0120 -0.1388
  142SAPE   H3R15516   4.336   0.323  10.460  0.6692  0.9740 -1.1484
  142SAPE   H3S15517   4.418   0.179  10.543 -2.1169  0.4830  0.3775
  142SAPE   C2415518   4.504   0.247  10.362 -0.1047  0.0124 -0.1910
  142SAPE   H4R15519   4.603   0.200  10.374 -0.2242 -1.5106 -3.8375
  142SAPE   H4S15520   4.525   0.338  10.303 -0.5834 -0.2819 -0.8275
  142SAPE   C2515521   4.426   0.148  10.277 -1.3205  0.1061  0.3257
  142SAPE   H5R15522   4.325   0.123  10.314 -0.5427 -0.9810  1.8237
  142SAPE   C2615523   4.472   0.081  10.170  0.3936  0.2228  0.2479
  142SAPE   H6R15524   4.415  -0.001  10.124  2.6893 -0.9434 -0.6840
  142SAPE   C2715525   4.609   0.101  10.096  0.5041  0.2002  0.5304
  142SAPE   H7R15526   4.611   0.007  10.036  0.0551  0.2064  0.5058
  142SAPE   H7S15527   4.703   0.100  10.155  0.3194 -1.3575  0.8415
  142SAPE   C2815528   4.603   0.220  10.004 -0.6674 -0.1706  1.0910
  142SAPE   H8R15529   4.607   0.315  10.059 -0.9294 -0.4011  1.5118
  142SAPE   C2915530   4.591   0.228   9.872  0.6090 -0.3412 -0.2346
  142SAPE   H9R15531   4.580   0.330   9.835 -1.2119 -0.2669  0.4263
  142SAPE  C21015532   4.586   0.107   9.783  0.1789 -0.3584 -0.4233
  142SAPE  H10R15533   4.481   0.075   9.766  0.0047  0.0541 -0.1452
  142SAPE  H10S15534   4.641   0.017   9.819 -1.5571 -0.9549  0.9039
  142SAPE  C21115535   4.650   0.140   9.644  0.0699 -0.6288 -0.5821
  142SAPE  H11R15536   4.693   0.241   9.638 -0.9775 -0.1534 -0.2797
  142SAPE  C21215537   4.647   0.052   9.535  0.7588 -0.1970 -0.8875
  142SAPE  H12R15538   4.690   0.080   9.438  0.5874  1.0655 -0.6153
  142SAPE  C21315539   4.592  -0.087   9.538 -0.5084 -0.0339 -0.3681
  142SAPE  H13R15540   4.614  -0.128   9.639  0.7570 -0.3804 -0.7673
  142SAPE  H13S15541   4.655  -0.147   9.468  0.1836 -1.5931  1.5134
  142SAPE  C21415542   4.446  -0.110   9.500 -0.3317 -0.9128 -0.6795
  142SAPE  H14R15543   4.375  -0.136   9.580 -1.3799  0.5170 -1.1049
  142SAPE  C21515544   4.396  -0.100   9.376 -0.3418 -0.5109  0.0756
  142SAPE  H15R15545   4.290  -0.124   9.361 -0.8612  1.6580 -0.0127
  142SAPE  C21615546   4.470  -0.094   9.243  0.2119 -0.5003  0.3206
  142SAPE  H16R15547   4.438  -0.176   9.176  0.3095  0.5818 -1.1108
  142SAPE  H16S15548   4.581  -0.094   9.249  0.3704  1.9841 -1.1879
  142SAPE  C21715549   4.444   0.034   9.160 -1.0199 -0.0669  0.0097
  142SAPE  H17R15550   4.530   0.027   9.090 -1.1591  0.4567 -0.2226
  142SAPE  H17S15551   4.447   0.129   9.219  1.2144  1.0293 -1.7130
  142SAPE  C21815552   4.326   0.030   9.066  0.6923  0.3527 -0.6819
  142SAPE  H18R15553   4.234   0.044   9.126 -1.1238 -4.3152 -1.9878
  142SAPE  H18S15554   4.313  -0.070   9.020  0.5870 -0.0339  0.1806
  142SAPE  C21915555   4.341   0.136   8.960 -0.0642 -0.2260 -0.3395
  142SAPE  H19R15556   4.441   0.141   8.913 -0.8764  2.1782 -2.0269
  142SAPE  H19S15557   4.341   0.232   9.015  1.6016 -0.8403  0.7816
  142SAPE  C22015558   4.230   0.124   8.853 -0.6321 -0.1194 -0.3847
  142SAPE  H20R15559   4.231   0.026   8.801 -2.7429 -0.5823  0.3350
  142SAPE  H20S15560   4.235   0.199   8.771 -1.3075  1.4449  0.9630
  142SAPE  H20T15561   4.127   0.124   8.895  0.2122 -2.2066  1.9111
  142SAPE   C3315562   5.072   0.803  10.165  0.2603 -0.0835 -0.2960
  142SAPE   H3X15563   5.156   0.767  10.228  0.5935  0.9852 -0.1123
  142SAPE   H3Y15564   5.082   0.913  10.176  0.3130 -0.1326  0.1613
  142SAPE   C3415565   5.110   0.757  10.015 -0.5315 -0.3043 -0.4997
  142SAPE   H4X15566   5.106   0.646  10.021 -0.3189 -0.2490  1.0744
  142SAPE   H4Y15567   5.214   0.794  10.002 -1.0294  1.8702  1.1339
  142SAPE   C3515568   5.023   0.826   9.903  0.0758  0.1432  0.1378
  142SAPE   H5X15569   4.984   0.923   9.941  0.8271  0.2862  0.5644
  142SAPE   H5Y15570   4.929   0.768   9.894 -1.4062  2.2873  0.8989
  142SAPE   C3615571   5.100   0.837   9.773 -0.0483  0.1889 -0.2340
  142SAPE   H6X15572   5.198   0.885   9.790  0.0179  0.1731 -0.5616
  142SAPE   H6Y15573   5.040   0.910   9.714 -2.5890  0.0132  1.9198
  142SAPE   C3715574   5.124   0.703   9.695  0.3818 -0.2060 -1.2933
  142SAPE   H7X15575   5.036   0.638   9.715 -0.3440  1.6754  2.5828
  142SAPE   H7Y15576   5.205   0.638   9.734 -0.9250 -2.7093 -2.5644
  142SAPE   C3815577   5.138   0.720   9.542 -0.5092 -0.7282 -0.7439
  142SAPE   H8X15578   5.181   0.623   9.508  1.2940 -0.5995  1.0067
  142SAPE   H8Y15579   5.213   0.801   9.527 -0.2348 -0.3486  2.0718
  142SAPE   C3915580   5.007   0.763   9.477  0.5301  0.3262  0.4136
  142SAPE   H9X15581   4.975   0.858   9.525  0.7430  1.5660 -1.7986
  142SAPE   H9Y15582   4.934   0.683   9.505 -1.3088  1.0832 -1.9023
  142SAPE  C31015583   5.028   0.770   9.324  0.2388  0.1040  0.0268
  142SAPE  H10X15584   5.097   0.685   9.303 -0.1655 -0.9633  2.5466
  142SAPE  H10Y15585   5.087   0.862   9.307 -0.1866  0.2462 -0.7269
  142SAPE  C31115586   4.893   0.771   9.252  0.1792 -0.1122 -0.9845
  142SAPE  H11X15587   4.839   0.854   9.304  1.5801 -0.5937  1.4093
  142SAPE  H11Y15588   4.829   0.685   9.282  0.9005  0.0228  1.1120
  142SAPE  C31215589   4.906   0.805   9.105 -0.3174  0.4550 -0.4073
  142SAPE  H12X15590   4.996   0.870   9.097  0.7424 -1.0264 -0.9800
  142SAPE  H12Y15591   4.818   0.858   9.063 -0.1082  0.8274 -0.3747
  142SAPE  C31315592   4.941   0.695   9.003  0.0156  0.1725  0.2397
  142SAPE  H13X15593   4.905   0.721   8.901  0.5547 -0.2244 -0.0597
  142SAPE  H13Y15594   4.883   0.607   9.037  2.0133 -2.5358 -2.7896
  142SAPE  C31415595   5.090   0.656   8.997  0.2530  0.4090 -1.1183
  142SAPE  H14X15596   5.103   0.584   9.081 -0.4252 -0.3306 -1.6270
  142SAPE  H14Y15597   5.152   0.747   9.010  1.5054 -0.6651  0.9196
  142SAPE  C31515598   5.134   0.583   8.867 -0.3964  0.4274 -0.1330
  142SAPE  H15X15599   5.060   0.502   8.848  1.8556 -1.8840  0.4597
  142SAPE  H15Y15600   5.232   0.532   8.869 -0.8595 -0.4478  0.6939
  142SAPE  C31615601   5.130   0.671   8.738  0.9257  0.2677  0.6150
  142SAPE  H16X15602   5.180   0.769   8.755 -1.0547  1.2956  0.8789
  142SAPE  H16Y15603   5.021   0.690   8.726  1.1308  1.4200  0.4410
  142SAPE  C31715604   5.192   0.606   8.618  0.6588  0.4395 -0.8797
  142SAPE  H17X15605   5.175   0.496   8.611 -1.0304  0.6928 -1.2067
  142SAPE  H17Y15606   5.298   0.638   8.628 -0.5529  4.5671  0.6138
  142SAPE  C31815607   5.144   0.660   8.489 -0.2931 -0.4116 -0.1880
  142SAPE  H18X15608   5.206   0.610   8.411  1.5919 -3.1491  2.7936
  142SAPE  H18Y15609   5.163   0.769   8.500  0.6493 -0.7313  1.8068
  142SAPE  H18Z15610   5.037   0.649   8.463 -0.8477  0.6784  1.4958
  143SAPE     N15611   6.751   6.230  11.221  0.2762 -0.3994  0.7591
  143SAPE   HN115612   6.829   6.240  11.289  0.3202 -0.1878  0.6782
  143SAPE   HN215613   6.699   6.318  11.209  2.3425  0.7402 -0.4652
  143SAPE   HN315614   6.682   6.160  11.253 -0.7363 -0.1197 -0.7047
  143SAPE   C1215615   6.806   6.192  11.084 -0.3649 -0.2172  0.3248
  143SAPE  H12A15616   6.903   6.140  11.102  0.4359  1.1026  0.0042
  143SAPE  H12B15617   6.823   6.293  11.039 -1.1797 -0.7833 -1.3194
  143SAPE   C1115618   6.714   6.108  10.993  0.5317 -0.1875  0.2984
  143SAPE  H11A15619   6.783   6.092  10.907  1.3507 -0.7961  1.0538
  143SAPE  H11B15620   6.622   6.163  10.965  1.4449  1.1205 -0.2314
  143SAPE     P15621   6.555   5.937  11.093 -0.3754 -0.2432  0.2353
  143SAPE   O1315622   6.573   5.806  11.157  0.5002  0.1546  0.0002
  143SAPE   O1415623   6.507   6.050  11.175  0.0417 -0.5718  0.2054
  143SAPE   O1215624   6.699   5.978  11.040 -0.3891 -0.1798 -0.1292
  143SAPE   O1115625   6.467   5.917  10.967 -1.3286  0.4518 -0.1176
  143SAPE    C115626   6.510   5.834  10.864  0.3408  0.0113  0.7779
  143SAPE    HA15627   6.606   5.780  10.877  1.0830  1.3781  1.1972
  143SAPE    HB15628   6.430   5.765  10.831  0.5940 -0.0116  0.1901
  143SAPE    C215629   6.545   5.922  10.743 -0.3643 -0.3384  1.1805
  143SAPE    HS15630   6.652   5.947  10.756 -0.6007  0.3333  1.8773
  143SAPE   O2115631   6.454   6.040  10.738 -0.2829 -1.2237  0.1837
  143SAPE   C2115632   6.513   6.143  10.674 -0.1944 -0.4093  0.3915
  143SAPE   O2215633   6.631   6.138  10.628  0.3241 -0.4869  0.3132
  143SAPE   C2215634   6.408   6.248  10.633  0.4659  0.1102 -0.2491
  143SAPE   H2R15635   6.358   6.213  10.540 -0.4329 -0.1726  0.3282
  143SAPE   H2S15636   6.329   6.248  10.711  1.4619  0.1948  0.7851
  143SAPE    C315637   6.529   5.834  10.619  0.2555 -0.2178 -0.4542
  143SAPE    HX15638   6.419   5.828  10.599  0.2601  0.6021 -0.7693
  143SAPE    HY15639   6.565   5.730  10.636  0.6450  0.1172  0.8476
  143SAPE   O3115640   6.591   5.895  10.504 -0.8202 -0.0323  0.2738
  143SAPE   C3115641   6.704   5.841  10.463 -0.1447 -0.4033  0.2180
  143SAPE   O3215642   6.762   5.742  10.506 -0.1431  0.1803 -0.3414
  143SAPE   C3215643   6.757   5.921  10.346 -0.2910 -0.3978 -0.1331
  143SAPE   H2X15644   6.755   6.027  10.380  1.2507 -0.5107  0.4172
  143SAPE   H2Y15645   6.705   5.910  10.249  1.5825 -2.0428 -1.0407
  143SAPE   C2315646   6.465   6.387  10.593 -0.1702 -0.0946 -0.5815
  143SAPE   H3R15647   6.542   6.360  10.517 -1.5014 -1.3715 -1.5335
  143SAPE   H3S15648   6.519   6.437  10.676  1.6720 -0.1971 -1.6542
  143SAPE   C2415649   6.369   6.487  10.522 -0.1285  0.0277  0.4245
  143SAPE   H4R15650   6.428   6.579  10.504  2.7231 -1.9025 -0.8179
  143SAPE   H4S15651   6.280   6.496  10.588 -0.8239 -1.8431 -0.1942
  143SAPE   C2515652   6.323   6.426  10.389 -0.1369  0.2332 -0.4730
  143SAPE   H5R15653   6.237   6.358  10.396 -0.6351  0.8658 -0.3552
  143SAPE   C2615654   6.381   6.436  10.272 -0.6594 -0.1281  0.9708
  143SAPE   H6R15655   6.341   6.375  10.190  2.0815 -2.7812  1.4247
  143SAPE   C2715656   6.509   6.519  10.239 -0.1309 -0.0942 -0.4643
  143SAPE   H7R15657   6.559   6.474  10.151 -0.5886 -0.0828 -0.7311
  143SAPE   H7S15658   6.572   6.530  10.330  1.5119  0.8151 -1.6598
  143SAPE   C2815659   6.482   6.660  10.210 -0.1180  0.0938  0.0328
  143SAPE   H8R15660   6.412   6.712  10.277 -1.0618  1.4028 -1.8867
  143SAPE   C2915661   6.532   6.741  10.117  0.1904 -0.2179  0.6137
  143SAPE   H9R15662   6.502   6.847  10.113  0.6244 -0.0104  2.1775
  143SAPE  C21015663   6.629   6.707  10.002 -0.3190 -0.1567 -0.9578
  143SAPE  H10R15664   6.695   6.628  10.044  0.6751  2.0157  1.8702
  143SAPE  H10S15665   6.697   6.792   9.981 -0.3379  0.2141  0.3934
  143SAPE  C21115666   6.543   6.659   9.888 -0.3574 -0.1125  0.0983
  143SAPE  H11R15667   6.480   6.572   9.912  3.0837 -3.1587 -1.0395
  143SAPE  C21215668   6.521   6.726   9.771 -0.3860  0.5300  0.8890
  143SAPE  H12R15669   6.457   6.670   9.700 -1.9686  2.6661  0.5375
  143SAPE  C21315670   6.587   6.860   9.730 -0.0604  0.0733 -0.5051
  143SAPE  H13R15671   6.621   6.851   9.624 -0.0977 -2.1458 -0.3744
  143SAPE  H13S15672   6.681   6.879   9.785 -1.4043 -1.5924  2.5823
  143SAPE  C21415673   6.505   6.983   9.755 -0.1694  0.8319  0.7907
  143SAPE  H14R15674   6.401   6.967   9.787 -0.3909  1.0232  0.1822
  143SAPE  C21515675   6.530   7.103   9.706  0.0826  0.0990  0.6712
  143SAPE  H15R15676   6.468   7.182   9.749 -1.7817  0.0226 -1.6900
  143SAPE  C21615677   6.653   7.151   9.634  0.3254  0.2731  0.1832
  143SAPE  H16R15678   6.744   7.089   9.645  0.3722 -0.3283 -2.8190
  143SAPE  H16S15679   6.676   7.251   9.677  1.2977 -1.1139  3.1636
  143SAPE  C21715680   6.650   7.154   9.484  0.4515 -0.3730  0.1097
  143SAPE  H17R15681   6.754   7.171   9.451  0.5564 -2.4444 -0.8081
  143SAPE  H17S15682   6.587   7.240   9.453 -0.5791 -0.3170  2.1374
  143SAPE  C21815683   6.596   7.027   9.412  0.1641  0.4263 -0.4460
  143SAPE  H18R15684   6.489   7.019   9.443  0.1677 -1.5152 -0.8443
  143SAPE  H18S15685   6.659   6.942   9.444  0.2545  0.4590 -0.5356
  143SAPE  C21915686   6.611   7.058   9.263  0.2536  0.8002 -0.2584
  143SAPE  H19R15687   6.622   6.961   9.210  0.1047 -0.4587  1.8808
  143SAPE  H19S15688   6.706   7.113   9.243  0.8150  0.6975  1.8896
  143SAPE  C22015689   6.496   7.129   9.200 -0.5585 -0.2013  0.2973
  143SAPE  H20R15690   6.528   7.177   9.105 -0.8247  2.0250  1.2556
  143SAPE  H20S15691   6.446   7.208   9.260  0.2302  0.3926  0.1946
  143SAPE  H20T15692   6.411   7.066   9.165  0.7451 -0.9434 -1.7243
  143SAPE   C3315693   6.901   5.883  10.309  0.3586  0.1173  0.1023
  143SAPE   H3X15694   6.913   5.789  10.252 -0.0240  0.4919 -0.6035
  143SAPE   H3Y15695   6.956   5.883  10.406  0.0014  0.2356  0.3088
  143SAPE   C3415696   6.971   5.992  10.222 -0.1417 -0.2979  0.2293
  143SAPE   H4X15697   7.076   5.993  10.257  0.5282  0.4555 -1.6938
  143SAPE   H4Y15698   6.940   6.097  10.238  1.8367  0.4500 -0.5289
  143SAPE   C3515699   6.956   5.949  10.072  0.1759  0.1177  0.3946
  143SAPE   H5X15700   6.857   5.988  10.039 -1.5016 -2.7558  1.6805
  143SAPE   H5Y15701   6.965   5.840  10.054  1.2728  0.3038 -0.2539
  143SAPE   C3615702   7.059   6.019   9.977 -0.8714  0.7881 -0.6923
  143SAPE   H6X15703   7.161   5.983  10.000 -0.5676  2.2873  0.4762
  143SAPE   H6Y15704   7.077   6.123  10.012 -1.8596  0.2396  1.6386
  143SAPE   C3715705   7.017   6.014   9.834 -0.1938 -0.4789  1.0106
  143SAPE   H7X15706   6.940   6.088   9.803  0.8742  0.4450  0.4882
  143SAPE   H7Y15707   6.986   5.910   9.810  1.8720 -0.3653 -2.7693
  143SAPE   C3815708   7.136   6.035   9.736 -0.5471 -0.3664 -0.9148
  143SAPE   H8X15709   7.212   5.955   9.747  1.0729  1.2204  0.0570
  143SAPE   H8Y15710   7.196   6.123   9.767 -3.4221  1.3957  0.0318
  143SAPE   C3915711   7.079   6.056   9.595  0.2793 -0.2599  0.0683
  143SAPE   H9X15712   7.051   6.162   9.579  1.1817 -0.2355 -1.6592
  143SAPE   H9Y15713   6.995   5.984   9.595  0.4400 -0.4760  1.6913
  143SAPE  C31015714   7.164   6.032   9.470  0.1893 -0.3487  0.2611
  143SAPE  H10X15715   7.184   5.923   9.460 -1.2610 -1.1601  4.2972
  143SAPE  H10Y15716   7.263   6.081   9.488 -0.1139  0.4270 -0.1380
  143SAPE  C31115717   7.092   6.101   9.347 -0.0220  1.0362 -0.2776
  143SAPE  H11X15718   7.054   6.205   9.358  0.5317  1.1891  0.2591
  143SAPE  H11Y15719   7.005   6.033   9.328  0.0251  0.9053 -0.0373
  143SAPE  C31215720   7.172   6.099   9.224  0.2809 -0.2400 -0.1704
  143SAPE  H12X15721   7.169   5.997   9.180 -0.7138  0.1793 -1.1368
  143SAPE  H12Y15722   7.281   6.102   9.241  0.0066  1.8666  1.6053
  143SAPE  C31315723   7.120   6.198   9.114  0.2537 -0.3825 -0.0859
  143SAPE  H13X15724   7.098   6.301   9.150  1.2166  0.0462 -0.6752
  143SAPE  H13Y15725   7.021   6.162   9.079 -0.6183 -1.3592  3.0683
  143SAPE  C31415726   7.224   6.201   9.004  0.3077 -0.2203  0.7216
  143SAPE  H14X15727   7.231   6.097   8.966  1.9266 -0.3124  1.1934
  143SAPE  H14Y15728   7.321   6.242   9.040  0.7259 -1.1339  0.6754
  143SAPE  C31515729   7.171   6.293   8.896 -1.1540 -0.2185  0.2882
  143SAPE  H15X15730   7.146   6.381   8.958 -1.1587 -0.7514  1.0550
  143SAPE  H15Y15731   7.096   6.240   8.833  0.2231 -1.1643 -0.6087
  143SAPE  C31615732   7.290   6.331   8.799  0.4207  0.0783 -0.4147
  143SAPE  H16X15733   7.337   6.234   8.774 -0.1445 -0.8640  1.8849
  143SAPE  H16Y15734   7.360   6.400   8.851  1.1965 -0.8937 -0.1512
  143SAPE  C31715735   7.251   6.402   8.671  0.0744 -0.3202 -0.4954
  143SAPE  H17X15736   7.204   6.334   8.597 -0.1898 -0.0870 -0.5421
  143SAPE  H17Y15737   7.348   6.440   8.633 -0.1927  1.7555  0.7354
  143SAPE  C31815738   7.173   6.528   8.702  0.0320 -0.2673  0.4288
  143SAPE  H18X15739   7.102   6.514   8.786 -0.6138  0.1380 -0.0403
  143SAPE  H18Y15740   7.118   6.557   8.610 -1.6286  1.7499  1.9748
  143SAPE  H18Z15741   7.239   6.614   8.726  0.1428  0.1193 -1.1743
  144SAPE     N15742   3.917   5.273  10.807  0.1466  0.0184  0.2460
  144SAPE   HN115743   3.821   5.306  10.832  0.2262 -0.4891  1.2574
  144SAPE   HN215744   3.991   5.309  10.870  2.2008 -1.6858 -1.0577
  144SAPE   HN315745   3.938   5.314  10.714  1.7101 -0.0573  0.5365
  144SAPE   C1215746   3.922   5.123  10.800  0.0546 -0.0860  0.1404
  144SAPE  H12A15747   3.882   5.079  10.894  0.9937 -0.6175  0.2998
  144SAPE  H12B15748   4.029   5.096  10.790 -0.4144 -1.2558 -2.6066
  144SAPE   C1115749   3.843   5.077  10.681  0.2762  0.3407  0.9888
  144SAPE  H11A15750   3.869   4.969  10.677 -2.6768 -0.4319 -0.4052
  144SAPE  H11B15751   3.883   5.123  10.588  1.3812 -3.2464 -0.4640
  144SAPE     P15752   3.609   5.108  10.569 -0.1435 -0.0601 -0.0622
  144SAPE   O1315753   3.467   5.091  10.597  0.1003 -0.2822  0.5045
  144SAPE   O1415754   3.643   5.241  10.511  0.0640 -0.1080 -0.1334
  144SAPE   O1215755   3.698   5.090  10.697 -0.0093  0.1452 -0.2168
  144SAPE   O1115756   3.652   4.989  10.472 -0.1021 -0.4062  0.1586
  144SAPE    C115757   3.650   4.851  10.506 -0.4744  0.5288  0.5445
  144SAPE    HA15758   3.751   4.811  10.529 -0.5222  0.8011  1.2613
  144SAPE    HB15759   3.596   4.822  10.598  0.8479  0.1051  1.2152
  144SAPE    C215760   3.589   4.769  10.388  0.8810  0.3291 -0.8164
  144SAPE    HS15761   3.579   4.664  10.422 -1.3718  0.3595 -1.2548
  144SAPE   O2115762   3.655   4.788  10.261 -0.2129 -0.0152  0.1170
  144SAPE   C2115763   3.779   4.758  10.259  0.5074  0.3071  0.9883
  144SAPE   O2215764   3.832   4.672  10.328 -0.5109  0.5210 -0.0469
  144SAPE   C2215765   3.857   4.832  10.141 -0.1605  0.6456  0.5592
  144SAPE   H2R15766   3.790   4.872  10.063 -1.5030 -0.1056  1.2905
  144SAPE   H2S15767   3.904   4.925  10.182  0.7612  1.2400 -1.6782
  144SAPE    C315768   3.445   4.813  10.376  1.4655  1.2954 -0.3211
  144SAPE    HX15769   3.447   4.924  10.367 -0.0016  1.3424 -0.3463
  144SAPE    HY15770   3.394   4.786  10.471 -3.0476  0.8456 -2.6038
  144SAPE   O3115771   3.377   4.737  10.269  1.0435 -0.2474  0.4293
  144SAPE   C3115772   3.276   4.793  10.210 -0.5136 -0.4433 -0.0873
  144SAPE   O3215773   3.231   4.905  10.241  0.6223  0.0504  0.3586
  144SAPE   C3215774   3.234   4.722  10.079 -0.9736 -0.2405  0.1128
  144SAPE   H2X15775   3.322   4.662  10.048  0.9738  3.2889 -1.8794
  144SAPE   H2Y15776   3.223   4.800  10.001  1.4896  0.1616  0.1102
  144SAPE   C2315777   3.976   4.751  10.085 -0.2218 -0.4043  0.2285
  144SAPE   H3R15778   4.036   4.707  10.168 -0.1378 -0.7227  0.0026
  144SAPE   H3S15779   4.044   4.813  10.022  0.6228 -0.2932  1.2241
  144SAPE   C2415780   3.918   4.627  10.008  0.4657 -0.6914  0.1157
  144SAPE   H4R15781   3.845   4.664   9.932  0.8420 -1.4882 -0.6472
  144SAPE   H4S15782   3.860   4.558  10.073 -0.3963 -1.0531 -1.0066
  144SAPE   C2515783   4.021   4.546   9.940  0.2167 -0.2113  0.0112
  144SAPE   H5R15784   4.085   4.480  10.001  2.1731  0.5196 -1.1503
  144SAPE   C2615785   4.028   4.505   9.813  0.1332 -0.6622 -0.2180
  144SAPE   H6R15786   4.106   4.436   9.780  0.4970 -1.2006  1.6450
  144SAPE   C2715787   3.938   4.550   9.702  0.7530 -0.1137 -0.1643
  144SAPE   H7R15788   3.834   4.514   9.715 -0.1021  1.8692 -1.0094
  144SAPE   H7S15789   3.980   4.500   9.613 -0.0236  0.8232 -1.0805
  144SAPE   C2815790   3.926   4.697   9.670  0.2894  0.3123  0.3593
  144SAPE   H8R15791   3.943   4.766   9.755 -1.2355  0.5167  0.5257
  144SAPE   C2915792   3.873   4.741   9.553 -0.3993 -0.2160  0.0779
  144SAPE   H9R15793   3.866   4.846   9.524 -1.8365 -0.6740 -1.4065
  144SAPE  C21015794   3.831   4.660   9.436 -0.1715  0.4856  0.1322
  144SAPE  H10R15795   3.829   4.555   9.472  0.0983  1.2986  2.7210
  144SAPE  H10S15796   3.907   4.662   9.355 -2.1660  0.7412 -1.7997
  144SAPE  C21115797   3.700   4.697   9.381  0.3959 -0.7665  0.0599
  144SAPE  H11R15798   3.612   4.637   9.409 -0.1064 -0.0869 -0.0523
  144SAPE  C21215799   3.681   4.778   9.277 -0.4861 -0.8481 -0.5368
  144SAPE  H12R15800   3.578   4.792   9.240 -0.8985  0.8565  1.0523
  144SAPE  C21315801   3.777   4.855   9.193 -0.5330  0.0653 -0.0809
  144SAPE  H13R15802   3.741   4.834   9.089 -0.3508  0.1573 -0.1620
  144SAPE  H13S15803   3.877   4.807   9.193 -0.8424 -0.6104  0.9938
  144SAPE  C21415804   3.786   5.000   9.220 -0.0898  0.3621 -0.0029
  144SAPE  H14R15805   3.831   5.026   9.317  0.2106 -1.1024  0.2760
  144SAPE  C21515806   3.774   5.101   9.133  0.0227 -0.2774  0.1780
  144SAPE  H15R15807   3.791   5.202   9.172 -2.0136  0.3417 -0.4191
  144SAPE  C21615808   3.738   5.093   8.988 -0.3933  0.4198 -0.0752
  144SAPE  H16R15809   3.705   4.990   8.964 -1.9056  0.7941  0.2968
  144SAPE  H16S15810   3.828   5.118   8.927  0.6165 -3.3383 -0.3812
  144SAPE  C21715811   3.628   5.195   8.952 -0.5280 -0.0810  0.2134
  144SAPE  H17R15812   3.605   5.202   8.843 -1.2532 -0.2156  0.3502
  144SAPE  H17S15813   3.657   5.296   8.988  1.3316 -0.6054  0.3098
  144SAPE  C21815814   3.498   5.149   9.013  0.0937  0.3927 -0.3109
  144SAPE  H18R15815   3.420   5.225   8.992  0.5995  0.8734 -0.4559
  144SAPE  H18S15816   3.499   5.135   9.123 -1.0873 -0.0899 -0.3467
  144SAPE  C21915817   3.440   5.005   8.977 -0.6371  0.5089  0.5015
  144SAPE  H19R15818   3.347   4.986   9.035 -0.7141 -0.9087 -0.0468
  144SAPE  H19S15819   3.509   4.919   8.994 -2.0086 -0.7609 -0.1801
  144SAPE  C22015820   3.396   4.984   8.831 -0.6429  0.0534 -0.7077
  144SAPE  H20R15821   3.296   5.031   8.818 -2.4353 -2.7469  1.6138
  144SAPE  H20S15822   3.378   4.877   8.808 -2.2667  0.1889 -0.1960
  144SAPE  H20T15823   3.471   5.015   8.754  0.9120 -2.0862 -0.1514
  144SAPE   C3315824   3.104   4.641  10.074 -0.4617  0.1581  0.1563
  144SAPE   H3X15825   3.021   4.691  10.128 -1.1366 -0.2886 -0.4436
  144SAPE   H3Y15826   3.118   4.541  10.118  0.9006  0.4853  0.5156
  144SAPE   C3415827   3.052   4.619   9.931 -0.1942  0.2552  0.0617
  144SAPE   H4X15828   3.140   4.578   9.876  2.1763  3.2950  1.3054
  144SAPE   H4Y15829   3.030   4.715   9.879  0.1190 -0.7187 -1.9667
  144SAPE   C3515830   2.923   4.535   9.918  1.0766 -1.2105  0.5336
  144SAPE   H5X15831   2.846   4.591   9.976  0.4426 -1.2496 -0.2586
  144SAPE   H5Y15832   2.927   4.436   9.966 -0.5704 -2.0805 -0.9894
  144SAPE   C3615833   2.887   4.530   9.765 -0.4319  0.4847  0.4273
  144SAPE   H6X15834   2.916   4.626   9.717 -0.9050 -0.4470 -1.8090
  144SAPE   H6Y15835   2.776   4.517   9.767 -0.6030  1.8241  1.5386
  144SAPE   C3715836   2.955   4.415   9.693 -0.1498 -0.3548 -0.1457
  144SAPE   H7X15837   2.950   4.324   9.757 -2.5129 -0.4049 -0.3239
  144SAPE   H7Y15838   3.066   4.424   9.692 -0.2146  0.7063  0.6222
  144SAPE   C3815839   2.884   4.367   9.562  0.3532  0.0498 -0.0556
  144SAPE   H8X15840   2.774   4.363   9.578  0.5236  1.2352  1.6195
  144SAPE   H8Y15841   2.914   4.263   9.538  0.7121  0.0624  0.3300
  144SAPE   C3915842   2.921   4.460   9.437 -0.3141 -0.0140 -0.5545
  144SAPE   H9X15843   3.029   4.484   9.441  0.1364 -1.5840 -2.1657
  144SAPE   H9Y15844   2.879   4.562   9.454 -1.4100 -0.3593 -1.0778
  144SAPE  C31015845   2.873   4.399   9.307  0.4239  0.3152 -0.0385
  144SAPE  H10X15846   2.764   4.376   9.314 -0.2464  3.0776  0.1477
  144SAPE  H10Y15847   2.915   4.297   9.296 -1.3946 -0.5205  0.3626
  144SAPE  C31115848   2.913   4.474   9.184 -0.2727 -0.0957 -0.7471
  144SAPE  H11X15849   3.023   4.488   9.188 -0.1478  1.3690 -4.8304
  144SAPE  H11Y15850   2.865   4.574   9.174 -0.5995 -0.2864 -1.1194
  144SAPE  C31215851   2.883   4.397   9.052  0.3125  0.2004 -0.2323
  144SAPE  H12X15852   2.775   4.378   9.033 -0.0379 -0.0457  1.7658
  144SAPE  H12Y15853   2.944   4.304   9.059 -1.8105 -1.1647  1.8311
  144SAPE  C31315854   2.939   4.464   8.922  0.2842 -0.1785 -0.6206
  144SAPE  H13X15855   3.042   4.425   8.910 -0.0845 -1.7285  0.8085
  144SAPE  H13Y15856   2.947   4.575   8.920  0.3728 -0.1928 -2.0913
  144SAPE  C31415857   2.856   4.427   8.794  0.3012  0.0162 -0.5178
  144SAPE  H14X15858   2.773   4.500   8.799 -0.5141 -0.9141 -0.3175
  144SAPE  H14Y15859   2.828   4.321   8.806  0.4677 -0.0725 -0.8793
  144SAPE  C31515860   2.926   4.435   8.660 -0.0980 -0.0405 -0.5631
  144SAPE  H15X15861   3.013   4.366   8.661 -0.2706 -0.2672 -0.9105
  144SAPE  H15Y15862   2.962   4.537   8.635 -1.0072  0.4516  0.0732
  144SAPE  C31615863   2.831   4.398   8.545 -0.1890 -0.1924  0.1983
  144SAPE  H16X15864   2.804   4.290   8.551 -1.1618  0.1068  1.9223
  144SAPE  H16Y15865   2.885   4.409   8.448  1.0727  0.9378  0.9936
  144SAPE  C31715866   2.715   4.497   8.538  0.3714 -0.5170 -0.8049
  144SAPE  H17X15867   2.753   4.602   8.543  0.3463 -0.4682 -1.4641
  144SAPE  H17Y15868   2.644   4.496   8.624  1.0400  2.1005 -0.1332
  144SAPE  C31815869   2.633   4.488   8.404  0.0528  0.3371 -0.1199
  144SAPE  H18X15870   2.690   4.526   8.317 -1.5871  2.1322 -0.4960
  144SAPE  H18Y15871   2.537   4.544   8.404  0.1717  0.5426  0.1705
  144SAPE  H18Z15872   2.615   4.382   8.376  1.1619  1.0018 -3.9082
  145SAPE     N15873   5.474   0.607  11.266 -0.9585  0.0721  0.2502
  145SAPE   HN115874   5.392   0.671  11.269 -0.2329  1.0371  0.2206
  145SAPE   HN215875   5.555   0.662  11.301  0.1599 -1.0409 -0.4808
  145SAPE   HN315876   5.491   0.576  11.168  1.6886 -1.5468  1.1066
  145SAPE   C1215877   5.456   0.486  11.359  0.0500 -0.6373 -0.0871
  145SAPE  H12A15878   5.384   0.419  11.306 -0.8962 -0.5883  1.0926
  145SAPE  H12B15879   5.407   0.521  11.453  0.1574  0.2448 -0.3503
  145SAPE   C1115880   5.590   0.403  11.383 -0.2908 -0.6041  0.5334
  145SAPE  H11A15881   5.554   0.308  11.427 -0.9448 -0.1528  0.9977
  145SAPE  H11B15882   5.655   0.472  11.440 -1.8392  1.3565  0.0518
  145SAPE     P15883   5.799   0.316  11.231  0.2955 -0.0789 -0.0716
  145SAPE   O1315884   5.859   0.315  11.368  0.5900  0.2977 -0.1989
  145SAPE   O1415885   5.772   0.184  11.169  0.5509 -0.4478  0.1050
  145SAPE   O1215886   5.661   0.391  11.254 -0.2822  0.1054 -0.1639
  145SAPE   O1115887   5.884   0.408  11.142  0.6414  0.1205 -0.1197
  145SAPE    C115888   5.826   0.495  11.047 -0.5040 -0.0205  0.5223
  145SAPE    HA15889   5.717   0.507  11.064 -0.0003  1.1100  3.4437
  145SAPE    HB15890   5.862   0.597  11.075  0.8148 -0.7236  1.4731
  145SAPE    C215891   5.873   0.470  10.902  1.0898  0.0015  0.2973
  145SAPE    HS15892   5.824   0.551  10.844  0.3928  1.4712  2.7807
  145SAPE   O2115893   5.831   0.340  10.861 -0.1937 -0.2477  0.1214
  145SAPE   C2115894   5.695   0.322  10.849 -0.5209 -0.5033  0.5272
  145SAPE   O2215895   5.613   0.401  10.887  0.4437 -0.0477  0.6958
  145SAPE   C2215896   5.666   0.185  10.787 -0.5357  1.1732  0.6773
  145SAPE   H2R15897   5.763   0.130  10.780 -0.3853  1.3340  1.3808
  145SAPE   H2S15898   5.595   0.134  10.855 -1.1586  3.9912  2.3266
  145SAPE    C315899   6.029   0.480  10.889 -0.1068  0.0436 -0.6044
  145SAPE    HX15900   6.085   0.422  10.965  2.6482  2.2430 -0.7991
  145SAPE    HY15901   6.041   0.590  10.900  0.2419  0.4576 -3.9512
  145SAPE   O3115902   6.063   0.445  10.751  0.3554 -0.6109 -0.2415
  145SAPE   C3115903   6.090   0.321  10.736 -0.9567 -0.3735 -0.8172
  145SAPE   O3215904   6.107   0.244  10.827  0.1673  0.1138  0.3273
  145SAPE   C3215905   6.114   0.287  10.589 -0.1698  0.3138 -0.2661
  145SAPE   H2X15906   6.198   0.349  10.552 -0.0347 -0.0404 -0.5609
  145SAPE   H2Y15907   6.017   0.313  10.543 -0.1461  1.6541  0.4060
  145SAPE   C2315908   5.609   0.186  10.645  0.1033 -0.2221  0.5015
  145SAPE   H3R15909   5.517   0.249  10.640 -0.9165 -1.7246 -0.3784
  145SAPE   H3S15910   5.567   0.084  10.628 -0.0872  0.0320 -0.6493
  145SAPE   C2415911   5.715   0.211  10.538 -0.7660 -0.4750 -0.1752
  145SAPE   H4R15912   5.769   0.115  10.536 -0.4595 -0.3367  0.8910
  145SAPE   H4S15913   5.780   0.293  10.575 -1.3350  0.2693 -0.7533
  145SAPE   C2515914   5.674   0.254  10.396  0.3142 -0.6671  0.1524
  145SAPE   H5R15915   5.672   0.363  10.384 -1.6883 -0.5772  0.8617
  145SAPE   C2615916   5.629   0.178  10.292  0.2989  0.1497  0.2778
  145SAPE   H6R15917   5.590   0.232  10.206 -2.3221 -2.9290 -0.6736
  145SAPE   C2715918   5.626   0.029  10.273  0.0053  0.7096  0.1869
  145SAPE   H7R15919   5.632  -0.017  10.374  3.2285  3.7223  1.5918
  145SAPE   H7S15920   5.721  -0.014  10.234  0.4197  0.3842  1.4967
  145SAPE   C2815921   5.507  -0.009  10.187  0.2912 -0.0300 -0.1728
  145SAPE   H8R15922   5.411   0.030  10.223  0.0579 -0.7330 -0.0189
  145SAPE   C2915923   5.501  -0.071  10.064 -0.4966 -0.3412  0.2444
  145SAPE   H9R15924   5.400  -0.091  10.025 -1.4886  0.0645  2.4543
  145SAPE  C21015925   5.611  -0.123   9.979  0.1024 -1.0523  0.6159
  145SAPE  H10R15926   5.586  -0.225   9.946  0.9799 -0.6384 -1.5149
  145SAPE  H10S15927   5.704  -0.129  10.040  0.1823  3.8901  1.3884
  145SAPE  C21115928   5.643  -0.022   9.868  0.2106  0.5985  0.0428
  145SAPE  H11R15929   5.677   0.076   9.904  1.4913  0.9690 -1.9783
  145SAPE  C21215930   5.625  -0.038   9.738  0.3882  0.4941 -0.0717
  145SAPE  H12R15931   5.655   0.045   9.672 -1.0302  1.8890  0.9542
  145SAPE  C21315932   5.576  -0.169   9.673 -0.5781 -0.8064  0.6774
  145SAPE  H13R15933   5.592  -0.253   9.745  2.8167 -1.7386 -0.9333
  145SAPE  H13S15934   5.635  -0.192   9.582  0.0858 -0.0053  0.8949
  145SAPE  C21415935   5.430  -0.154   9.647  0.1299 -0.1541 -0.3099
  145SAPE  H14R15936   5.370  -0.106   9.724 -2.2008 -0.8593 -1.5858
  145SAPE  C21515937   5.369  -0.199   9.540  0.5059  0.3036  0.9670
  145SAPE  H15R15938   5.261  -0.182   9.532  0.8808  1.8560 -3.0975
  145SAPE  C21615939   5.428  -0.265   9.417 -0.1000  0.3251 -0.6484
  145SAPE  H16R15940   5.370  -0.359   9.406  1.4838 -0.4140 -4.1441
  145SAPE  H16S15941   5.536  -0.290   9.429  0.2805  0.8885 -2.6164
  145SAPE  C21715942   5.404  -0.190   9.288  0.0777  0.3728  0.2571
  145SAPE  H17R15943   5.467  -0.098   9.293  0.7296 -0.1021  1.0102
  145SAPE  H17S15944   5.294  -0.178   9.279 -0.4163 -4.0017 -1.6304
  145SAPE  C21815945   5.465  -0.262   9.168 -0.6031  0.2910  0.1884
  145SAPE  H18R15946   5.401  -0.345   9.131  0.4179 -0.0997 -0.7619
  145SAPE  H18S15947   5.566  -0.301   9.192 -0.1250  0.7652 -0.9674
  145SAPE  C21915948   5.473  -0.171   9.035 -0.0975  0.1382 -1.2686
  145SAPE  H19R15949   5.558  -0.201   8.970  1.3707 -1.8236  1.3432
  145SAPE  H19S15950   5.502  -0.069   9.067  0.5513 -0.1457 -0.9312
  145SAPE  C22015951   5.340  -0.156   8.959 -0.0783  0.1387 -0.3068
  145SAPE  H20R15952   5.341  -0.075   8.883 -2.0526  1.0465  0.5658
  145SAPE  H20S15953   5.263  -0.115   9.028  0.9744 -0.2410  1.1496
  145SAPE  H20T15954   5.315  -0.253   8.912 -0.0810 -0.5213  1.0361
  145SAPE   C3315955   6.137   0.136  10.548 -0.1079  0.0727 -0.5908
  145SAPE   H3X15956   6.036   0.092  10.534 -2.3052  3.6869  2.1681
  145SAPE   H3Y15957   6.183   0.069  10.624 -0.3360 -0.7298 -1.1414
  145SAPE   C3415958   6.227   0.122  10.424  0.5909  0.0585  0.1698
  145SAPE   H4X15959   6.263   0.017  10.412  0.6439  0.3011 -2.0547
  145SAPE   H4Y15960   6.323   0.176  10.440  0.1405  1.4224 -1.5077
  145SAPE   C3515961   6.155   0.170  10.294 -0.1296  0.0663  0.0516
  145SAPE   H5X15962   6.232   0.226  10.235 -0.7516 -0.2681 -1.0922
  145SAPE   H5Y15963   6.075   0.244  10.315 -1.6051 -0.2394 -3.6930
  145SAPE   C3615964   6.120   0.061  10.199  0.1735  0.2446 -0.2240
  145SAPE   H6X15965   6.026   0.015  10.236 -0.8838  1.5464 -1.1812
  145SAPE   H6Y15966   6.203  -0.011  10.183  1.0706  0.6951  1.9934
  145SAPE   C3715967   6.089   0.130  10.063  0.7515  0.2458  0.0838
  145SAPE   H7X15968   6.176   0.189  10.028  0.1130  0.4861 -1.2080
  145SAPE   H7Y15969   6.006   0.202  10.081 -0.2136 -0.1597 -2.3078
  145SAPE   C3815970   6.067   0.027   9.949 -0.0307  0.5009  0.2694
  145SAPE   H8X15971   5.970  -0.024   9.967 -0.3328  0.6987 -0.7161
  145SAPE   H8Y15972   6.144  -0.052   9.954 -1.1509 -0.7979 -1.6723
  145SAPE   C3915973   6.071   0.092   9.806 -0.4683  0.4487  0.2993
  145SAPE   H9X15974   6.169   0.144   9.805  0.5746 -1.4448 -0.6473
  145SAPE   H9Y15975   5.982   0.158   9.792 -1.4902 -0.7275  1.0234
  145SAPE  C31015976   6.057  -0.015   9.701 -0.6970 -0.3496 -0.6544
  145SAPE  H10X15977   5.955  -0.055   9.717 -0.5887 -1.0634 -1.6739
  145SAPE  H10Y15978   6.136  -0.094   9.709 -0.0391  0.1065 -2.2163
  145SAPE  C31115979   6.053   0.051   9.556  0.5295  0.4036 -0.3600
  145SAPE  H11X15980   6.126   0.135   9.558  0.5208  0.4993 -2.3271
  145SAPE  H11Y15981   5.952   0.091   9.532  0.7033  0.3313 -1.2684
  145SAPE  C31215982   6.110  -0.022   9.439  0.4332  0.1447  0.5978
  145SAPE  H12X15983   6.089   0.041   9.349  0.7970  2.4654  2.0478
  145SAPE  H12Y15984   6.064  -0.122   9.425 -2.0385  1.5932 -3.1821
  145SAPE  C31315985   6.264  -0.035   9.454  0.3310 -0.2489 -0.7123
  145SAPE  H13X15986   6.290  -0.102   9.538 -1.8848 -0.8964 -0.4848
  145SAPE  H13Y15987   6.311   0.057   9.493  0.2771 -0.3966 -0.3007
  145SAPE  C31415988   6.345  -0.066   9.325 -0.3182  0.1576  0.1678
  145SAPE  H14X15989   6.443  -0.083   9.374 -0.8976  1.5032  1.9322
  145SAPE  H14Y15990   6.358   0.024   9.259 -0.3209 -0.4625 -0.6972
  145SAPE  C31515991   6.294  -0.190   9.257  0.4695 -1.0073  0.1700
  145SAPE  H15X15992   6.194  -0.172   9.214  0.6895 -2.2527 -0.9401
  145SAPE  H15Y15993   6.281  -0.274   9.328 -1.5098 -0.7541  0.1588
  145SAPE  C31615994   6.387  -0.239   9.140 -0.2232  0.3290  0.7513
  145SAPE  H16X15995   6.373  -0.349   9.131 -0.4994  0.4594 -0.6649
  145SAPE  H16Y15996   6.493  -0.229   9.171 -0.1613  0.6907  0.4220
  145SAPE  C31715997   6.357  -0.191   9.005  0.1859  0.2828  1.2924
  145SAPE  H17X15998   6.381  -0.083   8.996 -3.2578  1.2107  1.7988
  145SAPE  H17Y15999   6.247  -0.197   8.991  0.0659  2.1311  1.1753
  145SAPE  C31816000   6.432  -0.262   8.890 -0.0492 -0.5398 -0.1200
  145SAPE  H18X16001   6.539  -0.237   8.907  0.0423  0.2140 -1.6373
  145SAPE  H18Y16002   6.397  -0.209   8.799  1.2639  0.4524 -0.0765
  145SAPE  H18Z16003   6.417  -0.372   8.892 -0.5006 -0.4975 -1.0719
  146SAPE     N16004   4.476   4.593  11.047 -0.0278  0.0350  0.5231
  146SAPE   HN116005   4.376   4.563  11.049  0.3216 -1.4725 -1.0933
  146SAPE   HN216006   4.536   4.562  10.968 -0.0305  0.8874  0.1818
  146SAPE   HN316007   4.509   4.537  11.128 -1.9316 -1.3191  0.4375
  146SAPE   C1216008   4.485   4.737  11.052 -0.3365  0.8792  0.1003
  146SAPE  H12A16009   4.590   4.766  11.072  0.3206 -1.6765  0.6192
  146SAPE  H12B16010   4.410   4.769  11.128 -0.1409 -1.1894  1.2331
  146SAPE   C1116011   4.443   4.798  10.918 -1.2343  0.2350 -0.0414
  146SAPE  H11A16012   4.510   4.774  10.832  0.2223 -2.3434  1.6781
  146SAPE  H11B16013   4.451   4.908  10.928 -1.0173  0.2164 -0.0066
  146SAPE     P16014   4.185   4.821  10.956  0.0830  0.4844 -0.2816
  146SAPE   O1316015   4.130   4.731  11.059 -0.1765  0.5311  0.3575
  146SAPE   O1416016   4.215   4.961  10.999 -0.4856  0.1622  0.0859
  146SAPE   O1216017   4.313   4.752  10.898  0.0300  0.1363  0.1226
  146SAPE   O1116018   4.080   4.832  10.830 -0.7301  0.6069 -0.6707
  146SAPE    C116019   4.076   4.739  10.728  0.3383 -0.0079 -0.0370
  146SAPE    HA16020   4.106   4.640  10.768 -0.3703  0.8841  2.9602
  146SAPE    HB16021   3.971   4.732  10.692  1.0653 -0.2426 -2.2925
  146SAPE    C216022   4.171   4.769  10.607 -0.3841  0.5834  0.7248
  146SAPE    HS16023   4.271   4.801  10.641  0.8175 -0.3458 -1.6990
  146SAPE   O2116024   4.104   4.873  10.535 -0.3571  0.1585  0.4384
  146SAPE   C2116025   4.183   4.941  10.455  0.0154  0.1713 -0.4273
  146SAPE   O2216026   4.307   4.944  10.463 -0.0063 -0.3127 -0.5865
  146SAPE   C2216027   4.105   5.033  10.363 -0.3109 -0.3250  0.8747
  146SAPE   H2R16028   3.996   5.011  10.360 -0.7191  1.5905  0.4043
  146SAPE   H2S16029   4.101   5.130  10.416 -1.9389  1.4206 -2.1168
  146SAPE    C316030   4.202   4.640  10.523 -0.3639  0.4834 -0.4867
  146SAPE    HX16031   4.104   4.600  10.489 -1.1287 -0.5801  2.6153
  146SAPE    HY16032   4.236   4.549  10.578 -3.0892 -1.6290 -2.0160
  146SAPE   O3116033   4.283   4.665  10.407  0.3943 -0.4356 -0.6971
  146SAPE   C3116034   4.403   4.620  10.398 -0.4714  0.5537 -0.4391
  146SAPE   O3216035   4.454   4.543  10.479  1.1552  0.3228 -0.5903
  146SAPE   C3216036   4.472   4.668  10.268 -0.1140  0.0298  0.1072
  146SAPE   H2X16037   4.544   4.588  10.245  0.9658  0.8023  0.7356
  146SAPE   H2Y16038   4.528   4.763  10.286 -0.3754 -0.1725  2.1921
  146SAPE   C2316039   4.178   5.041  10.233 -0.3562 -0.5804  0.2705
  146SAPE   H3R16040   4.148   4.946  10.183  0.2464 -0.3974 -0.4670
  146SAPE   H3S16041   4.286   5.057  10.256 -0.7437  2.3689  0.4478
  146SAPE   C2416042   4.144   5.165  10.153  0.2994  0.2412  0.6738
  146SAPE   H4R16043   4.218   5.165  10.070 -0.5820  1.5402 -0.1485
  146SAPE   H4S16044   4.159   5.251  10.221 -0.9980  3.0135 -2.2760
  146SAPE   C2516045   4.002   5.157  10.091  0.4143  0.4340 -0.5288
  146SAPE   H5R16046   3.927   5.113  10.159  2.2408 -0.1849  1.1667
  146SAPE   C2616047   3.964   5.206   9.975 -0.1926  0.3299 -1.0611
  146SAPE   H6R16048   3.858   5.196   9.948 -0.2019  0.0737 -0.9289
  146SAPE   C2716049   4.043   5.284   9.875 -0.7376 -0.6037 -0.3374
  146SAPE   H7R16050   4.129   5.335   9.925 -2.2508  1.8669 -0.0808
  146SAPE   H7S16051   3.989   5.368   9.826  2.2866  1.8504  0.1736
  146SAPE   C2816052   4.090   5.202   9.758  0.3987  0.5646 -0.2587
  146SAPE   H8R16053   4.017   5.130   9.719  0.6748 -0.8889  1.7536
  146SAPE   C2916054   4.215   5.212   9.706  0.0971  0.1905  0.3609
  146SAPE   H9R16055   4.229   5.154   9.613  1.0435  1.3322 -0.2506
  146SAPE  C21016056   4.334   5.297   9.752 -0.0430 -0.3073  0.5519
  146SAPE  H10R16057   4.315   5.335   9.854  2.0727 -0.7110  1.1419
  146SAPE  H10S16058   4.358   5.391   9.698  1.9997 -0.2818  1.4259
  146SAPE  C21116059   4.459   5.212   9.759  0.0657  0.3947 -0.3981
  146SAPE  H11R16060   4.474   5.136   9.681 -0.2462 -2.3064  1.9932
  146SAPE  C21216061   4.531   5.198   9.875  0.1916 -0.3479  0.0408
  146SAPE  H12R16062   4.625   5.140   9.874  0.4486  0.0485  0.8363
  146SAPE  C21316063   4.520   5.271   9.997 -0.4923  0.5086 -0.3784
  146SAPE  H13R16064   4.435   5.343  10.001  0.6181  2.0275 -2.4735
  146SAPE  H13S16065   4.610   5.334  10.011 -1.1069  1.2165  0.5541
  146SAPE  C21416066   4.508   5.186  10.122 -0.5224  0.8688 -0.1625
  146SAPE  H14R16067   4.459   5.089  10.103  0.8910  0.3750 -1.5681
  146SAPE  C21516068   4.555   5.218  10.244  0.5398  0.2556 -0.2156
  146SAPE  H15R16069   4.543   5.144  10.324 -3.0988  0.3683 -0.4696
  146SAPE  C21616070   4.636   5.342  10.273 -1.6622  0.1824  0.0998
  146SAPE  H16R16071   4.605   5.387  10.370  1.7938  0.1919  1.3345
  146SAPE  H16S16072   4.609   5.421  10.200 -3.1854 -0.3744  0.0081
  146SAPE  C21716073   4.785   5.315  10.293  0.2965 -1.0176  1.4588
  146SAPE  H17R16074   4.818   5.264  10.200 -1.5995  0.3368 -0.0476
  146SAPE  H17S16075   4.801   5.249  10.381  1.5828 -0.1157  1.9372
  146SAPE  C21816076   4.873   5.444  10.305  0.7978  0.3407 -0.8922
  146SAPE  H18R16077   4.852   5.500  10.211  3.3322  1.4227 -0.8902
  146SAPE  H18S16078   4.978   5.409  10.315  1.1053  0.8909 -2.0536
  146SAPE  C21916079   4.829   5.512  10.433  0.7865  0.4013 -0.3568
  146SAPE  H19R16080   4.836   5.438  10.515 -0.7447 -0.6250 -1.1205
  146SAPE  H19S16081   4.721   5.538  10.430  0.8057  0.9769  1.7699
  146SAPE  C22016082   4.921   5.629  10.471 -0.0761 -0.6410 -0.3259
  146SAPE  H20R16083   4.933   5.701  10.388  0.8404 -0.3752  0.0256
  146SAPE  H20S16084   5.024   5.596  10.493  0.3941  2.2240  2.4147
  146SAPE  H20T16085   4.880   5.673  10.565 -0.9170  1.9089 -1.7905
  146SAPE   C3316086   4.369   4.694  10.153 -0.8123  0.2508  0.3899
  146SAPE   H3X16087   4.291   4.770  10.172  1.3467  2.3758  1.1987
  146SAPE   H3Y16088   4.319   4.598  10.126 -1.3959  0.8246 -0.6508
  146SAPE   C3416089   4.438   4.751  10.034 -0.4509 -0.5503 -0.3029
  146SAPE   H4X16090   4.509   4.671  10.006 -0.0705  0.1192 -1.3065
  146SAPE   H4Y16091   4.501   4.836  10.068  0.3011 -1.6752  1.2653
  146SAPE   C3516092   4.349   4.787   9.920 -0.4767 -0.3399 -0.3443
  146SAPE   H5X16093   4.282   4.869   9.952 -0.0925  1.4003 -3.5667
  146SAPE   H5Y16094   4.285   4.697   9.912 -2.0048  0.7798 -1.4061
  146SAPE   C3616095   4.427   4.808   9.794  0.6922  0.0885  0.4575
  146SAPE   H6X16096   4.509   4.734   9.799  1.1512  0.6212  0.8380
  146SAPE   H6Y16097   4.462   4.913   9.792  0.3751  0.1987  0.5453
  146SAPE   C3716098   4.326   4.786   9.684 -0.0098 -0.2822 -0.0425
  146SAPE   H7X16099   4.244   4.859   9.703 -0.4211 -1.0870  1.4101
  146SAPE   H7Y16100   4.286   4.683   9.686  2.4305 -1.3235 -1.3519
  146SAPE   C3816101   4.384   4.801   9.541 -0.1679 -0.4637  0.1658
  146SAPE   H8X16102   4.467   4.727   9.525  0.1668 -0.6431  2.4642
  146SAPE   H8Y16103   4.430   4.902   9.530 -2.6712  0.6258 -0.9589
  146SAPE   C3916104   4.275   4.788   9.425  0.3743 -0.1140  0.0727
  146SAPE   H9X16105   4.187   4.848   9.458  0.1281 -1.4244  1.9496
  146SAPE   H9Y16106   4.238   4.683   9.422  0.3085 -0.1012  0.3891
  146SAPE  C31016107   4.315   4.825   9.283 -0.1987 -0.0043  0.0659
  146SAPE  H10X16108   4.409   4.772   9.260  1.1207  2.4074 -0.4111
  146SAPE  H10Y16109   4.351   4.929   9.296 -0.2185  0.3957 -2.5015
  146SAPE  C31116110   4.200   4.824   9.177 -0.8314  0.1501  0.5631
  146SAPE  H11X16111   4.127   4.905   9.196 -1.8812  0.2388 -3.1465
  146SAPE  H11Y16112   4.149   4.729   9.205 -0.0616 -0.0435  1.3581
  146SAPE  C31216113   4.248   4.821   9.026  0.2184  0.1668 -0.3437
  146SAPE  H12X16114   4.321   4.737   9.024  1.7748  1.4755 -0.4566
  146SAPE  H12Y16115   4.295   4.920   9.013 -1.8507  1.2475 -0.0044
  146SAPE  C31316116   4.146   4.807   8.911  0.4913 -0.3223 -0.3122
  146SAPE  H13X16117   4.206   4.822   8.819 -0.1972  2.4549 -0.4063
  146SAPE  H13Y16118   4.084   4.899   8.916 -1.4114 -1.6006  1.9568
  146SAPE  C31416119   4.050   4.691   8.906 -0.1920 -0.2698  0.4951
  146SAPE  H14X16120   4.028   4.664   9.011  0.0589  2.1238  1.2340
  146SAPE  H14Y16121   4.099   4.606   8.853  1.8000  1.3125 -0.3735
  146SAPE  C31516122   3.923   4.727   8.830  0.5583 -0.0496  0.7754
  146SAPE  H15X16123   3.891   4.822   8.878  2.9014  1.3080 -0.1989
  146SAPE  H15Y16124   3.848   4.649   8.856  1.5516 -0.6384  1.9734
  146SAPE  C31616125   3.935   4.736   8.675 -0.0535  0.2722 -0.2239
  146SAPE  H16X16126   3.976   4.639   8.640 -1.1883 -0.4350  0.3268
  146SAPE  H16Y16127   4.002   4.823   8.662 -1.3821  1.9486  2.9387
  146SAPE  C31716128   3.800   4.758   8.597  0.2060  0.2602 -0.5562
  146SAPE  H17X16129   3.727   4.679   8.627  2.0878 -1.5871 -0.6529
  146SAPE  H17Y16130   3.810   4.751   8.487 -0.6133 -2.6916 -0.5163
  146SAPE  C31816131   3.752   4.901   8.632 -0.4122  0.8526 -0.0765
  146SAPE  H18X16132   3.803   4.978   8.569  2.2968 -2.4116 -2.1929
  146SAPE  H18Y16133   3.774   4.914   8.740  1.8378 -1.6602 -0.1390
  146SAPE  H18Z16134   3.643   4.920   8.620 -0.9133 -1.3109  0.6447
  147SAPE     N16135   0.851   2.217   6.418  0.0949  0.6260 -0.3807
  147SAPE   HN116136   0.774   2.155   6.386 -0.4523  0.7809  0.5816
  147SAPE   HN216137   0.811   2.295   6.475  0.5163 -0.4250  1.4425
  147SAPE   HN316138   0.896   2.262   6.336 -0.4365  0.0599 -1.0004
  147SAPE   C1216139   0.946   2.134   6.495 -0.3153  0.2813  0.2637
  147SAPE  H12A16140   0.910   2.029   6.492 -0.6455  0.4084 -1.4881
  147SAPE  H12B16141   0.947   2.170   6.600  0.4256 -2.0113  1.1090
  147SAPE   C1116142   1.082   2.136   6.429  0.3784 -0.1410  0.6785
  147SAPE  H11A16143   1.142   2.066   6.491 -0.7314 -1.0029  0.7952
  147SAPE  H11B16144   1.117   2.242   6.436 -1.3842  0.5200 -0.0503
  147SAPE     P16145   1.182   2.126   6.186  0.5144  0.3833 -0.1398
  147SAPE   O1316146   1.200   2.011   6.093 -0.3234 -0.1349 -0.3860
  147SAPE   O1416147   1.137   2.253   6.121  0.0080 -0.6889  0.0171
  147SAPE   O1216148   1.073   2.086   6.295  0.4847  0.2876 -0.3272
  147SAPE   O1116149   1.322   2.148   6.260 -0.7145 -0.3203  0.3188
  147SAPE    C116150   1.403   2.266   6.237  0.6176 -0.0302  0.1340
  147SAPE    HA16151   1.452   2.252   6.139  1.1908 -1.0445  0.5464
  147SAPE    HB16152   1.345   2.360   6.242  1.4215  0.5905 -1.5493
  147SAPE    C216153   1.500   2.275   6.350  0.3079 -0.1520  0.2890
  147SAPE    HS16154   1.552   2.179   6.368 -0.5741 -0.7974 -0.4642
  147SAPE   O2116155   1.439   2.329   6.466 -0.2543  0.2476  0.0106
  147SAPE   C2116156   1.500   2.308   6.582  0.4487  0.3471 -0.2080
  147SAPE   O2216157   1.592   2.228   6.599  0.0917 -0.1634  0.7083
  147SAPE   C2216158   1.425   2.374   6.698 -0.2686 -0.2453 -0.2030
  147SAPE   H2R16159   1.483   2.364   6.792  0.3339  0.1388 -0.5246
  147SAPE   H2S16160   1.419   2.482   6.670 -0.7953 -0.7238 -2.0670
  147SAPE    C316161   1.613   2.371   6.299 -0.0527 -0.3788 -0.0209
  147SAPE    HX16162   1.575   2.472   6.273 -0.7798 -0.4950  0.5529
  147SAPE    HY16163   1.648   2.334   6.200  0.2028  2.7675 -1.2437
  147SAPE   O3116164   1.713   2.389   6.403  0.7756  0.2041 -0.0081
  147SAPE   C3116165   1.812   2.304   6.385  0.0047 -0.1417  0.0037
  147SAPE   O3216166   1.817   2.221   6.295 -0.1094 -0.1173  0.2592
  147SAPE   C3216167   1.927   2.329   6.482  0.0795  0.6079 -0.3940
  147SAPE   H2X16168   1.921   2.258   6.566 -0.1106  0.7703 -0.2687
  147SAPE   H2Y16169   1.921   2.435   6.516 -0.5172  0.3935  0.1645
  147SAPE   C2316170   1.283   2.320   6.721 -0.1886 -0.2937  0.6434
  147SAPE   H3R16171   1.214   2.335   6.635  1.2380 -1.9491 -0.8841
  147SAPE   H3S16172   1.251   2.381   6.808  0.2030  0.3480  0.3437
  147SAPE   C2416173   1.280   2.171   6.769 -0.3169 -0.1247  0.3270
  147SAPE   H4R16174   1.364   2.160   6.841  0.5244 -0.5637 -0.6988
  147SAPE   H4S16175   1.307   2.111   6.679 -0.7488 -0.0834  0.1673
  147SAPE   C2516176   1.149   2.135   6.833  0.8494 -0.3349  0.0700
  147SAPE   H5R16177   1.079   2.085   6.765  0.3557  0.7737 -0.2431
  147SAPE   C2616178   1.110   2.158   6.958  0.0456  0.1134 -0.0340
  147SAPE   H6R16179   1.008   2.130   6.988  0.6236 -1.7782  0.2501
  147SAPE   C2716180   1.182   2.215   7.072  0.4267 -0.2737 -0.2342
  147SAPE   H7R16181   1.107   2.276   7.127 -1.6700 -1.6980 -1.3917
  147SAPE   H7S16182   1.266   2.281   7.041 -0.3388  1.5635  1.4205
  147SAPE   C2816183   1.238   2.104   7.152 -0.2708 -0.3533  0.5837
  147SAPE   H8R16184   1.278   2.020   7.093  1.4348  0.8758 -0.0781
  147SAPE   C2916185   1.248   2.114   7.285 -0.0793 -0.5953 -0.1661
  147SAPE   H9R16186   1.297   2.032   7.338 -0.8993 -1.2444 -0.3850
  147SAPE  C21016187   1.213   2.232   7.376  0.5587 -0.1779  0.3370
  147SAPE  H10R16188   1.211   2.323   7.311 -1.8741 -0.6039 -0.2990
  147SAPE  H10S16189   1.297   2.239   7.448 -0.3153  0.1714  1.3462
  147SAPE  C21116190   1.085   2.229   7.455  0.4832  0.2199 -0.3849
  147SAPE  H11R16191   0.998   2.195   7.398  0.4030  0.7092 -0.5629
  147SAPE  C21216192   1.072   2.249   7.593  0.5513  0.4779  0.2298
  147SAPE  H12R16193   0.975   2.248   7.644  0.8210 -0.0250  0.7401
  147SAPE  C21316194   1.177   2.283   7.694 -0.1439  0.1049  0.0035
  147SAPE  H13R16195   1.265   2.215   7.687 -0.4310 -0.4539  1.4894
  147SAPE  H13S16196   1.142   2.252   7.795  0.9842 -0.4077  0.2557
  147SAPE  C21416197   1.223   2.421   7.686 -0.0046 -0.6977 -0.5641
  147SAPE  H14R16198   1.248   2.451   7.583 -1.8922  0.9620 -0.5922
  147SAPE  C21516199   1.242   2.501   7.793 -0.1302  0.0411  0.3140
  147SAPE  H15R16200   1.273   2.605   7.771 -0.5702  0.4273  1.4806
  147SAPE  C21616201   1.220   2.479   7.943 -0.5820  0.2779  0.2669
  147SAPE  H16R16202   1.310   2.512   8.000  0.3047 -0.6001 -0.5819
  147SAPE  H16S16203   1.213   2.368   7.947  2.7197  0.0053  1.5484
  147SAPE  C21716204   1.089   2.527   8.008 -0.1954 -0.0471  0.8543
  147SAPE  H17R16205   1.095   2.495   8.114 -1.8860  0.3672  1.1021
  147SAPE  H17S16206   0.993   2.504   7.956 -0.0578 -0.5783  0.8330
  147SAPE  C21816207   1.090   2.682   8.024 -0.5177  0.4768 -0.6465
  147SAPE  H18R16208   0.995   2.714   8.071  1.6504  1.7883  3.2573
  147SAPE  H18S16209   1.105   2.735   7.927  1.5460 -0.3715 -0.8349
  147SAPE  C21916210   1.198   2.726   8.126 -0.0957  0.1238 -1.0680
  147SAPE  H19R16211   1.298   2.695   8.088  0.2684 -0.6080  0.4341
  147SAPE  H19S16212   1.183   2.671   8.221 -1.5667  0.8658 -0.8371
  147SAPE  C22016213   1.199   2.878   8.163  0.5227 -0.1572  0.2446
  147SAPE  H20R16214   1.221   2.939   8.073  0.9291 -1.9773 -0.9338
  147SAPE  H20S16215   1.262   2.910   8.249 -2.3145  0.0488  2.3604
  147SAPE  H20T16216   1.097   2.906   8.196  0.8727  1.5163  0.0403
  147SAPE   C3316217   2.061   2.304   6.408  0.1955  0.2378 -0.1482
  147SAPE   H3X16218   2.078   2.371   6.322  1.4541  0.7179  0.4445
  147SAPE   H3Y16219   2.072   2.203   6.363  2.0268  1.5203 -2.8323
  147SAPE   C3416220   2.176   2.337   6.502 -0.5190  0.1464  0.2015
  147SAPE   H4X16221   2.169   2.441   6.541 -0.6763  0.0690  0.3810
  147SAPE   H4Y16222   2.275   2.318   6.454  0.2934  0.6684  1.6030
  147SAPE   C3516223   2.184   2.238   6.622 -0.3515 -0.1100 -0.3256
  147SAPE   H5X16224   2.183   2.138   6.575 -2.1021  1.3068 -3.6541
  147SAPE   H5Y16225   2.092   2.244   6.685 -0.8834 -4.1314 -0.4973
  147SAPE   C3616226   2.300   2.270   6.717 -0.0215 -0.2149  0.5021
  147SAPE   H6X16227   2.297   2.380   6.735  0.1820 -0.1934  0.4116
  147SAPE   H6Y16228   2.393   2.251   6.659 -0.1359 -3.5166  1.1948
  147SAPE   C3716229   2.296   2.192   6.846  0.7319  0.1640 -0.2130
  147SAPE   H7X16230   2.392   2.194   6.902  1.0480  0.1986 -0.7560
  147SAPE   H7Y16231   2.263   2.086   6.843 -2.3820  0.9854  0.4377
  147SAPE   C3816232   2.187   2.245   6.947  0.1102  0.4030 -0.5914
  147SAPE   H8X16233   2.092   2.191   6.928  0.0461  0.9685 -2.0627
  147SAPE   H8Y16234   2.163   2.351   6.921 -0.6844  0.1184 -1.0592
  147SAPE   C3916235   2.225   2.231   7.098  0.1774  0.1849  0.5238
  147SAPE   H9X16236   2.320   2.288   7.110  0.4631  0.0116 -0.8094
  147SAPE   H9Y16237   2.245   2.123   7.110  0.9481  0.2218 -0.3625
  147SAPE  C31016238   2.109   2.275   7.186 -0.3684 -0.0927 -1.1907
  147SAPE  H10X16239   2.019   2.211   7.171  0.0064 -0.8254 -0.4409
  147SAPE  H10Y16240   2.089   2.384   7.177 -0.2372  0.2996  2.1874
  147SAPE  C31116241   2.141   2.256   7.334 -0.2927 -0.6152  0.7606
  147SAPE  H11X16242   2.205   2.342   7.363 -1.1548  0.0628  0.7036
  147SAPE  H11Y16243   2.203   2.165   7.350  0.1014 -0.3568  0.6990
  147SAPE  C31216244   2.023   2.250   7.431 -0.1758 -0.7868  0.4138
  147SAPE  H12X16245   1.991   2.144   7.447 -2.3578  0.1456  3.1226
  147SAPE  H12Y16246   1.946   2.318   7.391  1.0313 -0.3421 -1.2551
  147SAPE  C31316247   2.059   2.312   7.569  0.2544  0.5843  0.6542
  147SAPE  H13X16248   1.971   2.321   7.636  0.9928  4.5709  1.3993
  147SAPE  H13Y16249   2.093   2.414   7.539 -0.4440 -0.0403 -2.5525
  147SAPE  C31416250   2.171   2.242   7.655  0.6717  0.2422 -0.0076
  147SAPE  H14X16251   2.251   2.218   7.581 -0.8753 -0.8732 -1.3814
  147SAPE  H14Y16252   2.126   2.146   7.687 -0.2909  0.6981  0.0347
  147SAPE  C31516253   2.216   2.315   7.782  0.0515 -0.3316 -0.5246
  147SAPE  H15X16254   2.258   2.417   7.770  1.6075 -0.4498  2.7566
  147SAPE  H15Y16255   2.290   2.250   7.833 -1.0741 -0.3579  1.1720
  147SAPE  C31616256   2.098   2.317   7.881  0.2857  0.2318  0.9718
  147SAPE  H16X16257   2.063   2.213   7.898  1.3339  0.3179  4.4424
  147SAPE  H16Y16258   2.010   2.367   7.835  0.9901 -0.0402 -0.7323
  147SAPE  C31716259   2.134   2.374   8.018  0.4589 -0.5886 -0.0198
  147SAPE  H17X16260   2.156   2.481   8.001  1.1926 -0.8723 -0.9020
  147SAPE  H17Y16261   2.228   2.320   8.040 -0.4598 -3.0134 -1.5862
  147SAPE  C31816262   2.027   2.360   8.126  0.0770  0.1969  0.1170
  147SAPE  H18X16263   2.048   2.414   8.221 -2.0711  0.3102  0.5783
  147SAPE  H18Y16264   2.012   2.252   8.150  2.5098 -0.6171 -1.6324
  147SAPE  H18Z16265   1.930   2.407   8.097  0.8800  0.3722 -2.5303
  148SAPE     N16266   0.840   0.140   6.173  0.1925  0.7031  0.8948
  148SAPE   HN116267   0.919   0.097   6.122 -0.0161  0.6005  0.6566
  148SAPE   HN216268   0.817   0.080   6.255  2.4332  0.2840  1.2720
  148SAPE   HN316269   0.758   0.164   6.113 -0.5105  0.8989  1.8964
  148SAPE   C1216270   0.888   0.264   6.236  0.6039 -0.8004 -0.6162
  148SAPE  H12A16271   0.814   0.289   6.315  1.3601  1.1160 -0.4494
  148SAPE  H12B16272   0.896   0.346   6.160  0.1098  0.9610  1.1375
  148SAPE   C1116273   1.023   0.256   6.300 -0.4046  0.0077  0.6975
  148SAPE  H11A16274   1.046   0.349   6.357  1.8641  1.6117 -2.5282
  148SAPE  H11B16275   1.102   0.244   6.223  1.0001  0.6779  1.9817
  148SAPE     P16276   1.148   0.115   6.476 -0.2643  0.3610  0.2735
  148SAPE   O1316277   1.148  -0.026   6.512 -0.7777 -0.6094  0.2481
  148SAPE   O1416278   1.270   0.165   6.410 -0.0269  0.4168 -0.9959
  148SAPE   O1216279   1.024   0.136   6.381 -0.9752 -0.3664 -0.5114
  148SAPE   O1116280   1.105   0.202   6.602 -0.1952 -0.3190  0.5578
  148SAPE    C116281   0.972   0.208   6.636  0.8352 -0.0324  0.2750
  148SAPE    HA16282   0.900   0.182   6.556  0.5361  1.3016  0.0905
  148SAPE    HB16283   0.948   0.140   6.721 -2.9290 -0.3858 -0.8924
  148SAPE    C216284   0.923   0.352   6.679 -0.4508 -0.3109 -0.5809
  148SAPE    HS16285   0.936   0.422   6.593  0.7203 -1.2080 -1.1682
  148SAPE   O2116286   1.002   0.397   6.785 -0.4022 -0.1311 -0.1375
  148SAPE   C2116287   0.988   0.522   6.829  1.0140  0.1655 -0.0758
  148SAPE   O2216288   0.924   0.611   6.781  0.8135 -0.0456  0.0725
  148SAPE   C2216289   1.073   0.554   6.955 -0.4054  1.1712  0.2435
  148SAPE   H2R16290   1.015   0.509   7.038 -0.8666 -0.0375 -0.7087
  148SAPE   H2S16291   1.167   0.496   6.944 -1.3229 -0.4854  0.8588
  148SAPE    C316292   0.764   0.365   6.706  0.9436  0.3886  0.0506
  148SAPE    HX16293   0.714   0.368   6.607  0.2178 -0.5704  0.3834
  148SAPE    HY16294   0.742   0.452   6.772  0.0069 -0.8795  1.4725
  148SAPE   O3116295   0.708   0.244   6.776 -0.1783 -0.3054  0.6210
  148SAPE   C3116296   0.718   0.239   6.916  0.0779 -0.0175  0.8850
  148SAPE   O3216297   0.772   0.323   6.987 -0.2784 -0.0295  0.7407
  148SAPE   C3216298   0.661   0.106   6.956 -0.6509  0.2300  0.1633
  148SAPE   H2X16299   0.726   0.026   6.914 -0.3935  0.7594 -0.4657
  148SAPE   H2Y16300   0.557   0.107   6.915 -0.4897 -3.2493 -0.6176
  148SAPE   C2316301   1.097   0.697   6.992 -0.3321  0.1414 -0.5666
  148SAPE   H3R16302   1.000   0.748   7.007 -1.1440 -1.3816 -0.4392
  148SAPE   H3S16303   1.150   0.757   6.915  0.5964 -1.7727 -1.4817
  148SAPE   C2416304   1.160   0.696   7.129  0.0083 -0.1436 -0.0786
  148SAPE   H4R16305   1.098   0.646   7.206  0.1906 -0.7997 -0.3529
  148SAPE   H4S16306   1.172   0.801   7.165  0.8288  0.9893 -3.3009
  148SAPE   C2516307   1.299   0.639   7.130 -0.0415  0.1462  0.2809
  148SAPE   H5R16308   1.348   0.631   7.032 -1.2388  1.9844 -0.5139
  148SAPE   C2616309   1.368   0.604   7.238 -0.1532  0.9258 -0.7166
  148SAPE   H6R16310   1.472   0.570   7.238 -0.6182 -0.5346 -0.3986
  148SAPE   C2716311   1.308   0.622   7.376 -0.1575  0.1734  0.6155
  148SAPE   H7R16312   1.271   0.522   7.409 -1.1017  0.0016 -0.8419
  148SAPE   H7S16313   1.213   0.680   7.378 -1.6734 -2.0959 -0.3757
  148SAPE   C2816314   1.407   0.676   7.479 -0.7891  0.0628 -0.1798
  148SAPE   H8R16315   1.502   0.723   7.451 -1.0472  1.5296  1.2495
  148SAPE   C2916316   1.386   0.688   7.610 -0.7200 -0.6849 -1.1605
  148SAPE   H9R16317   1.466   0.729   7.673 -0.3906  0.9617 -2.5603
  148SAPE  C21016318   1.255   0.651   7.677 -0.1507 -0.2661  0.0087
  148SAPE  H10R16319   1.202   0.572   7.619  0.7357 -2.3726  1.9255
  148SAPE  H10S16320   1.182   0.735   7.672  1.1963  0.9687  0.3391
  148SAPE  C21116321   1.268   0.600   7.817 -0.6111  0.2513  0.3751
  148SAPE  H11R16322   1.300   0.496   7.829  0.7628  0.6118  0.0020
  148SAPE  C21216323   1.241   0.669   7.927  0.6981  0.2556  0.1454
  148SAPE  H12R16324   1.235   0.606   8.017  0.5090  1.2322  0.8379
  148SAPE  C21316325   1.190   0.812   7.940 -0.5042  0.4295  0.0571
  148SAPE  H13R16326   1.120   0.801   8.025 -0.6273 -1.9608 -0.2607
  148SAPE  H13S16327   1.127   0.841   7.853  0.4182  0.7821 -0.5105
  148SAPE  C21416328   1.314   0.904   7.963 -0.3947  0.0237  0.8087
  148SAPE  H14R16329   1.360   0.955   7.877 -0.2051 -0.2274  0.7632
  148SAPE  C21516330   1.376   0.932   8.078 -0.2522 -0.2425 -0.1551
  148SAPE  H15R16331   1.468   0.992   8.084 -1.2567  1.5537 -1.5096
  148SAPE  C21616332   1.322   0.877   8.215  0.0952  0.4578  0.7034
  148SAPE  H16R16333   1.375   0.789   8.258 -1.2526  0.8083  3.3207
  148SAPE  H16S16334   1.217   0.843   8.203 -0.9334  3.5793  0.0579
  148SAPE  C21716335   1.327   0.992   8.317  0.2470  0.1548 -0.0052
  148SAPE  H17R16336   1.245   1.062   8.290  0.6764  1.0032  0.8434
  148SAPE  H17S16337   1.426   1.042   8.326 -0.5473  1.5409  1.8140
  148SAPE  C21816338   1.288   0.964   8.465 -0.5444 -0.4778 -0.2678
  148SAPE  H18R16339   1.276   1.063   8.514 -2.9879 -0.9566  0.2634
  148SAPE  H18S16340   1.373   0.911   8.513 -0.9405 -2.0364 -1.1973
  148SAPE  C21916341   1.160   0.886   8.483 -0.1140  0.1525 -0.6204
  148SAPE  H19R16342   1.131   0.885   8.590 -2.3897 -0.0943 -1.1856
  148SAPE  H19S16343   1.153   0.784   8.440 -0.3895 -1.6007  3.1445
  148SAPE  C22016344   1.042   0.965   8.423  0.2295  0.0239  0.5125
  148SAPE  H20R16345   1.028   1.062   8.476  0.5883  1.0759 -1.2284
  148SAPE  H20S16346   0.951   0.907   8.449 -1.0013 -0.1768 -3.5836
  148SAPE  H20T16347   1.058   0.988   8.315 -2.2725  1.5629  0.3835
  148SAPE   C3316348   0.645   0.081   7.108 -0.3492  0.6494 -0.3453
  148SAPE   H3X16349   0.592   0.162   7.163 -0.7511 -0.2558  0.6454
  148SAPE   H3Y16350   0.748   0.090   7.150  0.7971  0.3544 -2.8977
  148SAPE   C3416351   0.599  -0.057   7.136  0.7154 -0.1402 -0.7056
  148SAPE   H4X16352   0.654  -0.150   7.108 -0.6724 -1.0359 -0.5741
  148SAPE   H4Y16353   0.507  -0.064   7.073 -0.9647  0.0884  1.6055
  148SAPE   C3516354   0.555  -0.072   7.281  0.2743 -0.3479 -0.6132
  148SAPE   H5X16355   0.494  -0.165   7.281 -1.4586  0.7383 -2.2004
  148SAPE   H5Y16356   0.502   0.022   7.307  2.0539  0.9839 -1.5589
  148SAPE   C3616357   0.677  -0.099   7.379  0.2996 -0.6573 -0.5719
  148SAPE   H6X16358   0.734  -0.004   7.387 -0.4767 -0.3215  1.8233
  148SAPE   H6Y16359   0.740  -0.173   7.326 -1.0680 -0.4542 -2.5839
  148SAPE   C3716360   0.634  -0.138   7.522 -0.7418 -0.4686  0.6986
  148SAPE   H7X16361   0.621  -0.247   7.532 -0.1264 -0.3962  2.5686
  148SAPE   H7Y16362   0.531  -0.097   7.539 -0.5356 -0.0995  1.0872
  148SAPE   C3816363   0.741  -0.083   7.621 -0.0063  0.3620 -0.0410
  148SAPE   H8X16364   0.755   0.026   7.608  0.1200  0.2245 -1.2191
  148SAPE   H8Y16365   0.841  -0.128   7.604  1.3787  3.5854 -1.1085
  148SAPE   C3916366   0.682  -0.107   7.764  0.2584 -0.4469 -0.2970
  148SAPE   H9X16367   0.668  -0.213   7.796  0.8863 -0.5485 -0.3432
  148SAPE   H9Y16368   0.575  -0.079   7.771  0.4697  0.1842  0.4462
  148SAPE  C31016369   0.771  -0.042   7.865  0.8711 -0.0300 -0.6263
  148SAPE  H10X16370   0.814   0.053   7.826  2.3000 -1.3286 -2.4256
  148SAPE  H10Y16371   0.858  -0.111   7.872  2.0585  1.4483 -0.4678
  148SAPE  C31116372   0.708  -0.018   8.005 -0.2925  0.7197 -0.2641
  148SAPE  H11X16373   0.621  -0.085   8.022  1.1435 -1.6854 -1.8388
  148SAPE  H11Y16374   0.671   0.087   8.000 -1.4048  0.4363  1.2155
  148SAPE  C31216375   0.812  -0.018   8.116  0.2863  0.1961  0.2984
  148SAPE  H12X16376   0.898   0.046   8.084  0.3310  0.1926  0.4116
  148SAPE  H12Y16377   0.862  -0.118   8.116  1.6710  0.8439 -0.6866
  148SAPE  C31316378   0.750   0.016   8.252 -0.1521  0.6701 -0.0103
  148SAPE  H13X16379   0.665  -0.051   8.275  1.0545 -0.8003  0.3252
  148SAPE  H13Y16380   0.719   0.122   8.240  0.8234  0.9618 -0.1170
  148SAPE  C31416381   0.861   0.018   8.366  0.1705 -0.0258  0.0669
  148SAPE  H14X16382   0.930   0.100   8.336 -1.6195  1.6981  0.4206
  148SAPE  H14Y16383   0.908  -0.083   8.363 -1.6491 -0.9094 -3.7544
  148SAPE  C31516384   0.800   0.064   8.497 -0.0774  0.6860  0.1836
  148SAPE  H15X16385   0.744  -0.020   8.544 -1.1587  0.7634 -0.9100
  148SAPE  H15Y16386   0.733   0.152   8.490 -0.1679  0.6389  0.4168
  148SAPE  C31616387   0.906   0.111   8.597 -0.5252  0.1135 -0.1326
  148SAPE  H16X16388   0.937   0.212   8.562  1.8990 -0.2700  0.7225
  148SAPE  H16Y16389   0.997   0.049   8.580 -0.5751 -0.8235  2.5852
  148SAPE  C31716390   0.877   0.091   8.748  0.3001  0.1336 -0.5512
  148SAPE  H17X16391   0.853  -0.016   8.766  2.8792 -0.7845 -2.0696
  148SAPE  H17Y16392   0.782   0.146   8.762  0.7238  0.2031  3.1709
  148SAPE  C31816393   0.988   0.151   8.836  0.5921 -0.7176  0.2645
  148SAPE  H18X16394   0.986   0.101   8.935  0.3888  1.0109  1.1831
  148SAPE  H18Y16395   0.977   0.260   8.856 -1.5397 -1.0543  1.1776
  148SAPE  H18Z16396   1.084   0.130   8.785  0.6699  0.5692 -0.1582
  149SAPE     N16397   6.554   2.640   6.569 -0.0906  0.2860 -0.0000
  149SAPE   HN116398   6.495   2.644   6.483 -0.2889  0.4704  0.1429
  149SAPE   HN216399   6.611   2.553   6.573  0.4874  0.6724  0.3237
  149SAPE   HN316400   6.493   2.661   6.650 -2.4035 -1.6848 -1.0867
  149SAPE   C1216401   6.673   2.730   6.561  0.0234  0.4091  0.8400
  149SAPE  H12A16402   6.730   2.723   6.656  2.8184  0.0663 -0.7472
  149SAPE  H12B16403   6.636   2.831   6.533 -2.8280 -0.8417 -0.2887
  149SAPE   C1116404   6.773   2.683   6.454  0.1707  0.5488 -0.3687
  149SAPE  H11A16405   6.861   2.750   6.460  2.2928 -1.6935 -3.3305
  149SAPE  H11B16406   6.723   2.697   6.355 -0.7488  0.0070  0.0045
  149SAPE     P16407   6.907   2.478   6.375  0.1637  0.1268  0.0635
  149SAPE   O1316408   6.833   2.435   6.251 -0.4301  0.1613  0.2594
  149SAPE   O1416409   7.017   2.572   6.339  0.5010  0.1170 -0.2207
  149SAPE   O1216410   6.807   2.545   6.470  0.2074  0.0648 -0.1795
  149SAPE   O1116411   6.953   2.359   6.459 -0.6922  0.9986  0.5662
  149SAPE    C116412   6.862   2.251   6.489  0.0200 -0.2416  0.1403
  149SAPE    HA16413   6.802   2.225   6.399 -0.0988  0.6822 -0.0563
  149SAPE    HB16414   6.917   2.157   6.510  1.2254  0.8592  2.2742
  149SAPE    C216415   6.761   2.280   6.604  0.3180  0.0796 -0.2444
  149SAPE    HS16416   6.704   2.371   6.577 -0.0545  0.3843  1.4320
  149SAPE   O2116417   6.829   2.308   6.729  0.1653 -0.5506 -0.1923
  149SAPE   C2116418   6.790   2.407   6.804  0.1070  0.0796 -0.6924
  149SAPE   O2216419   6.703   2.491   6.772 -0.1324  1.0240  0.4595
  149SAPE   C2216420   6.881   2.416   6.924  0.5376 -0.2467 -0.0888
  149SAPE   H2R16421   6.912   2.315   6.958 -2.4174 -0.9903  0.6237
  149SAPE   H2S16422   6.966   2.477   6.885 -0.4107  0.7991 -0.5750
  149SAPE    C316423   6.642   2.169   6.625 -0.3334  0.4689 -0.3092
  149SAPE    HX16424   6.705   2.078   6.613 -0.6040  0.3786 -1.1293
  149SAPE    HY16425   6.566   2.165   6.544  0.5198 -0.7612 -1.0827
  149SAPE   O3116426   6.579   2.175   6.756  0.0858  0.3830 -1.2475
  149SAPE   C3116427   6.481   2.270   6.777 -0.0074 -0.1855  0.6859
  149SAPE   O3216428   6.441   2.339   6.686 -0.2266  0.2171 -0.4169
  149SAPE   C3216429   6.454   2.285   6.929 -0.4699 -0.2025 -0.0209
  149SAPE   H2X16430   6.525   2.360   6.972 -0.6644 -0.2260  0.3396
  149SAPE   H2Y16431   6.474   2.186   6.973  0.1771  0.1551  0.5107
  149SAPE   C2316432   6.807   2.497   7.031 -0.1901 -0.4364 -0.1517
  149SAPE   H3R16433   6.709   2.453   7.062 -0.7384  0.5432 -0.4581
  149SAPE   H3S16434   6.788   2.604   7.008 -2.0286 -0.4765  0.9710
  149SAPE   C2416435   6.877   2.520   7.171  0.5710 -0.4520 -0.0672
  149SAPE   H4R16436   6.826   2.607   7.218 -1.3832 -1.5179 -0.0920
  149SAPE   H4S16437   6.985   2.542   7.160  0.6019 -0.1820  0.7273
  149SAPE   C2516438   6.865   2.409   7.273  0.1083 -0.4891  0.4030
  149SAPE   H5R16439   6.893   2.311   7.233  2.4774  0.4756 -0.4882
  149SAPE   C2616440   6.837   2.427   7.403 -0.6769  0.0870  0.6255
  149SAPE   H6R16441   6.832   2.329   7.452  0.5268 -0.4248 -0.2391
  149SAPE   C2716442   6.815   2.556   7.481  0.8199 -0.2868  0.0826
  149SAPE   H7R16443   6.727   2.534   7.545 -0.4715  0.6718 -1.2762
  149SAPE   H7S16444   6.792   2.647   7.421  1.6317 -0.1261  0.0134
  149SAPE   C2816445   6.940   2.598   7.561  0.3487 -0.3090  0.5040
  149SAPE   H8R16446   7.001   2.674   7.511  0.3263 -1.0148 -0.6189
  149SAPE   C2916447   6.973   2.582   7.691 -0.0237  0.3952 -0.6892
  149SAPE   H9R16448   7.073   2.614   7.722 -0.2058  1.9852 -1.6357
  149SAPE  C21016449   6.891   2.509   7.800  0.3828 -0.2719  1.0327
  149SAPE  H10R16450   6.939   2.412   7.824  0.6547 -0.5255 -0.4706
  149SAPE  H10S16451   6.794   2.472   7.759  0.4505 -1.7857  2.1666
  149SAPE  C21116452   6.865   2.600   7.926  0.0708  0.7417  0.4746
  149SAPE  H11R16453   6.871   2.710   7.919 -1.1234  0.8273  0.6633
  149SAPE  C21216454   6.831   2.545   8.047  0.8447 -0.2648 -0.0014
  149SAPE  H12R16455   6.825   2.612   8.135 -2.7682  0.3246 -0.5456
  149SAPE  C21316456   6.807   2.400   8.075  0.4525  0.0974 -1.0867
  149SAPE  H13R16457   6.786   2.338   7.985  1.4420 -4.4132  1.5040
  149SAPE  H13S16458   6.713   2.381   8.132  1.3760 -0.7752  0.1939
  149SAPE  C21416459   6.910   2.331   8.157 -0.2349 -0.2311 -0.0994
  149SAPE  H14R16460   6.983   2.277   8.095 -2.8378 -0.6753 -3.0160
  149SAPE  C21516461   6.912   2.312   8.290  0.4114 -0.7812  0.4046
  149SAPE  H15R16462   6.991   2.259   8.345  0.0647  0.1141  1.8499
  149SAPE  C21616463   6.816   2.366   8.393  0.6020 -1.0442  0.3798
  149SAPE  H16R16464   6.740   2.425   8.339  2.6810  0.5993 -0.9293
  149SAPE  H16S16465   6.858   2.443   8.462  2.0934 -1.6242  0.1706
  149SAPE  C21716466   6.752   2.256   8.481  0.9328 -0.3143  0.9098
  149SAPE  H17R16467   6.736   2.161   8.425 -2.8749  0.0001  1.1967
  149SAPE  H17S16468   6.649   2.294   8.503  0.6145 -0.6795  0.1167
  149SAPE  C21816469   6.819   2.235   8.616 -0.3371 -0.5628 -0.0124
  149SAPE  H18R16470   6.841   2.331   8.667  0.9601 -1.2290  0.7420
  149SAPE  H18S16471   6.922   2.197   8.597 -0.4784 -0.4108 -1.1276
  149SAPE  C21916472   6.742   2.135   8.711  0.4334 -0.1561  0.1195
  149SAPE  H19R16473   6.762   2.030   8.679 -2.0423 -1.0148  1.1628
  149SAPE  H19S16474   6.635   2.158   8.694  0.4964  0.9433  1.0767
  149SAPE  C22016475   6.775   2.159   8.857  0.3843  0.6873  0.1193
  149SAPE  H20R16476   6.757   2.265   8.886  1.6210  1.2037 -0.8983
  149SAPE  H20S16477   6.880   2.136   8.885 -0.7907 -2.0490  2.8932
  149SAPE  H20T16478   6.714   2.092   8.921  0.8012  1.8500  1.7791
  149SAPE   C3316479   6.309   2.306   6.958 -0.0176 -0.2019 -0.9282
  149SAPE   H3X16480   6.253   2.229   6.901 -1.0405 -0.7738  0.7496
  149SAPE   H3Y16481   6.288   2.406   6.915  0.0832  0.0485 -0.4141
  149SAPE   C3416482   6.273   2.311   7.108  1.0401 -0.3730 -0.1832
  149SAPE   H4X16483   6.332   2.223   7.143  1.1959  0.3786  1.5758
  149SAPE   H4Y16484   6.164   2.298   7.126  0.9735  0.4764  0.0727
  149SAPE   C3516485   6.307   2.443   7.175  0.1323 -0.0819  0.1108
  149SAPE   H5X16486   6.252   2.518   7.115  0.2969  1.9060  2.3139
  149SAPE   H5Y16487   6.418   2.454   7.175  0.1763 -0.3982 -1.0739
  149SAPE   C3616488   6.256   2.445   7.325 -0.0689 -0.5309  0.5726
  149SAPE   H6X16489   6.296   2.358   7.381  1.3195 -0.6955 -0.5903
  149SAPE   H6Y16490   6.147   2.431   7.337 -0.0647 -1.2117 -0.0672
  149SAPE   C3716491   6.312   2.558   7.408 -0.1596 -0.0765 -0.2808
  149SAPE   H7X16492   6.280   2.653   7.361  2.7126  1.4587  0.6296
  149SAPE   H7Y16493   6.423   2.551   7.405 -0.2752 -3.4715 -0.9079
  149SAPE   C3816494   6.270   2.545   7.551  0.2400  0.2326  1.0437
  149SAPE   H8X16495   6.324   2.455   7.588  2.1781  0.1323 -1.6489
  149SAPE   H8Y16496   6.161   2.530   7.559 -0.0743  0.0397 -2.1211
  149SAPE   C3916497   6.304   2.663   7.646  0.3703 -0.1043  0.5292
  149SAPE   H9X16498   6.267   2.755   7.595 -0.4446 -1.5915 -1.7323
  149SAPE   H9Y16499   6.413   2.686   7.635  0.1765 -0.1328 -2.3245
  149SAPE  C31016500   6.273   2.645   7.798  0.8878  0.5179  0.6472
  149SAPE  H10X16501   6.312   2.546   7.830 -0.4945  0.3582  1.9276
  149SAPE  H10Y16502   6.163   2.648   7.814  0.7050  0.3096 -0.5289
  149SAPE  C31116503   6.344   2.749   7.881 -0.6446 -0.0564  0.2648
  149SAPE  H11X16504   6.314   2.853   7.856 -2.8813 -0.7384 -0.1034
  149SAPE  H11Y16505   6.453   2.737   7.868 -0.5115  2.6638 -2.0216
  149SAPE  C31216506   6.317   2.744   8.029 -0.4983 -0.0600 -0.8559
  149SAPE  H12X16507   6.329   2.640   8.066  0.6394  0.0584 -0.8505
  149SAPE  H12Y16508   6.215   2.783   8.049 -0.2990  0.7608 -1.3691
  149SAPE  C31316509   6.419   2.825   8.112 -0.2067  0.0535 -0.4817
  149SAPE  H13X16510   6.439   2.929   8.079  0.1148 -0.4773 -2.0149
  149SAPE  H13Y16511   6.515   2.770   8.121  0.0565  0.8195  2.0704
  149SAPE  C31416512   6.383   2.840   8.267 -0.3185  0.3503  0.1415
  149SAPE  H14X16513   6.344   2.746   8.312 -0.1845  0.3919  0.3493
  149SAPE  H14Y16514   6.305   2.917   8.282 -0.2764  0.7075 -1.3509
  149SAPE  C31516515   6.508   2.887   8.340 -0.4965 -0.4898  0.2330
  149SAPE  H15X16516   6.473   2.908   8.443  0.0360 -2.0857  0.7626
  149SAPE  H15Y16517   6.543   2.984   8.297  1.1882 -0.8674  0.6812
  149SAPE  C31616518   6.636   2.796   8.348  0.2470 -0.8161  0.3216
  149SAPE  H16X16519   6.673   2.793   8.243 -3.1133 -1.9398 -0.9637
  149SAPE  H16Y16520   6.616   2.692   8.381 -0.6544 -1.1219 -1.1186
  149SAPE  C31716521   6.731   2.855   8.458 -0.4870  0.3392  0.5476
  149SAPE  H17X16522   6.670   2.843   8.550  0.9052 -0.4022  1.4049
  149SAPE  H17Y16523   6.751   2.963   8.444 -0.2029  0.1736 -0.4316
  149SAPE  C31816524   6.866   2.774   8.466  0.5452 -0.6624  0.0995
  149SAPE  H18X16525   6.847   2.678   8.519 -0.5584  0.8122  2.5450
  149SAPE  H18Y16526   6.938   2.836   8.523 -0.5227  0.4197  0.3037
  149SAPE  H18Z16527   6.902   2.761   8.362  0.5870  1.3649 -0.1892
  150SAPE     N16528   0.716   1.514   6.299 -0.5500 -0.0556 -0.2719
  150SAPE   HN116529   0.666   1.506   6.390  0.0166 -1.7145 -0.0699
  150SAPE   HN216530   0.647   1.540   6.225  0.7512 -0.7138 -1.7872
  150SAPE   HN316531   0.746   1.422   6.261 -0.1294  0.5008 -1.3365
  150SAPE   C1216532   0.822   1.625   6.296 -0.4903 -0.8562 -0.6085
  150SAPE  H12A16533   0.862   1.633   6.193  0.8064 -0.3049 -0.0860
  150SAPE  H12B16534   0.900   1.583   6.364 -1.4206 -1.7026 -0.0456
  150SAPE   C1116535   0.754   1.759   6.343 -0.3369 -0.0619 -0.6697
  150SAPE  H11A16536   0.833   1.837   6.333 -0.8764  0.6167  0.1926
  150SAPE  H11B16537   0.730   1.743   6.450  1.3053  0.6865 -0.1610
  150SAPE     P16538   0.562   1.926   6.312  0.1874 -0.2595 -0.4385
  150SAPE   O1316539   0.659   2.034   6.345 -0.0967  0.4102  0.6743
  150SAPE   O1416540   0.463   1.948   6.208  0.9183  0.7758 -0.0187
  150SAPE   O1216541   0.640   1.791   6.264 -0.2305  0.1041 -0.0608
  150SAPE   O1116542   0.505   1.882   6.457 -0.2261  0.1914  0.4245
  150SAPE    C116543   0.416   1.770   6.466  0.3825  0.2690  1.2888
  150SAPE    HA16544   0.360   1.752   6.371 -0.7314  1.9809  1.5911
  150SAPE    HB16545   0.472   1.680   6.501 -0.7151 -0.4556  1.2279
  150SAPE    C216546   0.302   1.781   6.567  0.1676  0.3973  0.2802
  150SAPE    HS16547   0.244   1.875   6.558 -2.2741 -1.0956 -0.7041
  150SAPE   O2116548   0.346   1.773   6.696 -0.2664  0.1836  0.0499
  150SAPE   C2116549   0.415   1.884   6.745  0.7009  0.2513  0.8583
  150SAPE   O2216550   0.422   1.990   6.685  0.1526 -0.2391 -0.1950
  150SAPE   C2216551   0.476   1.861   6.878  0.6201 -0.1406 -0.2396
  150SAPE   H2R16552   0.442   1.765   6.924  0.2979 -0.9532 -2.0645
  150SAPE   H2S16553   0.578   1.838   6.842 -0.1303  0.6287 -3.1112
  150SAPE    C316554   0.184   1.676   6.550 -0.4498  0.1121  0.0656
  150SAPE    HX16555   0.244   1.582   6.550  0.7775  0.8545 -1.2221
  150SAPE    HY16556   0.124   1.681   6.457 -1.3350 -2.3518  0.4212
  150SAPE   O3116557   0.100   1.675   6.666  0.2067 -0.1933  0.3014
  150SAPE   C3116558   0.031   1.792   6.689  0.3731  0.1064  0.6842
  150SAPE   O3216559   0.028   1.891   6.614 -0.0241  1.0511 -0.1773
  150SAPE   C3216560  -0.045   1.790   6.820 -0.2991 -0.1601  0.7240
  150SAPE   H2X16561  -0.009   1.706   6.884  0.8363 -0.2240  0.0394
  150SAPE   H2Y16562  -0.150   1.770   6.789  0.2471 -1.1978 -0.5799
  150SAPE   C2316563   0.465   1.983   6.963 -0.0762  0.2914 -0.1758
  150SAPE   H3R16564   0.491   2.081   6.917 -1.7282  1.6168  1.5589
  150SAPE   H3S16565   0.540   1.987   7.045  0.6306  1.5824 -0.8657
  150SAPE   C2416566   0.321   2.012   7.023  0.1728 -0.1221  0.0759
  150SAPE   H4R16567   0.266   1.918   7.045 -1.4429  0.2909 -1.9213
  150SAPE   H4S16568   0.269   2.063   6.939  0.6115  0.9266  0.4236
  150SAPE   C2516569   0.334   2.112   7.139  0.4397 -0.0093 -0.3744
  150SAPE   H5R16570   0.395   2.202   7.125  2.1030 -1.1061 -0.4547
  150SAPE   C2616571   0.291   2.093   7.260  0.8690  0.8522  0.1186
  150SAPE   H6R16572   0.303   2.170   7.337  0.8178  0.6081  0.3700
  150SAPE   C2716573   0.213   1.978   7.318  0.0267  0.0306 -0.3196
  150SAPE   H7R16574   0.184   1.903   7.241 -0.5913  1.4679 -1.5397
  150SAPE   H7S16575   0.114   2.011   7.357  0.0537  1.7510 -1.5875
  150SAPE   C2816576   0.302   1.908   7.416 -0.1125 -0.0882  0.5286
  150SAPE   H8R16577   0.388   1.851   7.377 -0.1533  0.8920 -1.0775
  150SAPE   C2916578   0.295   1.931   7.550 -0.4240  0.5176 -0.2443
  150SAPE   H9R16579   0.377   1.886   7.609 -0.2080  0.9179 -0.2341
  150SAPE  C21016580   0.209   2.019   7.629 -0.4125 -0.4652  0.1671
  150SAPE  H10R16581   0.170   1.958   7.713 -1.9240  0.4951  0.2170
  150SAPE  H10S16582   0.122   2.048   7.567 -1.2385  2.6466  2.4825
  150SAPE  C21116583   0.262   2.147   7.693  0.0755  0.0389  0.3263
  150SAPE  H11R16584   0.272   2.239   7.633  0.7394  0.4962  1.1125
  150SAPE  C21216585   0.309   2.163   7.820  0.1499  0.3080 -0.8990
  150SAPE  H12R16586   0.326   2.269   7.841  1.9620 -0.1621  0.2701
  150SAPE  C21316587   0.324   2.055   7.924  0.4205 -0.5404 -0.2137
  150SAPE  H13R16588   0.383   1.969   7.885  0.7083 -0.1281 -0.7025
  150SAPE  H13S16589   0.226   2.004   7.940  0.4846 -0.5662  0.0891
  150SAPE  C21416590   0.389   2.098   8.053 -0.5279  0.0364 -1.3422
  150SAPE  H14R16591   0.466   2.176   8.050 -0.9649  0.4590 -1.7212
  150SAPE  C21516592   0.388   2.034   8.170 -0.1228 -0.6128 -0.0779
  150SAPE  H15R16593   0.433   2.086   8.256  0.6036  0.1943 -0.9223
  150SAPE  C21616594   0.320   1.902   8.202 -0.2041 -0.5030  0.5446
  150SAPE  H16R16595   0.387   1.832   8.257 -0.9470 -1.9689 -0.3390
  150SAPE  H16S16596   0.309   1.853   8.103 -0.4951  0.0571  0.2958
  150SAPE  C21716597   0.187   1.915   8.277  0.0069 -0.2023  0.7462
  150SAPE  H17R16598   0.147   1.812   8.292 -1.2247  0.2999  1.0418
  150SAPE  H17S16599   0.116   1.971   8.213 -0.6860 -1.1405  0.6753
  150SAPE  C21816600   0.198   1.979   8.419  0.5564  0.8239 -0.0421
  150SAPE  H18R16601   0.091   1.968   8.449  0.1131 -1.7872 -2.2422
  150SAPE  H18S16602   0.231   2.085   8.429 -3.4401  2.3313 -0.7687
  150SAPE  C21916603   0.285   1.899   8.518 -0.2253 -0.3305 -0.3591
  150SAPE  H19R16604   0.388   1.919   8.482  0.6716 -1.0276  1.6421
  150SAPE  H19S16605   0.264   1.791   8.505 -1.9840  0.0681 -1.0658
  150SAPE  C22016606   0.260   1.929   8.667  0.0246  0.3902  0.0966
  150SAPE  H20R16607   0.157   1.894   8.687 -0.1222  1.9911  2.6699
  150SAPE  H20S16608   0.256   2.040   8.670  1.5702  0.4518  0.6833
  150SAPE  H20T16609   0.331   1.886   8.741 -1.2056 -0.8955  0.5696
  150SAPE   C3316610  -0.031   1.927   6.887  0.1044 -0.3601 -0.4735
  150SAPE   H3X16611  -0.042   2.009   6.813  1.7678 -0.3122 -0.6928
  150SAPE   H3Y16612   0.072   1.936   6.928  0.1073  0.3559 -0.6280
  150SAPE   C3416613  -0.137   1.952   7.001  0.0838 -0.0863 -0.4560
  150SAPE   H4X16614  -0.155   1.871   7.074 -0.8151  1.5146  1.1733
  150SAPE   H4Y16615  -0.232   1.966   6.944  0.2194  1.5521 -0.3183
  150SAPE   C3516616  -0.108   2.078   7.084 -0.4431  0.6979  0.0976
  150SAPE   H5X16617  -0.097   2.163   7.014 -0.9930  0.1397 -0.6827
  150SAPE   H5Y16618  -0.017   2.067   7.148  0.2274  3.8979 -0.1142
  150SAPE   C3616619  -0.224   2.110   7.177 -0.8575 -0.3381 -0.8873
  150SAPE   H6X16620  -0.320   2.081   7.130 -0.8221 -5.9455  1.7405
  150SAPE   H6Y16621  -0.212   2.220   7.186 -0.4080 -0.2707 -2.0852
  150SAPE   C3716622  -0.212   2.037   7.311  0.2512 -0.2575 -0.6647
  150SAPE   H7X16623  -0.125   2.057   7.377 -1.7479 -0.1533  2.1150
  150SAPE   H7Y16624  -0.212   1.926   7.302  3.1339 -0.6808  2.5905
  150SAPE   C3816625  -0.325   2.089   7.401 -0.6112  0.6795 -0.9433
  150SAPE   H8X16626  -0.419   2.060   7.351 -0.6595 -0.1623 -0.3823
  150SAPE   H8Y16627  -0.312   2.198   7.420  1.8009  0.0378  1.9077
  150SAPE   C3916628  -0.325   2.017   7.541 -0.3348  0.3624  0.0342
  150SAPE   H9X16629  -0.225   2.030   7.588 -0.1041 -0.9548 -0.0440
  150SAPE   H9Y16630  -0.342   1.909   7.520 -1.2453 -0.4817  4.0890
  150SAPE  C31016631  -0.453   2.051   7.621 -0.6372  0.2336  0.1120
  150SAPE  H10X16632  -0.540   1.999   7.576 -0.9420 -1.8162  2.7986
  150SAPE  H10Y16633  -0.459   2.161   7.629  1.0032  0.6807 -3.2102
  150SAPE  C31116634  -0.437   1.989   7.761 -0.3723  0.2696 -0.3196
  150SAPE  H11X16635  -0.347   2.026   7.815 -0.2400 -0.1650 -0.2316
  150SAPE  H11Y16636  -0.416   1.882   7.737 -0.2059  0.3509 -0.5392
  150SAPE  C31216637  -0.564   1.992   7.848  0.1870 -0.0375 -0.4450
  150SAPE  H12X16638  -0.548   1.913   7.924 -0.7996  0.3379  0.1735
  150SAPE  H12Y16639  -0.659   1.961   7.800  0.8352 -2.6988 -0.1247
  150SAPE  C31316640  -0.596   2.121   7.922  0.5717  0.1039 -0.6815
  150SAPE  H13X16641  -0.657   2.190   7.860 -5.1271 -1.3301  2.5427
  150SAPE  H13Y16642  -0.502   2.173   7.947  0.6697 -1.0810  1.6583
  150SAPE  C31416643  -0.702   2.101   8.030  0.8422  0.5712  0.0607
  150SAPE  H14X16644  -0.780   2.037   7.983 -0.0775  1.4340  0.3903
  150SAPE  H14Y16645  -0.754   2.192   8.065 -1.7722 -0.3454 -1.1596
  150SAPE  C31516646  -0.654   2.023   8.153 -0.6659  0.0375 -0.5897
  150SAPE  H15X16647  -0.633   1.918   8.122 -2.1330  0.1813 -2.2597
  150SAPE  H15Y16648  -0.734   2.026   8.230 -2.6459  0.7882 -2.5480
  150SAPE  C31616649  -0.524   2.074   8.219 -0.0832  0.1362 -0.7276
  150SAPE  H16X16650  -0.444   2.061   8.143  0.6267 -1.8103  0.2686
  150SAPE  H16Y16651  -0.498   2.009   8.306 -0.2286 -0.3501 -1.0436
  150SAPE  C31716652  -0.516   2.215   8.268  0.0405  0.2722  0.5538
  150SAPE  H17X16653  -0.571   2.227   8.364  0.3136  2.2148  0.5198
  150SAPE  H17Y16654  -0.563   2.280   8.191 -0.0038 -1.7718 -1.1939
  150SAPE  C31816655  -0.367   2.256   8.294  0.1990  0.4673  0.4217
  150SAPE  H18X16656  -0.321   2.277   8.195 -0.6055  0.7169  0.0992
  150SAPE  H18Y16657  -0.320   2.158   8.319 -1.3137 -0.1592  0.9362
  150SAPE  H18Z16658  -0.344   2.328   8.375 -1.6785  2.4352 -0.7103
  151SAPE     N16659   1.820   0.505   6.276  0.0853 -0.2444  0.2940
  151SAPE   HN116660   1.924   0.510   6.275  0.4740 -4.7584 -0.8966
  151SAPE   HN216661   1.793   0.478   6.180 -0.0544  3.8148 -1.0044
  151SAPE   HN316662   1.771   0.596   6.290  3.4636  1.5650  1.9198
  151SAPE   C1216663   1.788   0.411   6.388  0.4433  0.2372 -0.7732
  151SAPE  H12A16664   1.680   0.389   6.383  0.7942 -2.0541  0.3541
  151SAPE  H12B16665   1.819   0.447   6.488 -1.6360 -1.0061  0.3876
  151SAPE   C1116666   1.865   0.281   6.368  0.5219  0.6459  0.8072
  151SAPE  H11A16667   1.820   0.209   6.439 -0.4429  0.4788  0.0423
  151SAPE  H11B16668   1.972   0.277   6.396  0.4368 -1.5292  0.9871
  151SAPE     P16669   1.705   0.169   6.181 -0.0253 -0.3480  0.3970
  151SAPE   O1316670   1.601   0.276   6.177  0.0266  0.7764  0.0689
  151SAPE   O1416671   1.730   0.107   6.050 -0.0711 -0.2613  0.4671
  151SAPE   O1216672   1.840   0.230   6.234  0.3384  0.1098 -0.0561
  151SAPE   O1116673   1.670   0.068   6.291 -0.0444  0.0166 -0.3880
  151SAPE    C116674   1.751  -0.049   6.329  0.4214 -0.4837  0.2647
  151SAPE    HA16675   1.752  -0.125   6.248 -2.1785 -2.8945  2.3180
  151SAPE    HB16676   1.853  -0.012   6.352 -0.1951  0.3352  1.7942
  151SAPE    C216677   1.675  -0.124   6.443  0.2746  0.1918  0.4097
  151SAPE    HS16678   1.581  -0.148   6.388  1.3160 -0.0164 -1.3546
  151SAPE   O2116679   1.652  -0.034   6.558 -0.1488 -0.0375 -0.0407
  151SAPE   C2116680   1.535  -0.066   6.624  0.0089  0.6300  0.5690
  151SAPE   O2216681   1.463  -0.153   6.591 -0.2531 -0.2952 -0.3198
  151SAPE   C2216682   1.505   0.026   6.737  0.1622 -0.5311  0.1991
  151SAPE   H2R16683   1.608   0.056   6.765  0.2672 -1.2497  0.6184
  151SAPE   H2S16684   1.450   0.114   6.695  0.8942  0.2963  0.9440
  151SAPE    C316685   1.746  -0.249   6.501 -0.0641 -0.3405  0.5737
  151SAPE    HX16686   1.767  -0.308   6.410  0.2176  0.7565 -0.0859
  151SAPE    HY16687   1.689  -0.323   6.562  0.6693 -0.9277  0.5530
  151SAPE   O3116688   1.875  -0.206   6.558  0.9047  0.6830 -0.0443
  151SAPE   C3116689   1.874  -0.191   6.686  0.5211  0.2648  0.0711
  151SAPE   O3216690   1.788  -0.227   6.762 -0.0430 -0.7939  0.3109
  151SAPE   C3216691   1.995  -0.120   6.737 -0.8456 -1.2303 -0.2710
  151SAPE   H2X16692   2.047  -0.056   6.663 -1.3596  2.2688  2.0836
  151SAPE   H2Y16693   2.072  -0.195   6.763  0.2205 -0.4948 -1.2314
  151SAPE   C2316694   1.438  -0.045   6.855  0.7071 -0.3724  0.2253
  151SAPE   H3R16695   1.472  -0.151   6.854  0.6432 -0.3954 -0.8879
  151SAPE   H3S16696   1.328  -0.033   6.843  0.5102  0.4720  2.4016
  151SAPE   C2416697   1.467   0.012   6.989 -0.1293 -0.6517 -0.1370
  151SAPE   H4R16698   1.573   0.006   7.023  0.1705  2.1713 -0.3667
  151SAPE   H4S16699   1.404  -0.047   7.060  1.0794 -1.4558  0.3030
  151SAPE   C2516700   1.426   0.158   6.992 -0.1832 -0.3367  0.3329
  151SAPE   H5R16701   1.491   0.221   6.931 -1.2439  0.6458  0.1845
  151SAPE   C2616702   1.328   0.215   7.063  1.0015 -0.3900  0.3758
  151SAPE   H6R16703   1.302   0.321   7.048  1.5677 -0.1088  1.3279
  151SAPE   C2716704   1.234   0.144   7.157 -0.0773  0.3764 -0.4641
  151SAPE   H7R16705   1.290   0.103   7.244 -0.7477  1.8933  0.7525
  151SAPE   H7S16706   1.188   0.061   7.101 -1.2247 -1.3057  2.7117
  151SAPE   C2816707   1.118   0.227   7.208 -0.1343 -1.0791  0.3488
  151SAPE   H8R16708   1.052   0.268   7.130 -0.1569  0.4905  1.1507
  151SAPE   C2916709   1.077   0.248   7.333  0.3710 -0.1721  0.4830
  151SAPE   H9R16710   0.984   0.302   7.358  0.4820 -0.5407  1.7950
  151SAPE  C21016711   1.151   0.201   7.464  0.8817 -0.1525 -0.0304
  151SAPE  H10R16712   1.261   0.211   7.455  0.7638 -0.5359 -2.9472
  151SAPE  H10S16713   1.138   0.091   7.457  0.3861 -0.0306 -1.2653
  151SAPE  C21116714   1.095   0.255   7.590  0.0569  0.5171  0.5452
  151SAPE  H11R16715   1.049   0.352   7.566  2.2903  1.2406 -1.2325
  151SAPE  C21216716   1.093   0.201   7.705  0.5174  0.3848  0.5922
  151SAPE  H12R16717   1.046   0.254   7.789 -2.6953 -1.6361  0.2402
  151SAPE  C21316718   1.164   0.071   7.740  0.3650  0.5525  0.1516
  151SAPE  H13R16719   1.274   0.069   7.727  0.6742  0.9700  2.3057
  151SAPE  H13S16720   1.109  -0.004   7.679 -0.8566  1.7758 -0.3130
  151SAPE  C21416721   1.138   0.038   7.889  0.0722  0.2142  0.1109
  151SAPE  H14R16722   1.088  -0.058   7.911  1.2154 -0.1498  1.1888
  151SAPE  C21516723   1.161   0.112   8.000 -0.4391  0.2338 -0.0486
  151SAPE  H15R16724   1.126   0.094   8.103  0.5163 -0.5689  0.1483
  151SAPE  C21616725   1.235   0.246   7.983  0.5147  0.0277 -0.3903
  151SAPE  H16R16726   1.184   0.318   7.917  1.0705  0.8915  0.1047
  151SAPE  H16S16727   1.343   0.238   7.957  0.6814  0.9904 -0.0257
  151SAPE  C21716728   1.248   0.318   8.122 -0.2387  0.9288  0.0347
  151SAPE  H17R16729   1.299   0.415   8.102  0.7451  0.7819  1.6720
  151SAPE  H17S16730   1.317   0.255   8.183  1.5810  1.1124 -1.7486
  151SAPE  C21816731   1.110   0.346   8.188 -0.1517 -0.2235 -0.4970
  151SAPE  H18R16732   1.071   0.257   8.242  1.0959 -0.2547  0.4024
  151SAPE  H18S16733   1.039   0.380   8.110 -3.9899  0.9778  3.1646
  151SAPE  C21916734   1.116   0.481   8.274  0.2685 -0.4625  0.3025
  151SAPE  H19R16735   1.014   0.492   8.316  0.4702 -0.0573  0.6929
  151SAPE  H19S16736   1.128   0.569   8.208 -0.3864  0.2881  1.1440
  151SAPE  C22016737   1.227   0.497   8.380  0.3758 -0.2476  0.1616
  151SAPE  H20R16738   1.325   0.500   8.327 -0.0059 -1.8323 -0.6906
  151SAPE  H20S16739   1.223   0.586   8.446 -1.1997 -1.3832  1.7033
  151SAPE  H20T16740   1.219   0.407   8.445 -2.2270 -0.2602 -0.0705
  151SAPE   C3316741   1.955  -0.030   6.856 -0.2684  0.8140  0.0975
  151SAPE   H3X16742   1.888  -0.084   6.927  1.4912 -1.4308  0.1550
  151SAPE   H3Y16743   1.889   0.059   6.841 -1.5620  0.0061  0.7980
  151SAPE   C3416744   2.081   0.018   6.936  0.6736  0.1714  0.1715
  151SAPE   H4X16745   2.161   0.034   6.860  0.1622 -2.6623 -1.1187
  151SAPE   H4Y16746   2.127  -0.064   6.995  2.0642 -0.1393 -1.2497
  151SAPE   C3516747   2.051   0.133   7.034  0.1276  0.5289 -0.0023
  151SAPE   H5X16748   1.958   0.126   7.094  0.6693  1.7750  1.0471
  151SAPE   H5Y16749   2.054   0.234   6.986 -1.6557  0.2810 -0.7155
  151SAPE   C3616750   2.167   0.135   7.136  0.5369  0.2964 -0.1944
  151SAPE   H6X16751   2.268   0.137   7.089  1.0171  2.2868  0.8186
  151SAPE   H6Y16752   2.150   0.039   7.189 -1.2487 -0.8020 -2.5883
  151SAPE   C3716753   2.154   0.251   7.235  0.0273 -0.1576  0.3705
  151SAPE   H7X16754   2.056   0.243   7.287 -1.3391  2.9936 -1.3834
  151SAPE   H7Y16755   2.150   0.351   7.187 -1.3608 -0.3662  0.0042
  151SAPE   C3816756   2.276   0.242   7.327  0.1070  0.1432 -0.4477
  151SAPE   H8X16757   2.365   0.229   7.262 -0.1331  2.0774 -1.2315
  151SAPE   H8Y16758   2.257   0.151   7.387 -3.5364 -0.4484 -2.1979
  151SAPE   C3916759   2.309   0.374   7.408  0.9206  0.1336 -0.1292
  151SAPE   H9X16760   2.220   0.400   7.470 -0.3200  0.9773 -2.1574
  151SAPE   H9Y16761   2.329   0.450   7.329 -0.4260 -0.1210 -0.7321
  151SAPE  C31016762   2.425   0.362   7.511  0.1546  0.3502  0.3036
  151SAPE  H10X16763   2.523   0.353   7.458 -0.0424  1.6830 -0.3363
  151SAPE  H10Y16764   2.416   0.274   7.578  3.0195  0.6753  1.2502
  151SAPE  C31116765   2.434   0.487   7.596 -0.2192  0.6095 -0.6372
  151SAPE  H11X16766   2.347   0.492   7.665  0.6533 -1.8398  0.7716
  151SAPE  H11Y16767   2.438   0.574   7.527 -1.6287  0.2240 -1.2325
  151SAPE  C31216768   2.570   0.489   7.684  0.7624 -0.2225  0.6705
  151SAPE  H12X16769   2.591   0.596   7.704 -1.1150 -0.2803  3.4447
  151SAPE  H12Y16770   2.647   0.438   7.622  0.8820 -0.9420  1.4011
  151SAPE  C31316771   2.557   0.433   7.824 -0.0904  0.1144 -0.5101
  151SAPE  H13X16772   2.533   0.325   7.813 -0.8894  0.1395  0.7866
  151SAPE  H13Y16773   2.466   0.467   7.877  1.5799 -0.8895  3.3372
  151SAPE  C31416774   2.672   0.468   7.912 -0.1120  0.9157  0.4039
  151SAPE  H14X16775   2.690   0.578   7.913 -0.4656  0.9859 -0.5458
  151SAPE  H14Y16776   2.760   0.412   7.874 -0.4156 -1.3765  2.8260
  151SAPE  C31516777   2.645   0.412   8.055 -0.7870  0.6772  0.1520
  151SAPE  H15X16778   2.625   0.304   8.037  0.0625  0.8156 -1.9785
  151SAPE  H15Y16779   2.559   0.456   8.111 -0.0164  1.2827  0.8855
  151SAPE  C31616780   2.770   0.424   8.141 -0.2693  1.2592  0.6195
  151SAPE  H16X16781   2.791   0.532   8.127 -0.1142  1.2729  0.9610
  151SAPE  H16Y16782   2.849   0.363   8.092 -2.2406  0.6979 -2.1146
  151SAPE  C31716783   2.758   0.385   8.286  0.3161 -0.3154 -0.2500
  151SAPE  H17X16784   2.859   0.416   8.322  0.0155 -0.8792  1.1140
  151SAPE  H17Y16785   2.745   0.275   8.296 -1.5989 -0.1541 -0.6371
  151SAPE  C31816786   2.646   0.462   8.364 -0.4603  0.3333 -0.0591
  151SAPE  H18X16787   2.672   0.483   8.470 -1.1570 -1.9196  0.6125
  151SAPE  H18Y16788   2.551   0.404   8.368 -1.1104  1.4149  1.0316
  151SAPE  H18Z16789   2.627   0.563   8.321 -0.7040  1.6011  2.7729
  152SAPE     N16790   6.106   2.771   6.106  0.0411 -0.4111  0.0379
  152SAPE   HN116791   6.192   2.792   6.162 -2.0197  0.6569  3.0326
  152SAPE   HN216792   6.127   2.676   6.068  0.0313  0.3050 -1.8609
  152SAPE   HN316793   6.112   2.841   6.029 -1.5386  0.1472  0.3880
  152SAPE   C1216794   5.989   2.744   6.188  0.0705 -0.6839  0.4274
  152SAPE  H12A16795   5.912   2.699   6.122  1.1010 -0.4350 -1.0074
  152SAPE  H12B16796   5.953   2.843   6.224 -1.0021 -0.3996 -1.3405
  152SAPE   C1116797   6.021   2.654   6.310 -0.0135 -0.0692 -0.1757
  152SAPE  H11A16798   5.927   2.611   6.351 -0.5520  1.2089 -0.0349
  152SAPE  H11B16799   6.058   2.723   6.389 -2.4285  0.7870  0.2867
  152SAPE     P16800   6.079   2.394   6.291  0.5065 -0.0848 -0.3060
  152SAPE   O1316801   5.970   2.376   6.195 -0.0061 -1.1465 -0.0212
  152SAPE   O1416802   6.205   2.327   6.263 -0.3972 -0.7332 -0.2197
  152SAPE   O1216803   6.118   2.556   6.285  0.0104  0.5345 -0.0753
  152SAPE   O1116804   6.038   2.363   6.442 -0.2091  0.3202 -0.0260
  152SAPE    C116805   6.126   2.377   6.561 -0.5472 -1.0045  0.1966
  152SAPE    HA16806   6.162   2.278   6.595  2.8555 -0.4799 -1.5035
  152SAPE    HB16807   6.215   2.439   6.539 -1.8430  0.1388 -2.2162
  152SAPE    C216808   6.049   2.441   6.677 -0.2929 -0.0678 -0.1301
  152SAPE    HS16809   6.101   2.423   6.773 -0.4374 -1.6068 -0.3059
  152SAPE   O2116810   5.907   2.408   6.685 -0.5059 -0.3508 -0.8931
  152SAPE   C2116811   5.880   2.280   6.732  0.0686 -0.0763 -0.3743
  152SAPE   O2216812   5.968   2.197   6.757  0.1671 -0.8426 -0.1802
  152SAPE   C2216813   5.734   2.275   6.769  0.1459  1.0978  0.5231
  152SAPE   H2R16814   5.689   2.366   6.725  0.6399  1.0102 -0.1843
  152SAPE   H2S16815   5.688   2.189   6.716  0.0139  0.3136  1.8486
  152SAPE    C316816   6.044   2.592   6.664 -0.8481 -0.2860  0.0428
  152SAPE    HX16817   5.957   2.618   6.600 -1.5268 -2.8283 -0.2054
  152SAPE    HY16818   6.137   2.628   6.615  0.2387 -2.0100  0.7285
  152SAPE   O3116819   6.043   2.642   6.803  0.2378 -0.4628 -0.3442
  152SAPE   C3116820   5.931   2.701   6.847  0.3090  0.3575  0.3477
  152SAPE   O3216821   5.837   2.728   6.777  0.6198  0.1121  0.2743
  152SAPE   C3216822   5.949   2.735   6.996 -0.1366  0.4633  0.5667
  152SAPE   H2X16823   5.877   2.818   7.016 -1.0178 -0.7034  2.5616
  152SAPE   H2Y16824   6.054   2.768   7.007  0.9338 -2.3260 -0.4312
  152SAPE   C2316825   5.704   2.251   6.917  0.2452  0.5317 -0.0235
  152SAPE   H3R16826   5.748   2.337   6.973 -0.3918  1.1336 -0.4217
  152SAPE   H3S16827   5.755   2.157   6.948 -1.2802 -0.4738 -0.4478
  152SAPE   C2416828   5.553   2.260   6.946 -0.2275  0.4726 -0.0398
  152SAPE   H4R16829   5.526   2.356   6.896  2.0471  0.9543 -0.4447
  152SAPE   H4S16830   5.535   2.280   7.054 -1.4589  0.4079 -0.2113
  152SAPE   C2516831   5.484   2.141   6.879 -0.1608 -0.3353  0.3366
  152SAPE   H5R16832   5.506   2.136   6.771  0.7307  0.4363  0.4661
  152SAPE   C2616833   5.393   2.060   6.933 -0.5736  0.1065 -0.4265
  152SAPE   H6R16834   5.350   1.983   6.867  0.2802  1.9448 -3.3155
  152SAPE   C2716835   5.348   2.051   7.078 -0.8288 -0.4891  0.2353
  152SAPE   H7R16836   5.431   2.090   7.141 -0.8488  0.2099 -0.1599
  152SAPE   H7S16837   5.345   1.943   7.102  3.0358 -1.5315 -2.9325
  152SAPE   C2816838   5.216   2.119   7.100  0.1688  0.2495  0.3013
  152SAPE   H8R16839   5.140   2.081   7.030 -0.3488  0.4695  0.7439
  152SAPE   C2916840   5.202   2.232   7.173 -0.0517 -0.0593  1.0027
  152SAPE   H9R16841   5.101   2.272   7.190  0.5881  1.0905  2.2359
  152SAPE  C21016842   5.310   2.310   7.245 -0.2389  0.1566 -0.3375
  152SAPE  H10R16843   5.367   2.361   7.164  1.0136 -2.0505 -0.9249
  152SAPE  H10S16844   5.387   2.241   7.287 -0.2627  0.5831  0.4321
  152SAPE  C21116845   5.263   2.403   7.356 -0.3567 -0.4330  0.3105
  152SAPE  H11R16846   5.261   2.512   7.344 -0.0859  0.2597  4.8307
  152SAPE  C21216847   5.213   2.349   7.471  0.2451 -0.3878 -0.3760
  152SAPE  H12R16848   5.163   2.410   7.548 -2.1594 -1.8478 -0.6730
  152SAPE  C21316849   5.196   2.197   7.505 -0.3398 -0.2566 -0.3421
  152SAPE  H13R16850   5.296   2.150   7.502 -0.4318 -0.6821  1.6269
  152SAPE  H13S16851   5.134   2.168   7.418  0.0132  1.6446 -1.2866
  152SAPE  C21416852   5.130   2.167   7.644  0.2186 -0.1600  0.0125
  152SAPE  H14R16853   5.029   2.210   7.645 -0.5799 -1.9383 -0.7103
  152SAPE  C21516854   5.180   2.092   7.740  0.3614 -0.6361 -0.3264
  152SAPE  H15R16855   5.122   2.080   7.833  0.2075  0.5653 -0.2540
  152SAPE  C21616856   5.314   2.026   7.745 -0.1491 -1.3062 -0.5308
  152SAPE  H16R16857   5.357   2.007   7.644 -0.9531 -4.8243 -0.3574
  152SAPE  H16S16858   5.299   1.927   7.794 -0.0655  0.3383  3.1272
  152SAPE  C21716859   5.417   2.101   7.829 -0.7472 -0.6111 -0.4338
  152SAPE  H17R16860   5.428   2.203   7.786 -0.0401 -1.2065 -1.7113
  152SAPE  H17S16861   5.512   2.047   7.811 -0.7083  0.0834 -2.5341
  152SAPE  C21816862   5.372   2.111   7.977  0.2940 -0.4566 -0.7813
  152SAPE  H18R16863   5.333   2.011   8.006  0.6783 -0.1112  1.0770
  152SAPE  H18S16864   5.284   2.179   7.973 -1.8136 -2.7649  1.7905
  152SAPE  C21916865   5.487   2.166   8.067 -0.8048  0.0035  0.3939
  152SAPE  H19R16866   5.548   2.239   8.010 -0.7283 -0.6758 -0.4080
  152SAPE  H19S16867   5.558   2.086   8.094  0.1438  0.7965  0.3024
  152SAPE  C22016868   5.440   2.240   8.193  0.0112  0.3930 -0.7962
  152SAPE  H20R16869   5.398   2.341   8.178  1.1443  1.0655  0.3908
  152SAPE  H20S16870   5.527   2.258   8.260 -0.8902 -0.3288  0.6077
  152SAPE  H20T16871   5.376   2.168   8.248 -0.1909 -1.5212 -3.3376
  152SAPE   C3316872   5.917   2.625   7.095  0.3725 -0.4337 -0.8588
  152SAPE   H3X16873   5.946   2.649   7.200  2.9893 -0.3258 -1.5367
  152SAPE   H3Y16874   5.973   2.536   7.058 -0.3700 -0.4652 -1.9388
  152SAPE   C3416875   5.766   2.590   7.089 -0.7337  0.2809  0.1641
  152SAPE   H4X16876   5.753   2.548   6.987  0.7809  2.0092 -0.7984
  152SAPE   H4Y16877   5.717   2.690   7.089  0.9197  1.1524 -1.5839
  152SAPE   C3516878   5.713   2.505   7.204 -0.2252 -0.1914 -0.7446
  152SAPE   H5X16879   5.786   2.426   7.230  0.4732  1.0568  1.2984
  152SAPE   H5Y16880   5.622   2.459   7.159 -0.7643 -0.1656  0.2901
  152SAPE   C3616881   5.698   2.584   7.335 -0.1666  1.0230  0.2780
  152SAPE   H6X16882   5.640   2.675   7.309 -0.9404  1.1497  2.2522
  152SAPE   H6Y16883   5.799   2.611   7.373  0.5511 -0.9354 -0.0986
  152SAPE   C3716884   5.603   2.509   7.430 -0.0274 -0.7307 -0.4874
  152SAPE   H7X16885   5.631   2.402   7.442 -1.2964 -1.1806 -1.3755
  152SAPE   H7Y16886   5.496   2.507   7.400 -0.2716  0.8514  0.1754
  152SAPE   C3816887   5.613   2.583   7.567  0.4382 -0.5909  0.3912
  152SAPE   H8X16888   5.590   2.690   7.548  3.7055  0.2858  0.7339
  152SAPE   H8Y16889   5.717   2.598   7.603 -0.6716  0.5251  3.4242
  152SAPE   C3916890   5.523   2.528   7.682  0.5067 -0.1669 -0.3856
  152SAPE   H9X16891   5.591   2.489   7.761 -1.1068  0.2673  1.2962
  152SAPE   H9Y16892   5.470   2.439   7.643  1.2613  0.5208 -3.1780
  152SAPE  C31016893   5.427   2.627   7.749  0.3794 -0.3249 -0.4635
  152SAPE  H10X16894   5.330   2.593   7.706 -0.1506 -0.4911  0.8316
  152SAPE  H10Y16895   5.449   2.735   7.746 -2.7113  0.4485  0.9076
  152SAPE  C31116896   5.393   2.602   7.897 -0.1089  0.2037  0.1090
  152SAPE  H11X16897   5.479   2.625   7.964  1.3028  2.8194 -2.3941
  152SAPE  H11Y16898   5.356   2.498   7.908 -2.6900  0.6354 -3.0806
  152SAPE  C31216899   5.278   2.673   7.964 -0.2574 -1.1859  0.4414
  152SAPE  H12X16900   5.185   2.656   7.905  0.5577 -0.0735 -1.2332
  152SAPE  H12Y16901   5.292   2.781   7.942  0.6744 -1.0742  1.5290
  152SAPE  C31316902   5.270   2.636   8.112  0.3778  0.4317 -0.2203
  152SAPE  H13X16903   5.355   2.669   8.175  0.7705 -0.2140 -0.4023
  152SAPE  H13Y16904   5.268   2.525   8.118 -1.4525  0.5194  1.5641
  152SAPE  C31416905   5.148   2.692   8.183 -0.4727 -0.6641 -0.1437
  152SAPE  H14X16906   5.056   2.636   8.156 -0.8261  0.1335 -0.6419
  152SAPE  H14Y16907   5.148   2.798   8.149  3.7103 -0.4380  0.0085
  152SAPE  C31516908   5.155   2.686   8.338  0.3523  0.4923 -0.1691
  152SAPE  H15X16909   5.242   2.739   8.382 -1.0704  0.2602  3.1801
  152SAPE  H15Y16910   5.167   2.579   8.366  0.4321 -0.1317 -2.3991
  152SAPE  C31616911   5.037   2.756   8.404  0.1896 -0.2118  0.1342
  152SAPE  H16X16912   4.945   2.719   8.353  0.7039  0.7109 -1.5336
  152SAPE  H16Y16913   5.032   2.866   8.390 -1.4738 -0.1669  0.8786
  152SAPE  C31716914   5.030   2.731   8.551  0.0055  0.1848  0.0827
  152SAPE  H17X16915   5.117   2.783   8.596  1.2368 -0.3983 -1.5323
  152SAPE  H17Y16916   5.036   2.624   8.579  3.9725  0.6035  1.5466
  152SAPE  C31816917   4.911   2.804   8.624  0.5953  0.3415  0.3364
  152SAPE  H18X16918   4.911   2.910   8.591  2.2878  0.5962  1.0585
  152SAPE  H18Y16919   4.935   2.809   8.733 -1.6033  0.1600  0.8719
  152SAPE  H18Z16920   4.814   2.751   8.620  0.7427 -0.2049  2.4734
  153SAPE     N16921   2.285   3.240   6.090 -0.0768  0.0870  0.2353
  153SAPE   HN116922   2.355   3.166   6.070  0.8667  0.9626  0.2032
  153SAPE   HN216923   2.199   3.189   6.118  1.4654 -2.7514  0.2573
  153SAPE   HN316924   2.275   3.307   6.012  0.6740  0.6656  0.6170
  153SAPE   C1216925   2.349   3.312   6.205  0.1693 -0.4262 -0.1476
  153SAPE  H12A16926   2.436   3.369   6.167 -0.0198  0.1651  0.3028
  153SAPE  H12B16927   2.380   3.229   6.273  0.0618  0.1283  0.5895
  153SAPE   C1116928   2.256   3.418   6.271 -0.4164  0.2126  0.0421
  153SAPE  H11A16929   2.302   3.459   6.364  0.8265  0.6110 -0.7229
  153SAPE  H11B16930   2.164   3.363   6.300  0.2327 -0.5669  0.6332
  153SAPE     P16931   2.239   3.667   6.201  0.0275  0.1810  0.3325
  153SAPE   O1316932   2.382   3.700   6.220 -0.7231  0.4428 -0.7603
  153SAPE   O1416933   2.164   3.748   6.105  0.3948 -0.5532 -0.3144
  153SAPE   O1216934   2.217   3.518   6.175  0.1229 -0.1188  0.7416
  153SAPE   O1116935   2.158   3.688   6.333  0.1759  0.7209 -0.5329
  153SAPE    C116936   2.214   3.761   6.441  0.0884  0.3589  1.1832
  153SAPE    HA16937   2.312   3.715   6.469 -0.1686 -1.6711 -0.9614
  153SAPE    HB16938   2.230   3.868   6.414  1.1926  0.0948  0.7178
  153SAPE    C216939   2.118   3.776   6.565  0.5996 -0.8394  0.3735
  153SAPE    HS16940   2.035   3.846   6.540  0.7659 -1.2034 -1.3930
  153SAPE   O2116941   2.202   3.819   6.674 -0.0778 -0.5971 -0.5253
  153SAPE   C2116942   2.235   3.950   6.669  0.5385  0.8365  0.0257
  153SAPE   O2216943   2.183   4.033   6.601  0.1868 -0.5773 -0.2443
  153SAPE   C2216944   2.337   3.973   6.774 -0.2244 -0.4391 -0.4071
  153SAPE   H2R16945   2.295   4.042   6.850 -1.2521 -0.9000 -0.5293
  153SAPE   H2S16946   2.365   3.878   6.826  1.2320  0.1288 -0.1232
  153SAPE    C316947   2.056   3.640   6.601 -0.2682 -0.0255 -0.1506
  153SAPE    HX16948   2.147   3.582   6.627  0.9667  1.6529 -0.5764
  153SAPE    HY16949   2.004   3.599   6.512 -1.2390  1.2899 -0.2243
  153SAPE   O3116950   1.970   3.656   6.712  0.9364  0.9808 -0.3424
  153SAPE   C3116951   1.907   3.541   6.752 -0.1623 -0.4857 -0.8332
  153SAPE   O3216952   1.919   3.432   6.699  0.0440 -0.1924 -0.5370
  153SAPE   C3216953   1.819   3.566   6.877  0.6575 -0.5552  0.2748
  153SAPE   H2X16954   1.727   3.509   6.852 -1.8919  3.8948 -1.4602
  153SAPE   H2Y16955   1.795   3.674   6.881  1.1790 -0.3589 -1.4108
  153SAPE   C2316956   2.469   4.045   6.725 -0.2384  0.1374  0.4070
  153SAPE   H3R16957   2.500   3.999   6.628  2.3591  1.9049  0.3036
  153SAPE   H3S16958   2.547   4.030   6.802 -1.3059 -1.1621  1.2870
  153SAPE   C2416959   2.444   4.191   6.701 -0.0834  0.1265  0.4553
  153SAPE   H4R16960   2.367   4.204   6.622 -0.9249  0.8675  1.3646
  153SAPE   H4S16961   2.535   4.240   6.659 -0.0157 -0.3137  0.0894
  153SAPE   C2516962   2.401   4.275   6.819 -0.1964  1.2977  0.2376
  153SAPE   H5R16963   2.470   4.279   6.904 -2.4573 -0.3557  2.3078
  153SAPE   C2616964   2.287   4.356   6.811  0.1729 -0.7959 -0.0430
  153SAPE   H6R16965   2.248   4.406   6.901  0.4031 -0.4896 -0.1099
  153SAPE   C2716966   2.189   4.378   6.697 -0.6022  0.2844 -0.0693
  153SAPE   H7R16967   2.088   4.400   6.739 -0.7889  1.1353 -0.9347
  153SAPE   H7S16968   2.179   4.284   6.639 -0.1983 -0.1617  0.5748
  153SAPE   C2816969   2.250   4.485   6.610  0.9553  0.0935 -0.5582
  153SAPE   H8R16970   2.353   4.472   6.575  0.8268 -0.0967 -0.8681
  153SAPE   C2916971   2.183   4.592   6.571  0.1607 -0.5284  1.5571
  153SAPE   H9R16972   2.237   4.663   6.507  0.3093 -1.4562  0.6159
  153SAPE  C21016973   2.040   4.630   6.602  0.2288  0.9529 -0.0846
  153SAPE  H10R16974   2.025   4.589   6.704 -0.4949 -1.6264 -1.1330
  153SAPE  H10S16975   1.972   4.568   6.539  0.6423  0.4255 -0.0217
  153SAPE  C21116976   2.004   4.774   6.588 -1.1880 -0.1326 -0.3543
  153SAPE  H11R16977   2.030   4.802   6.484  0.0795 -1.0818 -0.3134
  153SAPE  C21216978   1.950   4.857   6.676  0.2285 -0.0229  0.9992
  153SAPE  H12R16979   1.950   4.965   6.655  1.1637 -0.4606 -1.6524
  153SAPE  C21316980   1.906   4.823   6.815  0.0727  0.3886  1.1079
  153SAPE  H13R16981   1.967   4.894   6.874  2.6331  0.6050 -1.5591
  153SAPE  H13S16982   1.951   4.727   6.849 -0.9299 -0.0532  1.2505
  153SAPE  C21416983   1.757   4.827   6.827  0.1253  0.0102  0.1087
  153SAPE  H14R16984   1.712   4.783   6.737  0.5456  1.1492 -0.6834
  153SAPE  C21516985   1.685   4.889   6.925 -0.4907  1.5959  0.6441
  153SAPE  H15R16986   1.576   4.881   6.909 -0.6090 -0.0619  1.9112
  153SAPE  C21616987   1.742   4.960   7.049  0.0926  0.2058  0.5257
  153SAPE  H16R16988   1.667   5.034   7.085 -0.3748  0.1165 -0.2359
  153SAPE  H16S16989   1.840   5.009   7.031  0.1705 -0.2905 -0.5048
  153SAPE  C21716990   1.772   4.870   7.170  0.1634  0.3112  0.2874
  153SAPE  H17R16991   1.821   4.777   7.134  1.6572  0.8584  0.8214
  153SAPE  H17S16992   1.672   4.841   7.209 -0.1607 -0.7863 -1.2507
  153SAPE  C21816993   1.843   4.929   7.296  0.1599 -0.2669  0.4494
  153SAPE  H18R16994   1.777   5.012   7.332 -0.6970 -1.9875  3.1400
  153SAPE  H18S16995   1.945   4.969   7.276 -0.8484  1.2848 -1.9330
  153SAPE  C21916996   1.850   4.826   7.415 -0.6720  0.7871 -0.2159
  153SAPE  H19R16997   1.922   4.750   7.378 -0.4960  0.8931 -0.0954
  153SAPE  H19S16998   1.757   4.771   7.441 -0.6975  0.7048 -0.4779
  153SAPE  C22016999   1.897   4.887   7.548  0.6637 -0.1267  0.2970
  153SAPE  H20R17000   1.918   4.814   7.629 -0.2919 -0.8196 -0.0483
  153SAPE  H20S17001   1.819   4.957   7.583  0.6320  0.5403 -1.0618
  153SAPE  H20T17002   1.991   4.940   7.521 -0.4246  1.6652 -0.1370
  153SAPE   C3317003   1.887   3.510   7.009  0.7306 -0.5285 -0.2540
  153SAPE   H3X17004   1.886   3.399   7.012  0.6214 -0.5157  0.9246
  153SAPE   H3Y17005   1.828   3.540   7.098  0.5838  0.7031 -0.7516
  153SAPE   C3417006   2.030   3.560   7.029 -0.0307  0.3190  0.2696
  153SAPE   H4X17007   2.032   3.670   7.010 -1.7813  0.3355 -0.0005
  153SAPE   H4Y17008   2.091   3.519   6.946  0.2096  0.9326  0.1378
  153SAPE   C3517009   2.089   3.505   7.164  0.0045  0.5247  0.1075
  153SAPE   H5X17010   2.200   3.502   7.168 -0.0189 -0.1951  0.3939
  153SAPE   H5Y17011   2.054   3.401   7.180  0.3025  0.4007 -0.0361
  153SAPE   C3617012   2.048   3.598   7.279 -0.3452  0.0143 -0.7991
  153SAPE   H6X17013   1.942   3.627   7.258 -0.2072  0.3663 -1.0123
  153SAPE   H6Y17014   2.107   3.692   7.279  3.4633 -2.1599  0.3291
  153SAPE   C3717015   2.065   3.533   7.412 -0.4418 -0.4355  0.0058
  153SAPE   H7X17016   2.167   3.488   7.417  0.7726  2.1348 -0.2726
  153SAPE   H7Y17017   1.993   3.449   7.423  0.5646 -1.0827  2.2524
  153SAPE   C3817018   2.060   3.626   7.535  0.2370  0.4614 -0.0279
  153SAPE   H8X17019   2.052   3.571   7.632  2.3334  0.1352  0.0274
  153SAPE   H8Y17020   1.964   3.681   7.525 -0.0518 -0.1635 -0.7673
  153SAPE   C3917021   2.168   3.740   7.535  0.2723  0.9253 -0.0220
  153SAPE   H9X17022   2.144   3.810   7.452 -0.9065 -0.0160 -0.4910
  153SAPE   H9Y17023   2.271   3.699   7.528  0.3019  0.8440  0.7915
  153SAPE  C31017024   2.170   3.830   7.657  0.0213  0.8630  0.3724
  153SAPE  H10X17025   2.180   3.761   7.744 -0.2169  0.1076 -0.1941
  153SAPE  H10Y17026   2.070   3.880   7.659  0.3241  1.5530 -0.9697
  153SAPE  C31117027   2.285   3.929   7.656  0.0989 -0.6604 -0.7288
  153SAPE  H11X17028   2.265   3.992   7.567 -2.8280 -1.5148 -0.7763
  153SAPE  H11Y17029   2.383   3.878   7.642  0.0489 -1.3070  0.9740
  153SAPE  C31217030   2.283   4.028   7.776  0.1076  0.4663 -0.8008
  153SAPE  H12X17031   2.185   4.078   7.788 -0.5418 -1.2681  2.3313
  153SAPE  H12Y17032   2.370   4.097   7.762 -0.0103  0.5170 -1.3176
  153SAPE  C31317033   2.302   3.952   7.906 -0.0878 -0.7230 -0.0661
  153SAPE  H13X17034   2.397   3.894   7.895  0.5358  0.1836  0.4221
  153SAPE  H13Y17035   2.220   3.881   7.927  0.6536 -1.4247  0.5393
  153SAPE  C31417036   2.330   4.041   8.022 -0.2404  0.2355  0.0311
  153SAPE  H14X17037   2.250   4.116   8.043  0.9635  1.6640 -0.3253
  153SAPE  H14Y17038   2.415   4.109   8.002 -0.2654  0.2822  0.0798
  153SAPE  C31517039   2.352   3.952   8.144  0.2478 -0.1567  0.2528
  153SAPE  H15X17040   2.423   3.879   8.100  2.8290  2.1365  0.4073
  153SAPE  H15Y17041   2.254   3.908   8.172 -0.0233 -0.3440 -0.9196
  153SAPE  C31617042   2.432   4.009   8.263  0.0068 -0.1378  0.4505
  153SAPE  H16X17043   2.537   4.014   8.227  0.5428 -0.6599  1.8512
  153SAPE  H16Y17044   2.429   3.930   8.341 -0.5977  1.2098  1.8354
  153SAPE  C31717045   2.368   4.130   8.324  0.2205 -0.1327 -0.0750
  153SAPE  H17X17046   2.265   4.109   8.361 -0.5395  1.1576 -1.3710
  153SAPE  H17Y17047   2.369   4.209   8.246 -1.9097 -1.9426 -2.1166
  153SAPE  C31817048   2.453   4.157   8.453 -0.0655  0.0488  0.6559
  153SAPE  H18X17049   2.449   4.079   8.531  0.3400 -0.9261 -0.2686
  153SAPE  H18Y17050   2.420   4.247   8.509  1.2241  0.5474  0.6509
  153SAPE  H18Z17051   2.559   4.173   8.423 -0.5194  0.7760 -0.6581
  154SAPE     N17052   0.489   3.107   5.980  0.4416  0.1202 -0.6953
  154SAPE   HN117053   0.462   3.089   5.881 -1.3010  1.7042 -0.5884
  154SAPE   HN217054   0.572   3.054   6.011  0.7119  1.3263  0.7549
  154SAPE   HN317055   0.407   3.080   6.039  1.3835 -1.0505  0.1119
  154SAPE   C1217056   0.534   3.252   5.989 -0.3334 -0.1323  0.3869
  154SAPE  H12A17057   0.452   3.312   5.944 -1.0379 -0.5908  1.0190
  154SAPE  H12B17058   0.627   3.256   5.928  0.9325 -1.0076  2.1778
  154SAPE   C1117059   0.553   3.288   6.138 -0.3960 -0.2438  0.2712
  154SAPE  H11A17060   0.641   3.241   6.188  1.1938  0.8695 -1.3328
  154SAPE  H11B17061   0.464   3.252   6.192  1.0375 -0.3474  2.7289
  154SAPE     P17062   0.480   3.533   6.208  0.0855 -0.2004  0.2446
  154SAPE   O1317063   0.532   3.670   6.200  0.5045  0.2603 -0.0992
  154SAPE   O1417064   0.350   3.502   6.140 -0.4671  0.4598  0.0259
  154SAPE   O1217065   0.583   3.431   6.145 -0.2284 -0.0431 -0.2783
  154SAPE   O1117066   0.469   3.494   6.355  0.2789  0.2610  0.2718
  154SAPE    C117067   0.577   3.464   6.444  0.7048 -0.2439  0.4293
  154SAPE    HA17068   0.592   3.354   6.455  1.3350 -0.2989 -0.8225
  154SAPE    HB17069   0.675   3.504   6.411  0.3553 -0.0431 -0.3734
  154SAPE    C217070   0.548   3.530   6.582 -0.3721  0.4512  0.2677
  154SAPE    HS17071   0.518   3.634   6.556 -0.5639  0.1563 -0.7535
  154SAPE   O2117072   0.660   3.512   6.677 -0.0546 -0.2346 -0.0044
  154SAPE   C2117073   0.740   3.620   6.682 -0.3846 -0.3856 -0.7504
  154SAPE   O2217074   0.735   3.719   6.615 -0.3709  0.1787  0.0619
  154SAPE   C2217075   0.853   3.588   6.788  0.1222  0.2415 -0.0999
  154SAPE   H2R17076   0.893   3.489   6.757 -0.6659 -0.1300  0.0429
  154SAPE   H2S17077   0.942   3.654   6.788 -1.3586  2.3770  1.3609
  154SAPE    C317078   0.415   3.474   6.648  0.3978  0.3852  0.2811
  154SAPE    HX17079   0.445   3.369   6.666  0.0564  0.1268 -0.6041
  154SAPE    HY17080   0.333   3.465   6.574 -0.1397  1.3008  0.7449
  154SAPE   O3117081   0.375   3.548   6.770 -0.7624  0.1031  0.0487
  154SAPE   C3117082   0.336   3.671   6.737  0.3148 -0.1434  0.0061
  154SAPE   O3217083   0.318   3.720   6.629  0.5693 -0.0853  0.1880
  154SAPE   C3217084   0.279   3.738   6.856 -0.7002 -0.2656 -0.4965
  154SAPE   H2X17085   0.203   3.672   6.904 -0.0736  1.2682  2.8226
  154SAPE   H2Y17086   0.222   3.827   6.822  1.0935  0.8543 -0.6992
  154SAPE   C2317087   0.803   3.586   6.936 -0.8537  0.4062 -1.1306
  154SAPE   H3R17088   0.735   3.499   6.941 -0.6849  0.2310 -1.7349
  154SAPE   H3S17089   0.730   3.665   6.964 -1.1613  0.2980 -1.6168
  154SAPE   C2417090   0.918   3.564   7.039 -0.0929  0.3449 -0.4553
  154SAPE   H4R17091   0.987   3.649   7.024 -1.3988  1.6574  0.7423
  154SAPE   H4S17092   0.981   3.475   7.017 -0.7687 -0.0151 -0.9983
  154SAPE   C2517093   0.855   3.562   7.178 -0.1758  0.0146 -0.2200
  154SAPE   H5R17094   0.796   3.470   7.191 -1.1381  0.5622 -0.6557
  154SAPE   C2617095   0.865   3.650   7.278  0.3575 -0.4241  0.3221
  154SAPE   H6R17096   0.808   3.622   7.368 -3.0511 -0.3015 -1.5948
  154SAPE   C2717097   0.942   3.776   7.285 -0.3229  0.1543  0.7001
  154SAPE   H7R17098   1.050   3.757   7.265 -0.9909 -1.4831 -1.9248
  154SAPE   H7S17099   0.928   3.822   7.385  0.0332  1.7776  0.0219
  154SAPE   C2817100   0.889   3.877   7.188  0.3383 -1.1521  0.4671
  154SAPE   H8R17101   0.869   3.845   7.085  3.1042  0.5011 -0.6695
  154SAPE   C2917102   0.854   4.004   7.217 -0.1895 -0.0719  0.3271
  154SAPE   H9R17103   0.803   4.059   7.136  0.4489  0.2958  0.1727
  154SAPE  C21017104   0.864   4.079   7.348 -0.4233  0.0436 -0.1846
  154SAPE  H10R17105   0.938   4.025   7.410  2.1197 -1.0310 -3.8485
  154SAPE  H10S17106   0.761   4.085   7.391  0.3095  0.1377  1.6489
  154SAPE  C21117107   0.912   4.218   7.340 -0.2861 -0.1960 -1.0363
  154SAPE  H11R17108   0.941   4.266   7.246 -4.1432  1.2783 -1.6502
  154SAPE  C21217109   0.925   4.295   7.451 -0.0671  0.1209  0.1128
  154SAPE  H12R17110   0.974   4.393   7.445  0.2752 -0.0910 -0.6916
  154SAPE  C21317111   0.901   4.253   7.597  0.1775 -0.3662  0.0416
  154SAPE  H13R17112   0.990   4.195   7.632 -1.4520 -2.8350  0.3319
  154SAPE  H13S17113   0.813   4.186   7.603 -1.0028  0.7692 -3.0281
  154SAPE  C21417114   0.884   4.372   7.690  0.3249 -0.1005 -0.7986
  154SAPE  H14R17115   0.777   4.394   7.705  0.4962  0.6837 -0.6620
  154SAPE  C21517116   0.977   4.441   7.757 -0.0646  0.2171  0.0498
  154SAPE  H15R17117   0.949   4.534   7.809 -0.2530 -1.0204  2.3184
  154SAPE  C21617118   1.126   4.425   7.766 -0.3191 -0.2731  0.8094
  154SAPE  H16R17119   1.171   4.524   7.742 -3.1474  1.0070  0.4910
  154SAPE  H16S17120   1.164   4.351   7.692  2.0875 -0.0306  1.6932
  154SAPE  C21717121   1.192   4.391   7.903 -0.4995  0.2528 -0.0611
  154SAPE  H17R17122   1.110   4.337   7.955 -1.2062 -1.6854 -2.9024
  154SAPE  H17S17123   1.218   4.482   7.961  0.2344 -0.0590  0.1028
  154SAPE  C21817124   1.324   4.306   7.886  0.1135  0.7528  0.5352
  154SAPE  H18R17125   1.367   4.304   7.988  1.8301 -1.0338 -0.1549
  154SAPE  H18S17126   1.395   4.361   7.821 -0.0720  1.0287  0.5657
  154SAPE  C21917127   1.302   4.161   7.859 -0.1333 -0.1945  0.3476
  154SAPE  H19R17128   1.273   4.159   7.751 -0.5090  0.2035  0.4400
  154SAPE  H19S17129   1.227   4.115   7.926 -0.1003  1.3981  1.5284
  154SAPE  C22017130   1.435   4.088   7.872 -0.1960 -0.3183  0.1297
  154SAPE  H20R17131   1.500   4.131   7.792 -1.4997  1.4104 -0.0658
  154SAPE  H20S17132   1.428   3.977   7.872  1.5309 -0.4609  1.3705
  154SAPE  H20T17133   1.485   4.113   7.968 -0.0274 -2.3384  0.6052
  154SAPE   C3317134   0.375   3.784   6.969  0.5917  0.3983  0.3342
  154SAPE   H3X17135   0.449   3.859   6.935  0.8679 -0.6373 -1.5041
  154SAPE   H3Y17136   0.427   3.691   6.999 -0.0935 -0.0357  0.2223
  154SAPE   C3417137   0.301   3.833   7.092 -0.4060 -0.4101  0.3016
  154SAPE   H4X17138   0.234   3.754   7.132 -0.2362  0.4848  2.5151
  154SAPE   H4Y17139   0.235   3.918   7.064  1.8222  1.8625  1.5680
  154SAPE   C3517140   0.406   3.883   7.190  0.1262 -0.2990 -0.1174
  154SAPE   H5X17141   0.479   3.955   7.146 -0.9408  1.0551  0.2354
  154SAPE   H5Y17142   0.461   3.792   7.222 -1.1068 -1.4512 -1.1684
  154SAPE   C3617143   0.349   3.944   7.318  0.9302 -0.2622 -0.4758
  154SAPE   H6X17144   0.275   3.875   7.364  1.3764 -0.3688  0.0859
  154SAPE   H6Y17145   0.304   4.041   7.287 -1.5479 -2.2192 -3.8134
  154SAPE   C3717146   0.456   3.945   7.431  0.1396 -0.3512 -0.2474
  154SAPE   H7X17147   0.538   4.010   7.394  0.6288 -0.5158  0.5184
  154SAPE   H7Y17148   0.498   3.842   7.435  2.8026  0.6476 -0.3564
  154SAPE   C3817149   0.409   3.987   7.573  0.5269  0.2207  0.4738
  154SAPE   H8X17150   0.334   3.912   7.606  0.6154 -1.0000 -1.8990
  154SAPE   H8Y17151   0.362   4.087   7.563 -0.2546 -0.3194 -2.0007
  154SAPE   C3917152   0.525   3.999   7.668 -0.1288 -0.4068 -0.3221
  154SAPE   H9X17153   0.571   4.100   7.663 -1.2620  0.0634 -2.4628
  154SAPE   H9Y17154   0.606   3.927   7.642 -1.5819 -2.4444  0.4978
  154SAPE  C31017155   0.482   3.987   7.815  0.1593 -0.2560  0.1513
  154SAPE  H10X17156   0.447   3.886   7.847  0.2680 -0.2291  0.3544
  154SAPE  H10Y17157   0.388   4.046   7.822 -0.4044 -1.2345  1.2183
  154SAPE  C31117158   0.586   4.034   7.920 -0.6094  0.1416 -0.2088
  154SAPE  H11X17159   0.530   4.047   8.016  1.5520  1.1279  1.0012
  154SAPE  H11Y17160   0.610   4.137   7.884  0.5741  0.0025  0.1159
  154SAPE  C31217161   0.714   3.958   7.929 -0.9827 -0.0689 -0.5830
  154SAPE  H12X17162   0.779   3.973   7.840  1.2966  0.2207  1.0668
  154SAPE  H12Y17163   0.700   3.849   7.946  0.2905 -0.2726 -0.7387
  154SAPE  C31317164   0.804   4.020   8.035  0.3959  0.3066 -0.3871
  154SAPE  H13X17165   0.739   4.050   8.120  0.4758 -1.2127  0.2390
  154SAPE  H13Y17166   0.850   4.108   7.985  1.6613 -0.9909 -1.6248
  154SAPE  C31417167   0.919   3.926   8.087 -0.0191 -0.8436 -0.0260
  154SAPE  H14X17168   0.978   3.884   8.004 -0.8263  0.9963 -1.6096
  154SAPE  H14Y17169   0.887   3.847   8.159 -0.8796 -0.4964 -0.0115
  154SAPE  C31517170   1.005   4.015   8.174 -0.0266 -0.1060 -0.0188
  154SAPE  H15X17171   0.942   4.065   8.251 -1.3944  0.8414 -1.6892
  154SAPE  H15Y17172   1.063   4.090   8.116 -0.4183  2.5046  2.7079
  154SAPE  C31617173   1.111   3.933   8.251  0.2212 -0.6117  0.0229
  154SAPE  H16X17174   1.183   3.900   8.173  0.9107  2.4318 -0.7630
  154SAPE  H16Y17175   1.072   3.838   8.293  1.7762 -1.2018  0.1684
  154SAPE  C31717176   1.185   4.008   8.363  0.3915  0.2775 -0.5392
  154SAPE  H17X17177   1.107   4.053   8.427 -0.2987 -0.2407 -0.9967
  154SAPE  H17Y17178   1.245   4.083   8.308  0.2011  0.5346 -0.3954
  154SAPE  C31817179   1.278   3.938   8.454  0.7724  0.5106 -0.4152
  154SAPE  H18X17180   1.230   3.847   8.496  3.2711 -0.1752  1.1858
  154SAPE  H18Y17181   1.286   3.996   8.549  0.1767  1.4537 -0.9284
  154SAPE  H18Z17182   1.383   3.911   8.428  0.4857 -0.6840 -0.3959
  155SAPE     N17183   5.077   3.902   6.432 -0.1933 -0.5314  0.0662
  155SAPE   HN117184   5.052   3.993   6.476  3.7650  0.5236  0.5197
  155SAPE   HN217185   5.121   3.915   6.338 -1.8338  0.9840 -0.5478
  155SAPE   HN317186   4.989   3.850   6.417 -1.4685  1.4442  0.2679
  155SAPE   C1217187   5.166   3.822   6.524  0.7197  0.1123 -0.5975
  155SAPE  H12A17188   5.180   3.722   6.477 -2.4591 -0.6100 -0.2744
  155SAPE  H12B17189   5.118   3.808   6.624  1.2465 -0.3210 -0.4016
  155SAPE   C1117190   5.308   3.879   6.554 -0.1234 -0.1583 -0.5470
  155SAPE  H11A17191   5.366   3.812   6.620  0.2996  1.0771  0.3616
  155SAPE  H11B17192   5.294   3.976   6.606 -0.7479 -0.2350 -0.5593
  155SAPE     P17193   5.513   3.991   6.426 -0.2959 -0.3126 -0.2077
  155SAPE   O1317194   5.629   3.904   6.384 -0.0708 -0.3847  0.7128
  155SAPE   O1417195   5.482   4.106   6.338  0.3618  0.0132 -0.0087
  155SAPE   O1217196   5.381   3.899   6.433 -0.0613 -0.0896  0.3398
  155SAPE   O1117197   5.545   4.034   6.575  0.3490  0.2702 -0.3676
  155SAPE    C117198   5.526   4.165   6.618  0.1299  0.0108  0.2492
  155SAPE    HA17199   5.551   4.244   6.543 -1.0467  0.0183 -0.1587
  155SAPE    HB17200   5.417   4.176   6.635  0.5087  1.7388  1.9707
  155SAPE    C217201   5.608   4.201   6.746 -0.8469 -0.1615  0.7419
  155SAPE    HS17202   5.717   4.196   6.724 -0.4888  0.0252  2.3542
  155SAPE   O2117203   5.581   4.118   6.858 -0.1391 -0.1324  0.3639
  155SAPE   C2117204   5.639   3.998   6.858  0.1987  0.3629  0.3632
  155SAPE   O2217205   5.741   3.971   6.801  0.0317 -0.6702 -0.9802
  155SAPE   C2217206   5.572   3.898   6.961  0.2756  0.0727  0.4301
  155SAPE   H2R17207   5.611   3.924   7.062 -1.0800  0.0801  0.9696
  155SAPE   H2S17208   5.468   3.935   6.965  0.9543  2.2838 -0.7369
  155SAPE    C317209   5.572   4.344   6.786 -0.2308 -0.7466 -0.6059
  155SAPE    HX17210   5.470   4.346   6.830 -0.1819 -0.6183 -0.4984
  155SAPE    HY17211   5.570   4.412   6.698 -0.3727  0.5385  0.3592
  155SAPE   O3117212   5.671   4.395   6.875  0.3440 -0.1887 -0.2862
  155SAPE   C3117213   5.655   4.525   6.902  0.2094  0.0557 -0.2800
  155SAPE   O3217214   5.584   4.601   6.841 -0.0136 -0.1082  0.2784
  155SAPE   C3217215   5.746   4.567   7.014 -0.1947  0.0510  0.5820
  155SAPE   H2X17216   5.850   4.540   6.985 -0.1858  1.7643 -1.1714
  155SAPE   H2Y17217   5.729   4.510   7.108  3.2063  0.1578  1.4198
  155SAPE   C2317218   5.575   3.750   6.928 -0.4184 -0.4004 -0.2969
  155SAPE   H3R17219   5.557   3.745   6.818 -2.4902 -2.4748  0.0579
  155SAPE   H3S17220   5.504   3.690   6.989  0.1731 -1.5314 -0.6748
  155SAPE   C2417221   5.722   3.701   6.945 -0.1963  0.5219 -0.6846
  155SAPE   H4R17222   5.757   3.745   7.041 -0.8045 -0.3070 -0.0546
  155SAPE   H4S17223   5.788   3.745   6.868 -0.7767  2.0368 -0.3378
  155SAPE   C2517224   5.733   3.545   6.951  0.2983 -0.1522  0.2184
  155SAPE   H5R17225   5.714   3.494   6.855 -1.9047 -2.4235  1.7444
  155SAPE   C2617226   5.744   3.467   7.062  0.3508  0.4436 -0.2500
  155SAPE   H6R17227   5.751   3.359   7.045 -0.2070  0.4585 -0.5914
  155SAPE   C2717228   5.755   3.516   7.206  0.1099  0.1903 -0.3073
  155SAPE   H7R17229   5.781   3.623   7.194  3.6037 -0.8625 -5.7927
  155SAPE   H7S17230   5.839   3.461   7.253 -0.6146  0.4054  1.3081
  155SAPE   C2817231   5.637   3.508   7.294  0.5118 -0.4958 -0.2947
  155SAPE   H8R17232   5.546   3.540   7.242  0.3251 -2.4325 -1.2398
  155SAPE   C2917233   5.630   3.478   7.430 -0.0995 -0.6761 -0.0357
  155SAPE   H9R17234   5.534   3.483   7.484  0.6774 -0.8180  1.4191
  155SAPE  C21017235   5.744   3.431   7.522 -0.1482  0.3348  0.1575
  155SAPE  H10R17236   5.781   3.518   7.580  1.5261 -0.8624  0.9815
  155SAPE  H10S17237   5.837   3.411   7.464  0.3482  0.6990  0.8048
  155SAPE  C21117238   5.688   3.323   7.614 -0.2740 -0.2403  0.1735
  155SAPE  H11R17239   5.670   3.222   7.575 -0.5249 -1.7464  3.7368
  155SAPE  C21217240   5.661   3.338   7.747 -0.4579  0.2663  0.5721
  155SAPE  H12R17241   5.635   3.245   7.799 -3.0940  0.6373  0.0592
  155SAPE  C21317242   5.686   3.462   7.830  0.0835  0.1281 -0.4849
  155SAPE  H13R17243   5.663   3.549   7.765  1.3452  0.8081 -0.0589
  155SAPE  H13S17244   5.793   3.473   7.859 -0.4326  1.9991  0.8769
  155SAPE  C21417245   5.604   3.453   7.954  0.2844  0.0438  0.0718
  155SAPE  H14R17246   5.501   3.485   7.931  1.0792  3.5740  0.7894
  155SAPE  C21517247   5.632   3.403   8.078  0.9256 -0.4143 -0.1390
  155SAPE  H15R17248   5.548   3.384   8.146 -0.6217  1.1062 -1.4871
  155SAPE  C21617249   5.766   3.362   8.129  0.2060 -0.0478  0.2807
  155SAPE  H16R17250   5.848   3.398   8.063 -1.2870  0.7504 -1.2253
  155SAPE  H16S17251   5.782   3.252   8.126  1.5484  0.1407 -1.9979
  155SAPE  C21717252   5.795   3.412   8.274 -0.1818  0.4950  0.0525
  155SAPE  H17R17253   5.726   3.490   8.312  1.4812  1.7176  0.7068
  155SAPE  H17S17254   5.894   3.462   8.274  0.7239 -1.2102 -0.2870
  155SAPE  C21817255   5.816   3.289   8.368  0.2708 -0.7872  0.2558
  155SAPE  H18R17256   5.909   3.237   8.338 -0.1729 -1.3680 -0.1182
  155SAPE  H18S17257   5.731   3.219   8.352  1.5343 -1.9240 -1.7800
  155SAPE  C21917258   5.845   3.309   8.517 -0.4482 -0.6293 -0.5398
  155SAPE  H19R17259   5.927   3.383   8.518 -0.9847 -0.0242 -0.3372
  155SAPE  H19S17260   5.888   3.220   8.568  2.1607 -0.1745 -1.8218
  155SAPE  C22017261   5.723   3.359   8.585  0.6075 -0.7514 -0.5463
  155SAPE  H20R17262   5.749   3.373   8.693 -0.9305  0.2972 -0.2752
  155SAPE  H20S17263   5.628   3.303   8.571  0.2539 -0.7430  1.4727
  155SAPE  H20T17264   5.695   3.461   8.550  2.7361  0.1383  0.1695
  155SAPE   C3317265   5.745   4.722   7.033 -0.3009 -0.6057 -0.2270
  155SAPE   H3X17266   5.647   4.753   7.074 -1.4837 -1.9284 -1.9405
  155SAPE   H3Y17267   5.737   4.774   6.936 -2.0762  1.0143  0.7286
  155SAPE   C3417268   5.867   4.786   7.105  0.1739  0.5971 -0.3470
  155SAPE   H4X17269   5.850   4.896   7.104  0.0098  0.5691 -0.8655
  155SAPE   H4Y17270   5.963   4.768   7.053 -0.0764  2.5359 -1.5643
  155SAPE   C3517271   5.874   4.720   7.251  0.2671 -0.0797  0.5217
  155SAPE   H5X17272   5.916   4.618   7.242  1.2188  0.2406  1.2201
  155SAPE   H5Y17273   5.772   4.710   7.294  0.2086 -2.6680 -0.0792
  155SAPE   C3617274   5.955   4.808   7.355  0.1823 -0.0316 -0.2053
  155SAPE   H6X17275   5.913   4.909   7.375 -0.2704  0.1911 -2.1129
  155SAPE   H6Y17276   6.052   4.826   7.304 -0.4841 -1.7223 -2.2014
  155SAPE   C3717277   5.949   4.742   7.488 -0.2093  0.6621  0.9277
  155SAPE   H7X17278   5.948   4.631   7.481 -1.9912  0.7481 -1.7357
  155SAPE   H7Y17279   5.848   4.764   7.530 -0.7824  1.2814 -0.6741
  155SAPE   C3817280   6.068   4.779   7.573  0.6792 -0.1074 -0.0978
  155SAPE   H8X17281   6.065   4.890   7.576 -1.0864 -0.1582  1.6753
  155SAPE   H8Y17282   6.165   4.735   7.539  0.2861 -1.3665  0.3543
  155SAPE   C3917283   6.041   4.734   7.719 -0.0199 -0.1527 -0.0251
  155SAPE   H9X17284   6.001   4.631   7.730 -0.2520  0.0340  0.9786
  155SAPE   H9Y17285   5.963   4.795   7.770 -0.4372 -0.4945 -0.2527
  155SAPE  C31017286   6.166   4.765   7.804  0.1426 -0.0041 -0.5483
  155SAPE  H10X17287   6.199   4.865   7.768 -1.5298  0.2431 -1.4673
  155SAPE  H10Y17288   6.253   4.707   7.767  0.9043  1.0650 -0.4917
  155SAPE  C31117289   6.135   4.775   7.956  0.3912  0.1182 -0.1755
  155SAPE  H11X17290   6.092   4.679   7.991 -3.3408  1.7150  0.0580
  155SAPE  H11Y17291   6.057   4.851   7.979 -0.5837 -0.4779 -1.4227
  155SAPE  C31217292   6.264   4.819   8.023  0.3065 -0.4448 -0.3903
  155SAPE  H12X17293   6.301   4.918   7.990  0.3020 -0.0618  0.7048
  155SAPE  H12Y17294   6.345   4.745   8.007  2.0290 -0.0261  4.6914
  155SAPE  C31317295   6.246   4.834   8.177  0.9036  0.0708  0.5406
  155SAPE  H13X17296   6.188   4.749   8.219 -0.4696 -1.0221 -3.1455
  155SAPE  H13Y17297   6.175   4.918   8.192 -1.1465 -1.3389 -0.7784
  155SAPE  C31417298   6.373   4.843   8.258  0.1607 -0.0612 -0.6609
  155SAPE  H14X17299   6.338   4.888   8.353 -0.5734  0.0775 -0.9881
  155SAPE  H14Y17300   6.430   4.916   8.197  0.6408 -0.3641 -0.5750
  155SAPE  C31517301   6.455   4.712   8.290  0.0207 -0.6568  0.7037
  155SAPE  H15X17302   6.551   4.743   8.337  0.2199  1.9845 -1.2137
  155SAPE  H15Y17303   6.483   4.672   8.189  0.2422  1.7057 -0.2239
  155SAPE  C31617304   6.389   4.606   8.370 -0.4107  0.7289  0.5673
  155SAPE  H16X17305   6.459   4.521   8.384 -1.9677 -0.5974  0.7182
  155SAPE  H16Y17306   6.301   4.578   8.308 -0.7088  0.0880  1.2539
  155SAPE  C31717307   6.327   4.648   8.507 -0.5591  0.0610 -0.0230
  155SAPE  H17X17308   6.251   4.729   8.495 -2.2892 -1.5768 -0.6724
  155SAPE  H17Y17309   6.409   4.680   8.574 -1.1474 -1.1499  1.3285
  155SAPE  C31817310   6.273   4.520   8.565 -0.0608  0.0512 -0.4048
  155SAPE  H18X17311   6.352   4.443   8.560 -0.7849 -0.7449  0.1248
  155SAPE  H18Y17312   6.184   4.475   8.516 -0.3105  0.4406 -0.3135
  155SAPE  H18Z17313   6.242   4.544   8.669 -1.8004 -1.6905 -0.4629
  156SAPE     N17314   5.074   4.385   6.156 -1.0842  0.2415  0.4870
  156SAPE   HN117315   5.069   4.374   6.053  2.5595  0.9464  0.1138
  156SAPE   HN217316   5.167   4.349   6.187 -1.0076  0.4844  0.5415
  156SAPE   HN317317   4.996   4.346   6.213 -2.3864  1.2866 -0.5052
  156SAPE   C1217318   5.073   4.535   6.172  0.5586  0.6540 -0.8390
  156SAPE  H12A17319   4.980   4.584   6.137 -0.1828  1.3815  1.9138
  156SAPE  H12B17320   5.161   4.577   6.118  0.3084  0.4851 -1.3862
  156SAPE   C1117321   5.077   4.573   6.324 -0.1121  0.3066 -0.0252
  156SAPE  H11A17322   5.157   4.508   6.366  0.5196 -1.1505 -3.2125
  156SAPE  H11B17323   4.985   4.542   6.377 -0.8751  0.5814 -1.1492
  156SAPE     P17324   5.017   4.813   6.392  0.1675 -0.0969 -0.4346
  156SAPE   O1317325   5.076   4.946   6.410  0.1021 -0.4332  0.2127
  156SAPE   O1417326   4.905   4.807   6.299  0.0854 -0.1425 -0.1221
  156SAPE   O1217327   5.122   4.708   6.344 -0.1877 -0.9169  0.1470
  156SAPE   O1117328   4.975   4.759   6.531  0.5740  0.3260  0.0791
  156SAPE    C117329   4.914   4.843   6.626  1.0407  0.0943 -0.1752
  156SAPE    HA17330   4.862   4.930   6.580 -0.7070 -0.2914  0.9634
  156SAPE    HB17331   4.835   4.786   6.679  0.6922  0.8118  0.0944
  156SAPE    C217332   5.018   4.891   6.727 -0.2015 -0.0827 -0.4325
  156SAPE    HS17333   5.093   4.935   6.658  0.5899  0.6730  0.8667
  156SAPE   O2117334   5.064   4.780   6.797 -0.1844  0.4814  0.0556
  156SAPE   C2117335   5.187   4.784   6.827 -1.0220  0.4707 -0.1102
  156SAPE   O2217336   5.264   4.879   6.807  0.3345 -0.2903  0.0325
  156SAPE   C2217337   5.235   4.648   6.884  0.5980 -0.0272 -0.1445
  156SAPE   H2R17338   5.159   4.568   6.869 -0.4255  0.6678  1.1846
  156SAPE   H2S17339   5.335   4.625   6.840  1.8032  1.0186  1.9309
  156SAPE    C317340   4.954   4.991   6.826 -0.5451 -0.2086  0.6071
  156SAPE    HX17341   4.853   4.953   6.852 -0.9148 -0.1150 -0.6301
  156SAPE    HY17342   4.929   5.083   6.769 -0.8514  0.6263  2.0345
  156SAPE   O3117343   5.018   5.006   6.950 -0.0271  0.1572 -0.3579
  156SAPE   C3117344   5.106   5.107   6.954 -0.8477 -0.0445 -0.2415
  156SAPE   O3217345   5.145   5.167   6.855 -0.7457  0.2496 -0.3979
  156SAPE   C3217346   5.158   5.126   7.094 -0.5457  0.6429 -0.2112
  156SAPE   H2X17347   5.071   5.101   7.159 -0.2603  2.0639  0.7624
  156SAPE   H2Y17348   5.191   5.230   7.113 -0.8906  0.3676  2.2069
  156SAPE   C2317349   5.272   4.663   7.034  0.1755  0.3433  0.0420
  156SAPE   H3R17350   5.190   4.689   7.104 -0.2231  0.6296 -0.5234
  156SAPE   H3S17351   5.348   4.743   7.046  1.7338 -1.1680  0.7756
  156SAPE   C2417352   5.326   4.528   7.074  0.4817  0.6046 -0.4762
  156SAPE   H4R17353   5.421   4.500   7.023  0.6051 -0.5705  0.3458
  156SAPE   H4S17354   5.246   4.454   7.049 -0.7788  1.2992  1.2762
  156SAPE   C2517355   5.355   4.517   7.226 -0.2568 -0.3691  0.4378
  156SAPE   H5R17356   5.328   4.601   7.292 -1.9462 -0.1245 -0.5014
  156SAPE   C2617357   5.430   4.418   7.287 -0.3731 -0.3946 -0.0821
  156SAPE   H6R17358   5.444   4.426   7.396 -3.2524  0.2030  0.3307
  156SAPE   C2717359   5.508   4.310   7.218  0.7554  0.6559 -0.5218
  156SAPE   H7R17360   5.543   4.333   7.115  2.3628 -1.2590 -0.4671
  156SAPE   H7S17361   5.444   4.222   7.199  0.1905  0.3573  2.3931
  156SAPE   C2817362   5.636   4.284   7.287 -0.2920  0.4025 -0.1729
  156SAPE   H8R17363   5.713   4.360   7.267  0.7980 -0.4436  0.6804
  156SAPE   C2917364   5.677   4.164   7.339  0.2597 -0.1093  0.1402
  156SAPE   H9R17365   5.782   4.153   7.369  0.2156  0.7387  0.6530
  156SAPE  C21017366   5.586   4.043   7.332 -0.5077  0.0457  0.0933
  156SAPE  H10R17367   5.531   4.044   7.236  1.3593  2.3304 -1.0562
  156SAPE  H10S17368   5.502   4.045   7.404  0.5111  1.6800  1.3040
  156SAPE  C21117369   5.649   3.912   7.367 -0.7870 -0.0938  0.0669
  156SAPE  H11R17370   5.642   3.847   7.278 -0.9780  1.8266 -1.4105
  156SAPE  C21217371   5.690   3.859   7.485 -0.5105 -0.6503 -0.0303
  156SAPE  H12R17372   5.737   3.760   7.473 -0.9962 -0.8291 -0.5110
  156SAPE  C21317373   5.698   3.926   7.618 -0.4258 -0.1544  0.2349
  156SAPE  H13R17374   5.704   4.037   7.615 -0.3376 -0.1803 -2.0973
  156SAPE  H13S17375   5.795   3.910   7.670 -0.4567  1.6170  0.9235
  156SAPE  C21417376   5.605   3.866   7.714  0.1848  0.4280 -0.0352
  156SAPE  H14R17377   5.534   3.798   7.666 -0.0763 -1.4768  2.8538
  156SAPE  C21517378   5.592   3.892   7.853 -0.3076  0.5369  0.0480
  156SAPE  H15R17379   5.504   3.848   7.901 -1.2425  0.8317 -1.3373
  156SAPE  C21617380   5.682   3.970   7.950 -0.1919 -0.0333  0.3359
  156SAPE  H16R17381   5.635   4.068   7.973  0.5698  0.4781 -0.2544
  156SAPE  H16S17382   5.781   3.982   7.902 -0.1646 -1.4641  0.0011
  156SAPE  C21717383   5.714   3.887   8.091  0.0307 -0.6003  0.4152
  156SAPE  H17R17384   5.617   3.878   8.145 -0.8958 -0.4731 -1.1819
  156SAPE  H17S17385   5.798   3.939   8.143  0.6563  0.4959 -1.5715
  156SAPE  C21817386   5.761   3.745   8.074  0.1100 -0.4769  0.0834
  156SAPE  H18R17387   5.684   3.699   8.008 -1.4313 -1.7322  2.5975
  156SAPE  H18S17388   5.751   3.680   8.164 -0.3748 -0.2525  0.1946
  156SAPE  C21917389   5.905   3.731   8.013  0.0963 -0.0144 -0.1919
  156SAPE  H19R17390   5.893   3.805   7.931  0.0453  0.3913  0.1736
  156SAPE  H19S17391   5.919   3.628   7.976  2.6802  0.8889 -1.9462
  156SAPE  C22017392   6.024   3.755   8.102  0.0090 -0.2499  0.1060
  156SAPE  H20R17393   6.117   3.740   8.044  1.5798  2.7497  1.6387
  156SAPE  H20S17394   6.027   3.686   8.188 -2.5670 -0.6568 -0.0350
  156SAPE  H20T17395   6.019   3.860   8.138  1.3349  0.2579 -1.1024
  156SAPE   C3317396   5.261   5.019   7.131 -0.7472 -0.4057  0.1528
  156SAPE   H3X17397   5.356   5.053   7.083 -0.7076  2.2347  1.8545
  156SAPE   H3Y17398   5.232   4.920   7.090 -0.0987  0.2397 -1.9844
  156SAPE   C3417399   5.287   5.014   7.286  0.0570 -0.7852 -0.2693
  156SAPE   H4X17400   5.206   4.974   7.351 -0.5798  0.4915 -0.2487
  156SAPE   H4Y17401   5.312   5.115   7.324 -0.9201 -0.6598  0.0697
  156SAPE   C3517402   5.404   4.913   7.316 -0.0228 -0.3498  0.2555
  156SAPE   H5X17403   5.494   4.947   7.261 -1.0345  2.6164  0.2168
  156SAPE   H5Y17404   5.372   4.814   7.278  1.0188 -1.3786  1.9879
  156SAPE   C3617405   5.422   4.902   7.467  0.2047  0.6533  0.2016
  156SAPE   H6X17406   5.322   4.870   7.504 -0.5362  1.6193 -0.9075
  156SAPE   H6Y17407   5.424   5.003   7.513  1.4926 -0.5306  2.9790
  156SAPE   C3717408   5.544   4.816   7.508 -0.2299 -0.7506 -0.2284
  156SAPE   H7X17409   5.634   4.879   7.488 -0.4015 -0.6206 -0.6122
  156SAPE   H7Y17410   5.556   4.727   7.443 -0.6504 -0.9333 -0.0573
  156SAPE   C3817411   5.548   4.767   7.653 -0.1559  0.0488  0.5125
  156SAPE   H8X17412   5.439   4.766   7.675 -0.7844 -0.5281 -2.2522
  156SAPE   H8Y17413   5.614   4.832   7.713  0.8628 -0.1734 -0.3322
  156SAPE   C3917414   5.606   4.619   7.662 -0.0600 -0.0077  0.3536
  156SAPE   H9X17415   5.712   4.597   7.638  0.1426  2.7207 -1.8232
  156SAPE   H9Y17416   5.568   4.549   7.584  1.3508  0.0222 -0.3887
  156SAPE  C31017417   5.566   4.549   7.793 -0.2244 -0.4197 -0.9326
  156SAPE  H10X17418   5.467   4.593   7.820 -0.7754 -2.1327 -0.0405
  156SAPE  H10Y17419   5.635   4.589   7.870 -0.9796  1.0654 -0.9833
  156SAPE  C31117420   5.566   4.394   7.792  0.7290 -0.1857  0.3366
  156SAPE  H11X17421   5.516   4.356   7.701  0.9630 -1.6094  0.7842
  156SAPE  H11Y17422   5.498   4.361   7.874 -2.1894  1.4080 -1.2616
  156SAPE  C31217423   5.699   4.321   7.794 -0.0753  0.4877  0.2084
  156SAPE  H12X17424   5.765   4.366   7.717  2.7862 -1.9576  1.0335
  156SAPE  H12Y17425   5.686   4.213   7.771  3.9825 -0.1690  0.2737
  156SAPE  C31317426   5.770   4.336   7.930 -0.3093 -0.0513 -0.3523
  156SAPE  H13X17427   5.717   4.276   8.008 -1.2331  0.0883 -0.8645
  156SAPE  H13Y17428   5.782   4.441   7.965  1.3218 -0.1802 -0.4487
  156SAPE  C31417429   5.913   4.286   7.914  0.3807 -0.4220 -0.8356
  156SAPE  H14X17430   5.976   4.354   7.853 -1.7965  1.7848 -0.7844
  156SAPE  H14Y17431   5.910   4.196   7.848 -0.6367  1.3187 -3.3504
  156SAPE  C31517432   5.975   4.246   8.051 -0.1191  0.5536  0.3940
  156SAPE  H15X17433   6.085   4.233   8.043  0.2311  3.6011 -1.5540
  156SAPE  H15Y17434   5.926   4.152   8.083  1.1708 -0.1028  0.4836
  156SAPE  C31617435   5.961   4.347   8.163 -0.6710  0.1253  0.3712
  156SAPE  H16X17436   5.857   4.384   8.155 -0.9956 -0.8660 -0.2183
  156SAPE  H16Y17437   6.033   4.429   8.144  0.3926 -0.8212  0.1796
  156SAPE  C31717438   5.985   4.286   8.298  0.4539 -0.1357 -0.0693
  156SAPE  H17X17439   5.931   4.189   8.291  0.0049  0.1968 -1.3916
  156SAPE  H17Y17440   5.939   4.346   8.379 -1.0034  1.1741 -1.7863
  156SAPE  C31817441   6.134   4.266   8.348 -0.6447 -0.3775  0.6792
  156SAPE  H18X17442   6.188   4.184   8.296  1.5425  1.8015 -0.7513
  156SAPE  H18Y17443   6.133   4.246   8.457  1.3712  1.6362  1.1539
  156SAPE  H18Z17444   6.187   4.363   8.336 -0.7753 -0.3596  0.2132
  157SAPE     N17445   1.246   6.580   6.446  0.0362  0.0761 -0.4491
  157SAPE   HN117446   1.242   6.561   6.344  1.3105 -3.5530  0.0177
  157SAPE   HN217447   1.201   6.668   6.479  0.8701 -0.1788  1.5060
  157SAPE   HN317448   1.342   6.590   6.485 -0.6863  0.8854  1.2316
  157SAPE   C1217449   1.185   6.456   6.508 -0.2809 -0.3269 -0.2044
  157SAPE  H12A17450   1.075   6.459   6.497 -0.8942  0.1307  4.3187
  157SAPE  H12B17451   1.216   6.448   6.614 -1.5718 -0.4138  0.1825
  157SAPE   C1117452   1.250   6.329   6.441  0.2745  0.2177  0.4292
  157SAPE  H11A17453   1.222   6.344   6.334 -2.9529  3.7956  1.5244
  157SAPE  H11B17454   1.187   6.245   6.476 -0.3370  0.3044 -0.4287
  157SAPE     P17455   1.493   6.321   6.375  0.2019 -0.2750 -0.2081
  157SAPE   O1317456   1.484   6.209   6.276  0.2282 -0.0638  0.1731
  157SAPE   O1417457   1.481   6.456   6.318  0.2649 -0.2960 -0.0348
  157SAPE   O1217458   1.387   6.307   6.484 -0.0645 -0.5416 -0.2942
  157SAPE   O1117459   1.631   6.306   6.455 -0.3264 -0.4757  0.6341
  157SAPE    C117460   1.661   6.189   6.516  0.5189 -0.0144 -0.6134
  157SAPE    HA17461   1.573   6.135   6.556 -0.1780  0.2391 -1.7600
  157SAPE    HB17462   1.718   6.125   6.444 -0.8252 -0.5112 -1.2651
  157SAPE    C217463   1.752   6.208   6.642 -0.1153  0.1010  0.1657
  157SAPE    HS17464   1.766   6.107   6.687  1.9127  0.6399  0.8437
  157SAPE   O2117465   1.687   6.298   6.737  0.1768  0.0574 -0.1897
  157SAPE   C2117466   1.567   6.258   6.775  0.0794  0.4968 -0.6662
  157SAPE   O2217467   1.535   6.143   6.789  0.4427 -0.3232 -0.2113
  157SAPE   C2217468   1.485   6.391   6.783 -0.1501  0.1356  0.4158
  157SAPE   H2R17469   1.555   6.475   6.765 -0.2125 -0.2225 -1.6737
  157SAPE   H2S17470   1.424   6.380   6.692  1.4433 -1.2196 -0.5579
  157SAPE    C317471   1.891   6.260   6.603  0.1652 -0.0827 -0.0476
  157SAPE    HX17472   1.881   6.362   6.560 -0.6188 -0.9085 -1.9428
  157SAPE    HY17473   1.921   6.183   6.529 -0.0518 -0.5732  0.3680
  157SAPE   O3117474   1.965   6.256   6.726  0.3504 -0.4761 -0.0187
  157SAPE   C3117475   2.069   6.337   6.736 -0.0455  0.2885  0.1543
  157SAPE   O3217476   2.094   6.419   6.654 -0.5786 -0.1549 -0.1390
  157SAPE   C3217477   2.138   6.325   6.863  0.7467  0.1604 -0.2134
  157SAPE   H2X17478   2.248   6.323   6.851  0.7279 -1.5606 -0.2491
  157SAPE   H2Y17479   2.100   6.237   6.919  1.8973  1.2711  2.4954
  157SAPE   C2317480   1.418   6.414   6.919  0.1232  0.2575 -0.4900
  157SAPE   H3R17481   1.341   6.336   6.935  1.4043 -1.1293 -0.8359
  157SAPE   H3S17482   1.362   6.507   6.898  1.5566  0.9572 -1.3205
  157SAPE   C2417483   1.518   6.423   7.036 -0.0420 -0.1034 -1.1715
  157SAPE   H4R17484   1.585   6.334   7.035 -1.2765 -1.0469 -1.8357
  157SAPE   H4S17485   1.447   6.418   7.122 -0.5883 -0.5264 -1.6376
  157SAPE   C2517486   1.601   6.550   7.048  0.3397  0.7781  0.1567
  157SAPE   H5R17487   1.654   6.569   6.953  0.2789  0.0383 -0.0269
  157SAPE   C2617488   1.623   6.621   7.157  0.4516 -0.3914  0.4477
  157SAPE   H6R17489   1.694   6.704   7.146  0.3946 -0.4591 -0.4466
  157SAPE   C2717490   1.569   6.596   7.294  0.0427 -0.6295  0.2534
  157SAPE   H7R17491   1.641   6.542   7.359 -1.3094  1.0741  3.4092
  157SAPE   H7S17492   1.491   6.518   7.287  1.4048 -2.0189 -0.0179
  157SAPE   C2817493   1.507   6.725   7.350 -0.0880  0.2462 -0.2375
  157SAPE   H8R17494   1.457   6.786   7.273  2.0468  2.0864 -0.2759
  157SAPE   C2917495   1.518   6.763   7.474 -0.3861  0.1132 -0.4603
  157SAPE   H9R17496   1.496   6.870   7.490 -0.5238  0.2618 -1.5725
  157SAPE  C21017497   1.576   6.710   7.601 -0.0240 -0.0551  0.4141
  157SAPE  H10R17498   1.673   6.762   7.614  1.4058 -2.6732  0.8944
  157SAPE  H10S17499   1.582   6.599   7.606 -0.1466 -0.0252  1.6208
  157SAPE  C21117500   1.490   6.743   7.720 -0.2309 -0.5149  0.4052
  157SAPE  H11R17501   1.381   6.730   7.711 -0.3434  0.0936  0.8437
  157SAPE  C21217502   1.539   6.771   7.843  0.1203  0.3121 -0.1343
  157SAPE  H12R17503   1.463   6.802   7.916  1.1131  1.9484  0.2311
  157SAPE  C21317504   1.681   6.786   7.889  0.4310  0.0116 -0.0499
  157SAPE  H13R17505   1.693   6.894   7.911  1.0079 -0.0053 -0.2709
  157SAPE  H13S17506   1.753   6.757   7.809  1.1405  1.8254 -0.1069
  157SAPE  C21417507   1.705   6.711   8.022  0.2745 -0.3707 -0.0180
  157SAPE  H14R17508   1.773   6.627   8.007  0.6391 -0.1362  0.3105
  157SAPE  C21517509   1.655   6.735   8.149 -0.4272 -0.6033  0.2707
  157SAPE  H15R17510   1.704   6.676   8.228  0.6183 -2.2949 -1.5264
  157SAPE  C21617511   1.556   6.844   8.189 -0.0391  0.4885 -0.6444
  157SAPE  H16R17512   1.516   6.903   8.104 -2.1858  0.6095  0.3746
  157SAPE  H16S17513   1.606   6.916   8.257 -0.6286  0.7382 -0.4647
  157SAPE  C21717514   1.436   6.783   8.262 -0.4486  0.5517  0.5624
  157SAPE  H17R17515   1.370   6.865   8.298 -0.9741  0.8426 -1.0210
  157SAPE  H17S17516   1.477   6.733   8.353 -0.9067 -0.5216  0.1953
  157SAPE  C21817517   1.350   6.685   8.184 -0.5051  0.8591  0.3924
  157SAPE  H18R17518   1.410   6.600   8.144  0.4437  1.1903  1.0809
  157SAPE  H18S17519   1.304   6.738   8.098  0.3100  0.2236 -0.4560
  157SAPE  C21917520   1.225   6.617   8.248  0.5333  0.0245 -0.6338
  157SAPE  H19R17521   1.160   6.704   8.268  2.4837  1.1975  0.9411
  157SAPE  H19S17522   1.247   6.567   8.345  1.1676 -1.5082 -1.5373
  157SAPE  C22017523   1.140   6.525   8.161  0.8961  0.4535  0.1444
  157SAPE  H20R17524   1.037   6.537   8.199  1.2840 -0.0684  1.4325
  157SAPE  H20S17525   1.165   6.418   8.146 -1.1913  0.2027 -2.0492
  157SAPE  H20T17526   1.120   6.554   8.056 -0.0079  0.1809  0.2326
  157SAPE   C3317527   2.098   6.431   6.972 -0.0257  0.5567  0.2531
  157SAPE   H3X17528   1.992   6.416   7.002  0.3933 -1.1675  0.9942
  157SAPE   H3Y17529   2.103   6.525   6.913  4.6459 -0.5900 -1.6330
  157SAPE   C3417530   2.183   6.428   7.098 -0.3535  0.4412  0.6164
  157SAPE   H4X17531   2.291   6.425   7.073 -0.7653 -1.4010 -1.1674
  157SAPE   H4Y17532   2.162   6.332   7.149  0.9029 -0.2412 -0.1234
  157SAPE   C3517533   2.148   6.543   7.197 -0.1027  0.2475  0.0627
  157SAPE   H5X17534   2.037   6.538   7.190 -0.1587 -2.4903  1.5611
  157SAPE   H5Y17535   2.193   6.641   7.171 -0.4650  0.8424  1.5684
  157SAPE   C3617536   2.179   6.508   7.344 -0.1199  0.0521  0.3460
  157SAPE   H6X17537   2.288   6.517   7.359  0.0275  1.6122 -1.3355
  157SAPE   H6Y17538   2.153   6.402   7.364 -0.0144 -0.3937 -1.7116
  157SAPE   C3717539   2.120   6.605   7.442  0.4896 -0.4097 -0.0432
  157SAPE   H7X17540   2.009   6.608   7.439  0.4372 -0.8836  1.1185
  157SAPE   H7Y17541   2.142   6.708   7.406 -0.2578 -0.3043 -0.2147
  157SAPE   C3817542   2.163   6.579   7.581 -0.2609 -0.4685 -0.7989
  157SAPE   H8X17543   2.136   6.669   7.641 -1.0551 -2.6089  2.2592
  157SAPE   H8Y17544   2.271   6.557   7.576 -0.5208 -1.6526 -4.5966
  157SAPE   C3917545   2.083   6.461   7.646  0.3205 -0.2824 -0.8411
  157SAPE   H9X17546   2.079   6.374   7.577 -0.3496  0.8398 -2.2468
  157SAPE   H9Y17547   1.979   6.494   7.665  0.4672 -1.0548  1.6698
  157SAPE  C31017548   2.145   6.425   7.781 -0.5058  0.6090  0.3790
  157SAPE  H10X17549   2.255   6.427   7.762 -0.3492  0.2071  1.1986
  157SAPE  H10Y17550   2.117   6.322   7.813  0.4510  0.6564  1.4107
  157SAPE  C31117551   2.109   6.525   7.891  0.3882  0.5740  0.1173
  157SAPE  H11X17552   1.999   6.531   7.900  0.5173  4.8246  0.6119
  157SAPE  H11Y17553   2.156   6.622   7.864  1.5396  0.5408  1.8257
  157SAPE  C31217554   2.165   6.484   8.030  0.1070  0.1838  0.4112
  157SAPE  H12X17555   2.263   6.536   8.029  0.2728 -0.1219 -0.7640
  157SAPE  H12Y17556   2.195   6.377   8.035 -1.1451 -0.1452  1.2818
  157SAPE  C31317557   2.077   6.529   8.146 -0.1607 -0.1481  0.0148
  157SAPE  H13X17558   1.975   6.498   8.118  0.1373 -0.0777 -1.2208
  157SAPE  H13Y17559   2.095   6.638   8.157  1.2602 -0.5581  2.8070
  157SAPE  C31417560   2.113   6.459   8.278 -0.5991 -0.6560  0.1008
  157SAPE  H14X17561   2.112   6.351   8.253 -1.8363 -0.6928  0.2568
  157SAPE  H14Y17562   2.034   6.471   8.356  0.0238  0.3260  0.6074
  157SAPE  C31517563   2.245   6.509   8.325 -0.6333 -0.1921 -0.5452
  157SAPE  H15X17564   2.327   6.501   8.250 -0.4619  0.6554 -0.4620
  157SAPE  H15Y17565   2.272   6.460   8.420 -1.9665 -1.0883 -0.6016
  157SAPE  C31617566   2.245   6.656   8.366  0.1631 -0.2495 -0.2091
  157SAPE  H16X17567   2.149   6.688   8.412  0.0973 -0.0488 -0.4823
  157SAPE  H16Y17568   2.255   6.710   8.269 -0.9218  1.8601  0.7652
  157SAPE  C31717569   2.357   6.701   8.462  0.1796 -0.2781  0.7655
  157SAPE  H17X17570   2.455   6.654   8.438 -0.7399 -0.4351 -3.2598
  157SAPE  H17Y17571   2.323   6.656   8.558 -1.0464 -0.5192  0.2287
  157SAPE  C31817572   2.386   6.849   8.486 -0.1776  0.5192 -0.5572
  157SAPE  H18X17573   2.306   6.907   8.538  0.1014  1.1059 -0.7770
  157SAPE  H18Y17574   2.388   6.899   8.387 -0.9811  0.7908 -0.4456
  157SAPE  H18Z17575   2.472   6.861   8.554  0.2166  0.0832 -0.9728
  158SAPE     N17576   3.562   3.458   6.293  0.1674 -0.0988  0.1517
  158SAPE   HN117577   3.544   3.558   6.271  1.8780  0.3089  0.4513
  158SAPE   HN217578   3.467   3.421   6.274  0.1776 -0.4298  0.7216
  158SAPE   HN317579   3.579   3.450   6.395  0.0952  0.8117  0.2420
  158SAPE   C1217580   3.669   3.381   6.221  0.1995  0.3142  0.9696
  158SAPE  H12A17581   3.639   3.372   6.114 -1.7785  0.8029  1.4376
  158SAPE  H12B17582   3.678   3.280   6.265  1.7709  0.1585  0.3485
  158SAPE   C1117583   3.812   3.438   6.247  0.8893  0.4621  0.3791
  158SAPE  H11A17584   3.886   3.381   6.187 -0.1201 -0.5233  0.0328
  158SAPE  H11B17585   3.835   3.410   6.352  1.9582  1.2543  0.3804
  158SAPE     P17586   3.955   3.657   6.237 -0.1748  0.0219  0.4991
  158SAPE   O1317587   4.060   3.602   6.149 -0.0987  0.0845 -0.5503
  158SAPE   O1417588   3.933   3.804   6.218  0.6380 -0.1697 -0.3198
  158SAPE   O1217589   3.818   3.579   6.229  0.5352 -0.2245 -0.0626
  158SAPE   O1117590   3.994   3.633   6.384  0.3078 -0.5054 -0.3057
  158SAPE    C117591   3.918   3.699   6.491  0.4747  0.5723  0.2927
  158SAPE    HA17592   3.834   3.764   6.460 -0.9776 -1.5454 -0.4128
  158SAPE    HB17593   3.861   3.617   6.539 -1.1898  1.4836 -0.0543
  158SAPE    C217594   4.016   3.755   6.597  0.2631 -0.5386 -0.0815
  158SAPE    HS17595   4.047   3.858   6.570  1.9887 -1.1342 -0.4765
  158SAPE   O2117596   4.136   3.675   6.614  0.3907 -0.4453 -0.0399
  158SAPE   C2117597   4.236   3.706   6.539 -0.2397 -0.2476 -0.3921
  158SAPE   O2217598   4.252   3.803   6.466  0.0010 -0.2690 -0.5106
  158SAPE   C2217599   4.329   3.588   6.550 -0.8529  0.7474 -0.3080
  158SAPE   H2R17600   4.317   3.527   6.642 -0.2831  0.3114 -0.5151
  158SAPE   H2S17601   4.312   3.517   6.467  4.0176 -1.3798  0.1707
  158SAPE    C317602   3.948   3.769   6.735 -0.4300 -0.1755 -0.1744
  158SAPE    HX17603   4.012   3.841   6.790 -1.1847  0.7461 -0.4601
  158SAPE    HY17604   3.950   3.673   6.789 -0.8425 -0.2019 -0.2019
  158SAPE   O3117605   3.811   3.810   6.721  0.1873 -0.1862 -0.4423
  158SAPE   C3117606   3.790   3.934   6.678  0.2459 -0.2004 -0.3518
  158SAPE   O3217607   3.873   4.022   6.657  0.6203 -0.2056 -0.4041
  158SAPE   C3217608   3.646   3.961   6.669  0.0275 -0.1799  0.4227
  158SAPE   H2X17609   3.591   3.870   6.638 -1.2775  0.4909  0.7213
  158SAPE   H2Y17610   3.644   4.019   6.574 -1.9720 -0.0207  0.5222
  158SAPE   C2317611   4.479   3.629   6.529  0.0199 -0.8585 -0.2481
  158SAPE   H3R17612   4.489   3.697   6.441 -3.0790 -0.9858 -0.8192
  158SAPE   H3S17613   4.531   3.536   6.499 -0.7812 -1.2186 -0.5499
  158SAPE   C2417614   4.540   3.674   6.666  0.4931  0.3672 -0.5007
  158SAPE   H4R17615   4.649   3.693   6.654  0.5788  1.1651  1.1976
  158SAPE   H4S17616   4.526   3.583   6.729 -0.8495  1.6348  1.1197
  158SAPE   C2517617   4.460   3.791   6.733 -0.1318  0.3210 -0.1750
  158SAPE   H5R17618   4.421   3.870   6.667  1.3326 -0.6999 -2.3615
  158SAPE   C2617619   4.430   3.806   6.869 -1.0586 -0.3611  0.1850
  158SAPE   H6R17620   4.388   3.904   6.896 -1.7305 -0.9149  1.2190
  158SAPE   C2717621   4.472   3.723   6.983 -0.6008  0.1310 -0.6195
  158SAPE   H7R17622   4.428   3.623   6.968  0.9865 -0.6912 -0.0674
  158SAPE   H7S17623   4.411   3.755   7.070  1.5406 -0.2398  1.1240
  158SAPE   C2817624   4.617   3.722   7.026  0.1389 -0.1353 -0.1870
  158SAPE   H8R17625   4.689   3.716   6.943  0.4174  0.7590 -0.0195
  158SAPE   C2917626   4.672   3.723   7.148 -0.1236  0.8314  0.3298
  158SAPE   H9R17627   4.780   3.699   7.148 -0.0716  0.7836 -2.2620
  158SAPE  C21017628   4.610   3.717   7.285  0.1567 -0.6840  0.1516
  158SAPE  H10R17629   4.669   3.652   7.352 -1.4992 -1.4778  0.8885
  158SAPE  H10S17630   4.509   3.671   7.280 -1.4935  2.6553 -1.1879
  158SAPE  C21117631   4.607   3.861   7.338  0.1245  0.2169  1.2145
  158SAPE  H11R17632   4.552   3.936   7.279 -2.0119 -2.1002  0.0693
  158SAPE  C21217633   4.640   3.894   7.460  0.3499 -0.5447 -0.5995
  158SAPE  H12R17634   4.624   4.002   7.474 -2.1046 -0.5154 -2.8038
  158SAPE  C21317635   4.683   3.816   7.573 -0.0228  0.0636 -0.6637
  158SAPE  H13R17636   4.699   3.708   7.555  0.7724 -0.1737  1.2521
  158SAPE  H13S17637   4.609   3.827   7.655  0.0925 -0.9998 -0.4120
  158SAPE  C21417638   4.814   3.874   7.631  0.0549  0.0246 -0.2586
  158SAPE  H14R17639   4.904   3.867   7.569  0.9268  2.2780  0.6441
  158SAPE  C21517640   4.812   3.950   7.745  0.4588  0.1460 -0.0873
  158SAPE  H15R17641   4.910   3.984   7.781  1.3069  0.2289 -2.3197
  158SAPE  C21617642   4.691   3.977   7.836 -0.4161  0.5956 -0.0016
  158SAPE  H16R17643   4.593   3.972   7.783 -0.1950  1.3697 -0.4952
  158SAPE  H16S17644   4.698   4.085   7.862  1.3030  0.3176  0.8096
  158SAPE  C21717645   4.684   3.907   7.969 -0.4029  0.2820 -0.1625
  158SAPE  H17R17646   4.680   3.797   7.953  1.0835  0.0782  0.6555
  158SAPE  H17S17647   4.589   3.934   8.021 -0.2187 -0.1442  0.4137
  158SAPE  C21817648   4.801   3.954   8.057  0.5868  0.2260 -0.3808
  158SAPE  H18R17649   4.814   4.061   8.029  2.9607  0.0439 -0.1602
  158SAPE  H18S17650   4.887   3.891   8.026  0.6136 -0.6319  1.3279
  158SAPE  C21917651   4.778   3.939   8.210  0.1216 -0.0154 -0.1940
  158SAPE  H19R17652   4.872   3.955   8.267 -0.5343  0.2074  0.8514
  158SAPE  H19S17653   4.750   3.834   8.234 -0.5043  0.5602  1.8304
  158SAPE  C22017654   4.666   4.016   8.277 -0.3487 -0.4592  0.4186
  158SAPE  H20R17655   4.679   4.126   8.266  0.6299 -0.2414  3.0040
  158SAPE  H20S17656   4.660   3.993   8.386 -1.3861 -1.3182  0.1912
  158SAPE  H20T17657   4.569   4.000   8.225 -0.3894 -1.1106  0.6852
  158SAPE   C3317658   3.594   4.034   6.793  0.1766  0.1997 -0.4456
  158SAPE   H3X17659   3.502   4.091   6.768  0.1833  1.4493  2.1158
  158SAPE   H3Y17660   3.675   4.098   6.833  1.6395 -0.8137 -1.6782
  158SAPE   C3417661   3.565   3.948   6.914  0.0827 -0.2826  0.4170
  158SAPE   H4X17662   3.658   3.891   6.937 -0.0105 -0.9520 -0.7604
  158SAPE   H4Y17663   3.482   3.877   6.895 -0.0923 -0.7795  2.7229
  158SAPE   C3517664   3.547   4.031   7.040 -0.1102  0.0989  0.0764
  158SAPE   H5X17665   3.469   4.110   7.028  2.5549  2.6354 -1.9137
  158SAPE   H5Y17666   3.641   4.083   7.068  0.2927  0.7080 -2.2461
  158SAPE   C3617667   3.496   3.945   7.158 -0.2676  0.1817 -0.2239
  158SAPE   H6X17668   3.584   3.882   7.184 -1.7061 -1.3682  1.2139
  158SAPE   H6Y17669   3.409   3.881   7.131 -0.1465 -0.2107  0.2991
  158SAPE   C3717670   3.462   4.032   7.286 -0.5819  0.0539  0.0967
  158SAPE   H7X17671   3.541   4.110   7.285  0.3381 -0.8630 -0.6317
  158SAPE   H7Y17672   3.366   4.082   7.262  1.2386  2.7658 -2.1142
  158SAPE   C3817673   3.448   3.945   7.416 -0.0310 -0.5966 -0.4527
  158SAPE   H8X17674   3.534   3.875   7.421  0.3753 -0.0537  0.4989
  158SAPE   H8Y17675   3.360   3.877   7.415 -0.1834 -0.6296  3.0492
  158SAPE   C3917676   3.441   4.024   7.543  0.1983 -0.6431  0.0871
  158SAPE   H9X17677   3.353   4.092   7.545 -0.6098 -1.6738 -0.0705
  158SAPE   H9Y17678   3.519   4.101   7.562 -2.7269  2.0793  2.2666
  158SAPE  C31017679   3.422   3.929   7.661  0.1782  0.3306  0.3685
  158SAPE  H10X17680   3.508   3.859   7.664 -0.8042 -0.8835  1.2021
  158SAPE  H10Y17681   3.325   3.885   7.631 -0.1753  1.3363 -0.0138
  158SAPE  C31117682   3.399   3.992   7.796 -0.2472 -0.3069 -1.7066
  158SAPE  H11X17683   3.324   4.073   7.792 -2.4648 -2.1212  0.1843
  158SAPE  H11Y17684   3.492   4.049   7.818 -1.5261  1.1606  0.2487
  158SAPE  C31217685   3.365   3.903   7.920  0.1627 -0.7939  0.6227
  158SAPE  H12X17686   3.396   3.798   7.902 -0.8556 -1.6909  3.5093
  158SAPE  H12Y17687   3.262   3.895   7.959  0.5898 -0.9641  1.7799
  158SAPE  C31317688   3.460   3.947   8.039 -0.1880  0.0552  0.4986
  158SAPE  H13X17689   3.432   4.053   8.057 -2.3807 -0.5367  0.8696
  158SAPE  H13Y17690   3.567   3.948   8.010 -0.4101  0.4884 -0.3424
  158SAPE  C31417691   3.446   3.867   8.170  0.0271 -0.1054 -0.1474
  158SAPE  H14X17692   3.425   3.764   8.134 -3.6079  0.4150  0.0920
  158SAPE  H14Y17693   3.359   3.889   8.235 -0.5425 -0.5987 -0.7317
  158SAPE  C31517694   3.565   3.888   8.254 -0.1940  0.0914 -0.5131
  158SAPE  H15X17695   3.584   3.996   8.273  0.0276 -0.0876  0.3512
  158SAPE  H15Y17696   3.656   3.850   8.203  1.0774  2.4661 -0.1978
  158SAPE  C31617697   3.544   3.825   8.387 -0.1564  0.5172  0.3012
  158SAPE  H16X17698   3.532   3.715   8.377  2.2244  0.2339 -0.1134
  158SAPE  H16Y17699   3.450   3.865   8.429 -1.5533 -0.2324 -1.9230
  158SAPE  C31717700   3.672   3.827   8.480  0.0600  0.3522 -0.2465
  158SAPE  H17X17701   3.767   3.802   8.429  1.3402  0.5735  1.9099
  158SAPE  H17Y17702   3.666   3.748   8.557 -2.2790  0.2701 -0.4274
  158SAPE  C31817703   3.684   3.960   8.550 -0.9683  0.1495 -0.4255
  158SAPE  H18X17704   3.784   3.957   8.596 -1.1268 -0.0682 -0.0928
  158SAPE  H18Y17705   3.614   3.965   8.636  1.0013 -1.6259  1.4187
  158SAPE  H18Z17706   3.685   4.046   8.479  0.0217 -0.5201 -1.2579
  159SAPE     N17707   4.135   0.421   5.835  0.3302 -0.4386  0.5471
  159SAPE   HN117708   4.238   0.425   5.819  0.2768  0.7251  0.4047
  159SAPE   HN217709   4.078   0.390   5.754 -1.4637 -1.3466  2.0710
  159SAPE   HN317710   4.103   0.517   5.857 -1.0378 -0.2809 -1.7835
  159SAPE   C1217711   4.106   0.342   5.950 -0.4180  0.4912 -0.3748
  159SAPE  H12A17712   4.119   0.233   5.932 -1.8652  0.5490 -2.0688
  159SAPE  H12B17713   3.997   0.356   5.965 -0.1669  1.2476  0.8529
  159SAPE   C1117714   4.189   0.392   6.068 -0.0939 -0.6971  0.3666
  159SAPE  H11A17715   4.297   0.401   6.044 -0.1384 -0.8021  0.1234
  159SAPE  H11B17716   4.173   0.323   6.153  1.2380 -1.2316  0.2142
  159SAPE     P17717   4.163   0.583   6.248 -0.0988 -0.2776  0.0752
  159SAPE   O1317718   4.298   0.642   6.246  0.3042  0.1388 -0.8957
  159SAPE   O1417719   4.046   0.667   6.278  0.1288  0.3252  0.0208
  159SAPE   O1217720   4.140   0.515   6.109 -0.3651  0.8580  0.2598
  159SAPE   O1117721   4.165   0.460   6.352 -0.7738  0.1995  0.7456
  159SAPE    C117722   4.274   0.372   6.380 -0.3160 -0.6124 -0.4417
  159SAPE    HA17723   4.247   0.265   6.364  1.1097 -1.2819  1.2416
  159SAPE    HB17724   4.356   0.386   6.306 -1.5838 -0.4031 -1.8538
  159SAPE    C217725   4.347   0.399   6.514  0.1409  1.1990 -0.2811
  159SAPE    HS17726   4.423   0.319   6.530  0.3042  1.3606 -0.2392
  159SAPE   O2117727   4.250   0.396   6.622  0.1127  0.0409  0.1368
  159SAPE   C2117728   4.215   0.271   6.660 -0.1063 -0.1506 -0.1466
  159SAPE   O2217729   4.269   0.165   6.622 -0.0278 -0.1019 -0.6141
  159SAPE   C2217730   4.119   0.270   6.770 -0.1810 -0.1276  0.4473
  159SAPE   H2R17731   4.028   0.325   6.739 -0.4799 -1.3673 -1.0354
  159SAPE   H2S17732   4.093   0.164   6.795  1.7911 -0.7876 -0.1070
  159SAPE    C317733   4.424   0.525   6.513 -0.2425  0.1823  0.3211
  159SAPE    HX17734   4.341   0.595   6.489 -1.1246 -0.8822  0.2202
  159SAPE    HY17735   4.497   0.539   6.430 -0.6774  0.9138  0.0560
  159SAPE   O3117736   4.483   0.562   6.645  0.4723  0.4283 -0.3581
  159SAPE   C3117737   4.611   0.569   6.654  0.2795 -0.3105  0.5809
  159SAPE   O3217738   4.686   0.531   6.560 -0.2509 -0.1584 -0.3970
  159SAPE   C3217739   4.661   0.632   6.782 -0.2019  0.3399 -0.1609
  159SAPE   H2X17740   4.599   0.610   6.872  0.1834  1.5183  0.4178
  159SAPE   H2Y17741   4.652   0.740   6.757  1.7728  0.4710 -0.4067
  159SAPE   C2317742   4.181   0.344   6.897  0.7407 -0.3148  0.4213
  159SAPE   H3R17743   4.101   0.351   6.973  0.4352  4.6933 -0.0382
  159SAPE   H3S17744   4.203   0.450   6.873  1.2913 -0.2201  1.3127
  159SAPE   C2417745   4.311   0.278   6.956 -0.1230  0.5897 -1.0117
  159SAPE   H4R17746   4.354   0.349   7.031  0.1698 -0.5386 -0.0827
  159SAPE   H4S17747   4.392   0.262   6.881 -0.2161 -1.1088 -0.7854
  159SAPE   C2517748   4.276   0.144   7.011  0.1359 -0.3166 -1.0443
  159SAPE   H5R17749   4.255   0.066   6.936  1.1526 -1.4374 -0.2088
  159SAPE   C2617750   4.274   0.112   7.144 -0.3637 -0.2027  0.1791
  159SAPE   H6R17751   4.239   0.011   7.171 -2.4867  0.0489 -1.3657
  159SAPE   C2717752   4.306   0.214   7.249  0.2290 -0.0862  0.1204
  159SAPE   H7R17753   4.374   0.298   7.224  0.7472 -0.2710  0.8690
  159SAPE   H7S17754   4.363   0.154   7.323  1.9903  2.6288  1.1193
  159SAPE   C2817755   4.170   0.269   7.294 -0.8940  0.0188 -0.4324
  159SAPE   H8R17756   4.121   0.340   7.225 -1.7970  1.3944  1.5226
  159SAPE   C2917757   4.103   0.227   7.399  0.5607 -0.1596 -0.7349
  159SAPE   H9R17758   3.996   0.239   7.424  0.3181 -2.0080 -0.7545
  159SAPE  C21017759   4.143   0.119   7.501 -0.2911  0.0439  0.2750
  159SAPE  H10R17760   4.184   0.031   7.447  0.3908  0.1119  0.6723
  159SAPE  H10S17761   4.057   0.073   7.554  0.1589  0.0323  1.0236
  159SAPE  C21117762   4.240   0.162   7.613 -0.0656  0.0643  0.3553
  159SAPE  H11R17763   4.345   0.172   7.584  0.2566  1.3589  1.8306
  159SAPE  C21217764   4.220   0.193   7.738 -0.3063 -0.0193  0.0439
  159SAPE  H12R17765   4.310   0.180   7.800 -1.0664  1.1023  1.4276
  159SAPE  C21317766   4.093   0.197   7.805  0.2370  0.6803  0.1944
  159SAPE  H13R17767   4.064   0.093   7.830 -0.3652  0.4608 -1.2759
  159SAPE  H13S17768   4.014   0.235   7.736 -0.3555  0.0650  0.5193
  159SAPE  C21417769   4.089   0.290   7.921  0.1556 -0.3086 -0.1641
  159SAPE  H14R17770   4.022   0.377   7.909  1.0133  0.8681  2.6862
  159SAPE  C21517771   4.143   0.268   8.042  0.5268  0.1195  0.2452
  159SAPE  H15R17772   4.126   0.336   8.126 -0.1747 -2.8352  2.6819
  159SAPE  C21617773   4.228   0.147   8.081 -0.1254 -0.1605 -0.2243
  159SAPE  H16R17774   4.338   0.160   8.076  0.2734 -2.5804  0.8204
  159SAPE  H16S17775   4.208   0.058   8.018 -0.9788 -0.9317  1.0740
  159SAPE  C21717776   4.194   0.097   8.222  0.5564  0.3314 -0.4797
  159SAPE  H17R17777   4.232  -0.005   8.242 -1.5554 -0.4231 -0.0779
  159SAPE  H17S17778   4.086   0.098   8.246  0.6850 -0.9474  0.2028
  159SAPE  C21817779   4.273   0.164   8.337  0.4745 -0.1089 -0.5206
  159SAPE  H18R17780   4.221   0.261   8.349 -0.6570 -0.7435 -0.1552
  159SAPE  H18S17781   4.378   0.188   8.311  0.8088 -1.8057 -0.8597
  159SAPE  C21917782   4.260   0.088   8.466 -0.8876 -0.3971 -0.1200
  159SAPE  H19R17783   4.309   0.134   8.555  0.7130 -0.0143 -1.1639
  159SAPE  H19S17784   4.325   0.002   8.437 -0.7988  0.3451 -2.2974
  159SAPE  C22017785   4.127   0.018   8.514  0.2693 -0.1439  0.7477
  159SAPE  H20R17786   4.154  -0.024   8.613  0.5270 -0.9885  0.3255
  159SAPE  H20S17787   4.114  -0.078   8.459 -0.1224  0.7859 -0.8574
  159SAPE  H20T17788   4.037   0.084   8.517  0.9501  0.7842  1.1276
  159SAPE   C3317789   4.810   0.602   6.827  0.2451  0.5975  0.0570
  159SAPE   H3X17790   4.868   0.629   6.736 -0.5436  0.2980 -0.5430
  159SAPE   H3Y17791   4.829   0.495   6.851  2.8608  1.5313  2.7035
  159SAPE   C3417792   4.851   0.684   6.946  0.7278  0.5280 -0.9474
  159SAPE   H4X17793   4.784   0.677   7.035  0.4412  0.5879 -1.1560
  159SAPE   H4Y17794   4.854   0.788   6.907  0.8238  0.2462 -1.7009
  159SAPE   C3517795   4.995   0.639   6.982  0.5583 -0.4648  0.4704
  159SAPE   H5X17796   5.053   0.640   6.887 -3.1009 -0.3740 -1.9414
  159SAPE   H5Y17797   4.983   0.535   7.019  0.8597 -0.5542  0.3185
  159SAPE   C3617798   5.055   0.728   7.092  0.1466 -0.1886 -0.4920
  159SAPE   H6X17799   5.000   0.722   7.188 -0.4446  1.1297 -0.7287
  159SAPE   H6Y17800   5.060   0.835   7.061  1.4148 -0.0154  0.2211
  159SAPE   C3717801   5.193   0.681   7.137  0.5215  0.6723  0.0375
  159SAPE   H7X17802   5.241   0.621   7.057  1.6183  0.2943  0.9441
  159SAPE   H7Y17803   5.182   0.610   7.222  1.3121  1.7570  1.0921
  159SAPE   C3817804   5.289   0.786   7.192 -0.1147 -0.1913  0.0213
  159SAPE   H8X17805   5.326   0.850   7.109  1.8034  0.8265  1.5514
  159SAPE   H8Y17806   5.375   0.728   7.233 -1.2800 -2.1802 -0.2126
  159SAPE   C3917807   5.226   0.874   7.298  0.2773 -0.2819  0.6936
  159SAPE   H9X17808   5.162   0.815   7.367  1.6143 -2.0869  0.4630
  159SAPE   H9Y17809   5.154   0.945   7.251 -0.8210 -1.5595  0.4048
  159SAPE  C31017810   5.330   0.957   7.383  0.6015  0.6384 -0.4983
  159SAPE  H10X17811   5.384   1.025   7.314  2.5811 -1.3313 -1.0027
  159SAPE  H10Y17812   5.408   0.884   7.415  0.2228 -0.8927 -2.8193
  159SAPE  C31117813   5.259   1.034   7.493 -0.2599  0.3958  0.2149
  159SAPE  H11X17814   5.153   1.043   7.464 -0.4917 -1.2112  0.4447
  159SAPE  H11Y17815   5.308   1.128   7.525  0.6607  0.2098 -0.5860
  159SAPE  C31217816   5.238   0.950   7.623 -0.3514  0.0235  0.0537
  159SAPE  H12X17817   5.209   0.846   7.598 -1.6046  0.6832 -1.3714
  159SAPE  H12Y17818   5.153   0.996   7.677 -0.4385 -2.2065  1.9662
  159SAPE  C31317819   5.369   0.946   7.710  0.1237  0.1869 -0.8170
  159SAPE  H13X17820   5.437   1.031   7.687 -1.6471  1.7097 -0.6362
  159SAPE  H13Y17821   5.426   0.856   7.680 -0.9120 -0.8631  0.2480
  159SAPE  C31417822   5.351   0.924   7.860 -0.1113  0.0588 -0.1701
  159SAPE  H14X17823   5.444   0.887   7.908 -1.2065 -0.2014  1.8571
  159SAPE  H14Y17824   5.282   0.839   7.875  1.2932 -0.8680  1.4627
  159SAPE  C31517825   5.314   1.059   7.937  0.0105  0.8542  0.1900
  159SAPE  H15X17826   5.301   1.032   8.043  4.0976 -1.0344  0.4080
  159SAPE  H15Y17827   5.221   1.098   7.890 -1.1747 -3.4309 -1.4447
  159SAPE  C31617828   5.420   1.173   7.930 -0.5783  0.4207  0.0921
  159SAPE  H16X17829   5.396   1.259   7.997 -1.5636  1.8510 -1.9918
  159SAPE  H16Y17830   5.426   1.219   7.829  0.7635 -1.1623 -0.5864
  159SAPE  C31717831   5.569   1.127   7.955  0.3868  0.8973  0.0962
  159SAPE  H17X17832   5.592   1.079   7.857 -1.8906  1.5878 -0.8279
  159SAPE  H17Y17833   5.567   1.052   8.036  0.1019  0.5483 -0.2309
  159SAPE  C31817834   5.676   1.236   7.975 -0.1553 -0.2162  0.0613
  159SAPE  H18X17835   5.666   1.284   8.075  2.3324  0.7012 -0.0781
  159SAPE  H18Y17836   5.672   1.314   7.896  0.7351 -0.3292 -0.0998
  159SAPE  H18Z17837   5.775   1.187   7.981  0.5496  1.1942  0.1777
  160SAPE     N17838   4.657   4.787   6.204  0.2790 -0.4511  0.0666
  160SAPE   HN117839   4.618   4.801   6.300  1.4870  0.9902  0.3746
  160SAPE   HN217840   4.755   4.771   6.234  1.2636  2.9647 -0.9104
  160SAPE   HN317841   4.656   4.879   6.156  0.3141 -0.6359 -0.2948
  160SAPE   C1217842   4.593   4.672   6.132  0.0459 -0.1098 -0.2124
  160SAPE  H12A17843   4.658   4.662   6.043  0.6299  1.5828 -0.0210
  160SAPE  H12B17844   4.486   4.686   6.107  0.3493 -1.0602 -2.1922
  160SAPE   C1117845   4.596   4.556   6.222  0.3769  0.0442  0.6304
  160SAPE  H11A17846   4.529   4.481   6.175  0.7039  0.0906  0.0844
  160SAPE  H11B17847   4.552   4.576   6.322 -1.0568 -0.5605  0.1459
  160SAPE     P17848   4.736   4.347   6.289  0.0809 -0.2114  0.4291
  160SAPE   O1317849   4.644   4.260   6.202 -0.3582 -0.4402 -0.1434
  160SAPE   O1417850   4.880   4.310   6.291 -0.4627 -0.2785 -0.5310
  160SAPE   O1217851   4.727   4.498   6.245  0.5918 -0.5833  0.0472
  160SAPE   O1117852   4.688   4.350   6.439  0.7871  0.5123  0.2240
  160SAPE    C117853   4.724   4.456   6.530 -0.3717 -0.2648  0.0250
  160SAPE    HA17854   4.834   4.451   6.547 -0.2871  1.5701  0.2541
  160SAPE    HB17855   4.690   4.555   6.491 -1.2073 -0.5195  0.0805
  160SAPE    C217856   4.649   4.456   6.662 -0.6816 -0.4891 -0.5936
  160SAPE    HS17857   4.674   4.552   6.711  0.3831 -0.4926 -1.0973
  160SAPE   O2117858   4.689   4.356   6.746  0.5581  0.4807  0.6456
  160SAPE   C2117859   4.789   4.382   6.828 -0.1423  0.1517 -0.3907
  160SAPE   O2217860   4.855   4.484   6.832 -0.2488  0.3102  0.3267
  160SAPE   C2217861   4.824   4.249   6.901  0.5497 -0.1066 -0.0929
  160SAPE   H2R17862   4.916   4.217   6.847  1.3897  1.7861  0.1402
  160SAPE   H2S17863   4.864   4.276   7.001  0.1094 -2.6110  0.8177
  160SAPE    C317864   4.499   4.460   6.645  0.2066  0.4450 -0.2435
  160SAPE    HX17865   4.483   4.352   6.625  0.1239  0.3595  0.2527
  160SAPE    HY17866   4.470   4.518   6.555 -2.7918 -1.6956 -0.8201
  160SAPE   O3117867   4.425   4.493   6.762 -0.2222 -0.2814  0.3316
  160SAPE   C3117868   4.413   4.629   6.766 -0.5652  0.1425 -0.0860
  160SAPE   O3217869   4.441   4.708   6.674 -0.3143  0.5216 -0.6941
  160SAPE   C3217870   4.320   4.668   6.883 -0.1310 -0.1851 -0.1139
  160SAPE   H2X17871   4.214   4.666   6.851 -1.3984  3.0247  3.1247
  160SAPE   H2Y17872   4.337   4.776   6.906 -0.3383  0.3278 -2.2208
  160SAPE   C2317873   4.724   4.128   6.916  0.3639  0.3246 -0.3538
  160SAPE   H3R17874   4.788   4.037   6.910 -2.5921 -1.9374  0.3322
  160SAPE   H3S17875   4.653   4.125   6.831 -0.2051 -2.2851  0.1423
  160SAPE   C2417876   4.660   4.117   7.059 -0.0309 -0.7963 -0.0519
  160SAPE   H4R17877   4.742   4.110   7.135  1.4347 -1.2409 -1.6066
  160SAPE   H4S17878   4.603   4.022   7.050 -0.3745 -0.9060  2.5077
  160SAPE   C2517879   4.552   4.219   7.076 -0.0427 -0.3465 -0.6210
  160SAPE   H5R17880   4.509   4.250   6.980  0.8859  0.9317 -0.6473
  160SAPE   C2617881   4.519   4.273   7.194 -0.6389  0.1376  0.3332
  160SAPE   H6R17882   4.461   4.366   7.198 -0.1691  0.4112  0.9961
  160SAPE   C2717883   4.592   4.239   7.325 -0.0493  0.2868  0.9403
  160SAPE   H7R17884   4.643   4.140   7.334  0.0110  0.4001  1.9545
  160SAPE   H7S17885   4.507   4.249   7.396 -0.3974 -1.5368  0.8394
  160SAPE   C2817886   4.690   4.343   7.364  0.4944 -1.1514 -1.2129
  160SAPE   H8R17887   4.726   4.415   7.289 -1.4307 -0.0756 -1.1778
  160SAPE   C2917888   4.747   4.349   7.491  0.3127 -0.4869  0.3292
  160SAPE   H9R17889   4.808   4.435   7.522  0.3538 -0.0484 -0.9002
  160SAPE  C21017890   4.724   4.259   7.608  0.4280 -0.6751 -0.9665
  160SAPE  H10R17891   4.805   4.288   7.678 -0.4496  0.9712 -0.5869
  160SAPE  H10S17892   4.741   4.154   7.575  0.4079 -1.3632  1.0571
  160SAPE  C21117893   4.593   4.263   7.680 -0.1307  0.5188  0.0502
  160SAPE  H11R17894   4.503   4.242   7.619  0.6580 -1.2424 -0.5603
  160SAPE  C21217895   4.561   4.316   7.801  0.9229 -0.0913  0.1713
  160SAPE  H12R17896   4.462   4.318   7.848  0.5751 -2.3344 -0.3404
  160SAPE  C21317897   4.655   4.381   7.893 -1.0980  0.6205  0.7945
  160SAPE  H13R17898   4.631   4.490   7.895 -1.3962  0.7241 -2.4509
  160SAPE  H13S17899   4.761   4.374   7.860 -1.7045 -2.0826 -0.8951
  160SAPE  C21417900   4.662   4.314   8.026 -0.4407  0.2218  0.0316
  160SAPE  H14R17901   4.586   4.240   8.054  0.2142  0.5966  3.2758
  160SAPE  C21517902   4.742   4.346   8.124 -0.0904 -0.1091 -0.2254
  160SAPE  H15R17903   4.721   4.309   8.225  0.0290  3.0240  1.0811
  160SAPE  C21617904   4.840   4.456   8.124  0.0013 -0.0016 -0.3786
  160SAPE  H16R17905   4.883   4.478   8.024 -0.0929  0.6270 -0.2823
  160SAPE  H16S17906   4.928   4.417   8.180 -0.4188  0.9895  1.0248
  160SAPE  C21717907   4.802   4.574   8.200  0.3993 -0.0932 -0.2117
  160SAPE  H17R17908   4.705   4.621   8.174  1.6489  3.2101  0.6427
  160SAPE  H17S17909   4.868   4.657   8.167 -1.1346  1.5619  0.6943
  160SAPE  C21817910   4.817   4.564   8.356  0.8970 -0.2867 -0.1143
  160SAPE  H18R17911   4.889   4.483   8.379  1.0931  0.0501  0.4900
  160SAPE  H18S17912   4.716   4.549   8.399 -0.6272  2.3899 -2.4287
  160SAPE  C21917913   4.877   4.681   8.434  0.0800 -0.0749  1.0415
  160SAPE  H19R17914   4.838   4.770   8.381  1.3405  0.1922  0.5305
  160SAPE  H19S17915   4.988   4.682   8.430  0.0513  0.7347  0.1657
  160SAPE  C22017916   4.840   4.692   8.574 -0.1159 -0.0016 -0.4958
  160SAPE  H20R17917   4.733   4.679   8.602 -0.1213 -0.4608 -0.7320
  160SAPE  H20S17918   4.866   4.784   8.631 -0.6672 -0.9603  1.4038
  160SAPE  H20T17919   4.901   4.617   8.628 -0.8816  0.4948  1.1468
  160SAPE   C3317920   4.354   4.588   7.010  0.2171 -0.0120  0.1974
  160SAPE   H3X17921   4.464   4.605   7.021 -0.1470  3.1673  0.0099
  160SAPE   H3Y17922   4.342   4.478   6.999  1.1013  0.0347 -1.5678
  160SAPE   C3417923   4.283   4.627   7.144 -0.2657 -0.1833 -0.3725
  160SAPE   H4X17924   4.177   4.595   7.138  0.3079 -1.9624 -2.4116
  160SAPE   H4Y17925   4.285   4.738   7.148 -0.2372 -0.0936 -2.0871
  160SAPE   C3517926   4.355   4.577   7.273 -0.2072 -0.1766  0.2420
  160SAPE   H5X17927   4.464   4.587   7.258 -0.4963 -0.1963 -2.1951
  160SAPE   H5Y17928   4.342   4.467   7.274  2.2653 -0.5516 -1.3598
  160SAPE   C3617929   4.296   4.648   7.392 -0.4948 -0.4190  0.3407
  160SAPE   H6X17930   4.186   4.652   7.389 -0.4657  0.5769 -2.8807
  160SAPE   H6Y17931   4.333   4.752   7.399  1.8397 -1.0724 -1.1278
  160SAPE   C3717932   4.339   4.594   7.530 -0.0857 -0.0379  0.0321
  160SAPE   H7X17933   4.447   4.570   7.542  0.1360  1.1076  0.4991
  160SAPE   H7Y17934   4.285   4.497   7.540 -0.5401  0.1340 -0.6711
  160SAPE   C3817935   4.294   4.671   7.654 -0.0124 -0.0511 -0.1141
  160SAPE   H8X17936   4.184   4.689   7.652 -0.3743 -2.0145 -1.3440
  160SAPE   H8Y17937   4.349   4.766   7.640  1.4073 -0.7317  0.5921
  160SAPE   C3917938   4.336   4.609   7.779 -0.3556 -0.0848  1.0016
  160SAPE   H9X17939   4.447   4.611   7.786 -0.2577 -0.1588 -0.2712
  160SAPE   H9Y17940   4.315   4.500   7.784 -1.6960  0.0482 -0.7481
  160SAPE  C31017941   4.281   4.675   7.905  0.0155 -0.1017 -0.1577
  160SAPE  H10X17942   4.172   4.656   7.904  0.1172 -0.8855  1.0732
  160SAPE  H10Y17943   4.296   4.784   7.889 -2.4158  0.1266 -1.2624
  160SAPE  C31117944   4.341   4.631   8.038  0.1100 -0.1401  0.3470
  160SAPE  H11X17945   4.446   4.666   8.051  0.0459  0.6898 -1.1795
  160SAPE  H11Y17946   4.332   4.521   8.041  0.1872 -0.1901 -0.7887
  160SAPE  C31217947   4.267   4.682   8.162  0.1713 -0.3446 -0.7130
  160SAPE  H12X17948   4.158   4.657   8.163  0.3677 -1.6025  2.7473
  160SAPE  H12Y17949   4.288   4.790   8.171  2.5032 -0.8803  1.3077
  160SAPE  C31317950   4.316   4.616   8.294  0.7098 -0.6597  0.2980
  160SAPE  H13X17951   4.427   4.615   8.300  0.7084 -1.0646  0.3138
  160SAPE  H13Y17952   4.280   4.512   8.275 -0.0099 -0.6700  1.6130
  160SAPE  C31417953   4.260   4.680   8.424  0.0017 -0.3925  0.5884
  160SAPE  H14X17954   4.149   4.673   8.426 -0.1265  0.8767 -0.6826
  160SAPE  H14Y17955   4.271   4.790   8.430 -1.7950 -0.1859  0.7549
  160SAPE  C31517956   4.332   4.636   8.552  0.3850  0.0836  0.1691
  160SAPE  H15X17957   4.292   4.706   8.628 -0.3443  0.6651 -0.7336
  160SAPE  H15Y17958   4.442   4.639   8.539  0.5187  0.1185  1.2379
  160SAPE  C31617959   4.303   4.490   8.592  0.6085 -0.1029  0.5245
  160SAPE  H16X17960   4.329   4.424   8.506 -2.0043 -1.6470  0.8144
  160SAPE  H16Y17961   4.192   4.491   8.599  0.2517  4.2088 -2.0208
  160SAPE  C31717962   4.391   4.449   8.714  0.4539  0.0755 -0.0714
  160SAPE  H17X17963   4.355   4.508   8.801  0.8721  0.5086 -0.1883
  160SAPE  H17Y17964   4.497   4.466   8.685  0.5512 -1.2590 -0.5677
  160SAPE  C31817965   4.382   4.301   8.747  0.4529 -0.0923  0.5819
  160SAPE  H18X17966   4.393   4.245   8.652 -1.2435  1.3144 -0.5073
  160SAPE  H18Y17967   4.283   4.269   8.788  1.3475 -2.7354  0.8609
  160SAPE  H18Z17968   4.458   4.266   8.820  0.7864 -0.2787  0.1459
  161SOPE     N17969   2.510   1.126  10.513 -0.2302  0.2752 -0.0171
  161SOPE   HN117970   2.488   1.119  10.614  1.5954  0.0698  0.3906
  161SOPE   HN217971   2.607   1.090  10.504 -0.9142 -1.8834  0.7627
  161SOPE   HN317972   2.500   1.224  10.478 -0.4848  0.1036 -0.4340
  161SOPE   C1217973   2.420   1.037  10.432  0.0396  0.2397  0.3975
  161SOPE  H12A17974   2.431   0.940  10.485 -2.8635  0.5063  1.6708
  161SOPE  H12B17975   2.472   1.029  10.335 -0.6208  1.1960 -0.0549
  161SOPE   C1117976   2.272   1.079  10.418 -0.4387 -0.6181 -0.0271
  161SOPE  H11A17977   2.217   1.025  10.337  1.2738  0.4348 -1.9998
  161SOPE  H11B17978   2.257   1.187  10.393 -1.7726 -0.9291 -0.6872
  161SOPE     P17979   2.141   0.950  10.616  0.3477 -0.1431 -0.0918
  161SOPE   O1317980   2.066   0.997  10.729  0.4560  0.1985 -0.6290
  161SOPE   O1417981   2.237   0.851  10.652  0.0257  0.5571 -0.1434
  161SOPE   O1217982   2.211   1.071  10.551 -0.3848  0.4687 -0.3058
  161SOPE   O1117983   2.049   0.907  10.499 -0.2973  0.0032  0.7997
  161SOPE    C117984   1.989   0.774  10.487  0.8898 -0.4789 -0.6868
  161SOPE    HA17985   1.882   0.799  10.475  0.0986 -2.9163  0.4613
  161SOPE    HB17986   1.997   0.711  10.579 -1.9444 -1.8672 -1.2978
  161SOPE    C217987   2.048   0.709  10.365 -0.4743  1.1641  0.0142
  161SOPE    HS17988   2.158   0.710  10.382 -0.6272  1.8535  1.0818
  161SOPE   O2117989   2.012   0.775  10.247 -0.1016 -0.0318  0.2248
  161SOPE   C2117990   2.112   0.820  10.170  0.1891  0.2127  0.1355
  161SOPE   O2217991   2.227   0.817  10.200 -0.6844 -0.5695  0.6599
  161SOPE   C2217992   2.061   0.873  10.035  0.3481  0.2687  0.2302
  161SOPE   H2R17993   2.156   0.909   9.989  1.7490 -1.5382  1.5235
  161SOPE   H2S17994   1.990   0.956  10.056 -0.0798 -0.7580  3.4587
  161SOPE    C317995   2.010   0.554  10.361  0.3688  0.1800 -0.7793
  161SOPE    HX17996   1.901   0.539  10.355  0.3022 -0.3359  0.9689
  161SOPE    HY17997   2.026   0.502  10.458  0.2494 -0.2091 -0.9669
  161SOPE   O3117998   2.075   0.492  10.252 -0.5044 -0.4132 -0.1622
  161SOPE   C3117999   2.198   0.436  10.277  0.7258  0.4184  0.2537
  161SOPE   O3218000   2.252   0.443  10.382 -0.2018 -0.5705  0.4859
  161SOPE   C3218001   2.233   0.344  10.166 -0.1395 -0.2396 -0.1578
  161SOPE   H2X18002   2.159   0.263  10.150 -0.3399 -0.6406  2.3992
  161SOPE   H2Y18003   2.331   0.298  10.189  1.0424  1.7124 -1.0310
  161SOPE   C2318004   1.988   0.760   9.956 -0.1852 -0.1456 -0.1495
  161SOPE   H3R18005   1.888   0.735   9.999 -1.7735 -0.0410 -3.4226
  161SOPE   H3S18006   2.054   0.674   9.933  0.4593  0.0818  0.8081
  161SOPE   C2418007   1.948   0.800   9.813  0.4710  0.0529  0.3087
  161SOPE   H4R18008   1.886   0.892   9.803  1.1243  0.3371 -1.5592
  161SOPE   H4S18009   2.031   0.827   9.744  1.1161  1.8626  1.7138
  161SOPE   C2518010   1.866   0.678   9.752  0.2193 -0.3514  0.1967
  161SOPE   H5R18011   1.934   0.591   9.759 -0.1453 -0.4882  2.8072
  161SOPE   H5S18012   1.781   0.647   9.817  0.6797 -1.6810  0.1946
  161SOPE   C2618013   1.835   0.702   9.604 -0.0280 -0.1627  0.4432
  161SOPE   H6R18014   1.784   0.799   9.584  1.1849  0.2431 -0.8601
  161SOPE   H6S18015   1.932   0.719   9.553 -1.1707  0.6402 -1.5921
  161SOPE   C2718016   1.789   0.582   9.527  0.2036  0.0589  0.6296
  161SOPE   H7R18017   1.864   0.500   9.530 -0.6663 -0.8257 -0.7067
  161SOPE   H7S18018   1.693   0.545   9.567  1.1566 -2.1460  1.0488
  161SOPE   C2818019   1.760   0.612   9.377 -0.5652 -0.1976 -0.3860
  161SOPE   H8R18020   1.718   0.516   9.339 -0.3096 -1.1655  1.6294
  161SOPE   H8S18021   1.686   0.694   9.365 -0.5047 -0.0282  0.3973
  161SOPE   C2918022   1.883   0.643   9.297 -0.1143  0.3081  0.1115
  161SOPE   H9118023   1.977   0.647   9.353 -0.8833  0.3356  1.4368
  161SOPE  C21018024   1.889   0.663   9.158  0.0945  0.1161  0.1022
  161SOPE  H10118025   1.989   0.665   9.112 -0.0951 -2.6568 -0.6431
  161SOPE  C21118026   1.775   0.658   9.060  0.4129 -0.1917  0.1478
  161SOPE  H11R18027   1.728   0.755   9.036 -0.4986 -1.1987 -2.6603
  161SOPE  H11S18028   1.687   0.592   9.079  0.3202 -0.5001 -1.1997
  161SOPE  C21218029   1.833   0.617   8.924 -0.1328  0.0298 -0.0406
  161SOPE  H12R18030   1.887   0.520   8.920 -0.7942 -0.3668  0.3429
  161SOPE  H12S18031   1.889   0.707   8.892 -0.0552 -0.2623 -0.7497
  161SOPE  C21318032   1.713   0.591   8.824  0.0050  0.6681 -0.0239
  161SOPE  H13R18033   1.650   0.682   8.812 -1.1539  0.1205  1.6187
  161SOPE  H13S18034   1.652   0.511   8.872 -0.8917  1.0107 -0.5663
  161SOPE  C21418035   1.761   0.568   8.684 -0.1730 -0.1319  0.7360
  161SOPE  H14R18036   1.825   0.478   8.690 -0.7920 -0.5120  1.8383
  161SOPE  H14S18037   1.837   0.646   8.663 -1.0277  0.7789  0.9140
  161SOPE  C21518038   1.661   0.558   8.563 -0.6864  0.2931 -0.6644
  161SOPE  H15R18039   1.602   0.652   8.570 -1.0747 -0.0333  0.9897
  161SOPE  H15S18040   1.592   0.472   8.575  0.3384 -0.5257 -0.4589
  161SOPE  C21618041   1.731   0.536   8.425  0.1839 -0.4529 -0.3227
  161SOPE  H16R18042   1.769   0.435   8.401  0.3064 -0.7029  0.8579
  161SOPE  H16S18043   1.818   0.604   8.413  0.3199 -0.5498  0.1187
  161SOPE  C21718044   1.624   0.573   8.315 -0.4186 -0.0176  0.1008
  161SOPE  H17R18045   1.582   0.675   8.328  1.9573  1.2003 -1.1374
  161SOPE  H17S18046   1.543   0.497   8.314 -0.8178  0.4016  0.0949
  161SOPE  C21818047   1.699   0.578   8.185  0.6522  0.7588  0.6987
  161SOPE  H18R18048   1.782   0.652   8.192  0.7677  0.7434 -0.4063
  161SOPE  H18S18049   1.625   0.615   8.111  1.4056 -1.5839 -1.3548
  161SOPE  H18T18050   1.738   0.475   8.170  0.0833  0.8459 -1.8528
  161SOPE   C3318051   2.242   0.410  10.027  0.5252  0.0057  0.3010
  161SOPE   H3X18052   2.197   0.511  10.015  2.4637  0.6791 -2.1946
  161SOPE   H3Y18053   2.193   0.337   9.958 -1.4364  1.0989  0.4553
  161SOPE   C3418054   2.391   0.426   9.969 -0.4428  0.1864 -0.4821
  161SOPE   H4X18055   2.451   0.337   9.998  0.6825  1.2520  0.6311
  161SOPE   H4Y18056   2.443   0.505  10.028 -0.3554 -0.5699  0.4749
  161SOPE   C3518057   2.388   0.459   9.819  0.1843 -0.0291 -0.5680
  161SOPE   H5X18058   2.317   0.389   9.769 -0.8881  1.1831 -0.7935
  161SOPE   H5Y18059   2.491   0.444   9.780  0.3314 -1.2454  0.2260
  161SOPE   C3618060   2.317   0.594   9.782 -0.2545 -0.0407 -0.0063
  161SOPE   H6X18061   2.398   0.665   9.808 -0.7789 -0.1248  2.0584
  161SOPE   H6Y18062   2.232   0.624   9.847  0.7255  2.1623  0.3652
  161SOPE   C3718063   2.263   0.588   9.635 -0.4934  0.1588  0.0697
  161SOPE   H7X18064   2.208   0.683   9.618 -0.9384  0.1142  1.1431
  161SOPE   H7Y18065   2.191   0.505   9.621 -0.4368  0.5283 -3.1933
  161SOPE   C3818066   2.388   0.586   9.547 -0.0846 -0.3113  1.1901
  161SOPE   H8X18067   2.441   0.489   9.558  1.5901  0.5771  1.2619
  161SOPE   H8Y18068   2.461   0.656   9.593 -0.6637  1.2156 -0.1338
  161SOPE   C3918069   2.368   0.604   9.396  0.4515 -0.5427  0.6353
  161SOPE   H9X18070   2.369   0.713   9.371 -2.2629 -0.6707 -0.3276
  161SOPE   H9Y18071   2.265   0.579   9.365  1.4795 -2.6735 -1.2718
  161SOPE  C31018072   2.458   0.520   9.293  0.3270 -0.2554 -0.3762
  161SOPE  H10X18073   2.428   0.414   9.309 -0.5636 -0.2977 -2.1299
  161SOPE  H10Y18074   2.567   0.518   9.317  0.3883 -0.7832 -0.6867
  161SOPE  C31118075   2.437   0.556   9.144  0.0047 -0.4459  0.1887
  161SOPE  H11X18076   2.511   0.509   9.077 -1.4043 -1.3462 -0.7941
  161SOPE  H11Y18077   2.448   0.666   9.135  0.3878 -0.1451  3.2487
  161SOPE  C31218078   2.293   0.532   9.101  0.7860  0.2345  0.0464
  161SOPE  H12X18079   2.234   0.595   9.171 -0.8241 -0.7008 -0.4145
  161SOPE  H12Y18080   2.273   0.424   9.118 -0.9967  0.4689 -0.3657
  161SOPE  C31318081   2.276   0.563   8.957 -1.1047  0.2128 -1.2690
  161SOPE  H13X18082   2.377   0.576   8.915  0.1752 -0.5024  1.3553
  161SOPE  H13Y18083   2.230   0.661   8.932 -1.1092  0.1089 -1.6647
  161SOPE  C31418084   2.195   0.459   8.879  0.3495  0.1636  0.0469
  161SOPE  H14X18085   2.094   0.458   8.926 -0.5313  2.1878 -1.6447
  161SOPE  H14Y18086   2.255   0.366   8.888 -0.3416 -0.3089 -0.0734
  161SOPE  C31518087   2.175   0.487   8.733  0.3705 -0.2022 -0.1262
  161SOPE  H15X18088   2.130   0.588   8.720 -0.3508 -0.4794  0.1747
  161SOPE  H15Y18089   2.100   0.419   8.688  0.3460 -0.5466  0.4240
  161SOPE  C31618090   2.305   0.479   8.653 -0.5764 -0.5339  0.8126
  161SOPE  H16X18091   2.331   0.373   8.632  3.8280  0.9634 -2.6729
  161SOPE  H16Y18092   2.384   0.528   8.713  1.8132 -0.9191 -1.8379
  161SOPE  C31718093   2.314   0.575   8.535  0.1910 -0.3089 -1.5043
  161SOPE  H17X18094   2.223   0.560   8.472 -0.4563  0.8962 -0.8779
  161SOPE  H17Y18095   2.401   0.552   8.469  0.8827 -0.6708 -0.4847
  161SOPE  C31818096   2.327   0.722   8.577 -0.2093  0.4932  0.2257
  161SOPE  H18X18097   2.241   0.760   8.636 -0.1824 -0.9220  1.2516
  161SOPE  H18Y18098   2.336   0.771   8.478 -2.8874 -1.7540 -1.2803
  161SOPE  H18Z18099   2.416   0.720   8.644  0.3259 -0.0830 -0.4761
  162SOPE     N18100   1.438   2.419  11.376 -0.4099  0.9805 -0.3718
  162SOPE   HN118101   1.482   2.335  11.417  0.7481  0.7235 -2.0479
  162SOPE   HN218102   1.511   2.487  11.347 -1.3735  1.6120 -1.4422
  162SOPE   HN318103   1.394   2.472  11.454 -0.9240  1.6424 -1.0962
  162SOPE   C1218104   1.341   2.401  11.261 -0.0428 -0.4125 -0.0576
  162SOPE  H12A18105   1.307   2.501  11.227 -3.1728 -0.9831  1.0131
  162SOPE  H12B18106   1.250   2.351  11.302 -0.5086  0.4131 -0.0577
  162SOPE   C1118107   1.389   2.323  11.134  0.3236 -0.2548  0.3314
  162SOPE  H11A18108   1.302   2.305  11.066  0.9068  0.2021 -0.5533
  162SOPE  H11B18109   1.437   2.231  11.172  0.0521 -0.2742  0.6328
  162SOPE     P18110   1.581   2.328  10.957 -0.1958 -0.0278  0.0919
  162SOPE   O1318111   1.681   2.252  11.031  0.1938  0.0811 -0.0828
  162SOPE   O1418112   1.627   2.432  10.862  0.5715 -0.7132 -0.3771
  162SOPE   O1218113   1.486   2.398  11.056  0.4521 -0.4472 -0.4042
  162SOPE   O1118114   1.489   2.217  10.896 -0.0594 -0.2630 -0.0489
  162SOPE    C118115   1.542   2.102  10.826  0.2726 -0.6140 -0.2280
  162SOPE    HA18116   1.470   2.026  10.788  1.1815 -0.6744 -1.9572
  162SOPE    HB18117   1.607   2.038  10.889 -2.4205 -3.6897 -0.3198
  162SOPE    C218118   1.625   2.138  10.700  0.0067 -0.8405 -0.0275
  162SOPE    HS18119   1.706   2.201  10.743 -0.7432 -0.5229  0.9696
  162SOPE   O2118120   1.543   2.230  10.615 -0.3008 -0.8018  0.0581
  162SOPE   C2118121   1.615   2.314  10.547  0.6725  0.6234  0.6954
  162SOPE   O2218122   1.738   2.323  10.548  0.4969  0.0205 -0.0224
  162SOPE   C2218123   1.528   2.415  10.475  0.1161  0.8084 -0.5710
  162SOPE   H2R18124   1.524   2.507  10.538 -2.1967  1.1121 -1.0848
  162SOPE   H2S18125   1.423   2.379  10.485  0.7737 -0.6841  2.0270
  162SOPE    C318126   1.693   2.015  10.639 -0.3261  0.0011  0.4465
  162SOPE    HX18127   1.760   1.976  10.718  0.3077  0.6332  0.2219
  162SOPE    HY18128   1.763   2.051  10.561  0.2221 -0.6289  0.6425
  162SOPE   O3118129   1.609   1.904  10.597  0.2507  0.0710 -0.0650
  162SOPE   C3118130   1.557   1.900  10.471 -0.8398  0.1308 -0.6132
  162SOPE   O3218131   1.562   1.991  10.393 -0.5801  0.1609  0.2534
  162SOPE   C3218132   1.497   1.762  10.438  0.2123 -0.2307  0.1786
  162SOPE   H2X18133   1.445   1.728  10.530  1.1951 -1.2541  0.3795
  162SOPE   H2Y18134   1.569   1.686  10.401 -1.1630 -0.8381 -1.3907
  162SOPE   C2318135   1.559   2.430  10.327 -0.4456 -0.2666 -0.0869
  162SOPE   H3R18136   1.535   2.341  10.265 -0.7424  0.6527 -1.3294
  162SOPE   H3S18137   1.669   2.446  10.319 -0.3832  0.0461  1.1551
  162SOPE   C2418138   1.488   2.550  10.259 -0.6435 -0.6169  0.6634
  162SOPE   H4R18139   1.377   2.541  10.260 -0.6479 -0.8561 -0.5355
  162SOPE   H4S18140   1.509   2.650  10.301  2.9178 -0.0793 -1.8875
  162SOPE   C2518141   1.524   2.550  10.111 -0.1896  0.2634 -0.2201
  162SOPE   H5R18142   1.521   2.446  10.072  1.8241 -1.0368  2.7617
  162SOPE   H5S18143   1.451   2.606  10.049 -0.5868 -2.3919 -2.3799
  162SOPE   C2618144   1.655   2.622  10.081  0.1172 -0.5135  0.6577
  162SOPE   H6R18145   1.647   2.733  10.075 -1.2740 -0.6760 -1.2991
  162SOPE   H6S18146   1.730   2.590  10.156  0.8023 -1.7951 -0.5287
  162SOPE   C2718147   1.718   2.580   9.940 -0.8678 -0.3077 -0.6020
  162SOPE   H7R18148   1.742   2.471   9.947 -2.5753 -0.7924 -1.6029
  162SOPE   H7S18149   1.639   2.590   9.862 -0.1318  1.6115 -1.1461
  162SOPE   C2818150   1.850   2.641   9.903 -0.5113 -0.1834  0.2453
  162SOPE   H8R18151   1.924   2.638   9.986 -2.7198 -0.0732  2.3315
  162SOPE   H8S18152   1.892   2.591   9.814  1.7204  0.2389  0.9771
  162SOPE   C2918153   1.817   2.782   9.866 -0.3038 -0.7272 -0.8853
  162SOPE   H9118154   1.806   2.835   9.961  1.1178 -1.6993 -0.1366
  162SOPE  C21018155   1.799   2.844   9.748  0.4675 -0.0464 -0.6114
  162SOPE  H10118156   1.777   2.951   9.755  2.4274  0.2980  1.9965
  162SOPE  C21118157   1.803   2.773   9.612 -0.3007  0.1758  0.4647
  162SOPE  H11R18158   1.708   2.734   9.568  1.4733 -0.3330 -3.3138
  162SOPE  H11S18159   1.863   2.679   9.620 -0.2069  0.1227 -0.6558
  162SOPE  C21218160   1.858   2.865   9.505 -0.2034  0.8497 -0.2845
  162SOPE  H12R18161   1.962   2.898   9.524 -0.2603  1.3820 -0.8574
  162SOPE  H12S18162   1.789   2.950   9.485 -0.9204  0.1045 -1.0329
  162SOPE  C21318163   1.871   2.787   9.374 -0.2584 -0.5524  0.0079
  162SOPE  H13R18164   1.776   2.732   9.356  0.6153 -2.4164  0.8009
  162SOPE  H13S18165   1.943   2.706   9.399  1.3113  0.8211  0.0704
  162SOPE  C21418166   1.928   2.870   9.262  0.0135 -0.3866 -0.0912
  162SOPE  H14R18167   2.029   2.902   9.294 -0.4005  1.3926 -0.4596
  162SOPE  H14S18168   1.865   2.961   9.248  1.7273  0.8192 -0.3427
  162SOPE  C21518169   1.949   2.790   9.132  0.0221  0.2992  0.5649
  162SOPE  H15R18170   1.848   2.759   9.098 -0.0081  1.1230 -0.1465
  162SOPE  H15S18171   2.027   2.712   9.147 -1.6711 -1.4889  0.3976
  162SOPE  C21618172   1.988   2.889   9.015 -0.4815 -0.3094 -0.2965
  162SOPE  H16R18173   2.087   2.929   9.046 -0.2687  0.5427 -1.9765
  162SOPE  H16S18174   1.912   2.968   9.031 -0.3260  0.8332 -4.2637
  162SOPE  C21718175   1.996   2.853   8.873  0.7947 -0.2099  0.7607
  162SOPE  H17R18176   2.026   2.938   8.807  1.7104 -2.2293 -1.5787
  162SOPE  H17S18177   1.898   2.815   8.837  1.4310 -0.5437 -0.6892
  162SOPE  C21818178   2.091   2.741   8.856 -0.3774  0.7098  0.5341
  162SOPE  H18R18179   2.102   2.711   8.750 -1.3307 -0.9850  0.8885
  162SOPE  H18S18180   2.061   2.645   8.902 -1.2359  0.1698 -1.0646
  162SOPE  H18T18181   2.187   2.784   8.894 -0.0549  1.5017 -1.0704
  162SOPE   C3318182   1.395   1.773  10.319  0.1014 -0.2753 -0.6227
  162SOPE   H3X18183   1.450   1.822  10.236  0.3448  0.4705 -0.0395
  162SOPE   H3Y18184   1.308   1.836  10.347 -0.8330 -2.0470  0.6645
  162SOPE   C3418185   1.342   1.633  10.270  0.2704  0.8053 -0.0527
  162SOPE   H4X18186   1.274   1.588  10.345  0.0430  4.1319  1.9307
  162SOPE   H4Y18187   1.426   1.561  10.264 -1.7531 -2.0071  2.5438
  162SOPE   C3518188   1.280   1.653  10.130 -0.6405 -0.1474 -0.1935
  162SOPE   H5X18189   1.345   1.728  10.080  2.4311 -2.0827  0.5960
  162SOPE   H5Y18190   1.180   1.699  10.134 -1.3336 -1.5552 -0.5532
  162SOPE   C3618191   1.281   1.532  10.045  0.6868  0.8141  0.0235
  162SOPE   H6X18192   1.213   1.450  10.076 -1.3389  2.6592  0.7216
  162SOPE   H6Y18193   1.379   1.480  10.033  0.2050 -0.5792  1.7797
  162SOPE   C3718194   1.236   1.567   9.893 -0.1508 -0.1094 -0.2048
  162SOPE   H7X18195   1.329   1.591   9.837 -0.3912  1.6858  0.1011
  162SOPE   H7Y18196   1.170   1.655   9.905 -0.6956 -0.4910 -0.3671
  162SOPE   C3818197   1.181   1.453   9.811  0.1347 -0.3815 -0.4610
  162SOPE   H8X18198   1.084   1.423   9.857 -0.2266  1.9383  0.4158
  162SOPE   H8Y18199   1.253   1.369   9.806  1.2807  0.5338  0.2633
  162SOPE   C3918200   1.139   1.518   9.674  0.0536  0.1394 -0.2238
  162SOPE   H9X18201   1.083   1.610   9.702  1.0006  0.5364  0.4337
  162SOPE   H9Y18202   1.075   1.454   9.609  0.2580  1.0496 -1.3587
  162SOPE  C31018203   1.253   1.551   9.585 -0.2090  0.1204 -0.0338
  162SOPE  H10X18204   1.308   1.456   9.567  0.5654  0.3444  1.0874
  162SOPE  H10Y18205   1.334   1.615   9.626  1.6945 -1.6790 -0.7879
  162SOPE  C31118206   1.222   1.623   9.447 -0.1650  0.2796 -0.3710
  162SOPE  H11X18207   1.311   1.681   9.414 -0.1752  1.5184  1.6207
  162SOPE  H11Y18208   1.142   1.699   9.464 -1.6753 -1.0438 -1.3073
  162SOPE  C31218209   1.184   1.531   9.330  0.1888  0.5188  0.2201
  162SOPE  H12X18210   1.109   1.581   9.265 -0.2837 -2.1841 -1.4459
  162SOPE  H12Y18211   1.136   1.440   9.373  2.2735 -0.3293  0.8896
  162SOPE  C31318212   1.302   1.493   9.228 -0.0023 -0.4072 -0.9256
  162SOPE  H13X18213   1.365   1.428   9.292  0.4370  1.6880  0.8815
  162SOPE  H13Y18214   1.349   1.592   9.206 -0.1219  0.4312  2.1443
  162SOPE  C31418215   1.246   1.420   9.107  0.9860  0.2500  0.1414
  162SOPE  H14X18216   1.156   1.465   9.060  1.8968 -0.3458 -2.3200
  162SOPE  H14Y18217   1.225   1.315   9.136 -4.4993  1.0570  0.1929
  162SOPE  C31518218   1.350   1.434   9.001 -0.1890 -0.1278  0.3973
  162SOPE  H15X18219   1.441   1.386   9.044  0.2045  1.1330  1.0236
  162SOPE  H15Y18220   1.380   1.537   8.974 -1.8388 -0.2041 -2.0098
  162SOPE  C31618221   1.313   1.356   8.869  0.1730  0.4590 -0.0132
  162SOPE  H16X18222   1.217   1.393   8.825 -0.0019 -0.1117 -0.1160
  162SOPE  H16Y18223   1.309   1.253   8.911  2.4292  0.2058 -0.3130
  162SOPE  C31718224   1.421   1.355   8.756 -0.1196  1.0055 -0.0429
  162SOPE  H17X18225   1.419   1.264   8.692  1.8373 -0.0044  1.2187
  162SOPE  H17Y18226   1.525   1.357   8.795  1.5529  0.1275 -4.0163
  162SOPE  C31818227   1.404   1.471   8.662  0.8011 -0.4571  0.2603
  162SOPE  H18X18228   1.379   1.565   8.717  0.1632  0.1765 -1.0549
  162SOPE  H18Y18229   1.323   1.450   8.588  0.5761 -0.2988  0.4604
  162SOPE  H18Z18230   1.492   1.492   8.597 -0.8895 -1.2744 -2.4877
  163SOPE     N18231   1.030   4.538  10.563  0.5388  0.2945 -0.1639
  163SOPE   HN118232   0.951   4.595  10.600  1.0223  0.7240  0.2256
  163SOPE   HN218233   1.079   4.585  10.484  1.2366 -0.8116 -0.4137
  163SOPE   HN318234   0.998   4.446  10.528  1.1682  0.2227 -0.5628
  163SOPE   C1218235   1.126   4.511  10.676  0.2135 -0.7619 -0.4297
  163SOPE  H12A18236   1.098   4.413  10.719  1.6142 -2.1919 -2.5553
  163SOPE  H12B18237   1.113   4.595  10.748  2.5864  0.4511 -1.3182
  163SOPE   C1118238   1.275   4.495  10.627  0.4700 -0.1201 -0.9351
  163SOPE  H11A18239   1.271   4.467  10.520 -0.2558 -0.1518 -0.9067
  163SOPE  H11B18240   1.319   4.417  10.693  0.0514 -0.1737 -0.7144
  163SOPE     P18241   1.471   4.630  10.732  0.4768  0.1329  0.1825
  163SOPE   O1318242   1.474   4.527  10.840  0.0554 -0.0153  0.5126
  163SOPE   O1418243   1.480   4.768  10.788 -0.0415 -0.6810 -0.6673
  163SOPE   O1218244   1.341   4.618  10.647 -0.5912 -0.0328 -0.6840
  163SOPE   O1118245   1.581   4.612  10.624  0.5485  0.3625  0.6206
  163SOPE    C118246   1.604   4.694  10.511 -0.0538  0.2380 -0.2753
  163SOPE    HA18247   1.713   4.682  10.494  0.2937 -0.4756  2.1363
  163SOPE    HB18248   1.597   4.800  10.541 -1.7816 -0.4828  2.1783
  163SOPE    C218249   1.524   4.659  10.385  0.7179  0.3846 -0.0883
  163SOPE    HS18250   1.415   4.657  10.411  1.6184 -1.7828  4.7277
  163SOPE   O2118251   1.557   4.524  10.354 -0.2969  0.1897 -0.4667
  163SOPE   C2118252   1.470   4.459  10.274  0.5643  0.1164  0.1692
  163SOPE   O2218253   1.358   4.498  10.255  0.0842 -0.3528  0.4801
  163SOPE   C2218254   1.531   4.325  10.230  0.1715 -0.1670  0.0771
  163SOPE   H2R18255   1.548   4.260  10.318 -2.6517 -0.5628  0.4443
  163SOPE   H2S18256   1.621   4.356  10.173 -0.2555 -0.6942 -0.9009
  163SOPE    C318257   1.562   4.760  10.271  0.4606 -0.4125  0.2491
  163SOPE    HX18258   1.671   4.741  10.262  0.4814 -0.2887  0.2388
  163SOPE    HY18259   1.544   4.863  10.308  1.0280 -0.5171  0.8476
  163SOPE   O3118260   1.490   4.732  10.156  0.6981 -0.4273 -0.4915
  163SOPE   C3118261   1.394   4.806  10.103 -0.2744 -0.8150  0.7968
  163SOPE   O3218262   1.353   4.912  10.143 -0.1460 -0.8294  0.0645
  163SOPE   C3218263   1.353   4.743   9.969  0.2889 -0.4446  0.0003
  163SOPE   H2X18264   1.243   4.730   9.970  0.2141  0.1742  0.1033
  163SOPE   H2Y18265   1.405   4.646   9.956  1.9837  0.6641 -2.0147
  163SOPE   C2318266   1.431   4.247  10.144  0.1173  0.3070 -0.7726
  163SOPE   H3R18267   1.342   4.232  10.208  1.8914 -3.0272  1.1996
  163SOPE   H3S18268   1.475   4.145  10.134 -0.6326 -0.1367  0.3645
  163SOPE   C2418269   1.405   4.295  10.004  0.5251  0.1181  0.3941
  163SOPE   H4R18270   1.382   4.404   9.991  0.0680 -0.2731 -2.9407
  163SOPE   H4S18271   1.494   4.266   9.945  1.6737  2.0959  1.0605
  163SOPE   C2518272   1.284   4.225   9.946  0.2346 -0.7143  0.1309
  163SOPE   H5R18273   1.267   4.128   9.997 -2.4174 -0.4045 -0.0006
  163SOPE   H5S18274   1.192   4.286   9.957  0.1486 -0.7790 -0.2181
  163SOPE   C2618275   1.298   4.210   9.791 -0.8341  0.4196 -0.3627
  163SOPE   H6R18276   1.378   4.133   9.776 -0.0790  0.7863  1.4755
  163SOPE   H6S18277   1.200   4.168   9.759  0.5593 -2.4550 -1.2142
  163SOPE   C2718278   1.339   4.338   9.715 -0.3719  0.0717 -0.6955
  163SOPE   H7R18279   1.260   4.414   9.735  0.4976  0.7937  0.0861
  163SOPE   H7S18280   1.426   4.387   9.764  0.4381 -0.0763 -1.9465
  163SOPE   C2818281   1.354   4.324   9.561 -0.1328  0.0356  0.1024
  163SOPE   H8R18282   1.369   4.429   9.528  0.1303  0.1827  0.6937
  163SOPE   H8S18283   1.450   4.268   9.557  0.2681  0.6650  0.7768
  163SOPE   C2918284   1.237   4.244   9.497  0.6252  0.0587 -0.5818
  163SOPE   H9118285   1.207   4.148   9.542  2.0213  0.0016  0.2721
  163SOPE  C21018286   1.159   4.284   9.395 -0.7879 -0.4257  0.2934
  163SOPE  H10118287   1.075   4.219   9.367 -0.5875 -0.6598  0.2366
  163SOPE  C21118288   1.154   4.410   9.313  0.5980 -0.4202  0.3553
  163SOPE  H11R18289   1.202   4.499   9.358  1.2748 -0.7039  0.2063
  163SOPE  H11S18290   1.048   4.441   9.301  0.7510 -0.7511 -2.7970
  163SOPE  C21218291   1.212   4.387   9.176 -0.5451 -0.3574 -0.1280
  163SOPE  H12R18292   1.322   4.372   9.189 -0.7352 -1.7850 -0.0258
  163SOPE  H12S18293   1.213   4.483   9.120 -0.8911  0.5443  1.3602
  163SOPE  C21318294   1.149   4.273   9.092  0.0410  0.1378 -0.2209
  163SOPE  H13R18295   1.038   4.271   9.100 -0.1209  0.1993 -2.0126
  163SOPE  H13S18296   1.180   4.171   9.123  0.5077 -0.0955 -1.4250
  163SOPE  C21418297   1.181   4.289   8.942  0.6691 -0.1385  0.0334
  163SOPE  H14R18298   1.132   4.384   8.911 -1.1910 -1.2990 -0.7707
  163SOPE  H14S18299   1.125   4.211   8.886  0.6575  0.2328 -0.4839
  163SOPE  C21518300   1.324   4.254   8.900  0.2326  0.4264 -0.1974
  163SOPE  H15R18301   1.356   4.159   8.950  0.1721  1.0076  0.9781
  163SOPE  H15S18302   1.387   4.332   8.947 -0.9058  1.0051  0.4074
  163SOPE  C21618303   1.341   4.249   8.751  0.3190  0.1448  0.6497
  163SOPE  H16R18304   1.300   4.340   8.703  1.1944 -0.5569 -1.5742
  163SOPE  H16S18305   1.289   4.160   8.710  1.9422 -0.7690  0.4789
  163SOPE  C21718306   1.489   4.233   8.717  0.0701 -0.5521  0.2195
  163SOPE  H17R18307   1.531   4.141   8.765 -1.5870 -1.5069 -0.0767
  163SOPE  H17S18308   1.545   4.320   8.756 -2.5873  0.8951  1.0509
  163SOPE  C21818309   1.523   4.211   8.565  0.0529  0.3415 -1.1661
  163SOPE  H18R18310   1.449   4.138   8.526 -1.2371  0.3859  1.0176
  163SOPE  H18S18311   1.631   4.184   8.562  0.1782  0.4982  0.7009
  163SOPE  H18T18312   1.514   4.311   8.518  1.9091  1.0293 -0.1637
  163SOPE   C3318313   1.381   4.847   9.854 -0.3660  0.1359 -0.1804
  163SOPE   H3X18314   1.491   4.855   9.839 -0.5749  3.8710 -0.7255
  163SOPE   H3Y18315   1.342   4.945   9.889  0.4830 -0.3668  2.4297
  163SOPE   C3418316   1.318   4.796   9.725  0.0018  0.5207  0.1557
  163SOPE   H4X18317   1.207   4.793   9.730  0.0622 -0.1655  1.5466
  163SOPE   H4Y18318   1.346   4.692   9.702  0.7642  0.4931  1.1377
  163SOPE   C3518319   1.356   4.890   9.614 -0.4165  0.1115 -0.7258
  163SOPE   H5X18320   1.466   4.899   9.623 -0.1944 -1.0365 -1.9448
  163SOPE   H5Y18321   1.314   4.991   9.633  1.0841  0.4185  1.2774
  163SOPE   C3618322   1.316   4.843   9.473  0.0355  0.2074 -0.6540
  163SOPE   H6X18323   1.206   4.836   9.464 -0.1013  0.3991  0.6996
  163SOPE   H6Y18324   1.366   4.744   9.461  1.5894  0.5320  2.1269
  163SOPE   C3718325   1.380   4.938   9.369  0.7243 -0.4250 -0.4086
  163SOPE   H7X18326   1.484   4.908   9.340  1.7152  1.1306  1.3682
  163SOPE   H7Y18327   1.372   5.047   9.388  2.2196 -0.0594 -1.5852
  163SOPE   C3818328   1.307   4.917   9.237  0.3507 -0.0053 -0.3843
  163SOPE   H8X18329   1.200   4.943   9.243  0.6067  0.9858  0.2681
  163SOPE   H8Y18330   1.319   4.807   9.233  1.3646  0.0712  0.0532
  163SOPE   C3918331   1.357   4.991   9.114 -0.0037  0.2686 -0.2718
  163SOPE   H9X18332   1.467   4.974   9.120 -0.1313 -0.0146  3.2583
  163SOPE   H9Y18333   1.332   5.099   9.124  1.6606  0.7001 -0.4294
  163SOPE  C31018334   1.306   4.938   8.989  0.0236 -1.0659  0.6616
  163SOPE  H10X18335   1.292   4.830   9.010  0.0809 -0.9183  1.4823
  163SOPE  H10Y18336   1.393   4.948   8.920  0.9947 -1.1313  1.8399
  163SOPE  C31118337   1.174   5.003   8.930  0.8049  0.2451 -0.3493
  163SOPE  H11X18338   1.199   5.107   8.902  0.8006  0.1508 -0.7080
  163SOPE  H11Y18339   1.095   5.007   9.008  2.1020  0.2336  1.0086
  163SOPE  C31218340   1.118   4.931   8.808 -0.0012 -0.3116  0.1361
  163SOPE  H12X18341   1.174   4.953   8.715 -0.8029 -0.4367 -0.3844
  163SOPE  H12Y18342   1.012   4.963   8.800  0.1367  0.0441 -0.2614
  163SOPE  C31318343   1.114   4.782   8.826  0.3211 -0.2218  0.4208
  163SOPE  H13X18344   1.044   4.755   8.908 -0.9566 -0.2519 -0.6639
  163SOPE  H13Y18345   1.215   4.737   8.834  1.1646  1.2113 -1.5329
  163SOPE  C31418346   1.047   4.707   8.713  0.0738  0.1305 -0.0496
  163SOPE  H14X18347   1.051   4.600   8.742 -1.8795 -0.3641 -1.3187
  163SOPE  H14Y18348   1.106   4.714   8.619  0.2176 -1.0723 -0.0604
  163SOPE  C31518349   0.897   4.742   8.692  0.3317  0.0145  0.6308
  163SOPE  H15X18350   0.892   4.852   8.681  2.2599  0.0224 -0.7049
  163SOPE  H15Y18351   0.831   4.728   8.780 -0.8040 -2.5737 -0.5160
  163SOPE  C31618352   0.836   4.673   8.570  1.0920 -0.0070 -0.2846
  163SOPE  H16X18353   0.838   4.562   8.566  0.1763 -0.0071 -3.6608
  163SOPE  H16Y18354   0.879   4.709   8.474  2.3645  0.9465  0.6196
  163SOPE  C31718355   0.681   4.708   8.556  0.0125 -1.0153  0.4044
  163SOPE  H17X18356   0.666   4.815   8.531 -0.3629 -0.5973  2.2521
  163SOPE  H17Y18357   0.632   4.686   8.654 -0.8840 -0.4539  0.0879
  163SOPE  C31818358   0.596   4.619   8.470 -0.6635 -0.9717  0.1367
  163SOPE  H18X18359   0.638   4.607   8.367  1.7825  0.4146  0.8851
  163SOPE  H18Y18360   0.495   4.665   8.464  0.0439  0.6457  0.0719
  163SOPE  H18Z18361   0.595   4.516   8.510  1.3788 -1.0317  0.1326
  164SOPE     N18362   4.558   2.875  10.737 -0.3879  0.0123  0.2481
  164SOPE   HN118363   4.654   2.911  10.753 -1.2829  2.9593 -0.2865
  164SOPE   HN218364   4.549   2.786  10.685  3.6871  0.4207 -1.5448
  164SOPE   HN318365   4.506   2.951  10.689  0.9584  0.4050 -0.6515
  164SOPE   C1218366   4.491   2.841  10.866 -0.2228 -0.5025 -0.9315
  164SOPE  H12A18367   4.473   2.938  10.916 -2.5341 -0.4185 -1.8343
  164SOPE  H12B18368   4.564   2.774  10.918  1.2968  1.7737  0.0112
  164SOPE   C1118369   4.364   2.752  10.841 -0.7491 -0.3213 -0.1801
  164SOPE  H11A18370   4.304   2.798  10.760 -0.9941 -0.7236 -0.2315
  164SOPE  H11B18371   4.302   2.752  10.933 -1.8046 -0.5216 -0.8826
  164SOPE     P18372   4.363   2.496  10.869 -0.0334 -0.3702 -0.3362
  164SOPE   O1318373   4.429   2.484  11.001 -0.4518  0.2266  0.3516
  164SOPE   O1418374   4.381   2.389  10.767 -0.0606 -0.3855 -0.2254
  164SOPE   O1218375   4.416   2.628  10.796 -0.3592 -0.0503 -0.2174
  164SOPE   O1118376   4.207   2.514  10.892 -0.0859 -0.2921 -0.0857
  164SOPE    C118377   4.111   2.447  10.814  0.3664  0.0858  0.2682
  164SOPE    HA18378   4.030   2.417  10.885  0.0471 -1.0667 -0.5422
  164SOPE    HB18379   4.148   2.357  10.760 -0.0094  0.3977 -0.5137
  164SOPE    C218380   4.048   2.545  10.725  0.3799  0.2579  0.1875
  164SOPE    HS18381   3.990   2.495  10.644 -0.3530  0.5857  0.4994
  164SOPE   O2118382   4.144   2.632  10.653 -0.5063 -0.3398  0.2415
  164SOPE   C2118383   4.198   2.589  10.546  1.1597 -0.4079  0.3996
  164SOPE   O2218384   4.185   2.481  10.491 -0.5661 -0.3638 -0.5956
  164SOPE   C2218385   4.286   2.694  10.489  0.1994 -0.0207  0.1430
  164SOPE   H2R18386   4.382   2.674  10.539  0.6389 -1.2080 -1.1040
  164SOPE   H2S18387   4.237   2.790  10.516 -1.3617 -0.0636 -2.1903
  164SOPE    C318388   3.941   2.633  10.787  0.2618 -0.3664 -0.5856
  164SOPE    HX18389   3.984   2.709  10.855  0.1798  0.3193 -1.2891
  164SOPE    HY18390   3.868   2.577  10.849  1.7520 -0.8172  0.8342
  164SOPE   O3118391   3.858   2.697  10.687  0.1784 -0.4385  0.3618
  164SOPE   C3118392   3.900   2.816  10.656  0.2904  0.2321 -0.6795
  164SOPE   O3218393   3.990   2.878  10.714 -0.2554  0.0701  0.0803
  164SOPE   C3218394   3.828   2.861  10.532 -0.2692 -0.2293  0.2520
  164SOPE   H2X18395   3.813   2.971  10.532  0.2193 -0.1589  0.5119
  164SOPE   H2Y18396   3.724   2.820  10.533 -0.7459  0.7643  3.1589
  164SOPE   C2318397   4.301   2.688  10.332  0.8837 -0.8201 -0.3921
  164SOPE   H3R18398   4.201   2.713  10.290 -0.6078 -2.5523  1.8720
  164SOPE   H3S18399   4.330   2.589  10.292  0.2315 -1.3586  0.4350
  164SOPE   C2418400   4.394   2.798  10.278  0.0059  0.3696 -0.6477
  164SOPE   H4R18401   4.327   2.876  10.237  0.5630 -0.0054 -2.3368
  164SOPE   H4S18402   4.455   2.848  10.357  2.0716 -1.6782 -0.8553
  164SOPE   C2518403   4.493   2.737  10.188  0.3724  0.3992  0.4703
  164SOPE   H5R18404   4.539   2.652  10.244 -0.9574  0.1548  1.2513
  164SOPE   H5S18405   4.441   2.690  10.102  2.7039  1.2865 -1.5489
  164SOPE   C2618406   4.603   2.826  10.128  0.1969  0.2487  0.2264
  164SOPE   H6R18407   4.559   2.919  10.087  1.1634  1.4754  1.8472
  164SOPE   H6S18408   4.677   2.871  10.198  1.7634 -0.9035 -0.6034
  164SOPE   C2718409   4.678   2.746  10.025 -0.1078  0.6168 -0.3013
  164SOPE   H7R18410   4.714   2.653  10.076 -0.6171  0.0072 -1.0381
  164SOPE   H7S18411   4.602   2.709   9.953 -0.1595  0.7256 -0.3041
  164SOPE   C2818412   4.791   2.829   9.971 -0.2937  0.1344 -0.1371
  164SOPE   H8R18413   4.743   2.928   9.956  0.5801  0.1663 -3.8593
  164SOPE   H8S18414   4.884   2.826  10.032  1.7066 -0.3107 -2.9591
  164SOPE   C2918415   4.849   2.787   9.842  0.4285  0.7976  0.9801
  164SOPE   H9118416   4.918   2.702   9.854 -1.4248 -1.2486 -1.6785
  164SOPE  C21018417   4.807   2.829   9.720  0.0047 -0.0392 -0.7737
  164SOPE  H10118418   4.858   2.783   9.634  1.5739 -3.5953  1.8038
  164SOPE  C21118419   4.705   2.939   9.690 -0.7425  0.3494  0.1134
  164SOPE  H11R18420   4.754   3.018   9.629  0.6352 -0.1553  0.5540
  164SOPE  H11S18421   4.661   2.979   9.784  1.7245  1.3222  0.9272
  164SOPE  C21218422   4.593   2.886   9.601  0.8135 -0.7477  0.6400
  164SOPE  H12R18423   4.522   2.968   9.580 -0.0877 -1.7163 -0.2100
  164SOPE  H12S18424   4.547   2.803   9.658 -2.3453  1.8177  2.0928
  164SOPE  C21318425   4.636   2.838   9.465  0.0131  0.2748 -0.1231
  164SOPE  H13R18426   4.545   2.792   9.422 -0.6003  1.1791  0.1789
  164SOPE  H13S18427   4.717   2.763   9.475 -0.1599  0.3045  1.9261
  164SOPE  C21418428   4.665   2.956   9.375 -0.0211  0.0795 -0.4601
  164SOPE  H14R18429   4.771   2.980   9.395  0.1035 -0.4170 -0.4984
  164SOPE  H14S18430   4.606   3.048   9.394 -0.5521 -0.0600 -1.3568
  164SOPE  C21518431   4.645   2.915   9.230 -0.8326 -0.2259  0.5258
  164SOPE  H15R18432   4.538   2.887   9.220 -0.3077 -1.4455 -3.1703
  164SOPE  H15S18433   4.700   2.819   9.215  0.0077  0.0679  1.6126
  164SOPE  C21618434   4.693   3.018   9.125 -0.5464 -0.5982 -0.5267
  164SOPE  H16R18435   4.802   3.038   9.138 -0.9852  0.5904  1.8750
  164SOPE  H16S18436   4.635   3.111   9.144 -1.8945 -1.4974 -0.1532
  164SOPE  C21718437   4.682   2.962   8.984  0.5069  0.0730  0.9169
  164SOPE  H17R18438   4.731   2.862   8.977 -0.4577 -0.5615  2.6955
  164SOPE  H17S18439   4.736   3.027   8.911 -1.6531 -0.7068 -1.5606
  164SOPE  C21818440   4.535   2.943   8.929  0.0347  0.0178 -0.3688
  164SOPE  H18R18441   4.497   2.846   8.967 -0.5109 -0.4849 -2.1033
  164SOPE  H18S18442   4.527   2.929   8.819 -2.6028 -0.1693 -0.2209
  164SOPE  H18T18443   4.469   3.017   8.979  0.0569 -0.0465 -0.2451
  164SOPE   C3318444   3.912   2.820  10.415  0.0221  0.7039  0.1837
  164SOPE   H3X18445   3.912   2.709  10.413  1.8109  0.6789 -0.2630
  164SOPE   H3Y18446   4.019   2.848  10.427  1.0441 -2.3399 -0.8600
  164SOPE   C3418447   3.869   2.877  10.285  0.3399 -1.0318 -0.6352
  164SOPE   H4X18448   3.873   2.987  10.294 -0.8169 -0.9368 -1.0810
  164SOPE   H4Y18449   3.765   2.857  10.252  0.1039  1.3636 -1.5043
  164SOPE   C3518450   3.955   2.841  10.164  0.1259  0.0130 -0.1025
  164SOPE   H5X18451   3.942   2.731  10.157 -2.9522  0.3749 -1.9243
  164SOPE   H5Y18452   4.063   2.866  10.173  0.2955 -0.9872  0.8259
  164SOPE   C3618453   3.894   2.905  10.037  0.2959 -0.1479 -0.3797
  164SOPE   H6X18454   3.920   3.011  10.018  0.3142 -0.5391 -2.8573
  164SOPE   H6Y18455   3.783   2.903  10.042  0.3429  0.2230  1.7349
  164SOPE   C3718456   3.931   2.832   9.907  0.3145 -0.0679 -0.3661
  164SOPE   H7X18457   3.902   2.725   9.901 -1.4409  0.4457 -2.8146
  164SOPE   H7Y18458   4.041   2.841   9.899  0.2520  1.2216 -0.0649
  164SOPE   C3818459   3.860   2.888   9.783 -0.8878  0.4331  0.9528
  164SOPE   H8X18460   3.886   2.996   9.792  1.1201  0.1304 -0.4953
  164SOPE   H8Y18461   3.751   2.871   9.792 -1.0164 -1.2801 -2.2723
  164SOPE   C3918462   3.924   2.839   9.649  0.3211 -0.8094 -0.4394
  164SOPE   H9X18463   3.888   2.735   9.636 -0.9618 -0.4835  0.3476
  164SOPE   H9Y18464   4.034   2.840   9.635  0.7997  0.1839  2.6338
  164SOPE  C31018465   3.889   2.920   9.524  0.8741  0.1068 -0.0481
  164SOPE  H10X18466   3.925   3.025   9.530 -2.4841  1.5251 -1.8094
  164SOPE  H10Y18467   3.778   2.922   9.522  0.7733 -2.3057 -0.6487
  164SOPE  C31118468   3.941   2.848   9.403 -0.4032 -0.0406  0.4206
  164SOPE  H11X18469   3.945   2.737   9.412 -1.0075 -0.0747  0.3329
  164SOPE  H11Y18470   4.047   2.881   9.400 -0.0015 -1.0824  1.9456
  164SOPE  C31218471   3.860   2.883   9.269 -0.3930 -0.2367 -0.1671
  164SOPE  H12X18472   3.859   2.994   9.262 -1.6077 -0.1842  0.6997
  164SOPE  H12Y18473   3.752   2.866   9.284 -2.0234  3.7915 -4.8123
  164SOPE  C31318474   3.927   2.815   9.153  0.1753  0.3580  0.1641
  164SOPE  H13X18475   3.938   2.707   9.173 -1.7957  0.3583  1.5618
  164SOPE  H13Y18476   4.029   2.856   9.168  0.1875  0.9602 -1.3605
  164SOPE  C31418477   3.867   2.835   9.009  0.6433  0.0379 -0.9944
  164SOPE  H14X18478   3.759   2.814   9.023  0.7953 -0.5321 -0.6311
  164SOPE  H14Y18479   3.915   2.767   8.935  1.0095  0.8305 -1.4986
  164SOPE  C31518480   3.884   2.976   8.960  0.1821 -0.4140  0.1465
  164SOPE  H15X18481   3.981   3.020   8.990 -0.0811 -0.6391  1.3822
  164SOPE  H15Y18482   3.807   3.045   9.001  0.7011  1.1165 -1.3205
  164SOPE  C31618483   3.881   2.973   8.808 -0.2690  0.4816  0.2480
  164SOPE  H16X18484   3.780   2.974   8.762 -0.4795  1.2228  0.7071
  164SOPE  H16Y18485   3.918   2.875   8.771 -2.8093 -0.4024 -0.1222
  164SOPE  C31718486   3.963   3.087   8.756 -0.7385  0.2278  0.1676
  164SOPE  H17X18487   4.071   3.080   8.778 -0.5549 -2.1941 -1.1455
  164SOPE  H17Y18488   3.926   3.182   8.801 -1.4036 -0.8913  2.1208
  164SOPE  C31818489   3.948   3.090   8.603  0.1397 -0.0123 -0.5686
  164SOPE  H18X18490   3.841   3.080   8.576 -0.0476  0.8104 -0.1884
  164SOPE  H18Y18491   4.012   3.012   8.557  0.0213 -0.2798 -0.2849
  164SOPE  H18Z18492   3.991   3.187   8.568  1.2645 -0.2912 -0.0076
  165SOPE     N18493   3.437   2.961  10.831 -0.0500 -0.2421  0.4890
  165SOPE   HN118494   3.371   2.933  10.757  1.5775 -2.5346 -0.2246
  165SOPE   HN218495   3.494   3.044  10.806 -0.7717 -0.1810 -1.0107
  165SOPE   HN318496   3.511   2.887  10.838  2.2657  1.8920  0.0676
  165SOPE   C1218497   3.370   2.970  10.963  0.1981  0.1190 -0.3400
  165SOPE  H12A18498   3.451   2.999  11.033  2.8093  0.8917 -3.4365
  165SOPE  H12B18499   3.336   2.870  10.997  2.2114  0.1907  2.2256
  165SOPE   C1118500   3.253   3.068  10.965  0.4102 -0.2344 -0.3118
  165SOPE  H11A18501   3.193   3.064  11.059  0.3097 -0.2929 -0.3792
  165SOPE  H11B18502   3.187   3.024  10.887  0.1802  1.7092 -1.2761
  165SOPE     P18503   3.257   3.291  10.820 -0.2448 -0.3797 -0.2702
  165SOPE   O1318504   3.330   3.418  10.826 -0.1288  0.9561  0.3435
  165SOPE   O1418505   3.116   3.315  10.799  0.5268  0.3046 -0.1236
  165SOPE   O1218506   3.281   3.202  10.951 -0.0580  0.1707  0.6675
  165SOPE   O1118507   3.304   3.195  10.695  0.1698  0.1246 -0.1029
  165SOPE    C118508   3.418   3.221  10.612 -0.3655 -0.3345  0.2416
  165SOPE    HA18509   3.453   3.121  10.579  0.5324  0.0609 -0.0281
  165SOPE    HB18510   3.499   3.262  10.677 -3.5628  0.3251  4.2374
  165SOPE    C218511   3.378   3.309  10.490  0.0410 -0.2066  0.5670
  165SOPE    HS18512   3.362   3.415  10.521 -1.9986  0.2347 -1.7277
  165SOPE   O2118513   3.266   3.249  10.422  0.3654 -0.1938 -0.4148
  165SOPE   C2118514   3.175   3.329  10.375 -0.1972  0.2053  0.1003
  165SOPE   O2218515   3.152   3.440  10.412 -0.4826 -0.1768 -0.3142
  165SOPE   C2218516   3.103   3.252  10.267  0.2129 -0.0508  0.2602
  165SOPE   H2R18517   3.066   3.158  10.314  1.6480 -0.2710  0.9898
  165SOPE   H2S18518   3.166   3.214  10.184  0.8849 -1.0309  1.1927
  165SOPE    C318519   3.491   3.305  10.381  0.0053 -0.1584  0.1419
  165SOPE    HX18520   3.518   3.199  10.363  2.0483  0.1510  1.1762
  165SOPE    HY18521   3.582   3.360  10.413  0.1217  0.1719 -0.7091
  165SOPE   O3118522   3.441   3.372  10.253  0.0156  0.1919  0.4150
  165SOPE   C3118523   3.435   3.504  10.263  0.2069  0.1428  0.3023
  165SOPE   O3218524   3.465   3.565  10.362 -0.1388 -0.3410  0.3727
  165SOPE   C3218525   3.381   3.573  10.137  0.0806  0.0118  0.0203
  165SOPE   H2X18526   3.272   3.557  10.126 -0.3448  0.3360  3.0086
  165SOPE   H2Y18527   3.438   3.542  10.047 -0.7957 -2.0083  0.1171
  165SOPE   C2318528   2.978   3.328  10.215 -0.2132  0.7168  0.0988
  165SOPE   H3R18529   2.919   3.347  10.307 -2.2754  0.7361 -1.1705
  165SOPE   H3S18530   2.922   3.245  10.166  0.9627 -0.5478  0.8046
  165SOPE   C2418531   2.998   3.441  10.111 -0.1981  0.1405 -0.7688
  165SOPE   H4R18532   2.896   3.478  10.085 -0.4133 -2.0341 -3.5676
  165SOPE   H4S18533   3.038   3.532  10.161 -1.3606 -0.2518  0.9708
  165SOPE   C2518534   3.086   3.389   9.996 -0.3985  0.2453  0.4989
  165SOPE   H5R18535   3.189   3.373  10.034 -0.1598  0.9225  0.1497
  165SOPE   H5S18536   3.054   3.287   9.964  1.1010 -0.0249 -0.2167
  165SOPE   C2618537   3.101   3.480   9.880 -1.0550 -0.6824 -0.1268
  165SOPE   H6R18538   2.998   3.513   9.855 -1.0062 -0.3613  0.1036
  165SOPE   H6S18539   3.159   3.569   9.912 -0.8241 -0.9079  0.0845
  165SOPE   C2718540   3.159   3.406   9.750  0.1120 -0.4749 -0.4866
  165SOPE   H7R18541   3.259   3.368   9.779  1.1301  3.2305  1.5489
  165SOPE   H7S18542   3.085   3.326   9.728  0.1380 -0.3080 -1.1914
  165SOPE   C2818543   3.187   3.497   9.627 -0.3062 -0.1059 -0.4496
  165SOPE   H8R18544   3.227   3.427   9.550  0.4527 -0.3994  0.1855
  165SOPE   H8S18545   3.095   3.544   9.588  0.6176  0.8138 -1.5802
  165SOPE   C2918546   3.283   3.611   9.658 -0.3128 -0.3995  0.4470
  165SOPE   H9118547   3.248   3.691   9.724  3.9157  2.2806 -0.1611
  165SOPE  C21018548   3.404   3.623   9.601  0.0591 -0.5744  0.3053
  165SOPE  H10118549   3.470   3.705   9.632  1.3510 -1.0293 -1.1344
  165SOPE  C21118550   3.476   3.529   9.505 -0.3587  0.1759 -0.2703
  165SOPE  H11R18551   3.461   3.424   9.539  0.3375 -0.4980 -1.9462
  165SOPE  H11S18552   3.584   3.553   9.495 -0.2442  0.2287  0.9613
  165SOPE  C21218553   3.420   3.547   9.361  0.1740 -0.8389 -0.4341
  165SOPE  H12R18554   3.311   3.529   9.356  0.3911 -2.3671 -0.3433
  165SOPE  H12S18555   3.482   3.479   9.298  0.2649 -0.7412 -0.4497
  165SOPE  C21318556   3.444   3.684   9.303 -0.7730 -0.0175 -0.5679
  165SOPE  H13R18557   3.554   3.691   9.285 -0.4304 -1.2459  0.8134
  165SOPE  H13S18558   3.422   3.764   9.377  1.6681  1.3441 -1.2007
  165SOPE  C21418559   3.379   3.719   9.166  0.0385  0.5308 -0.0326
  165SOPE  H14R18560   3.412   3.818   9.130 -0.2246  0.9577  0.8687
  165SOPE  H14S18561   3.271   3.732   9.188 -0.1150 -0.3716 -0.1878
  165SOPE  C21518562   3.403   3.624   9.043 -0.0671  0.1487  0.6942
  165SOPE  H15R18563   3.369   3.523   9.074  2.1057 -0.1791  2.2513
  165SOPE  H15S18564   3.511   3.617   9.016 -0.5234 -0.6855 -1.0507
  165SOPE  C21618565   3.328   3.677   8.916 -0.2447  0.4072 -0.0664
  165SOPE  H16R18566   3.391   3.748   8.858  1.2294 -1.2562 -0.5724
  165SOPE  H16S18567   3.232   3.725   8.947  0.1531  0.8970  0.4158
  165SOPE  C21718568   3.305   3.575   8.800 -1.0730  0.5602 -0.0237
  165SOPE  H17R18569   3.246   3.489   8.840 -0.1111  0.3162  0.9303
  165SOPE  H17S18570   3.403   3.536   8.767 -1.8886 -0.7248 -1.0815
  165SOPE  C21818571   3.219   3.628   8.687 -0.2671 -0.0830 -0.2628
  165SOPE  H18R18572   3.192   3.550   8.613 -1.2726 -1.4437  1.4757
  165SOPE  H18S18573   3.271   3.715   8.641 -1.1748  1.0494  0.7864
  165SOPE  H18T18574   3.127   3.666   8.736  0.8132  1.5104  0.6259
  165SOPE   C3318575   3.367   3.724  10.155  0.2771  0.3201  0.2978
  165SOPE   H3X18576   3.456   3.768  10.204 -0.0527  1.2665  0.0691
  165SOPE   H3Y18577   3.280   3.735  10.224  0.6612 -1.9780  1.2336
  165SOPE   C3418578   3.332   3.800  10.029  0.4961  0.6908  0.2543
  165SOPE   H4X18579   3.240   3.754   9.987  2.4535 -0.0023 -3.7410
  165SOPE   H4Y18580   3.403   3.797   9.943 -0.0486  1.1901 -0.2272
  165SOPE   C3518581   3.305   3.945  10.063  0.2399  0.6554  0.2622
  165SOPE   H5X18582   3.408   3.978  10.088  0.7633 -0.3634 -0.4695
  165SOPE   H5Y18583   3.258   3.949  10.163  1.8954 -3.8281  1.4350
  165SOPE   C3618584   3.246   4.042   9.954  0.9412 -0.5260 -0.1196
  165SOPE   H6X18585   3.265   4.145   9.991 -1.4463  0.2207 -0.7983
  165SOPE   H6Y18586   3.136   4.033   9.942  0.7960  1.6860 -1.0004
  165SOPE   C3718587   3.304   4.026   9.814 -0.6828  0.2825  0.2675
  165SOPE   H7X18588   3.296   3.921   9.781 -1.4426  1.0985 -2.3657
  165SOPE   H7Y18589   3.413   4.035   9.801 -0.5147 -1.0481  0.6158
  165SOPE   C3818590   3.240   4.122   9.714  0.3400  0.5590  0.0827
  165SOPE   H8X18591   3.336   4.173   9.689  1.7650 -0.6758  2.6387
  165SOPE   H8Y18592   3.185   4.199   9.771  1.5706  0.2402  1.7770
  165SOPE   C3918593   3.177   4.062   9.596 -0.3977  0.0921  0.2881
  165SOPE   H9X18594   3.097   4.132   9.563 -0.3798  0.3872  0.8637
  165SOPE   H9Y18595   3.120   3.972   9.629  3.9222 -2.6912  0.8722
  165SOPE  C31018596   3.275   4.028   9.489 -0.1697 -0.2789 -0.2131
  165SOPE  H10X18597   3.219   3.977   9.407 -0.5022 -1.2296  0.5826
  165SOPE  H10Y18598   3.350   3.954   9.525  0.0490  0.8373  1.7704
  165SOPE  C31118599   3.353   4.147   9.429 -0.5620  0.1080  0.5903
  165SOPE  H11X18600   3.429   4.173   9.506  1.6181  1.1972 -1.7641
  165SOPE  H11Y18601   3.284   4.233   9.419  0.1474  0.5910 -0.3238
  165SOPE  C31218602   3.403   4.135   9.281 -0.3313 -0.3961  0.1248
  165SOPE  H12X18603   3.489   4.064   9.286 -0.2253 -0.3846 -1.2173
  165SOPE  H12Y18604   3.446   4.237   9.274 -1.9921  0.3783  0.8136
  165SOPE  C31318605   3.300   4.097   9.179 -0.5687  0.1605 -0.4038
  165SOPE  H13X18606   3.218   4.171   9.185  0.3319  1.2669 -1.0965
  165SOPE  H13Y18607   3.258   3.995   9.193 -1.3242  0.6049  0.6618
  165SOPE  C31418608   3.367   4.107   9.040  0.0044  0.4761  0.2528
  165SOPE  H14X18609   3.461   4.047   9.040 -0.4209 -0.2301  1.5634
  165SOPE  H14Y18610   3.417   4.205   9.025 -2.0629  1.9302  2.1877
  165SOPE  C31518611   3.278   4.064   8.916  0.6084 -0.4662  0.3089
  165SOPE  H15X18612   3.195   4.138   8.914  0.0162 -1.1074  0.6840
  165SOPE  H15Y18613   3.238   3.961   8.924 -0.3809 -0.1911 -0.7669
  165SOPE  C31618614   3.346   4.070   8.782 -0.2276  0.4797 -0.1054
  165SOPE  H16X18615   3.417   3.986   8.765 -0.4357  0.5661 -1.5864
  165SOPE  H16Y18616   3.410   4.160   8.791  1.2267 -0.4077 -1.0752
  165SOPE  C31718617   3.255   4.058   8.658 -0.1853  0.6151  0.3979
  165SOPE  H17X18618   3.151   4.094   8.667 -1.1178 -2.1095  1.7596
  165SOPE  H17Y18619   3.239   3.950   8.637  3.0234 -0.0565  0.7674
  165SOPE  C31818620   3.335   4.118   8.535 -0.0146 -0.1208 -1.1348
  165SOPE  H18X18621   3.368   4.223   8.551  2.8686 -0.7756 -2.2106
  165SOPE  H18Y18622   3.277   4.115   8.441  0.4406  1.7742 -1.5128
  165SOPE  H18Z18623   3.431   4.069   8.511  1.5131  1.6116  0.9451
  166SOPE     N18624   6.291   4.654  10.609 -0.2640 -0.9590 -0.0335
  166SOPE   HN118625   6.247   4.642  10.516  0.0204  0.7643 -0.4253
  166SOPE   HN218626   6.393   4.669  10.599 -0.2668 -1.1662 -0.3928
  166SOPE   HN318627   6.282   4.568  10.666  0.8199  0.1867  1.9787
  166SOPE   C1218628   6.210   4.760  10.669 -0.1164 -0.1156  0.0382
  166SOPE  H12A18629   6.251   4.858  10.634  1.8390 -1.2522 -1.0275
  166SOPE  H12B18630   6.220   4.748  10.779 -2.7839 -1.5054  0.2044
  166SOPE   C1118631   6.060   4.734  10.632  0.1180 -0.5055  0.1211
  166SOPE  H11A18632   6.042   4.762  10.527 -1.3097  0.9040  0.7114
  166SOPE  H11B18633   5.991   4.798  10.690 -2.5254  1.3917 -4.6437
  166SOPE     P18634   5.884   4.566  10.731  0.0169 -0.0157  0.0767
  166SOPE   O1318635   5.900   4.604  10.873 -0.6079  0.0357  0.3030
  166SOPE   O1418636   5.861   4.424  10.707 -0.2515 -0.1369 -0.3323
  166SOPE   O1218637   6.013   4.603  10.648 -0.9136 -0.2660 -0.0342
  166SOPE   O1118638   5.774   4.654  10.672 -0.8519  0.1180  0.3805
  166SOPE    C118639   5.702   4.634  10.548  0.5660 -0.1662 -0.1425
  166SOPE    HA18640   5.625   4.559  10.578  0.2604  0.7495  1.4860
  166SOPE    HB18641   5.764   4.586  10.469  1.1850  0.3583  0.0198
  166SOPE    C218642   5.638   4.770  10.495 -0.2076 -0.1156  0.2259
  166SOPE    HS18643   5.575   4.805  10.580 -1.4419 -1.2297 -0.1999
  166SOPE   O2118644   5.546   4.740  10.390 -0.3991  0.2126  0.5726
  166SOPE   C2118645   5.444   4.829  10.382  0.6624  0.2044 -0.4398
  166SOPE   O2218646   5.430   4.932  10.446 -0.5164 -0.3601 -0.2570
  166SOPE   C2218647   5.354   4.778  10.264  0.7958  0.0163  0.5019
  166SOPE   H2R18648   5.270   4.723  10.313  0.6607  0.0631  0.3232
  166SOPE   H2S18649   5.404   4.701  10.201  0.6696  0.3940 -0.0664
  166SOPE    C318650   5.747   4.882  10.464  0.2174  0.8469  0.3858
  166SOPE    HX18651   5.807   4.896  10.556  0.1413 -0.6277  0.6771
  166SOPE    HY18652   5.696   4.980  10.449  1.7097  1.5580 -0.2316
  166SOPE   O3118653   5.829   4.865  10.350 -0.1363  0.0296  0.3459
  166SOPE   C3118654   5.773   4.893  10.234 -0.5921 -0.0449  0.7751
  166SOPE   O3218655   5.671   4.961  10.216 -0.1461  0.1241  0.2347
  166SOPE   C3218656   5.852   4.823  10.116  0.1531 -0.3219  0.1768
  166SOPE   H2X18657   5.813   4.722  10.093 -0.1920 -0.4318  1.2326
  166SOPE   H2Y18658   5.960   4.811  10.138  0.9628  0.4212 -2.8518
  166SOPE   C2318659   5.310   4.882  10.168  0.3107 -0.8407 -0.0298
  166SOPE   H3R18660   5.395   4.941  10.127 -0.1560  0.9775  1.4935
  166SOPE   H3S18661   5.231   4.945  10.212 -0.8025 -2.4157  0.3094
  166SOPE   C2418662   5.239   4.827  10.042 -0.3707 -0.4321  0.4467
  166SOPE   H4R18663   5.155   4.755  10.057 -0.3261 -0.6022 -0.0802
  166SOPE   H4S18664   5.200   4.917   9.990  1.3039  1.1641  1.8228
  166SOPE   C2518665   5.332   4.772   9.938  0.5694  0.5638 -0.1284
  166SOPE   H5R18666   5.416   4.845   9.934  1.0646  0.2010  2.1615
  166SOPE   H5S18667   5.375   4.681   9.984  0.5439  1.1411  1.0834
  166SOPE   C2618668   5.265   4.734   9.814 -0.3695  0.2858  0.9207
  166SOPE   H6R18669   5.190   4.661   9.852 -0.2167  0.2876  1.2288
  166SOPE   H6S18670   5.215   4.820   9.764  0.5907  0.9304  1.0470
  166SOPE   C2718671   5.353   4.675   9.705 -0.2919 -0.5853  0.0356
  166SOPE   H7R18672   5.421   4.755   9.670 -1.5746  0.2856 -0.5554
  166SOPE   H7S18673   5.410   4.589   9.747  1.1484  0.0862 -0.4642
  166SOPE   C2818674   5.276   4.640   9.580 -0.6096  0.0359  0.6602
  166SOPE   H8R18675   5.183   4.585   9.606 -1.2877  0.7553 -0.1740
  166SOPE   H8S18676   5.232   4.731   9.533 -2.2718 -1.0082  0.1085
  166SOPE   C2918677   5.352   4.549   9.483 -0.1676  1.1079 -0.5510
  166SOPE   H9118678   5.389   4.457   9.530 -2.1381  1.2095  1.3880
  166SOPE  C21018679   5.398   4.577   9.360 -0.3812 -0.0278  0.6266
  166SOPE  H10118680   5.434   4.493   9.299 -1.3840  1.3210 -1.9680
  166SOPE  C21118681   5.381   4.703   9.282 -0.5472 -0.0975 -0.1089
  166SOPE  H11R18682   5.481   4.745   9.260 -0.4841 -0.4002 -0.4104
  166SOPE  H11S18683   5.325   4.779   9.340 -1.2174 -2.5684  2.7750
  166SOPE  C21218684   5.313   4.677   9.145  0.2137 -0.1255 -0.2333
  166SOPE  H12R18685   5.370   4.593   9.099  2.2587  0.1578  1.6246
  166SOPE  H12S18686   5.323   4.762   9.074 -1.0096 -2.0628 -2.8756
  166SOPE  C21318687   5.163   4.647   9.162 -0.6230  0.8834  0.1646
  166SOPE  H13R18688   5.119   4.716   9.237  1.1129  0.9178  1.1949
  166SOPE  H13S18689   5.151   4.551   9.217 -2.3335  0.8311 -0.2453
  166SOPE  C21418690   5.092   4.653   9.023 -0.0111 -0.5839 -0.6270
  166SOPE  H14R18691   5.127   4.575   8.953  0.3810  2.3186 -3.9070
  166SOPE  H14S18692   5.100   4.760   8.995  0.0327  0.2877  2.3320
  166SOPE  C21518693   4.948   4.615   9.045  0.5794 -0.1556 -0.0294
  166SOPE  H15R18694   4.902   4.684   9.118  0.4104  1.7937 -1.8858
  166SOPE  H15S18695   4.946   4.513   9.091  0.8888 -0.3363 -0.4141
  166SOPE  C21618696   4.869   4.609   8.907 -0.3054  0.0274 -0.0527
  166SOPE  H16R18697   4.929   4.536   8.850  2.0842  2.3752 -0.7023
  166SOPE  H16S18698   4.870   4.709   8.859  2.0739 -0.6323 -1.5313
  166SOPE  C21718699   4.728   4.554   8.930 -0.5371  0.3136 -0.7363
  166SOPE  H17R18700   4.719   4.467   8.998 -1.9037  0.5255 -0.6038
  166SOPE  H17S18701   4.700   4.510   8.831 -0.1115 -1.8746  0.0438
  166SOPE  C21818702   4.623   4.645   8.971 -0.3443 -0.3160  0.2608
  166SOPE  H18R18703   4.655   4.706   9.058 -0.3435 -0.9997  0.7495
  166SOPE  H18S18704   4.524   4.596   8.983 -0.0398 -0.7562  1.0283
  166SOPE  H18T18705   4.620   4.704   8.876  0.5469 -0.7930 -0.0756
  166SOPE   C3318706   5.838   4.910   9.986  0.5104  0.2389 -0.7072
  166SOPE   H3X18707   5.887   5.009   9.999  0.0380  0.3112  0.6930
  166SOPE   H3Y18708   5.729   4.935   9.986  0.5181  0.3723  1.0617
  166SOPE   C3418709   5.878   4.842   9.856  0.2903 -0.7552  0.1747
  166SOPE   H4X18710   5.822   4.748   9.838 -0.5547 -0.1460 -0.4363
  166SOPE   H4Y18711   5.986   4.814   9.856  0.6446  0.5527  0.1118
  166SOPE   C3518712   5.852   4.920   9.724  0.6069  0.0538  0.1726
  166SOPE   H5X18713   5.908   4.864   9.647  0.7021 -0.0741  0.3339
  166SOPE   H5Y18714   5.886   5.026   9.727 -1.1218  0.6310  1.0829
  166SOPE   C3618715   5.698   4.916   9.684 -0.0137  0.6157 -0.1234
  166SOPE   H6X18716   5.643   4.944   9.775 -0.9494 -0.8322 -0.2112
  166SOPE   H6Y18717   5.673   4.813   9.648  1.7112 -0.0734  0.5348
  166SOPE   C3718718   5.663   5.013   9.573 -0.1059 -0.6447 -0.2184
  166SOPE   H7X18719   5.670   5.114   9.618 -0.8589 -0.0083 -1.4671
  166SOPE   H7Y18720   5.557   5.008   9.540 -0.2248 -2.1373  0.3140
  166SOPE   C3818721   5.763   5.006   9.455  0.1831 -0.8957 -0.2029
  166SOPE   H8X18722   5.868   5.015   9.488 -0.2410 -1.2818  1.3330
  166SOPE   H8Y18723   5.745   5.091   9.386  3.2188  2.7005  3.0004
  166SOPE   C3918724   5.757   4.879   9.373  0.4274  0.4737  0.6666
  166SOPE   H9X18725   5.651   4.854   9.352  0.5409  0.9808 -0.6335
  166SOPE   H9Y18726   5.792   4.801   9.443 -0.5631 -0.8990 -0.3198
  166SOPE  C31018727   5.848   4.889   9.252  0.4568  0.2631 -0.1528
  166SOPE  H10X18728   5.869   4.792   9.202  0.7114 -0.3688  1.1095
  166SOPE  H10Y18729   5.939   4.938   9.293 -1.8830  2.8866  2.3949
  166SOPE  C31118730   5.794   4.970   9.128  0.7024  0.2657  0.3860
  166SOPE  H11X18731   5.885   4.986   9.066 -0.4895 -0.6846 -1.7066
  166SOPE  H11Y18732   5.753   5.070   9.154 -1.5122 -0.6535  0.6146
  166SOPE  C31218733   5.708   4.886   9.040  0.6278 -0.5730 -1.2901
  166SOPE  H12X18734   5.622   4.859   9.105  1.6783  2.3004  1.5540
  166SOPE  H12Y18735   5.754   4.786   9.022  0.1865 -0.6128 -2.2496
  166SOPE  C31318736   5.656   4.958   8.915 -0.1991 -0.4429  0.4533
  166SOPE  H13X18737   5.604   5.051   8.947  0.3205  0.4206 -1.0886
  166SOPE  H13Y18738   5.584   4.891   8.863 -2.1534  1.3217  0.7535
  166SOPE  C31418739   5.773   5.008   8.823 -0.2731  0.7032  0.2776
  166SOPE  H14X18740   5.842   4.926   8.794 -2.0202 -0.4818 -0.7013
  166SOPE  H14Y18741   5.824   5.087   8.882  2.1134 -1.0876  0.7624
  166SOPE  C31518742   5.724   5.081   8.702  0.7626  0.0608  0.6164
  166SOPE  H15X18743   5.645   5.020   8.651  1.3362 -0.7259  0.6457
  166SOPE  H15Y18744   5.802   5.084   8.623 -2.1830 -0.2808 -2.5414
  166SOPE  C31618745   5.677   5.224   8.719 -0.3283  0.1489  0.3095
  166SOPE  H16X18746   5.765   5.286   8.746 -0.4202 -0.2077  1.4940
  166SOPE  H16Y18747   5.600   5.202   8.796 -0.8567 -1.4345 -0.6141
  166SOPE  C31718748   5.607   5.293   8.598 -0.6006  0.3492  0.6030
  166SOPE  H17X18749   5.559   5.204   8.554  1.8797 -0.5983 -0.4177
  166SOPE  H17Y18750   5.687   5.326   8.527  0.0356  0.5700  1.3973
  166SOPE  C31818751   5.508   5.409   8.617  0.6858 -0.0034 -0.0624
  166SOPE  H18X18752   5.417   5.380   8.673  0.9707  2.4216  1.8577
  166SOPE  H18Y18753   5.488   5.445   8.514  1.5963 -0.4269 -0.3968
  166SOPE  H18Z18754   5.549   5.499   8.668  0.0070  0.9796 -1.2022
  167SOPE     N18755   1.507   1.313   6.354  0.3672 -0.8141  0.4339
  167SOPE   HN118756   1.559   1.273   6.274  2.9816 -1.3963  2.2704
  167SOPE   HN218757   1.522   1.416   6.349 -1.1540 -0.6136 -0.2707
  167SOPE   HN318758   1.549   1.267   6.438 -1.0423 -2.3262  0.3516
  167SOPE   C1218759   1.355   1.276   6.358 -0.7559  0.0674  0.1134
  167SOPE  H12A18760   1.333   1.328   6.454  0.2958 -0.3982  0.6261
  167SOPE  H12B18761   1.362   1.165   6.366  0.7454 -0.0157 -1.6997
  167SOPE   C1118762   1.275   1.346   6.245  0.2856  0.5820  0.2098
  167SOPE  H11A18763   1.166   1.325   6.257 -0.0120  1.2073 -1.2179
  167SOPE  H11B18764   1.307   1.282   6.161 -0.8861 -0.4896  0.5409
  167SOPE     P18765   1.230   1.600   6.240 -0.1182 -0.3417 -0.1350
  167SOPE   O1318766   1.148   1.616   6.118  0.3597  0.0604 -0.0336
  167SOPE   O1418767   1.326   1.711   6.279  0.0676 -0.2059 -0.1504
  167SOPE   O1218768   1.316   1.474   6.214  0.1036 -0.1898  0.2099
  167SOPE   O1118769   1.143   1.569   6.366  0.0142 -0.0311 -0.2297
  167SOPE    C118770   1.127   1.665   6.472  0.2328 -0.4083  0.2932
  167SOPE    HA18771   1.027   1.657   6.519  0.6791  1.4556  1.6705
  167SOPE    HB18772   1.127   1.770   6.436  0.0649 -0.5099 -0.0058
  167SOPE    C218773   1.230   1.651   6.591 -1.0607 -0.4116 -0.1477
  167SOPE    HS18774   1.328   1.654   6.539 -1.4640 -1.4956 -1.0186
  167SOPE   O2118775   1.206   1.519   6.642 -0.3856 -0.3063 -0.3865
  167SOPE   C2118776   1.314   1.467   6.716 -0.6198 -1.0604 -0.7141
  167SOPE   O2218777   1.427   1.510   6.697 -0.4434  0.3952 -0.4088
  167SOPE   C2218778   1.279   1.355   6.803  0.0051  0.6158 -0.4163
  167SOPE   H2R18779   1.247   1.269   6.742  0.0858  2.2700 -2.9242
  167SOPE   H2S18780   1.202   1.380   6.879  1.5514  1.3181  1.0047
  167SOPE    C318781   1.220   1.757   6.703  0.6621 -0.9201 -0.3692
  167SOPE    HX18782   1.249   1.849   6.647 -0.0674 -0.7024 -0.4006
  167SOPE    HY18783   1.298   1.744   6.781  0.4918 -0.1188 -0.0501
  167SOPE   O3118784   1.086   1.780   6.759  0.5237  0.1647  0.2137
  167SOPE   C3118785   1.067   1.716   6.882  0.0129  0.3708  0.0536
  167SOPE   O3218786   1.139   1.634   6.931  0.2738  0.5683  0.0390
  167SOPE   C3218787   0.951   1.789   6.953  0.7812  0.5462  0.2044
  167SOPE   H2X18788   0.854   1.761   6.907  0.9838 -0.5631  0.4072
  167SOPE   H2Y18789   0.962   1.899   6.945  0.7311  0.6055  0.8738
  167SOPE   C2318790   1.411   1.312   6.874  0.0376  0.1868  0.1177
  167SOPE   H3R18791   1.444   1.407   6.922 -0.3833  0.4958 -0.1924
  167SOPE   H3S18792   1.498   1.285   6.809 -0.0719 -2.0322  0.8236
  167SOPE   C2418793   1.394   1.203   6.976 -1.0469 -0.4204 -1.0292
  167SOPE   H4R18794   1.285   1.183   6.973 -1.2518  0.5539 -3.7063
  167SOPE   H4S18795   1.445   1.108   6.949  1.4210  0.0798  1.3869
  167SOPE   C2518796   1.452   1.248   7.112 -0.8025  0.2185 -0.0746
  167SOPE   H5R18797   1.454   1.160   7.180 -0.2244  0.0302 -0.3340
  167SOPE   H5S18798   1.554   1.282   7.086 -0.2182 -0.4336  1.2476
  167SOPE   C2618799   1.379   1.350   7.193  0.7888  0.0537  0.2737
  167SOPE   H6R18800   1.445   1.377   7.278  0.5327  1.1171  0.1507
  167SOPE   H6S18801   1.366   1.441   7.131 -1.6644 -1.4251 -1.5488
  167SOPE   C2718802   1.243   1.296   7.227 -0.1801  0.3683 -0.2772
  167SOPE   H7R18803   1.174   1.295   7.140  2.0552  1.7570 -2.1734
  167SOPE   H7S18804   1.258   1.192   7.263  0.3002  0.8546  0.9826
  167SOPE   C2818805   1.176   1.371   7.348 -0.0812 -0.3994 -0.0672
  167SOPE   H8R18806   1.097   1.306   7.391  1.8394 -1.8865  1.3993
  167SOPE   H8S18807   1.252   1.375   7.428 -0.1674 -0.2471  0.0058
  167SOPE   C2918808   1.123   1.502   7.309 -0.7107  0.7774 -0.3478
  167SOPE   H9118809   1.128   1.545   7.208 -2.8283 -0.1280 -0.8920
  167SOPE  C21018810   1.058   1.579   7.401  0.2602  0.5234  0.8345
  167SOPE  H10118811   1.012   1.675   7.373 -3.2368 -1.2909 -0.2184
  167SOPE  C21118812   1.023   1.529   7.537  0.6739  0.0386 -0.6714
  167SOPE  H11R18813   1.096   1.455   7.577 -0.0456 -1.0106 -1.2644
  167SOPE  H11S18814   0.928   1.472   7.533  0.0345  1.0694 -0.3978
  167SOPE  C21218815   1.011   1.641   7.638  0.1345 -0.0696 -0.0801
  167SOPE  H12R18816   0.992   1.584   7.731 -0.1952 -1.2431 -0.8407
  167SOPE  H12S18817   0.926   1.710   7.621  0.8251  0.5001 -1.4298
  167SOPE  C21318818   1.136   1.732   7.646  0.4223  0.0115  0.6088
  167SOPE  H13R18819   1.159   1.779   7.549 -1.0531 -2.8293 -1.2574
  167SOPE  H13S18820   1.216   1.658   7.667  1.6588  0.7159 -1.3679
  167SOPE  C21418821   1.113   1.837   7.750  0.1437 -0.1242  0.2236
  167SOPE  H14R18822   1.074   1.789   7.842 -2.3755 -1.9044 -1.6075
  167SOPE  H14S18823   1.040   1.913   7.714  0.6576  1.2984  2.0322
  167SOPE  C21518824   1.249   1.904   7.783 -0.0408 -0.1197 -0.9847
  167SOPE  H15R18825   1.273   1.967   7.694  0.2901  0.5717 -0.4166
  167SOPE  H15S18826   1.322   1.825   7.808 -0.4154 -0.8446 -2.1296
  167SOPE  C21618827   1.240   2.016   7.901  0.3515 -0.0575  0.5812
  167SOPE  H16R18828   1.144   2.069   7.883 -0.7438 -2.2959 -0.5978
  167SOPE  H16S18829   1.331   2.080   7.901  1.2108 -1.2377  1.1324
  167SOPE  C21718830   1.237   1.950   8.041  0.0198 -0.0290 -0.3307
  167SOPE  H17R18831   1.336   1.900   8.050  0.9569  2.1081  2.7905
  167SOPE  H17S18832   1.157   1.874   8.050 -1.4052  1.3655 -0.8111
  167SOPE  C21818833   1.228   2.051   8.154 -0.0606  0.6182 -0.0748
  167SOPE  H18R18834   1.323   2.108   8.146  0.2777  0.0500 -0.2058
  167SOPE  H18S18835   1.210   1.990   8.245  1.2055 -0.9245 -0.8158
  167SOPE  H18T18836   1.142   2.114   8.124 -0.2090  0.4485 -0.0056
  167SOPE   C3318837   0.940   1.776   7.113  0.2680  0.2747  0.4526
  167SOPE   H3X18838   1.043   1.790   7.152  1.2248 -1.5251 -1.2630
  167SOPE   H3Y18839   0.915   1.671   7.135  0.4343  0.2783  0.6587
  167SOPE   C3418840   0.830   1.872   7.164  0.0603  0.0131 -0.8472
  167SOPE   H4X18841   0.733   1.829   7.129 -0.2026 -1.8291  1.8896
  167SOPE   H4Y18842   0.841   1.972   7.118  1.0214  0.5146  0.4316
  167SOPE   C3518843   0.813   1.891   7.313  0.6056  0.1565  0.1986
  167SOPE   H5X18844   0.903   1.948   7.342 -1.1751  3.2287  0.1536
  167SOPE   H5Y18845   0.814   1.802   7.380  0.9987 -0.0711 -0.1047
  167SOPE   C3618846   0.688   1.975   7.342  0.1878  0.0524 -0.2693
  167SOPE   H6X18847   0.598   1.911   7.327 -1.3106  2.0355 -0.1653
  167SOPE   H6Y18848   0.679   2.064   7.276 -0.5985  0.3980  0.2985
  167SOPE   C3718849   0.674   2.023   7.489 -0.7351  0.0754 -0.3202
  167SOPE   H7X18850   0.581   2.083   7.497 -0.6519  0.1199  0.4042
  167SOPE   H7Y18851   0.756   2.097   7.505 -1.1497  0.5863 -0.5295
  167SOPE   C3818852   0.681   1.916   7.590 -0.2847  0.2197 -0.8775
  167SOPE   H8X18853   0.784   1.875   7.593 -0.2628  0.3124 -0.4360
  167SOPE   H8Y18854   0.616   1.834   7.552  0.3913 -1.3378  1.1616
  167SOPE   C3918855   0.646   1.977   7.729 -0.0907 -0.1323  0.6275
  167SOPE   H9X18856   0.598   1.897   7.790  0.5120 -0.6502  0.4285
  167SOPE   H9Y18857   0.574   2.059   7.711 -2.3503 -1.6795  1.9971
  167SOPE  C31018858   0.770   2.040   7.802  0.5024 -0.5961 -0.2008
  167SOPE  H10X18859   0.827   2.102   7.730  1.5896 -1.4786 -0.1338
  167SOPE  H10Y18860   0.839   1.955   7.822  0.9141  0.2673  2.4108
  167SOPE  C31118861   0.725   2.105   7.932 -0.6655  0.3267  0.1451
  167SOPE  H11X18862   0.695   2.024   8.001 -1.5610  0.0846 -0.5095
  167SOPE  H11Y18863   0.630   2.162   7.921 -1.5489 -0.8458  1.4595
  167SOPE  C31218864   0.834   2.200   7.991 -0.3898  0.3195  0.0224
  167SOPE  H12X18865   0.855   2.284   7.921  0.5120 -0.6044 -0.8456
  167SOPE  H12Y18866   0.933   2.150   7.980 -0.0465  0.2541  2.6351
  167SOPE  C31318867   0.799   2.244   8.129 -0.7946 -0.4613  0.1773
  167SOPE  H13X18868   0.694   2.281   8.129 -1.1996 -1.5881  0.9092
  167SOPE  H13Y18869   0.870   2.328   8.148  0.1467 -1.5099  1.3952
  167SOPE  C31418870   0.815   2.142   8.237  0.3425  0.0549  0.0265
  167SOPE  H14X18871   0.912   2.089   8.233  0.3079 -0.1569  1.3347
  167SOPE  H14Y18872   0.740   2.060   8.228  0.7788 -0.2163 -1.3587
  167SOPE  C31518873   0.795   2.209   8.373 -0.9147  0.0941 -0.2240
  167SOPE  H15X18874   0.688   2.241   8.366 -1.2322 -0.6491  0.9320
  167SOPE  H15Y18875   0.860   2.298   8.385 -1.6041  0.7804 -1.3774
  167SOPE  C31618876   0.819   2.128   8.503  0.5411  0.2256  0.2963
  167SOPE  H16X18877   0.826   2.193   8.593 -0.9032  1.0200 -0.1452
  167SOPE  H16Y18878   0.921   2.084   8.492  1.1942  1.2546  1.8704
  167SOPE  C31718879   0.710   2.029   8.533 -0.2655  0.1413 -0.4364
  167SOPE  H17X18880   0.707   1.939   8.467 -1.5861 -0.6243  0.5931
  167SOPE  H17Y18881   0.612   2.081   8.532 -0.1338  0.4486  0.9963
  167SOPE  C31818882   0.718   1.969   8.671 -0.4932 -0.0527 -0.4115
  167SOPE  H18X18883   0.625   1.928   8.715  0.3142  0.4005  1.9092
  167SOPE  H18Y18884   0.753   2.048   8.741  2.6331 -1.3005 -0.3943
  167SOPE  H18Z18885   0.795   1.888   8.678 -1.0860 -0.5227  1.4213
  168SOPE     N18886   0.770   5.945   6.270  0.3347  0.8797  0.8201
  168SOPE   HN118887   0.775   5.846   6.300  1.5628  0.6087 -0.2116
  168SOPE   HN218888   0.727   5.941   6.175  1.6153  1.3435  0.2012
  168SOPE   HN318889   0.867   5.983   6.272  0.5043  0.4531  0.6656
  168SOPE   C1218890   0.682   6.027   6.350 -0.3088 -0.5858 -0.0964
  168SOPE  H12A18891   0.646   6.120   6.301  2.6183  0.6504 -0.0988
  168SOPE  H12B18892   0.746   6.056   6.436 -0.4880 -1.1340  0.2299
  168SOPE   C1118893   0.567   5.947   6.411  0.3703  0.1307  0.4303
  168SOPE  H11A18894   0.519   6.027   6.472  1.5106  1.6337 -0.5547
  168SOPE  H11B18895   0.601   5.863   6.474 -1.0367 -0.3055  0.6390
  168SOPE     P18896   0.331   5.876   6.328  0.2793 -0.1457  0.1038
  168SOPE   O1318897   0.274   5.797   6.215 -0.5633 -0.3115 -0.1793
  168SOPE   O1418898   0.276   6.009   6.360  0.4657  0.4158 -0.1750
  168SOPE   O1218899   0.482   5.907   6.306 -0.1524 -0.8516  0.6159
  168SOPE   O1118900   0.324   5.781   6.457  0.1919  0.7245 -0.1657
  168SOPE    C118901   0.212   5.773   6.544 -0.7964 -0.2622  0.2408
  168SOPE    HA18902   0.136   5.705   6.498  1.2401 -0.2976 -3.3865
  168SOPE    HB18903   0.161   5.870   6.558 -1.2046 -0.2498 -1.1733
  168SOPE    C218904   0.245   5.716   6.686  0.0331  0.0869  0.2496
  168SOPE    HS18905   0.154   5.683   6.739 -0.3652  2.4069  1.1454
  168SOPE   O2118906   0.324   5.809   6.770  1.0000 -0.3101 -0.1124
  168SOPE   C2118907   0.259   5.922   6.798 -0.6307  0.1514 -0.2695
  168SOPE   O2218908   0.136   5.938   6.791  0.4475  0.0659 -0.1728
  168SOPE   C2218909   0.355   6.032   6.833  0.3284 -0.2752  0.2628
  168SOPE   H2R18910   0.315   6.122   6.781  0.3728 -1.3473 -1.7141
  168SOPE   H2S18911   0.449   6.023   6.777 -0.4479  2.5452 -1.7062
  168SOPE    C318912   0.336   5.586   6.678  0.1718 -0.0847 -0.0684
  168SOPE    HX18913   0.425   5.607   6.615  0.1332 -2.1389 -0.8904
  168SOPE    HY18914   0.280   5.506   6.625  3.7306 -2.1115 -1.1129
  168SOPE   O3118915   0.398   5.539   6.794 -0.2839 -0.4682 -0.3735
  168SOPE   C3118916   0.332   5.446   6.859  1.0310 -0.8385  0.4887
  168SOPE   O3218917   0.222   5.407   6.816  0.0516  0.2658  0.0584
  168SOPE   C3218918   0.398   5.394   6.983 -0.0841 -0.2454 -0.0792
  168SOPE   H2X18919   0.387   5.479   7.053 -0.9899  1.5894 -2.3314
  168SOPE   H2Y18920   0.502   5.372   6.951 -0.1961 -0.9074  0.0009
  168SOPE   C2318921   0.372   6.035   6.987 -0.1514 -0.5286  0.0433
  168SOPE   H3R18922   0.464   6.095   7.000 -0.6502  0.5283 -1.1421
  168SOPE   H3S18923   0.386   5.929   7.019 -1.5693 -1.5720 -2.4290
  168SOPE   C2418924   0.257   6.105   7.058  0.4369  0.1045  0.4923
  168SOPE   H4R18925   0.214   6.196   7.011 -0.1509 -1.4343 -2.2013
  168SOPE   H4S18926   0.170   6.035   7.062 -0.4915  1.1696 -0.4432
  168SOPE   C2518927   0.288   6.156   7.199 -0.6739 -0.5037 -0.3583
  168SOPE   H5R18928   0.398   6.147   7.215 -0.8657 -0.2403  1.3080
  168SOPE   H5S18929   0.248   6.259   7.209  1.6153  0.4011  0.2575
  168SOPE   C2618930   0.223   6.062   7.306  0.6170 -0.0946  0.7430
  168SOPE   H6R18931   0.251   5.955   7.308 -2.5707 -1.0169  1.4208
  168SOPE   H6S18932   0.247   6.103   7.406 -0.7710  2.5333  0.0852
  168SOPE   C2718933   0.076   6.077   7.305  0.3233  0.8053  0.4357
  168SOPE   H7R18934   0.047   6.183   7.323  0.6558  0.6995  1.7232
  168SOPE   H7S18935   0.034   6.061   7.203  1.3204  1.6550 -0.1164
  168SOPE   C2818936   0.003   5.990   7.411 -0.2087 -0.6964  0.1125
  168SOPE   H8R18937   0.051   6.019   7.507  0.7902 -1.1000 -0.2483
  168SOPE   H8S18938  -0.102   6.027   7.411  0.6309  1.9106  0.2191
  168SOPE   C2918939   0.010   5.842   7.389 -0.1353 -0.4167 -0.0748
  168SOPE   H9118940  -0.058   5.821   7.305  0.1929  3.6537 -1.6001
  168SOPE  C21018941   0.082   5.753   7.465  0.5022  0.0260 -0.1314
  168SOPE  H10118942   0.092   5.651   7.425  0.6874  0.1642 -0.4442
  168SOPE  C21118943   0.172   5.789   7.582  0.1088  0.4937 -0.2833
  168SOPE  H11R18944   0.225   5.880   7.548 -1.5764  1.0531 -1.5465
  168SOPE  H11S18945   0.250   5.710   7.591 -0.6745 -0.3236 -0.4705
  168SOPE  C21218946   0.109   5.833   7.718  0.1390  0.3499 -0.3424
  168SOPE  H12R18947   0.056   5.748   7.765 -3.1130  2.0580 -0.6587
  168SOPE  H12S18948   0.035   5.908   7.683 -0.7048 -0.9140 -1.3703
  168SOPE  C21318949   0.217   5.900   7.819  0.8686 -0.5106  0.4009
  168SOPE  H13R18950   0.285   5.963   7.757 -0.4569 -0.1143 -0.7031
  168SOPE  H13S18951   0.287   5.826   7.862  0.4528  0.0370  2.0788
  168SOPE  C21418952   0.162   5.980   7.937 -0.1607 -0.5784 -0.0664
  168SOPE  H14R18953   0.080   6.051   7.911 -0.1007  0.2072  1.7276
  168SOPE  H14S18954   0.242   6.038   7.987 -1.0654  2.6352 -2.0438
  168SOPE  C21518955   0.115   5.881   8.046  0.5499  0.9310  0.8263
  168SOPE  H15R18956   0.194   5.812   8.083  0.1709  0.0340  0.0208
  168SOPE  H15S18957   0.039   5.815   7.998  1.6530 -0.6408  1.1554
  168SOPE  C21618958   0.073   5.944   8.184  0.1229 -0.5707 -0.0712
  168SOPE  H16R18959   0.170   5.987   8.216 -0.4599  0.5416  0.2113
  168SOPE  H16S18960   0.045   5.861   8.253  0.8881  1.1303  2.4002
  168SOPE  C21718961  -0.038   6.048   8.183 -0.2802  0.0470 -0.3348
  168SOPE  H17R18962  -0.085   6.061   8.083 -1.5144  0.8371  0.3182
  168SOPE  H17S18963   0.019   6.139   8.209 -0.3972  0.1052 -0.2801
  168SOPE  C21818964  -0.136   6.015   8.291 -0.1975 -0.3495  0.7057
  168SOPE  H18R18965  -0.176   5.914   8.266  1.9330 -0.9237 -0.6759
  168SOPE  H18S18966  -0.220   6.087   8.286 -0.9007 -1.2298 -0.8087
  168SOPE  H18T18967  -0.095   6.013   8.394 -0.6700 -1.1144  0.8918
  168SOPE   C3318968   0.329   5.267   7.041 -0.5819  0.0228 -0.3196
  168SOPE   H3X18969   0.360   5.175   6.988 -0.1523 -0.5708  0.9554
  168SOPE   H3Y18970   0.219   5.285   7.030 -0.4211 -0.2207 -3.2952
  168SOPE   C3418971   0.360   5.249   7.189  0.4811  0.0104 -1.0379
  168SOPE   H4X18972   0.363   5.339   7.254  1.0247 -0.9665  0.3263
  168SOPE   H4Y18973   0.464   5.212   7.188  0.7832  0.8639 -1.7976
  168SOPE   C3518974   0.279   5.139   7.267  0.1990 -0.0449 -0.1583
  168SOPE   H5X18975   0.247   5.052   7.206  1.0741 -2.0513  2.0927
  168SOPE   H5Y18976   0.181   5.182   7.296  0.1236 -0.3446  0.0317
  168SOPE   C3618977   0.351   5.088   7.394  0.5896  0.2742  0.0028
  168SOPE   H6X18978   0.440   5.025   7.370  0.3421 -0.0594 -0.0488
  168SOPE   H6Y18979   0.277   5.024   7.447 -0.4681  1.8081  0.4127
  168SOPE   C3718980   0.393   5.189   7.503  0.4657 -0.2067 -0.0491
  168SOPE   H7X18981   0.476   5.243   7.453 -1.1726 -0.4712 -3.3641
  168SOPE   H7Y18982   0.428   5.139   7.596  2.2188  3.4180  1.4270
  168SOPE   C3818983   0.284   5.297   7.552  0.5641 -0.1123  0.7207
  168SOPE   H8X18984   0.191   5.245   7.584  0.2269 -0.0171 -0.0698
  168SOPE   H8Y18985   0.273   5.354   7.457  1.0665 -2.1438 -0.6310
  168SOPE   C3918986   0.351   5.381   7.656  0.4564 -0.1769  0.5504
  168SOPE   H9X18987   0.317   5.485   7.637 -0.0004 -0.4253  0.0184
  168SOPE   H9Y18988   0.462   5.377   7.652  0.4812 -0.1994  1.1433
  168SOPE  C31018989   0.302   5.342   7.797  0.5326 -0.0549 -0.8344
  168SOPE  H10X18990   0.325   5.234   7.805 -0.6736 -0.2350  1.0284
  168SOPE  H10Y18991   0.192   5.360   7.802  0.7696  1.2368  0.5494
  168SOPE  C31118992   0.356   5.439   7.906 -0.0753 -0.2563 -0.3908
  168SOPE  H11X18993   0.319   5.544   7.897  0.3889 -0.0359  0.2217
  168SOPE  H11Y18994   0.466   5.441   7.890  0.1671  0.5319  1.1938
  168SOPE  C31218995   0.325   5.386   8.049  0.2020  0.3917  0.1221
  168SOPE  H12X18996   0.400   5.433   8.116 -0.6142  2.3331 -0.2457
  168SOPE  H12Y18997   0.327   5.275   8.049  0.1218  0.2088  5.0212
  168SOPE  C31318998   0.186   5.440   8.087  0.4917  0.8696  0.2887
  168SOPE  H13X18999   0.118   5.408   8.005  1.3204  0.0967 -0.1019
  168SOPE  H13Y19000   0.171   5.550   8.078 -0.0108  0.6629 -1.7863
  168SOPE  C31419001   0.150   5.386   8.228  0.6389 -0.1552 -0.2098
  168SOPE  H14X19002   0.152   5.275   8.234  0.1369 -0.1238  0.9088
  168SOPE  H14Y19003   0.043   5.406   8.250  0.7810  3.0001 -1.7895
  168SOPE  C31519004   0.227   5.441   8.350 -0.0373 -0.4997  0.1295
  168SOPE  H15X19005   0.332   5.434   8.313  0.6487 -0.4543  1.9394
  168SOPE  H15Y19006   0.226   5.371   8.437  3.0159  1.4427  1.9334
  168SOPE  C31619007   0.197   5.583   8.400  0.8291 -0.0516  0.0292
  168SOPE  H16X19008   0.217   5.655   8.318  0.0437 -0.7654 -0.8311
  168SOPE  H16Y19009   0.265   5.608   8.484  1.3477  1.4160 -0.8043
  168SOPE  C31719010   0.053   5.602   8.450  0.0963  0.0231 -0.2907
  168SOPE  H17X19011   0.009   5.506   8.486 -0.9214  0.4222 -0.4478
  168SOPE  H17Y19012  -0.004   5.641   8.364 -0.2393  0.2349  0.0256
  168SOPE  C31819013   0.045   5.703   8.569 -0.2036  0.2998  0.2824
  168SOPE  H18X19014  -0.060   5.737   8.582 -0.3321  0.2017 -0.4149
  168SOPE  H18Y19015   0.100   5.794   8.537  2.7432 -0.6236  2.2884
  168SOPE  H18Z19016   0.090   5.668   8.664  0.8709  0.6912 -0.0572
  169SOPE     N19017   4.541   0.947   6.031  0.1289  0.1155 -0.7128
  169SOPE   HN119018   4.478   0.879   5.985  0.6156 -0.7115 -0.1909
  169SOPE   HN219019   4.639   0.915   6.019  0.3971  1.5033 -2.6556
  169SOPE   HN319020   4.507   0.950   6.129 -2.7363  0.1061 -1.6288
  169SOPE   C1219021   4.518   1.082   5.973 -0.0628 -0.1234 -0.4268
  169SOPE  H12A19022   4.409   1.097   5.961 -0.1185  1.1486  1.3497
  169SOPE  H12B19023   4.578   1.070   5.881  0.6778 -2.4123  0.2750
  169SOPE   C1119024   4.578   1.189   6.066  0.5232  0.3471  0.1305
  169SOPE  H11A19025   4.551   1.292   6.034 -0.5468  1.1750  3.3163
  169SOPE  H11B19026   4.689   1.179   6.070  0.4930 -0.1318 -0.0816
  169SOPE     P19027   4.560   1.285   6.306  0.3800  0.4698  0.0762
  169SOPE   O1319028   4.456   1.394   6.308 -0.2697  0.2074  0.1388
  169SOPE   O1419029   4.702   1.324   6.295  0.0754 -0.2153  0.0253
  169SOPE   O1219030   4.525   1.181   6.195  0.1837  0.1694 -0.4398
  169SOPE   O1119031   4.540   1.199   6.436 -0.2220 -0.0918 -0.2419
  169SOPE    C119032   4.414   1.189   6.484  0.3189 -0.0819 -0.6635
  169SOPE    HA19033   4.365   1.105   6.431  1.7381 -1.1342 -0.3781
  169SOPE    HB19034   4.354   1.282   6.476  1.0519  0.4746  0.1203
  169SOPE    C219035   4.431   1.149   6.639 -0.2560 -0.3629  0.1175
  169SOPE    HS19036   4.522   1.090   6.663 -1.5119 -2.5649 -0.2260
  169SOPE   O2119037   4.316   1.075   6.680  0.5546  0.2408 -0.3342
  169SOPE   C2119038   4.309   0.953   6.635  0.1154 -0.1845  0.4255
  169SOPE   O2219039   4.380   0.903   6.550 -0.4888 -0.2505 -0.3179
  169SOPE   C2219040   4.191   0.892   6.701  0.5524 -0.1478 -0.0526
  169SOPE   H2R19041   4.121   0.858   6.622  0.9873 -1.4620  0.1094
  169SOPE   H2S19042   4.138   0.963   6.769 -2.7304 -2.2695 -0.1597
  169SOPE    C319043   4.448   1.274   6.728 -0.2880  0.2793 -0.5644
  169SOPE    HX19044   4.357   1.335   6.714 -0.6599 -0.3716 -1.0654
  169SOPE    HY19045   4.518   1.344   6.678 -0.2825  0.0494 -0.8842
  169SOPE   O3119046   4.510   1.249   6.857  0.2160  0.0812  0.4038
  169SOPE   C3119047   4.454   1.326   6.954 -0.0926 -0.0619  0.4343
  169SOPE   O3219048   4.383   1.420   6.928  0.5142  0.1420 -0.5336
  169SOPE   C3219049   4.512   1.289   7.087 -0.1530  0.0434  0.5802
  169SOPE   H2X19050   4.621   1.270   7.087 -0.1942 -0.4114 -1.3082
  169SOPE   H2Y19051   4.445   1.206   7.119 -3.4404  2.6748  1.0720
  169SOPE   C2319052   4.231   0.765   6.769  0.3334  0.2492  0.1794
  169SOPE   H3R19053   4.285   0.697   6.700 -0.3617 -2.1514  1.8843
  169SOPE   H3S19054   4.147   0.699   6.799  1.8064 -2.1763 -0.6849
  169SOPE   C2419055   4.330   0.784   6.884  0.3745 -0.0355 -0.5912
  169SOPE   H4R19056   4.333   0.680   6.924 -0.6379  0.7495  1.6967
  169SOPE   H4S19057   4.430   0.812   6.844 -0.3913  2.0483 -1.1813
  169SOPE   C2519058   4.284   0.860   7.005 -0.2215 -0.5742  1.4732
  169SOPE   H5R19059   4.243   0.961   6.981  2.0220  0.4389  1.7119
  169SOPE   H5S19060   4.188   0.821   7.048 -1.1281 -0.3457 -0.2435
  169SOPE   C2619061   4.397   0.891   7.106  0.4440  0.3038 -0.6313
  169SOPE   H6R19062   4.447   0.982   7.067  1.1698  0.2996  0.2649
  169SOPE   H6S19063   4.362   0.909   7.210  0.6985  0.8067 -0.6298
  169SOPE   C2719064   4.502   0.776   7.120 -0.1020 -0.6680 -0.5554
  169SOPE   H7R19065   4.460   0.674   7.131 -0.2083 -0.5734 -0.0427
  169SOPE   H7S19066   4.566   0.761   7.031 -0.1570 -0.3568 -0.6469
  169SOPE   C2819067   4.599   0.803   7.236  0.5775  1.2203 -0.0570
  169SOPE   H8R19068   4.535   0.790   7.326 -0.7692  0.4935 -1.0900
  169SOPE   H8S19069   4.680   0.728   7.250  0.8967  1.6342  0.3874
  169SOPE   C2919070   4.668   0.939   7.225 -0.8189  0.3994 -1.4213
  169SOPE   H9119071   4.666   0.988   7.126  0.5444  0.2602 -1.5398
  169SOPE  C21019072   4.750   0.983   7.324 -0.2078 -0.2833  0.0793
  169SOPE  H10119073   4.792   1.084   7.311 -1.0829  0.1052  0.2365
  169SOPE  C21119074   4.785   0.915   7.454  0.1574 -0.2482  0.4103
  169SOPE  H11R19075   4.894   0.901   7.469  0.1916  0.2839  0.6641
  169SOPE  H11S19076   4.740   0.814   7.464  2.3106 -1.1223  2.2323
  169SOPE  C21219077   4.740   1.000   7.574  0.9447  0.0072  0.5944
  169SOPE  H12R19078   4.630   1.018   7.573  0.7770 -0.8557  1.5646
  169SOPE  H12S19079   4.775   1.105   7.578  1.0171 -0.0409  1.4120
  169SOPE  C21319080   4.774   0.926   7.706  0.2987 -0.3941  0.7374
  169SOPE  H13R19081   4.883   0.904   7.711  0.5729  0.0068 -1.8646
  169SOPE  H13S19082   4.714   0.833   7.713  0.6575 -0.5845  1.4061
  169SOPE  C21419083   4.734   1.014   7.825 -0.0624 -0.7537  0.5272
  169SOPE  H14R19084   4.678   1.097   7.778  1.9225 -0.5691 -1.7061
  169SOPE  H14S19085   4.827   1.060   7.865 -0.0680  0.5304 -0.8792
  169SOPE  C21519086   4.658   0.937   7.931  0.5077 -0.5180  0.5186
  169SOPE  H15R19087   4.718   0.846   7.952  0.2524 -0.5648  1.0403
  169SOPE  H15S19088   4.566   0.902   7.880  0.6181 -0.8424  0.5397
  169SOPE  C21619089   4.627   1.012   8.062 -0.2223  0.7166 -0.1361
  169SOPE  H16R19090   4.616   1.121   8.047  0.6228  0.9480  0.8312
  169SOPE  H16S19091   4.716   1.002   8.127  0.1418  0.7478 -0.6293
  169SOPE  C21719092   4.493   0.967   8.127 -0.3833  0.7934  0.7290
  169SOPE  H17R19093   4.499   0.856   8.132 -0.0079  0.5373 -2.9659
  169SOPE  H17S19094   4.413   0.993   8.056  1.9605  0.6488 -2.1745
  169SOPE  C21819095   4.461   1.014   8.273  0.0269 -0.8070  0.0375
  169SOPE  H18R19096   4.550   0.989   8.335  0.9979  1.6236 -0.2611
  169SOPE  H18S19097   4.364   0.974   8.309  0.1540 -0.8486  0.3349
  169SOPE  H18T19098   4.452   1.123   8.252  0.4573 -0.9372 -0.8734
  169SOPE   C3319099   4.483   1.390   7.199 -0.2111  0.0063  0.5785
  169SOPE   H3X19100   4.373   1.400   7.213 -0.2196 -1.3055  1.5677
  169SOPE   H3Y19101   4.519   1.491   7.168  1.5123 -1.1617 -1.5313
  169SOPE   C3419102   4.558   1.352   7.330  1.1092 -0.0042  0.4295
  169SOPE   H4X19103   4.665   1.369   7.304  0.9904  0.7603  0.4411
  169SOPE   H4Y19104   4.532   1.245   7.346 -3.2743  0.5134 -1.7967
  169SOPE   C3519105   4.504   1.438   7.446 -0.0734  0.3010  0.0883
  169SOPE   H5X19106   4.397   1.411   7.436 -0.1223  1.2347 -3.0937
  169SOPE   H5Y19107   4.513   1.544   7.412 -3.0997  0.1508 -1.4748
  169SOPE   C3619108   4.561   1.413   7.581  0.0695  0.0068  0.2971
  169SOPE   H6X19109   4.672   1.415   7.592  0.2963 -1.7866 -1.0559
  169SOPE   H6Y19110   4.520   1.319   7.624 -1.9402  0.6899 -0.0406
  169SOPE   C3719111   4.499   1.509   7.684  0.2566 -0.4871  0.5128
  169SOPE   H7X19112   4.389   1.498   7.694  0.2714 -3.2384 -1.3455
  169SOPE   H7Y19113   4.509   1.613   7.646  0.4920  0.0100  1.8832
  169SOPE   C3819114   4.564   1.492   7.826  0.0175  0.2138  0.2077
  169SOPE   H8X19115   4.546   1.395   7.877 -2.9255  2.1083  3.2023
  169SOPE   H8Y19116   4.673   1.503   7.805 -0.4451  3.6616 -1.0213
  169SOPE   C3919117   4.534   1.601   7.921  1.0283 -0.4303  0.3789
  169SOPE   H9X19118   4.543   1.696   7.864  1.7583 -0.4554  0.4434
  169SOPE   H9Y19119   4.603   1.597   8.008 -1.8565 -2.8275  2.8100
  169SOPE  C31019120   4.392   1.581   7.985  0.6346  0.2276  0.3843
  169SOPE  H10X19121   4.324   1.556   7.900  0.8203 -0.0832  0.3266
  169SOPE  H10Y19122   4.355   1.670   8.040 -1.8385 -1.9986  2.5976
  169SOPE  C31119123   4.377   1.466   8.089 -0.2413 -0.4385 -0.3213
  169SOPE  H11X19124   4.436   1.500   8.176  1.7664  0.0516 -1.7900
  169SOPE  H11Y19125   4.419   1.371   8.047  0.5668 -0.1324 -0.2237
  169SOPE  C31219126   4.230   1.441   8.139  0.4304 -0.7851 -0.4817
  169SOPE  H12X19127   4.163   1.425   8.052 -2.8101  2.1698  1.2352
  169SOPE  H12Y19128   4.189   1.527   8.196 -0.0606 -2.5843  2.0416
  169SOPE  C31319129   4.223   1.319   8.238  0.5876 -0.1260 -0.4018
  169SOPE  H13X19130   4.294   1.330   8.324 -0.1951 -0.3667  0.2893
  169SOPE  H13Y19131   4.254   1.241   8.166 -1.6101 -0.8086 -0.6553
  169SOPE  C31419132   4.081   1.293   8.287 -0.5352 -0.9145  0.0343
  169SOPE  H14X19133   4.011   1.281   8.202 -0.8038 -0.5521  0.2043
  169SOPE  H14Y19134   4.056   1.376   8.356  0.6640 -0.6931  0.2359
  169SOPE  C31519135   4.085   1.164   8.380  0.6174  0.7716 -0.0518
  169SOPE  H15X19136   4.160   1.183   8.460  1.5258  4.1771 -1.5380
  169SOPE  H15Y19137   4.112   1.085   8.306 -0.3414  0.9751 -0.6453
  169SOPE  C31619138   3.946   1.145   8.443  0.0838 -0.5463 -0.6620
  169SOPE  H16X19139   3.866   1.143   8.366  1.7229  1.1468 -2.5288
  169SOPE  H16Y19140   3.926   1.237   8.503  0.5710 -1.0386  0.2879
  169SOPE  C31719141   3.931   1.036   8.558  0.1124  0.1093 -0.1582
  169SOPE  H17X19142   3.824   1.049   8.586  0.2416 -0.4650  0.6241
  169SOPE  H17Y19143   3.994   1.063   8.645 -2.4395 -1.8108  2.4705
  169SOPE  C31819144   3.970   0.893   8.522 -0.6981 -0.5134 -0.4494
  169SOPE  H18X19145   3.950   0.815   8.600 -2.4385  0.7693  0.4637
  169SOPE  H18Y19146   4.076   0.882   8.494  0.0057 -0.0683  1.7914
  169SOPE  H18Z19147   3.918   0.856   8.431  0.9065 -0.2245 -1.5047
  170SOPE     N19148   3.727   5.322   6.539 -0.0200  0.4568 -0.2560
  170SOPE   HN119149   3.653   5.270   6.488 -1.2904  2.0410 -0.1248
  170SOPE   HN219150   3.812   5.270   6.512  0.1896  0.7563 -0.1811
  170SOPE   HN319151   3.720   5.323   6.643 -1.5921 -2.9484 -0.2034
  170SOPE   C1219152   3.742   5.454   6.469 -0.5222  0.1495  0.1436
  170SOPE  H12A19153   3.778   5.535   6.537 -1.3614  2.9931 -2.5562
  170SOPE  H12B19154   3.638   5.486   6.448 -0.0023  1.0204 -1.1773
  170SOPE   C1119155   3.833   5.446   6.348 -0.2736  0.3394  0.3193
  170SOPE  H11A19156   3.825   5.542   6.291 -0.6734  1.0157  1.4699
  170SOPE  H11B19157   3.795   5.356   6.296 -1.5011  0.6568  0.6212
  170SOPE     P19158   4.044   5.292   6.374  0.3992  0.2867 -0.2915
  170SOPE   O1319159   4.173   5.307   6.450  0.2197  1.3102  0.0783
  170SOPE   O1419160   4.060   5.245   6.238  0.2798 -0.1964 -0.1373
  170SOPE   O1219161   3.962   5.424   6.386 -0.1671  0.4284  0.1390
  170SOPE   O1119162   3.946   5.197   6.454  0.2962  0.2790 -0.1263
  170SOPE    C119163   3.959   5.055   6.459  0.3537 -0.0227  0.1561
  170SOPE    HA19164   4.059   5.017   6.429 -0.3189 -0.8232 -1.1710
  170SOPE    HB19165   3.883   5.006   6.394  1.9489 -1.1929 -0.9288
  170SOPE    C219166   3.938   5.000   6.606 -0.6073  0.2603  0.1104
  170SOPE    HS19167   3.975   4.895   6.609  2.0894  1.1385  0.2687
  170SOPE   O2119168   3.795   5.007   6.635 -0.3864 -0.7853 -0.7793
  170SOPE   C2119169   3.751   4.917   6.722  0.1188 -0.3850 -0.0853
  170SOPE   O2219170   3.815   4.825   6.765  0.0921 -0.2953  0.5462
  170SOPE   C2219171   3.603   4.944   6.743  0.6964  0.3779 -0.9083
  170SOPE   H2R19172   3.549   4.912   6.652  1.0288  0.5338 -1.1630
  170SOPE   H2S19173   3.595   5.055   6.756 -0.5951  0.0363  2.1008
  170SOPE    C319174   4.015   5.082   6.706 -0.1323 -0.5748  0.0746
  170SOPE    HX19175   3.968   5.179   6.729  0.8148  0.4622 -2.0737
  170SOPE    HY19176   4.106   5.122   6.656 -0.6677  0.2302 -0.2632
  170SOPE   O3119177   4.068   5.014   6.818  0.3567  0.3485 -0.1729
  170SOPE   C3119178   3.998   5.035   6.931  0.3571 -0.0554  0.3177
  170SOPE   O3219179   3.904   5.116   6.941  0.2868 -0.7886 -0.2876
  170SOPE   C3219180   4.052   4.947   7.038 -0.5270  0.2708 -0.5732
  170SOPE   H2X19181   4.161   4.960   7.051 -0.1993 -1.1374 -1.7301
  170SOPE   H2Y19182   4.028   4.844   7.006 -2.9172 -0.1281  2.0657
  170SOPE   C2319183   3.538   4.878   6.862  1.2062  0.1097 -0.1444
  170SOPE   H3R19184   3.526   4.771   6.834  1.1614  0.4636 -1.5775
  170SOPE   H3S19185   3.441   4.928   6.881  0.8981 -0.7858  0.7018
  170SOPE   C2419186   3.617   4.882   6.994  0.3120 -0.5792 -0.4825
  170SOPE   H4R19187   3.710   4.822   6.993  1.9562  1.7496  0.9697
  170SOPE   H4S19188   3.655   4.985   7.012  1.9874 -1.3995  0.9450
  170SOPE   C2519189   3.528   4.836   7.113  0.1131  0.1282 -1.0782
  170SOPE   H5R19190   3.430   4.887   7.098 -0.0729 -0.3789 -1.5950
  170SOPE   H5S19191   3.514   4.726   7.109 -0.1993 -0.0293  1.8143
  170SOPE   C2619192   3.584   4.857   7.253 -0.0754  0.9263 -0.2385
  170SOPE   H6R19193   3.669   4.787   7.266  0.0642  1.0434 -0.5115
  170SOPE   H6S19194   3.625   4.960   7.262  1.4445  0.5291 -2.1153
  170SOPE   C2719195   3.471   4.842   7.364 -0.0806  0.2177 -0.6014
  170SOPE   H7R19196   3.387   4.915   7.367 -1.0547 -0.8160 -1.5817
  170SOPE   H7S19197   3.432   4.740   7.343  0.7254  0.0522 -1.3529
  170SOPE   C2819198   3.539   4.849   7.501  0.2523  0.5714  0.6640
  170SOPE   H8R19199   3.464   4.813   7.575  0.4428  0.3421  0.7471
  170SOPE   H8S19200   3.624   4.777   7.494  1.0899  1.5869 -0.0048
  170SOPE   C2919201   3.576   4.987   7.542 -0.2758 -0.3045  0.0181
  170SOPE   H9119202   3.635   5.040   7.465  0.1451 -0.6476  0.1026
  170SOPE  C21019203   3.547   5.056   7.650 -0.3203 -0.9353 -0.1880
  170SOPE  H10119204   3.579   5.160   7.664 -0.6743 -0.7832 -0.5008
  170SOPE  C21119205   3.474   5.013   7.771 -0.2293 -0.3299 -0.0386
  170SOPE  H11R19206   3.399   4.934   7.754 -2.2409  1.2296  1.1595
  170SOPE  H11S19207   3.406   5.098   7.792  0.1264 -0.2866  1.0393
  170SOPE  C21219208   3.561   4.978   7.889 -0.0397 -0.3145 -0.6304
  170SOPE  H12R19209   3.623   5.069   7.904 -2.5097  1.1582  1.4272
  170SOPE  H12S19210   3.636   4.900   7.863 -0.4291 -0.1553 -2.3822
  170SOPE  C21319211   3.484   4.946   8.026  1.2139 -0.5104  0.2493
  170SOPE  H13R19212   3.402   5.018   8.048 -0.4099 -2.5506  1.3130
  170SOPE  H13S19213   3.568   4.944   8.098 -0.0991 -2.6410  1.8735
  170SOPE  C21419214   3.407   4.812   8.017 -0.1282 -0.0710  0.1649
  170SOPE  H14R19215   3.478   4.728   8.033 -0.4716 -0.3918  0.0204
  170SOPE  H14S19216   3.353   4.797   7.921  0.3249  2.0359 -0.4587
  170SOPE  C21519217   3.303   4.798   8.127 -0.1329 -0.0762 -0.1334
  170SOPE  H15R19218   3.357   4.783   8.224  1.0186 -0.6550 -0.8436
  170SOPE  H15S19219   3.253   4.703   8.098  1.6047 -0.3824 -2.3334
  170SOPE  C21619220   3.192   4.902   8.149  0.0361  0.7542  0.0120
  170SOPE  H16R19221   3.229   5.000   8.185 -2.2559  2.5511 -2.1284
  170SOPE  H16S19222   3.134   4.860   8.234  0.7743  0.5997  0.4411
  170SOPE  C21719223   3.080   4.912   8.041 -0.0581 -0.8756 -0.3554
  170SOPE  H17R19224   3.009   4.995   8.063  1.5197  1.1631 -2.5082
  170SOPE  H17S19225   3.030   4.814   8.057 -0.2290 -0.5720  1.1604
  170SOPE  C21819226   3.115   4.945   7.898  0.2973  0.2100  0.0231
  170SOPE  H18R19227   3.138   5.053   7.899 -0.0342  0.2792  0.1932
  170SOPE  H18S19228   3.028   4.939   7.829  0.6151 -0.4997 -0.3272
  170SOPE  H18T19229   3.196   4.886   7.850  1.2136  2.1835 -0.9406
  170SOPE   C3319230   3.984   4.993   7.172 -0.0219 -0.3738 -0.4343
  170SOPE   H3X19231   3.875   5.003   7.160  0.2943  0.1664 -3.4407
  170SOPE   H3Y19232   4.026   5.094   7.191  0.1662 -0.5652  0.2000
  170SOPE   C3419233   3.997   4.892   7.292 -0.4160 -0.0363  0.6133
  170SOPE   H4X19234   4.105   4.869   7.305 -0.0539  0.6389 -1.0144
  170SOPE   H4Y19235   3.942   4.798   7.268  0.2337 -0.4614  0.7488
  170SOPE   C3519236   3.933   4.952   7.415  0.4948  0.0277 -0.1251
  170SOPE   H5X19237   3.822   4.950   7.411  0.5365 -0.5640 -2.1186
  170SOPE   H5Y19238   3.971   5.055   7.433  1.9345 -0.3971 -0.6424
  170SOPE   C3619239   3.984   4.881   7.547  0.5792 -0.4476  0.5883
  170SOPE   H6X19240   4.095   4.878   7.548  0.6115  0.3295 -0.0102
  170SOPE   H6Y19241   3.940   4.779   7.548  1.2938 -0.7853  2.6236
  170SOPE   C3719242   3.928   4.947   7.681  0.2179 -0.0743  0.1742
  170SOPE   H7X19243   3.823   4.915   7.699 -0.0505 -0.0936 -1.2970
  170SOPE   H7Y19244   3.927   5.054   7.653  0.5003 -0.3198 -0.8255
  170SOPE   C3819245   4.010   4.909   7.810  0.1488  1.0735  0.5086
  170SOPE   H8X19246   4.119   4.924   7.798  0.7487 -3.0312 -0.5078
  170SOPE   H8Y19247   3.979   4.804   7.825 -1.4471  1.5174  0.5816
  170SOPE   C3919248   3.968   4.983   7.928  0.3325  0.9044  0.7716
  170SOPE   H9X19249   3.858   4.971   7.942 -0.1420  0.1221 -2.6227
  170SOPE   H9Y19250   3.979   5.092   7.905 -0.4926  0.8488  0.0114
  170SOPE  C31019251   4.043   4.945   8.048  0.2540 -0.0615  0.1824
  170SOPE  H10X19252   4.148   4.944   8.010  0.0546  0.2882 -0.4005
  170SOPE  H10Y19253   4.010   4.843   8.079 -1.0526 -0.0944 -1.1635
  170SOPE  C31119254   4.029   5.047   8.158 -0.6364 -0.0762  0.4720
  170SOPE  H11X19255   3.920   5.068   8.163 -1.4242 -2.5464 -2.7742
  170SOPE  H11Y19256   4.066   5.144   8.118 -1.4229 -0.6919 -1.8854
  170SOPE  C31219257   4.091   5.001   8.286 -0.1390 -0.4966  0.4733
  170SOPE  H12X19258   4.200   5.009   8.273  0.0170  0.4574  2.0303
  170SOPE  H12Y19259   4.062   4.895   8.301 -0.0648 -0.4096  1.2834
  170SOPE  C31319260   4.055   5.083   8.408  0.0037 -0.3529 -0.6599
  170SOPE  H13X19261   4.106   5.041   8.497 -0.0941 -0.0758 -0.4700
  170SOPE  H13Y19262   3.946   5.065   8.420  0.4527 -1.7645  2.0244
  170SOPE  C31419263   4.098   5.229   8.385  0.5248 -0.6769  0.2106
  170SOPE  H14X19264   4.057   5.280   8.475  2.2929  1.4937 -0.1317
  170SOPE  H14Y19265   4.046   5.272   8.296 -1.0327 -1.8150  0.5287
  170SOPE  C31519266   4.246   5.265   8.385  1.1809  0.2383 -0.1051
  170SOPE  H15X19267   4.291   5.222   8.293  1.2440 -1.1370  0.5437
  170SOPE  H15Y19268   4.294   5.228   8.478  0.2743 -0.8458 -0.0532
  170SOPE  C31619269   4.264   5.416   8.393  1.0007 -0.0250  0.0459
  170SOPE  H16X19270   4.204   5.448   8.480  0.2355  1.7027 -1.0673
  170SOPE  H16Y19271   4.219   5.453   8.298  0.5596  0.5668  0.4820
  170SOPE  C31719272   4.399   5.477   8.421  0.9196  0.1806  0.0594
  170SOPE  H17X19273   4.422   5.544   8.336  0.7524  0.9674  0.6231
  170SOPE  H17Y19274   4.479   5.400   8.425  0.4328 -0.3090  0.5824
  170SOPE  C31819275   4.426   5.566   8.549 -0.5514 -0.1236 -0.0415
  170SOPE  H18X19276   4.532   5.592   8.568 -0.4857 -0.2993 -0.1681
  170SOPE  H18Y19277   4.383   5.506   8.631 -1.2585  1.3839  0.7247
  170SOPE  H18Z19278   4.381   5.667   8.536 -0.5678 -0.2247 -0.8062
  171SOPE     N19279   4.969   1.262   6.262  0.1940 -0.3302 -0.4950
  171SOPE   HN119280   4.971   1.170   6.215 -2.2095 -0.9452  0.4475
  171SOPE   HN219281   4.870   1.285   6.285  0.3321 -1.5271  1.5390
  171SOPE   HN319282   5.019   1.327   6.197  0.8792 -0.8181 -0.4637
  171SOPE   C1219283   5.050   1.255   6.395 -0.2381 -0.3552  0.3924
  171SOPE  H12A19284   4.982   1.203   6.467  0.3004  0.2804  1.3709
  171SOPE  H12B19285   5.064   1.357   6.435  0.3349 -0.2187 -0.1457
  171SOPE   C1119286   5.186   1.182   6.389  0.1366  0.3274  0.4120
  171SOPE  H11A19287   5.165   1.074   6.370 -0.1760  0.0208  2.3097
  171SOPE  H11B19288   5.245   1.176   6.482  0.7117 -1.9124 -0.0380
  171SOPE     P19289   5.403   1.278   6.274 -0.3670  0.1244  0.3186
  171SOPE   O1319290   5.403   1.421   6.295  0.7600  0.6055 -0.1203
  171SOPE   O1419291   5.462   1.225   6.149 -0.6429 -0.2261  0.4611
  171SOPE   O1219292   5.257   1.231   6.274 -0.3228  0.0225 -0.0039
  171SOPE   O1119293   5.467   1.197   6.393  0.2294 -0.3178  0.7098
  171SOPE    C119294   5.601   1.202   6.434 -0.1203 -0.1566 -0.5555
  171SOPE    HA19295   5.667   1.277   6.385 -1.0382  0.4628 -0.8856
  171SOPE    HB19296   5.648   1.102   6.423 -0.1593  0.0431 -3.0536
  171SOPE    C219297   5.614   1.233   6.586 -0.5426  0.1508  0.9363
  171SOPE    HS19298   5.560   1.327   6.611 -3.2079 -1.5145  1.9592
  171SOPE   O2119299   5.755   1.249   6.604  0.1759  0.1022 -0.5938
  171SOPE   C2119300   5.794   1.325   6.702  0.1353 -0.2163  0.8838
  171SOPE   O2219301   5.723   1.386   6.776  0.0906  0.0732  0.0468
  171SOPE   C2219302   5.952   1.315   6.707  0.1207 -0.2538 -0.1712
  171SOPE   H2R19303   5.994   1.369   6.619  2.0182  1.6030  1.7320
  171SOPE   H2S19304   5.978   1.207   6.696  0.9313 -0.1049  0.1786
  171SOPE    C319305   5.564   1.115   6.670 -0.8026  0.1766 -0.0853
  171SOPE    HX19306   5.632   1.034   6.637  0.7545  0.8558  1.2733
  171SOPE    HY19307   5.459   1.085   6.652 -0.1838 -0.3478 -3.6573
  171SOPE   O3119308   5.594   1.131   6.815  0.3945  0.5335 -0.2955
  171SOPE   C3119309   5.509   1.211   6.882  0.4824  0.6423 -0.2971
  171SOPE   O3219310   5.404   1.255   6.841  0.1628 -0.1633 -0.2003
  171SOPE   C3219311   5.560   1.233   7.024  0.1352 -0.8200  1.3153
  171SOPE   H2X19312   5.651   1.296   7.023 -0.9613  0.8428  1.5287
  171SOPE   H2Y19313   5.601   1.140   7.069 -0.0544 -0.8732  1.3831
  171SOPE   C2319314   6.018   1.384   6.830 -0.6079 -1.1631  0.4768
  171SOPE   H3R19315   5.998   1.493   6.823 -1.9365 -1.3336  1.2451
  171SOPE   H3S19316   6.129   1.376   6.829 -0.5419 -0.2623  0.1862
  171SOPE   C2419317   5.970   1.332   6.966 -0.7317  0.7322 -0.0350
  171SOPE   H4R19318   5.863   1.354   6.986 -1.5253 -0.9290 -2.0841
  171SOPE   H4S19319   5.974   1.221   6.954 -2.2265  0.8876 -2.5812
  171SOPE   C2519320   6.065   1.377   7.085 -0.6580 -0.2894  0.1828
  171SOPE   H5R19321   6.171   1.381   7.051 -0.6794 -0.4394  0.0981
  171SOPE   H5S19322   6.042   1.483   7.110 -0.6399 -0.1977 -0.1931
  171SOPE   C2619323   6.055   1.295   7.214 -0.3594  0.1904  0.0995
  171SOPE   H6R19324   6.056   1.187   7.188 -3.3308  0.4750 -1.7191
  171SOPE   H6S19325   6.145   1.328   7.269 -2.0179 -0.1628  3.2807
  171SOPE   C2719326   5.939   1.321   7.301  0.8938  0.1952 -0.7609
  171SOPE   H7R19327   5.947   1.425   7.339  0.2812  0.5781 -1.6315
  171SOPE   H7S19328   5.843   1.303   7.247 -0.1147  0.6264  0.8362
  171SOPE   C2819329   5.937   1.222   7.418  0.3992 -0.6259 -0.4124
  171SOPE   H8R19330   5.946   1.119   7.379  0.5970 -1.5179  1.8413
  171SOPE   H8S19331   6.036   1.239   7.467  0.6831  1.2493 -1.5144
  171SOPE   C2919332   5.820   1.244   7.508 -0.6125 -0.2290 -0.1015
  171SOPE   H9119333   5.725   1.207   7.466  0.1703  0.1888 -2.3559
  171SOPE  C21019334   5.820   1.317   7.623  0.2114  0.3354  0.7366
  171SOPE  H10119335   5.723   1.327   7.673 -0.1060  0.5300  0.0979
  171SOPE  C21119336   5.941   1.386   7.688  0.3444 -0.1476  0.9024
  171SOPE  H11R19337   6.036   1.354   7.640 -0.3490  3.0163 -3.1291
  171SOPE  H11S19338   5.940   1.383   7.799  1.5228  0.1518  0.9358
  171SOPE  C21219339   5.940   1.537   7.649  0.4436 -0.7658  0.5844
  171SOPE  H12R19340   5.964   1.546   7.541  1.8907 -1.9564  0.7804
  171SOPE  H12S19341   6.030   1.573   7.703 -0.8429  1.7828  1.2043
  171SOPE  C21319342   5.811   1.608   7.677 -0.1361 -0.2937  0.0995
  171SOPE  H13R19343   5.733   1.571   7.607 -0.6301 -0.7136  0.8615
  171SOPE  H13S19344   5.839   1.710   7.642 -1.9792  0.5691  1.0083
  171SOPE  C21419345   5.766   1.614   7.823  0.4248 -0.2573 -0.3639
  171SOPE  H14R19346   5.710   1.523   7.856 -0.2641  0.2590 -0.0728
  171SOPE  H14S19347   5.686   1.691   7.825 -1.3328 -2.0138 -0.0136
  171SOPE  C21519348   5.871   1.664   7.926 -0.1350 -0.5804  0.2306
  171SOPE  H15R19349   5.896   1.770   7.905  1.5182 -0.6390  1.6456
  171SOPE  H15S19350   5.971   1.618   7.914 -1.0652 -2.2518 -1.6164
  171SOPE  C21619351   5.822   1.656   8.073  0.1807  0.5014  0.2646
  171SOPE  H16R19352   5.775   1.559   8.100  0.1063  0.8040  1.2650
  171SOPE  H16S19353   5.740   1.730   8.090  2.1673  2.3387  2.7027
  171SOPE  C21719354   5.927   1.697   8.179  0.0205  1.1716 -0.2945
  171SOPE  H17R19355   5.885   1.702   8.282  0.5535 -0.9606  0.0704
  171SOPE  H17S19356   5.966   1.799   8.156 -0.4145  1.0101 -1.8255
  171SOPE  C21819357   6.048   1.609   8.187  0.4535 -0.0361 -0.5250
  171SOPE  H18R19358   6.105   1.609   8.092  1.1660  2.4740 -0.1747
  171SOPE  H18S19359   6.030   1.507   8.226  0.4770 -0.7449 -2.3101
  171SOPE  H18T19360   6.115   1.664   8.258 -2.5009  0.8059  1.8422
  171SOPE   C3319361   5.453   1.304   7.112 -0.2446 -0.1974  0.3193
  171SOPE   H3X19362   5.359   1.246   7.123 -0.8608  0.8205  0.5472
  171SOPE   H3Y19363   5.419   1.398   7.063  2.5540 -0.2639 -2.0217
  171SOPE   C3419364   5.516   1.340   7.249 -0.7208  0.4317  0.1749
  171SOPE   H4X19365   5.579   1.428   7.224  1.0594 -0.2121  2.1229
  171SOPE   H4Y19366   5.577   1.257   7.290  1.9048  2.9054  1.5876
  171SOPE   C3519367   5.407   1.383   7.350  0.4916  0.4021 -0.3569
  171SOPE   H5X19368   5.327   1.307   7.347  1.9888 -1.2208 -1.1965
  171SOPE   H5Y19369   5.357   1.470   7.302 -0.1645  1.4198  2.0152
  171SOPE   C3619370   5.471   1.419   7.486  0.6129  1.0316 -0.7952
  171SOPE   H6X19371   5.519   1.519   7.480 -0.0244  1.2993 -1.6552
  171SOPE   H6Y19372   5.549   1.344   7.508 -0.1916  0.4010 -0.0187
  171SOPE   C3719373   5.366   1.419   7.599  0.3043 -0.1128 -0.7496
  171SOPE   H7X19374   5.340   1.317   7.636  0.2589  0.3959  0.6697
  171SOPE   H7Y19375   5.269   1.441   7.551  0.3893 -0.9777 -1.3384
  171SOPE   C3819376   5.392   1.517   7.710 -0.6004 -0.1027  0.0953
  171SOPE   H8X19377   5.423   1.616   7.670  3.0749 -0.9695  0.4950
  171SOPE   H8Y19378   5.480   1.482   7.768 -0.6376 -0.8941 -0.3136
  171SOPE   C3919379   5.278   1.522   7.809  0.3893  0.7039  0.1371
  171SOPE   H9X19380   5.249   1.419   7.837  3.0995 -0.2875 -0.4018
  171SOPE   H9Y19381   5.192   1.580   7.769  0.6276 -0.0922 -1.6265
  171SOPE  C31019382   5.322   1.593   7.933 -0.5571 -0.2012  0.2574
  171SOPE  H10X19383   5.388   1.680   7.914 -1.3940  0.4557  0.2750
  171SOPE  H10Y19384   5.386   1.521   7.988 -0.5701  0.2714  0.9020
  171SOPE  C31119385   5.204   1.640   8.019 -0.1575  0.6998  0.1182
  171SOPE  H11X19386   5.149   1.548   8.049  0.4678  0.8399  1.7938
  171SOPE  H11Y19387   5.134   1.701   7.958 -2.0400 -1.9669 -0.5662
  171SOPE  C31219388   5.241   1.698   8.158 -0.1686  0.0711 -0.0918
  171SOPE  H12X19389   5.299   1.793   8.160  0.3364 -0.2241  2.5606
  171SOPE  H12Y19390   5.319   1.631   8.200 -1.2523 -0.9857  0.2732
  171SOPE  C31319391   5.121   1.717   8.251 -0.0122  0.1551  0.3440
  171SOPE  H13X19392   5.150   1.768   8.346 -2.6775 -1.9393  2.4280
  171SOPE  H13Y19393   5.078   1.620   8.281 -1.3556  1.0432  1.4004
  171SOPE  C31419394   5.009   1.800   8.193  0.2161 -0.1847 -0.2545
  171SOPE  H14X19395   4.916   1.799   8.255 -0.3839 -0.0760 -1.1372
  171SOPE  H14Y19396   4.974   1.759   8.096 -1.5409  0.2085  0.1783
  171SOPE  C31519397   5.051   1.948   8.164  0.7451 -0.0534  0.8042
  171SOPE  H15X19398   4.960   2.001   8.126  0.9553  0.1008  0.5135
  171SOPE  H15Y19399   5.127   1.938   8.084 -0.1945 -0.5429 -0.0602
  171SOPE  C31619400   5.108   2.023   8.282  0.4103 -0.7391 -0.7617
  171SOPE  H16X19401   5.216   1.999   8.293  0.1479 -2.6117 -1.7990
  171SOPE  H16Y19402   5.053   1.995   8.374 -0.2727  1.4008 -0.4637
  171SOPE  C31719403   5.100   2.178   8.264  0.0285 -0.0836 -0.3509
  171SOPE  H17X19404   5.165   2.206   8.179  2.5496  2.3965  2.1869
  171SOPE  H17Y19405   5.153   2.224   8.350 -1.5114  1.2492 -0.0795
  171SOPE  C31819406   4.954   2.242   8.260 -0.2688 -0.3827 -0.3299
  171SOPE  H18X19407   4.904   2.221   8.163 -0.2777  0.2964 -0.4806
  171SOPE  H18Y19408   4.963   2.353   8.270 -0.5157 -0.1124 -2.6082
  171SOPE  H18Z19409   4.890   2.204   8.343 -1.0612  0.3832 -0.5732
  172SOPE     N19410   3.645   2.644   6.285  0.1583  0.8426 -0.7884
  172SOPE   HN119411   3.553   2.685   6.260  0.4588  1.5112 -0.8151
  172SOPE   HN219412   3.723   2.700   6.246  3.6531 -3.8788 -1.5299
  172SOPE   HN319413   3.651   2.547   6.248 -0.3639  0.5642 -0.1699
  172SOPE   C1219414   3.662   2.628   6.433 -0.1008 -0.3978 -0.3109
  172SOPE  H12A19415   3.574   2.589   6.488  0.8211 -0.2646  1.3066
  172SOPE  H12B19416   3.669   2.734   6.466 -0.8315  0.7876 -3.5434
  172SOPE   C1119417   3.790   2.563   6.483 -0.3734  0.6961  0.1499
  172SOPE  H11A19418   3.800   2.455   6.458 -0.5001  0.1493  2.3186
  172SOPE  H11B19419   3.774   2.580   6.591 -2.9284  1.3280 -0.2703
  172SOPE     P19420   4.015   2.710   6.499  0.2927  0.1384 -0.0783
  172SOPE   O1319421   4.055   2.822   6.418  0.2842 -0.1960  0.0828
  172SOPE   O1419422   4.115   2.604   6.534  0.3084 -0.2524 -0.5913
  172SOPE   O1219423   3.900   2.643   6.426 -0.0606 -0.1490 -0.2618
  172SOPE   O1119424   3.955   2.757   6.643 -0.3507  0.3951  0.3017
  172SOPE    C119425   4.023   2.871   6.698 -0.4570 -0.4977 -0.0485
  172SOPE    HA19426   3.977   2.906   6.793  0.5851  0.8605 -0.0272
  172SOPE    HB19427   4.036   2.962   6.636 -1.0269  0.5613  1.3468
  172SOPE    C219428   4.162   2.830   6.756 -0.1965 -1.0317  0.4009
  172SOPE    HS19429   4.231   2.800   6.675 -0.3266 -1.2281  0.3625
  172SOPE   O2119430   4.128   2.729   6.856  0.2747 -0.2999  0.1138
  172SOPE   C2119431   4.233   2.667   6.903  0.2098 -0.8994 -0.2474
  172SOPE   O2219432   4.344   2.672   6.853  0.2651 -0.2232  0.4653
  172SOPE   C2219433   4.192   2.572   7.016 -0.3081 -0.4682  0.2555
  172SOPE   H2R19434   4.265   2.489   7.016 -1.1146 -1.1958  1.1834
  172SOPE   H2S19435   4.095   2.529   6.984  0.0702  0.4471 -2.3672
  172SOPE    C319436   4.236   2.950   6.817  0.1556  0.4049  0.1123
  172SOPE    HX19437   4.338   2.912   6.838 -0.5672 -1.2813  0.8132
  172SOPE    HY19438   4.183   2.972   6.912 -0.4885 -1.1554  0.1624
  172SOPE   O3119439   4.242   3.072   6.734 -0.5117 -0.6995 -0.1367
  172SOPE   C3119440   4.332   3.068   6.635  0.3433  0.0779 -0.3982
  172SOPE   O3219441   4.369   2.964   6.576  0.1246 -0.7333  0.0126
  172SOPE   C3219442   4.384   3.213   6.601 -0.2153  0.4255 -0.9210
  172SOPE   H2X19443   4.301   3.285   6.617  0.3113  0.9812 -0.6646
  172SOPE   H2Y19444   4.413   3.204   6.494  1.7843  0.1168 -0.3987
  172SOPE   C2319445   4.184   2.652   7.141 -0.0289 -0.1431 -0.7301
  172SOPE   H3R19446   4.096   2.719   7.142 -0.2303 -0.1046  4.0932
  172SOPE   H3S19447   4.275   2.712   7.160 -0.6801  1.3103 -2.0882
  172SOPE   C2419448   4.177   2.556   7.267  0.4585 -0.1393  0.5504
  172SOPE   H4R19449   4.126   2.459   7.247  0.1102  0.4585 -1.8075
  172SOPE   H4S19450   4.278   2.527   7.303  0.4291 -0.6207  0.2484
  172SOPE   C2519451   4.102   2.608   7.397 -0.5520 -0.1253  0.6427
  172SOPE   H5R19452   4.137   2.713   7.408 -0.2227 -0.0764 -0.7568
  172SOPE   H5S19453   3.992   2.609   7.386 -0.9197  0.3776  3.5527
  172SOPE   C2619454   4.140   2.534   7.528  0.3076 -0.4620 -0.0574
  172SOPE   H6R19455   4.110   2.428   7.522 -0.6164 -0.2366  0.3759
  172SOPE   H6S19456   4.249   2.522   7.547  0.3349 -2.7030 -1.4052
  172SOPE   C2719457   4.077   2.597   7.656 -0.1192  0.4042  0.0432
  172SOPE   H7R19458   4.101   2.706   7.658 -0.3347  0.4873 -1.0850
  172SOPE   H7S19459   3.966   2.594   7.657 -0.1209  0.5350  0.4667
  172SOPE   C2819460   4.126   2.538   7.789 -0.3790 -0.2396  0.8247
  172SOPE   H8R19461   4.074   2.440   7.795  1.3942 -1.2927 -0.0744
  172SOPE   H8S19462   4.236   2.527   7.781 -0.6753 -2.0807 -2.5105
  172SOPE   C2919463   4.095   2.628   7.908 -0.1871 -0.0612  0.1825
  172SOPE   H9119464   4.132   2.731   7.897  0.9511 -0.6163 -1.7787
  172SOPE  C21019465   4.028   2.592   8.021 -0.1286  0.5271  0.4403
  172SOPE  H10119466   4.033   2.666   8.103  0.1630  0.9823  0.0158
  172SOPE  C21119467   3.985   2.456   8.070 -0.3584  0.0427  0.8956
  172SOPE  H11R19468   3.968   2.383   7.988  0.1598 -0.2423  1.0360
  172SOPE  H11S19469   3.889   2.461   8.125 -0.9044 -0.5833  0.0255
  172SOPE  C21219470   4.081   2.387   8.175  0.5603  0.0847 -0.1409
  172SOPE  H12R19471   4.187   2.403   8.147  1.0417  0.4979  1.7573
  172SOPE  H12S19472   4.057   2.279   8.169 -2.2684  0.6315 -0.3562
  172SOPE  C21319473   4.066   2.446   8.320 -0.6914  0.1764  0.0901
  172SOPE  H13R19474   3.961   2.433   8.354 -1.0329  1.0643 -0.5782
  172SOPE  H13S19475   4.087   2.555   8.313  1.0576 -0.1098  0.3558
  172SOPE  C21419476   4.171   2.388   8.417  0.7551 -0.6036 -0.1017
  172SOPE  H14R19477   4.268   2.421   8.374 -0.2213 -0.1587 -2.1348
  172SOPE  H14S19478   4.179   2.278   8.421 -3.1018 -1.0025  0.8606
  172SOPE  C21519479   4.147   2.441   8.560 -0.0865  0.2096  0.0788
  172SOPE  H15R19480   4.220   2.381   8.618  0.2129 -0.9258 -1.4051
  172SOPE  H15S19481   4.042   2.419   8.587  0.3037 -0.9115  0.7461
  172SOPE  C21619482   4.180   2.587   8.575  0.1775 -0.2942  0.7415
  172SOPE  H16R19483   4.116   2.653   8.513  0.5745 -1.8956 -1.4788
  172SOPE  H16S19484   4.285   2.601   8.542  0.1819  0.1813  0.9347
  172SOPE  C21719485   4.173   2.625   8.716 -0.3953  0.4824 -0.4956
  172SOPE  H17R19486   4.261   2.571   8.758  1.1085 -0.1016 -4.0464
  172SOPE  H17S19487   4.078   2.598   8.767 -0.8695  0.6154 -1.2925
  172SOPE  C21819488   4.192   2.766   8.737 -0.6032  0.1626  0.0491
  172SOPE  H18R19489   4.141   2.829   8.662  1.4037  2.1099  0.2308
  172SOPE  H18S19490   4.300   2.792   8.737 -0.5874  0.1899 -1.3547
  172SOPE  H18T19491   4.165   2.799   8.840  2.4916  2.7624  0.1924
  172SOPE   C3319492   4.506   3.238   6.693 -0.1742 -0.0215 -0.3159
  172SOPE   H3X19493   4.553   3.314   6.628 -0.5675 -1.2388 -2.0892
  172SOPE   H3Y19494   4.585   3.161   6.685 -0.6013 -0.4799 -0.2272
  172SOPE   C3419495   4.467   3.286   6.834 -0.5876  0.4249  0.2950
  172SOPE   H4X19496   4.422   3.195   6.879 -0.0308 -0.3748 -0.7204
  172SOPE   H4Y19497   4.390   3.366   6.826 -1.5959 -0.3947  1.3435
  172SOPE   C3519498   4.589   3.332   6.915  0.7778 -0.3581 -0.7361
  172SOPE   H5X19499   4.626   3.435   6.895  0.4245  0.5051  2.4475
  172SOPE   H5Y19500   4.680   3.274   6.890  0.4224 -0.9256 -0.7323
  172SOPE   C3619501   4.562   3.329   7.059 -0.8515 -0.1398 -0.3317
  172SOPE   H6X19502   4.510   3.235   7.089  0.3942 -0.1517  2.0690
  172SOPE   H6Y19503   4.501   3.419   7.084  1.8372  2.1762 -1.5053
  172SOPE   C3719504   4.691   3.345   7.152  0.2355  0.1370  0.3144
  172SOPE   H7X19505   4.743   3.441   7.132  0.4418  0.0822  0.5838
  172SOPE   H7Y19506   4.766   3.266   7.127  0.4207  0.9465 -1.8848
  172SOPE   C3819507   4.657   3.348   7.301  0.5693 -0.9978  0.1202
  172SOPE   H8X19508   4.614   3.250   7.329  0.1670 -0.8865 -0.0956
  172SOPE   H8Y19509   4.591   3.432   7.330  2.3883  0.5989 -0.1345
  172SOPE   C3919510   4.784   3.375   7.379  0.3572 -0.5591  0.4455
  172SOPE   H9X19511   4.831   3.471   7.351  1.4592 -0.7565  1.5291
  172SOPE   H9Y19512   4.854   3.291   7.359  1.2181  0.3007 -0.2345
  172SOPE  C31019513   4.760   3.371   7.526 -0.4496 -0.1622  0.1298
  172SOPE  H10X19514   4.712   3.274   7.552 -2.4568  1.3389  2.4014
  172SOPE  H10Y19515   4.691   3.450   7.563 -0.1429  1.2185 -2.0345
  172SOPE  C31119516   4.884   3.386   7.613 -0.0301  0.0733 -0.5981
  172SOPE  H11X19517   4.939   3.480   7.593 -0.2876  0.5387  0.7477
  172SOPE  H11Y19518   4.945   3.296   7.590 -0.5991 -0.4064 -0.2685
  172SOPE  C31219519   4.848   3.366   7.762 -0.2063 -0.3165  0.0718
  172SOPE  H12X19520   4.943   3.342   7.814  1.1839  0.6856 -1.9363
  172SOPE  H12Y19521   4.790   3.272   7.761  0.9288 -1.0307 -0.7691
  172SOPE  C31319522   4.789   3.487   7.827 -0.3807 -0.4109  0.5191
  172SOPE  H13X19523   4.683   3.486   7.792 -0.5083 -0.7180  0.9041
  172SOPE  H13Y19524   4.843   3.570   7.777  1.5003 -2.2705 -0.7291
  172SOPE  C31419525   4.819   3.514   7.975  0.6083 -0.7320 -0.6032
  172SOPE  H14X19526   4.754   3.597   8.010  0.7727 -0.7475 -0.2585
  172SOPE  H14Y19527   4.924   3.548   7.987  0.3355 -0.0649 -0.0493
  172SOPE  C31519528   4.784   3.402   8.075 -0.7304  0.0409  0.3264
  172SOPE  H15X19529   4.850   3.313   8.075 -0.0204  0.4965  2.4615
  172SOPE  H15Y19530   4.687   3.360   8.042 -0.7658  0.8173 -0.5908
  172SOPE  C31619531   4.769   3.460   8.218 -0.3919  0.8547 -0.5281
  172SOPE  H16X19532   4.718   3.392   8.290  1.9503  1.0376  1.4422
  172SOPE  H16Y19533   4.700   3.544   8.198  0.4254  0.8311 -4.0812
  172SOPE  C31719534   4.907   3.503   8.276 -0.4485  0.7036 -0.1179
  172SOPE  H17X19535   4.941   3.578   8.202  0.5076  0.5398  0.1380
  172SOPE  H17Y19536   4.984   3.423   8.277 -0.5428  0.5148 -2.4789
  172SOPE  C31819537   4.899   3.570   8.414 -0.0765 -0.7200 -0.4775
  172SOPE  H18X19538   5.004   3.592   8.443 -0.9016  1.7960  0.8506
  172SOPE  H18Y19539   4.860   3.499   8.491  2.3462 -0.3925  1.1403
  172SOPE  H18Z19540   4.841   3.664   8.410  0.9977 -0.0733 -1.5938
  173SAPI   C1219541   0.730   3.249  10.982 -0.1550 -0.2735  0.1866
  173SAPI    H219542   0.689   3.154  11.022 -0.0962 -0.2791  0.2343
  173SAPI    O219543   0.637   3.349  11.004 -0.0268  0.4016  0.2270
  173SAPI   HO219544   0.564   3.335  10.944  0.9465 -1.2483 -0.6358
  173SAPI   C1319545   0.859   3.291  11.056  0.1132 -0.9186 -0.1688
  173SAPI    H319546   0.929   3.207  11.039 -0.5717 -1.2673 -1.3125
  173SAPI    O319547   0.837   3.306  11.200 -0.3938 -0.0579  0.3982
  173SAPI   HO319548   0.918   3.344  11.236 -0.2207  0.4788 -0.5326
  173SAPI   C1419549   0.914   3.425  11.000 -0.3780  0.7156 -0.3182
  173SAPI    H419550   0.851   3.511  11.030 -0.6975  0.4702 -0.2771
  173SAPI    O419551   1.035   3.457  11.072  0.2035  0.4941  0.2598
  173SAPI   HO419552   1.011   3.543  11.107 -0.0233 -0.0346  1.4553
  173SAPI   C1519553   0.935   3.414  10.855  0.0256  0.7017 -0.3105
  173SAPI    H519554   1.011   3.337  10.829 -2.3509 -1.4886 -1.2928
  173SAPI    O519555   0.985   3.543  10.814  0.2327 -0.1559 -0.8000
  173SAPI   HO519556   1.075   3.532  10.782  0.6120 -0.0901  0.1943
  173SAPI   C1619557   0.809   3.369  10.778 -0.4318  0.7094  0.3715
  173SAPI    H619558   0.735   3.452  10.779 -2.6532 -1.1205 -0.6731
  173SAPI    O619559   0.852   3.350  10.645  0.5106  0.2510 -0.2628
  173SAPI   HO619560   0.807   3.416  10.591  2.4353  1.4294 -0.5088
  173SAPI   C1119561   0.757   3.240  10.828  0.3511  0.3064 -0.6736
  173SAPI    H119562   0.844   3.171  10.819  0.1369 -0.3420  1.5356
  173SAPI     P19563   0.618   3.045  10.722 -0.2248  0.2359 -0.1758
  173SAPI   O1319564   0.601   2.979  10.856  0.5040 -0.1697  0.2545
  173SAPI   O1419565   0.733   2.998  10.648 -0.0226  0.1852 -0.3780
  173SAPI   O1219566   0.636   3.206  10.752 -0.1820  0.1105  0.0032
  173SAPI   O1119567   0.484   3.025  10.637  0.0416  0.4561  0.2116
  173SAPI    C119568   0.473   2.928  10.530  0.0061  0.2105 -0.2212
  173SAPI    HA19569   0.508   2.827  10.562  0.0653  0.1255 -0.5431
  173SAPI    HB19570   0.364   2.906  10.523  0.4452 -2.1803 -0.5910
  173SAPI    C219571   0.544   2.956  10.396  0.3836  0.4630  0.1487
  173SAPI    HS19572   0.652   2.932  10.404  0.3167 -0.3345 -1.0168
  173SAPI   O2119573   0.497   3.086  10.348 -0.0330  0.0196 -0.3798
  173SAPI   C2119574   0.592   3.184  10.355  0.3176  0.3376  0.3915
  173SAPI   O2219575   0.709   3.168  10.388 -0.5235 -0.4351  0.5408
  173SAPI   C2219576   0.530   3.314  10.297  0.3337  0.1071 -0.5358
  173SAPI   H2R19577   0.433   3.297  10.246  1.4491 -2.7207 -1.9191
  173SAPI   H2S19578   0.513   3.389  10.378  2.3871 -0.2462  0.2873
  173SAPI    C319579   0.514   2.850  10.285 -0.5914  0.1713  0.5252
  173SAPI    HX19580   0.409   2.870  10.255 -0.2309  1.2549 -0.0725
  173SAPI    HY19581   0.520   2.744  10.319 -1.3326 -0.3376 -0.8582
  173SAPI   O3119582   0.600   2.872  10.169 -0.4495 -0.2340  0.2135
  173SAPI   C3119583   0.716   2.818  10.157 -0.3691  0.0357 -0.3612
  173SAPI   O3219584   0.769   2.744  10.241 -0.4645  0.3773 -0.2018
  173SAPI   C3219585   0.780   2.867  10.017 -0.5376 -0.5730 -0.3743
  173SAPI   H2X19586   0.863   2.796   9.995 -0.7101 -1.5272  1.7520
  173SAPI   H2Y19587   0.814   2.972  10.032  0.2947 -0.6356 -1.6898
  173SAPI   C2319588   0.623   3.359  10.177  1.0101 -0.0652 -0.1985
  173SAPI   H3R19589   0.729   3.359  10.212  0.9410  0.6359  0.0242
  173SAPI   H3S19590   0.602   3.462  10.144  0.5165  0.0387  0.4363
  173SAPI   C2419591   0.616   3.266  10.056 -0.0439 -0.2835 -0.1270
  173SAPI   H4R19592   0.618   3.165  10.102  0.1901 -0.3040 -0.1829
  173SAPI   H4S19593   0.708   3.287   9.997 -0.9020  1.4061 -0.9620
  173SAPI   C2519594   0.487   3.283   9.979 -0.5311 -0.3463 -0.8147
  173SAPI   H5R19595   0.396   3.292  10.040 -0.0806 -0.9145 -0.0473
  173SAPI   C2619596   0.475   3.274   9.848 -0.3416 -0.0217  0.0735
  173SAPI   H6R19597   0.383   3.293   9.790 -0.8565 -1.7430  0.2495
  173SAPI   C2719598   0.583   3.244   9.759 -0.4073 -0.4035 -0.0722
  173SAPI   H7R19599   0.677   3.217   9.811 -0.4371 -1.5526 -0.5841
  173SAPI   H7S19600   0.614   3.343   9.718  0.8511  0.0594  1.8614
  173SAPI   C2819601   0.559   3.149   9.641 -0.8009 -0.3816  0.7084
  173SAPI   H8R19602   0.580   3.050   9.683  0.9786  0.0016  0.8300
  173SAPI   C2919603   0.508   3.166   9.520  0.4445  0.1844 -0.6580
  173SAPI   H9R19604   0.518   3.079   9.454  0.3978 -1.3079  1.2053
  173SAPI  C21019605   0.459   3.296   9.455 -0.1766  0.2314 -0.3860
  173SAPI  H10R19606   0.498   3.383   9.512  0.8015  0.6657 -1.6670
  173SAPI  H10S19607   0.350   3.296   9.472 -0.1307 -3.3138  0.8793
  173SAPI  C21119608   0.493   3.308   9.310  0.0633  0.3748  0.2784
  173SAPI  H11R19609   0.599   3.285   9.295  0.4580  2.2962 -0.1153
  173SAPI  C21219610   0.418   3.346   9.204  0.4416  0.0620 -0.5014
  173SAPI  H12R19611   0.461   3.346   9.103 -1.7643 -0.9168 -1.5159
  173SAPI  C21319612   0.274   3.374   9.209 -0.3882 -0.7880 -0.3960
  173SAPI  H13R19613   0.261   3.482   9.186 -0.1778 -0.6796 -0.0203
  173SAPI  H13S19614   0.238   3.360   9.313 -2.1951 -2.1774 -1.1535
  173SAPI  C21419615   0.189   3.299   9.114 -0.1251  0.1991 -0.2285
  173SAPI  H14R19616   0.199   3.336   9.011  0.0846 -0.1231 -0.3259
  173SAPI  C21519617   0.112   3.195   9.144 -0.7218  0.4198 -0.8697
  173SAPI  H15R19618   0.074   3.139   9.058  0.4392 -0.6831 -0.6851
  173SAPI  C21619619   0.085   3.131   9.284  0.7950  0.2275 -0.0456
  173SAPI  H16R19620   0.190   3.104   9.311  1.6398  2.4463 -0.8336
  173SAPI  H16S19621   0.020   3.041   9.280  1.2076 -0.2691  2.5495
  173SAPI  C21719622   0.016   3.227   9.384 -0.0075  0.2372 -0.1685
  173SAPI  H17R19623  -0.095   3.232   9.374 -0.1194 -1.0215  0.3389
  173SAPI  H17S19624   0.059   3.329   9.377 -0.1631  0.3153  0.0140
  173SAPI  C21819625   0.037   3.174   9.531 -0.1469 -0.3079  1.0896
  173SAPI  H18R19626   0.145   3.166   9.556 -0.0607 -1.7768  0.3596
  173SAPI  H18S19627  -0.004   3.070   9.536  1.8263 -1.0881  2.1349
  173SAPI  C21919628  -0.042   3.255   9.637 -0.2294 -0.0868  0.0866
  173SAPI  H19R19629  -0.146   3.256   9.599  0.7347 -1.6186 -2.9085
  173SAPI  H19S19630   0.004   3.356   9.625  0.0806 -0.3715 -1.3824
  173SAPI  C22019631  -0.035   3.209   9.776 -0.2496  0.1812 -0.4391
  173SAPI  H20R19632  -0.047   3.291   9.849  2.7562 -0.5648  1.0768
  173SAPI  H20S19633   0.070   3.174   9.792 -0.0142  0.0624 -2.0668
  173SAPI  H20T19634  -0.111   3.130   9.795 -0.7156  0.5450 -0.7663
  173SAPI   C3319635   0.677   2.862   9.901 -0.4523 -0.6551  0.4331
  173SAPI   H3X19636   0.703   2.923   9.812  0.7988  0.1796  1.3398
  173SAPI   H3Y19637   0.587   2.912   9.945  0.4833  1.1090  0.4202
  173SAPI   C3419638   0.648   2.719   9.848  0.7155 -0.3192 -0.1990
  173SAPI   H4X19639   0.561   2.730   9.779  0.6065  0.5203  0.0681
  173SAPI   H4Y19640   0.620   2.652   9.932  0.5162 -0.5764 -0.4650
  173SAPI   C3519641   0.755   2.636   9.777 -0.2169  0.2055 -0.0855
  173SAPI   H5X19642   0.710   2.538   9.750 -0.4541  0.7712 -1.8136
  173SAPI   H5Y19643   0.831   2.619   9.857 -1.0229 -2.5380  0.2171
  173SAPI   C3619644   0.820   2.701   9.661  0.4621 -0.0431  0.1205
  173SAPI   H6X19645   0.882   2.788   9.692 -0.2702  0.0638  1.3675
  173SAPI   H6Y19646   0.745   2.752   9.597  0.2084 -1.0752 -0.4352
  173SAPI   C3719647   0.900   2.598   9.581 -0.5036  0.3855  0.3154
  173SAPI   H7X19648   0.844   2.521   9.524 -0.2820 -0.1247  0.7671
  173SAPI   H7Y19649   0.959   2.536   9.652 -2.6829  0.2226  2.1154
  173SAPI   C3819650   0.989   2.668   9.475  0.0736  0.1527 -0.1636
  173SAPI   H8X19651   1.062   2.730   9.532 -0.6954 -0.4895  1.5785
  173SAPI   H8Y19652   0.927   2.732   9.408 -0.8924  0.3234  0.8699
  173SAPI   C3919653   1.062   2.566   9.387 -0.4622 -0.1368  0.0291
  173SAPI   H9X19654   0.997   2.488   9.343 -0.8424  0.0253  0.2992
  173SAPI   H9Y19655   1.128   2.503   9.450  0.4059  0.3053 -0.4210
  173SAPI  C31019656   1.151   2.642   9.284  0.7268 -0.1855 -0.5239
  173SAPI  H10X19657   1.207   2.717   9.344  1.2996  1.2196 -2.6970
  173SAPI  H10Y19658   1.082   2.690   9.212  1.1568 -1.4776 -1.8544
  173SAPI  C31119659   1.261   2.552   9.216 -0.8160 -0.8377  0.5628
  173SAPI  H11X19660   1.309   2.485   9.290 -0.9109 -0.1613  1.2451
  173SAPI  H11Y19661   1.332   2.628   9.178  0.4488 -2.2870 -0.0689
  173SAPI  C31219662   1.207   2.474   9.102 -0.3038 -1.1204  0.1966
  173SAPI  H12X19663   1.139   2.548   9.054 -1.1014 -1.3927  0.8717
  173SAPI  H12Y19664   1.144   2.388   9.136  0.3302 -1.2419  1.1118
  173SAPI  C31319665   1.312   2.428   9.000  0.2196 -1.1523  0.4403
  173SAPI  H13X19666   1.379   2.363   9.061  0.9999 -0.5215  0.2847
  173SAPI  H13Y19667   1.386   2.506   8.971  0.7963 -1.2113  1.6656
  173SAPI  C31419668   1.273   2.355   8.873  1.0992 -0.4572  0.0867
  173SAPI  H14X19669   1.212   2.269   8.908  0.0111  0.3489  0.2538
  173SAPI  H14Y19670   1.358   2.332   8.805 -0.5617 -0.5829 -2.0744
  173SAPI  C31519671   1.173   2.427   8.784 -0.3565 -0.1488 -0.2075
  173SAPI  H15X19672   1.221   2.515   8.738 -1.7176  1.1492  0.7577
  173SAPI  H15Y19673   1.102   2.482   8.849  0.0024  1.4042 -1.0809
  173SAPI  C31619674   1.106   2.329   8.692  0.6819  0.1217  0.4351
  173SAPI  H16X19675   1.027   2.373   8.627  1.7819  1.7031  0.0853
  173SAPI  H16Y19676   1.059   2.246   8.748  2.0491  0.5082  2.2593
  173SAPI  C31719677   1.205   2.260   8.586  1.0544 -0.4540 -0.4817
  173SAPI  H17X19678   1.131   2.202   8.526  0.0956 -1.4029  1.5350
  173SAPI  H17Y19679   1.265   2.182   8.636 -0.4595 -0.6655  1.0912
  173SAPI  C31819680   1.309   2.340   8.497 -0.2612  1.1042  0.4871
  173SAPI  H18X19681   1.275   2.444   8.475 -0.5697  0.9931  0.4278
  173SAPI  H18Y19682   1.338   2.280   8.408  1.7968 -0.3783  2.0767
  173SAPI  H18Z19683   1.395   2.348   8.566  0.0516  1.2207  0.0865
  174SAPI   C1219684   3.613   2.502  11.191 -0.2066 -0.3043  0.8165
  174SAPI    H219685   3.547   2.591  11.190  1.2054  0.7732  0.6605
  174SAPI    O219686   3.744   2.552  11.183 -0.6945 -0.2256 -0.0979
  174SAPI   HO219687   3.738   2.571  11.089  0.4287 -0.6492 -0.2627
  174SAPI   C1319688   3.589   2.423  11.315 -1.2263 -0.0653 -0.5490
  174SAPI    H319689   3.481   2.397  11.319 -0.8620 -1.7572 -0.9011
  174SAPI    O319690   3.617   2.504  11.427 -0.1470 -0.0082 -0.2651
  174SAPI   HO319691   3.712   2.517  11.424 -0.1745  0.3535  0.3625
  174SAPI   C1419692   3.675   2.295  11.324  0.9040 -0.0212  0.3177
  174SAPI    H419693   3.781   2.327  11.325  0.6833  0.7371  1.3847
  174SAPI    O419694   3.631   2.216  11.439  0.1474 -0.0927 -0.0834
  174SAPI   HO419695   3.711   2.165  11.457  0.3301  0.4361  0.6680
  174SAPI   C1519696   3.657   2.211  11.202 -0.3466  0.0571  0.3809
  174SAPI    H519697   3.551   2.176  11.205 -0.7789  1.2602 -0.1980
  174SAPI    O519698   3.724   2.086  11.212  0.8122 -0.2364  0.0413
  174SAPI   HO519699   3.657   2.018  11.205  0.3349 -0.0187  2.0264
  174SAPI   C1619700   3.683   2.292  11.080  0.2822  0.2340 -0.3969
  174SAPI    H619701   3.787   2.330  11.073  0.5914 -0.2934  0.9717
  174SAPI    O619702   3.664   2.210  10.967  0.3386 -0.0693 -0.3326
  174SAPI   HO619703   3.733   2.243  10.910  0.5244 -0.0825 -0.1166
  174SAPI   C1119704   3.589   2.408  11.072  0.2845 -0.3086 -0.6324
  174SAPI    H119705   3.488   2.363  11.081  0.0867 -0.2240 -2.2520
  174SAPI     P19706   3.505   2.589  10.889 -0.1231  0.0772 -0.3098
  174SAPI   O1319707   3.557   2.724  10.858 -0.0829  0.0591  0.0906
  174SAPI   O1419708   3.385   2.592  10.972 -0.1026 -0.1444 -0.3477
  174SAPI   O1219709   3.613   2.490  10.952 -0.3604  0.2467  0.6138
  174SAPI   O1119710   3.481   2.521  10.749  0.3822  0.1944 -0.5277
  174SAPI    C119711   3.569   2.550  10.642  0.2432  0.3502  0.1809
  174SAPI    HA19712   3.541   2.652  10.607 -3.2046 -0.7176 -0.6385
  174SAPI    HB19713   3.678   2.541  10.659  0.3140 -2.9129 -1.3344
  174SAPI    C219714   3.536   2.461  10.516  1.0271  0.5525  0.1372
  174SAPI    HS19715   3.530   2.355  10.548 -0.3686 -0.1560 -2.1843
  174SAPI   O2119716   3.631   2.478  10.410 -0.6992 -0.3811 -0.0335
  174SAPI   C2119717   3.740   2.402  10.421 -0.6246  0.8402 -0.0733
  174SAPI   O2219718   3.760   2.325  10.513 -0.2562  0.6885 -0.0734
  174SAPI   C2219719   3.837   2.423  10.304 -0.5551 -0.6564  0.4935
  174SAPI   H2R19720   3.831   2.529  10.272  3.5222 -0.8613 -1.6316
  174SAPI   H2S19721   3.940   2.411  10.343 -0.1276  2.5909  0.6598
  174SAPI    C319722   3.396   2.499  10.463 -0.2416 -0.4557  0.0987
  174SAPI    HX19723   3.323   2.477  10.544 -0.5973 -2.0141 -0.6207
  174SAPI    HY19724   3.364   2.437  10.377 -1.6952 -1.4731  1.3248
  174SAPI   O3119725   3.394   2.637  10.433 -0.1339  0.2050  0.3296
  174SAPI   C3119726   3.426   2.679  10.314  0.4464 -0.2712 -0.0162
  174SAPI   O3219727   3.451   2.603  10.223 -0.3034 -0.4323 -0.2511
  174SAPI   C3219728   3.418   2.832  10.298 -0.1785 -0.1864 -0.2895
  174SAPI   H2X19729   3.506   2.867  10.356 -1.1246 -2.7313  3.0074
  174SAPI   H2Y19730   3.329   2.869  10.354  0.3001  0.2555  0.1878
  174SAPI   C2319731   3.820   2.329  10.178 -0.5717 -0.3911 -0.3580
  174SAPI   H3R19732   3.809   2.226  10.220 -1.2433 -0.9546 -1.8489
  174SAPI   H3S19733   3.914   2.326  10.120 -1.4853 -1.1627 -1.8739
  174SAPI   C2419734   3.706   2.361  10.087  0.0519  0.9339  0.1402
  174SAPI   H4R19735   3.614   2.343  10.146  0.6924 -0.8228  0.6747
  174SAPI   H4S19736   3.698   2.279  10.012 -0.9132  1.9441 -0.9097
  174SAPI   C2519737   3.717   2.490  10.011  0.1945  0.0783 -0.1513
  174SAPI   H5R19738   3.664   2.576  10.054 -0.6093  0.3713 -1.6453
  174SAPI   C2619739   3.770   2.509   9.881  0.5552  0.3113  1.3452
  174SAPI   H6R19740   3.747   2.609   9.840 -0.2590 -0.2627  0.3216
  174SAPI   C2719741   3.835   2.402   9.793 -0.6813 -0.3965 -0.0009
  174SAPI   H7R19742   3.866   2.316   9.857 -0.5380 -0.5766 -0.3105
  174SAPI   H7S19743   3.930   2.432   9.743  0.0808 -1.2561  0.8937
  174SAPI   C2819744   3.736   2.347   9.697 -0.0188 -0.6884  0.0455
  174SAPI   H8R19745   3.634   2.345   9.738  0.0158 -0.5827  0.1370
  174SAPI   C2919746   3.761   2.324   9.564  0.0211  0.7780  0.2012
  174SAPI   H9R19747   3.684   2.276   9.502  0.8162  0.4058 -0.5270
  174SAPI  C21019748   3.894   2.349   9.493  0.1344  0.2455 -0.0305
  174SAPI  H10R19749   3.968   2.271   9.520 -2.8384 -2.1314  2.0226
  174SAPI  H10S19750   3.943   2.447   9.511  0.1419  0.3559 -0.6343
  174SAPI  C21119751   3.875   2.340   9.342 -0.0236 -0.4282  0.2223
  174SAPI  H11R19752   3.831   2.433   9.302  0.2694 -0.1645  0.5120
  174SAPI  C21219753   3.894   2.242   9.244 -0.3502  0.4085 -0.2328
  174SAPI  H12R19754   3.856   2.269   9.144 -1.2316  0.5933  0.1412
  174SAPI  C21319755   3.959   2.109   9.259 -0.2573 -0.2527  0.4548
  174SAPI  H13R19756   4.035   2.112   9.341  0.8704  0.4274 -0.5921
  174SAPI  H13S19757   4.021   2.091   9.169 -2.0453 -0.4690 -0.7602
  174SAPI  C21419758   3.866   2.000   9.294 -0.4284 -0.0776  0.4996
  174SAPI  H14R19759   3.833   1.994   9.399 -0.4132  0.2511  0.5242
  174SAPI  C21519760   3.821   1.902   9.216  0.8549  0.2209 -0.3265
  174SAPI  H15R19761   3.747   1.833   9.260  0.4642  0.3392 -0.7916
  174SAPI  C21619762   3.862   1.869   9.075 -0.0471  0.4061 -0.1769
  174SAPI  H16R19763   3.929   1.943   9.027  2.3399 -1.2509  0.3708
  174SAPI  H16S19764   3.768   1.861   9.017  0.1404 -0.9167 -0.3255
  174SAPI  C21719765   3.916   1.728   9.069 -0.6979  0.0322  0.6786
  174SAPI  H17R19766   3.871   1.653   9.137  1.5850 -0.7972  1.3403
  174SAPI  H17S19767   4.022   1.733   9.100 -1.0249 -2.8819  2.7092
  174SAPI  C21819768   3.916   1.667   8.926  0.3246  0.0708  0.5386
  174SAPI  H18R19769   3.983   1.731   8.866 -0.0925  1.7073  1.7592
  174SAPI  H18S19770   3.818   1.683   8.877  1.7872  0.1189 -2.5853
  174SAPI  C21919771   3.965   1.526   8.917  0.0032 -0.1320 -0.2443
  174SAPI  H19R19772   3.912   1.455   8.983 -3.0926 -0.2554 -2.6366
  174SAPI  H19S19773   4.072   1.534   8.947 -0.2107  1.6046  0.1977
  174SAPI  C22019774   3.956   1.480   8.772  0.3766  0.4069 -0.2293
  174SAPI  H20R19775   3.856   1.501   8.729  0.1735  1.4882  0.7273
  174SAPI  H20S19776   3.990   1.375   8.755 -1.1601 -0.1325 -0.0592
  174SAPI  H20T19777   4.033   1.536   8.713  2.1182  1.8577  3.1588
  174SAPI   C3319778   3.400   2.880  10.154  0.4188 -0.2849  0.0822
  174SAPI   H3X19779   3.296   2.854  10.122 -1.0149  1.3778  2.9426
  174SAPI   H3Y19780   3.472   2.828  10.087  1.2733 -0.5291  1.1707
  174SAPI   C3419781   3.422   3.032  10.135 -0.1660 -0.0872 -0.7558
  174SAPI   H4X19782   3.532   3.041  10.135 -0.2096  0.8029 -2.2831
  174SAPI   H4Y19783   3.374   3.091  10.216 -1.3701 -2.7446  0.5838
  174SAPI   C3519784   3.384   3.089   9.990  0.1437 -0.0438  0.3134
  174SAPI   H5X19785   3.418   3.194   9.981  2.1845 -0.5984  0.8649
  174SAPI   H5Y19786   3.275   3.105   9.982  0.4331  1.5708 -0.7794
  174SAPI   C3619787   3.437   3.011   9.866  0.2111  0.2443  0.2196
  174SAPI   H6X19788   3.403   2.906   9.858 -2.5723  1.1680 -1.6594
  174SAPI   H6Y19789   3.548   3.010   9.862  0.2972 -0.2151  1.8643
  174SAPI   C3719790   3.376   3.071   9.734  0.5610 -0.1197  0.3184
  174SAPI   H7X19791   3.415   3.172   9.709 -0.2465  0.3780  1.0229
  174SAPI   H7Y19792   3.265   3.076   9.733  0.5907  2.0532 -1.1305
  174SAPI   C3819793   3.396   2.990   9.608 -0.3500  0.4566  1.0733
  174SAPI   H8X19794   3.321   2.909   9.613  1.0299 -1.2920 -2.7088
  174SAPI   H8Y19795   3.498   2.946   9.619 -0.6857 -0.9579 -0.9524
  174SAPI   C3919796   3.395   3.077   9.476 -0.1642  0.4105 -0.6509
  174SAPI   H9X19797   3.464   3.163   9.487  0.2997  0.0142 -0.4060
  174SAPI   H9Y19798   3.294   3.121   9.464 -0.1145  0.1404 -2.2016
  174SAPI  C31019799   3.418   2.998   9.348  0.1926  0.4631 -0.2455
  174SAPI  H10X19800   3.344   2.917   9.332  0.1672  0.5792 -0.7393
  174SAPI  H10Y19801   3.520   2.956   9.337  0.5762  1.5361 -1.0508
  174SAPI  C31119802   3.385   3.088   9.223  0.1744  0.6537  0.7460
  174SAPI  H11X19803   3.470   3.156   9.201  1.0276 -0.5371  0.2563
  174SAPI  H11Y19804   3.291   3.145   9.241  0.1821  0.2726  2.0504
  174SAPI  C31219805   3.361   3.005   9.100 -0.0556  0.5910  0.0142
  174SAPI  H12X19806   3.282   2.929   9.116  0.2322  0.2202 -0.3023
  174SAPI  H12Y19807   3.447   2.947   9.061  1.2792  1.3853  1.6390
  174SAPI  C31319808   3.306   3.086   8.977  0.4150 -0.1120 -0.4263
  174SAPI  H13X19809   3.357   3.184   8.979 -1.2149  0.7759  0.7445
  174SAPI  H13Y19810   3.201   3.114   9.000  1.1058  1.2586  1.3361
  174SAPI  C31419811   3.325   3.019   8.840 -0.3733  0.1069  0.5592
  174SAPI  H14X19812   3.431   3.001   8.814  0.0267  2.1076  0.6212
  174SAPI  H14Y19813   3.271   3.070   8.757 -2.2482 -1.1218  0.9544
  174SAPI  C31519814   3.266   2.874   8.842  0.2374  0.1374 -0.3574
  174SAPI  H15X19815   3.164   2.888   8.884  1.2298  1.7505  1.6981
  174SAPI  H15Y19816   3.315   2.803   8.912 -1.7195 -0.9442 -0.0050
  174SAPI  C31619817   3.243   2.799   8.707 -0.5872  0.0337  0.3571
  174SAPI  H16X19818   3.342   2.775   8.662 -1.0257  0.3001 -0.7985
  174SAPI  H16Y19819   3.196   2.883   8.652 -0.5763  1.9499  3.0858
  174SAPI  C31719820   3.164   2.678   8.722 -0.1813 -0.0961 -0.1560
  174SAPI  H17X19821   3.092   2.703   8.803  1.5368  3.4978  0.4597
  174SAPI  H17Y19822   3.233   2.603   8.766 -0.1722  0.4448  0.7802
  174SAPI  C31819823   3.089   2.630   8.598 -0.4413  0.0124  0.2868
  174SAPI  H18X19824   2.984   2.667   8.601 -0.5446 -0.3281  1.6280
  174SAPI  H18Y19825   3.089   2.520   8.586 -2.5893 -0.1891  1.6285
  174SAPI  H18Z19826   3.141   2.662   8.505 -1.4815  0.6173 -0.1065
  175SAPI   C1219827   6.168   1.773   5.972  0.2376 -0.3716  0.0134
  175SAPI    H219828   6.158   1.883   5.983  1.2145 -0.4902  2.9468
  175SAPI    O219829   6.082   1.732   5.871  0.2322  0.6066  0.0166
  175SAPI   HO219830   5.996   1.752   5.909  1.1225  1.0468  1.9832
  175SAPI   C1319831   6.310   1.731   5.942  0.0019 -0.5219  0.0382
  175SAPI    H319832   6.371   1.767   6.028 -2.8915  0.7540  1.6838
  175SAPI    O319833   6.365   1.788   5.822 -0.2577 -0.0409  0.1108
  175SAPI   HO319834   6.425   1.857   5.854  2.2058 -1.4603 -1.1781
  175SAPI   C1419835   6.324   1.574   5.933 -0.1202 -0.7449  0.4608
  175SAPI    H419836   6.270   1.541   5.842 -0.5789 -1.0353  0.8360
  175SAPI    O419837   6.464   1.546   5.922  0.0240 -0.5952 -0.3628
  175SAPI   HO419838   6.463   1.457   5.886 -0.3598 -0.4152 -0.7939
  175SAPI   C1519839   6.264   1.508   6.058  0.5866  0.1101 -0.0293
  175SAPI    H519840   6.335   1.534   6.140  1.2808 -4.3619  1.0309
  175SAPI    O519841   6.280   1.364   6.052 -0.1062 -0.2312  0.2793
  175SAPI   HO519842   6.192   1.328   6.039 -0.8891  0.9041  2.0644
  175SAPI   C1619843   6.127   1.554   6.093  0.2045 -0.4793 -0.2657
  175SAPI    H619844   6.071   1.527   6.001 -0.3826  1.8805 -0.6640
  175SAPI    O619845   6.063   1.496   6.214 -0.2039  0.2998  0.6606
  175SAPI   HO619846   5.994   1.556   6.241  0.4344  1.0859  0.5790
  175SAPI   C1119847   6.125   1.708   6.105 -0.2474  0.4397 -0.4361
  175SAPI    H119848   6.193   1.736   6.188  0.0244  0.6405 -0.7245
  175SAPI     P19849   5.969   1.873   6.257 -0.3209 -0.3004  0.2472
  175SAPI   O1319850   5.829   1.914   6.257 -0.0869 -0.3585 -0.5809
  175SAPI   O1419851   6.072   1.980   6.250 -0.7500 -0.3246  0.2774
  175SAPI   O1219852   5.995   1.757   6.138  0.0809  0.0885  0.5495
  175SAPI   O1119853   5.992   1.788   6.388  0.0924  0.2090 -0.1669
  175SAPI    C119854   6.061   1.843   6.497  0.1598  0.7237  0.4713
  175SAPI    HA19855   6.071   1.953   6.492 -0.0901  0.8293  1.9012
  175SAPI    HB19856   6.008   1.807   6.588 -1.8900 -0.2750 -1.0383
  175SAPI    C219857   6.205   1.792   6.502  0.0814 -0.1892  1.0703
  175SAPI    HS19858   6.242   1.816   6.400 -0.1860  0.7793  1.1917
  175SAPI   O2119859   6.201   1.652   6.524  0.1245 -0.4023 -0.0981
  175SAPI   C2119860   6.289   1.586   6.453  0.1473  0.6486  0.1384
  175SAPI   O2219861   6.382   1.632   6.385 -0.1477 -0.2926 -0.1909
  175SAPI   C2219862   6.279   1.432   6.464  0.2703  0.3577  0.5172
  175SAPI   H2R19863   6.189   1.414   6.526 -1.1763 -0.9397 -1.8509
  175SAPI   H2S19864   6.265   1.404   6.358 -1.0793 -0.8154  0.9829
  175SAPI    C319865   6.282   1.867   6.613 -0.4756 -1.2198 -0.1519
  175SAPI    HX19866   6.273   1.977   6.599  0.3595 -1.1481 -0.1795
  175SAPI    HY19867   6.390   1.841   6.611  0.0776  0.7995  1.2140
  175SAPI   O3119868   6.222   1.844   6.745 -0.1352 -0.2773 -0.2455
  175SAPI   C3119869   6.283   1.762   6.828  0.8774 -0.0027 -0.4239
  175SAPI   O3219870   6.388   1.704   6.803  0.8095  0.1533  0.3278
  175SAPI   C3219871   6.202   1.739   6.959 -0.5452 -0.1887 -0.1116
  175SAPI   H2X19872   6.134   1.654   6.934  0.2302 -1.5951  2.1872
  175SAPI   H2Y19873   6.159   1.838   6.983  1.1433  0.5852 -0.1965
  175SAPI   C2319874   6.399   1.356   6.525  0.1728 -0.1339  0.0748
  175SAPI   H3R19875   6.470   1.343   6.441  0.6424 -0.6708  0.5390
  175SAPI   H3S19876   6.369   1.253   6.555 -1.0186  0.5121  1.2157
  175SAPI   C2419877   6.465   1.418   6.648 -0.4958 -0.2065 -0.1163
  175SAPI   H4R19878   6.398   1.406   6.736 -1.1633 -1.2462 -0.7341
  175SAPI   H4S19879   6.470   1.529   6.638  1.2309 -0.2619 -0.0753
  175SAPI   C2519880   6.598   1.357   6.681  1.0584 -0.4347  0.4920
  175SAPI   H5R19881   6.673   1.358   6.601  0.9374 -0.4008  0.3782
  175SAPI   C2619882   6.642   1.325   6.804  1.3059  0.2579 -0.1068
  175SAPI   H6R19883   6.749   1.303   6.816  0.7300 -1.9068  1.6698
  175SAPI   C2719884   6.568   1.321   6.933 -0.8134 -0.2750  0.3821
  175SAPI   H7R19885   6.610   1.238   6.995 -1.2025  0.3418  1.4987
  175SAPI   H7S19886   6.462   1.297   6.910 -0.4285 -0.8308 -0.8627
  175SAPI   C2819887   6.544   1.441   7.012 -0.0541 -0.2515  0.1083
  175SAPI   H8R19888   6.534   1.528   6.947 -0.1308 -0.8850 -0.7470
  175SAPI   C2919889   6.548   1.445   7.147 -0.5854 -0.0696  0.3411
  175SAPI   H9R19890   6.519   1.541   7.191  2.0860  2.2564 -2.4780
  175SAPI  C21019891   6.584   1.346   7.253 -0.6359  0.5153 -0.3928
  175SAPI  H10R19892   6.514   1.261   7.244  0.5239 -0.5918  0.6733
  175SAPI  H10S19893   6.557   1.391   7.351 -1.6935  0.3640 -0.5992
  175SAPI  C21119894   6.724   1.285   7.245  0.0248 -1.0200 -0.0663
  175SAPI  H11R19895   6.773   1.292   7.147  2.5921 -1.6306  1.0913
  175SAPI  C21219896   6.788   1.222   7.342 -0.1881 -0.5415 -0.4851
  175SAPI  H12R19897   6.892   1.191   7.324 -0.3339 -0.0681 -2.3220
  175SAPI  C21319898   6.731   1.212   7.485 -0.4447  0.0621 -0.5199
  175SAPI  H13R19899   6.760   1.110   7.516 -1.5386 -0.8889 -2.4220
  175SAPI  H13S19900   6.620   1.214   7.489 -0.5871 -3.0317 -0.8998
  175SAPI  C21419901   6.769   1.324   7.576 -0.0031 -0.0021 -0.1234
  175SAPI  H14R19902   6.721   1.421   7.554  0.2850  1.1617  3.6836
  175SAPI  C21519903   6.850   1.325   7.683  0.1241  0.1419 -0.4282
  175SAPI  H15R19904   6.853   1.412   7.749 -0.5970 -0.6195  0.6445
  175SAPI  C21619905   6.933   1.208   7.737 -0.3967  0.2576  0.4685
  175SAPI  H16R19906   7.035   1.247   7.757  0.1985 -1.5028  1.0301
  175SAPI  H16S19907   6.940   1.136   7.652 -1.6186  0.0571  0.5242
  175SAPI  C21719908   6.869   1.142   7.852  0.5503  0.0403 -0.7062
  175SAPI  H17R19909   6.895   1.034   7.851 -0.6593 -0.2713 -0.3706
  175SAPI  H17S19910   6.759   1.137   7.839  0.3817 -0.9442  0.8340
  175SAPI  C21819911   6.892   1.200   7.997 -0.6214 -0.0122  0.5382
  175SAPI  H18R19912   6.845   1.301   8.001 -0.4023  0.1157 -0.0736
  175SAPI  H18S19913   7.000   1.226   8.000 -1.1509  2.5347  0.4066
  175SAPI  C21919914   6.832   1.122   8.112 -0.3065  0.6715  0.4201
  175SAPI  H19R19915   6.880   1.154   8.207  2.6347  2.0866 -1.4070
  175SAPI  H19S19916   6.852   1.014   8.096 -2.1267  0.3507  0.0398
  175SAPI  C22019917   6.681   1.137   8.129 -0.0508  0.3371  0.7958
  175SAPI  H20R19918   6.627   1.088   8.044 -0.7953 -0.2122  1.5742
  175SAPI  H20S19919   6.644   1.240   8.147 -1.0820  0.3364 -0.9969
  175SAPI  H20T19920   6.649   1.074   8.214  0.9048 -0.9871  0.2093
  175SAPI   C3319921   6.299   1.705   7.079  0.4898 -0.6825  0.4429
  175SAPI   H3X19922   6.392   1.765   7.069  0.4276 -0.9789 -3.8155
  175SAPI   H3Y19923   6.317   1.596   7.064 -1.9938 -0.8054 -2.9330
  175SAPI   C3419924   6.209   1.736   7.200 -0.7298 -0.1707  0.3521
  175SAPI   H4X19925   6.123   1.665   7.203 -1.8565  1.1659  0.7755
  175SAPI   H4Y19926   6.170   1.840   7.197 -2.1313 -0.6737  0.3152
  175SAPI   C3519927   6.298   1.703   7.331  0.0387 -0.6733  0.8673
  175SAPI   H5X19928   6.383   1.774   7.328 -0.5146  0.0163 -2.0649
  175SAPI   H5Y19929   6.338   1.600   7.315 -1.7196 -1.1920 -0.6863
  175SAPI   C3619930   6.217   1.712   7.463 -0.3533  0.1485  0.1230
  175SAPI   H6X19931   6.122   1.655   7.462 -1.4084  1.8338  0.2838
  175SAPI   H6Y19932   6.195   1.820   7.476 -1.3333 -0.1224  0.8889
  175SAPI   C3719933   6.291   1.664   7.588  0.8551  0.0012 -0.0292
  175SAPI   H7X19934   6.246   1.699   7.683 -0.8968 -2.3167  0.0809
  175SAPI   H7Y19935   6.390   1.712   7.599  0.1323  1.7544 -0.7546
  175SAPI   C3819936   6.306   1.514   7.593 -0.1224 -0.5182 -0.4413
  175SAPI   H8X19937   6.355   1.482   7.498  0.0268 -1.3232 -0.0980
  175SAPI   H8Y19938   6.210   1.459   7.600 -1.5025  1.9205  1.2832
  175SAPI   C3919939   6.397   1.471   7.710  0.1743  0.1799  0.1758
  175SAPI   H9X19940   6.500   1.454   7.673 -0.3473 -0.3402 -1.0808
  175SAPI   H9Y19941   6.367   1.370   7.745  1.0819 -0.2784 -0.3486
  175SAPI  C31019942   6.393   1.556   7.845 -0.4241 -0.1057  0.7204
  175SAPI  H10X19943   6.291   1.601   7.851 -0.2458  1.1697 -3.1763
  175SAPI  H10Y19944   6.470   1.635   7.838  0.8846 -1.5250 -2.6024
  175SAPI  C31119945   6.416   1.475   7.970 -0.1786 -0.2275  0.5037
  175SAPI  H11X19946   6.513   1.424   7.954  0.3630  0.6385  0.9764
  175SAPI  H11Y19947   6.341   1.394   7.984  0.7302 -1.2499 -0.3962
  175SAPI  C31219948   6.418   1.571   8.099  0.3499  0.3221  0.6549
  175SAPI  H12X19949   6.319   1.611   8.130  0.7457  1.8658  0.0110
  175SAPI  H12Y19950   6.476   1.653   8.053  1.8207 -2.0430 -1.9812
  175SAPI  C31319951   6.483   1.517   8.227  0.4015 -0.1592  0.2540
  175SAPI  H13X19952   6.514   1.600   8.294 -0.1727  0.6954 -0.5109
  175SAPI  H13Y19953   6.576   1.458   8.214  1.4013  1.1561  1.2422
  175SAPI  C31419954   6.384   1.420   8.293  0.0388 -0.3721  0.4650
  175SAPI  H14X19955   6.408   1.313   8.273  0.9243  0.1923 -1.7439
  175SAPI  H14Y19956   6.281   1.442   8.257 -0.3378 -0.1626  1.6241
  175SAPI  C31519957   6.372   1.443   8.452 -0.2903  0.7003  0.4421
  175SAPI  H15X19958   6.350   1.547   8.484 -1.3336  0.1329  1.6458
  175SAPI  H15Y19959   6.480   1.433   8.476 -0.2444 -0.2296 -0.1147
  175SAPI  C31619960   6.295   1.333   8.516 -0.5830  1.3405 -0.6027
  175SAPI  H16X19961   6.320   1.234   8.472  0.2444  0.5301  1.5558
  175SAPI  H16Y19962   6.185   1.337   8.502 -1.1436 -2.5058  1.5372
  175SAPI  C31719963   6.328   1.318   8.670 -0.2662  0.1812 -0.1118
  175SAPI  H17X19964   6.319   1.419   8.714  0.8541  2.1713 -3.9421
  175SAPI  H17Y19965   6.435   1.293   8.684 -0.1911  0.0640 -0.8451
  175SAPI  C31819966   6.243   1.211   8.741  0.1041  0.4250  0.2137
  175SAPI  H18X19967   6.287   1.178   8.836 -0.4259 -1.4722 -0.1669
  175SAPI  H18Y19968   6.234   1.119   8.680  2.8875  1.7776 -2.5210
  175SAPI  H18Z19969   6.136   1.243   8.747 -0.4554 -1.1153 -0.9199
  176SAPI   C1219970   5.059   5.554   6.608 -0.3722  0.2612 -0.0337
  176SAPI    H219971   5.169   5.561   6.593 -0.3651  2.1266  0.5707
  176SAPI    O219972   4.994   5.542   6.484 -0.7482  0.4201  0.2277
  176SAPI   HO219973   5.056   5.522   6.415  0.4473  2.8333  0.4868
  176SAPI   C1319974   5.032   5.438   6.697 -0.0238 -0.1037 -0.0290
  176SAPI    H319975   5.091   5.445   6.791 -1.5078 -0.3522  0.9567
  176SAPI    O319976   5.082   5.313   6.640  0.3735  0.3911 -0.4531
  176SAPI   HO319977   5.084   5.254   6.716 -0.7171 -0.0066 -0.7152
  176SAPI   C1419978   4.883   5.429   6.732  0.0481 -0.3448 -0.0067
  176SAPI    H419979   4.820   5.410   6.642 -0.9194  0.8114  0.4067
  176SAPI    O419980   4.858   5.329   6.824  0.1810  0.2723  0.3199
  176SAPI   HO419981   4.786   5.280   6.783  0.3563  1.5068 -1.6074
  176SAPI   C1519982   4.842   5.563   6.791 -0.0858 -0.2462 -0.3536
  176SAPI    H519983   4.898   5.574   6.887 -0.4861 -2.9145  0.2597
  176SAPI    O519984   4.707   5.572   6.827 -0.3823 -0.5729 -0.1324
  176SAPI   HO519985   4.697   5.563   6.922 -3.4664  2.6030  0.0476
  176SAPI   C1619986   4.871   5.689   6.702  0.4753  1.1571  0.0928
  176SAPI    H619987   4.816   5.683   6.606  0.0402  1.1419  0.3352
  176SAPI    O619988   4.840   5.809   6.764 -0.3990 -0.5263 -0.9345
  176SAPI   HO619989   4.873   5.871   6.698 -0.0171 -0.7576 -0.9653
  176SAPI   C1119990   5.021   5.684   6.683 -0.0876  0.0331 -0.6763
  176SAPI    H119991   5.066   5.678   6.784 -0.9781 -1.0240 -0.3184
  176SAPI     P19992   5.205   5.870   6.679  0.1471 -0.1348 -0.1844
  176SAPI   O1319993   5.222   5.995   6.602  0.5809 -0.4141 -0.1525
  176SAPI   O1419994   5.315   5.769   6.668 -0.0345  0.9753  0.3273
  176SAPI   O1219995   5.066   5.803   6.611 -0.2072 -0.0638 -0.0970
  176SAPI   O1119996   5.173   5.904   6.826 -1.1697  0.0290 -0.0320
  176SAPI    C119997   5.104   6.021   6.875  0.4713 -0.5196  0.5112
  176SAPI    HA19998   5.148   6.117   6.841 -0.3404 -0.5949 -0.8565
  176SAPI    HB19999   4.999   6.016   6.837  1.2580 -1.0723 -1.7289
  176SAPI    C220000   5.087   6.012   7.032 -0.1484  0.6868 -0.8412
  176SAPI    HS20001   5.087   6.111   7.083  4.2435 -0.1326  1.2270
  176SAPI   O2120002   5.195   5.943   7.094 -0.5164  0.0700 -0.7344
  176SAPI   C2120003   5.315   5.997   7.072  0.3581  0.6934  0.0020
  176SAPI   O2220004   5.336   6.105   7.019  0.3401  0.4799  0.4399
  176SAPI   C2220005   5.420   5.917   7.149 -0.2082 -0.3483 -0.0815
  176SAPI   H2R20006   5.426   5.822   7.092 -2.1605 -1.3559  1.2975
  176SAPI   H2S20007   5.517   5.970   7.143  0.2328 -1.0286  0.8635
  176SAPI    C320008   4.958   5.938   7.069  0.4119  0.0803 -0.0227
  176SAPI    HX20009   4.968   5.828   7.054  0.0957  0.1671 -0.9771
  176SAPI    HY20010   4.874   5.967   7.002 -0.0504  0.7356  0.8194
  176SAPI   O3120011   4.918   5.979   7.201  0.1415  0.1708  0.6463
  176SAPI   C3120012   4.845   5.899   7.270  0.1760  0.6010  0.0205
  176SAPI   O3220013   4.779   5.802   7.234  0.1092  0.1709  0.1315
  176SAPI   C3220014   4.854   5.951   7.411 -0.5590  0.3838  0.8749
  176SAPI   H2X20015   4.804   5.873   7.473  0.5550  1.5201  3.3853
  176SAPI   H2Y20016   4.797   6.045   7.425 -0.7204  0.7511 -1.8430
  176SAPI   C2320017   5.385   5.881   7.289  0.3759 -0.4094 -0.6044
  176SAPI   H3R20018   5.466   5.814   7.326  0.7867  0.6065  0.3953
  176SAPI   H3S20019   5.289   5.824   7.288  1.7734 -2.9024 -0.8318
  176SAPI   C2420020   5.373   6.007   7.385 -0.2983 -0.4147 -0.2131
  176SAPI   H4R20021   5.306   5.970   7.465  0.2523 -1.1082 -0.0614
  176SAPI   H4S20022   5.323   6.093   7.335 -0.2696 -0.2116  0.0985
  176SAPI   C2520023   5.505   6.047   7.447 -0.6486  0.5872  0.4003
  176SAPI   H5R20024   5.588   6.038   7.376 -1.3696 -0.0829 -0.3882
  176SAPI   C2620025   5.529   6.099   7.568  0.3614  0.4397 -0.6932
  176SAPI   H6R20026   5.635   6.116   7.595  0.6484  1.0814 -2.1239
  176SAPI   C2720027   5.426   6.128   7.677  0.7557  0.0544 -0.2783
  176SAPI   H7R20028   5.477   6.160   7.770  1.5619  1.1768 -1.0784
  176SAPI   H7S20029   5.362   6.040   7.700 -2.4039  2.3951  0.6216
  176SAPI   C2820030   5.338   6.243   7.634 -0.4096 -0.4543 -0.4330
  176SAPI   H8R20031   5.340   6.271   7.528  1.5164 -1.2053 -0.6358
  176SAPI   C2920032   5.255   6.315   7.715 -0.3459  0.1632  0.3627
  176SAPI   H9R20033   5.208   6.402   7.666  2.3451  0.8476 -1.2196
  176SAPI  C21020034   5.230   6.287   7.862  0.6794 -0.5129 -0.1295
  176SAPI  H10R20035   5.309   6.219   7.902 -0.1897 -0.9018  1.0068
  176SAPI  H10S20036   5.136   6.229   7.870 -0.0292  0.6784  0.5107
  176SAPI  C21120037   5.208   6.416   7.939 -0.5298 -0.1976  0.4188
  176SAPI  H11R20038   5.137   6.489   7.896  0.2889  0.3671  0.0184
  176SAPI  C21220039   5.268   6.456   8.051 -0.0936  0.5759  0.3446
  176SAPI  H12R20040   5.220   6.548   8.090  0.7278  2.0373 -1.8885
  176SAPI  C21320041   5.367   6.371   8.133  0.1185 -0.1614 -0.3927
  176SAPI  H13R20042   5.437   6.443   8.180 -1.1078  1.9627 -1.6164
  176SAPI  H13S20043   5.435   6.315   8.065  0.2092  2.7509 -2.9252
  176SAPI  C21420044   5.301   6.281   8.234 -0.0203 -0.3931 -0.3473
  176SAPI  H14R20045   5.222   6.215   8.193  1.2787 -1.6411 -0.9406
  176SAPI  C21520046   5.353   6.264   8.356  0.0081 -0.1705 -0.5472
  176SAPI  H15R20047   5.295   6.207   8.430  1.2434  1.6778  1.9705
  176SAPI  C21620048   5.472   6.330   8.416  0.0171 -0.4334 -0.4685
  176SAPI  H16R20049   5.479   6.434   8.376 -2.3284  0.2364  0.7051
  176SAPI  H16S20050   5.565   6.280   8.382  0.1458  0.8127 -2.0785
  176SAPI  C21720051   5.456   6.330   8.573 -0.2767  0.3042  0.1779
  176SAPI  H17R20052   5.449   6.228   8.618  1.4452  0.7495  1.5814
  176SAPI  H17S20053   5.367   6.389   8.602  0.9242  3.1799 -1.5712
  176SAPI  C21820054   5.580   6.392   8.629 -0.6832 -0.4277 -0.1895
  176SAPI  H18R20055   5.560   6.500   8.612 -0.3123 -0.2907  0.2336
  176SAPI  H18S20056   5.672   6.365   8.574  0.4168 -1.0611  1.8784
  176SAPI  C21920057   5.606   6.358   8.775 -0.3004 -0.1107 -0.5606
  176SAPI  H19R20058   5.623   6.250   8.791 -1.1773 -0.2644 -0.6206
  176SAPI  H19S20059   5.516   6.393   8.829 -0.2754 -0.5310 -0.2450
  176SAPI  C22020060   5.727   6.444   8.819 -0.1198  0.6904  0.0169
  176SAPI  H20R20061   5.699   6.552   8.814  0.4738  0.7987 -1.5854
  176SAPI  H20S20062   5.802   6.428   8.739 -1.4041  2.5533 -1.6781
  176SAPI  H20T20063   5.752   6.428   8.926 -0.3418 -1.7789 -0.2558
  176SAPI   C3320064   4.999   5.964   7.468  0.3744 -0.7489  0.0648
  176SAPI   H3X20065   5.058   6.046   7.422 -0.8105 -0.4142 -0.9116
  176SAPI   H3Y20066   5.053   5.870   7.445  0.1852 -1.2376  1.4814
  176SAPI   C3420067   4.999   5.977   7.625 -0.6988 -0.4922  0.3269
  176SAPI   H4X20068   4.932   6.060   7.658  0.6919  1.5230 -1.5641
  176SAPI   H4Y20069   5.102   6.008   7.651  0.0393 -0.0038 -2.7261
  176SAPI   C3520070   4.960   5.846   7.699  0.0478  0.6034  0.0620
  176SAPI   H5X20071   5.026   5.772   7.648  2.0728  1.0628  1.8901
  176SAPI   H5Y20072   4.861   5.824   7.654  0.4684 -0.6105 -0.3098
  176SAPI   C3620073   4.988   5.841   7.846 -0.4926 -0.2313  0.1130
  176SAPI   H6X20074   5.095   5.849   7.876 -0.2594 -1.9666 -0.1784
  176SAPI   H6Y20075   4.956   5.743   7.885 -1.0236 -0.3942 -0.7163
  176SAPI   C3720076   4.896   5.939   7.920  0.1991  0.8328  0.8661
  176SAPI   H7X20077   4.799   5.937   7.867  1.4043  0.4839 -1.4700
  176SAPI   H7Y20078   4.933   6.044   7.921 -0.8981  1.2555 -0.5577
  176SAPI   C3820079   4.857   5.887   8.056 -0.1238  1.0648 -0.8428
  176SAPI   H8X20080   4.948   5.838   8.098  0.5727  1.6040 -1.6970
  176SAPI   H8Y20081   4.780   5.807   8.056 -0.5748  1.4796  0.6634
  176SAPI   C3920082   4.806   5.987   8.150  0.0215 -0.1632 -0.5004
  176SAPI   H9X20083   4.727   6.051   8.105  1.1443  1.0229 -0.8514
  176SAPI   H9Y20084   4.883   6.067   8.152  1.0337 -1.1195  0.5908
  176SAPI  C31020085   4.766   5.947   8.290 -0.4540  0.0905  0.2832
  176SAPI  H10X20086   4.776   6.035   8.357  2.0747 -0.2419  0.4312
  176SAPI  H10Y20087   4.829   5.863   8.324  1.1283  1.4050  0.6963
  176SAPI  C31120088   4.617   5.901   8.292  0.3337  0.0184 -0.1656
  176SAPI  H11X20089   4.606   5.809   8.231  0.5696 -0.2872  0.2465
  176SAPI  H11Y20090   4.562   5.976   8.231 -3.4334 -2.2567  0.1854
  176SAPI  C31220091   4.558   5.900   8.435  0.3485 -0.1911  0.1156
  176SAPI  H12X20092   4.625   5.864   8.516  1.6812  1.0259 -0.3963
  176SAPI  H12Y20093   4.476   5.827   8.417  1.2683 -0.9905 -0.9072
  176SAPI  C31320094   4.501   6.041   8.492  0.1638  0.6684  0.3603
  176SAPI  H13X20095   4.439   6.091   8.414 -1.7327 -1.2885  0.5184
  176SAPI  H13Y20096   4.599   6.090   8.509 -0.1585  0.4890  3.1556
  176SAPI  C31420097   4.428   6.015   8.625 -0.3475  0.2774  0.5063
  176SAPI  H14X20098   4.492   5.971   8.705 -2.1066  1.2524  2.5600
  176SAPI  H14Y20099   4.347   5.944   8.599  0.3063  0.3693 -2.0671
  176SAPI  C31520100   4.357   6.136   8.685 -0.1157 -0.4829  0.0149
  176SAPI  H15X20101   4.292   6.182   8.607  1.7401  0.4230 -1.0747
  176SAPI  H15Y20102   4.433   6.209   8.723 -0.3529  0.0544 -0.5114
  176SAPI  C31620103   4.276   6.091   8.801  0.5144  0.6478  0.6030
  176SAPI  H16X20104   4.344   6.039   8.872 -2.2221 -3.4522  0.5327
  176SAPI  H16Y20105   4.204   6.009   8.779 -2.0144  2.1241  2.8092
  176SAPI  C31720106   4.204   6.208   8.853  0.2446 -0.4741 -0.6435
  176SAPI  H17X20107   4.131   6.228   8.771 -2.7113  0.7167  2.0803
  176SAPI  H17Y20108   4.267   6.297   8.876 -1.9456  1.0449 -0.2498
  176SAPI  C31820109   4.117   6.182   8.977  0.3819 -0.0208 -0.1694
  176SAPI  H18X20110   4.051   6.098   8.945  2.0017 -2.3417  2.1630
  176SAPI  H18Y20111   4.067   6.276   9.006  1.1170  1.3962 -3.0786
  176SAPI  H18Z20112   4.172   6.137   9.063 -0.1086 -1.5067 -0.5940
  177SLPC     N20113   5.165   5.579  11.134 -0.1881 -0.2349  0.3126
  177SLPC   C1320114   5.260   5.594  11.251 -0.0266  0.0404  0.3948
  177SLPC  H13A20115   5.356   5.594  11.201  0.1920 -1.0283  0.8002
  177SLPC  H13B20116   5.239   5.688  11.299 -0.0430  1.4955 -2.2717
  177SLPC  H13C20117   5.255   5.512  11.321 -1.0326 -1.4510 -1.3406
  177SLPC   C1420118   5.160   5.698  11.042 -0.1941 -0.0598  0.0276
  177SLPC  H14A20119   5.140   5.787  11.100  0.2568  0.5352 -0.7102
  177SLPC  H14B20120   5.249   5.710  10.982  0.6089  0.0906  1.2178
  177SLPC  H14C20121   5.079   5.684  10.972 -2.0407  0.6932  1.8983
  177SLPC   C1520122   5.028   5.562  11.188  0.2726 -0.2533  0.7844
  177SLPC  H15A20123   4.997   5.644  11.251 -0.0995  0.3256 -0.1254
  177SLPC  H15B20124   4.950   5.555  11.113  0.7701 -1.0503  0.3278
  177SLPC  H15C20125   5.031   5.474  11.251  3.5213 -2.3013 -1.9115
  177SLPC   C1220126   5.200   5.452  11.064 -0.5436 -0.4905 -0.3323
  177SLPC  H12A20127   5.117   5.421  11.002  1.4335 -0.4419 -3.2225
  177SLPC  H12B20128   5.214   5.372  11.135 -1.4084 -0.6260 -0.3001
  177SLPC   C1120129   5.328   5.443  10.981  0.0446  0.6143  0.1783
  177SLPC  H11A20130   5.424   5.429  11.035 -0.6498 -1.4222  0.9826
  177SLPC  H11B20131   5.336   5.529  10.910  2.3577  0.3900  0.0909
  177SLPC     P20132   5.221   5.300  10.790  0.0617 -0.4208  0.2984
  177SLPC   O1320133   5.246   5.165  10.729 -0.2544 -0.6486 -0.3700
  177SLPC   O1420134   5.082   5.325  10.849  0.0011 -0.1783 -0.3721
  177SLPC   O1220135   5.326   5.325  10.905  0.0011 -0.1307 -0.2148
  177SLPC   O1120136   5.272   5.413  10.695 -0.1411 -0.3150  0.2105
  177SLPC    C120137   5.395   5.414  10.619 -0.2157 -0.3918 -0.5506
  177SLPC    HA20138   5.454   5.498  10.660 -1.4074 -0.2181  0.9131
  177SLPC    HB20139   5.457   5.323  10.634 -0.3405 -0.2591  0.8726
  177SLPC    C220140   5.360   5.427  10.469 -1.1185  0.0097 -0.1622
  177SLPC    HS20141   5.454   5.431  10.411 -0.4726 -2.4297  0.5818
  177SLPC   O2120142   5.291   5.550  10.461  0.1156  0.3891 -0.3450
  177SLPC   C2120143   5.366   5.655  10.432  0.6336  0.1582 -0.3602
  177SLPC   O2220144   5.485   5.653  10.439 -0.3141  0.1442  0.9191
  177SLPC   C2220145   5.285   5.776  10.400  0.1943  0.3668  0.5364
  177SLPC   H2R20146   5.178   5.769  10.429 -0.2843 -1.0222 -1.3340
  177SLPC   H2S20147   5.332   5.853  10.463  2.8363 -0.7643  0.0735
  177SLPC    C320148   5.270   5.325  10.405 -0.8196 -0.2019  0.2098
  177SLPC    HX20149   5.169   5.352  10.441 -0.6151  1.6461 -0.5331
  177SLPC    HY20150   5.298   5.220  10.432  0.3578 -0.9738 -3.4892
  177SLPC   O3120151   5.287   5.337  10.260 -0.1077  0.0102  0.5889
  177SLPC   C3120152   5.209   5.252  10.189  0.1477 -0.0629 -0.1259
  177SLPC   O3220153   5.132   5.168  10.239  0.0736 -0.2910  0.0524
  177SLPC   C3220154   5.235   5.273  10.038 -0.2373  0.2881  0.2006
  177SLPC   H2X20155   5.191   5.372  10.012 -1.4136 -0.3086 -0.1593
  177SLPC   H2Y20156   5.173   5.199   9.984  0.3140 -0.0668  0.0508
  177SLPC   C2320157   5.313   5.819  10.253  0.5545  0.5360 -0.6323
  177SLPC   H3R20158   5.424   5.822  10.242  0.6267  1.1337  0.1478
  177SLPC   H3S20159   5.270   5.921  10.244 -0.2694  0.3366  0.7931
  177SLPC   C2420160   5.232   5.736  10.148 -0.0849  0.4542  0.1197
  177SLPC   H4R20161   5.127   5.742  10.184  0.0201  3.2132  0.1868
  177SLPC   H4S20162   5.273   5.632  10.154 -2.7851 -0.6005  2.0115
  177SLPC   C2520163   5.228   5.790  10.006  0.2124 -0.2704 -0.4437
  177SLPC   H5R20164   5.333   5.807   9.972  1.1709  1.5658  2.9698
  177SLPC   H5S20165   5.179   5.889  10.019 -0.4097 -0.7815  1.2423
  177SLPC   C2620166   5.149   5.699   9.910  0.3179  0.1552  0.0505
  177SLPC   H6R20167   5.205   5.608   9.879 -0.8118 -0.4383 -0.2699
  177SLPC   H6S20168   5.126   5.747   9.812  3.1247  1.2192 -0.1955
  177SLPC   C2720169   5.015   5.644   9.967  1.4221  0.3659 -0.4665
  177SLPC   H7R20170   4.954   5.733   9.992  1.1144  0.6288 -2.0484
  177SLPC   H7S20171   5.034   5.588  10.062  1.5386 -0.0783 -0.7473
  177SLPC   C2820172   4.934   5.541   9.867 -0.0867 -0.0877 -0.4070
  177SLPC   H8R20173   4.978   5.438   9.866  0.8603  0.2227  2.1183
  177SLPC   H8S20174   4.955   5.599   9.775  1.4183  0.3094  0.1556
  177SLPC   C2920175   4.783   5.533   9.894 -0.0569 -0.2229 -0.1835
  177SLPC   H9R20176   4.749   5.568   9.992  0.4557 -1.6453  0.5228
  177SLPC  C21020177   4.699   5.490   9.800  0.2868  0.0209  0.3541
  177SLPC  H10R20178   4.594   5.488   9.832  0.1846 -0.4289 -0.0121
  177SLPC  C21120179   4.729   5.447   9.655 -0.1628 -0.9895 -0.3289
  177SLPC  H11R20180   4.797   5.361   9.668  2.4498  1.1198  1.1466
  177SLPC  H11S20181   4.632   5.414   9.613 -0.5715  1.3686 -1.4081
  177SLPC  C21220182   4.794   5.551   9.567 -0.4603  0.1154  0.2766
  177SLPC  H12R20183   4.812   5.643   9.625  3.8182 -0.4330  0.1698
  177SLPC  C21320184   4.824   5.545   9.436 -1.3421 -0.2754  0.2716
  177SLPC  H13R20185   4.869   5.633   9.388  0.1809 -0.3009  1.5988
  177SLPC  C21420186   4.809   5.408   9.368  0.2158 -0.3218 -0.7615
  177SLPC  H14R20187   4.734   5.420   9.287  1.3211 -0.0809 -1.7833
  177SLPC  H14S20188   4.771   5.328   9.434 -2.2082  0.3540 -1.2221
  177SLPC  C21520189   4.936   5.363   9.295  0.5833 -0.5949  0.2706
  177SLPC  H15R20190   4.950   5.437   9.213 -2.5113  2.8685  2.5991
  177SLPC  H15S20191   4.897   5.271   9.245  1.8630 -3.4549  4.0221
  177SLPC  C21620192   5.059   5.333   9.376  0.5863  0.1760  0.2520
  177SLPC  H16R20193   5.052   5.395   9.468  0.3902  1.3736 -0.5484
  177SLPC  H16S20194   5.157   5.362   9.332  0.8187 -1.5268 -0.4297
  177SLPC  C21720195   5.068   5.182   9.432  0.0350 -0.2785 -0.4522
  177SLPC  H17R20196   4.972   5.150   9.478  0.8637 -0.8616  0.9134
  177SLPC  H17S20197   5.140   5.183   9.516  2.1788  0.2338 -2.2008
  177SLPC  C21820198   5.105   5.077   9.325 -0.5326  0.2378  0.7110
  177SLPC  H18R20199   5.031   5.052   9.246 -0.1145 -1.2232  0.7585
  177SLPC  H18S20200   5.141   4.985   9.376 -1.6158  0.5717  2.1353
  177SLPC  H18T20201   5.192   5.125   9.275  0.9030 -0.1538  2.7117
  177SLPC   C3320202   5.383   5.253   9.996 -0.7554  0.4484 -0.0572
  177SLPC   H3X20203   5.442   5.177  10.052 -0.0091  0.2747 -1.0346
  177SLPC   H3Y20204   5.426   5.355  10.004 -1.4170  1.0925 -3.3298
  177SLPC   C3420205   5.419   5.213   9.849 -0.2453 -0.2623 -0.0471
  177SLPC   H4X20206   5.388   5.107   9.844  2.0650 -1.0506  1.1545
  177SLPC   H4Y20207   5.529   5.219   9.838 -0.2205 -1.7464 -0.8488
  177SLPC   C3520208   5.350   5.301   9.747 -1.0311  0.1188 -0.4423
  177SLPC   H5X20209   5.250   5.341   9.774 -0.4721  2.2006 -1.2441
  177SLPC   H5Y20210   5.343   5.247   9.650  1.0883 -0.0186 -0.5699
  177SLPC   C3620211   5.418   5.435   9.712  0.3814 -0.3714 -0.1528
  177SLPC   H6X20212   5.512   5.406   9.662  0.3895 -0.8616  0.1426
  177SLPC   H6Y20213   5.443   5.501   9.798  0.4729 -0.8504  0.1924
  177SLPC   C3720214   5.354   5.507   9.597 -0.3659 -0.2068  0.0345
  177SLPC   H7X20215   5.256   5.546   9.632 -0.1285  0.3372  0.1027
  177SLPC   H7Y20216   5.331   5.455   9.501  1.9006  0.1880 -0.7794
  177SLPC   C3820217   5.437   5.627   9.569  0.1010 -0.5726  0.4205
  177SLPC   H8X20218   5.532   5.614   9.513  1.8482  2.7521  2.2761
  177SLPC   H8Y20219   5.462   5.667   9.670 -1.1578 -1.1310  0.9700
  177SLPC   C3920220   5.354   5.742   9.505 -0.0433  0.1365 -0.2407
  177SLPC   H9X20221   5.404   5.842   9.507 -0.8158  0.5272  2.4392
  177SLPC   H9Y20222   5.256   5.750   9.555 -0.6135  0.1019 -1.3085
  177SLPC  C31020223   5.321   5.718   9.358 -0.4780  0.4891  0.5291
  177SLPC  H10X20224   5.274   5.618   9.356 -0.3968  0.4598 -0.8301
  177SLPC  H10Y20225   5.404   5.710   9.284 -2.5396 -0.5439 -1.7983
  177SLPC  C31120226   5.212   5.807   9.293  0.2559 -0.0917  0.0413
  177SLPC  H11X20227   5.254   5.909   9.309  1.7651 -0.5771 -0.6258
  177SLPC  H11Y20228   5.126   5.807   9.363  0.8314  0.2027  0.7779
  177SLPC  C31220229   5.157   5.771   9.155  0.4266  0.5774  1.3077
  177SLPC  H12X20230   5.128   5.664   9.150 -0.8058  0.9138  0.6541
  177SLPC  H12Y20231   5.238   5.791   9.081 -0.7084  1.1163  0.1667
  177SLPC  C31320232   5.032   5.852   9.116  0.7314  0.5931 -0.1741
  177SLPC  H13X20233   5.070   5.956   9.111 -0.9912  1.2556 -0.0712
  177SLPC  H13Y20234   4.950   5.845   9.191  0.8394  1.3094  0.0182
  177SLPC  C31420235   4.974   5.813   8.978  0.2479 -0.4756 -0.5301
  177SLPC  H14X20236   5.057   5.822   8.905  1.2579 -0.0307  0.6387
  177SLPC  H14Y20237   4.896   5.887   8.948 -0.0105 -0.8710 -0.8463
  177SLPC  C31520238   4.911   5.672   8.964  0.6734  0.1306  1.0322
  177SLPC  H15X20239   4.982   5.593   8.996  1.4380  1.2130  2.1208
  177SLPC  H15Y20240   4.889   5.664   8.855 -1.1614 -2.1383  1.4963
  177SLPC  C31620241   4.782   5.654   9.046  0.3738  0.0439 -0.6952
  177SLPC  H16X20242   4.731   5.753   9.046  0.9039  0.3370  0.6904
  177SLPC  H16Y20243   4.819   5.647   9.151 -1.4443  0.7531  0.0547
  177SLPC  C31720244   4.693   5.540   8.991  0.2609  0.0228 -0.5464
  177SLPC  H17X20245   4.618   5.538   9.073 -1.0219 -0.0683 -1.7045
  177SLPC  H17Y20246   4.750   5.445   8.990  1.6760  0.8470 -1.0950
  177SLPC  C31820247   4.613   5.569   8.866 -0.6127 -0.4411  0.3417
  177SLPC  H18X20248   4.571   5.670   8.851  0.8163  0.1069 -0.1575
  177SLPC  H18Y20249   4.527   5.499   8.858  0.0494 -1.0521 -2.7470
  177SLPC  H18Z20250   4.682   5.563   8.778  1.2850  1.7216  1.5645
  178SLPC     N20251   5.643   5.073  11.003  0.3494 -0.5794 -0.0900
  178SLPC   C1320252   5.531   5.171  11.020 -0.1058  0.5104 -0.4376
  178SLPC  H13A20253   5.554   5.275  10.998  1.4040  0.4323  0.6633
  178SLPC  H13B20254   5.454   5.137  10.952 -0.7930  0.5543  0.3116
  178SLPC  H13C20255   5.493   5.163  11.120  1.7191 -0.5523  0.2052
  178SLPC   C1420256   5.584   4.948  11.035 -0.5633 -0.0891 -0.0485
  178SLPC  H14A20257   5.506   4.924  10.964 -1.5203  3.6525 -0.4522
  178SLPC  H14B20258   5.659   4.871  11.036  1.0227  1.3482 -1.8226
  178SLPC  H14C20259   5.520   4.954  11.122 -0.2883  1.2416  0.0866
  178SLPC   C1520260   5.748   5.103  11.108 -0.5394  0.0006 -0.3074
  178SLPC  H15A20261   5.801   5.195  11.089  1.4826 -1.2855 -1.1245
  178SLPC  H15B20262   5.695   5.122  11.201  0.8973 -0.0078  0.5486
  178SLPC  H15C20263   5.820   5.027  11.134 -0.9408 -0.2089  0.2286
  178SLPC   C1220264   5.705   5.078  10.864 -0.0070 -0.1417 -0.5213
  178SLPC  H12A20265   5.741   5.178  10.845  0.2115 -0.1382 -0.1025
  178SLPC  H12B20266   5.625   5.059  10.793 -0.8338 -2.2311  0.8572
  178SLPC   C1120267   5.821   4.980  10.827 -0.3638 -0.5592 -0.8010
  178SLPC  H11A20268   5.820   5.014  10.721  0.3987  3.4496  0.3154
  178SLPC  H11B20269   5.785   4.875  10.839 -0.9275 -0.4679 -1.6237
  178SLPC     P20270   6.046   5.114  10.838 -0.3855  0.0551 -0.0714
  178SLPC   O1320271   5.981   5.241  10.807 -0.2981  0.6499  0.9939
  178SLPC   O1420272   6.153   5.117  10.940 -0.5632 -0.6180 -0.2363
  178SLPC   O1220273   5.944   5.007  10.896  0.2620 -0.3761 -0.0102
  178SLPC   O1120274   6.096   5.040  10.710  0.3364  0.4017  0.3345
  178SLPC    C120275   6.051   5.084  10.580  0.1785  0.9396  0.3193
  178SLPC    HA20276   6.066   5.006  10.503 -1.3136 -0.4482  1.3661
  178SLPC    HB20277   5.944   5.114  10.580  0.5788  2.4389  0.3226
  178SLPC    C220278   6.128   5.206  10.534 -0.5494  0.0022  0.3386
  178SLPC    HS20279   6.099   5.297  10.592 -4.1073 -0.8932  0.2044
  178SLPC   O2120280   6.113   5.228  10.389  0.5508  0.3018  1.2387
  178SLPC   C2120281   6.010   5.305  10.362 -0.5731  0.3637 -0.8655
  178SLPC   O2220282   5.930   5.334  10.446  0.1931  0.4787  0.6681
  178SLPC   C2220283   6.018   5.347  10.217  0.3836  0.4927 -0.0323
  178SLPC   H2R20284   5.939   5.424  10.201  0.3570  0.3569 -0.6026
  178SLPC   H2S20285   6.116   5.395  10.197  1.0396 -1.5065 -2.0613
  178SLPC    C320286   6.280   5.188  10.549  0.5049  0.5474 -0.0681
  178SLPC    HX20287   6.324   5.112  10.482 -0.9768  0.6844 -1.2396
  178SLPC    HY20288   6.299   5.158  10.655  2.0947  1.2802 -0.1186
  178SLPC   O3120289   6.349   5.308  10.521 -0.3227 -0.5903  0.0695
  178SLPC   C3120290   6.484   5.295  10.519  0.1937 -0.4260 -0.3603
  178SLPC   O3220291   6.543   5.191  10.536 -0.0801  0.4546 -0.2879
  178SLPC   C3220292   6.552   5.426  10.486  0.4526  0.5592 -0.4383
  178SLPC   H2X20293   6.656   5.421  10.526  0.9714  0.5407 -1.7173
  178SLPC   H2Y20294   6.501   5.516  10.525  0.5452  0.0490  0.9066
  178SLPC   C2320295   6.005   5.222  10.121  0.4138 -0.3257  0.0723
  178SLPC   H3R20296   5.924   5.163  10.171  0.5954 -0.4331  0.2412
  178SLPC   H3S20297   6.097   5.163  10.142 -0.1128 -1.0231  0.4937
  178SLPC   C2420298   5.980   5.264   9.972  0.5213 -0.3914  0.4263
  178SLPC   H4R20299   5.972   5.170   9.912 -1.0698 -1.0965  1.6535
  178SLPC   H4S20300   6.067   5.324   9.937  0.9136 -0.0084  1.9733
  178SLPC   C2520301   5.853   5.343   9.951 -0.9141  0.0934  0.0026
  178SLPC   H5R20302   5.848   5.442  10.003 -1.1981  0.3357 -0.4772
  178SLPC   H5S20303   5.773   5.288  10.003  1.4405 -3.7380 -0.0503
  178SLPC   C2620304   5.819   5.373   9.804  0.0363 -0.0235 -0.0132
  178SLPC   H6R20305   5.734   5.445   9.804  0.0898  0.0482 -0.9092
  178SLPC   H6S20306   5.783   5.282   9.753 -0.3513  0.8132 -1.2624
  178SLPC   C2720307   5.937   5.421   9.721  0.1150 -0.5178 -0.7315
  178SLPC   H7R20308   6.022   5.349   9.722  0.4466 -0.1234 -0.1850
  178SLPC   H7S20309   5.978   5.505   9.781 -3.1088 -0.7188  2.0525
  178SLPC   C2820310   5.907   5.450   9.576  0.1708  0.2847 -0.0672
  178SLPC   H8R20311   5.978   5.525   9.534  0.4519 -0.6531 -1.3083
  178SLPC   H8S20312   5.807   5.495   9.562 -0.5680 -0.8092  1.4437
  178SLPC   C2920313   5.933   5.343   9.476  0.2593 -0.2883 -0.0043
  178SLPC   H9R20314   5.992   5.257   9.510  1.9472  0.8933  0.1820
  178SLPC  C21020315   5.888   5.335   9.351 -0.2566  0.0823 -0.0553
  178SLPC  H10R20316   5.928   5.260   9.282 -1.4764  0.5170 -1.2879
  178SLPC  C21120317   5.801   5.428   9.275 -0.2157 -0.1402  0.4818
  178SLPC  H11R20318   5.806   5.405   9.167  2.1906  0.5651  0.3757
  178SLPC  H11S20319   5.839   5.533   9.278  0.2272 -0.3168  2.4962
  178SLPC  C21220320   5.659   5.421   9.317  0.8396  0.4173  0.2044
  178SLPC  H12R20321   5.652   5.435   9.426  1.8484  0.4825  0.2675
  178SLPC  C21320322   5.549   5.400   9.244 -0.3405 -0.5015  0.1042
  178SLPC  H13R20323   5.454   5.389   9.298 -0.8498  0.5253 -0.5561
  178SLPC  C21420324   5.549   5.371   9.099 -0.3715 -1.2037 -0.6346
  178SLPC  H14R20325   5.499   5.273   9.089  0.4122 -1.5740 -1.0119
  178SLPC  H14S20326   5.647   5.368   9.047  1.6483 -1.4156  2.8573
  178SLPC  C21520327   5.448   5.459   9.021 -0.4865  0.0146 -0.4876
  178SLPC  H15R20328   5.470   5.455   8.912  0.0328 -1.4691 -0.3541
  178SLPC  H15S20329   5.454   5.565   9.053 -1.3145  0.9823 -3.1959
  178SLPC  C21620330   5.303   5.428   9.035  0.3461  0.0121  0.2452
  178SLPC  H16R20331   5.243   5.505   8.983 -0.0231 -2.7273 -3.8010
  178SLPC  H16S20332   5.271   5.438   9.141 -1.1178 -0.4680 -0.1238
  178SLPC  C21720333   5.253   5.295   8.981  0.2561  0.5244  0.0049
  178SLPC  H17R20334   5.238   5.223   9.065 -1.3917  0.8852  0.0573
  178SLPC  H17S20335   5.338   5.261   8.917  1.2915  3.4486 -0.3142
  178SLPC  C21820336   5.123   5.284   8.892  0.3555 -0.0492 -0.4738
  178SLPC  H18R20337   5.038   5.338   8.938  1.6484 -0.3610  2.5172
  178SLPC  H18S20338   5.099   5.175   8.897  0.3171  0.0070  1.6383
  178SLPC  H18T20339   5.139   5.324   8.790  1.6672  1.3594  0.2415
  178SLPC   C3320340   6.578   5.432  10.333  0.6049  0.2857 -0.7277
  178SLPC   H3X20341   6.629   5.337  10.304 -0.9591 -0.8150 -0.0200
  178SLPC   H3Y20342   6.654   5.511  10.317  1.6300 -0.1077  1.8299
  178SLPC   C3420343   6.445   5.451  10.255  0.1608 -0.8594 -0.3596
  178SLPC   H4X20344   6.393   5.543  10.288 -0.4827 -1.0440 -0.8259
  178SLPC   H4Y20345   6.366   5.373  10.263 -1.0820  0.0830 -2.6159
  178SLPC   C3520346   6.466   5.467  10.104 -0.6868  0.5075  0.0075
  178SLPC   H5X20347   6.552   5.405  10.074 -1.5350 -1.1932  0.9256
  178SLPC   H5Y20348   6.483   5.574  10.078  2.0173  0.2556  0.5009
  178SLPC   C3620349   6.335   5.432  10.028 -0.2300  0.0347 -0.3262
  178SLPC   H6X20350   6.246   5.487  10.066  0.9180  2.5323 -1.0567
  178SLPC   H6Y20351   6.317   5.323  10.036 -2.1794  0.2436 -1.2722
  178SLPC   C3720352   6.327   5.462   9.877  0.4319 -0.3434  0.4316
  178SLPC   H7X20353   6.249   5.393   9.839  1.1208 -1.4958  1.0738
  178SLPC   H7Y20354   6.427   5.432   9.839  0.5924  0.2588  0.3614
  178SLPC   C3820355   6.299   5.610   9.852 -0.4109 -0.1135  0.0463
  178SLPC   H8X20356   6.383   5.676   9.881 -1.1145 -0.3019  2.7506
  178SLPC   H8Y20357   6.211   5.645   9.910  0.7617  2.7922  0.2474
  178SLPC   C3920358   6.270   5.639   9.702  0.3108  0.6102 -0.2251
  178SLPC   H9X20359   6.171   5.607   9.665 -0.0320 -0.7603  1.7417
  178SLPC   H9Y20360   6.347   5.576   9.653 -0.7762 -0.9697  0.0449
  178SLPC  C31020361   6.315   5.784   9.667 -0.4745  0.2231 -0.6917
  178SLPC  H10X20362   6.323   5.783   9.556  0.1271 -0.2641 -0.6494
  178SLPC  H10Y20363   6.417   5.795   9.709 -1.2399 -0.7968  1.5949
  178SLPC  C31120364   6.205   5.882   9.710  0.2493  0.2812  0.2070
  178SLPC  H11X20365   6.180   5.872   9.818  0.1486  2.8574  0.4885
  178SLPC  H11Y20366   6.105   5.861   9.666 -0.7310 -0.6255  2.6748
  178SLPC  C31220367   6.243   6.023   9.682 -0.2195 -0.3546 -0.1907
  178SLPC  H12X20368   6.344   6.055   9.716 -0.3059 -0.3430  0.0600
  178SLPC  H12Y20369   6.167   6.087   9.732 -1.2401 -0.2718 -1.7844
  178SLPC  C31320370   6.248   6.041   9.528 -0.0696  0.0048 -0.2512
  178SLPC  H13X20371   6.164   5.990   9.476  0.6339 -1.5429  0.0546
  178SLPC  H13Y20372   6.343   5.993   9.494 -1.0294 -1.1150 -1.4560
  178SLPC  C31420373   6.244   6.191   9.484 -0.2938 -0.4458  0.7845
  178SLPC  H14X20374   6.336   6.245   9.514  0.0639 -0.5137 -0.1527
  178SLPC  H14Y20375   6.158   6.228   9.544 -1.2228 -1.6511  0.2592
  178SLPC  C31520376   6.228   6.222   9.336  0.9270  0.8770  0.3646
  178SLPC  H15X20377   6.120   6.208   9.313  1.0578  0.8321 -0.2574
  178SLPC  H15Y20378   6.242   6.332   9.339  1.3759  0.8145  0.6029
  178SLPC  C31620379   6.316   6.143   9.248  1.0658  0.5876  0.5395
  178SLPC  H16X20380   6.274   6.043   9.222  0.6183  1.5467 -2.9119
  178SLPC  H16Y20381   6.419   6.132   9.288  1.6778  1.0151 -0.8720
  178SLPC  C31720382   6.318   6.201   9.108 -0.6280  0.4578 -0.2057
  178SLPC  H17X20383   6.380   6.292   9.122  0.9948 -0.7914  1.0895
  178SLPC  H17Y20384   6.215   6.233   9.081 -1.7697 -1.1473  1.9607
  178SLPC  C31820385   6.382   6.138   8.989  0.5050  0.2868  0.0083
  178SLPC  H18X20386   6.487   6.109   9.010  1.2316  1.8490 -1.2491
  178SLPC  H18Y20387   6.395   6.222   8.917  3.0157  3.7090  3.9995
  178SLPC  H18Z20388   6.325   6.057   8.939  0.4707 -1.4294  2.6434
  179SLPC     N20389   0.860   2.281  10.748  0.1076  0.4206  0.5911
  179SLPC   C1320390   0.852   2.429  10.780  0.2754  0.2220  0.3206
  179SLPC  H13A20391   0.751   2.464  10.792  0.1483 -0.8098  2.8495
  179SLPC  H13B20392   0.893   2.458  10.875 -0.2486  2.2449 -0.0334
  179SLPC  H13C20393   0.890   2.484  10.695 -0.4552  2.0428  1.1333
  179SLPC   C1420394   0.739   2.256  10.669 -0.7000 -0.3024 -0.0198
  179SLPC  H14A20395   0.654   2.248  10.735 -0.5579  1.2404  0.3890
  179SLPC  H14B20396   0.719   2.339  10.602  0.6600  0.7180  0.7965
  179SLPC  H14C20397   0.738   2.160  10.621 -2.4680 -0.3969  0.1220
  179SLPC   C1520398   0.851   2.207  10.881  0.3885  0.5093 -0.4112
  179SLPC  H15A20399   0.757   2.234  10.926  1.3174 -0.5266  2.4025
  179SLPC  H15B20400   0.852   2.100  10.864 -1.6121  0.4913 -0.5768
  179SLPC  H15C20401   0.933   2.242  10.942  0.3979  1.0624 -0.7373
  179SLPC   C1220402   0.984   2.262  10.666  0.0859 -0.6682 -0.0849
  179SLPC  H12A20403   0.994   2.156  10.651  1.5331 -0.4800 -0.6627
  179SLPC  H12B20404   1.078   2.287  10.713 -0.6255  0.9299  0.5709
  179SLPC   C1120405   0.997   2.313  10.521 -0.6898  0.8527  0.5565
  179SLPC  H11A20406   0.928   2.262  10.450 -0.5378 -0.6620  1.4579
  179SLPC  H11B20407   1.096   2.278  10.484 -1.7479 -0.5111 -1.1614
  179SLPC     P20408   1.104   2.556  10.536  0.3331  0.2836  0.8640
  179SLPC   O1320409   1.057   2.695  10.556 -0.4275 -0.2615 -0.0138
  179SLPC   O1420410   1.199   2.501  10.627 -0.7845  0.3574 -0.6453
  179SLPC   O1220411   0.988   2.454  10.507 -0.3290 -0.3873 -0.0806
  179SLPC   O1120412   1.174   2.562  10.388  0.6173 -0.7248 -0.0048
  179SLPC    C120413   1.091   2.565  10.268  0.1898 -0.1617  0.4120
  179SLPC    HA20414   0.998   2.621  10.291  2.2403  3.0590  1.6859
  179SLPC    HB20415   1.142   2.621  10.186  2.2061 -1.8254  0.4408
  179SLPC    C220416   1.048   2.428  10.198  0.2430 -0.3909  0.3269
  179SLPC    HS20417   0.985   2.376  10.273 -3.4712 -0.4077 -2.4596
  179SLPC   O2120418   1.170   2.362  10.168  0.6928  0.3566  0.1375
  179SLPC   C2120419   1.158   2.236  10.175 -0.1945 -0.0226 -0.6544
  179SLPC   O2220420   1.058   2.164  10.185 -0.0131  0.0233  0.0788
  179SLPC   C2220421   1.300   2.177  10.147  0.0370  0.4258  0.1859
  179SLPC   H2R20422   1.358   2.250  10.087 -0.3334  0.2173 -0.4396
  179SLPC   H2S20423   1.346   2.154  10.246 -1.3055 -2.5965  0.2290
  179SLPC    C320424   0.973   2.457  10.063  0.3108 -0.3908 -0.2026
  179SLPC    HX20425   0.875   2.504  10.084  0.6024  0.7556 -1.2904
  179SLPC    HY20426   0.949   2.364  10.007 -0.7215  0.0579 -0.5295
  179SLPC   O3120427   1.035   2.553   9.972 -0.3334 -0.0592 -0.1304
  179SLPC   C3120428   1.135   2.503   9.903  0.9398  0.0201 -0.4505
  179SLPC   O3220429   1.153   2.386   9.883  0.7561  0.2774 -0.2633
  179SLPC   C3220430   1.215   2.620   9.840 -0.0089 -0.1951 -0.2093
  179SLPC   H2X20431   1.247   2.691   9.920 -0.0205  0.2419 -0.5895
  179SLPC   H2Y20432   1.148   2.678   9.773  2.9246 -0.5032 -3.7057
  179SLPC   C2320433   1.293   2.045  10.070 -0.4768 -0.8980 -0.1662
  179SLPC   H3R20434   1.221   1.971  10.110 -0.5495  0.1918  1.8408
  179SLPC   H3S20435   1.393   1.998  10.075  1.0276  2.0215  5.3974
  179SLPC   C2420436   1.262   2.064   9.918  0.0763 -0.1294 -0.2829
  179SLPC   H4R20437   1.329   2.146   9.885  0.4955 -0.0186  0.8116
  179SLPC   H4S20438   1.157   2.099   9.909  0.9114  1.8449 -4.7723
  179SLPC   C2520439   1.279   1.934   9.841  0.2485 -0.3222  0.3331
  179SLPC   H5R20440   1.228   1.860   9.906  1.6153 -0.1349  1.6649
  179SLPC   H5S20441   1.386   1.907   9.839  0.1366 -0.7865  0.4308
  179SLPC   C2620442   1.214   1.924   9.711 -0.4837  0.0435  0.0863
  179SLPC   H6R20443   1.103   1.925   9.716 -0.5115  0.1028 -0.4712
  179SLPC   H6S20444   1.233   1.823   9.669 -1.3930  0.3252 -1.0503
  179SLPC   C2720445   1.261   2.026   9.615  0.2907 -0.3511 -0.6914
  179SLPC   H7R20446   1.371   2.040   9.625  0.4869 -2.1570 -0.1527
  179SLPC   H7S20447   1.220   2.129   9.629  0.2568 -0.1321 -2.2071
  179SLPC   C2820448   1.223   1.980   9.479 -0.3865 -0.2926  0.3847
  179SLPC   H8R20449   1.115   1.957   9.491 -0.3487  0.2773  2.1797
  179SLPC   H8S20450   1.280   1.889   9.453 -1.8670 -0.8289 -1.1549
  179SLPC   C2920451   1.249   2.086   9.373  0.6165 -0.1454  0.2676
  179SLPC   H9R20452   1.327   2.159   9.400  1.4149 -0.1116 -1.9279
  179SLPC  C21020453   1.176   2.096   9.255 -0.6503 -0.1658  0.0135
  179SLPC  H10R20454   1.218   2.175   9.190  0.5356  1.5547  2.7113
  179SLPC  C21120455   1.058   2.011   9.217  0.2327 -0.5860  0.8987
  179SLPC  H11R20456   0.982   2.033   9.296  1.9501  1.6619  2.0498
  179SLPC  H11S20457   1.091   1.906   9.234  0.2424 -0.8849 -0.8262
  179SLPC  C21220458   1.007   2.023   9.077  0.1199 -0.6730  0.8979
  179SLPC  H12R20459   1.082   2.043   8.999 -2.4912  2.7253 -0.9443
  179SLPC  C21320460   0.881   2.006   9.039 -0.6846 -0.1932  0.3840
  179SLPC  H13R20461   0.872   1.987   8.931 -0.3861 -0.2820  0.3746
  179SLPC  C21420462   0.761   1.984   9.125  0.1851  0.5640  0.1618
  179SLPC  H14R20463   0.750   2.059   9.206  1.8370 -0.0388  0.9899
  179SLPC  H14S20464   0.764   1.880   9.164  0.5825  0.6052  0.2426
  179SLPC  C21520465   0.628   1.991   9.056 -0.1073  0.0007 -0.2525
  179SLPC  H15R20466   0.550   1.949   9.123  2.8471 -2.1407  2.1015
  179SLPC  H15S20467   0.636   1.937   8.959  0.3804  0.0952 -0.2657
  179SLPC  C21620468   0.585   2.132   9.030  0.6501 -0.2172 -0.0288
  179SLPC  H16R20469   0.664   2.176   8.965  0.2705 -0.9834 -1.0331
  179SLPC  H16S20470   0.575   2.189   9.124 -1.2857 -1.2965  0.4797
  179SLPC  C21720471   0.453   2.158   8.942  0.0961 -0.0909 -0.6969
  179SLPC  H17R20472   0.369   2.174   9.013  2.4653  2.2624  1.8375
  179SLPC  H17S20473   0.441   2.065   8.884  0.2527 -1.0454  0.7510
  179SLPC  C21820474   0.453   2.267   8.834 -0.3971 -0.1283 -0.2912
  179SLPC  H18R20475   0.352   2.269   8.789 -0.8921 -0.4590  0.7810
  179SLPC  H18S20476   0.518   2.238   8.748 -1.2991 -3.0334 -0.0932
  179SLPC  H18T20477   0.476   2.366   8.878 -2.4271  0.2129  0.0575
  179SLPC   C3320478   1.324   2.557   9.756  0.5858 -0.0141 -0.4758
  179SLPC   H3X20479   1.287   2.510   9.662 -0.2941  0.6035 -0.4521
  179SLPC   H3Y20480   1.379   2.473   9.805 -0.3959  0.6611  1.9571
  179SLPC   C3420481   1.418   2.667   9.714 -0.2850  0.1513 -0.3561
  179SLPC   H4X20482   1.521   2.625   9.702  0.1385  0.7456  0.9467
  179SLPC   H4Y20483   1.423   2.755   9.782  1.8233  1.2954 -1.8586
  179SLPC   C3520484   1.390   2.720   9.579  0.0411  0.6890  0.5686
  179SLPC   H5X20485   1.291   2.687   9.542 -0.2703 -0.6406  2.4737
  179SLPC   H5Y20486   1.465   2.684   9.506 -1.4886 -0.1358 -0.6602
  179SLPC   C3620487   1.380   2.876   9.587 -1.0166 -0.1111  0.4972
  179SLPC   H6X20488   1.474   2.908   9.636 -0.1971 -1.5917 -0.0370
  179SLPC   H6Y20489   1.297   2.900   9.656 -0.6835  0.1352  0.8174
  179SLPC   C3720490   1.352   2.953   9.455 -0.2140  0.4377  0.2448
  179SLPC   H7X20491   1.348   3.063   9.470 -0.9329  0.3854  0.4811
  179SLPC   H7Y20492   1.253   2.918   9.417  1.6059 -2.5313 -2.2459
  179SLPC   C3820493   1.455   2.914   9.349  0.4640  0.1255 -0.0693
  179SLPC   H8X20494   1.451   2.807   9.318 -2.3813 -0.5394  2.2300
  179SLPC   H8Y20495   1.556   2.908   9.395  0.1911 -1.4801  0.3921
  179SLPC   C3920496   1.451   2.997   9.218 -0.0800  0.1821 -0.7134
  179SLPC   H9X20497   1.452   3.107   9.234  1.7307  0.2975 -1.4175
  179SLPC   H9Y20498   1.353   2.971   9.171 -0.6183  0.6253  0.1251
  179SLPC  C31020499   1.557   2.955   9.121 -0.3668  0.4673 -0.2026
  179SLPC  H10X20500   1.551   2.844   9.115 -2.4618  0.6010 -1.5726
  179SLPC  H10Y20501   1.662   2.964   9.157 -0.6543 -1.6052  1.3548
  179SLPC  C31120502   1.535   3.019   8.985 -0.3124  0.6284 -0.2041
  179SLPC  H11X20503   1.568   3.125   8.987 -0.5800  0.7107  0.8350
  179SLPC  H11Y20504   1.427   3.016   8.960 -0.5037 -0.3731  0.6412
  179SLPC  C31220505   1.614   2.949   8.874 -0.2503 -0.6531  0.0821
  179SLPC  H12X20506   1.617   2.838   8.879  0.1411 -0.6696 -0.4271
  179SLPC  H12Y20507   1.722   2.977   8.880 -0.5845  0.8666 -0.4974
  179SLPC  C31320508   1.573   2.992   8.730 -0.2487 -0.0168 -0.2480
  179SLPC  H13X20509   1.576   3.103   8.732 -2.3562  0.0846 -0.9355
  179SLPC  H13Y20510   1.471   2.954   8.708 -0.0189 -0.0215 -1.3268
  179SLPC  C31420511   1.678   2.937   8.637  0.2101 -0.1254  0.1830
  179SLPC  H14X20512   1.661   2.827   8.630 -0.0273 -0.0532 -0.4310
  179SLPC  H14Y20513   1.780   2.962   8.673  0.0453  1.6208 -0.4716
  179SLPC  C31520514   1.654   2.994   8.496  0.3617  0.3644 -0.7612
  179SLPC  H15X20515   1.673   3.103   8.492  0.7208  0.2858 -1.3451
  179SLPC  H15Y20516   1.549   2.970   8.469  0.6066  1.4390 -2.8558
  179SLPC  C31620517   1.737   2.924   8.382  0.3580  0.0746 -0.3155
  179SLPC  H16X20518   1.704   2.821   8.356  1.5903 -0.2765 -0.5085
  179SLPC  H16Y20519   1.844   2.917   8.407  0.4069 -0.6296 -0.7099
  179SLPC  C31720520   1.735   3.000   8.247 -0.6169  0.2121  0.2802
  179SLPC  H17X20521   1.769   2.921   8.178 -2.4281 -0.2665 -0.0888
  179SLPC  H17Y20522   1.805   3.087   8.247 -0.6590  0.2809 -1.4575
  179SLPC  C31820523   1.595   3.048   8.212 -0.5126 -0.4026 -0.0949
  179SLPC  H18X20524   1.563   3.134   8.274  3.3536  0.9045  0.3760
  179SLPC  H18Y20525   1.526   2.963   8.230  2.4032 -3.2986 -1.6635
  179SLPC  H18Z20526   1.588   3.083   8.107  0.0979  0.4627  0.1344
  180SLPC     N20527   2.170   6.708  10.655  0.2857  0.1788  0.0218
  180SLPC   C1320528   2.209   6.845  10.701  0.5255  0.2774  0.7261
  180SLPC  H13A20529   2.303   6.848  10.755  1.0441 -1.9236  0.0819
  180SLPC  H13B20530   2.205   6.907  10.612  2.9421 -1.0111 -0.3955
  180SLPC  H13C20531   2.139   6.889  10.770 -0.0364 -1.1396  1.1117
  180SLPC   C1420532   2.275   6.658  10.549  0.4394 -0.4176 -0.1005
  180SLPC  H14A20533   2.270   6.727  10.466 -2.6038 -0.2203  0.1233
  180SLPC  H14B20534   2.371   6.654  10.597  0.0018 -0.7864  0.7671
  180SLPC  H14C20535   2.247   6.560  10.514 -1.0689 -0.3175  0.7365
  180SLPC   C1520536   2.036   6.728  10.593  0.0373 -0.2001 -0.4938
  180SLPC  H15A20537   1.974   6.777  10.666  1.3850 -0.0103  0.5676
  180SLPC  H15B20538   2.039   6.786  10.502 -1.3644  3.2080  1.4541
  180SLPC  H15C20539   1.987   6.633  10.582 -0.5758  0.0162  0.2857
  180SLPC   C1220540   2.160   6.605  10.765 -0.3179  0.0177  1.3191
  180SLPC  H12A20541   2.096   6.654  10.837 -2.3655 -1.2835  0.4869
  180SLPC  H12B20542   2.258   6.598  10.809  1.2042  4.1129 -0.9260
  180SLPC   C1120543   2.090   6.465  10.739  0.8391  0.3171 -0.4344
  180SLPC  H11A20544   2.115   6.422  10.838 -0.4928  0.4785 -0.0131
  180SLPC  H11B20545   2.143   6.421  10.651  1.1570  2.4694 -1.3782
  180SLPC     P20546   1.857   6.349  10.736 -0.0180 -0.0939 -0.1664
  180SLPC   O1320547   1.922   6.253  10.821 -0.6532  0.0003  0.0314
  180SLPC   O1420548   1.718   6.392  10.778 -0.0033  0.0600  0.4913
  180SLPC   O1220549   1.949   6.481  10.709 -0.0847  0.0839  0.7249
  180SLPC   O1120550   1.837   6.282  10.597  0.8262  0.4118  0.0078
  180SLPC    C120551   1.763   6.333  10.488  0.3311  0.0844  0.6782
  180SLPC    HA20552   1.722   6.251  10.426 -2.1389  1.6064  0.1759
  180SLPC    HB20553   1.685   6.407  10.515 -0.7738 -0.9320  0.3536
  180SLPC    C220554   1.866   6.396  10.385 -0.6196 -0.0544 -1.1193
  180SLPC    HS20555   1.921   6.472  10.445 -0.8426  0.8629 -2.0480
  180SLPC   O2120556   1.791   6.448  10.274  0.7053 -0.4593  0.1706
  180SLPC   C2120557   1.829   6.564  10.241  0.2855 -0.9390 -0.1062
  180SLPC   O2220558   1.914   6.636  10.299 -0.1506 -0.0269 -0.0002
  180SLPC   C2220559   1.765   6.607  10.107 -0.4051 -0.6170 -0.1186
  180SLPC   H2R20560   1.761   6.521  10.037 -1.6317 -0.4669 -0.2568
  180SLPC   H2S20561   1.659   6.636  10.122 -0.1247  0.2419  0.2681
  180SLPC    C320562   1.970   6.284  10.346  1.1010  0.0221 -0.5421
  180SLPC    HX20563   1.900   6.204  10.314 -3.1484  1.9806  2.7563
  180SLPC    HY20564   2.027   6.246  10.434 -0.9777  1.1471  1.4244
  180SLPC   O3120565   2.055   6.334  10.243  0.1780  0.6126  0.0813
  180SLPC   C3120566   2.166   6.394  10.286 -0.1132  0.1146  0.3823
  180SLPC   O3220567   2.191   6.411  10.402 -0.0861 -0.0894  0.4225
  180SLPC   C3220568   2.264   6.407  10.168  0.2852  0.5165  0.2595
  180SLPC   H2X20569   2.202   6.455  10.089 -3.3571  1.0738  3.1826
  180SLPC   H2Y20570   2.290   6.301  10.148  1.7406  0.6119  1.4608
  180SLPC   C2320571   1.837   6.738  10.045 -0.3786  0.1031 -0.9100
  180SLPC   H3R20572   1.855   6.819  10.119  2.0594  0.3179 -1.6751
  180SLPC   H3S20573   1.779   6.783   9.962  0.7704 -0.1166 -1.8583
  180SLPC   C2420574   1.978   6.699  10.000 -0.0815  0.5950 -0.2702
  180SLPC   H4R20575   2.032   6.657  10.088  0.2081  2.7105  0.6178
  180SLPC   H4S20576   2.043   6.786   9.977  1.0639 -0.0606  0.3957
  180SLPC   C2520577   1.984   6.595   9.883 -0.2149 -0.3834 -0.0296
  180SLPC   H5R20578   1.920   6.629   9.799  0.9635  0.9703 -0.4154
  180SLPC   H5S20579   1.940   6.496   9.909 -0.8058 -0.9302 -2.8156
  180SLPC   C2620580   2.125   6.584   9.829 -0.3938  0.7287 -0.7659
  180SLPC   H6R20581   2.190   6.547   9.910  0.2042 -0.0011 -1.5573
  180SLPC   H6S20582   2.157   6.677   9.776 -0.7711  0.6589 -1.1283
  180SLPC   C2720583   2.122   6.486   9.708 -0.6567 -0.4571 -0.1922
  180SLPC   H7R20584   2.065   6.529   9.622 -1.2654 -3.1304 -1.2076
  180SLPC   H7S20585   2.069   6.391   9.730 -0.8319 -0.9243 -2.4310
  180SLPC   C2820586   2.261   6.437   9.670  0.7914  0.0409 -0.7595
  180SLPC   H8R20587   2.245   6.349   9.604  1.5125  0.9365 -2.1756
  180SLPC   H8S20588   2.304   6.393   9.762 -1.3887  1.1504  0.9048
  180SLPC   C2920589   2.342   6.543   9.597  0.1856  0.9079  0.1709
  180SLPC   H9R20590   2.360   6.636   9.652 -0.9371 -0.2755  2.6898
  180SLPC  C21020591   2.369   6.538   9.467  0.2188  0.4769  0.0228
  180SLPC  H10R20592   2.433   6.620   9.431 -0.2106  0.3207 -1.1240
  180SLPC  C21120593   2.331   6.435   9.363  0.0148 -0.0882 -0.6622
  180SLPC  H11R20594   2.326   6.484   9.263  0.7654 -1.5194 -1.4374
  180SLPC  H11S20595   2.225   6.401   9.371  0.1028 -0.9121 -2.4944
  180SLPC  C21220596   2.407   6.301   9.363 -0.2328  0.8656 -0.2708
  180SLPC  H12R20597   2.375   6.226   9.437  1.3288 -0.1471 -0.5621
  180SLPC  C21320598   2.499   6.266   9.275 -0.1261  1.2028  0.4885
  180SLPC  H13R20599   2.546   6.167   9.286 -0.8310  0.9970  1.9027
  180SLPC  C21420600   2.557   6.356   9.174 -0.2867  0.6080  0.0684
  180SLPC  H14R20601   2.662   6.322   9.163 -0.1436  0.7254  1.0646
  180SLPC  H14S20602   2.554   6.465   9.197  0.6115  0.1869  2.4385
  180SLPC  C21520603   2.485   6.342   9.038 -0.5762  0.6247  0.1214
  180SLPC  H15R20604   2.376   6.360   9.048 -0.8960 -0.7328 -0.6944
  180SLPC  H15S20605   2.514   6.238   9.010  0.1274  1.0021 -0.5642
  180SLPC  C21620606   2.532   6.443   8.934  0.5517  0.5746  0.2135
  180SLPC  H16R20607   2.531   6.540   8.988 -1.2056  0.6004  0.1766
  180SLPC  H16S20608   2.459   6.441   8.850  1.6014 -1.3175 -0.7220
  180SLPC  C21720609   2.680   6.437   8.869  0.1732 -0.5201  0.0156
  180SLPC  H17R20610   2.678   6.346   8.804  2.8424 -0.7800  0.2034
  180SLPC  H17S20611   2.743   6.423   8.959 -1.0435  0.4771  1.0614
  180SLPC  C21820612   2.727   6.566   8.790 -0.0187 -0.5655  0.0182
  180SLPC  H18R20613   2.829   6.543   8.753  0.2997  0.5082  0.2234
  180SLPC  H18S20614   2.737   6.655   8.855 -1.1641  1.3488 -2.2874
  180SLPC  H18T20615   2.665   6.592   8.701 -0.0097 -1.0737 -0.1455
  180SLPC   C3320616   2.395   6.489  10.194 -0.1191  0.3167 -0.0955
  180SLPC   H3X20617   2.456   6.439  10.272 -0.6284 -0.0773  0.0532
  180SLPC   H3Y20618   2.370   6.589  10.235  0.4001  0.6912 -0.6779
  180SLPC   C3420619   2.476   6.509  10.067  0.4853  0.2472  0.1535
  180SLPC   H4X20620   2.563   6.574  10.088  0.0823  0.8205  0.0587
  180SLPC   H4Y20621   2.413   6.560   9.991  0.3537  0.2972  0.2982
  180SLPC   C3520622   2.518   6.380   9.990  0.3408 -0.8706 -0.5177
  180SLPC   H5X20623   2.428   6.321   9.962  0.7030 -1.4068 -0.5682
  180SLPC   H5Y20624   2.580   6.311  10.051  2.6644  1.0567 -0.5411
  180SLPC   C3620625   2.589   6.415   9.863 -0.3630 -0.1456 -0.4750
  180SLPC   H6X20626   2.673   6.486   9.877 -1.9795  1.4047  2.4138
  180SLPC   H6Y20627   2.526   6.487   9.807 -0.0168  0.2270 -0.3899
  180SLPC   C3720628   2.618   6.300   9.759  0.1797  0.0960 -0.7247
  180SLPC   H7X20629   2.523   6.251   9.728  0.3564  0.4348 -1.8660
  180SLPC   H7Y20630   2.682   6.233   9.820 -1.0493  0.7751  1.4115
  180SLPC   C3820631   2.694   6.341   9.638 -0.1982  0.1750 -0.1287
  180SLPC   H8X20632   2.752   6.432   9.666  0.8474 -0.6856  0.6001
  180SLPC   H8Y20633   2.630   6.375   9.554 -0.4758 -1.2035 -0.4979
  180SLPC   C3920634   2.782   6.236   9.573 -0.1719  0.4128 -0.3545
  180SLPC   H9X20635   2.717   6.166   9.517 -1.6818 -0.5245  2.3871
  180SLPC   H9Y20636   2.845   6.179   9.645 -1.4555  0.2290  0.6682
  180SLPC  C31020637   2.861   6.300   9.458 -0.8040  0.6268  0.5906
  180SLPC  H10X20638   2.934   6.363   9.514 -0.0147 -0.4074  0.7618
  180SLPC  H10Y20639   2.791   6.362   9.399 -0.4089  0.5227  0.0104
  180SLPC  C31120640   2.925   6.193   9.358 -0.3247  0.4912 -0.8683
  180SLPC  H11X20641   2.844   6.124   9.328  0.4949  0.2864 -2.7450
  180SLPC  H11Y20642   2.998   6.131   9.414  0.9985  0.9153 -2.0607
  180SLPC  C31220643   2.985   6.259   9.236  0.0321 -0.6367  0.1625
  180SLPC  H12X20644   3.041   6.343   9.281  0.1795 -1.2008  1.0442
  180SLPC  H12Y20645   2.902   6.297   9.173  0.2319 -0.4530  0.0107
  180SLPC  C31320646   3.065   6.163   9.138 -0.2870 -0.1030 -0.5186
  180SLPC  H13X20647   2.997   6.096   9.082  0.2315  0.0407 -1.3262
  180SLPC  H13Y20648   3.128   6.096   9.201 -2.2954 -1.5235  0.0991
  180SLPC  C31420649   3.139   6.239   9.030 -0.0394  0.0166 -0.3019
  180SLPC  H14X20650   3.187   6.170   8.958  2.2645  0.0080  1.1409
  180SLPC  H14Y20651   3.229   6.290   9.070  1.0625  0.0138 -2.6059
  180SLPC  C31520652   3.041   6.334   8.949 -0.2931 -0.2040 -0.5608
  180SLPC  H15X20653   3.001   6.402   9.027  2.4766  0.0831  0.7156
  180SLPC  H15Y20654   2.957   6.273   8.909 -1.8365  0.5956  1.2633
  180SLPC  C31620655   3.107   6.414   8.841  0.0320  0.2905  0.0906
  180SLPC  H16X20656   3.180   6.486   8.886  0.8603 -0.1938 -0.4604
  180SLPC  H16Y20657   3.030   6.465   8.780  1.7626  0.5667 -2.0053
  180SLPC  C31720658   3.168   6.337   8.733 -0.3257 -0.3368  0.1452
  180SLPC  H17X20659   3.092   6.269   8.689 -2.4857  1.5541  0.7362
  180SLPC  H17Y20660   3.250   6.271   8.766 -0.7481 -0.5305  0.8121
  180SLPC  C31820661   3.241   6.431   8.633  0.2658  0.6901 -0.5204
  180SLPC  H18X20662   3.318   6.494   8.682  0.7918  0.7494 -1.4022
  180SLPC  H18Y20663   3.162   6.488   8.579  0.1580 -1.0967 -2.3697
  180SLPC  H18Z20664   3.290   6.374   8.551 -0.4567  1.5527 -1.5773
  181SLPC     N20665   6.235   4.186  11.196  0.6327 -0.0518 -0.4137
  181SLPC   C1320666   6.195   4.044  11.164 -0.2818  0.4889  0.7542
  181SLPC  H13A20667   6.087   4.037  11.166 -0.2798 -0.3030 -0.7473
  181SLPC  H13B20668   6.230   4.017  11.066 -2.0517 -1.1164  0.5105
  181SLPC  H13C20669   6.228   3.976  11.241 -0.2469 -1.5929 -1.0265
  181SLPC   C1420670   6.382   4.208  11.191 -0.1039 -0.0487 -0.1605
  181SLPC  H14A20671   6.402   4.302  11.240  1.1796  0.7489 -2.1120
  181SLPC  H14B20672   6.440   4.131  11.240 -1.2264 -0.5759  0.3860
  181SLPC  H14C20673   6.411   4.219  11.088 -1.5122 -1.6840 -0.7731
  181SLPC   C1520674   6.201   4.196  11.348 -0.4943  0.1785  0.0092
  181SLPC  H15A20675   6.235   4.293  11.379 -1.2370 -0.5087  3.3626
  181SLPC  H15B20676   6.094   4.189  11.366 -0.3123  0.3008  1.2082
  181SLPC  H15C20677   6.260   4.127  11.406  0.8766  0.4673 -0.9833
  181SLPC   C1220678   6.149   4.277  11.109 -0.0367  0.2397  0.0385
  181SLPC  H12A20679   6.171   4.379  11.139  0.4520  0.8589 -2.2434
  181SLPC  H12B20680   6.042   4.266  11.118 -0.0298 -1.5948 -1.5525
  181SLPC   C1120681   6.161   4.257  10.959 -0.1252 -0.4366  0.2686
  181SLPC  H11A20682   6.087   4.317  10.902 -1.5963 -1.4990  0.9742
  181SLPC  H11B20683   6.132   4.150  10.944  3.2285 -1.3997 -0.1216
  181SLPC     P20684   6.367   4.401  10.869 -0.0303  0.3033 -0.3837
  181SLPC   O1320685   6.322   4.526  10.931 -0.4871 -0.2256  0.5367
  181SLPC   O1420686   6.512   4.381  10.893 -0.2988  0.1022  0.7885
  181SLPC   O1220687   6.292   4.272  10.915 -0.4300 -0.2414 -0.1082
  181SLPC   O1120688   6.325   4.390  10.715 -0.2076  0.3520 -0.5130
  181SLPC    C120689   6.328   4.263  10.648 -0.7542  0.5518  0.1619
  181SLPC    HA20690   6.435   4.232  10.640 -1.1320 -0.4663 -1.5474
  181SLPC    HB20691   6.264   4.190  10.702 -1.5701  1.7839  0.8965
  181SLPC    C220692   6.296   4.287  10.499 -0.0258  0.0763 -0.1221
  181SLPC    HS20693   6.305   4.188  10.449  2.6028 -0.0382  0.4152
  181SLPC   O2120694   6.381   4.379  10.439 -0.3440  0.8206 -1.0978
  181SLPC   C2120695   6.496   4.336  10.389  0.0931  0.4749 -0.9666
  181SLPC   O2220696   6.526   4.221  10.368  0.8049 -0.5133 -0.4353
  181SLPC   C2220697   6.574   4.458  10.345 -0.3127 -0.8765 -0.1726
  181SLPC   H2R20698   6.494   4.511  10.289 -2.4710 -2.3065  1.3840
  181SLPC   H2S20699   6.610   4.517  10.432 -0.0187  0.3761 -1.1082
  181SLPC    C320700   6.144   4.340  10.484 -0.2053 -0.4868 -0.5817
  181SLPC    HX20701   6.127   4.429  10.547 -1.5631 -3.1543  3.1457
  181SLPC    HY20702   6.082   4.259  10.528 -0.7867  1.7082  2.9869
  181SLPC   O3120703   6.097   4.353  10.355 -0.2780 -0.0558 -0.6863
  181SLPC   C3120704   6.132   4.467  10.294  0.3292 -0.2136 -0.7483
  181SLPC   O3220705   6.198   4.555  10.345  0.2453 -0.3096 -0.0975
  181SLPC   C3220706   6.084   4.453  10.159 -0.4877 -0.2160  0.4993
  181SLPC   H2X20707   5.974   4.445  10.148 -0.4728  0.7684 -0.6515
  181SLPC   H2Y20708   6.118   4.355  10.119 -3.1577 -0.4448 -1.5037
  181SLPC   C2320709   6.687   4.420  10.250 -0.5799  0.2913 -0.2049
  181SLPC   H3R20710   6.660   4.347  10.170  0.9828  1.4919 -1.9290
  181SLPC   H3S20711   6.763   4.373  10.316 -1.2236 -0.5309 -0.0320
  181SLPC   C2420712   6.765   4.537  10.172 -0.1006  0.8408  0.1612
  181SLPC   H4R20713   6.826   4.591  10.247 -1.6318  1.2390  1.1581
  181SLPC   H4S20714   6.690   4.607  10.129  0.4624  1.5678  0.3285
  181SLPC   C2520715   6.857   4.490  10.052 -0.0532  0.2096 -0.4532
  181SLPC   H5R20716   6.845   4.380  10.049  0.1050  0.1795 -0.1007
  181SLPC   H5S20717   6.958   4.515  10.092  0.5731  1.2819 -2.5816
  181SLPC   C2620718   6.832   4.553   9.917  0.5016  0.6931  0.6938
  181SLPC   H6R20719   6.912   4.513   9.852  0.3034 -1.0464  1.4586
  181SLPC   H6S20720   6.834   4.663   9.935 -1.7287  0.8328  0.4549
  181SLPC   C2720721   6.696   4.508   9.854 -0.5101  0.0597 -0.1753
  181SLPC   H7R20722   6.601   4.535   9.906 -0.2809  2.3829 -0.8580
  181SLPC   H7S20723   6.700   4.398   9.867  2.3324  0.3721  3.1139
  181SLPC   C2820724   6.683   4.551   9.709 -0.2986 -0.0184  0.1958
  181SLPC   H8R20725   6.699   4.660   9.699 -1.7419  0.5342  2.8007
  181SLPC   H8S20726   6.581   4.539   9.668 -0.3698  1.2261 -0.0076
  181SLPC   C2920727   6.774   4.501   9.604  0.4236  0.0078  0.0828
  181SLPC   H9R20728   6.855   4.434   9.639 -0.8571 -1.9015 -0.4597
  181SLPC  C21020729   6.755   4.516   9.477  0.2577 -0.0585 -0.6032
  181SLPC  H10R20730   6.835   4.481   9.409  0.5029 -0.7007 -0.0040
  181SLPC  C21120731   6.636   4.576   9.408 -0.2356 -0.2017 -0.1975
  181SLPC  H11R20732   6.575   4.635   9.479  0.6155 -1.1530  1.4031
  181SLPC  H11S20733   6.590   4.495   9.347  2.7666 -0.7001 -2.0782
  181SLPC  C21220734   6.684   4.689   9.325 -0.2873 -0.1163 -0.3230
  181SLPC  H12R20735   6.647   4.785   9.363 -1.3209 -0.4565 -0.4483
  181SLPC  C21320736   6.747   4.688   9.210 -0.5623 -0.3864  0.2779
  181SLPC  H13R20737   6.757   4.782   9.153  2.7021 -0.4382  0.5772
  181SLPC  C21420738   6.799   4.575   9.133 -0.1240  0.1862  0.4317
  181SLPC  H14R20739   6.795   4.483   9.195 -0.1850  1.6668  2.7250
  181SLPC  H14S20740   6.908   4.586   9.113 -0.3453 -0.4832 -1.4402
  181SLPC  C21520741   6.724   4.551   9.002 -0.2683 -0.0729 -0.0840
  181SLPC  H15R20742   6.614   4.555   9.018 -0.2644  0.5985 -0.1878
  181SLPC  H15S20743   6.742   4.445   8.974 -2.4015 -0.2892 -0.8163
  181SLPC  C21620744   6.769   4.641   8.881  0.6175  0.1102 -0.1332
  181SLPC  H16R20745   6.875   4.629   8.850  0.6999 -0.1289  0.2479
  181SLPC  H16S20746   6.748   4.743   8.921  1.2689  0.0760  0.3075
  181SLPC  C21720747   6.677   4.607   8.759 -0.3884  0.0639 -0.0512
  181SLPC  H17R20748   6.686   4.676   8.672 -2.1017 -1.3845 -1.4770
  181SLPC  H17S20749   6.570   4.614   8.790 -0.4243 -0.2702 -0.1018
  181SLPC  C21820750   6.696   4.463   8.704  0.1309  0.7238  0.1460
  181SLPC  H18R20751   6.685   4.391   8.788  1.1403  1.4594  0.9467
  181SLPC  H18S20752   6.796   4.447   8.660  0.8991 -1.0434  2.3245
  181SLPC  H18T20753   6.618   4.430   8.632 -0.0914 -0.3652  0.8603
  181SLPC   C3320754   6.154   4.554  10.061 -0.2619  0.3712  0.3655
  181SLPC   H3X20755   6.263   4.560  10.077 -0.1472  1.9033 -0.7609
  181SLPC   H3Y20756   6.106   4.654  10.072 -3.0011 -1.0045  1.9390
  181SLPC   C3420757   6.114   4.524   9.912  0.1709  0.3817  0.5989
  181SLPC   H4X20758   6.007   4.553   9.912  0.9795  3.7571  1.7340
  181SLPC   H4Y20759   6.128   4.416   9.891  0.6122  0.3808  0.8796
  181SLPC   C3520760   6.197   4.608   9.809  0.1617  0.8554  0.2310
  181SLPC   H5X20761   6.302   4.575   9.819  0.0476  0.5193  0.3584
  181SLPC   H5Y20762   6.198   4.718   9.819  1.1833  1.0368 -1.4987
  181SLPC   C3620763   6.147   4.568   9.673  0.4081 -0.2454 -0.4427
  181SLPC   H6X20764   6.041   4.592   9.653  0.7630  0.0165 -2.1917
  181SLPC   H6Y20765   6.153   4.459   9.653  0.5807 -0.1459 -0.9592
  181SLPC   C3720766   6.241   4.620   9.566  0.4715 -0.0117  0.6383
  181SLPC   H7X20767   6.342   4.573   9.574  1.3026  1.8553  1.9655
  181SLPC   H7Y20768   6.254   4.730   9.570 -0.5740  0.2187 -1.1663
  181SLPC   C3820769   6.183   4.591   9.427 -0.6108 -0.6936  0.3358
  181SLPC   H8X20770   6.087   4.642   9.404  0.8032  2.6417  1.2696
  181SLPC   H8Y20771   6.159   4.483   9.421  2.0251 -1.3789  0.9764
  181SLPC   C3920772   6.273   4.634   9.306 -0.2676  0.0184  0.4039
  181SLPC   H9X20773   6.376   4.610   9.339  0.3576  0.9188 -0.8180
  181SLPC   H9Y20774   6.275   4.745   9.303 -0.3897  0.0087 -0.3431
  181SLPC  C31020775   6.235   4.575   9.176  0.0529 -0.6872  0.8292
  181SLPC  H10X20776   6.125   4.576   9.163  0.3355 -1.0249 -2.7065
  181SLPC  H10Y20777   6.266   4.469   9.183  1.1226 -0.3544  1.3218
  181SLPC  C31120778   6.311   4.633   9.051 -0.2640  0.7084  0.4717
  181SLPC  H11X20779   6.293   4.566   8.964  0.5509 -1.0516  1.6113
  181SLPC  H11Y20780   6.420   4.627   9.072 -0.4852 -0.9151  1.2871
  181SLPC  C31220781   6.275   4.775   9.003  0.4039 -0.5788  0.0993
  181SLPC  H12X20782   6.294   4.838   9.092  1.8597  0.7756 -1.1055
  181SLPC  H12Y20783   6.166   4.788   8.984  0.6661  1.1742 -0.3910
  181SLPC  C31320784   6.359   4.827   8.890  0.2116 -0.3302 -0.5717
  181SLPC  H13X20785   6.365   4.757   8.804 -0.7452 -0.8306 -0.2491
  181SLPC  H13Y20786   6.459   4.836   8.937 -0.5432  3.5493  0.6627
  181SLPC  C31420787   6.305   4.966   8.838  0.1161  0.5655 -0.2127
  181SLPC  H14X20788   6.227   4.939   8.764  2.5755 -0.1158 -2.7111
  181SLPC  H14Y20789   6.383   5.016   8.777  0.2127 -1.6508 -2.0111
  181SLPC  C31520790   6.265   5.060   8.946  0.2241  0.0817  0.6398
  181SLPC  H15X20791   6.352   5.069   9.014  0.6864  0.4101  0.0183
  181SLPC  H15Y20792   6.177   5.012   8.994  1.9244 -4.5832 -0.4554
  181SLPC  C31620793   6.224   5.207   8.891  0.6720 -0.1920  0.2952
  181SLPC  H16X20794   6.292   5.227   8.805  0.5262  0.6552  0.3724
  181SLPC  H16Y20795   6.256   5.269   8.978 -0.3112  0.6613  0.0634
  181SLPC  C31720796   6.076   5.232   8.876  0.9213 -0.0459  0.2349
  181SLPC  H17X20797   6.027   5.210   8.973  0.0881 -0.0624 -0.1856
  181SLPC  H17Y20798   6.033   5.164   8.799 -0.4332  2.2505 -1.1711
  181SLPC  C31820799   6.049   5.377   8.821 -0.4142  0.1808  1.1338
  181SLPC  H18X20800   5.941   5.396   8.806 -0.2611 -0.8192 -2.0880
  181SLPC  H18Y20801   6.087   5.391   8.717 -0.6099 -1.4946  0.8090
  181SLPC  H18Z20802   6.092   5.450   8.892 -0.3701  0.7548  0.5314
  182SLPC     N20803   3.865   5.913  11.037 -0.4934 -0.2069 -0.3222
  182SLPC   C1320804   3.981   5.871  11.129 -0.3372  0.0379  0.3010
  182SLPC  H13A20805   3.968   5.905  11.231  1.9232 -0.4532  0.8067
  182SLPC  H13B20806   3.987   5.764  11.132  1.1215  0.0966  0.5915
  182SLPC  H13C20807   4.071   5.920  11.092  0.1988  2.1756  3.8940
  182SLPC   C1420808   3.865   6.065  11.044 -0.7026 -0.3052  0.1735
  182SLPC  H14A20809   3.802   6.115  10.971  0.2077  2.9667  1.4173
  182SLPC  H14B20810   3.837   6.093  11.144 -0.9803 -1.1786  0.3412
  182SLPC  H14C20811   3.966   6.098  11.021  0.5349 -2.7113  1.8334
  182SLPC   C1520812   3.742   5.861  11.101 -0.2075 -0.4523  0.1312
  182SLPC  H15A20813   3.744   5.753  11.107 -1.2419 -0.4673  0.4781
  182SLPC  H15B20814   3.728   5.908  11.198  0.1441  0.4591 -0.2513
  182SLPC  H15C20815   3.661   5.896  11.038  0.4435  0.3030 -0.3030
  182SLPC   C1220816   3.874   5.871  10.892  0.0938  0.8806 -0.3827
  182SLPC  H12A20817   3.938   5.940  10.839 -0.0029  0.3253 -1.2396
  182SLPC  H12B20818   3.784   5.896  10.838 -0.0260 -0.1729 -0.6855
  182SLPC   C1120819   3.904   5.725  10.852  0.2188  0.3270 -0.6960
  182SLPC  H11A20820   3.876   5.704  10.747 -1.0487  1.3808 -0.5905
  182SLPC  H11B20821   3.835   5.661  10.910  0.6370  0.3156 -0.1970
  182SLPC     P20822   4.160   5.749  10.823 -0.3504  0.2665 -0.0752
  182SLPC   O1320823   4.184   5.891  10.867  0.0881  0.0240 -0.5749
  182SLPC   O1420824   4.273   5.652  10.840  0.3234 -0.1171  0.0824
  182SLPC   O1220825   4.033   5.685  10.891  0.2268  0.3144  0.1530
  182SLPC   O1120826   4.122   5.759  10.673  0.4682 -0.0533 -0.4124
  182SLPC    C120827   4.127   5.634  10.595  0.4207 -0.8337 -0.0183
  182SLPC    HA20828   4.084   5.551  10.654  0.0924 -0.0246  0.9018
  182SLPC    HB20829   4.063   5.660  10.508 -0.3709 -1.6654  0.3050
  182SLPC    C220830   4.271   5.609  10.542 -0.3269 -0.1623  1.3770
  182SLPC    HS20831   4.324   5.556  10.624 -0.7649 -2.0801  0.4715
  182SLPC   O2120832   4.316   5.739  10.506  0.1991  0.2731  0.8364
  182SLPC   C2120833   4.447   5.749  10.483 -0.6180 -0.5056 -0.2580
  182SLPC   O2220834   4.527   5.662  10.507 -0.5647 -0.0837 -0.0498
  182SLPC   C2220835   4.477   5.884  10.422 -0.0702  0.1314  0.8401
  182SLPC   H2R20836   4.390   5.913  10.361 -0.3601  1.3331  1.7941
  182SLPC   H2S20837   4.479   5.965  10.498 -1.0458  0.9061  0.0499
  182SLPC    C320838   4.263   5.510  10.419 -0.1011  0.1299  0.2581
  182SLPC    HX20839   4.215   5.418  10.459  0.9200  0.1193  1.5413
  182SLPC    HY20840   4.369   5.484  10.399 -0.3924 -0.7603 -0.1972
  182SLPC   O3120841   4.209   5.558  10.293 -0.5541 -0.2026  0.2649
  182SLPC   C3120842   4.084   5.536  10.270  0.4941  0.3342 -0.0529
  182SLPC   O3220843   4.007   5.477  10.345 -0.0906  0.0681  0.3683
  182SLPC   C3220844   4.050   5.576  10.129  0.0283  0.4029 -0.3402
  182SLPC   H2X20845   4.101   5.512  10.054  1.1739 -1.2271  1.7404
  182SLPC   H2Y20846   4.093   5.674  10.098 -0.6114  0.6685 -0.4012
  182SLPC   C2320847   4.616   5.871  10.355 -0.5036 -0.0060  0.1525
  182SLPC   H3R20848   4.693   5.825  10.420 -1.9751 -1.8278  0.6904
  182SLPC   H3S20849   4.655   5.965  10.311 -2.4257  1.1652  0.8200
  182SLPC   C2420850   4.615   5.778  10.228  0.6028  0.1399 -0.4120
  182SLPC   H4R20851   4.588   5.675  10.257  4.2246 -1.0798 -0.8313
  182SLPC   H4S20852   4.717   5.779  10.183  1.3824  0.6364  1.2922
  182SLPC   C2520853   4.532   5.842  10.124 -0.0452  0.1426 -0.3622
  182SLPC   H5R20854   4.555   5.950  10.114  1.4874 -0.1948 -0.7745
  182SLPC   H5S20855   4.424   5.841  10.153 -0.2056 -1.7996 -0.8742
  182SLPC   C2620856   4.535   5.779   9.981  0.3981 -0.2204  0.3666
  182SLPC   H6R20857   4.494   5.675   9.986 -0.5072 -0.1396 -2.9957
  182SLPC   H6S20858   4.639   5.772   9.943  0.6063 -0.7434  1.0256
  182SLPC   C2720859   4.431   5.860   9.893  0.2165  0.1778  0.3866
  182SLPC   H7R20860   4.461   5.967   9.893  0.4039  0.1378  1.7172
  182SLPC   H7S20861   4.329   5.851   9.936 -0.1049  1.4284 -0.0702
  182SLPC   C2820862   4.435   5.817   9.746  0.6033 -0.2999  0.1673
  182SLPC   H8R20863   4.532   5.817   9.693  0.3317 -1.4107 -0.3689
  182SLPC   H8S20864   4.379   5.899   9.696 -0.3727 -1.0151  0.0568
  182SLPC   C2920865   4.364   5.690   9.718 -0.8970  0.5910  0.1335
  182SLPC   H9R20866   4.349   5.624   9.804 -1.2628  0.3330 -0.1230
  182SLPC  C21020867   4.314   5.657   9.600 -0.8321  0.1285  0.1522
  182SLPC  H10R20868   4.262   5.561   9.588  0.1988 -0.3150 -1.1010
  182SLPC  C21120869   4.329   5.733   9.469  0.4234  0.3987  0.0158
  182SLPC  H11R20870   4.316   5.842   9.488 -5.0442  0.0963 -0.4214
  182SLPC  H11S20871   4.235   5.705   9.415 -0.3506 -1.5592  2.2272
  182SLPC  C21220872   4.446   5.711   9.373  0.0198  0.1088 -0.0412
  182SLPC  H12R20873   4.524   5.647   9.417 -0.7047  0.1995  1.4421
  182SLPC  C21320874   4.461   5.770   9.253  0.2245 -0.4446  0.2641
  182SLPC  H13R20875   4.551   5.748   9.192 -0.1405  0.0366 -0.4652
  182SLPC  C21420876   4.371   5.863   9.183  0.2482  0.0950  0.3204
  182SLPC  H14R20877   4.424   5.939   9.122  0.1527 -0.8307 -0.9351
  182SLPC  H14S20878   4.297   5.905   9.255 -2.2600 -1.9271 -0.9363
  182SLPC  C21520879   4.290   5.786   9.077 -0.2610  0.0997  0.1535
  182SLPC  H15R20880   4.354   5.723   9.012 -1.4289 -1.2545  0.2667
  182SLPC  H15S20881   4.256   5.869   9.012  1.5080  0.1396 -0.7854
  182SLPC  C21620882   4.176   5.705   9.134 -0.0505 -0.1211  0.7612
  182SLPC  H16R20883   4.120   5.767   9.207  0.9697  3.9116 -1.5542
  182SLPC  H16S20884   4.204   5.609   9.183 -2.2681  0.1155  2.6591
  182SLPC  C21720885   4.075   5.672   9.028 -0.7802 -0.0342 -0.5037
  182SLPC  H17R20886   4.027   5.767   8.999  2.0013  2.9060  3.4474
  182SLPC  H17S20887   4.005   5.598   9.073 -0.0982 -1.8037 -2.1860
  182SLPC  C21820888   4.126   5.602   8.905 -0.1812  0.0819 -0.7480
  182SLPC  H18R20889   4.045   5.538   8.862 -2.2214  2.5336 -0.7994
  182SLPC  H18S20890   4.214   5.542   8.936 -0.0212  1.0601  0.7870
  182SLPC  H18T20891   4.165   5.676   8.831  0.3000 -1.6279 -2.2944
  182SLPC   C3320892   3.899   5.589  10.102  0.5187 -0.5208 -0.6289
  182SLPC   H3X20893   3.865   5.678  10.158  2.7461  1.1308 -1.7516
  182SLPC   H3Y20894   3.840   5.502  10.138 -1.0481  0.8315  0.1571
  182SLPC   C3420895   3.878   5.616   9.955 -0.0365  0.1503  0.4975
  182SLPC   H4X20896   3.769   5.602   9.937  0.0146 -0.6317  0.7330
  182SLPC   H4Y20897   3.930   5.549   9.882 -0.9652 -0.2531  0.1888
  182SLPC   C3520898   3.902   5.763   9.905  0.3041 -0.2528  0.0140
  182SLPC   H5X20899   4.012   5.777   9.909  0.9202 -3.6119 -1.5490
  182SLPC   H5Y20900   3.856   5.832   9.979 -2.4132 -2.8697  0.9961
  182SLPC   C3620901   3.843   5.789   9.763 -0.3688  0.1893 -0.7912
  182SLPC   H6X20902   3.902   5.874   9.726  0.1530  0.0979 -0.1881
  182SLPC   H6Y20903   3.737   5.821   9.778 -0.0812  0.5521  0.5940
  182SLPC   C3720904   3.848   5.678   9.663  0.5359 -1.0403 -0.4102
  182SLPC   H7X20905   3.752   5.622   9.665 -0.6193  0.9001  0.2032
  182SLPC   H7Y20906   3.938   5.613   9.674 -0.6236 -2.4233  1.7385
  182SLPC   C3820907   3.866   5.731   9.519  0.3893  1.1090 -0.4381
  182SLPC   H8X20908   3.954   5.798   9.507  1.1534  0.3013  0.4671
  182SLPC   H8Y20909   3.787   5.803   9.488  0.9007  0.6885 -2.9104
  182SLPC   C3920910   3.856   5.623   9.403  0.6909 -0.3614  0.0800
  182SLPC   H9X20911   3.845   5.669   9.302 -1.6448 -1.3393 -0.1718
  182SLPC   H9Y20912   3.765   5.560   9.415  0.5712 -0.8491 -2.7230
  182SLPC  C31020913   3.977   5.528   9.403 -0.1131 -0.5450  0.0013
  182SLPC  H10X20914   3.996   5.500   9.508 -0.7168  1.0391  0.5640
  182SLPC  H10Y20915   4.062   5.579   9.352 -0.7653 -0.6630 -1.2523
  182SLPC  C31120916   3.956   5.397   9.329 -0.0080  0.0761 -0.8288
  182SLPC  H11X20917   3.980   5.405   9.221 -0.1875 -0.4264 -0.9100
  182SLPC  H11Y20918   3.853   5.359   9.345  0.1341 -0.5450 -1.3582
  182SLPC  C31220919   4.058   5.293   9.388 -0.4049 -0.8098 -0.1277
  182SLPC  H12X20920   4.039   5.195   9.340  0.6871 -0.1004 -2.1336
  182SLPC  H12Y20921   4.019   5.296   9.491 -1.1402  0.6391 -0.4255
  182SLPC  C31320922   4.203   5.326   9.357  0.1619  0.5520  0.4125
  182SLPC  H13X20923   4.272   5.246   9.393  0.2571  0.9172  1.0610
  182SLPC  H13Y20924   4.234   5.423   9.401 -2.0015  2.0274 -1.1340
  182SLPC  C31420925   4.227   5.324   9.199 -0.3236  1.2169 -0.0319
  182SLPC  H14X20926   4.177   5.418   9.168 -2.1828  0.9456  1.8688
  182SLPC  H14Y20927   4.177   5.239   9.149  1.5638 -0.9851  1.6005
  182SLPC  C31520928   4.375   5.339   9.162  0.4031  0.2869  0.2581
  182SLPC  H15X20929   4.411   5.391   9.253 -1.4207  2.5619 -0.2185
  182SLPC  H15Y20930   4.399   5.400   9.072 -1.2483  0.7409  0.0802
  182SLPC  C31620931   4.433   5.196   9.162  0.7631 -0.1270 -0.4709
  182SLPC  H16X20932   4.429   5.152   9.060 -1.2246 -0.2137 -0.3930
  182SLPC  H16Y20933   4.381   5.137   9.240 -0.5116 -0.3856 -1.4843
  182SLPC  C31720934   4.582   5.212   9.197  0.3014  0.2016  1.3400
  182SLPC  H17X20935   4.605   5.253   9.298 -0.9004  0.5324  1.4949
  182SLPC  H17Y20936   4.618   5.284   9.121  1.1603 -1.6130 -0.0638
  182SLPC  C31820937   4.666   5.088   9.165  1.0359  0.2538 -0.2355
  182SLPC  H18X20938   4.633   5.046   9.067  2.0149 -2.0814  0.3705
  182SLPC  H18Y20939   4.642   5.010   9.241  0.5772  2.7407  2.3456
  182SLPC  H18Z20940   4.776   5.100   9.171  0.9945  0.2011  0.8114
  183SLPC     N20941   5.810   1.508  11.030  0.0144  0.8117 -0.0693
  183SLPC   C1320942   5.962   1.509  11.058 -0.4018 -0.2204  0.0382
  183SLPC  H13A20943   6.015   1.561  10.980 -1.1651 -1.1334 -1.1220
  183SLPC  H13B20944   5.972   1.571  11.146 -1.0715  0.9589 -0.6893
  183SLPC  H13C20945   6.010   1.413  11.067  0.3159  0.2696  1.8588
  183SLPC   C1420946   5.761   1.651  11.053 -0.4790  0.4014  0.4877
  183SLPC  H14A20947   5.815   1.723  10.993  2.1432 -1.0473  0.9791
  183SLPC  H14B20948   5.658   1.668  11.026 -1.1602  0.4212  2.8537
  183SLPC  H14C20949   5.762   1.682  11.156  1.5739  0.0547  0.6109
  183SLPC   C1520950   5.743   1.418  11.133 -1.2619 -0.8584  0.0207
  183SLPC  H15A20951   5.774   1.451  11.231  0.3412 -1.2167 -0.3431
  183SLPC  H15B20952   5.640   1.450  11.136 -1.0654  0.2301 -2.4597
  183SLPC  H15C20953   5.762   1.314  11.115 -2.9875 -1.0145 -1.1049
  183SLPC   C1220954   5.785   1.440  10.894 -0.6003  0.0434 -0.5428
  183SLPC  H12A20955   5.825   1.499  10.813  1.4218 -0.2138  0.2164
  183SLPC  H12B20956   5.682   1.438  10.862 -1.2374  0.5778  1.3713
  183SLPC   C1120957   5.851   1.312  10.870 -0.2056 -0.2395 -0.0838
  183SLPC  H11A20958   5.961   1.325  10.880 -0.0248 -0.3753 -1.6332
  183SLPC  H11B20959   5.846   1.287  10.762  0.3984 -0.7232 -0.0035
  183SLPC     P20960   5.670   1.136  10.899  0.0041  0.3869  0.0358
  183SLPC   O1320961   5.649   1.027  10.992 -0.4142  0.8289 -0.3225
  183SLPC   O1420962   5.561   1.237  10.886  0.4148  0.2154 -0.3206
  183SLPC   O1220963   5.804   1.205  10.949 -0.1493  0.2547  0.1510
  183SLPC   O1120964   5.700   1.077  10.754  0.2822  0.8163  0.2545
  183SLPC    C120965   5.779   0.959  10.735  0.7898  0.1046  0.1543
  183SLPC    HA20966   5.747   0.885  10.811  3.6752 -0.5096  0.8889
  183SLPC    HB20967   5.764   0.924  10.631 -1.1771  1.2169  0.0220
  183SLPC    C220968   5.933   0.986  10.750 -0.2864 -0.7625 -0.2013
  183SLPC    HS20969   5.962   1.053  10.833 -0.2296 -1.8447  0.6859
  183SLPC   O2120970   5.972   1.043  10.623  1.3162 -0.7102 -0.0712
  183SLPC   C2120971   6.092   1.097  10.611  0.4947 -0.1870 -0.9018
  183SLPC   O2220972   6.170   1.117  10.706 -0.3512 -0.9873  0.5133
  183SLPC   C2220973   6.127   1.142  10.469  0.5549 -0.3072 -0.0778
  183SLPC   H2R20974   6.076   1.237  10.442  0.5289 -0.3814 -0.2950
  183SLPC   H2S20975   6.234   1.170  10.473  0.6496 -0.5970 -0.5572
  183SLPC    C320976   6.009   0.852  10.777 -0.3205 -0.1515  0.4033
  183SLPC    HX20977   5.992   0.810  10.879  0.3191 -0.0676  0.5471
  183SLPC    HY20978   6.118   0.873  10.777  0.0888 -2.0637 -0.3805
  183SLPC   O3120979   5.971   0.740  10.683 -0.2993 -0.1443  0.0165
  183SLPC   C3120980   6.061   0.716  10.587  0.9337  0.5165 -0.6285
  183SLPC   O3220981   6.179   0.747  10.599 -0.5556 -1.0849 -0.0600
  183SLPC   C3220982   6.004   0.629  10.480  0.2185  0.0743 -0.0915
  183SLPC   H2X20983   5.926   0.694  10.434  0.7206  2.3610  2.0728
  183SLPC   H2Y20984   5.975   0.538  10.537 -0.0080  0.4248  0.3523
  183SLPC   C2320985   6.097   1.032  10.369 -0.3476  0.2931  0.5147
  183SLPC   H3R20986   6.010   0.969  10.398  0.7647 -1.2019  0.7356
  183SLPC   H3S20987   6.181   0.961  10.385 -0.4566 -0.6605 -2.4555
  183SLPC   C2420988   6.095   1.075  10.220 -0.4252 -0.1383  0.4836
  183SLPC   H4R20989   6.186   1.132  10.193 -0.4599  0.1033  0.8692
  183SLPC   H4S20990   6.004   1.135  10.197 -0.0360  0.4469  0.4487
  183SLPC   C2520991   6.094   0.955  10.129  0.3160  0.4467 -0.0257
  183SLPC   H5R20992   5.991   0.915  10.129 -0.0252  1.3131  0.0396
  183SLPC   H5S20993   6.168   0.876  10.154  0.3657  0.1659 -0.9906
  183SLPC   C2620994   6.112   0.996   9.983  0.1405 -0.9879  0.3811
  183SLPC   H6R20995   6.217   1.030   9.980 -0.5077  1.3999  1.9853
  183SLPC   H6S20996   6.039   1.079   9.968 -2.7302 -2.8321  2.9539
  183SLPC   C2720997   6.086   0.884   9.871 -0.8169  0.0039 -0.1568
  183SLPC   H7R20998   5.980   0.849   9.876 -0.4440 -1.1576 -0.2617
  183SLPC   H7S20999   6.153   0.799   9.894 -0.1764  0.8941  1.3992
  183SLPC   C2821000   6.093   0.954   9.737 -0.0812 -0.0307 -0.3779
  183SLPC   H8R21001   6.043   1.053   9.746  1.0754  0.7028 -1.6835
  183SLPC   H8S21002   6.026   0.892   9.673 -0.9119  0.0469  0.3854
  183SLPC   C2921003   6.235   0.953   9.678  0.2687  0.6169 -1.0590
  183SLPC   H9R21004   6.318   0.935   9.748 -1.2800 -2.0872  0.2418
  183SLPC  C21021005   6.264   0.997   9.557 -0.1653 -0.7382  1.0314
  183SLPC  H10R21006   6.363   0.987   9.511 -0.8275  0.3222 -0.7093
  183SLPC  C21121007   6.158   1.041   9.453  0.0082  0.5816  0.1499
  183SLPC  H11R21008   6.209   1.096   9.370  5.5721 -0.9962  2.0614
  183SLPC  H11S21009   6.077   1.106   9.493 -1.8226 -0.4081 -1.7305
  183SLPC  C21221010   6.088   0.922   9.390  0.0955  0.0570  0.1851
  183SLPC  H12R21011   6.094   0.828   9.447 -0.2212 -0.0012  0.1214
  183SLPC  C21321012   6.036   0.916   9.266  0.1804 -0.8940  0.1136
  183SLPC  H13R21013   5.984   0.826   9.231  1.3940 -1.0157 -1.4638
  183SLPC  C21421014   6.033   1.021   9.158 -0.8848 -0.1327 -0.5164
  183SLPC  H14R21015   6.107   1.102   9.171 -0.1341 -0.8688 -0.1149
  183SLPC  H14S21016   5.943   1.082   9.182 -1.2744 -1.5167  1.9263
  183SLPC  C21521017   6.034   0.956   9.022 -0.2123 -0.0435  0.5616
  183SLPC  H15R21018   6.030   1.039   8.948  1.6455 -0.5338 -0.1401
  183SLPC  H15S21019   5.948   0.887   9.011  1.1468 -1.8318  0.7694
  183SLPC  C21621020   6.164   0.879   8.991 -0.0600  0.6410  0.0963
  183SLPC  H16R21021   6.196   0.797   9.059  1.3853 -0.8379 -2.2219
  183SLPC  H16S21022   6.248   0.951   8.983  1.0921 -0.3343  2.5409
  183SLPC  C21721023   6.152   0.809   8.853 -0.5205  0.5733  0.1058
  183SLPC  H17R21024   6.188   0.876   8.772 -0.7878 -2.0326 -2.3309
  183SLPC  H17S21025   6.045   0.786   8.834 -0.6073  1.5604 -0.6907
  183SLPC  C21821026   6.218   0.666   8.855 -0.3288 -0.1813  0.5998
  183SLPC  H18R21027   6.190   0.611   8.948 -0.9433 -1.1264 -0.1165
  183SLPC  H18S21028   6.327   0.684   8.850 -0.2653 -0.8982 -1.3795
  183SLPC  H18T21029   6.176   0.607   8.771 -0.1388  0.0847  0.3208
  183SLPC   C3321030   6.100   0.600  10.370 -0.2191 -0.2655  0.2253
  183SLPC   H3X21031   6.190   0.541  10.397  0.5913  1.2623  0.9935
  183SLPC   H3Y21032   6.156   0.694  10.348 -0.5567 -0.1129  0.0157
  183SLPC   C3421033   6.036   0.556  10.243 -0.4119  0.3507  0.1360
  183SLPC   H4X21034   5.948   0.617  10.215 -0.3564 -0.3156 -1.6270
  183SLPC   H4Y21035   5.991   0.457  10.265  1.2185 -0.9958 -2.0978
  183SLPC   C3521036   6.141   0.550  10.126 -0.5423 -0.3220 -0.4264
  183SLPC   H5X21037   6.227   0.483  10.146  0.1678  0.2086 -1.5762
  183SLPC   H5Y21038   6.173   0.654  10.103  0.4832 -0.4945  0.1566
  183SLPC   C3621039   6.077   0.500   9.993 -0.2573  0.7720  0.1433
  183SLPC   H6X21040   5.984   0.560   9.982 -0.5793  0.3009  0.2851
  183SLPC   H6Y21041   6.046   0.394  10.002 -1.6148  1.1476  0.1477
  183SLPC   C3721042   6.167   0.515   9.875 -0.0210 -0.0905  0.1639
  183SLPC   H7X21043   6.241   0.433   9.866  0.0929 -0.3224  2.4939
  183SLPC   H7Y21044   6.227   0.607   9.886 -1.6521  0.7219  3.8746
  183SLPC   C3821045   6.089   0.527   9.747 -0.0490 -0.0387  0.1092
  183SLPC   H8X21046   6.035   0.622   9.768  0.4980  0.7886 -1.9719
  183SLPC   H8Y21047   6.024   0.441   9.720 -0.4405 -0.4008  2.0852
  183SLPC   C3921048   6.187   0.552   9.628 -0.1317  0.2705  0.6297
  183SLPC   H9X21049   6.267   0.476   9.630  0.1194  0.5354  2.7606
  183SLPC   H9Y21050   6.242   0.648   9.639 -0.4893  0.4739  0.6627
  183SLPC  C31021051   6.127   0.545   9.488 -0.4627  0.1666 -0.4068
  183SLPC  H10X21052   6.051   0.625   9.474 -0.7357 -0.2408 -1.3252
  183SLPC  H10Y21053   6.075   0.448   9.476  1.7178 -1.0555 -0.4402
  183SLPC  C31121054   6.242   0.562   9.386  0.0861 -0.1375  0.2977
  183SLPC  H11X21055   6.328   0.497   9.413 -0.6683  0.0946  3.7139
  183SLPC  H11Y21056   6.292   0.658   9.411  0.2838 -0.3568  0.7522
  183SLPC  C31221057   6.192   0.547   9.241 -0.0443  0.1011  0.6959
  183SLPC  H12X21058   6.281   0.551   9.174 -1.7011  1.0680 -1.5726
  183SLPC  H12Y21059   6.118   0.628   9.231  1.3626  1.7398  2.7418
  183SLPC  C31321060   6.121   0.413   9.214  0.0529 -0.1156  0.4459
  183SLPC  H13X21061   6.023   0.410   9.266  0.1930  0.0163  0.7178
  183SLPC  H13Y21062   6.183   0.335   9.263 -1.3452 -1.3505  0.3136
  183SLPC  C31421063   6.122   0.371   9.065 -1.4161  0.2238  0.3264
  183SLPC  H14X21064   6.229   0.378   9.033 -2.0197  1.6841 -1.5957
  183SLPC  H14Y21065   6.068   0.442   8.998  0.4167  0.7476 -0.6843
  183SLPC  C31521066   6.085   0.223   9.032  0.8088  0.7191  0.3163
  183SLPC  H15X21067   6.158   0.158   9.085 -0.3195 -1.2888 -0.4629
  183SLPC  H15Y21068   6.091   0.197   8.924 -0.3838 -0.4361  0.4973
  183SLPC  C31621069   5.953   0.184   9.089  0.1253  0.4377  0.2601
  183SLPC  H16X21070   5.878   0.233   9.023  1.5597  0.6238 -1.2992
  183SLPC  H16Y21071   5.945   0.209   9.197 -0.0197  0.6917  0.1904
  183SLPC  C31721072   5.920   0.031   9.080  0.2603  0.3200  0.4235
  183SLPC  H17X21073   5.818   0.015   9.119 -0.0486  1.8779  0.3472
  183SLPC  H17Y21074   5.991  -0.011   9.155 -0.1509  0.5771  0.9622
  183SLPC  C31821075   5.941  -0.030   8.946 -0.3564 -0.2905 -0.4575
  183SLPC  H18X21076   5.884   0.036   8.877  0.3582  0.2814 -0.5158
  183SLPC  H18Y21077   5.915  -0.138   8.951  0.2863 -0.4219  0.2106
  183SLPC  H18Z21078   6.044  -0.035   8.903 -0.9732  0.5806 -2.1452
  184SLPC     N21079   1.455   3.422  10.915  0.4250 -0.0207  0.0369
  184SLPC   C1321080   1.435   3.288  10.977 -0.2154 -0.4434 -0.0837
  184SLPC  H13A21081   1.335   3.250  10.961 -0.7143  0.5450  0.5649
  184SLPC  H13B21082   1.508   3.219  10.937  2.5089  1.4462  1.2583
  184SLPC  H13C21083   1.457   3.301  11.082  0.4494  2.0612 -0.4692
  184SLPC   C1421084   1.588   3.462  10.968 -0.3375 -0.2768 -0.6849
  184SLPC  H14A21085   1.594   3.450  11.075  3.4387  0.2025 -0.7289
  184SLPC  H14B21086   1.662   3.397  10.924 -2.1020 -2.0936 -1.1001
  184SLPC  H14C21087   1.616   3.565  10.953  2.5500 -0.9004 -0.0606
  184SLPC   C1521088   1.353   3.518  10.972 -0.1019 -0.3184  0.3175
  184SLPC  H15A21089   1.355   3.530  11.079 -0.7817 -2.8700  0.6843
  184SLPC  H15B21090   1.373   3.613  10.925 -1.6646 -1.8339 -3.8828
  184SLPC  H15C21091   1.249   3.491  10.956 -0.6298  0.9122  1.4555
  184SLPC   C1221092   1.448   3.406  10.758 -0.5374  0.4851 -0.2204
  184SLPC  H12A21093   1.504   3.315  10.742 -1.6564 -0.4460  0.9526
  184SLPC  H12B21094   1.499   3.489  10.711  1.2306  1.6519  3.3454
  184SLPC   C1121095   1.308   3.396  10.692 -0.0024 -0.0785  0.3795
  184SLPC  H11A21096   1.260   3.321  10.759  2.3290 -1.1055  0.9911
  184SLPC  H11B21097   1.310   3.341  10.595 -0.3570 -0.4080  0.5544
  184SLPC     P21098   1.287   3.613  10.565  0.0537  0.5535  0.1321
  184SLPC   O1321099   1.239   3.746  10.592 -0.2716 -0.0697 -0.5789
  184SLPC   O1421100   1.434   3.592  10.548 -0.1869 -0.9002  0.3638
  184SLPC   O1221101   1.238   3.521  10.684  0.3343  0.4374  0.4254
  184SLPC   O1121102   1.206   3.565  10.444  0.0667 -0.7975 -0.1140
  184SLPC    C121103   1.064   3.529  10.456  0.1038  0.0502 -0.3619
  184SLPC    HA21104   1.057   3.429  10.502  0.8259 -0.7627 -1.9257
  184SLPC    HB21105   1.009   3.604  10.516  0.2485 -1.2678  1.4653
  184SLPC    C221106   0.983   3.492  10.324  0.5834  0.8975  0.5836
  184SLPC    HS21107   0.888   3.439  10.349 -0.0721  0.5082 -2.3410
  184SLPC   O2121108   1.069   3.417  10.235  0.1790 -0.1174 -0.3780
  184SLPC   C2121109   1.081   3.291  10.268 -0.2463  0.0471 -0.8576
  184SLPC   O2221110   1.014   3.232  10.355  0.3915  0.1279  0.5510
  184SLPC   C2221111   1.184   3.213  10.191 -0.6060  0.4967  0.1095
  184SLPC   H2R21112   1.255   3.286  10.146 -0.4233 -0.1206 -0.6205
  184SLPC   H2S21113   1.239   3.145  10.260 -1.6329  0.0438  0.5062
  184SLPC    C321114   0.943   3.624  10.248 -0.4577  0.1802 -0.0288
  184SLPC    HX21115   1.040   3.668  10.215 -0.8488 -0.0624 -1.5429
  184SLPC    HY21116   0.888   3.679  10.327  0.4315 -1.3828  1.7689
  184SLPC   O3121117   0.860   3.583  10.140 -0.5624  0.0469 -0.5553
  184SLPC   C3121118   0.891   3.642  10.022  0.6766  0.6405  0.6215
  184SLPC   O3221119   0.970   3.733  10.006 -0.2548 -0.2130  0.3070
  184SLPC   C3221120   0.808   3.563   9.913 -0.1397 -0.4340  0.8786
  184SLPC   H2X21121   0.700   3.579   9.930 -0.8361 -1.6394 -1.7965
  184SLPC   H2Y21122   0.845   3.460   9.935 -2.6702 -1.1378  2.1375
  184SLPC   C2321123   1.142   3.115  10.079  0.6149 -0.6845 -0.9532
  184SLPC   H3R21124   1.092   3.032  10.132 -0.3446  0.5703  0.1694
  184SLPC   H3S21125   1.230   3.078  10.022  0.4386 -0.6572 -1.2464
  184SLPC   C2421126   1.054   3.176   9.975 -0.4135 -0.5226 -0.3685
  184SLPC   H4R21127   1.089   3.279   9.951 -0.6257  0.0742  1.7435
  184SLPC   H4S21128   0.956   3.189  10.026  0.1456 -3.4825  1.7457
  184SLPC   C2521129   1.036   3.093   9.846 -0.0784 -0.4989  0.0000
  184SLPC   H5R21130   0.957   3.016   9.858 -0.1976 -0.5459 -1.0304
  184SLPC   H5S21131   1.136   3.049   9.826  0.4898  0.9684 -0.4920
  184SLPC   C2621132   0.991   3.180   9.728 -0.8231  0.3764  0.6486
  184SLPC   H6R21133   1.045   3.277   9.740  2.3822 -1.0963 -0.8525
  184SLPC   H6S21134   0.886   3.212   9.744 -0.4153  2.3343 -0.3226
  184SLPC   C2721135   1.008   3.113   9.592 -0.5039  0.8904 -1.0865
  184SLPC   H7R21136   0.953   3.017   9.586  1.5663 -0.4189 -0.3670
  184SLPC   H7S21137   1.113   3.076   9.585 -1.4056 -1.9724 -0.7141
  184SLPC   C2821138   0.943   3.206   9.488 -0.3772 -0.4153  0.1074
  184SLPC   H8R21139   0.970   3.312   9.507 -0.3594 -0.7327  2.0281
  184SLPC   H8S21140   0.834   3.190   9.506 -0.7045 -0.2140 -1.5015
  184SLPC   C2921141   0.980   3.155   9.347 -0.1975  0.7597 -0.1926
  184SLPC   H9R21142   1.061   3.208   9.296  0.2243  0.3345  0.0278
  184SLPC  C21021143   0.904   3.053   9.288  0.1757 -0.1442 -0.6287
  184SLPC  H10R21144   0.943   3.022   9.190 -1.6845 -0.9783 -1.1562
  184SLPC  C21121145   0.790   2.972   9.342  0.7838 -0.0173 -0.2446
  184SLPC  H11R21146   0.772   2.975   9.452 -1.3878  0.5309 -0.5692
  184SLPC  H11S21147   0.825   2.869   9.321  1.6783  0.5664 -1.7613
  184SLPC  C21221148   0.666   2.979   9.262 -0.1226  0.1295 -0.3204
  184SLPC  H12R21149   0.609   3.073   9.272  1.1477  0.7493  1.5684
  184SLPC  C21321150   0.613   2.892   9.174  0.6422  0.7006 -0.4046
  184SLPC  H13R21151   0.524   2.926   9.119 -0.4585  0.6840  1.3013
  184SLPC  C21421152   0.669   2.760   9.137  0.0079  0.4857  0.4006
  184SLPC  H14R21153   0.780   2.760   9.132  0.0842  2.1821  1.4690
  184SLPC  H14S21154   0.629   2.726   9.039 -0.5137 -0.4214  0.9105
  184SLPC  C21521155   0.622   2.647   9.236 -0.2406 -0.2948  0.0286
  184SLPC  H15R21156   0.511   2.638   9.233 -0.2941  0.5887 -0.6942
  184SLPC  H15S21157   0.650   2.674   9.340  2.7930 -0.1889 -0.7098
  184SLPC  C21621158   0.687   2.511   9.197 -0.2356 -0.4742 -0.1526
  184SLPC  H16R21159   0.795   2.537   9.193 -0.2049  0.1026  2.4560
  184SLPC  H16S21160   0.643   2.494   9.096  0.8927  0.1648 -0.7744
  184SLPC  C21721161   0.677   2.390   9.292 -0.2207  0.2942  0.3162
  184SLPC  H17R21162   0.756   2.400   9.370 -0.9143 -0.2768  1.0974
  184SLPC  H17S21163   0.700   2.299   9.232  1.1250 -0.1442  1.4393
  184SLPC  C21821164   0.549   2.368   9.363 -0.3239  0.3123 -0.6015
  184SLPC  H18R21165   0.529   2.456   9.427  0.3545 -0.1643  0.2944
  184SLPC  H18S21166   0.555   2.269   9.414 -2.6226 -0.8450 -2.3573
  184SLPC  H18T21167   0.463   2.347   9.296 -0.2012 -1.5497 -0.2266
  184SLPC   C3321168   0.851   3.613   9.769  0.0056 -0.0322  0.2190
  184SLPC   H3X21169   0.960   3.637   9.765 -0.3647  1.5972 -1.6446
  184SLPC   H3Y21170   0.807   3.714   9.753 -1.7652 -0.3294  2.6694
  184SLPC   C3421171   0.792   3.535   9.651  0.3911 -0.4263 -0.6665
  184SLPC   H4X21172   0.686   3.512   9.672  0.3311 -1.4241 -1.9560
  184SLPC   H4Y21173   0.852   3.442   9.634 -1.0320 -1.3537 -0.7529
  184SLPC   C3521174   0.797   3.616   9.526 -0.0851  0.2433  0.5187
  184SLPC   H5X21175   0.899   3.660   9.514 -0.5270  1.5380  1.2734
  184SLPC   H5Y21176   0.737   3.709   9.532 -1.7591 -0.9134  3.4372
  184SLPC   C3621177   0.758   3.537   9.400  0.4762 -0.1359 -0.0440
  184SLPC   H6X21178   0.649   3.530   9.415  0.6312 -0.8620  0.7977
  184SLPC   H6Y21179   0.802   3.435   9.408  0.7942 -0.0644 -0.7942
  184SLPC   C3721180   0.801   3.597   9.266  0.2920  0.2208 -0.3228
  184SLPC   H7X21181   0.907   3.630   9.270  1.0930 -1.9972 -1.3091
  184SLPC   H7Y21182   0.733   3.683   9.248  0.3520  0.7487  1.7923
  184SLPC   C3821183   0.794   3.493   9.157  0.6209  0.2837  0.7320
  184SLPC   H8X21184   0.693   3.447   9.142  0.3230  1.3527 -0.6918
  184SLPC   H8Y21185   0.869   3.420   9.193 -1.8752 -1.4477  2.8902
  184SLPC   C3921186   0.827   3.542   9.013  0.0320  0.1127  0.3667
  184SLPC   H9X21187   0.927   3.591   9.018 -0.1375  0.7685 -1.7300
  184SLPC   H9Y21188   0.751   3.620   8.991  0.3997  0.2601 -0.4427
  184SLPC  C31021189   0.831   3.420   8.919 -0.4729 -0.4817 -0.1853
  184SLPC  H10X21190   0.881   3.331   8.964  2.5949 -0.0381 -2.4053
  184SLPC  H10Y21191   0.893   3.449   8.831  0.8269 -1.8922  0.2228
  184SLPC  C31121192   0.695   3.377   8.863 -0.0644 -0.0033 -0.5671
  184SLPC  H11X21193   0.678   3.442   8.775  3.3238 -0.7725 -1.9617
  184SLPC  H11Y21194   0.615   3.387   8.940  2.2252 -1.0156  2.1282
  184SLPC  C31221195   0.706   3.231   8.806  0.5889  0.7364  0.0384
  184SLPC  H12X21196   0.798   3.232   8.743  0.3241  2.7600 -0.4060
  184SLPC  H12Y21197   0.618   3.224   8.738  0.5851 -0.2172  0.1267
  184SLPC  C31321198   0.714   3.120   8.904 -0.2762 -0.1933 -0.3731
  184SLPC  H13X21199   0.619   3.109   8.961 -1.5472  1.0389 -2.1447
  184SLPC  H13Y21200   0.796   3.144   8.976  0.2092  0.3962 -1.1017
  184SLPC  C31421201   0.739   2.991   8.834 -0.8961  0.2226  0.2015
  184SLPC  H14X21202   0.674   2.975   8.744 -0.6958 -1.0374  0.2601
  184SLPC  H14Y21203   0.711   2.903   8.896  1.8840 -2.2159 -1.7335
  184SLPC  C31521204   0.887   2.955   8.785  0.3097 -0.2763  0.2525
  184SLPC  H15X21205   0.962   2.971   8.865  2.6877  0.3015 -1.9548
  184SLPC  H15Y21206   0.920   3.023   8.704  0.7567 -0.3242  0.3897
  184SLPC  C31621207   0.902   2.815   8.739  0.4373 -0.0674 -0.2601
  184SLPC  H16X21208   0.808   2.785   8.687  1.1855 -0.6068 -1.3518
  184SLPC  H16Y21209   0.901   2.745   8.825 -3.2480  0.0381 -0.0474
  184SLPC  C31721210   1.021   2.790   8.652 -0.3499  0.7430 -0.1727
  184SLPC  H17X21211   1.018   2.857   8.563 -0.9533 -0.1662 -0.8482
  184SLPC  H17Y21212   1.025   2.686   8.613 -1.4345 -0.1244  1.8585
  184SLPC  C31821213   1.153   2.801   8.732  0.3495 -0.1554 -0.1084
  184SLPC  H18X21214   1.177   2.907   8.753 -0.0929 -0.0476 -0.1407
  184SLPC  H18Y21215   1.238   2.761   8.673  0.9500 -0.4770  0.9367
  184SLPC  H18Z21216   1.158   2.752   8.832  0.2565 -0.2411 -0.1448
  185SLPC     N21217   6.298   5.492   6.392 -0.0152 -0.7329  0.6163
  185SLPC   C1321218   6.365   5.572   6.286  0.1972  0.0652 -0.8121
  185SLPC  H13A21219   6.467   5.541   6.270  0.2194  0.0395 -0.6267
  185SLPC  H13B21220   6.307   5.560   6.196 -1.0004 -1.2936  0.0869
  185SLPC  H13C21221   6.361   5.678   6.303  1.7457  0.2374 -1.3417
  185SLPC   C1421222   6.329   5.342   6.384  0.8877 -0.4577  0.0197
  185SLPC  H14A21223   6.301   5.300   6.288  0.9620 -0.7169  0.1110
  185SLPC  H14B21224   6.435   5.319   6.391  0.9697 -0.6252 -1.3369
  185SLPC  H14C21225   6.268   5.284   6.451  1.0590  0.2158  0.7791
  185SLPC   C1521226   6.150   5.514   6.385 -0.7877 -0.1877 -1.0105
  185SLPC  H15A21227   6.128   5.610   6.340 -0.7030  0.0559 -0.5493
  185SLPC  H15B21228   6.098   5.445   6.322 -2.7164  0.3221 -0.0632
  185SLPC  H15C21229   6.103   5.504   6.482  1.6565  0.6555  0.3410
  185SLPC   C1221230   6.346   5.547   6.525 -0.6873 -0.6346 -0.2659
  185SLPC  H12A21231   6.449   5.517   6.543 -0.0303  1.8331  0.4112
  185SLPC  H12B21232   6.284   5.508   6.605 -0.4662  0.6489  0.5651
  185SLPC   C1121233   6.360   5.702   6.554  0.0354 -0.2427 -0.3690
  185SLPC  H11A21234   6.385   5.717   6.661  1.6103  0.0859 -0.7637
  185SLPC  H11B21235   6.262   5.749   6.530 -0.8464 -1.6311  0.3755
  185SLPC     P21236   6.623   5.736   6.525  0.2317 -0.0681  0.1813
  185SLPC   O1321237   6.676   5.617   6.467  0.5225 -0.3296 -0.4732
  185SLPC   O1421238   6.694   5.870   6.493 -0.2541  0.9308 -0.2944
  185SLPC   O1221239   6.469   5.751   6.478  0.8271 -0.1399 -0.3784
  185SLPC   O1121240   6.616   5.720   6.678  0.3881 -0.6523 -0.1796
  185SLPC    C121241   6.607   5.834   6.763 -0.6930 -0.1832 -0.8340
  185SLPC    HA21242   6.632   5.931   6.715  2.1092 -1.1665 -1.5546
  185SLPC    HB21243   6.503   5.851   6.797 -0.6121 -0.6740 -0.3257
  185SLPC    C221244   6.698   5.818   6.890 -0.0479 -0.2546 -0.2831
  185SLPC    HS21245   6.797   5.808   6.841  0.4310 -1.4043  0.8683
  185SLPC   O2121246   6.667   5.697   6.962  0.6726  0.0654  0.3104
  185SLPC   C2121247   6.762   5.647   7.037  0.2645  0.6315 -0.7205
  185SLPC   O2221248   6.868   5.708   7.057 -0.1806 -0.0602 -0.0530
  185SLPC   C2221249   6.717   5.510   7.090  0.5779 -0.9003  0.0111
  185SLPC   H2R21250   6.607   5.518   7.087  0.6564  0.1481 -1.8342
  185SLPC   H2S21251   6.742   5.428   7.020  1.0096  0.1967 -1.1599
  185SLPC    C321252   6.696   5.955   6.976 -0.1869  0.0828 -0.1580
  185SLPC    HX21253   6.742   6.038   6.919  0.3666 -0.5751 -0.6922
  185SLPC    HY21254   6.752   5.954   7.072 -1.1238  2.7926  0.5095
  185SLPC   O3121255   6.558   6.005   6.998 -0.2556 -0.3323 -0.0237
  185SLPC   C3121256   6.510   5.961   7.115 -0.5675 -0.7613  0.0044
  185SLPC   O3221257   6.565   5.880   7.182 -0.1137 -0.6780 -0.4115
  185SLPC   C3221258   6.373   6.024   7.142  0.0070 -0.3643 -0.0912
  185SLPC   H2X21259   6.329   5.962   7.223 -1.6054 -0.1060 -0.7385
  185SLPC   H2Y21260   6.317   6.008   7.048  2.3298 -2.9122 -1.1694
  185SLPC   C2321261   6.756   5.474   7.240  0.1618 -0.0930  0.4317
  185SLPC   H3R21262   6.703   5.548   7.302  0.3063  0.8195 -0.5060
  185SLPC   H3S21263   6.865   5.495   7.244  0.2100 -0.5365  2.2492
  185SLPC   C2421264   6.733   5.330   7.281  0.1307 -0.0114 -0.2090
  185SLPC   H4R21265   6.823   5.277   7.242  0.9289  1.4949 -0.4578
  185SLPC   H4S21266   6.633   5.291   7.251 -0.4709  0.9854  0.4643
  185SLPC   C2521267   6.734   5.320   7.431 -0.1635  0.0154  0.4558
  185SLPC   H5R21268   6.647   5.376   7.473  1.2095  0.0578  3.4530
  185SLPC   H5S21269   6.819   5.387   7.454 -0.8219  1.4102 -0.9820
  185SLPC   C2621270   6.732   5.181   7.480  0.0167  0.3190  0.5697
  185SLPC   H6R21271   6.838   5.147   7.484 -0.5119 -1.4073  1.0691
  185SLPC   H6S21272   6.677   5.116   7.408  0.5849  1.9952 -1.4591
  185SLPC   C2721273   6.674   5.167   7.628 -0.0459  0.2103 -0.1745
  185SLPC   H7R21274   6.686   5.062   7.663 -0.5738 -0.3200 -1.5157
  185SLPC   H7S21275   6.564   5.184   7.619 -0.1465 -0.7793 -0.9690
  185SLPC   C2821276   6.733   5.256   7.741  0.0224 -0.0096  0.1982
  185SLPC   H8R21277   6.734   5.361   7.705 -0.9907  0.7972  2.3499
  185SLPC   H8S21278   6.837   5.223   7.759  0.0935  0.7173  1.1791
  185SLPC   C2921279   6.651   5.244   7.873  0.5874 -0.0939 -0.6747
  185SLPC   H9R21280   6.631   5.141   7.906 -2.3048  0.5921 -0.0129
  185SLPC  C21021281   6.578   5.336   7.940 -0.1578  0.0947 -0.1337
  185SLPC  H10R21282   6.532   5.296   8.032  1.1752  0.5874  0.7883
  185SLPC  C21121283   6.566   5.481   7.907 -0.6006 -0.4462  0.5269
  185SLPC  H11R21284   6.462   5.518   7.924 -0.2937  1.8509 -1.8326
  185SLPC  H11S21285   6.571   5.496   7.797 -1.5702  0.4060  0.5756
  185SLPC  C21221286   6.662   5.572   7.979  0.2962  0.3906  0.1562
  185SLPC  H12R21287   6.747   5.604   7.916 -0.3284 -1.8855 -2.0391
  185SLPC  C21321288   6.652   5.601   8.110  0.4100 -0.1003 -1.0655
  185SLPC  H13R21289   6.718   5.681   8.147  0.6575  0.1527 -2.0120
  185SLPC  C21421290   6.552   5.552   8.213  0.3410 -0.5004  0.8459
  185SLPC  H14R21291   6.583   5.463   8.271 -0.2788 -1.1259  0.2252
  185SLPC  H14S21292   6.457   5.546   8.156  1.8128  1.2396 -2.0108
  185SLPC  C21521293   6.532   5.664   8.312 -0.4438  0.1230  0.1809
  185SLPC  H15R21294   6.517   5.762   8.263 -0.9084 -0.2512 -0.4410
  185SLPC  H15S21295   6.631   5.676   8.362 -0.9836 -0.0904  1.3466
  185SLPC  C21621296   6.423   5.624   8.412  0.8689 -0.6493 -0.6011
  185SLPC  H16R21297   6.415   5.515   8.426  0.8844 -0.3520  2.5515
  185SLPC  H16S21298   6.330   5.648   8.357 -0.2422 -1.3349  0.9162
  185SLPC  C21721299   6.416   5.714   8.538  0.1140 -0.1180 -0.4301
  185SLPC  H17R21300   6.405   5.818   8.502 -0.9801  0.3756  1.2247
  185SLPC  H17S21301   6.518   5.701   8.578 -0.9370  2.1951  3.4883
  185SLPC  C21821302   6.315   5.684   8.640  0.4740 -0.2893 -0.5913
  185SLPC  H18R21303   6.298   5.779   8.695  1.3623 -0.8461  0.6857
  185SLPC  H18S21304   6.337   5.601   8.710 -0.8755  0.4404  0.7286
  185SLPC  H18T21305   6.223   5.647   8.590 -0.2031 -0.5509  0.8015
  185SLPC   C3321306   6.372   6.174   7.181  0.0160 -0.2156  0.7158
  185SLPC   H3X21307   6.454   6.217   7.119  0.2449  0.7558  1.6540
  185SLPC   H3Y21308   6.405   6.185   7.286  1.8224  0.8748  0.0827
  185SLPC   C3421309   6.250   6.252   7.148  0.0726 -0.9002 -0.1881
  185SLPC   H4X21310   6.238   6.263   7.038 -0.7817  2.9810  0.1487
  185SLPC   H4Y21311   6.253   6.355   7.191 -0.6593 -1.8975  2.4135
  185SLPC   C3521312   6.131   6.182   7.208  0.5298  0.2752 -0.2179
  185SLPC   H5X21313   6.133   6.076   7.173  1.2360  0.0352  0.5060
  185SLPC   H5Y21314   6.042   6.225   7.158  1.0726  1.4627 -0.1916
  185SLPC   C3621315   6.112   6.212   7.356 -0.5507 -0.2070 -0.2919
  185SLPC   H6X21316   6.110   6.322   7.370 -0.2547 -0.2636  0.2106
  185SLPC   H6Y21317   6.196   6.171   7.415  0.0084 -0.6201 -1.3470
  185SLPC   C3721318   5.973   6.146   7.407 -1.2579 -0.8409 -0.0908
  185SLPC   H7X21319   6.005   6.040   7.412  0.4842 -0.3675 -0.2964
  185SLPC   H7Y21320   5.888   6.159   7.337 -1.6607 -1.1039  0.3406
  185SLPC   C3821321   5.940   6.206   7.544  0.6001 -0.5621 -0.2705
  185SLPC   H8X21322   5.834   6.178   7.564  0.8474 -0.0829  2.0166
  185SLPC   H8Y21323   5.944   6.317   7.544  1.8960 -0.5941  0.4677
  185SLPC   C3921324   6.015   6.145   7.659  0.2959  0.2568  0.9683
  185SLPC   H9X21325   6.120   6.179   7.646 -0.3515  2.0906  0.1564
  185SLPC   H9Y21326   6.022   6.034   7.658 -2.0811  0.0255 -0.8834
  185SLPC  C31021327   5.963   6.184   7.795 -0.5865 -0.4208  0.8808
  185SLPC  H10X21328   5.944   6.294   7.793  0.2984 -0.2229 -2.5981
  185SLPC  H10Y21329   6.047   6.174   7.867  1.2456  0.0452 -1.0597
  185SLPC  C31121330   5.840   6.109   7.849 -0.3619  0.3191 -0.3438
  185SLPC  H11X21331   5.830   6.017   7.787 -1.1289  1.6054 -2.2005
  185SLPC  H11Y21332   5.749   6.166   7.823  1.2658  3.4727  0.3535
  185SLPC  C31221333   5.850   6.079   7.998  0.2773  0.4825 -0.6034
  185SLPC  H12X21334   5.949   6.034   8.018 -0.7208 -1.7111 -0.3219
  185SLPC  H12Y21335   5.771   6.011   8.036  0.7300 -0.4230 -1.2766
  185SLPC  C31321336   5.845   6.207   8.090  0.3954  0.6202  0.8507
  185SLPC  H13X21337   5.755   6.271   8.080  1.2206  1.9050  1.3847
  185SLPC  H13Y21338   5.926   6.278   8.063  0.1273  1.1091  1.3126
  185SLPC  C31421339   5.870   6.188   8.239  0.4618 -0.2601 -0.7611
  185SLPC  H14X21340   5.850   6.281   8.296  0.8315 -1.4167  1.3670
  185SLPC  H14Y21341   5.979   6.165   8.247  0.1779 -1.5939 -0.4101
  185SLPC  C31521342   5.792   6.069   8.306  0.4506 -0.3742 -0.8102
  185SLPC  H15X21343   5.830   5.973   8.263 -1.4441 -1.8801  0.6597
  185SLPC  H15Y21344   5.685   6.070   8.276 -0.4912 -0.6398  2.2615
  185SLPC  C31621345   5.786   6.075   8.463 -0.3276  0.4560 -0.7127
  185SLPC  H16X21346   5.782   6.183   8.489 -0.1924  0.1838  0.4780
  185SLPC  H16Y21347   5.883   6.037   8.500 -1.4804 -2.4232 -0.4141
  185SLPC  C31721348   5.677   5.992   8.520 -0.1281  0.3363 -0.5681
  185SLPC  H17X21349   5.577   6.021   8.481 -0.2032 -0.2551 -0.8172
  185SLPC  H17Y21350   5.693   6.007   8.629  2.2424  0.3146 -0.8500
  185SLPC  C31821351   5.705   5.843   8.503 -0.4718  0.0590 -0.8177
  185SLPC  H18X21352   5.706   5.808   8.397 -0.5711 -2.8365  0.0523
  185SLPC  H18Y21353   5.642   5.776   8.565 -0.8619  0.7551 -0.4527
  185SLPC  H18Z21354   5.800   5.819   8.555 -0.4903  1.0522 -0.3089
  186SLPC     N21355   0.676   2.560   5.917  0.8144 -0.0104  0.3744
  186SLPC   C1321356   0.616   2.422   5.883  0.0290  0.1332  0.0108
  186SLPC  H13A21357   0.576   2.367   5.967 -1.3212 -0.9226 -1.2491
  186SLPC  H13B21358   0.541   2.431   5.805 -1.0138 -0.1879  0.9484
  186SLPC  H13C21359   0.690   2.356   5.839 -0.3103 -0.2977  0.0749
  186SLPC   C1421360   0.562   2.638   5.970 -0.0891  0.2128 -0.5967
  186SLPC  H14A21361   0.486   2.659   5.896  1.6205  1.3015 -2.1221
  186SLPC  H14B21362   0.521   2.580   6.052 -1.1640  0.3944 -0.9837
  186SLPC  H14C21363   0.600   2.733   6.005 -2.9441  1.8334 -1.5481
  186SLPC   C1521364   0.727   2.628   5.794 -0.1952 -0.0986 -0.0345
  186SLPC  H15A21365   0.660   2.614   5.711  1.0545 -0.0143 -1.0754
  186SLPC  H15B21366   0.758   2.728   5.821 -0.3285 -0.2423  0.6804
  186SLPC  H15C21367   0.821   2.578   5.779  1.0707  1.2434  2.6778
  186SLPC   C1221368   0.799   2.551   6.016 -0.1565 -0.4700  0.0115
  186SLPC  H12A21369   0.877   2.489   5.973 -1.0129 -0.7998 -1.1392
  186SLPC  H12B21370   0.758   2.506   6.105 -0.7119 -0.9861 -0.4925
  186SLPC   C1121371   0.868   2.678   6.067  0.0988 -0.4153  0.1737
  186SLPC  H11A21372   0.914   2.732   5.982  0.2227 -0.5604  0.1492
  186SLPC  H11B21373   0.943   2.636   6.137 -2.7435 -2.8911  1.9964
  186SLPC     P21374   0.753   2.911   6.122 -0.3028  0.1385 -0.4058
  186SLPC   O1321375   0.861   2.978   6.195 -0.5275 -0.0948 -0.5403
  186SLPC   O1421376   0.741   2.949   5.984  0.1626 -0.1157  0.3231
  186SLPC   O1221377   0.771   2.759   6.142  0.0149 -0.0730  0.4073
  186SLPC   O1121378   0.619   2.945   6.198 -0.0278  0.4611 -0.5225
  186SLPC    C121379   0.520   2.857   6.245 -0.1117 -0.0595 -0.5564
  186SLPC    HA21380   0.433   2.858   6.176  0.7514  1.6730 -1.6814
  186SLPC    HB21381   0.569   2.759   6.260 -0.0383  0.3520  2.4540
  186SLPC    C221382   0.470   2.904   6.383  0.0910 -0.4808  0.3165
  186SLPC    HS21383   0.430   3.006   6.363  0.8793  0.0272  1.2394
  186SLPC   O2121384   0.576   2.909   6.478 -0.2311  0.5694  0.0903
  186SLPC   C2121385   0.562   3.010   6.560  0.4270  0.3036  0.0429
  186SLPC   O2221386   0.476   3.099   6.563  0.3469 -0.4597  0.2116
  186SLPC   C2221387   0.687   3.019   6.647  0.3368 -1.0406 -0.6736
  186SLPC   H2R21388   0.687   2.936   6.722  0.5663 -0.0080  0.4955
  186SLPC   H2S21389   0.772   3.001   6.578  2.4264  0.5632  1.3615
  186SLPC    C321390   0.351   2.828   6.435 -0.3863 -0.6716  0.1985
  186SLPC    HX21391   0.374   2.720   6.425  1.1435 -0.3637  0.2044
  186SLPC    HY21392   0.274   2.844   6.356 -0.7951 -2.5196  0.1743
  186SLPC   O3121393   0.307   2.865   6.571  0.2476  0.3300 -0.0698
  186SLPC   C3121394   0.337   2.782   6.665  0.5690  0.0715 -0.4818
  186SLPC   O3221395   0.376   2.666   6.659  0.1220  0.3227 -0.0861
  186SLPC   C3221396   0.283   2.841   6.796 -0.5294 -0.1591  0.0600
  186SLPC   H2X21397   0.172   2.842   6.803 -0.4994  1.3931  0.7504
  186SLPC   H2Y21398   0.311   2.949   6.796 -1.0921 -0.0012 -1.0380
  186SLPC   C2321399   0.706   3.155   6.718 -0.8738 -0.3677 -0.4849
  186SLPC   H3R21400   0.684   3.232   6.641 -0.6714  0.2347  0.0522
  186SLPC   H3S21401   0.815   3.165   6.736 -0.8607  3.1489 -1.8883
  186SLPC   C2421402   0.619   3.169   6.844  0.0603  0.6671 -0.4388
  186SLPC   H4R21403   0.516   3.137   6.818  0.7217 -0.0025 -2.4090
  186SLPC   H4S21404   0.608   3.276   6.872  1.4724  1.1871 -1.7033
  186SLPC   C2521405   0.674   3.089   6.968 -0.4956 -0.3509 -0.2630
  186SLPC   H5R21406   0.701   2.986   6.936  0.2896 -0.4937  0.8141
  186SLPC   H5S21407   0.590   3.096   7.040  2.1526  0.8345  2.9345
  186SLPC   C2621408   0.795   3.156   7.031 -0.2843 -0.9317 -0.6464
  186SLPC   H6R21409   0.781   3.253   7.084  1.8956  0.1699 -1.9547
  186SLPC   H6S21410   0.879   3.178   6.962 -1.3008  0.0608 -1.6062
  186SLPC   C2721411   0.855   3.067   7.137  0.3589  0.4697  0.1745
  186SLPC   H7R21412   0.939   3.111   7.194  0.5617  1.5216 -0.8820
  186SLPC   H7S21413   0.900   2.983   7.080  0.4596  0.8764 -0.3469
  186SLPC   C2821414   0.749   3.025   7.242 -0.0671  0.2585 -0.4830
  186SLPC   H8R21415   0.808   2.965   7.315  2.6172  0.3156 -2.4183
  186SLPC   H8S21416   0.672   2.957   7.198  0.2616  1.0341 -2.3751
  186SLPC   C2921417   0.673   3.138   7.310  0.0439 -0.4597  0.2749
  186SLPC   H9R21418   0.615   3.200   7.241  0.4955  0.8554  1.0507
  186SLPC  C21021419   0.675   3.171   7.444  1.2140 -0.1686 -0.2194
  186SLPC  H10R21420   0.616   3.261   7.472  1.1394  0.2611 -1.6531
  186SLPC  C21121421   0.748   3.105   7.555  0.1057 -0.5216  0.2623
  186SLPC  H11R21422   0.853   3.095   7.520 -0.3804  1.4700 -2.0707
  186SLPC  H11S21423   0.709   3.003   7.573  0.6428 -1.3365 -2.6494
  186SLPC  C21221424   0.738   3.191   7.679  0.0143  0.3789 -0.7377
  186SLPC  H12R21425   0.731   3.298   7.656 -0.7990  1.0233  2.0473
  186SLPC  C21321426   0.767   3.153   7.801 -0.4430  0.3287  0.1356
  186SLPC  H13R21427   0.769   3.233   7.877 -1.3096  0.1267  0.3823
  186SLPC  C21421428   0.815   3.021   7.850  0.6487  0.2408  0.3272
  186SLPC  H14R21429   0.914   3.028   7.900 -0.5405  2.1713  2.6312
  186SLPC  H14S21430   0.839   2.951   7.767  0.4735 -1.3607  1.5958
  186SLPC  C21521431   0.711   2.951   7.946 -1.4917 -0.1959  0.6500
  186SLPC  H15R21432   0.747   2.850   7.972  0.6259  0.2858 -0.2333
  186SLPC  H15S21433   0.613   2.940   7.894 -2.1542  1.6931  1.4004
  186SLPC  C21621434   0.689   3.027   8.084 -0.0269  0.0194  0.2030
  186SLPC  H16R21435   0.631   2.967   8.158 -0.7033 -0.9342 -1.0615
  186SLPC  H16S21436   0.629   3.118   8.061  0.2408 -0.1389 -1.1986
  186SLPC  C21721437   0.823   3.071   8.147 -0.2687  0.1345 -0.1395
  186SLPC  H17R21438   0.849   3.168   8.099 -0.1500 -0.5379 -1.4978
  186SLPC  H17S21439   0.893   2.987   8.128 -1.1515 -1.1018  1.7656
  186SLPC  C21821440   0.821   3.105   8.304  0.1837  0.0035  0.7647
  186SLPC  H18R21441   0.746   3.186   8.314  1.5836  1.1517  2.4532
  186SLPC  H18S21442   0.919   3.126   8.351  0.6954 -1.2607  0.3108
  186SLPC  H18T21443   0.779   3.008   8.340 -0.8237  0.5645  1.1345
  186SLPC   C3321444   0.350   2.783   6.927 -0.3112 -0.1957 -0.5383
  186SLPC   H3X21445   0.451   2.830   6.920 -0.7157  0.8715  0.3371
  186SLPC   H3Y21446   0.351   2.672   6.924 -2.2280 -0.3389  1.4117
  186SLPC   C3421447   0.291   2.833   7.062 -0.0363  0.5134  1.0417
  186SLPC   H4X21448   0.320   2.766   7.146 -1.3533 -0.6311  0.6223
  186SLPC   H4Y21449   0.180   2.834   7.049  0.1657  3.6481 -1.6044
  186SLPC   C3521450   0.336   2.973   7.105  0.7411  0.6706 -0.5053
  186SLPC   H5X21451   0.315   3.052   7.030  0.2158  0.7611 -0.2632
  186SLPC   H5Y21452   0.447   2.969   7.113  0.6882 -2.8712 -0.1229
  186SLPC   C3621453   0.284   3.017   7.247 -0.0707  0.2683 -0.2342
  186SLPC   H6X21454   0.178   2.984   7.253 -0.7135  2.0596 -0.9301
  186SLPC   H6Y21455   0.271   3.126   7.267 -2.6033 -0.0915  0.3959
  186SLPC   C3721456   0.368   2.951   7.362  0.0116  0.4042 -0.0465
  186SLPC   H7X21457   0.471   2.991   7.368  1.3666 -2.5355 -1.6125
  186SLPC   H7Y21458   0.380   2.843   7.337 -1.5078 -0.5152  2.7470
  186SLPC   C3821459   0.302   2.965   7.496  0.1779 -0.3965 -0.0877
  186SLPC   H8X21460   0.193   2.942   7.501  0.2086 -0.5343 -0.0259
  186SLPC   H8Y21461   0.309   3.071   7.529 -0.0216 -1.2335  2.9992
  186SLPC   C3921462   0.363   2.888   7.611 -0.5444 -0.2853  0.5430
  186SLPC   H9X21463   0.467   2.922   7.630  0.1080 -1.4415 -0.7787
  186SLPC   H9Y21464   0.368   2.782   7.578  1.7855  0.0730 -0.4607
  186SLPC  C31021465   0.285   2.907   7.741 -0.3126  0.4011  0.1999
  186SLPC  H10X21466   0.337   2.859   7.827 -0.6706 -1.2492 -0.4479
  186SLPC  H10Y21467   0.182   2.865   7.734 -0.1461 -0.0671  0.4758
  186SLPC  C31121468   0.254   3.051   7.774 -0.0135 -0.3103 -1.2465
  186SLPC  H11X21469   0.186   3.100   7.701 -0.1318  1.0788 -0.2334
  186SLPC  H11Y21470   0.343   3.118   7.782 -1.7963  2.5920 -3.5221
  186SLPC  C31221471   0.175   3.063   7.905  0.1547  0.3414  0.0060
  186SLPC  H12X21472   0.084   2.999   7.910  0.1739  0.2585 -0.6718
  186SLPC  H12Y21473   0.154   3.170   7.924 -0.7713  0.1034  0.3684
  186SLPC  C31321474   0.262   3.019   8.021 -0.3663 -0.0908 -0.3987
  186SLPC  H13X21475   0.358   3.074   8.025 -1.0253  1.0791  0.2885
  186SLPC  H13Y21476   0.280   2.910   8.016 -3.8798 -0.7334 -3.0240
  186SLPC  C31421477   0.180   3.043   8.154  0.2355  0.5899  0.9041
  186SLPC  H14X21478   0.096   2.971   8.154  2.3119 -1.9871  0.5757
  186SLPC  H14Y21479   0.150   3.150   8.154 -1.0016  0.3505 -2.0816
  186SLPC  C31521480   0.263   3.006   8.279 -0.5643 -0.2715 -0.3479
  186SLPC  H15X21481   0.329   2.919   8.259 -0.6696 -1.2888  3.0957
  186SLPC  H15Y21482   0.195   2.983   8.363 -1.7960 -0.6915 -1.4384
  186SLPC  C31621483   0.352   3.116   8.335  0.2854  0.4434 -0.3917
  186SLPC  H16X21484   0.302   3.207   8.373  0.9354  0.8613 -0.5211
  186SLPC  H16Y21485   0.410   3.147   8.246  0.7078 -1.7705 -0.9592
  186SLPC  C31721486   0.463   3.056   8.426 -0.1900 -0.0211 -0.6199
  186SLPC  H17X21487   0.539   3.137   8.432  0.1212 -0.2658 -1.2703
  186SLPC  H17Y21488   0.503   2.961   8.386  0.7553 -0.4448  1.1762
  186SLPC  C31821489   0.406   3.035   8.569  0.4624 -0.3448  0.9745
  186SLPC  H18X21490   0.376   3.133   8.613 -0.0410 -0.5354  1.0619
  186SLPC  H18Y21491   0.482   2.979   8.628  0.5288 -2.2675 -0.8142
  186SLPC  H18Z21492   0.317   2.969   8.565  0.5504 -0.5734  2.3763
  187SLPC     N21493   0.461   3.977   6.357 -0.3378 -0.1264 -0.0043
  187SLPC   C1321494   0.535   3.874   6.442 -0.2098 -0.2109  0.5823
  187SLPC  H13A21495   0.603   3.924   6.509 -1.4597  1.4919  0.6326
  187SLPC  H13B21496   0.463   3.813   6.494 -0.4782 -1.2616 -0.9322
  187SLPC  H13C21497   0.587   3.805   6.376 -0.3894 -0.6509  0.8973
  187SLPC   C1421498   0.333   3.906   6.311 -0.0909  0.0756 -0.2384
  187SLPC  H14A21499   0.284   3.970   6.240 -0.9961 -0.0736  0.2349
  187SLPC  H14B21500   0.361   3.816   6.259  0.0157  1.4642 -2.7199
  187SLPC  H14C21501   0.263   3.889   6.392 -0.2776 -0.5914 -0.5324
  187SLPC   C1521502   0.551   4.011   6.243 -0.3155 -0.2859  0.0492
  187SLPC  H15A21503   0.646   4.033   6.289 -0.5213 -3.0011  1.9873
  187SLPC  H15B21504   0.571   3.923   6.184 -1.2861 -2.0562  2.2198
  187SLPC  H15C21505   0.522   4.099   6.187  1.1826 -0.1858 -0.6260
  187SLPC   C1221506   0.427   4.100   6.434  0.3137 -0.7029  0.3344
  187SLPC  H12A21507   0.520   4.139   6.472  0.2638  1.7363 -1.7864
  187SLPC  H12B21508   0.372   4.068   6.521  0.2569  0.3598  0.6920
  187SLPC   C1121509   0.345   4.211   6.368  0.2082 -1.2994  0.1738
  187SLPC  H11A21510   0.314   4.286   6.445  1.1876  0.0433 -0.6896
  187SLPC  H11B21511   0.264   4.167   6.308  0.7384 -0.3829 -1.2588
  187SLPC     P21512   0.527   4.387   6.305  0.1109  0.0668 -0.1456
  187SLPC   O1321513   0.661   4.331   6.293 -0.2034  0.1254 -0.3139
  187SLPC   O1421514   0.497   4.517   6.237 -0.2229 -0.0377  0.2739
  187SLPC   O1221515   0.422   4.277   6.272 -0.7159 -0.1863  0.0587
  187SLPC   O1121516   0.510   4.408   6.463  0.3059 -0.2408  0.5786
  187SLPC    C121517   0.432   4.511   6.516 -0.5782 -0.3314 -0.2833
  187SLPC    HA21518   0.351   4.527   6.442  0.1725  0.6709 -0.9193
  187SLPC    HB21519   0.375   4.470   6.602 -1.1356 -0.8129 -0.8769
  187SLPC    C221520   0.506   4.644   6.543 -0.2979 -0.0173 -0.2498
  187SLPC    HS21521   0.553   4.674   6.446 -0.4847  0.3649 -0.2224
  187SLPC   O2121522   0.602   4.618   6.647 -0.1558  0.0325 -0.5977
  187SLPC   C2121523   0.717   4.681   6.649  0.7522  0.3077  0.9517
  187SLPC   O2221524   0.753   4.763   6.563 -0.1032 -0.2200 -0.1950
  187SLPC   C2221525   0.801   4.647   6.768  0.4230  0.0808 -0.2364
  187SLPC   H2R21526   0.900   4.697   6.763  0.1938  0.8146  1.7810
  187SLPC   H2S21527   0.757   4.686   6.863  0.6845 -3.2140  1.3683
  187SLPC    C321528   0.415   4.758   6.581  0.1212  0.0859  0.1106
  187SLPC    HX21529   0.351   4.775   6.492 -2.8870 -1.6520  1.7678
  187SLPC    HY21530   0.475   4.846   6.613 -0.1196 -0.0564  1.0046
  187SLPC   O3121531   0.329   4.718   6.692  0.1745 -0.2982  0.5944
  187SLPC   C3121532   0.263   4.814   6.750 -0.0410  0.4216 -0.5421
  187SLPC   O3221533   0.247   4.927   6.709 -0.0375 -0.2273 -0.4053
  187SLPC   C3221534   0.188   4.745   6.870 -0.3097 -0.0191 -0.1479
  187SLPC   H2X21535   0.184   4.637   6.844  2.9366 -0.1774 -0.4475
  187SLPC   H2Y21536   0.087   4.792   6.871  0.2281  1.1797 -0.6710
  187SLPC   C2321537   0.835   4.496   6.775 -0.0314  0.2313  0.7077
  187SLPC   H3R21538   0.845   4.463   6.669 -1.8094 -1.0131  0.8850
  187SLPC   H3S21539   0.751   4.435   6.813 -1.8250 -0.3159 -3.6216
  187SLPC   C2421540   0.968   4.475   6.852  0.0909  0.3051 -0.5496
  187SLPC   H4R21541   1.041   4.541   6.800  0.1294  2.6296  2.2336
  187SLPC   H4S21542   1.004   4.370   6.849 -0.1471  0.1837  0.4513
  187SLPC   C2521543   0.961   4.519   7.001 -0.0371 -0.5196  0.3697
  187SLPC   H5R21544   0.883   4.455   7.048 -0.0619 -2.4169 -2.0550
  187SLPC   H5S21545   0.921   4.621   7.017 -1.3216 -0.9400 -0.0425
  187SLPC   C2621546   1.095   4.523   7.078  0.0757 -1.0164 -0.1679
  187SLPC   H6R21547   1.161   4.587   7.016 -0.9404  0.8647  0.5817
  187SLPC   H6S21548   1.142   4.422   7.077  1.2627 -0.4781 -0.7061
  187SLPC   C2721549   1.085   4.571   7.219  0.0354 -0.5120 -0.1628
  187SLPC   H7R21550   1.006   4.510   7.269 -0.7280 -0.7989 -1.6544
  187SLPC   H7S21551   1.048   4.676   7.216 -0.9394 -0.8654 -0.9001
  187SLPC   C2821552   1.214   4.573   7.302 -0.0502  0.4974 -0.0598
  187SLPC   H8R21553   1.169   4.617   7.394 -0.8435 -1.2948  0.4629
  187SLPC   H8S21554   1.286   4.639   7.250  0.7857 -0.1396  0.2571
  187SLPC   C2921555   1.269   4.427   7.340  0.1666 -0.1626  0.3982
  187SLPC   H9R21556   1.206   4.348   7.296 -1.3731  1.7188 -0.9300
  187SLPC  C21021557   1.384   4.401   7.405 -0.2324 -0.6488  0.4977
  187SLPC  H10R21558   1.403   4.295   7.430 -0.3377 -0.6011  0.7915
  187SLPC  C21121559   1.464   4.517   7.476 -0.2784 -0.1388 -0.2530
  187SLPC  H11R21560   1.457   4.507   7.587  0.6542  2.6800  0.1622
  187SLPC  H11S21561   1.428   4.617   7.444  0.7750  0.7424  1.1511
  187SLPC  C21221562   1.610   4.504   7.448  0.1266 -0.1118  0.3435
  187SLPC  H12R21563   1.655   4.578   7.380 -2.2020  1.0349 -0.0118
  187SLPC  C21321564   1.699   4.434   7.517 -0.3547  0.9167 -0.3405
  187SLPC  H13R21565   1.806   4.448   7.500 -0.2300 -1.2415 -1.7317
  187SLPC  C21421566   1.664   4.333   7.624 -0.3422 -0.0485 -0.3584
  187SLPC  H14R21567   1.576   4.273   7.589  0.3356 -0.8181 -0.7876
  187SLPC  H14S21568   1.640   4.376   7.723  1.6168 -0.3637  0.2866
  187SLPC  C21521569   1.784   4.237   7.645  0.4503  0.2668  0.9722
  187SLPC  H15R21570   1.770   4.186   7.743  0.2427 -0.0477  0.7782
  187SLPC  H15S21571   1.880   4.294   7.640 -0.3740  1.8025  1.8496
  187SLPC  C21621572   1.777   4.123   7.543 -0.1110 -0.6032 -0.0797
  187SLPC  H16R21573   1.777   4.176   7.446  1.2310  0.2757  0.3640
  187SLPC  H16S21574   1.679   4.074   7.557  1.0789 -3.0205  0.2603
  187SLPC  C21721575   1.902   4.036   7.549 -0.4830  0.2846 -0.5814
  187SLPC  H17R21576   1.885   3.934   7.507 -2.6423 -1.0160  2.9843
  187SLPC  H17S21577   1.922   4.022   7.657 -0.0469  0.7576 -0.5982
  187SLPC  C21821578   2.018   4.101   7.478 -0.8332  0.4903  0.4629
  187SLPC  H18R21579   1.983   4.155   7.387  0.4334  0.1512 -0.2475
  187SLPC  H18S21580   2.093   4.034   7.430  0.0688  2.2623 -0.7334
  187SLPC  H18T21581   2.072   4.176   7.539  1.5632  0.8861 -1.9344
  187SLPC   C3321582   0.255   4.767   7.007  0.5815  0.2865 -0.4259
  187SLPC   H3X21583   0.248   4.875   7.031 -1.4568  0.1797 -0.3728
  187SLPC   H3Y21584   0.359   4.733   6.989  0.8634  0.9144  0.0151
  187SLPC   C3421585   0.180   4.688   7.112 -0.1765 -0.0414  0.3475
  187SLPC   H4X21586   0.179   4.580   7.086  0.5626  0.0394 -0.0406
  187SLPC   H4Y21587   0.077   4.728   7.098 -0.5940 -1.2857 -0.2832
  187SLPC   C3521588   0.231   4.713   7.257  0.5040 -0.0406  0.6264
  187SLPC   H5X21589   0.230   4.822   7.280  1.5733  0.5649 -1.8590
  187SLPC   H5Y21590   0.339   4.686   7.257  0.4999 -0.2801 -1.8532
  187SLPC   C3621591   0.139   4.626   7.349 -0.2842 -0.1071 -0.2641
  187SLPC   H6X21592   0.201   4.550   7.400  4.4130  2.5694 -1.4231
  187SLPC   H6Y21593   0.048   4.598   7.291 -0.2959  1.6295 -1.1528
  187SLPC   C3721594   0.070   4.700   7.468 -0.5583 -0.0327  0.3839
  187SLPC   H7X21595   0.019   4.788   7.424  0.4343  0.7038  0.6958
  187SLPC   H7Y21596   0.002   4.639   7.532  3.1558 -3.3571  1.5331
  187SLPC   C3821597   0.178   4.750   7.569  0.1610  0.3943 -0.5027
  187SLPC   H8X21598   0.265   4.791   7.514 -0.0068  0.9005 -0.3910
  187SLPC   H8Y21599   0.216   4.664   7.629  0.0360  2.1533  2.2232
  187SLPC   C3921600   0.122   4.847   7.669 -0.3227 -0.7007  0.1455
  187SLPC   H9X21601   0.044   4.793   7.727  0.2113 -0.6222  0.9411
  187SLPC   H9Y21602   0.072   4.935   7.623  1.6535  0.1593 -0.4496
  187SLPC  C31021603   0.236   4.895   7.758 -0.3256  0.6625  0.1795
  187SLPC  H10X21604   0.321   4.937   7.701 -2.3588  2.4162 -1.7257
  187SLPC  H10Y21605   0.271   4.807   7.815 -0.5694 -0.2048 -0.9811
  187SLPC  C31121606   0.177   4.991   7.860 -0.4133  0.4853 -0.3667
  187SLPC  H11X21607   0.135   5.068   7.792 -3.1478 -1.8930 -1.5886
  187SLPC  H11Y21608   0.257   5.031   7.927 -2.1654  0.4605  1.8438
  187SLPC  C31221609   0.070   4.926   7.945  0.1181 -0.4067  0.1961
  187SLPC  H12X21610   0.100   4.830   7.991  2.1523  0.5719  1.0506
  187SLPC  H12Y21611  -0.017   4.903   7.880 -1.1377  2.1468  0.8211
  187SLPC  C31321612   0.022   5.021   8.053  0.1650  0.0385  0.7379
  187SLPC  H13X21613   0.015   5.125   8.014  0.6175  0.3956  1.5713
  187SLPC  H13Y21614   0.109   5.024   8.122  0.5331 -3.1871  0.5787
  187SLPC  C31421615  -0.105   4.980   8.122  0.3477  0.2340 -0.5395
  187SLPC  H14X21616  -0.093   4.876   8.157  1.0093 -0.9010 -3.8115
  187SLPC  H14Y21617  -0.184   4.982   8.045  1.8056 -2.0895 -2.2309
  187SLPC  C31521618  -0.145   5.077   8.238 -0.3055  1.1497  0.0409
  187SLPC  H15X21619  -0.253   5.055   8.252 -0.2472 -0.5827 -1.6689
  187SLPC  H15Y21620  -0.133   5.185   8.217 -1.1068  1.5070  1.3164
  187SLPC  C31621621  -0.068   5.032   8.368 -0.7176 -0.1768 -0.5934
  187SLPC  H16X21622   0.042   5.045   8.365 -0.7738  0.5042  0.0195
  187SLPC  H16Y21623  -0.084   4.922   8.379  0.2861 -0.3150 -0.4736
  187SLPC  C31721624  -0.114   5.115   8.488  0.0789  0.4527 -0.2287
  187SLPC  H17X21625  -0.088   5.222   8.479 -0.9740  0.8825  1.4054
  187SLPC  H17Y21626  -0.051   5.099   8.578  0.2263  0.3275 -0.3522
  187SLPC  C31821627  -0.269   5.096   8.528  0.1949  0.3536 -0.5407
  187SLPC  H18X21628  -0.287   5.147   8.625  1.6516  0.1072 -0.1182
  187SLPC  H18Y21629  -0.288   4.992   8.560  0.1254  0.9761  1.5802
  187SLPC  H18Z21630  -0.346   5.114   8.449  0.9988  1.1698 -1.1604
  188SLPC     N21631   2.273   0.981   6.418 -0.4932  0.6271 -0.1930
  188SLPC   C1321632   2.144   0.941   6.354  0.3266  0.2146 -0.3421
  188SLPC  H13A21633   2.085   0.893   6.430  0.2681  2.1475  0.8959
  188SLPC  H13B21634   2.079   1.021   6.320  0.8301  0.4515 -0.7789
  188SLPC  H13C21635   2.162   0.866   6.278 -0.8274 -1.0152  0.5665
  188SLPC   C1421636   2.246   1.087   6.523  0.0879  0.3301 -0.1291
  188SLPC  H14A21637   2.340   1.123   6.562 -0.0536  0.9584 -0.3527
  188SLPC  H14B21638   2.182   1.170   6.496  0.4917  1.6276  2.5825
  188SLPC  H14C21639   2.191   1.042   6.604  1.4567  0.2085  0.7830
  188SLPC   C1521640   2.359   1.038   6.307  0.5022  0.7617 -0.0216
  188SLPC  H15A21641   2.449   1.070   6.358 -1.4409  2.4968  2.5525
  188SLPC  H15B21642   2.367   0.961   6.231 -2.7328  0.6248 -0.3390
  188SLPC  H15C21643   2.317   1.132   6.275  0.8873  1.4228  1.3721
  188SLPC   C1221644   2.337   0.869   6.490 -0.0884  0.5616  0.5709
  188SLPC  H12A21645   2.257   0.814   6.538  0.2436 -1.7124 -1.3055
  188SLPC  H12B21646   2.412   0.904   6.560  0.2494  0.5855  0.2033
  188SLPC   C1121647   2.404   0.761   6.405 -0.5776 -0.4296 -0.1119
  188SLPC  H11A21648   2.443   0.687   6.478 -1.3616 -2.4909 -1.6730
  188SLPC  H11B21649   2.493   0.794   6.347 -0.6373 -1.6174 -0.9055
  188SLPC     P21650   2.209   0.586   6.369  0.3426  0.0956 -0.3257
  188SLPC   O1321651   2.089   0.583   6.277 -0.3990  0.3949 -0.8200
  188SLPC   O1421652   2.292   0.463   6.372 -0.4713  1.0324 -0.2356
  188SLPC   O1221653   2.309   0.706   6.323  0.6217 -0.0688 -0.2082
  188SLPC   O1121654   2.158   0.618   6.513 -0.2009 -0.5228 -0.2809
  188SLPC    C121655   2.231   0.597   6.632  0.6491 -0.0059 -0.3595
  188SLPC    HA21656   2.334   0.561   6.612 -0.0182 -1.7048 -0.9501
  188SLPC    HB21657   2.235   0.696   6.684  1.1199  0.4059 -1.1539
  188SLPC    C221658   2.155   0.496   6.722 -0.3324  0.0401  0.2767
  188SLPC    HS21659   2.158   0.402   6.663  2.2712  0.0252  0.3180
  188SLPC   O2121660   2.022   0.539   6.755 -0.2332  0.9375 -0.0158
  188SLPC   C2121661   1.945   0.437   6.789  0.4519  0.4345  0.2447
  188SLPC   O2221662   1.963   0.324   6.752 -0.0581 -0.3113 -0.0821
  188SLPC   C2221663   1.853   0.488   6.898  0.4703  0.3399 -0.3615
  188SLPC   H2R21664   1.902   0.556   6.971 -0.5120  1.1379 -0.4322
  188SLPC   H2S21665   1.771   0.538   6.843  0.3096 -1.6496 -2.0702
  188SLPC    C321666   2.242   0.463   6.848 -0.0688  0.3076 -0.8119
  188SLPC    HX21667   2.343   0.448   6.804  0.9081  1.0952  1.0863
  188SLPC    HY21668   2.212   0.366   6.894  0.4708  0.5851  0.1426
  188SLPC   O3121669   2.244   0.565   6.949  0.0674  0.1161  0.2213
  188SLPC   C3121670   2.348   0.649   6.951 -0.2461 -0.6873  0.6051
  188SLPC   O3221671   2.447   0.642   6.877  0.6047 -0.7950 -0.1044
  188SLPC   C3221672   2.347   0.741   7.077  0.2075  0.4789 -0.1137
  188SLPC   H2X21673   2.341   0.676   7.167 -1.1685  2.1825  1.0905
  188SLPC   H2Y21674   2.256   0.804   7.074  0.1965  0.4897  0.4036
  188SLPC   C2321675   1.786   0.384   6.985 -0.1930  0.2470  0.0440
  188SLPC   H3R21676   1.862   0.343   7.055  0.2407  1.6410  0.4328
  188SLPC   H3S21677   1.746   0.296   6.931 -0.4639 -0.0251  0.6805
  188SLPC   C2421678   1.668   0.436   7.068 -0.0793 -0.7167 -1.2512
  188SLPC   H4R21679   1.581   0.432   6.998 -0.8693  0.5410 -0.3877
  188SLPC   H4S21680   1.695   0.539   7.099  0.4097 -1.0106 -0.6843
  188SLPC   C2521681   1.651   0.360   7.203  0.5168 -0.7107  0.1656
  188SLPC   H5R21682   1.649   0.249   7.196 -0.7925 -0.8241  1.8581
  188SLPC   H5S21683   1.550   0.378   7.243 -0.5829 -2.0164 -1.8475
  188SLPC   C2621684   1.747   0.410   7.311 -0.3926  0.5929 -0.1619
  188SLPC   H6R21685   1.737   0.520   7.325 -2.3034  0.2960  1.2307
  188SLPC   H6S21686   1.851   0.388   7.280 -0.4203  1.0751 -0.6105
  188SLPC   C2721687   1.721   0.343   7.442 -0.3655  0.4012 -0.7391
  188SLPC   H7R21688   1.757   0.238   7.438 -0.8574  0.1812  0.2421
  188SLPC   H7S21689   1.617   0.339   7.479 -0.2637  2.2770 -0.1695
  188SLPC   C2821690   1.807   0.400   7.559  0.1323  0.0921  0.3072
  188SLPC   H8R21691   1.777   0.504   7.583  1.0931  0.4328  0.0674
  188SLPC   H8S21692   1.911   0.419   7.525 -0.2834  2.8327  0.3322
  188SLPC   C2921693   1.781   0.314   7.684 -0.1659  0.1851  0.6730
  188SLPC   H9R21694   1.680   0.300   7.725  0.3317  1.0109  2.2548
  188SLPC  C21021695   1.886   0.257   7.751  0.3496 -0.0045  0.2599
  188SLPC  H10R21696   1.854   0.204   7.842 -1.8906 -0.3748 -0.6795
  188SLPC  C21121697   2.032   0.278   7.714 -0.6043 -0.5907 -0.5689
  188SLPC  H11R21698   2.060   0.370   7.769 -3.5923 -0.1579  0.4018
  188SLPC  H11S21699   2.048   0.299   7.606  0.3747  0.0300 -0.3152
  188SLPC  C21221700   2.124   0.165   7.738 -0.1923  0.2064  0.1689
  188SLPC  H12R21701   2.136   0.098   7.651  0.8983 -1.1473  1.3161
  188SLPC  C21321702   2.196   0.147   7.848  0.3474 -0.2831 -0.2076
  188SLPC  H13R21703   2.261   0.058   7.849  1.9910  0.8541 -0.3833
  188SLPC  C21421704   2.185   0.224   7.980  0.4561 -0.5226  0.0780
  188SLPC  H14R21705   2.128   0.319   7.971  1.8882  0.4955  1.2835
  188SLPC  H14S21706   2.286   0.258   8.012  1.6198 -1.5467 -2.2243
  188SLPC  C21521707   2.128   0.151   8.104  0.2676 -0.5192  0.5212
  188SLPC  H15R21708   2.196   0.067   8.131  3.9486  1.9385 -0.2570
  188SLPC  H15S21709   2.033   0.106   8.068  0.6800  0.2396 -1.6757
  188SLPC  C21621710   2.101   0.248   8.209 -0.7058  0.0440  0.4327
  188SLPC  H16R21711   2.053   0.342   8.173 -2.4184 -1.1568 -0.5394
  188SLPC  H16S21712   2.194   0.293   8.250 -0.1793  0.3886 -1.0677
  188SLPC  C21721713   2.007   0.204   8.327  0.1397  0.1922 -0.1936
  188SLPC  H17R21714   2.012   0.281   8.406  2.2797 -1.8467  1.8641
  188SLPC  H17S21715   2.066   0.121   8.373  0.9071  2.4151  3.1949
  188SLPC  C21821716   1.864   0.165   8.289 -0.4778  0.1223  0.1587
  188SLPC  H18R21717   1.868   0.102   8.197  0.3988  0.1366  0.1750
  188SLPC  H18S21718   1.803   0.255   8.269 -0.4855 -0.0103 -0.4133
  188SLPC  H18T21719   1.826   0.113   8.380 -0.5545  2.0210  1.2650
  188SLPC   C3321720   2.477   0.830   7.072 -0.2235  0.2297 -0.3684
  188SLPC   H3X21721   2.459   0.916   7.003 -3.4634  0.8805  1.0722
  188SLPC   H3Y21722   2.558   0.762   7.039 -0.3231 -0.3381  0.5383
  188SLPC   C3421723   2.522   0.885   7.210 -0.6513 -0.3373  0.4288
  188SLPC   H4X21724   2.607   0.950   7.182  0.7899 -1.5294  1.8219
  188SLPC   H4Y21725   2.568   0.817   7.285  0.9852  0.7312  0.4240
  188SLPC   C3521726   2.421   0.968   7.279  0.2478  0.0248  0.3801
  188SLPC   H5X21727   2.335   0.975   7.209  0.5310 -1.3020 -0.1250
  188SLPC   H5Y21728   2.457   1.072   7.295  0.3021 -0.0115  0.4924
  188SLPC   C3621729   2.357   0.909   7.403  1.2699 -0.0287 -1.0292
  188SLPC   H6X21730   2.324   0.808   7.371 -1.4916  0.3551  0.3400
  188SLPC   H6Y21731   2.267   0.967   7.435  1.4692 -0.6163  0.7140
  188SLPC   C3721732   2.444   0.906   7.532  0.4249 -0.1111  0.6695
  188SLPC   H7X21733   2.482   1.006   7.561 -1.0239  0.6466  0.0538
  188SLPC   H7Y21734   2.540   0.851   7.524  2.0769  2.3931  1.8549
  188SLPC   C3821735   2.360   0.851   7.644  0.0923  0.0616 -0.2851
  188SLPC   H8X21736   2.344   0.743   7.622  1.3007  0.4071 -3.3175
  188SLPC   H8Y21737   2.257   0.891   7.640  1.0613  2.9640  0.8030
  188SLPC   C3921738   2.417   0.869   7.795  0.1970  0.0090  0.1907
  188SLPC   H9X21739   2.524   0.841   7.807  0.3102  0.7813  1.0451
  188SLPC   H9Y21740   2.362   0.809   7.871 -0.7836  0.3035 -0.2698
  188SLPC  C31021741   2.398   1.019   7.840 -0.7520  0.6355  0.3430
  188SLPC  H10X21742   2.293   1.010   7.874 -0.3848  0.3419  1.4483
  188SLPC  H10Y21743   2.394   1.066   7.739 -1.7045 -3.0130 -1.4877
  188SLPC  C31121744   2.493   1.068   7.944 -0.1544 -0.4926 -0.1871
  188SLPC  H11X21745   2.516   1.002   8.030 -0.0714 -0.4971 -0.2123
  188SLPC  H11Y21746   2.443   1.157   7.989  0.2137 -0.2418 -0.2686
  188SLPC  C31221747   2.622   1.130   7.883 -0.1183  0.8313 -0.1689
  188SLPC  H12X21748   2.586   1.217   7.824 -1.7199  0.0834 -0.3386
  188SLPC  H12Y21749   2.660   1.058   7.808 -3.3779  0.1009 -1.2706
  188SLPC  C31321750   2.726   1.174   7.993 -0.7555 -0.8864  0.4603
  188SLPC  H13X21751   2.808   1.232   7.945 -2.3588  0.6477 -0.5667
  188SLPC  H13Y21752   2.777   1.084   8.033 -0.2794 -0.4551  0.8425
  188SLPC  C31421753   2.678   1.257   8.111  0.2167 -0.1701 -0.3336
  188SLPC  H14X21754   2.591   1.205   8.156  0.0468 -3.0933 -3.6034
  188SLPC  H14Y21755   2.646   1.354   8.067  2.6640  0.1991 -1.4605
  188SLPC  C31521756   2.776   1.285   8.229 -0.0469 -0.4710 -0.1171
  188SLPC  H15X21757   2.828   1.383   8.224 -0.2927 -0.3233  0.2178
  188SLPC  H15Y21758   2.856   1.209   8.229  0.3380 -0.1338  2.6263
  188SLPC  C31621759   2.702   1.264   8.360 -0.4528 -0.1094  0.2137
  188SLPC  H16X21760   2.668   1.158   8.369 -0.0511 -0.2845 -0.3251
  188SLPC  H16Y21761   2.612   1.328   8.370 -0.6687 -0.4169  0.2446
  188SLPC  C31721762   2.787   1.289   8.488  0.3308 -0.3389 -0.3436
  188SLPC  H17X21763   2.823   1.393   8.475 -1.2422 -0.0458 -3.1329
  188SLPC  H17Y21764   2.869   1.216   8.475 -1.1904 -1.8740 -1.8607
  188SLPC  C31821765   2.698   1.293   8.613  0.4639 -0.8655 -0.2473
  188SLPC  H18X21766   2.612   1.363   8.608 -0.3659 -1.6250  1.9431
  188SLPC  H18Y21767   2.762   1.321   8.699  1.3066  2.0314 -1.6895
  188SLPC  H18Z21768   2.652   1.194   8.633 -2.1790  0.1769 -0.6611
  189SLPC     N21769   4.722   2.693   6.372  0.0427  0.0335  0.3902
  189SLPC   C1321770   4.646   2.574   6.347 -0.5112 -0.2036  0.2115
  189SLPC  H13A21771   4.693   2.484   6.386  0.1479  1.6821  4.3547
  189SLPC  H13B21772   4.548   2.581   6.391  0.1210  0.5540  1.5711
  189SLPC  H13C21773   4.628   2.569   6.241  1.0396  0.7379 -0.1292
  189SLPC   C1421774   4.618   2.800   6.378 -0.6082  0.8815 -0.6511
  189SLPC  H14A21775   4.539   2.788   6.451 -0.2171 -0.0724 -0.3748
  189SLPC  H14B21776   4.663   2.898   6.380  2.0972 -0.2368 -1.6668
  189SLPC  H14C21777   4.569   2.795   6.282 -1.7947 -1.4418  0.0011
  189SLPC   C1521778   4.817   2.727   6.265  0.3874  0.0078 -0.2369
  189SLPC  H15A21779   4.776   2.759   6.170 -2.6076  1.0002  1.2565
  189SLPC  H15B21780   4.884   2.805   6.299 -1.0860  1.3498 -0.2630
  189SLPC  H15C21781   4.885   2.644   6.252 -1.5942 -1.6817 -0.2390
  189SLPC   C1221782   4.792   2.680   6.507  0.0149  0.8284  0.5455
  189SLPC  H12A21783   4.720   2.625   6.566 -0.8569  0.6685 -0.6125
  189SLPC  H12B21784   4.821   2.777   6.545  0.7242  0.6390  0.4817
  189SLPC   C1121785   4.913   2.580   6.503  0.6899  0.3008 -0.4289
  189SLPC  H11A21786   4.879   2.482   6.462 -2.7564  2.0567 -2.0862
  189SLPC  H11B21787   4.943   2.560   6.609  1.2823  1.8405 -0.2867
  189SLPC     P21788   5.120   2.553   6.332  0.2132  0.1054  0.1687
  189SLPC   O1321789   5.025   2.483   6.237  0.1094 -0.6092 -0.0577
  189SLPC   O1421790   5.236   2.632   6.276  0.9922  0.2161  0.4833
  189SLPC   O1221791   5.032   2.635   6.438  0.2775  0.2321  0.0022
  189SLPC   O1121792   5.174   2.437   6.422 -0.2418 -0.2359  0.2705
  189SLPC    C121793   5.306   2.412   6.463 -0.7646  0.2675  0.1815
  189SLPC    HA21794   5.323   2.304   6.444  1.2523  1.0143 -3.1465
  189SLPC    HB21795   5.386   2.475   6.418  0.0040 -0.1720  0.9039
  189SLPC    C221796   5.328   2.429   6.615  0.3842 -0.2493 -0.1456
  189SLPC    HS21797   5.405   2.360   6.655 -1.4662 -1.1260  2.1020
  189SLPC   O2121798   5.216   2.397   6.696 -0.4446  0.6141 -0.1105
  189SLPC   C2121799   5.166   2.270   6.676  0.0878 -0.3117  0.6011
  189SLPC   O2221800   5.232   2.175   6.635 -0.2196 -0.5833  0.0370
  189SLPC   C2221801   5.017   2.251   6.723  0.3802 -0.1485 -0.2940
  189SLPC   H2R21802   4.948   2.276   6.640 -2.2985 -2.3274  1.1199
  189SLPC   H2S21803   4.999   2.145   6.749 -0.7110  0.0826 -0.0249
  189SLPC    C321804   5.372   2.572   6.647  0.2908  0.4744 -0.5087
  189SLPC    HX21805   5.290   2.642   6.620 -1.2451 -0.4825  1.3517
  189SLPC    HY21806   5.461   2.599   6.588  0.8664  1.3686  0.7188
  189SLPC   O3121807   5.415   2.576   6.790 -0.2306 -0.0298 -0.3007
  189SLPC   C3121808   5.361   2.671   6.859 -0.2557 -0.4494 -0.4172
  189SLPC   O3221809   5.322   2.779   6.814 -0.3762  0.2604 -0.4721
  189SLPC   C3221810   5.362   2.619   7.000  0.6438  0.8525  0.0775
  189SLPC   H2X21811   5.467   2.610   7.036 -0.1806  1.0233  2.7228
  189SLPC   H2Y21812   5.314   2.520   7.011  0.5584  0.6295 -1.8648
  189SLPC   C2321813   4.973   2.347   6.839  0.8456 -0.5034 -0.2557
  189SLPC   H3R21814   5.007   2.453   6.835  1.3115 -0.6055  0.7996
  189SLPC   H3S21815   5.013   2.304   6.933 -0.9549 -0.4705  0.5833
  189SLPC   C2421816   4.818   2.366   6.855  0.4005 -0.3657 -0.3172
  189SLPC   H4R21817   4.767   2.270   6.880 -1.4704 -0.0939 -2.7095
  189SLPC   H4S21818   4.784   2.402   6.756  1.1204  0.8716 -0.1371
  189SLPC   C2521819   4.796   2.477   6.962  0.2637  0.1516 -0.4521
  189SLPC   H5R21820   4.685   2.478   6.956  0.3070  0.9934 -1.2244
  189SLPC   H5S21821   4.827   2.575   6.921 -1.0504 -0.0880 -2.1370
  189SLPC   C2621822   4.845   2.452   7.103  1.3485  0.0892  0.5707
  189SLPC   H6R21823   4.953   2.479   7.104  1.5567 -0.7207  0.7532
  189SLPC   H6S21824   4.832   2.347   7.137 -2.5574  0.2854  0.1574
  189SLPC   C2721825   4.774   2.546   7.198 -0.4697  0.1920  0.0632
  189SLPC   H7R21826   4.755   2.635   7.134  0.9852 -0.1997 -0.9728
  189SLPC   H7S21827   4.851   2.565   7.276 -1.1290 -1.4564  1.1499
  189SLPC   C2821828   4.639   2.489   7.253 -0.8216 -0.8485  0.3099
  189SLPC   H8R21829   4.584   2.445   7.167  0.7088 -2.1914 -0.0267
  189SLPC   H8S21830   4.589   2.579   7.294 -1.8643 -0.7977 -1.0023
  189SLPC   C2921831   4.662   2.373   7.346  0.9713 -0.3586 -0.0987
  189SLPC   H9R21832   4.711   2.287   7.298 -1.6321 -1.3019 -1.2206
  189SLPC  C21021833   4.613   2.369   7.474  0.0566  0.4766 -0.0053
  189SLPC  H10R21834   4.643   2.286   7.540 -2.1523  0.4256  1.0520
  189SLPC  C21121835   4.553   2.488   7.553 -0.4711  0.2904  0.2938
  189SLPC  H11R21836   4.467   2.438   7.602  0.2708 -0.8521  0.4749
  189SLPC  H11S21837   4.503   2.560   7.484 -2.7936 -0.9209  0.5909
  189SLPC  C21221838   4.653   2.557   7.637  0.6539 -0.2165  0.0747
  189SLPC  H12R21839   4.710   2.638   7.588  0.3548  0.5688  0.9926
  189SLPC  C21321840   4.659   2.545   7.766 -0.6756  0.0176 -0.7701
  189SLPC  H13R21841   4.734   2.602   7.823 -0.3775 -0.3377 -0.8074
  189SLPC  C21421842   4.569   2.457   7.857 -0.5825  0.3029 -0.9645
  189SLPC  H14R21843   4.555   2.365   7.797  1.4170  0.6825 -2.1199
  189SLPC  H14S21844   4.467   2.499   7.866 -1.7588 -1.9896 -2.6345
  189SLPC  C21521845   4.642   2.429   7.986  0.6975  0.7514  0.5351
  189SLPC  H15R21846   4.746   2.391   7.981 -0.2036 -1.7770 -0.7740
  189SLPC  H15S21847   4.584   2.350   8.039 -1.9334  1.7449 -0.6772
  189SLPC  C21621848   4.642   2.558   8.076 -0.5947 -0.4772 -0.8842
  189SLPC  H16R21849   4.542   2.604   8.064 -1.5333 -1.6337  1.8010
  189SLPC  H16S21850   4.730   2.618   8.044 -0.9944  0.5448 -0.1128
  189SLPC  C21721851   4.655   2.524   8.222 -0.3993  0.4005  0.1993
  189SLPC  H17R21852   4.748   2.465   8.213  0.3700  1.5585  0.3129
  189SLPC  H17S21853   4.574   2.457   8.259  0.4777 -0.6771  0.2162
  189SLPC  C21821854   4.673   2.651   8.307 -0.3105 -1.0715  0.0938
  189SLPC  H18R21855   4.749   2.725   8.271 -3.0609  1.3550 -1.1188
  189SLPC  H18S21856   4.692   2.616   8.411  1.2461 -0.5945 -0.0034
  189SLPC  H18T21857   4.580   2.710   8.319  2.1210  3.0845  0.6945
  189SLPC   C3321858   5.296   2.714   7.104 -0.1066  0.8498 -0.2712
  189SLPC   H3X21859   5.318   2.820   7.079 -2.5284  0.7315 -3.4996
  189SLPC   H3Y21860   5.334   2.678   7.202 -2.5489 -0.5837  0.2188
  189SLPC   C3421861   5.144   2.699   7.125 -0.1079 -0.4097  0.1282
  189SLPC   H4X21862   5.118   2.598   7.163 -0.3206 -0.1438  0.6889
  189SLPC   H4Y21863   5.095   2.712   7.026  0.0690  0.8651  0.1842
  189SLPC   C3521864   5.078   2.805   7.217  0.6347  0.1999 -0.1602
  189SLPC   H5X21865   4.968   2.803   7.199  0.5897 -0.4127  0.1666
  189SLPC   H5Y21866   5.120   2.907   7.207  1.0389  0.0201 -0.3228
  189SLPC   C3621867   5.093   2.785   7.367  0.5375 -0.1084 -0.0326
  189SLPC   H6X21868   5.199   2.798   7.398  0.5460  0.4906 -0.2912
  189SLPC   H6Y21869   5.054   2.684   7.390 -0.4794  0.5092  1.1384
  189SLPC   C3721870   5.009   2.878   7.446  0.0881  0.6068  0.2342
  189SLPC   H7X21871   4.904   2.865   7.412  0.1969  1.2708 -0.3840
  189SLPC   H7Y21872   5.031   2.987   7.437  0.7089  0.4078 -1.0106
  189SLPC   C3821873   5.015   2.844   7.591  0.4618  0.2247 -0.0050
  189SLPC   H8X21874   5.114   2.882   7.622 -0.1708  2.7113 -0.8123
  189SLPC   H8Y21875   4.990   2.736   7.603 -1.8755  0.4402 -2.1021
  189SLPC   C3921876   4.913   2.919   7.679 -0.4443 -0.3622 -0.3829
  189SLPC   H9X21877   4.812   2.907   7.634 -0.8419  1.4147 -0.0365
  189SLPC   H9Y21878   4.936   3.024   7.654 -1.3454 -0.4222 -1.5566
  189SLPC  C31021879   4.905   2.879   7.827 -0.1075 -0.6170  0.3778
  189SLPC  H10X21880   5.010   2.877   7.863 -0.3515 -1.9122  1.0864
  189SLPC  H10Y21881   4.877   2.773   7.848  0.4985 -0.7354  0.6010
  189SLPC  C31121882   4.822   2.976   7.920 -0.0441 -0.0092  0.0179
  189SLPC  H11X21883   4.715   2.979   7.891 -0.1725  0.8839  0.5275
  189SLPC  H11Y21884   4.873   3.075   7.907 -0.1305  0.2525  1.4558
  189SLPC  C31221885   4.836   2.936   8.065 -0.9003 -0.0798 -0.0188
  189SLPC  H12X21886   4.942   2.965   8.085 -1.4864  0.6778  2.3771
  189SLPC  H12Y21887   4.826   2.831   8.099 -2.7880 -0.1293 -0.6435
  189SLPC  C31321888   4.751   3.029   8.152 -0.4968 -0.0374  0.3048
  189SLPC  H13X21889   4.755   3.136   8.123  1.2240 -0.5143 -1.3694
  189SLPC  H13Y21890   4.796   3.021   8.254  1.2293  0.5724 -0.3682
  189SLPC  C31421891   4.604   2.992   8.159  0.1863 -0.0984  0.4309
  189SLPC  H14X21892   4.590   2.887   8.191  1.4149  0.0296  1.4478
  189SLPC  H14Y21893   4.562   2.992   8.056 -0.9997  1.0075  0.8869
  189SLPC  C31521894   4.513   3.102   8.227 -0.5221  0.6145  1.6911
  189SLPC  H15X21895   4.536   3.202   8.186 -0.1445 -0.6507 -1.3985
  189SLPC  H15Y21896   4.529   3.100   8.337  2.9961 -0.1267  1.3008
  189SLPC  C31621897   4.360   3.067   8.203  0.1488 -0.1681  0.0246
  189SLPC  H16X21898   4.334   3.080   8.096  0.0174  3.2886  0.3396
  189SLPC  H16Y21899   4.299   3.147   8.252  0.2727  1.0213 -1.6692
  189SLPC  C31721900   4.321   2.926   8.254 -0.0691 -0.1734  0.2695
  189SLPC  H17X21901   4.374   2.848   8.196 -0.4147  0.4940 -0.9931
  189SLPC  H17Y21902   4.210   2.925   8.246 -0.0330  0.0365 -0.3124
  189SLPC  C31821903   4.357   2.918   8.405 -0.5128 -0.0611 -0.2246
  189SLPC  H18X21904   4.448   2.856   8.418 -0.3783 -0.0567 -1.0545
  189SLPC  H18Y21905   4.279   2.858   8.457 -0.0833  0.8304  1.5218
  189SLPC  H18Z21906   4.364   3.021   8.445 -0.4752  0.2313 -0.9743
  190SLPC     N21907   6.111   0.490   5.844 -0.8729  0.7693 -0.0106
  190SLPC   C1321908   6.200   0.369   5.888  0.3593 -0.0837 -0.3021
  190SLPC  H13A21909   6.303   0.401   5.884  0.7566 -0.7394  2.5502
  190SLPC  H13B21910   6.175   0.341   5.989 -2.6534 -1.0176 -1.2074
  190SLPC  H13C21911   6.185   0.285   5.822  0.0386 -1.3977  1.3713
  190SLPC   C1421912   5.968   0.443   5.854 -0.8261  0.5807 -0.1879
  190SLPC  H14A21913   5.966   0.344   5.811 -0.0327  1.0508 -1.3451
  190SLPC  H14B21914   5.945   0.429   5.958  2.1223 -0.1492  0.4384
  190SLPC  H14C21915   5.904   0.509   5.797 -1.0110  1.6446  1.2138
  190SLPC   C1521916   6.135   0.516   5.705 -0.3964  0.1401 -0.2323
  190SLPC  H15A21917   6.147   0.423   5.653  0.6827 -0.9692  1.8515
  190SLPC  H15B21918   6.068   0.591   5.666  1.3392  0.6730 -2.3850
  190SLPC  H15C21919   6.224   0.576   5.690 -1.1575  1.5605  0.6516
  190SLPC   C1221920   6.136   0.614   5.923 -0.6556 -0.1735 -0.3873
  190SLPC  H12A21921   6.057   0.687   5.917  2.9997  4.4398  1.0486
  190SLPC  H12B21922   6.224   0.666   5.886  1.0985 -0.1974  3.3297
  190SLPC   C1121923   6.162   0.598   6.070  0.1173 -0.1561 -0.1661
  190SLPC  H11A21924   6.169   0.698   6.118  0.2731  0.3494 -1.2067
  190SLPC  H11B21925   6.258   0.545   6.086 -0.1688  0.1464  3.1805
  190SLPC     P21926   5.936   0.559   6.227 -0.2004 -0.2264 -0.0279
  190SLPC   O1321927   5.847   0.671   6.178 -0.1430  0.2691 -0.5485
  190SLPC   O1421928   5.867   0.439   6.275 -0.2431 -0.1179 -0.1415
  190SLPC   O1221929   6.052   0.516   6.127  0.2090 -0.3642  0.2713
  190SLPC   O1121930   6.021   0.623   6.349  0.5038  0.7613 -0.5900
  190SLPC    C121931   6.096   0.545   6.434  0.2266  0.5944 -0.6063
  190SLPC    HA21932   6.118   0.443   6.395 -2.1026 -0.0524 -0.4051
  190SLPC    HB21933   6.191   0.601   6.448 -0.7952  2.4390 -0.6971
  190SLPC    C221934   6.032   0.547   6.576 -0.2042 -0.4420  0.1564
  190SLPC    HS21935   5.929   0.507   6.565 -0.8022  0.6960  1.3371
  190SLPC   O2121936   6.053   0.679   6.624 -0.1397  0.1246  0.1268
  190SLPC   C2121937   5.955   0.724   6.687 -0.1281 -0.1922 -0.1668
  190SLPC   O2221938   5.844   0.673   6.690 -0.2705  0.0550  0.1709
  190SLPC   C2221939   6.015   0.847   6.766 -0.5154  0.4622 -0.1052
  190SLPC   H2R21940   6.080   0.807   6.846 -1.9242  0.4382  1.0756
  190SLPC   H2S21941   6.070   0.910   6.693  0.7105 -0.2085  0.2200
  190SLPC    C321942   6.105   0.445   6.661  0.0949 -0.1907  0.3580
  190SLPC    HX21943   6.213   0.452   6.636  0.1922  2.4759  1.2781
  190SLPC    HY21944   6.076   0.345   6.621  0.6542  0.7997 -2.8396
  190SLPC   O3121945   6.075   0.444   6.800 -0.3714 -0.1825 -0.1667
  190SLPC   C3121946   6.165   0.498   6.872 -0.2516  0.4989 -0.3364
  190SLPC   O3221947   6.253   0.568   6.835  0.1057 -0.3366 -0.0710
  190SLPC   C3221948   6.136   0.453   7.019 -0.1615  0.4025 -0.0699
  190SLPC   H2X21949   6.176   0.349   7.025  0.4943  0.6638  0.2368
  190SLPC   H2Y21950   6.030   0.464   7.050 -0.2771  0.1939 -0.3853
  190SLPC   C2321951   5.913   0.949   6.823 -0.1658 -0.4500  0.1257
  190SLPC   H3R21952   5.857   1.004   6.745 -0.5655  1.7810  1.8700
  190SLPC   H3S21953   5.971   1.022   6.884 -0.1974 -2.2756  2.4682
  190SLPC   C2421954   5.820   0.886   6.929 -0.7034  0.5311 -0.8802
  190SLPC   H4R21955   5.726   0.838   6.896 -1.0716  0.5656  0.0691
  190SLPC   H4S21956   5.783   0.975   6.985 -0.7324 -0.5846  0.9658
  190SLPC   C2521957   5.893   0.800   7.032 -0.4022  0.0129 -0.3348
  190SLPC   H5R21958   5.984   0.848   7.073  0.3332 -3.3572  2.3731
  190SLPC   H5S21959   5.933   0.711   6.980  0.0063  0.6812 -1.1997
  190SLPC   C2621960   5.822   0.766   7.163 -0.3880 -0.0786  0.0267
  190SLPC   H6R21961   5.870   0.686   7.223 -0.0453  1.3074  1.6664
  190SLPC   H6S21962   5.715   0.743   7.144 -0.5417  0.7021 -0.0894
  190SLPC   C2721963   5.824   0.888   7.264  0.1796  0.8421 -0.1069
  190SLPC   H7R21964   5.775   0.976   7.218  0.5322  1.1257  0.0610
  190SLPC   H7S21965   5.932   0.913   7.272  0.1180  0.9109  0.5528
  190SLPC   C2821966   5.770   0.866   7.408  0.5676 -0.1099 -0.1295
  190SLPC   H8R21967   5.673   0.819   7.383  0.2435 -0.0715  0.9908
  190SLPC   H8S21968   5.760   0.966   7.455 -0.0114 -0.3671  0.3096
  190SLPC   C2921969   5.862   0.776   7.485 -0.4585  0.1939 -0.4742
  190SLPC   H9R21970   5.938   0.719   7.430 -1.8052 -1.0415 -1.1438
  190SLPC  C21021971   5.871   0.770   7.617 -0.1756  0.8774  0.2896
  190SLPC  H10R21972   5.938   0.696   7.663 -1.0684  1.2499  2.2979
  190SLPC  C21121973   5.785   0.833   7.725 -0.6204  0.2627 -0.2224
  190SLPC  H11R21974   5.706   0.757   7.740  0.5423 -0.5469  2.4879
  190SLPC  H11S21975   5.733   0.923   7.684  0.8417  1.4409  0.3907
  190SLPC  C21221976   5.853   0.876   7.859 -0.3155 -0.2464  0.2303
  190SLPC  H12R21977   5.880   0.983   7.858  0.1948 -0.3507  1.1213
  190SLPC  C21321978   5.884   0.795   7.966 -0.4648  0.0850 -1.1047
  190SLPC  H13R21979   5.938   0.841   8.050  0.8263 -3.4526  0.2104
  190SLPC  C21421980   5.860   0.648   7.982  0.9209 -0.2031  0.0314
  190SLPC  H14R21981   5.950   0.600   8.027 -1.2882 -2.2326  2.5740
  190SLPC  H14S21982   5.829   0.603   7.886  0.6309 -2.3835  1.0894
  190SLPC  C21521983   5.740   0.625   8.081  0.1182  0.2183 -0.3134
  190SLPC  H15R21984   5.739   0.519   8.117  3.5777  0.8280  2.1597
  190SLPC  H15S21985   5.647   0.652   8.027  0.5630  1.6984 -0.3867
  190SLPC  C21621986   5.743   0.704   8.221 -0.2752  0.7417  0.1566
  190SLPC  H16R21987   5.758   0.813   8.208 -3.8064  1.7555  2.9917
  190SLPC  H16S21988   5.828   0.677   8.288  0.4242 -0.3661 -1.1446
  190SLPC  C21721989   5.623   0.676   8.310 -0.3834  0.9994  0.2002
  190SLPC  H17R21990   5.648   0.708   8.414  3.7974  2.2240 -0.9767
  190SLPC  H17S21991   5.611   0.566   8.314 -0.7957  0.9846 -1.0349
  190SLPC  C21821992   5.498   0.746   8.253  0.1906  0.6948 -0.1844
  190SLPC  H18R21993   5.522   0.847   8.213  0.5697  0.9087  0.5585
  190SLPC  H18S21994   5.426   0.770   8.334  1.2644 -1.9881  1.6947
  190SLPC  H18T21995   5.444   0.678   8.184 -1.6893  0.5266  1.3937
  190SLPC   C3321996   6.210   0.542   7.123 -0.0498  0.6754 -0.0945
  190SLPC   H3X21997   6.187   0.650   7.110  0.1801  0.9948  1.8905
  190SLPC   H3Y21998   6.318   0.528   7.104  0.3186 -1.1099  2.7665
  190SLPC   C3421999   6.180   0.502   7.268  0.4611  1.3684  0.1142
  190SLPC   H4X22000   6.215   0.399   7.288 -2.3370  0.2690 -0.2431
  190SLPC   H4Y22001   6.071   0.493   7.286  0.9863 -2.0596  2.3608
  190SLPC   C3522002   6.222   0.608   7.365  0.2968  0.2660  0.7362
  190SLPC   H5X22003   6.185   0.709   7.339  1.0659  0.9696  2.2463
  190SLPC   H5Y22004   6.330   0.623   7.345  0.1733  0.2813  0.0580
  190SLPC   C3622005   6.186   0.571   7.510 -0.0228 -0.7151  0.4590
  190SLPC   H6X22006   6.240   0.475   7.522  1.7625  0.0123 -1.2228
  190SLPC   H6Y22007   6.075   0.563   7.515  0.0460 -2.8024 -0.4766
  190SLPC   C3722008   6.244   0.662   7.622 -0.0742  0.3243 -0.0917
  190SLPC   H7X22009   6.187   0.756   7.632  0.8033  0.6788  2.1204
  190SLPC   H7Y22010   6.348   0.683   7.589 -0.4773  1.1145 -0.8881
  190SLPC   C3822011   6.245   0.585   7.752  0.6639 -0.8538  0.5150
  190SLPC   H8X22012   6.312   0.496   7.747  0.7506 -0.7266 -1.3184
  190SLPC   H8Y22013   6.143   0.548   7.775 -0.2733 -0.5494 -2.6738
  190SLPC   C3922014   6.274   0.678   7.868 -0.5853  0.0837 -0.3258
  190SLPC   H9X22015   6.181   0.738   7.870 -0.2675  0.6317 -1.3982
  190SLPC   H9Y22016   6.354   0.754   7.856  0.0280 -0.1978  1.5251
  190SLPC  C31022017   6.268   0.600   7.997  0.4853  0.4989  0.2511
  190SLPC  H10X22018   6.339   0.518   7.971  0.5499  0.7796 -0.4584
  190SLPC  H10Y22019   6.169   0.552   8.013  1.4293 -1.0110  2.0091
  190SLPC  C31122020   6.315   0.665   8.128 -0.3073  0.3032 -0.1133
  190SLPC  H11X22021   6.370   0.757   8.100 -0.5532  0.5098  0.0793
  190SLPC  H11Y22022   6.382   0.597   8.185 -2.3914 -1.2771  0.5652
  190SLPC  C31222023   6.204   0.704   8.214  0.6043  1.0874 -0.2993
  190SLPC  H12X22024   6.130   0.622   8.212 -2.2077  3.4741 -0.2466
  190SLPC  H12Y22025   6.144   0.791   8.178  1.9854  0.9606 -3.2149
  190SLPC  C31322026   6.241   0.735   8.359 -0.3061  1.2107 -0.5699
  190SLPC  H13X22027   6.300   0.647   8.393 -2.5717  0.1126  0.7739
  190SLPC  H13Y22028   6.146   0.730   8.418  1.2896 -0.5556  2.0825
  190SLPC  C31422029   6.326   0.862   8.369  0.1926 -0.1611  0.2728
  190SLPC  H14X22030   6.261   0.948   8.339  1.7210  1.2214  0.7880
  190SLPC  H14Y22031   6.407   0.851   8.294  0.0864 -2.5883  0.4386
  190SLPC  C31522032   6.378   0.905   8.505 -0.3118  0.4192 -0.1203
  190SLPC  H15X22033   6.300   0.902   8.584  0.4861 -1.2273  0.6671
  190SLPC  H15Y22034   6.413   1.010   8.492 -0.5389  0.3624 -1.3273
  190SLPC  C31622035   6.485   0.813   8.554  0.2241  0.2483  0.4746
  190SLPC  H16X22036   6.572   0.815   8.484 -0.0563 -0.1119  0.1121
  190SLPC  H16Y22037   6.446   0.710   8.565 -1.3134  0.8571  0.9535
  190SLPC  C31722038   6.532   0.862   8.697 -0.9370  0.2498 -0.2031
  190SLPC  H17X22039   6.592   0.780   8.742  0.6987  1.1030 -0.7734
  190SLPC  H17Y22040   6.436   0.880   8.751 -0.8339 -3.0484  1.3645
  190SLPC  C31822041   6.613   0.985   8.694  0.6947 -0.2444 -0.3176
  190SLPC  H18X22042   6.702   0.961   8.632  2.4550  1.3694  1.4260
  190SLPC  H18Y22043   6.668   1.026   8.781  0.2934  3.0786 -1.4652
  190SLPC  H18Z22044   6.555   1.069   8.649  0.9353  0.0253 -0.1346
  191SLPC     N22045   2.455   4.675   5.563 -0.0820 -0.8625 -0.5512
  191SLPC   C1322046   2.570   4.756   5.606 -0.7263  0.0845  1.1224
  191SLPC  H13A22047   2.550   4.862   5.597  2.9464  0.7353 -1.2632
  191SLPC  H13B22048   2.610   4.740   5.705  1.1847 -0.6460  0.2743
  191SLPC  H13C22049   2.654   4.745   5.540 -0.3835 -1.0803  1.7283
  191SLPC   C1422050   2.441   4.688   5.413 -0.4754 -0.3893  0.5965
  191SLPC  H14A22051   2.348   4.639   5.392  0.3316 -1.6988 -0.0595
  191SLPC  H14B22052   2.436   4.789   5.375 -0.9375  0.5135  2.8568
  191SLPC  H14C22053   2.521   4.636   5.362 -0.2776 -0.8748  1.3822
  191SLPC   C1522054   2.330   4.749   5.618  0.4619  0.1981 -0.1364
  191SLPC  H15A22055   2.322   4.739   5.725  0.9622  1.1422  0.0042
  191SLPC  H15B22056   2.332   4.855   5.596  2.7303  0.6299  1.7721
  191SLPC  H15C22057   2.241   4.714   5.569 -0.3703  2.4458 -0.3666
  191SLPC   C1222058   2.465   4.535   5.614  0.8505  0.5113 -0.0367
  191SLPC  H12A22059   2.553   4.492   5.567  1.2466  0.7793  0.4496
  191SLPC  H12B22060   2.388   4.482   5.560  2.1563 -1.8806  0.3001
  191SLPC   C1122061   2.466   4.492   5.761 -0.5646 -0.7310 -0.0329
  191SLPC  H11A22062   2.499   4.386   5.759  1.1877 -0.2394  0.8201
  191SLPC  H11B22063   2.366   4.491   5.809 -0.7285 -0.0263 -0.3405
  191SLPC     P22064   2.696   4.505   5.893  0.1174 -0.1367 -0.2004
  191SLPC   O1322065   2.756   4.420   5.791  0.2284  0.5195  0.3435
  191SLPC   O1422066   2.782   4.611   5.951 -0.0494 -0.2533  0.5012
  191SLPC   O1222067   2.563   4.570   5.842 -0.0400 -0.1103 -0.0711
  191SLPC   O1122068   2.641   4.412   6.004 -0.0533 -0.4941  0.5858
  191SLPC    C122069   2.554   4.461   6.108 -0.6017 -0.5288 -0.0355
  191SLPC    HA22070   2.508   4.559   6.083  4.2970  1.5851 -2.2067
  191SLPC    HB22071   2.478   4.386   6.138 -1.2803  0.6362  1.3252
  191SLPC    C222072   2.627   4.464   6.243 -0.2162  0.2652 -0.4345
  191SLPC    HS22073   2.706   4.542   6.236 -0.0452  0.6834  3.7365
  191SLPC   O2122074   2.678   4.336   6.270 -0.9026 -0.0848  0.1291
  191SLPC   C2122075   2.805   4.330   6.286 -0.5047 -0.6245 -0.3006
  191SLPC   O2222076   2.883   4.421   6.258  0.8455  0.5653  0.3558
  191SLPC   C2222077   2.846   4.193   6.329  0.3925  0.2408 -0.4522
  191SLPC   H2R22078   2.792   4.110   6.280  2.2019 -3.0713  2.6729
  191SLPC   H2S22079   2.952   4.169   6.306  0.7348  0.4574  0.8269
  191SLPC    C322080   2.541   4.501   6.363  0.2007 -0.8060 -0.7313
  191SLPC    HX22081   2.462   4.425   6.379  0.2355 -0.9421 -1.1814
  191SLPC    HY22082   2.482   4.594   6.349 -1.4675 -1.7670 -0.3712
  191SLPC   O3122083   2.623   4.502   6.481  1.0564  0.2148  0.1053
  191SLPC   C3122084   2.646   4.618   6.541 -0.4845  0.2995 -0.4350
  191SLPC   O3222085   2.585   4.727   6.522 -0.4185  0.2230 -0.2739
  191SLPC   C3222086   2.755   4.587   6.647  0.1141 -1.0646  0.4662
  191SLPC   H2X22087   2.794   4.685   6.681 -0.3601 -0.2401 -1.2554
  191SLPC   H2Y22088   2.842   4.543   6.594  0.6113  1.2293 -0.7536
  191SLPC   C2322089   2.840   4.174   6.477 -0.1233 -0.2222 -0.0752
  191SLPC   H3R22090   2.731   4.184   6.497 -0.3286  0.3624 -1.3928
  191SLPC   H3S22091   2.883   4.253   6.542 -1.4384  0.2030  0.3191
  191SLPC   C2422092   2.876   4.028   6.523  0.0303 -1.6230 -0.3501
  191SLPC   H4R22093   2.982   4.000   6.504  0.6986  0.6684 -0.2409
  191SLPC   H4S22094   2.804   3.966   6.465 -2.1031  1.0539 -0.7191
  191SLPC   C2522095   2.848   4.011   6.673  0.4547  0.0956  0.8547
  191SLPC   H5R22096   2.755   3.954   6.692  0.1919 -0.3243 -1.4140
  191SLPC   H5S22097   2.839   4.106   6.730 -1.7230  0.7448 -0.4741
  191SLPC   C2622098   2.957   3.925   6.736 -0.3822 -1.0153 -0.0121
  191SLPC   H6R22099   3.054   3.978   6.727 -1.4122  1.8570  3.3150
  191SLPC   H6S22100   2.967   3.838   6.668 -0.1018  0.1497 -1.5302
  191SLPC   C2722101   2.940   3.875   6.877 -0.2630 -0.0042 -0.2585
  191SLPC   H7R22102   3.038   3.837   6.914 -1.0593 -1.6043  0.2871
  191SLPC   H7S22103   2.867   3.792   6.868 -0.8955  0.5213 -0.0562
  191SLPC   C2822104   2.890   3.982   6.981 -0.2178  0.3341 -0.4316
  191SLPC   H8R22105   2.866   3.911   7.063  2.9134  0.3060  0.5881
  191SLPC   H8S22106   2.803   4.040   6.943 -1.4664 -0.5603  0.9146
  191SLPC   C2922107   2.996   4.069   7.026 -0.4875 -0.0514  0.3451
  191SLPC   H9R22108   3.071   4.102   6.953 -1.6413  1.3735 -0.2471
  191SLPC  C21022109   3.008   4.110   7.148  0.5630 -0.2987 -0.4994
  191SLPC  H10R22110   3.089   4.182   7.169  1.6216 -1.5781 -0.0767
  191SLPC  C21122111   2.934   4.072   7.277  0.3918  0.6578 -0.4862
  191SLPC  H11R22112   2.991   3.987   7.320  1.6907  0.1113 -3.0675
  191SLPC  H11S22113   2.834   4.026   7.261  0.8252 -0.5006  0.0316
  191SLPC  C21222114   2.919   4.190   7.368  0.1719  0.2811 -0.7163
  191SLPC  H12R22115   2.859   4.271   7.324  3.7226  2.3033 -2.3216
  191SLPC  C21322116   2.973   4.195   7.492 -0.1612 -0.2065 -0.7036
  191SLPC  H13R22117   2.954   4.281   7.559 -0.9955 -0.9030 -0.0229
  191SLPC  C21422118   3.059   4.091   7.560 -0.8078 -0.4753  0.1572
  191SLPC  H14R22119   3.114   4.132   7.647  1.5077 -2.0836 -0.4368
  191SLPC  H14S22120   3.138   4.060   7.488 -0.1817  0.4456  0.4291
  191SLPC  C21522121   2.990   3.972   7.625 -0.9510  0.3040 -0.0233
  191SLPC  H15R22122   3.062   3.908   7.681 -0.1451  1.3911  0.2318
  191SLPC  H15S22123   2.957   3.910   7.540  1.3998 -0.0539 -0.7459
  191SLPC  C21622124   2.892   4.013   7.731 -0.2070 -0.0793  0.2532
  191SLPC  H16R22125   2.831   4.102   7.704  1.1886  1.6514  2.4782
  191SLPC  H16S22126   2.947   4.051   7.819 -1.1245  1.3449  0.2461
  191SLPC  C21722127   2.805   3.897   7.778  0.2364  0.0119  0.1516
  191SLPC  H17R22128   2.871   3.815   7.813 -0.1009  0.2164  1.3103
  191SLPC  H17S22129   2.749   3.862   7.688 -1.5943  1.7443  0.5478
  191SLPC  C21822130   2.692   3.932   7.887 -0.3223 -0.6158  0.1001
  191SLPC  H18R22131   2.599   3.882   7.849  0.3017 -1.6959 -0.0513
  191SLPC  H18S22132   2.674   4.041   7.888  1.4149 -0.3060 -0.0983
  191SLPC  H18T22133   2.719   3.894   7.987  1.1858 -2.4492 -0.9348
  191SLPC   C3322134   2.699   4.513   6.767  0.0336  0.2731  0.1704
  191SLPC   H3X22135   2.621   4.444   6.729 -1.1522  1.5943  0.1069
  191SLPC   H3Y22136   2.648   4.584   6.836 -0.1166  0.4788 -0.1508
  191SLPC   C3422137   2.816   4.431   6.833  0.0334  0.2027  0.2109
  191SLPC   H4X22138   2.885   4.504   6.881  1.7590 -0.9145 -0.4711
  191SLPC   H4Y22139   2.862   4.367   6.755 -2.2522  0.3326 -1.3508
  191SLPC   C3522140   2.762   4.339   6.940  0.7730 -0.0429 -0.2588
  191SLPC   H5X22141   2.833   4.261   6.972 -1.1135 -2.1353 -0.8918
  191SLPC   H5Y22142   2.686   4.280   6.884 -0.4502  0.1122  1.1755
  191SLPC   C3622143   2.682   4.419   7.048 -0.5223  0.1957 -0.1996
  191SLPC   H6X22144   2.610   4.352   7.100 -0.8292  0.5778 -0.1224
  191SLPC   H6Y22145   2.608   4.486   6.999  1.1050  1.2539 -1.3053
  191SLPC   C3722146   2.757   4.506   7.147  0.6555  0.4018  0.3409
  191SLPC   H7X22147   2.825   4.579   7.098 -0.5052  0.4678 -1.2394
  191SLPC   H7Y22148   2.821   4.435   7.203 -0.5595  0.0399  1.3118
  191SLPC   C3822149   2.658   4.569   7.246  0.2083  0.0826  0.3224
  191SLPC   H8X22150   2.594   4.482   7.271 -0.5320  0.4483 -0.2511
  191SLPC   H8Y22151   2.580   4.632   7.198 -2.4711 -2.0635  1.6168
  191SLPC   C3922152   2.725   4.626   7.366 -0.4325 -0.4863 -0.4395
  191SLPC   H9X22153   2.787   4.713   7.333 -3.2138  2.0113  0.4270
  191SLPC   H9Y22154   2.781   4.545   7.416 -2.4472 -0.7118  1.6534
  191SLPC  C31022155   2.635   4.684   7.472 -0.1866 -0.2609  0.3628
  191SLPC  H10X22156   2.561   4.609   7.508 -1.1009 -0.2639 -1.4082
  191SLPC  H10Y22157   2.583   4.775   7.434 -1.9896 -1.9577 -1.4664
  191SLPC  C31122158   2.705   4.717   7.603 -0.0517  0.1096 -0.4279
  191SLPC  H11X22159   2.799   4.775   7.591  1.1733 -1.5697  0.5555
  191SLPC  H11Y22160   2.749   4.624   7.645  0.0447  0.2953 -0.1088
  191SLPC  C31222161   2.611   4.771   7.717  0.5886 -0.0994  0.9386
  191SLPC  H12X22162   2.519   4.709   7.725 -0.4278  1.4034  1.2747
  191SLPC  H12Y22163   2.568   4.866   7.681 -0.5926 -0.6566  0.8179
  191SLPC  C31322164   2.679   4.789   7.855  0.7097 -0.0041  0.2038
  191SLPC  H13X22165   2.753   4.871   7.848  1.9012 -0.9859  0.8277
  191SLPC  H13Y22166   2.738   4.698   7.878  0.8096  0.0790  0.2797
  191SLPC  C31422167   2.575   4.829   7.956 -0.2297  0.0256  0.1037
  191SLPC  H14X22168   2.497   4.750   7.958 -0.4418  0.1447 -1.6610
  191SLPC  H14Y22169   2.526   4.921   7.917  0.9771  0.4409 -0.4800
  191SLPC  C31522170   2.634   4.860   8.090 -1.2592  0.2642  0.0811
  191SLPC  H15X22171   2.740   4.893   8.084 -0.8792 -0.5649  1.8337
  191SLPC  H15Y22172   2.642   4.766   8.147 -1.1245 -0.8941 -1.7628
  191SLPC  C31622173   2.552   4.963   8.180 -0.3798 -0.0911 -0.8802
  191SLPC  H16X22174   2.506   5.044   8.120  1.7640  2.0799  0.1880
  191SLPC  H16Y22175   2.625   5.006   8.252 -0.1075  0.5796 -1.5497
  191SLPC  C31722176   2.458   4.886   8.268 -0.2657 -0.4315 -0.1535
  191SLPC  H17X22177   2.448   4.941   8.364 -0.2739 -1.4896  0.4710
  191SLPC  H17Y22178   2.500   4.785   8.286  2.3138  0.0926 -2.5614
  191SLPC  C31822179   2.318   4.871   8.211 -0.2099  0.1655  0.3301
  191SLPC  H18X22180   2.264   4.963   8.244  1.2682  1.3817 -0.5679
  191SLPC  H18Y22181   2.265   4.778   8.243  0.5007 -0.5446 -0.5171
  191SLPC  H18Z22182   2.323   4.875   8.101 -3.4370  0.5905  0.0920
  192SLPC     N22183   3.335   4.875   6.094 -0.2034 -0.5199  0.2902
  192SLPC   C1322184   3.298   4.792   5.979 -0.2234  0.1107 -0.1767
  192SLPC  H13A22185   3.362   4.707   5.961  0.0653  0.3308 -0.2194
  192SLPC  H13B22186   3.203   4.743   5.989 -1.3344  2.2949  0.7811
  192SLPC  H13C22187   3.302   4.852   5.890  1.4235 -1.4140 -1.1928
  192SLPC   C1422188   3.255   5.002   6.078  0.0068 -0.0462 -0.5990
  192SLPC  H14A22189   3.282   5.056   5.988  1.6789 -2.5121 -1.6820
  192SLPC  H14B22190   3.153   4.974   6.059 -0.1747 -0.4455  0.8738
  192SLPC  H14C22191   3.261   5.061   6.168  2.6051 -0.4423 -0.4171
  192SLPC   C1522192   3.479   4.903   6.074 -0.1598 -1.3968  0.3346
  192SLPC  H15A22193   3.488   4.938   5.972 -0.9453 -1.0555  0.3719
  192SLPC  H15B22194   3.514   4.962   6.157  0.1740 -2.8074  1.2174
  192SLPC  H15C22195   3.528   4.809   6.095  1.9027 -0.6744 -0.9242
  192SLPC   C1222196   3.300   4.800   6.217 -0.2874 -0.1209 -0.2092
  192SLPC  H12A22197   3.194   4.777   6.220 -0.9518  2.6863 -0.1389
  192SLPC  H12B22198   3.317   4.880   6.288  5.4276  0.1168 -1.3854
  192SLPC   C1122199   3.369   4.671   6.264 -0.3379 -0.4999 -0.4086
  192SLPC  H11A22200   3.347   4.587   6.194  0.1312 -0.9030 -0.0718
  192SLPC  H11B22201   3.331   4.646   6.365  1.2462 -2.5421 -0.2708
  192SLPC     P22202   3.583   4.766   6.384 -0.0933  0.2059 -0.4419
  192SLPC   O1322203   3.725   4.760   6.361 -0.1023 -0.2122  0.4863
  192SLPC   O1422204   3.516   4.896   6.405  0.7741  0.0529 -0.0421
  192SLPC   O1222205   3.513   4.679   6.271 -0.1099 -0.4111 -0.0882
  192SLPC   O1122206   3.536   4.668   6.516  0.0240  0.0057  0.5571
  192SLPC    C122207   3.550   4.524   6.492  0.1709  0.0048  0.4040
  192SLPC    HA22208   3.446   4.485   6.486  0.1650 -0.6247  3.2271
  192SLPC    HB22209   3.600   4.491   6.399  0.5467 -1.2864  1.0362
  192SLPC    C222210   3.636   4.442   6.590 -0.8359  0.1054  0.8758
  192SLPC    HS22211   3.646   4.334   6.566 -2.4570  0.5440 -2.3930
  192SLPC   O2122212   3.588   4.465   6.721 -0.0841 -0.3523  0.5721
  192SLPC   C2122213   3.486   4.389   6.757  0.6658 -0.7722  0.2054
  192SLPC   O2222214   3.414   4.333   6.675 -0.1584 -0.6948 -0.2875
  192SLPC   C2222215   3.465   4.392   6.908 -1.3695  0.2351 -0.1921
  192SLPC   H2R22216   3.535   4.319   6.953  0.4652  1.7726 -0.4059
  192SLPC   H2S22217   3.489   4.487   6.960 -0.6884 -0.3701  0.6174
  192SLPC    C322218   3.781   4.495   6.579 -0.0843  0.0264  0.4020
  192SLPC    HX22219   3.782   4.605   6.594  1.4310 -0.2964  3.8581
  192SLPC    HY22220   3.809   4.473   6.474 -1.5074  0.5057 -0.0943
  192SLPC   O3122221   3.870   4.441   6.680 -0.0059 -0.4189  0.3498
  192SLPC   C3122222   3.936   4.327   6.643 -0.5252 -0.2915  0.4188
  192SLPC   O3222223   3.934   4.281   6.529  0.3226  0.0832 -0.1997
  192SLPC   C3222224   4.013   4.275   6.769  0.3597  0.4470  0.0666
  192SLPC   H2X22225   3.952   4.200   6.824  2.1042 -0.1380  1.3067
  192SLPC   H2Y22226   4.021   4.358   6.843  0.6686  2.0177 -1.6621
  192SLPC   C2322227   3.327   4.340   6.954 -0.0494  0.3867 -0.5491
  192SLPC   H3R22228   3.329   4.305   7.059  0.7191  0.2015 -0.6163
  192SLPC   H3S22229   3.305   4.251   6.891 -0.1434  0.1480 -0.1809
  192SLPC   C2422230   3.221   4.443   6.927  0.6011  0.3660  0.1163
  192SLPC   H4R22231   3.119   4.409   6.957 -1.0290  3.2460 -1.7236
  192SLPC   H4S22232   3.213   4.463   6.818 -2.8324 -0.5154  0.0876
  192SLPC   C2522233   3.250   4.583   6.987  0.7785 -0.8009  0.0199
  192SLPC   H5R22234   3.175   4.655   6.948  0.1469 -0.6784  1.4072
  192SLPC   H5S22235   3.347   4.625   6.953 -0.5741  0.4115 -2.6945
  192SLPC   C2622236   3.246   4.586   7.142  0.6779  0.6813 -0.9431
  192SLPC   H6R22237   3.225   4.690   7.173  0.6431  1.0935 -2.3009
  192SLPC   H6S22238   3.344   4.559   7.188 -0.1510 -0.6515  0.1402
  192SLPC   C2722239   3.134   4.506   7.210 -0.0863 -0.5312  0.3768
  192SLPC   H7R22240   3.145   4.395   7.208 -1.1778 -0.6874  1.5100
  192SLPC   H7S22241   3.044   4.536   7.152  0.5854  0.9357  0.0391
  192SLPC   C2822242   3.124   4.549   7.356 -0.2764  0.1616  0.5904
  192SLPC   H8R22243   3.032   4.500   7.395 -0.5887 -1.2024 -1.7194
  192SLPC   H8S22244   3.092   4.655   7.357 -0.0910  0.2432 -0.6549
  192SLPC   C2922245   3.246   4.520   7.447 -0.5553 -0.5171  0.7348
  192SLPC   H9R22246   3.324   4.464   7.394 -0.6625 -1.9355  1.9989
  192SLPC  C21022247   3.248   4.556   7.574 -0.2057  0.2933  0.0608
  192SLPC  H10R22248   3.346   4.539   7.620 -0.2694  1.2740  0.5710
  192SLPC  C21122249   3.140   4.625   7.653  0.2470  0.4832 -0.8867
  192SLPC  H11R22250   3.083   4.702   7.597 -0.1977  0.5417 -0.3552
  192SLPC  H11S22251   3.181   4.671   7.746  0.6356 -1.1740 -0.2025
  192SLPC  C21222252   3.035   4.521   7.697  0.0367 -0.3614  0.3709
  192SLPC  H12R22253   2.948   4.516   7.630  0.3213 -1.6452  0.0610
  192SLPC  C21322254   3.033   4.442   7.806 -0.3176  0.3136  0.5080
  192SLPC  H13R22255   2.942   4.382   7.819 -0.6505  0.9702  1.3059
  192SLPC  C21422256   3.131   4.420   7.916  0.5788  0.9133  0.3919
  192SLPC  H14R22257   3.215   4.492   7.905  0.1483  1.0139 -3.6961
  192SLPC  H14S22258   3.182   4.323   7.899  0.4481  1.2928 -2.8389
  192SLPC  C21522259   3.067   4.410   8.057  0.0368 -0.7229  0.6525
  192SLPC  H15R22260   2.984   4.482   8.075  0.6250 -0.1086  0.9670
  192SLPC  H15S22261   3.135   4.438   8.140  1.2437  0.6829 -0.7220
  192SLPC  C21622262   3.009   4.267   8.080 -0.4651 -0.0700 -0.5706
  192SLPC  H16R22263   3.095   4.202   8.106 -1.3399 -0.8236  0.5432
  192SLPC  H16S22264   2.970   4.226   7.985  2.1302 -1.3010 -1.1731
  192SLPC  C21722265   2.910   4.252   8.197 -0.0569 -0.5773  0.8234
  192SLPC  H17R22266   2.971   4.264   8.289  0.8211 -0.2026  0.2138
  192SLPC  H17S22267   2.828   4.327   8.194  0.3868 -0.0931 -1.4421
  192SLPC  C21822268   2.846   4.120   8.192  0.2836  0.0646  0.8307
  192SLPC  H18R22269   2.746   4.136   8.237 -1.2408 -0.4898 -2.1273
  192SLPC  H18S22270   2.899   4.036   8.242 -0.3130 -1.0210 -0.3221
  192SLPC  H18T22271   2.828   4.091   8.087  2.8572 -0.0620  0.3599
  192SLPC   C3322272   4.149   4.208   6.740 -0.0572 -0.2843 -0.8776
  192SLPC   H3X22273   4.210   4.289   6.693  1.8036 -0.4277  1.0909
  192SLPC   H3Y22274   4.148   4.121   6.671 -1.3606 -0.4045 -0.7167
  192SLPC   C3422275   4.208   4.160   6.875 -0.4212  0.1287 -0.4224
  192SLPC   H4X22276   4.248   4.246   6.932 -0.3984 -1.0889  1.4952
  192SLPC   H4Y22277   4.296   4.096   6.852  0.8465  1.6346  0.0761
  192SLPC   C3522278   4.126   4.070   6.977 -0.5358 -0.5286  0.3173
  192SLPC   H5X22279   4.095   3.981   6.919  0.8545  0.2755 -1.7826
  192SLPC   H5Y22280   4.038   4.133   6.999  0.7107  0.5706  2.5252
  192SLPC   C3622281   4.201   4.041   7.108  0.3929  0.0144  0.3939
  192SLPC   H6X22282   4.190   4.131   7.172 -0.7019 -0.6982  1.2619
  192SLPC   H6Y22283   4.310   4.028   7.086  0.4054  0.0388  0.4405
  192SLPC   C3722284   4.134   3.926   7.185  0.0877  0.5230 -0.2302
  192SLPC   H7X22285   4.129   3.842   7.112  0.7502  0.0546  0.2512
  192SLPC   H7Y22286   4.035   3.957   7.225  1.7198  0.2601  4.7645
  192SLPC   C3822287   4.224   3.891   7.308  0.2249 -0.2646  0.7300
  192SLPC   H8X22288   4.315   3.846   7.262  1.5982  0.9747  2.0937
  192SLPC   H8Y22289   4.176   3.805   7.359  1.2123 -0.9430  0.5549
  192SLPC   C3922290   4.266   4.003   7.406 -0.4429 -0.0689  0.6575
  192SLPC   H9X22291   4.329   4.069   7.343  1.4673  0.6327  3.1200
  192SLPC   H9Y22292   4.333   3.962   7.485  0.1302  0.9406  0.7128
  192SLPC  C31022293   4.141   4.070   7.462  0.4696 -0.1114 -0.1474
  192SLPC  H10X22294   4.074   3.993   7.506  1.2524  0.7020  2.7111
  192SLPC  H10Y22295   4.092   4.132   7.384 -1.9673 -0.0470  1.3176
  192SLPC  C31122296   4.172   4.172   7.577  0.9347  0.1891 -0.3870
  192SLPC  H11X22297   4.082   4.234   7.598 -0.2029 -1.0869 -1.2836
  192SLPC  H11Y22298   4.247   4.243   7.538  2.2724 -0.5083  0.8222
  192SLPC  C31222299   4.208   4.104   7.709 -0.6568 -0.7030  0.0199
  192SLPC  H12X22300   4.315   4.077   7.700 -0.5856  0.1417 -2.4263
  192SLPC  H12Y22301   4.147   4.012   7.726 -3.2797  1.1222  1.0102
  192SLPC  C31322302   4.175   4.196   7.826 -0.1993 -0.4753 -1.0036
  192SLPC  H13X22303   4.065   4.205   7.838 -0.4743  0.5012 -3.5652
  192SLPC  H13Y22304   4.225   4.293   7.806  1.6703 -1.3108 -0.5383
  192SLPC  C31422305   4.235   4.147   7.961  0.0222  0.7803  0.8395
  192SLPC  H14X22306   4.339   4.112   7.942  0.5874  3.5975 -2.3509
  192SLPC  H14Y22307   4.186   4.057   8.002  0.2003  0.5928  0.6493
  192SLPC  C31522308   4.230   4.262   8.062 -1.0867  0.1403 -0.8617
  192SLPC  H15X22309   4.134   4.316   8.042 -0.8732  0.1605 -1.8890
  192SLPC  H15Y22310   4.318   4.324   8.034 -1.0809  0.4319 -0.2332
  192SLPC  C31622311   4.233   4.212   8.206 -0.0835  0.2655  0.1421
  192SLPC  H16X22312   4.283   4.282   8.276  0.6140  0.1213 -0.1968
  192SLPC  H16Y22313   4.292   4.118   8.209  0.7646  0.7798  0.0977
  192SLPC  C31722314   4.089   4.193   8.265 -0.3420 -0.5000  0.3016
  192SLPC  H17X22315   4.041   4.291   8.285 -0.4777 -0.2882 -1.0000
  192SLPC  H17Y22316   4.114   4.142   8.361  1.2563 -0.5820 -0.1280
  192SLPC  C31822317   4.005   4.087   8.197  0.1419  0.3500 -0.0996
  192SLPC  H18X22318   3.913   4.054   8.251 -0.3992  0.4413 -0.9543
  192SLPC  H18Y22319   4.069   3.999   8.176 -2.8934 -2.2244  0.6970
  192SLPC  H18Z22320   3.976   4.128   8.098  1.8470  0.4199 -0.6053
  193SOD    SOD22321   1.075   5.120   5.922  0.4849 -0.0310 -0.2074
  194SOD    SOD22322   2.044   0.601  14.695  0.3061 -0.4740 -0.1014
  195SOD    SOD22323   2.198   5.493  11.696  0.2163 -0.2405 -0.5221
  196SOD    SOD22324   0.988   6.447  10.666 -0.7340 -0.2119  0.1658
  197SOD    SOD22325   6.222   1.797   5.649  0.4316 -0.0036 -0.2045
  198SOD    SOD22326   1.949   3.023  15.145 -0.1015  0.3843  0.4855
  199SOD    SOD22327   2.107   4.072  11.586  0.2510 -0.1804 -0.1348
  200SOD    SOD22328   0.331   0.027   5.152 -0.5471 -0.2416  0.1546
  201SOD    SOD22329   2.451   6.176   4.429  0.2987  0.4516 -0.0165
  202SOD    SOD22330   2.519   4.556  11.329 -0.0685 -0.0792 -0.1119
  203SOD    SOD22331   4.020   2.557  12.043 -0.3911 -0.1949  0.7447
  204SOD    SOD22332   4.669   5.732  11.147  0.0675 -0.0877 -0.0663
  205SOD    SOD22333   5.214   6.661   6.277 -0.0021 -0.1911 -0.0013
  206SOD    SOD22334   2.823   5.726  16.661 -0.4837  0.2458 -0.1704
  207SOD    SOD22335   5.166   0.323   1.499  0.3183 -0.0058  0.2280
  208SOD    SOD22336   1.123   0.375  10.922 -0.3944 -0.1905 -0.3436
  209SOD    SOD22337   5.094   6.466   3.447 -0.5187  0.1287 -0.1263
  210SOD    SOD22338   6.807   0.981  12.942 -0.3540 -0.0041  0.4440
  211SOD    SOD22339   0.033   4.890   4.612  0.7788  0.1067  0.4622
  212SOD    SOD22340   3.740   5.926   6.458  0.3190 -0.3158 -0.0746
  213SOD    SOD22341   6.075   6.525  16.557 -0.1408 -0.3689  0.3305
  214SOD    SOD22342   4.343   0.965   1.994  0.2435 -0.1551 -0.2127
  215SOD    SOD22343   0.527   4.499   3.571  0.2626 -0.1377 -0.4151
  216SOD    SOD22344   6.368   3.681  15.724  0.4612 -0.0253 -0.1021
  217SOD    SOD22345   3.910   5.798   2.081  0.0483  0.8124  0.5615
  218SOD    SOD22346   6.143   0.010   3.103 -0.2437 -0.5378  0.2581
  219SOD    SOD22347   2.502   2.761  13.658 -0.3872 -0.2644  0.1897
  220SOD    SOD22348   0.004   5.872  12.234  0.4931 -0.0875  0.1469
  221SOD    SOD22349   4.277   1.999   5.049  0.4531 -0.2034  0.2943
  222SOD    SOD22350   3.151   4.319   4.618  0.3230 -0.6483 -0.6013
  223SOD    SOD22351   2.221   1.815   5.824  0.2903  0.0843  0.0427
  224SOD    SOD22352   0.887   3.113  10.515 -0.2583  0.1229  0.7480
  225SOD    SOD22353   4.895   3.349   1.035 -0.4051 -0.1694 -0.8077
  226SOD    SOD22354   1.180   5.025  10.911 -0.1791  0.0989  0.4581
  227SOD    SOD22355   4.248   5.103  11.227 -0.1896  0.2025  0.4304
  228SOD    SOD22356   1.051   3.741  12.251 -0.1438  0.3616 -0.0257
  229SOD    SOD22357   3.323   4.076   6.015  0.3036 -0.8628  0.0247
  230SOD    SOD22358   5.461   5.389  15.709 -0.0191 -0.9643  0.2117
  231SOD    SOD22359   3.865   0.690   6.408  0.3726  0.1063  0.3286
  232SOD    SOD22360   5.789   1.078  14.959 -0.0908  0.2021 -0.2109
  233SOD    SOD22361   4.797   4.581  11.856  0.5349 -0.0261  0.0959
  234SOD    SOD22362   0.950   4.215   5.977 -0.6505 -0.1600  0.2482
  235SOD    SOD22363   6.530   2.626  14.581 -0.1521  0.0302 -0.2461
  236SOD    SOD22364   1.919   2.873  14.093 -0.0977 -0.7773 -0.2691
  237SOD    SOD22365   3.422   3.687   5.456 -0.2245  0.5206 -0.1156
  238SOD    SOD22366   0.829   0.814  16.774 -0.4095 -0.0159  0.2265
  239SOD    SOD22367   3.249   3.940   0.093  0.5934 -0.5262 -0.8072
  240SOD    SOD22368   0.969   0.859   3.718 -0.1908  0.3414 -0.3312
  241SOD    SOD22369   3.085   6.351  12.826 -0.2758 -0.1724 -0.6640
  242SOD    SOD22370   1.014   6.591   6.118  0.3957 -0.2306  0.0175
  243SOD    SOD22371   3.062   1.413  12.738  0.3424 -0.1949 -0.0850
  244SOD    SOD22372   1.792   3.379  15.638 -0.3219 -0.1576  0.5431
  245SOD    SOD22373   2.536   1.646  15.750  0.1127  0.2174  0.5084
  246SOD    SOD22374   4.570   4.260   5.736  0.2437 -0.2924 -0.3049
  247SOD    SOD22375   3.287   5.010   5.100 -0.0463  0.3919  0.3067
  248SOD    SOD22376   5.457   3.269   2.935  0.5786  0.2778  0.2776
  249SOD    SOD22377   1.066   6.431   4.079  0.0527 -0.0538  0.1280
  250SOD    SOD22378   2.840   0.779  10.675  0.1087  0.2825 -0.2624
  251SOD    SOD22379   6.329   0.806  16.443 -0.3782 -0.0144 -0.1979
  252SOD    SOD22380   0.871   1.513   4.567 -0.6179 -0.0135  0.6085
  253SOD    SOD22381   5.759   4.220  10.748 -0.0048 -0.3560 -0.0259
  254SOD    SOD22382   3.833   5.229   1.426 -0.2839 -0.1563 -0.0772
  255SOD    SOD22383   4.204   1.805   3.443 -0.0707 -0.2978  0.0464
  256SOD    SOD22384   1.817   0.937  16.490  0.1606  0.0361  0.1942
  257SOD    SOD22385   1.132   2.124   5.580  0.8289 -0.4028  0.2756
  258SOD    SOD22386   0.847   2.727   2.575  0.8200 -0.2732  0.0141
  259SOD    SOD22387   0.473   3.819   0.741 -0.1543  0.0158 -0.2165
  260SOD    SOD22388   6.720   3.394  15.040  0.3806  0.0511 -0.2051
  261SOD    SOD22389   6.478   6.231   2.165  1.0052  0.6332 -0.0394
  262SOD    SOD22390   5.501   6.051  14.528 -0.1342  0.4370 -0.1142
  263SOD    SOD22391   2.234   5.413   2.198 -0.1414  0.0944  0.3976
  264SOD    SOD22392   6.558   1.451  11.122  0.3500  0.1615  0.4724
  265SOD    SOD22393   4.768   2.168   1.044  0.0078 -0.4070  0.0832
  266CLA    CLA22394   3.569   0.319   4.971 -0.1930  0.0735  0.0267
  267CLA    CLA22395   1.173   1.086  15.781 -0.0699  0.0142  0.0411
  268CLA    CLA22396   1.040   1.723   4.623  0.4311  0.0348  0.2133
  269CLA    CLA22397   1.436   2.106  11.774  0.0443  0.0433 -0.1690
  270CLA    CLA22398   3.974   1.242  12.339  0.3155  0.1043  0.0290
  271CLA    CLA22399   0.548   3.808  12.327  0.2257 -0.4282 -0.2269
  272CLA    CLA22400   5.609   6.422  16.464  0.1639 -0.0286  0.2907
  273CLA    CLA22401   6.556   4.250  11.739 -0.3661 -0.3076  0.0474
  274CLA    CLA22402   5.122   1.890   3.443 -0.1789 -0.0406  0.0248
  275CLA    CLA22403   4.352   0.497  13.601  0.0029 -0.0546  0.2108
  276CLA    CLA22404   5.733   1.066   1.897 -0.0217 -0.1584  0.0125
  277CLA    CLA22405   5.343   3.815   1.702  0.0533  0.0267 -0.1012
  278CLA    CLA22406   4.512   5.457  14.360 -0.4806  0.1212  0.1137
  279CLA    CLA22407   2.075   1.598   1.726 -0.4422 -0.0397  0.2159
  280CLA    CLA22408   5.191   3.140   3.512 -0.1582  0.4434  0.5021
  281CLA    CLA22409   1.514   4.090   3.477 -0.3027  0.0159 -0.1455
  282CLA    CLA22410   6.819   0.487  16.704  0.0842  0.3812 -0.0493
  283CLA    CLA22411   6.661   3.457  15.314  0.1555  0.1279 -0.1456
  284CLA    CLA22412   5.138   4.840   0.786  0.0690  0.1355  0.0231
  285CLA    CLA22413   6.345   5.593   3.298  0.1839 -0.0572 -0.0719
  286CLA    CLA22414   4.814   1.543  16.106 -0.1321 -0.4584  0.0315
  287CLA    CLA22415   2.435   0.829  12.058 -0.1205 -0.2026 -0.1244
  288CLA    CLA22416   3.605   5.226  15.778 -0.2807  0.3240 -0.2809
  289CLA    CLA22417   0.651   0.916   3.413  0.1094  0.0689  0.1763
  290CLA    CLA22418   0.368   3.657   3.672  0.0134 -0.0201  0.0627
  291CLA    CLA22419   4.912   2.031  13.082  0.3597  0.0545  0.0895
  292CLA    CLA22420   6.299   0.235  15.723  0.0119 -0.2132  0.4928
  293CLA    CLA22421   5.754   5.153   4.402  0.6852  0.2918  0.0002
  294CLA    CLA22422   2.513   5.402   2.136  0.0195  0.1773 -0.1582
  295CLA    CLA22423   2.918   3.160   0.319  0.0702  0.4689  0.0324
  296CLA    CLA22424   5.203   2.990   2.464  0.1673 -0.4046  0.2181
  297CLA    CLA22425   4.950   3.697  15.903  0.4625 -0.0021  0.4695
  298CLA    CLA22426   2.732   1.032  15.874 -0.1027 -0.1898  0.1135
  299CLA    CLA22427   3.048   0.594   1.810 -0.4647 -0.1184  0.2149
  300CLA    CLA22428   5.111   5.531   3.641  0.3095 -0.2843 -0.0131
  301CLA    CLA22429   1.406   4.972  13.105 -0.1252  0.2054 -0.2727
  302CLA    CLA22430   5.904   2.258  14.601 -0.1220 -0.2029  0.5298
  303CLA    CLA22431   6.564   2.256   1.950 -0.1897  0.0448  0.1761
  304CLA    CLA22432   2.060   4.458   0.774 -0.3398 -0.5563 -0.5269
  305CLA    CLA22433   2.836   4.635   4.784  0.2590 -0.5263 -0.0672
  306CLA    CLA22434   5.611   4.647   5.470  0.6096  0.1622  0.0191
  307CLA    CLA22435   0.124   0.842  12.519  0.1937  0.2444  0.1329
  308CLA    CLA22436   2.119   5.327   0.687 -0.0641  0.4860  0.0999
  309CLA    CLA22437   3.798   2.361  12.632 -0.0115  0.2235  0.0407
  310CLA    CLA22438   2.063   5.094   3.845  0.4379  0.0786 -0.3329
  311CLA    CLA22439   0.676   1.923  12.186 -0.2424  0.4048 -0.2746
  312CLA    CLA22440   1.891   6.272   4.503 -0.2921 -0.2851  0.2109
  313CLA    CLA22441   6.600   0.323  14.228  0.0295  0.2798  0.1170
  314CLA    CLA22442   6.566   1.290   5.760 -0.5045 -0.1964  0.0255
  315CLA    CLA22443   5.831   4.469   1.085  0.4646  0.3146 -0.0855
  316CLA    CLA22444   3.185   5.935  14.136 -0.4389 -0.2208  0.3318
  317CLA    CLA22445   6.069   0.737  16.487 -0.2928 -0.1804 -0.1322
  318CLA    CLA22446   0.897   3.702  16.573  0.0583 -0.0192 -0.4993
  319TIP3   OH222447   2.475   4.480   4.222  0.5417 -0.4299 -0.7850
  319TIP3    H122448   2.408   4.433   4.172  0.1645  0.6855 -1.3549
  319TIP3    H222449   2.512   4.543   4.159  3.5511 -2.3156 -1.1348
  320TIP3   OH222450   6.002   2.235  16.206  0.4476  0.2769  0.6772
  320TIP3    H122451   6.078   2.213  16.151  2.0847  0.0348  2.8905
  320TIP3    H222452   5.958   2.152  16.221  1.5839 -0.1211  1.9210
  321TIP3   OH222453   5.114   4.050   5.194 -0.4645 -0.5224  0.1294
  321TIP3    H122454   5.179   4.119   5.201 -0.9381  0.0507 -0.8894
  321TIP3    H222455   5.031   4.097   5.179 -1.1149 -1.2318  1.3303
  322TIP3   OH222456   3.990   6.656   5.034  0.2025  0.0082 -0.3276
  322TIP3    H122457   4.041   6.701   5.102 -0.9868  1.0189 -0.0683
  322TIP3    H222458   3.962   6.726   4.975 -1.3620 -0.4270 -0.1348
  323TIP3   OH222459   3.969   3.830   3.030  0.5419 -0.2582  0.1418
  323TIP3    H122460   3.978   3.894   3.100  0.3604 -1.6660  1.5013
  323TIP3    H222461   3.878   3.837   3.002  0.5098  0.0340  0.3204
  324TIP3   OH222462   3.897   1.188   4.570  0.1734 -0.2501 -0.2138
  324TIP3    H122463   3.876   1.172   4.662 -0.5200 -2.6362 -0.7087
  324TIP3    H222464   3.971   1.130   4.552  0.7024  0.6525 -1.0041
  325TIP3   OH222465   2.437   4.117   6.170  0.2811 -0.1280 -0.3053
  325TIP3    H122466   2.369   4.141   6.232  2.2721  1.4633  1.4481
  325TIP3    H222467   2.398   4.129   6.083 -1.0138  2.9223  0.5893
  326TIP3   OH222468   6.153   5.258  17.133  0.1561 -0.2512 -0.3057
  326TIP3    H122469   6.112   5.309  17.204  1.3163 -0.4621  0.5568
  326TIP3    H222470   6.246   5.282  17.138  0.6175 -1.9047 -0.3366
  327TIP3   OH222471   0.586   4.098   4.514  0.2897  0.4024  0.1318
  327TIP3    H122472   0.585   4.004   4.499 -0.7343  0.1507  1.6257
  327TIP3    H222473   0.679   4.122   4.510  0.5063 -0.5340 -0.8981
  328TIP3   OH222474   6.715   2.011  12.895 -0.2784  0.1497  0.1342
  328TIP3    H122475   6.664   2.087  12.923  2.1797  1.3498  1.7553
  328TIP3    H222476   6.734   1.964  12.977  1.9256  0.3009 -0.2276
  329TIP3   OH222477   1.981   5.156   1.021  0.3639  0.1963  0.2279
  329TIP3    H122478   2.052   5.165   0.957 -0.7390 -1.4497 -1.3404
  329TIP3    H222479   1.952   5.245   1.038  1.4827  0.7584 -0.6585
  330TIP3   OH222480   0.168   5.795   2.251 -0.0882 -1.2119 -0.3284
  330TIP3    H122481   0.231   5.730   2.219  2.3514  1.0990 -0.5894
  330TIP3    H222482   0.214   5.840   2.322 -0.0384  2.6369 -2.5089
  331TIP3   OH222483   6.634   4.105   2.132 -0.2224 -0.5324  0.1616
  331TIP3    H122484   6.716   4.114   2.083 -0.6039 -0.9244 -0.5747
  331TIP3    H222485   6.641   4.168   2.203  0.6030 -0.3707 -0.0556
  332TIP3   OH222486   3.949   2.432   2.227 -0.3678 -1.0879  0.5654
  332TIP3    H122487   3.936   2.524   2.204  0.1682 -1.4217 -1.2707
  332TIP3    H222488   4.000   2.435   2.308 -0.3786  0.2305  0.5532
  333TIP3   OH222489   3.742   1.488  15.447  0.0452  0.0946 -0.0820
  333TIP3    H122490   3.735   1.404  15.402  0.1460  0.0176  0.0455
  333TIP3    H222491   3.825   1.483  15.494 -0.1750  0.0814  0.3053
  334TIP3   OH222492   6.685   0.305   1.947 -0.1840 -0.4039 -0.7512
  334TIP3    H122493   6.602   0.327   1.989 -0.1250 -0.9207 -0.3538
  334TIP3    H222494   6.742   0.379   1.965  0.0056 -0.8399  0.5434
  335TIP3   OH222495   4.412   5.598   2.207 -0.4830 -0.1325  0.1869
  335TIP3    H122496   4.370   5.513   2.195 -0.6172 -0.2066  1.1076
  335TIP3    H222497   4.504   5.578   2.224 -0.7008 -0.1634  1.3956
  336TIP3   OH222498   4.578   3.039   0.629 -0.1859  0.1378  0.0424
  336TIP3    H122499   4.580   3.037   0.725 -0.5852  0.5082  0.0625
  336TIP3    H222500   4.668   3.062   0.604 -0.3097  1.0269  0.3657
  337TIP3   OH222501   1.263   4.361  16.107  0.4289 -0.6501  0.5834
  337TIP3    H122502   1.208   4.436  16.130  0.9799  0.5877 -1.7478
  337TIP3    H222503   1.204   4.287  16.105 -0.5696  0.1160  0.9550
  338TIP3   OH222504   2.286   2.284  12.666  0.0021  0.6018 -0.6983
  338TIP3    H122505   2.246   2.296  12.752  0.2678 -0.3676 -0.4294
  338TIP3    H222506   2.299   2.189  12.658  0.5516  0.7346 -1.5451
  339TIP3   OH222507   5.512   3.060  14.106 -0.2710  0.1771  0.1035
  339TIP3    H122508   5.559   3.074  14.188 -1.0483 -1.9825  0.9930
  339TIP3    H222509   5.550   2.980  14.070 -0.4449  0.6995 -1.2986
  340TIP3   OH222510   5.781   3.499   2.636  0.4627 -0.1019  0.5226
  340TIP3    H122511   5.784   3.439   2.562 -0.1388 -0.1653  0.5470
  340TIP3    H222512   5.840   3.461   2.701  0.6597 -0.2700  0.2448
  341TIP3   OH222513   6.708   0.244  16.088  0.0103  0.0465 -0.7975
  341TIP3    H122514   6.667   0.320  16.131 -1.3638 -1.4617  0.6948
  341TIP3    H222515   6.637   0.205  16.038  0.0655 -1.5289  0.2911
  342TIP3   OH222516   2.045   1.738  13.386  0.1593  0.0918  0.2703
  342TIP3    H122517   2.139   1.742  13.399  0.2480  5.4202  0.0662
  342TIP3    H222518   2.033   1.730  13.292  0.4155  0.3878  0.2153
  343TIP3   OH222519   0.052   5.190   5.621 -0.2513  0.2971 -0.2894
  343TIP3    H122520   0.094   5.241   5.690  0.0136 -0.2434 -0.0459
  343TIP3    H222521   0.100   5.214   5.541  1.7537 -1.6114  0.2432
  344TIP3   OH222522   5.780   1.242  10.211 -0.0957  0.1934  0.0926
  344TIP3    H122523   5.747   1.331  10.222  0.6700  0.5407 -0.3824
  344TIP3    H222524   5.799   1.213  10.300  3.2590  1.9118  0.0678
  345TIP3   OH222525   4.000   4.404  10.751  0.0129 -0.4182  0.2306
  345TIP3    H122526   3.959   4.434  10.670  1.9737  1.0241 -0.3202
  345TIP3    H222527   4.011   4.310  10.739  0.5002 -0.1924 -1.3317
  346TIP3   OH222528   4.483   6.580  14.845  0.7044  0.5412 -0.4887
  346TIP3    H122529   4.457   6.642  14.777 -0.7638  0.4068 -0.0955
  346TIP3    H222530   4.558   6.533  14.809 -0.0413  0.4734 -2.0133
  347TIP3   OH222531   6.123   1.466   5.094  0.1724 -0.0399  0.3266
  347TIP3    H122532   6.123   1.513   5.011 -0.6132 -0.3108  0.1698
  347TIP3    H222533   6.138   1.534   5.160 -0.9275  0.4398  0.0991
  348TIP3   OH222534   2.706   4.843  15.373  0.1180 -0.8785  0.2589
  348TIP3    H122535   2.700   4.939  15.371 -0.0660 -0.8887 -1.7508
  348TIP3    H222536   2.781   4.825  15.429  0.0243  0.4197  0.8527
  349TIP3   OH222537   6.507   2.368   0.842 -0.3355  0.1269  0.0628
  349TIP3    H122538   6.551   2.434   0.896  1.9853 -0.8735 -0.4998
  349TIP3    H222539   6.480   2.416   0.764  1.7984  0.4037 -0.5893
  350TIP3   OH222540   6.227   1.721  11.566  0.5295  0.0928 -0.0340
  350TIP3    H122541   6.321   1.706  11.576  0.3089 -2.0243 -0.5728
  350TIP3    H222542   6.212   1.807  11.605  2.0983 -1.0488  3.4191
  351TIP3   OH222543   6.627   2.182  16.903  0.4085 -0.2819 -0.1772
  351TIP3    H122544   6.648   2.206  16.813 -1.3863  0.0445 -0.5445
  351TIP3    H222545   6.636   2.087  16.905  1.0140 -0.2326 -0.5480
  352TIP3   OH222546   3.042   2.643   5.030  0.1872 -0.4724  0.1849
  352TIP3    H122547   3.052   2.729   5.071  1.9490 -0.9042  0.7482
  352TIP3    H222548   3.059   2.580   5.101 -0.8004 -1.2906 -0.2763
  353TIP3   OH222549   2.084   0.509  11.115  0.3969  0.0494 -0.2021
  353TIP3    H122550   2.088   0.440  11.049 -0.7718  1.1510 -1.4811
  353TIP3    H222551   1.993   0.510  11.144  0.7012  0.1707  0.7894
  354TIP3   OH222552   3.830   6.356  10.874  0.1208 -0.1746  0.2713
  354TIP3    H122553   3.908   6.384  10.827  0.0089 -1.0646 -0.4710
  354TIP3    H222554   3.787   6.294  10.815 -0.5791 -0.5162  1.1110
  355TIP3   OH222555   4.308   2.643   6.153  0.4892 -0.1198 -0.2471
  355TIP3    H122556   4.353   2.680   6.228 -1.0931  0.4577  0.4643
  355TIP3    H222557   4.227   2.694   6.146 -1.1535 -2.5308 -0.0462
  356TIP3   OH222558   2.289   0.328  12.439 -0.1050 -0.3362 -0.0397
  356TIP3    H122559   2.307   0.287  12.355 -0.7238 -1.2096  0.2425
  356TIP3    H222560   2.205   0.292  12.466  0.3968 -0.5800  1.2676
  357TIP3   OH222561   2.159   0.481  14.270 -0.4293  0.2470  0.1773
  357TIP3    H122562   2.084   0.508  14.217 -0.4381 -0.5164 -0.2115
  357TIP3    H222563   2.234   0.523  14.227 -0.4137 -0.5016 -0.5706
  358TIP3   OH222564   4.143   4.007  12.113 -0.5920 -0.0919 -0.1491
  358TIP3    H122565   4.184   4.079  12.160 -1.7938 -0.0346  0.8746
  358TIP3    H222566   4.099   3.955  12.181 -2.2538 -0.0873 -1.1432
  359TIP3   OH222567   0.863   0.434   0.976 -0.0209 -0.1223  0.3587
  359TIP3    H122568   0.925   0.385   0.921  2.8222  1.9158  1.5021
  359TIP3    H222569   0.824   0.367   1.032 -0.1122 -1.7036 -1.4567
  360TIP3   OH222570   5.251   0.839   3.981  0.1066 -0.3008 -1.1152
  360TIP3    H122571   5.157   0.859   3.991  0.4308  0.3679  1.5673
  360TIP3    H222572   5.285   0.907   3.924 -0.8196  0.2568 -1.0213
  361TIP3   OH222573   2.209   4.069  12.023  0.0440 -0.1724  0.0060
  361TIP3    H122574   2.229   4.011  12.096 -0.1143  1.6705  1.5667
  361TIP3    H222575   2.270   4.142  12.031  0.9595 -0.5492 -2.5382
  362TIP3   OH222576   0.323   2.804  16.728  0.1481 -0.0135  0.0419
  362TIP3    H122577   0.252   2.775  16.785  1.0947 -0.3050  1.1014
  362TIP3    H222578   0.337   2.896  16.751  1.2837 -0.4343  1.1132
  363TIP3   OH222579   0.641   6.005  15.974  0.0944  0.1700  0.8270
  363TIP3    H122580   0.736   6.014  15.968  0.2077 -0.2845  1.7034
  363TIP3    H222581   0.606   6.077  15.922  0.8828 -1.3714 -2.0011
  364TIP3   OH222582   1.918   1.104   3.712  0.5353  0.9590  0.1102
  364TIP3    H122583   1.959   1.047   3.647  2.9285  0.5385  1.8499
  364TIP3    H222584   1.833   1.127   3.674  1.1831 -0.4901 -2.4293
  365TIP3   OH222585   3.191   4.192  10.798 -0.4890  0.2452  0.0282
  365TIP3    H122586   3.147   4.144  10.728  0.8421  0.7427 -1.1960
  365TIP3    H222587   3.168   4.284  10.782  1.6098  0.6280 -1.1832
  366TIP3   OH222588   1.129   0.748   1.572 -0.6189 -0.0349  0.6100
  366TIP3    H122589   1.088   0.717   1.652  0.5577 -0.6128  1.0185
  366TIP3    H222590   1.057   0.756   1.509 -1.7560  1.5425  2.0146
  367TIP3   OH222591   1.233   6.549   3.058 -0.2460 -0.1932 -0.3806
  367TIP3    H122592   1.187   6.471   3.087 -1.6019  0.5810 -0.3662
  367TIP3    H222593   1.242   6.538   2.963 -1.1628 -0.0117 -0.4980
  368TIP3   OH222594   5.476   4.321  16.972 -0.0020 -0.1314 -0.0550
  368TIP3    H122595   5.449   4.354  16.887  1.4401 -0.7629 -0.7917
  368TIP3    H222596   5.428   4.238  16.981  0.6218 -0.5700 -0.7216
  369TIP3   OH222597   6.170   5.995  14.554 -0.5465  0.0028  0.4591
  369TIP3    H122598   6.101   6.061  14.554  1.0802  1.8192 -1.1442
  369TIP3    H222599   6.198   5.989  14.462  0.3482 -1.8742  0.7929
  370TIP3   OH222600   1.039   5.582  11.373 -0.2365  0.3424  0.0623
  370TIP3    H122601   1.051   5.487  11.368  0.7767  0.4771 -0.3135
  370TIP3    H222602   1.074   5.615  11.290 -0.4459  1.0587  0.2535
  371TIP3   OH222603   6.450   1.623   3.031  0.6515 -0.0989  0.3715
  371TIP3    H122604   6.545   1.624   3.026  0.6648  2.1374  0.3273
  371TIP3    H222605   6.424   1.548   2.978  2.2829  0.9524 -2.0584
  372TIP3   OH222606   0.311   0.612   4.202 -0.3073  0.1706 -0.2042
  372TIP3    H122607   0.239   0.568   4.249 -1.8616  0.4944 -2.1238
  372TIP3    H222608   0.390   0.584   4.248 -1.6528  0.2433  2.3777
  373TIP3   OH222609   5.094   5.079   2.175 -0.5051  0.3553 -0.0375
  373TIP3    H122610   5.001   5.067   2.194 -0.1973 -2.2717  0.1282
  373TIP3    H222611   5.107   5.037   2.090  1.1403 -2.8963  1.6415
  374TIP3   OH222612   5.497   6.363  14.966  0.1062  0.5357  0.0064
  374TIP3    H122613   5.418   6.405  14.933 -0.2784  1.1088  1.5740
  374TIP3    H222614   5.533   6.426  15.029  1.7976  0.2704 -0.6367
  375TIP3   OH222615   6.226   4.044  16.778 -0.0707 -0.3957 -0.6493
  375TIP3    H122616   6.191   3.964  16.818  0.0759  0.2493  0.8700
  375TIP3    H222617   6.150   4.088  16.741 -0.6895  0.2442  1.2658
  376TIP3   OH222618   3.271   5.206  16.700 -0.2445  0.2692 -0.5329
  376TIP3    H122619   3.328   5.216  16.624 -2.2345 -1.6045 -2.3936
  376TIP3    H222620   3.320   5.147  16.758 -0.3283 -1.5635 -2.2299
  377TIP3   OH222621   4.193   2.262   4.412 -0.0438  0.3246 -0.2655
  377TIP3    H122622   4.279   2.268   4.454 -0.5505  0.5244  0.7588
  377TIP3    H222623   4.146   2.196   4.462  0.2758 -1.5225 -2.2450
  378TIP3   OH222624   5.548   2.998  12.516  0.6686  0.5929  0.5368
  378TIP3    H122625   5.518   3.087  12.537  0.5910  0.4910  0.8710
  378TIP3    H222626   5.520   2.984  12.426 -2.2080 -0.2694  1.4489
  379TIP3   OH222627   1.412   0.021  11.877  0.3009  0.0149  0.1739
  379TIP3    H122628   1.421   0.066  11.793  1.2179  0.3102  0.4260
  379TIP3    H222629   1.457  -0.062  11.865 -0.0008 -0.1609  0.2242
  380TIP3   OH222630   1.039   4.707  10.981  0.1669 -0.4206 -1.0010
  380TIP3    H122631   1.050   4.778  10.918  0.7312  2.2397  1.8386
  380TIP3    H222632   0.948   4.713  11.008  1.2416  2.8539  2.8764
  381TIP3   OH222633   5.455   1.860   3.824 -0.3351  0.1640 -0.2511
  381TIP3    H122634   5.453   1.825   3.913 -1.7449  0.8664  0.0192
  381TIP3    H222635   5.503   1.794   3.773  0.2593 -0.3675  0.9633
  382TIP3   OH222636   1.548   1.399  15.581  0.7776 -0.2836  0.6306
  382TIP3    H122637   1.464   1.370  15.616  0.5819  1.8108  1.9989
  382TIP3    H222638   1.560   1.346  15.502 -1.1180 -1.6359  1.1850
  383TIP3   OH222639   6.398   0.986   3.899  0.0559  0.4240 -0.2616
  383TIP3    H122640   6.410   0.988   3.804  0.2639 -0.4366 -0.2607
  383TIP3    H222641   6.487   0.982   3.934  0.2917  4.5931  0.1608
  384TIP3   OH222642   6.745   2.274  11.986  1.3542  0.4069 -0.1943
  384TIP3    H122643   6.727   2.318  11.903  0.4888 -1.5834 -1.1270
  384TIP3    H222644   6.840   2.267  11.990  1.3920  0.3042 -1.1635
  385TIP3   OH222645   6.505   4.271   3.596  0.1071 -0.4235  0.5355
  385TIP3    H122646   6.430   4.216   3.575  0.3690 -0.4585 -0.3518
  385TIP3    H222647   6.503   4.280   3.691 -3.1137  2.5577  0.3736
  386TIP3   OH222648   3.206   5.361   3.066 -0.1300  0.1264 -0.4312
  386TIP3    H122649   3.244   5.342   3.152 -0.7012 -0.2677 -0.2624
  386TIP3    H222650   3.269   5.421   3.025 -0.1886  0.8553  0.5177
  387TIP3   OH222651   2.352   5.543   4.984 -0.3653  0.1906 -0.3197
  387TIP3    H122652   2.274   5.568   5.032 -1.4943  1.3964 -2.6067
  387TIP3    H222653   2.335   5.454   4.953 -0.0705 -0.1943  0.5964
  388TIP3   OH222654   0.640   6.705   0.090 -0.1860  0.0614  0.5735
  388TIP3    H122655   0.717   6.677   0.140  1.1088 -0.6644 -1.6877
  388TIP3    H222656   0.610   6.626   0.046  0.3057  1.0831 -1.7633
  389TIP3   OH222657   3.025   2.395  11.881 -0.3155 -0.8431 -0.0121
  389TIP3    H122658   3.020   2.491  11.883  2.0170 -0.6750  0.7954
  389TIP3    H222659   3.041   2.374  11.789 -0.2057 -0.3976 -0.1004
  390TIP3   OH222660   5.807   6.493  15.923 -0.3296  0.3611  0.2629
  390TIP3    H122661   5.777   6.408  15.891  0.0811  0.0686  0.6466
  390TIP3    H222662   5.771   6.500  16.011  0.8419 -0.0861  0.8151
  391TIP3   OH222663   1.305   1.994  15.643  0.0746  0.0172  0.0995
  391TIP3    H122664   1.258   1.914  15.666  0.9919 -0.4176  0.5549
  391TIP3    H222665   1.294   2.002  15.549 -0.6943 -0.2013  0.1631
  392TIP3   OH222666   3.797   4.249   3.074 -0.0130  0.4213 -0.3357
  392TIP3    H122667   3.752   4.304   3.009  1.2321  1.9777  0.0517
  392TIP3    H222668   3.887   4.243   3.043  0.9047  2.1361  1.7182
  393TIP3   OH222669   4.651   6.040   2.735  0.7898  0.3657  0.0034
  393TIP3    H122670   4.641   5.974   2.805  1.0656 -3.0164 -2.8781
  393TIP3    H222671   4.567   6.085   2.733 -0.5455 -1.9499  0.2332
  394TIP3   OH222672   5.270   4.884  16.553 -0.2565  0.2854 -0.5173
  394TIP3    H122673   5.246   4.933  16.474 -0.3628 -1.0232 -1.3216
  394TIP3    H222674   5.192   4.831  16.572  0.6791 -1.3807 -1.1065
  395TIP3   OH222675   0.969   0.281   0.730 -0.0910  0.1865  0.0904
  395TIP3    H122676   1.055   0.247   0.704 -0.6550  0.5744 -2.6279
  395TIP3    H222677   0.952   0.351   0.667 -1.0100  2.4230  2.6189
  396TIP3   OH222678   2.377   5.898  14.700 -0.2641 -0.1888 -0.6379
  396TIP3    H122679   2.394   5.993  14.698 -1.1051 -0.0385 -1.2497
  396TIP3    H222680   2.396   5.868  14.611  0.3045 -0.6592 -0.3631
  397TIP3   OH222681   6.282   5.487  12.210 -0.2815  0.1706  0.3188
  397TIP3    H122682   6.280   5.552  12.280 -1.6652  1.0735 -0.4966
  397TIP3    H222683   6.193   5.488  12.174 -0.0868 -1.5627 -0.2861
  398TIP3   OH222684   2.802   4.360   2.512 -0.2370  0.0641 -0.1816
  398TIP3    H122685   2.843   4.277   2.534 -1.5200 -0.3591  0.6511
  398TIP3    H222686   2.801   4.361   2.416  0.4800 -0.5215 -0.2028
  399TIP3   OH222687   6.204   6.220  11.842  0.8663  0.2943 -0.1925
  399TIP3    H122688   6.128   6.278  11.835  1.1800  0.7993  0.4650
  399TIP3    H222689   6.202   6.189  11.933  0.2282 -1.4070 -0.7483
  400TIP3   OH222690   0.731   4.453   5.310 -0.3004  0.1767 -0.0051
  400TIP3    H122691   0.793   4.436   5.381 -0.8150  1.3698  0.7750
  400TIP3    H222692   0.663   4.386   5.321  1.2860 -1.7918 -1.4916
  401TIP3   OH222693   0.342   5.457   0.624  0.0680  0.2249  0.5873
  401TIP3    H122694   0.333   5.552   0.631  0.3506  0.3560 -0.5994
  401TIP3    H222695   0.319   5.424   0.711  2.2386  1.5290  1.7685
  402TIP3   OH222696   4.664   1.206  14.005  0.0699  0.2530 -0.5388
  402TIP3    H122697   4.696   1.159  13.928 -1.1176  0.2368 -1.0370
  402TIP3    H222698   4.573   1.227  13.985 -0.6524 -0.8217  1.3750
  403TIP3   OH222699   0.544   4.015   1.742 -0.1601  0.3455 -0.0534
  403TIP3    H122700   0.554   4.027   1.648 -0.1064  0.6186 -0.0151
  403TIP3    H222701   0.549   4.104   1.778  0.2349  0.2074  0.2417
  404TIP3   OH222702   2.262   2.921   5.809 -0.0176  0.3416  0.0294
  404TIP3    H122703   2.206   2.871   5.870 -1.1402  1.3973 -0.1014
  404TIP3    H222704   2.207   2.932   5.731  1.2832 -0.6971 -1.0803
  405TIP3   OH222705   1.288   3.420   4.025 -0.6361  0.4864 -0.0676
  405TIP3    H122706   1.254   3.509   4.029 -0.6675  0.5958 -2.0347
  405TIP3    H222707   1.281   3.395   3.933  0.1263 -1.2615  0.3014
  406TIP3   OH222708   2.167   2.470  12.117 -0.0821  0.0646  0.0872
  406TIP3    H122709   2.142   2.401  12.178  2.0242 -0.4810  0.4022
  406TIP3    H222710   2.262   2.472  12.120 -0.0472  2.6541 -0.2965
  407TIP3   OH222711   1.925   1.289   5.392  0.3048 -0.3598  0.0641
  407TIP3    H122712   1.975   1.245   5.323  0.1357  0.3815 -0.5440
  407TIP3    H222713   1.992   1.326   5.450  0.4995  0.8546 -0.8881
  408TIP3   OH222714   3.654   6.364  12.823 -0.1576 -0.2299 -0.4649
  408TIP3    H122715   3.686   6.283  12.784 -0.3866  0.5347 -2.3375
  408TIP3    H222716   3.599   6.403  12.755 -0.1837  1.4235  0.4591
  409TIP3   OH222717   4.004   3.633   4.843  0.2743  0.1677  0.1360
  409TIP3    H122718   3.939   3.574   4.880 -0.4705  0.6545 -0.3619
  409TIP3    H222719   4.088   3.594   4.866 -0.1958 -0.7267  0.3750
  410TIP3   OH222720   6.080   1.928  13.711 -0.2866 -0.5741 -0.5584
  410TIP3    H122721   6.080   1.980  13.792 -0.4882 -0.4986 -0.6050
  410TIP3    H222722   5.987   1.919  13.689 -0.1854  1.8358 -2.3448
  411TIP3   OH222723   4.491   3.228  12.086 -0.2949  0.4524 -0.2240
  411TIP3    H122724   4.580   3.256  12.064 -0.1796  0.4786  0.2799
  411TIP3    H222725   4.503   3.148  12.137 -0.5883  0.0351 -0.7919
  412TIP3   OH222726   4.957   5.732  14.897  0.8738 -0.3119 -0.4372
  412TIP3    H122727   4.917   5.818  14.893  3.2833  0.8752 -0.5774
  412TIP3    H222728   4.945   5.704  14.988 -0.1830  0.0025 -0.4661
  413TIP3   OH222729   2.404   6.821  12.792 -0.2212 -0.1701  0.0461
  413TIP3    H122730   2.403   6.792  12.883  1.3654  0.1269  0.1912
  413TIP3    H222731   2.363   6.749  12.743 -0.2902 -0.7147  0.8844
  414TIP3   OH222732   4.681   2.380  11.007 -0.1580  0.2418  0.3420
  414TIP3    H122733   4.593   2.417  11.007 -1.5300 -2.6979  1.7115
  414TIP3    H222734   4.689   2.337  10.922  0.1526  0.8251  0.0659
  415TIP3   OH222735   6.499   0.883  13.532  0.3142  0.1229  0.5560
  415TIP3    H122736   6.573   0.921  13.580 -0.1597  4.7790 -1.8413
  415TIP3    H222737   6.422   0.911  13.580 -0.0159  1.2065 -0.5454
  416TIP3   OH222738   3.827   2.434   1.475 -0.3448 -0.3507  0.2430
  416TIP3    H122739   3.851   2.341   1.475  1.1364 -0.0100 -0.7960
  416TIP3    H222740   3.791   2.449   1.388 -3.0440 -0.4708  1.2475
  417TIP3   OH222741   2.066   3.708  14.700 -0.2070 -0.0350  0.0340
  417TIP3    H122742   1.977   3.699  14.732 -0.5074 -0.0675 -0.7898
  417TIP3    H222743   2.117   3.733  14.777 -1.2673  2.0469  0.1268
  418TIP3   OH222744   5.618   4.694   4.651 -0.0151  0.1070 -0.6436
  418TIP3    H122745   5.569   4.765   4.693  1.3514  1.1335 -0.7067
  418TIP3    H222746   5.674   4.739   4.587  0.7852 -1.0506 -0.7766
  419TIP3   OH222747   1.843   3.199  13.520 -0.0415 -0.0438 -0.1324
  419TIP3    H122748   1.790   3.119  13.517 -0.0963 -0.0113 -0.0485
  419TIP3    H222749   1.787   3.266  13.480  0.4386 -0.2876 -1.2441
  420TIP3   OH222750   4.730   3.402   4.827  0.2400 -0.5331  0.5188
  420TIP3    H122751   4.742   3.446   4.743  1.2153 -1.6518  0.0416
  420TIP3    H222752   4.817   3.402   4.867  0.0788 -1.2230  0.8964
  421TIP3   OH222753   4.057   1.390   3.637  0.2650  0.6226  0.4859
  421TIP3    H122754   3.984   1.378   3.576 -0.4604  0.4767  1.3535
  421TIP3    H222755   4.085   1.301   3.659  0.5729  0.6754  0.3099
  422TIP3   OH222756   4.182   0.929  17.205  0.6335 -0.0242  0.0707
  422TIP3    H122757   4.158   0.840  17.178  2.5647 -0.7658  0.6696
  422TIP3    H222758   4.162   0.932  17.299  1.4461 -0.1584  0.2547
  423TIP3   OH222759   6.462   2.833  15.686 -0.0689  0.3576  0.3884
  423TIP3    H122760   6.366   2.834  15.689 -0.1461  0.3419 -1.2670
  423TIP3    H222761   6.487   2.925  15.695 -0.1637  0.2474  2.0129
  424TIP3   OH222762   2.875   5.186   0.395  0.0508  0.2023  0.9799
  424TIP3    H122763   2.926   5.255   0.437  2.2642 -1.4153  1.0988
  424TIP3    H222764   2.910   5.180   0.307 -1.5602  0.5950  0.2829
  425TIP3   OH222765   3.237   6.143  12.345 -0.3569  0.1021  0.0997
  425TIP3    H122766   3.326   6.126  12.315 -0.4851  0.7849 -0.7304
  425TIP3    H222767   3.186   6.070  12.309 -0.1580 -0.2190  0.4652
  426TIP3   OH222768   1.358   6.609   5.470  1.0307 -0.1248 -0.2286
  426TIP3    H122769   1.390   6.649   5.551  0.1446  0.1273  0.0103
  426TIP3    H222770   1.433   6.559   5.436  2.1343  1.6065 -0.4623
  427TIP3   OH222771   3.006   4.531  13.925 -0.3437 -0.2818  0.0122
  427TIP3    H122772   3.076   4.596  13.932 -1.1598  0.5507  0.8625
  427TIP3    H222773   3.033   4.473  13.854  0.2306  1.2293 -1.0480
  428TIP3   OH222774   6.528   5.473  11.382 -0.0109  0.2419  0.1131
  428TIP3    H122775   6.527   5.408  11.311  0.4987 -0.6683  0.9249
  428TIP3    H222776   6.616   5.467  11.418 -0.4881  0.1877  1.2913
  429TIP3   OH222777   1.355   3.701   0.753  0.1697 -0.2659 -0.2666
  429TIP3    H122778   1.285   3.643   0.783  0.7290 -0.8819 -0.1422
  429TIP3    H222779   1.323   3.789   0.775 -0.4093 -0.5591  0.1108
  430TIP3   OH222780   3.386   0.137   3.218  0.2128 -0.5495 -0.0568
  430TIP3    H122781   3.382   0.192   3.296  2.1080  1.3715 -1.2046
  430TIP3    H222782   3.450   0.181   3.161 -0.4584 -2.3359 -2.3327
  431TIP3   OH222783   4.189   5.859   4.726 -0.5041 -0.0261  0.0288
  431TIP3    H122784   4.268   5.890   4.682 -0.6371  0.5588  0.1851
  431TIP3    H222785   4.219   5.829   4.812 -0.4602  0.2633  0.1153
  432TIP3   OH222786   6.754   6.113  15.003  0.2509  0.2621  0.2136
  432TIP3    H122787   6.694   6.187  15.002  1.4415  1.2707  0.7027
  432TIP3    H222788   6.817   6.131  14.933  1.0853  0.1921  0.9287
  433TIP3   OH222789   4.603   4.596   2.074  0.2394 -0.0442 -0.4457
  433TIP3    H122790   4.694   4.617   2.051  0.6239 -0.6623  0.4564
  433TIP3    H222791   4.596   4.502   2.059  0.1916 -0.2695  0.9261
  434TIP3   OH222792   6.713   1.958   2.503 -0.3169  0.0736 -0.0930
  434TIP3    H122793   6.636   1.936   2.555 -1.3677  0.0524 -1.5761
  434TIP3    H222794   6.693   1.924   2.415  1.0016  0.8528 -0.7294
  435TIP3   OH222795   3.569   1.486  12.436  0.6990  1.0009  0.0073
  435TIP3    H122796   3.518   1.446  12.507  2.4643  0.9398  1.3016
  435TIP3    H222797   3.659   1.460  12.453  1.3468  2.0693 -1.5491
  436TIP3   OH222798   4.236   5.658   2.721  0.1245 -0.4354 -0.3908
  436TIP3    H122799   4.223   5.666   2.816  0.8528  1.3193 -0.4043
  436TIP3    H222800   4.189   5.578   2.698 -0.2466 -0.7983  1.4141
  437TIP3   OH222801   6.391   2.545  12.702  0.0965  0.2787 -0.3504
  437TIP3    H122802   6.298   2.532  12.721 -1.0972  4.6060 -1.9402
  437TIP3    H222803   6.435   2.534  12.786 -2.2293  0.4233  0.9693
  438TIP3   OH222804   1.034   2.618  13.107  0.1671 -0.5008  0.0144
  438TIP3    H122805   0.952   2.662  13.084  1.2127  0.5416 -2.0080
  438TIP3    H222806   1.006   2.540  13.154 -1.9457  0.2298  0.1162
  439TIP3   OH222807   0.607   0.525  15.243 -0.2249  0.1924 -0.4069
  439TIP3    H122808   0.700   0.544  15.233 -0.3438  1.9551  1.3578
  439TIP3    H222809   0.563   0.596  15.196 -0.7200 -1.0480 -1.8863
  440TIP3   OH222810   5.454   0.166  11.190  0.3927 -0.2834 -0.2203
  440TIP3    H122811   5.522   0.227  11.162 -0.3523  0.1075 -1.2520
  440TIP3    H222812   5.392   0.164  11.117 -1.3065  0.2737  1.1285
  441TIP3   OH222813   6.440   2.010  11.837  0.4244 -0.0245  0.2137
  441TIP3    H122814   6.529   2.016  11.874  0.0919 -0.4591  1.1335
  441TIP3    H222815   6.411   1.922  11.860 -0.8914  0.6971  1.4684
  442TIP3   OH222816   6.783   5.381  11.135  0.0494  0.8101  0.2020
  442TIP3    H122817   6.725   5.453  11.111 -0.7995  0.8203  2.1134
  442TIP3    H222818   6.724   5.306  11.149  0.4992  0.7227  1.8182
  443TIP3   OH222819   3.036   4.548   2.272  0.5887 -0.5189 -0.3722
  443TIP3    H122820   3.106   4.596   2.316 -0.2099  0.5181 -0.1797
  443TIP3    H222821   3.065   4.541   2.181  0.0825  1.7380 -0.7811
  444TIP3   OH222822   5.257   4.850   0.492  0.3349 -0.2630  0.0975
  444TIP3    H122823   5.341   4.894   0.503 -0.2203  0.4066  1.9480
  444TIP3    H222824   5.225   4.836   0.581 -1.3694 -0.7876 -0.5570
  445TIP3   OH222825   2.505   4.315   3.613 -0.0969 -0.7260 -0.2666
  445TIP3    H122826   2.566   4.254   3.656  0.4151  0.9386  1.4859
  445TIP3    H222827   2.542   4.328   3.526  0.5715 -1.7812 -0.1649
  446TIP3   OH222828   3.363   6.465  13.409 -0.5729  0.5518  0.2811
  446TIP3    H122829   3.389   6.486  13.499  0.1316 -1.7970  0.7083
  446TIP3    H222830   3.268   6.474  13.409 -0.5394  1.0188  1.1393
  447TIP3   OH222831   4.544   1.777  12.066 -0.1505  0.6128  0.2699
  447TIP3    H122832   4.537   1.808  11.976 -2.4463 -0.0460  0.1567
  447TIP3    H222833   4.580   1.689  12.058 -0.9651  0.2968 -0.1051
  448TIP3   OH222834   1.294   1.902  14.569 -0.1940 -0.5037 -0.0927
  448TIP3    H122835   1.328   1.879  14.482 -0.1135 -2.0390  0.3254
  448TIP3    H222836   1.349   1.853  14.630 -0.1503  0.6764  0.8579
  449TIP3   OH222837   6.452   6.327   4.413  0.3398 -0.3020  0.1813
  449TIP3    H122838   6.479   6.403   4.465 -1.6899 -1.1006  2.5836
  449TIP3    H222839   6.505   6.255   4.445  1.2923 -0.2071 -1.1265
  450TIP3   OH222840   3.809   5.098  12.315  0.5024  0.0875 -0.7860
  450TIP3    H122841   3.714   5.094  12.308  0.3868  0.1126  0.5064
  450TIP3    H222842   3.830   5.046  12.393  1.4673  0.6948 -0.6128
  451TIP3   OH222843   2.900   2.357   0.368 -0.3717  0.4348 -0.5988
  451TIP3    H122844   2.876   2.354   0.275 -0.1467 -1.2373 -0.6401
  451TIP3    H222845   2.817   2.349   0.415 -0.3255 -1.1116 -0.7107
  452TIP3   OH222846   1.640   6.443   5.014  0.2905 -0.2106  0.0584
  452TIP3    H122847   1.657   6.472   4.925  2.1746  0.2780  0.5272
  452TIP3    H222848   1.708   6.486   5.067 -0.1890 -1.2196  1.5828
  453TIP3   OH222849   6.357   5.963  12.851 -0.5288  0.1239  0.0105
  453TIP3    H122850   6.446   5.992  12.831 -0.1347 -0.5684  0.6728
  453TIP3    H222851   6.310   5.970  12.768 -0.2379  1.7749 -0.0477
  454TIP3   OH222852   6.169   0.061   6.582 -0.4032  0.7636 -0.5677
  454TIP3    H122853   6.203  -0.028   6.589 -0.8814  0.3316 -2.8381
  454TIP3    H222854   6.206   0.107   6.657  0.8251 -1.0400  0.0008
  455TIP3   OH222855   2.125   5.083  15.503  0.3924  0.3545  0.2718
  455TIP3    H122856   2.175   5.106  15.424  0.8421  1.9756  0.9971
  455TIP3    H222857   2.191   5.072  15.571  0.1219 -2.3176  0.2111
  456TIP3   OH222858   2.141   0.731   0.869 -0.2161 -0.0367  0.5526
  456TIP3    H122859   2.155   0.799   0.803 -1.1019  1.2571  1.6513
  456TIP3    H222860   2.201   0.753   0.940 -0.5249 -0.4120  0.9342
  457TIP3   OH222861   0.440   0.852  13.194 -0.6765 -0.1814 -0.0135
  457TIP3    H122862   0.356   0.897  13.205  0.4583  1.7845  1.1796
  457TIP3    H222863   0.469   0.834  13.283  0.8886  0.5919 -0.3428
  458TIP3   OH222864   3.352   0.327  14.127 -0.0302  0.4067  0.1280
  458TIP3    H122865   3.323   0.236  14.135 -0.0206  0.3301 -0.6327
  458TIP3    H222866   3.337   0.348  14.035  2.5511  0.2854 -0.3898
  459TIP3   OH222867   0.562   6.567   1.676  0.6696  0.2214  0.0545
  459TIP3    H122868   0.566   6.663   1.674 -0.5057  0.3512 -2.9823
  459TIP3    H222869   0.478   6.547   1.717  0.8921  0.4945  0.6430
  460TIP3   OH222870   0.420   4.651  13.319  0.4311 -0.2204 -0.1433
  460TIP3    H122871   0.378   4.591  13.259  0.9668 -0.0289 -0.7208
  460TIP3    H222872   0.423   4.734  13.273  1.0595 -0.1297  0.0394
  461TIP3   OH222873   4.054   3.467   1.734 -0.2769  0.5110 -0.0331
  461TIP3    H122874   4.111   3.491   1.807  1.6145  1.0299 -1.5779
  461TIP3    H222875   4.090   3.384   1.702 -1.3321  0.0813 -0.1530
  462TIP3   OH222876   3.584   0.931  15.173  0.0570 -0.0554  0.4075
  462TIP3    H122877   3.551   0.851  15.131  0.7808  0.8448 -2.0507
  462TIP3    H222878   3.668   0.905  15.212 -0.5011 -0.8498  1.1278
  463TIP3   OH222879   1.585   3.264   3.539  0.1189  0.9454 -0.8212
  463TIP3    H122880   1.651   3.300   3.480 -0.2150 -0.2579 -1.9949
  463TIP3    H222881   1.513   3.327   3.537  0.7722  1.7093 -0.4171
  464TIP3   OH222882   0.207   1.782  16.577  0.4615  0.0033 -0.1675
  464TIP3    H122883   0.271   1.844  16.610  1.1450 -1.2597  0.9632
  464TIP3    H222884   0.187   1.813  16.489  0.2867  2.1761  0.5812
  465TIP3   OH222885   2.077   2.712   5.017 -0.2770  0.0543  0.1982
  465TIP3    H122886   1.995   2.758   4.997 -0.4555 -0.7287 -0.9767
  465TIP3    H222887   2.136   2.780   5.050 -1.0226  0.8419 -0.0685
  466TIP3   OH222888   1.799   0.817  13.535  0.4116  0.1625 -0.4083
  466TIP3    H122889   1.863   0.810  13.607  0.1494 -0.2362 -0.2149
  466TIP3    H222890   1.812   0.906  13.502  0.7761  0.2333 -0.0922
  467TIP3   OH222891   2.310   6.020   3.845  0.2028 -0.2513  0.1635
  467TIP3    H122892   2.367   6.095   3.825 -0.8977  0.2748 -1.1386
  467TIP3    H222893   2.225   6.060   3.863 -0.1917 -1.1493  0.2952
  468TIP3   OH222894   6.831   3.802  15.992  0.0131 -0.4759 -0.1980
  468TIP3    H122895   6.802   3.828  16.079 -0.6311 -0.7753 -0.3211
  468TIP3    H222896   6.795   3.869  15.933 -0.4300 -0.8435 -0.3494
  469TIP3   OH222897   1.798   6.475   5.509  0.5806 -0.7990  0.1395
  469TIP3    H122898   1.705   6.452   5.503  0.3377 -0.0475  0.8007
  469TIP3    H222899   1.843   6.391   5.515  0.0580 -1.2205 -1.4944
  470TIP3   OH222900   3.504   5.800   2.779 -0.4987  0.5097  0.4457
  470TIP3    H122901   3.496   5.824   2.687 -0.2143  2.0868  0.7891
  470TIP3    H222902   3.585   5.749   2.783  0.2271  1.5663 -0.0077
  471TIP3   OH222903   5.022   1.227  11.745 -0.3546 -0.1098  0.1103
  471TIP3    H122904   4.981   1.222  11.659  0.9163  0.3656 -0.5600
  471TIP3    H222905   5.100   1.173  11.737  1.0236  1.7451  0.1802
  472TIP3   OH222906   3.280   0.426   4.960 -0.0988 -0.3320  0.1067
  472TIP3    H122907   3.366   0.399   4.929 -0.0495 -1.1670  0.9384
  472TIP3    H222908   3.298   0.494   5.025 -0.0152 -1.0681  0.8650
  473TIP3   OH222909   2.259   5.803   0.107 -0.4747 -0.1726 -0.1030
  473TIP3    H122910   2.203   5.732   0.138  0.5567 -1.5480 -1.2738
  473TIP3    H222911   2.334   5.759   0.067  0.3332  1.5862 -0.6071
  474TIP3   OH222912   0.785   5.738   3.408  0.1721  0.0119 -0.8951
  474TIP3    H122913   0.770   5.664   3.349  0.1264 -0.6845 -0.0364
  474TIP3    H222914   0.862   5.713   3.459 -1.3354 -0.6609  1.2091
  475TIP3   OH222915   5.482   2.358  13.063 -0.1057 -0.0719 -0.4684
  475TIP3    H122916   5.445   2.333  12.978 -1.8628 -0.3720  0.3459
  475TIP3    H222917   5.407   2.360  13.122  1.0327  0.4899  1.0125
  476TIP3   OH222918   6.181   1.256  15.660 -0.6292 -0.2471 -0.3039
  476TIP3    H122919   6.160   1.295  15.745 -0.5239 -0.8093 -0.0110
  476TIP3    H222920   6.105   1.201  15.639 -0.3123 -0.7423 -0.1817
  477TIP3   OH222921   4.901   5.221   5.845  0.3127 -0.4179 -0.0178
  477TIP3    H122922   4.954   5.142   5.835 -0.2765 -0.9113  0.6690
  477TIP3    H222923   4.892   5.232   5.940  0.7248  0.7067 -0.0962
  478TIP3   OH222924   1.121   5.794  13.272  0.4026  0.3278 -0.1349
  478TIP3    H122925   1.054   5.737  13.235  1.0116  0.1519 -0.9950
  478TIP3    H222926   1.201   5.742  13.270  0.8125  0.9589 -0.2430
  479TIP3   OH222927   0.094   5.318  12.154  0.6006 -0.3214  0.0747
  479TIP3    H122928   0.188   5.300  12.160  0.6243  0.1384  1.2027
  479TIP3    H222929   0.057   5.280  12.234  0.2431  1.9999  1.0843
  480TIP3   OH222930   4.124   5.635   2.099 -0.2970 -0.2205  0.3735
  480TIP3    H122931   4.140   5.593   2.014  1.3019 -0.2506  0.6689
  480TIP3    H222932   4.211   5.651   2.135 -0.9420  0.4797  1.6865
  481TIP3   OH222933   4.948   0.914   5.273  0.2347 -0.1946  0.1937
  481TIP3    H122934   4.873   0.957   5.230  0.9037  0.1391 -0.6770
  481TIP3    H222935   4.913   0.883   5.356 -0.4702  1.4049  0.5401
  482TIP3   OH222936   6.049   1.964  14.280  0.0209 -0.2622 -0.8186
  482TIP3    H122937   5.966   1.966  14.326  0.8120 -1.0063  0.7061
  482TIP3    H222938   6.046   1.884  14.227  0.6399 -1.5811  1.0354
  483TIP3   OH222939   6.008   0.126   1.517 -0.2429  0.0646  0.2680
  483TIP3    H122940   6.047   0.041   1.537 -0.6551  0.0874  1.2136
  483TIP3    H222941   6.043   0.185   1.583 -0.3112  0.5403 -0.1112
  484TIP3   OH222942   0.607   3.950  14.753  0.2824 -0.1806  0.1620
  484TIP3    H122943   0.574   3.874  14.801 -0.6202  0.8573  1.2478
  484TIP3    H222944   0.544   3.963  14.682  0.9405 -0.9685 -0.5936
  485TIP3   OH222945   3.845   2.529   0.868  0.1059 -0.5680 -0.3329
  485TIP3    H122946   3.906   2.479   0.813  0.4741  0.4056 -0.8276
  485TIP3    H222947   3.846   2.484   0.952  1.6017 -0.5082 -0.2968
  486TIP3   OH222948   6.261   0.488   3.481 -0.6542  0.6632 -0.4469
  486TIP3    H122949   6.338   0.488   3.424 -0.7032  1.8187 -0.5337
  486TIP3    H222950   6.234   0.580   3.485 -1.2607  0.4501  0.6243
  487TIP3   OH222951   3.666   0.216   1.381 -0.1007 -0.1387  0.4508
  487TIP3    H122952   3.595   0.278   1.364 -1.9136 -2.1935 -0.0434
  487TIP3    H222953   3.625   0.146   1.433  1.1418 -2.1178 -1.0704
  488TIP3   OH222954   3.828   6.085  12.874  0.1803  0.0141  0.1404
  488TIP3    H122955   3.788   6.093  12.787  2.0558 -1.5011 -0.9579
  488TIP3    H222956   3.855   5.993  12.880  2.7916  0.7469  1.0236
  489TIP3   OH222957   0.113   3.061   2.765 -0.0612 -0.1337 -0.7802
  489TIP3    H122958   0.167   3.091   2.692  0.5130 -0.6073 -0.5492
  489TIP3    H222959   0.028   3.042   2.725 -0.1088  0.7282 -1.1212
  490TIP3   OH222960   1.605   2.693   0.779 -0.1240 -0.2043  0.3916
  490TIP3    H122961   1.646   2.677   0.864  0.6029  0.9968  0.2852
  490TIP3    H222962   1.570   2.608   0.753 -0.5338 -0.5566  1.9784
  491TIP3   OH222963   5.828   2.602  16.934  0.6040  0.6253  0.5218
  491TIP3    H122964   5.861   2.678  16.886  0.1116  1.5678  1.6427
  491TIP3    H222965   5.843   2.623  17.026  1.0865 -0.9485  0.8318
  492TIP3   OH222966   6.058   6.535  15.644  0.2030 -0.1252 -0.3943
  492TIP3    H122967   5.991   6.469  15.660  0.0374  0.0963 -0.1628
  492TIP3    H222968   6.055   6.592  15.721 -0.3710  0.7653 -1.0590
  493TIP3   OH222969   1.886   1.537  14.360 -0.1320 -0.2787 -0.0644
  493TIP3    H122970   1.946   1.606  14.389  1.2959 -0.1256 -2.9583
  493TIP3    H222971   1.801   1.561  14.398 -0.0205  3.8992 -1.8812
  494TIP3   OH222972   2.884   3.086   3.037  0.1853  0.1361 -0.1824
  494TIP3    H122973   2.794   3.094   3.005 -0.1633  0.0596  0.7427
  494TIP3    H222974   2.882   3.125   3.124  0.8429 -0.6687  0.2104
  495TIP3   OH222975   3.368   6.806  11.264  0.0185 -0.2987  0.3573
  495TIP3    H122976   3.329   6.843  11.343 -1.5045 -4.3252  1.7757
  495TIP3    H222977   3.298   6.809  11.199  0.1029 -0.1401  0.2728
  496TIP3   OH222978   2.779   4.287  16.944 -0.6458  0.1120 -0.3655
  496TIP3    H122979   2.829   4.206  16.928  0.1644  0.6234 -0.4825
  496TIP3    H222980   2.751   4.279  17.035  0.4232  0.2175 -0.0150
  497TIP3   OH222981   3.510   3.835  13.183  0.1643  0.3309 -0.0155
  497TIP3    H122982   3.426   3.798  13.155  0.9269 -0.7048 -1.0598
  497TIP3    H222983   3.491   3.926  13.204 -1.1813  0.1602 -0.4267
  498TIP3   OH222984   2.255   3.040  11.587  0.2107  0.2855  0.2273
  498TIP3    H122985   2.275   3.074  11.500 -0.6000 -0.4528 -0.2708
  498TIP3    H222986   2.273   3.112  11.647 -0.9893  1.4372 -0.7400
  499TIP3   OH222987   5.052   2.460  12.108 -0.0974 -0.4000  0.6465
  499TIP3    H122988   5.123   2.475  12.170  1.1656 -0.0278 -0.8555
  499TIP3    H222989   5.071   2.375  12.068 -0.9927 -0.7143  0.8489
  500TIP3   OH222990   6.622   1.284   0.280 -0.1575 -0.2790 -0.2989
  500TIP3    H122991   6.712   1.252   0.290 -0.4632 -0.9982  0.2886
  500TIP3    H222992   6.632   1.378   0.266  0.7231 -0.4650 -1.0812
  501TIP3   OH222993   2.217   6.217  11.038 -0.3325  0.4866  0.5454
  501TIP3    H122994   2.146   6.255  10.987  1.1131  0.9945 -1.1622
  501TIP3    H222995   2.293   6.273  11.020  0.3610  0.4525  2.9553
  502TIP3   OH222996   0.762   2.894   4.528 -0.7844 -0.0490  0.4061
  502TIP3    H122997   0.841   2.867   4.482  0.9570  0.5811  2.8176
  502TIP3    H222998   0.712   2.945   4.464  1.4045  0.6672 -0.8227
  503TIP3   OH222999   5.221   3.428  11.778 -0.0757  0.1229  0.3120
  503TIP3    H123000   5.251   3.477  11.854  0.7448 -0.1019  0.1458
  503TIP3    H223001   5.301   3.412  11.727 -0.2598 -1.5715  0.4834
  504TIP3   OH223002   2.295   1.306   2.141  0.2627  0.2384 -0.2588
  504TIP3    H123003   2.329   1.343   2.059  3.1277  1.0285  1.1660
  504TIP3    H223004   2.371   1.264   2.182 -1.0237  0.0689  2.1282
  505TIP3   OH223005   6.339   0.968  16.838  0.1812  0.1475 -0.4103
  505TIP3    H123006   6.337   0.911  16.915 -0.1117  0.9798  0.2025
  505TIP3    H223007   6.300   1.050  16.867 -1.4078 -0.0265 -1.8642
  506TIP3   OH223008   0.165   4.996  11.857  1.1383 -0.1874  0.2255
  506TIP3    H123009   0.175   4.961  11.768  0.4452  1.1744 -0.4255
  506TIP3    H223010   0.188   5.089  11.849 -1.3411  0.5580  0.8835
  507TIP3   OH223011   5.825   0.134   0.797  0.7634  0.1762 -0.0229
  507TIP3    H123012   5.800   0.154   0.887 -0.2055  1.1668 -0.4910
  507TIP3    H223013   5.895   0.195   0.777  1.1003 -0.1643  0.1155
  508TIP3   OH223014   0.884   6.107  14.843  0.2570  0.8327 -0.3160
  508TIP3    H123015   0.892   6.184  14.787 -2.3443  1.7318  0.3977
  508TIP3    H223016   0.792   6.080  14.835  0.6860 -1.2060  0.7427
  509TIP3   OH223017   3.182   1.258  11.822  0.0109  0.5134 -0.2362
  509TIP3    H123018   3.197   1.199  11.748 -0.0670  0.0967  0.0765
  509TIP3    H223019   3.267   1.262  11.867 -0.3226 -0.4328  0.5117
  510TIP3   OH223020   2.947   4.433   1.050 -0.5779 -0.0244  0.1616
  510TIP3    H123021   2.983   4.345   1.063  2.2787  1.2499  1.8849
  510TIP3    H223022   2.891   4.447   1.126  0.7480  0.3639  1.1189
  511TIP3   OH223023   1.730   1.679  10.761  0.0660  0.4327  0.1730
  511TIP3    H123024   1.738   1.723  10.846 -0.6348  1.1314 -0.1186
  511TIP3    H223025   1.794   1.723  10.706  1.3524 -0.7842  0.6262
  512TIP3   OH223026   1.410   1.940   6.407  0.4185 -0.9120 -0.1988
  512TIP3    H123027   1.384   2.023   6.367 -0.1647 -1.0569 -0.1290
  512TIP3    H223028   1.373   1.873   6.350  0.0382 -1.1234  0.2888
  513TIP3   OH223029   3.407   5.040   3.691 -0.0494  0.0670 -0.1331
  513TIP3    H123030   3.500   5.022   3.700  0.1331  0.2726 -1.3620
  513TIP3    H223031   3.391   5.034   3.597 -1.5528 -1.3011  0.1586
  514TIP3   OH223032   1.259   0.966  14.712  0.7391 -0.2752  0.5060
  514TIP3    H123033   1.194   0.950  14.780 -0.7930 -0.0616 -0.8719
  514TIP3    H223034   1.224   1.038  14.661  1.7841 -0.5303 -0.6255
  515TIP3   OH223035   5.694   4.610  14.766  0.3575 -0.0792  0.2305
  515TIP3    H123036   5.638   4.542  14.806  0.5844 -0.4762 -0.1206
  515TIP3    H223037   5.684   4.685  14.824  0.4973 -0.5720  0.9098
  516TIP3   OH223038   5.973   1.499   4.209 -0.1700  0.5145  0.4041
  516TIP3    H123039   6.032   1.575   4.209  0.9679 -0.3004 -1.2593
  516TIP3    H223040   5.888   1.535   4.182  0.1305  1.3360  0.5218
  517TIP3   OH223041   0.469   0.576  14.858 -0.0257 -0.6364  0.1959
  517TIP3    H123042   0.488   0.576  14.951 -2.7754  0.4991  0.8805
  517TIP3    H223043   0.433   0.664  14.840 -1.3767 -1.4425 -1.4461
  518TIP3   OH223044   4.744   1.539  14.893 -0.4865 -0.2551 -0.2719
  518TIP3    H123045   4.702   1.625  14.898 -1.3022 -0.6253 -0.4993
  518TIP3    H223046   4.834   1.558  14.867 -0.3786  0.5961  0.6311
  519TIP3   OH223047   0.562   5.897  15.215  0.2100  0.3641 -0.2970
  519TIP3    H123048   0.485   5.954  15.215  1.7874  2.6367  0.2915
  519TIP3    H223049   0.578   5.879  15.308  1.4294  1.4955 -0.2550
  520TIP3   OH223050   2.184   0.368   4.344  0.1732 -0.2400 -0.3524
  520TIP3    H123051   2.234   0.410   4.273  0.0004  0.2476 -0.1940
  520TIP3    H223052   2.093   0.394   4.327  0.1184 -0.2108 -0.0134
  521TIP3   OH223053   5.004   0.479  15.909  0.5937  0.3088 -0.0134
  521TIP3    H123054   4.941   0.445  15.972  0.4894 -0.7081 -0.6367
  521TIP3    H223055   4.969   0.452  15.824  0.2396  2.4689 -0.5896
  522TIP3   OH223056   2.845   0.658  14.243  0.4920  0.6223 -0.1385
  522TIP3    H123057   2.903   0.639  14.169  3.0403  0.3247  1.8011
  522TIP3    H223058   2.767   0.605  14.227  0.8955  0.6832 -2.6311
  523TIP3   OH223059   5.661   1.962   3.361 -0.0338  0.1899 -0.4172
  523TIP3    H123060   5.581   1.949   3.310  0.5559 -0.8503 -1.1175
  523TIP3    H223061   5.693   1.874   3.378  0.2225  0.5388  1.1040
  524TIP3   OH223062   3.534   3.267   3.243 -0.2804 -0.8867  0.2900
  524TIP3    H123063   3.475   3.273   3.318 -0.5826 -1.3989  0.0962
  524TIP3    H223064   3.483   3.222   3.176 -0.3026  0.2808 -0.5119
  525TIP3   OH223065   0.341   3.953  12.124 -0.1341  0.3434 -0.2450
  525TIP3    H123066   0.291   3.881  12.085  0.9131  0.5061 -1.9704
  525TIP3    H223067   0.415   3.911  12.167 -0.2538  0.3128 -0.0640
  526TIP3   OH223068   2.918   6.455   2.623 -0.3174  0.1077 -0.3108
  526TIP3    H123069   2.865   6.455   2.543  0.5434 -1.9517 -0.9322
  526TIP3    H223070   3.008   6.465   2.592 -0.0660  0.5850  0.5266
  527TIP3   OH223071   5.669   2.185  13.678 -0.2534  0.5345 -0.8697
  527TIP3    H123072   5.756   2.221  13.658 -0.7065  1.6526 -0.8443
  527TIP3    H223073   5.646   2.135  13.599  0.4287  0.1915 -0.8606
  528TIP3   OH223074   1.763   0.713  16.431  0.9136  0.0719 -0.0440
  528TIP3    H123075   1.697   0.677  16.372 -1.4006  1.1038  1.7337
  528TIP3    H223076   1.792   0.638  16.483 -1.0964  0.0348  1.1181
  529TIP3   OH223077   1.397   2.300   2.157  0.4327  0.1200  0.0272
  529TIP3    H123078   1.436   2.246   2.088  0.3774 -1.1409  0.9448
  529TIP3    H223079   1.466   2.361   2.182  1.3402 -1.0912  0.5870
  530TIP3   OH223080   0.635   2.296   4.997 -0.4885 -0.0471 -0.2108
  530TIP3    H123081   0.604   2.228   4.937 -1.6077 -0.1104  0.4145
  530TIP3    H223082   0.714   2.331   4.955 -0.6280 -0.8448 -1.1690
  531TIP3   OH223083   6.549   4.234  13.247 -0.2653 -0.0014  0.2400
  531TIP3    H123084   6.494   4.157  13.261  1.1951 -0.9984  0.7411
  531TIP3    H223085   6.598   4.215  13.167  0.9772 -0.1447  1.0174
  532TIP3   OH223086   5.601   0.090  13.257  0.3891  0.2619  0.1083
  532TIP3    H123087   5.619   0.029  13.329  1.1243 -0.6577 -0.8326
  532TIP3    H223088   5.607   0.177  13.298  0.6478 -0.2451  1.1893
  533TIP3   OH223089   1.834   6.622  13.247 -0.5884 -0.1226  0.3555
  533TIP3    H123090   1.843   6.530  13.269 -0.7213 -0.4314 -0.8362
  533TIP3    H223091   1.742   6.634  13.226 -0.7820  0.5198  1.4545
  534TIP3   OH223092   3.275   5.696   4.323 -0.3777 -0.0301 -0.4790
  534TIP3    H123093   3.264   5.669   4.414  0.1564  1.5304  0.0842
  534TIP3    H223094   3.250   5.619   4.272  2.7043 -2.2169  0.9953
  535TIP3   OH223095   6.563   4.779  16.571 -0.3565  0.2535  0.2783
  535TIP3    H123096   6.484   4.779  16.517  0.3060  0.3533 -0.7220
  535TIP3    H223097   6.633   4.802  16.511  0.3119  1.1541  1.3571
  536TIP3   OH223098   6.039   2.505   0.815 -0.1201  0.7770  0.8479
  536TIP3    H123099   6.119   2.538   0.856  0.9556  0.5938 -0.9915
  536TIP3    H223100   5.978   2.579   0.820 -0.4929  0.3707  3.7761
  537TIP3   OH223101   2.214   4.935   4.208  0.0783  0.3081 -0.4136
  537TIP3    H123102   2.189   5.003   4.146 -1.0431  1.7679  1.5358
  537TIP3    H223103   2.160   4.859   4.184 -0.5116  0.9223 -1.0548
  538TIP3   OH223104   0.820   1.964  12.743  0.6103 -0.0481 -0.4192
  538TIP3    H123105   0.842   2.050  12.779  0.5302 -0.2282  0.0704
  538TIP3    H223106   0.731   1.976  12.708  0.8540  0.2423 -0.9430
  539TIP3   OH223107   3.785   0.363   2.869 -0.2160  0.5065 -0.3352
  539TIP3    H123108   3.712   0.384   2.926 -0.1382  1.6190 -0.6108
  539TIP3    H223109   3.836   0.444   2.865  2.5073 -0.8735  1.9290
  540TIP3   OH223110   3.155   4.106   0.566 -0.1499 -0.5085  0.0981
  540TIP3    H123111   3.067   4.101   0.603 -0.3442 -1.1264 -0.4480
  540TIP3    H223112   3.183   4.196   0.585  0.3149 -1.1848  3.0086
  541TIP3   OH223113   1.593   5.395  15.258  0.5721 -0.4363 -0.6938
  541TIP3    H123114   1.535   5.464  15.287  0.9575 -0.5734  0.4557
  541TIP3    H223115   1.641   5.433  15.184 -0.5615 -0.1431 -1.2943
  542TIP3   OH223116   3.345   4.228  12.409 -0.3041 -0.2193  0.1764
  542TIP3    H123117   3.401   4.274  12.347  0.1877 -0.2710  0.5679
  542TIP3    H223118   3.365   4.269  12.494 -1.3993  0.2592  0.2252
  543TIP3   OH223119   1.108   5.583  13.626 -0.5763  0.3468  0.0517
  543TIP3    H123120   1.050   5.583  13.702 -2.0774  0.9112 -1.0348
  543TIP3    H223121   1.103   5.673  13.592  3.6763  1.4864  1.8349
  544TIP3   OH223122   4.222   1.193   5.816 -0.3110  0.0879 -0.0872
  544TIP3    H123123   4.183   1.120   5.864  0.0716 -1.3593 -1.8419
  544TIP3    H223124   4.148   1.249   5.794 -0.4752  0.8905  2.2308
  545TIP3   OH223125   4.544   0.482   0.737 -0.3388 -0.4965 -0.2534
  545TIP3    H123126   4.617   0.512   0.684  0.6775 -2.3341  0.0581
  545TIP3    H223127   4.490   0.561   0.749  1.3549  0.8146 -0.8106
  546TIP3   OH223128   5.494   2.745   2.700 -0.3546  0.2755  0.2901
  546TIP3    H123129   5.508   2.796   2.620  0.2813 -2.0890 -1.2082
  546TIP3    H223130   5.581   2.712   2.722 -1.1219 -2.5777 -0.5799
  547TIP3   OH223131   6.491   6.608  14.053  0.0925 -0.3127 -0.3244
  547TIP3    H123132   6.508   6.682  14.112  1.1740 -1.4206  0.8219
  547TIP3    H223133   6.491   6.647  13.966  0.4868  1.0689  0.2546
  548TIP3   OH223134   2.271   2.857   4.167 -0.2360  0.1862  0.2246
  548TIP3    H123135   2.301   2.769   4.143 -0.6615 -0.1070  0.7318
  548TIP3    H223136   2.178   2.845   4.188  0.1031  0.3921  2.0501
  549TIP3   OH223137   4.236   5.673  12.262 -0.1881  0.4973  0.0420
  549TIP3    H123138   4.171   5.723  12.214  0.6557 -0.3050 -2.0455
  549TIP3    H223139   4.296   5.739  12.297 -0.8790  1.1012  0.1232
  550TIP3   OH223140   5.165   0.478   2.477  0.0972  0.2579  0.3798
  550TIP3    H123141   5.114   0.399   2.491 -2.1883  1.5699 -0.0734
  550TIP3    H223142   5.175   0.516   2.564 -0.3104  0.3434  0.3914
  551TIP3   OH223143   5.661   3.068   0.329 -0.4548 -0.5655  0.0722
  551TIP3    H123144   5.682   2.984   0.371 -1.6740 -0.7740  0.2865
  551TIP3    H223145   5.702   3.134   0.386  0.1392 -0.9825  0.1418
  552TIP3   OH223146   0.733   6.694   4.963 -0.2745  0.4384  0.5001
  552TIP3    H123147   0.803   6.752   4.994 -0.0451  2.0601 -2.6467
  552TIP3    H223148   0.652   6.739   4.985 -0.2842 -0.1022  1.6711
  553TIP3   OH223149   0.976   3.070   0.169 -1.3410 -0.4643  0.1379
  553TIP3    H123150   1.001   3.007   0.101  0.7629  0.8727 -0.4476
  553TIP3    H223151   1.035   3.051   0.242 -0.7182  0.7204 -0.0235
  554TIP3   OH223152   3.597   4.555   0.969  0.4880  0.0774 -0.4509
  554TIP3    H123153   3.630   4.630   0.920  2.0839  0.0940  0.5960
  554TIP3    H223154   3.524   4.522   0.916  0.2404  1.8821 -1.3076
  555TIP3   OH223155   5.648   5.472  11.030 -0.0006 -0.1961  0.4358
  555TIP3    H123156   5.663   5.456  10.937  1.1044  0.8134  0.4185
  555TIP3    H223157   5.732   5.502  11.063  0.1645 -2.3728  2.2071
  556TIP3   OH223158   2.875   5.389   4.732  0.1223 -0.0514  0.0222
  556TIP3    H123159   2.821   5.407   4.655  0.2059  1.2678  0.2485
  556TIP3    H223160   2.907   5.475   4.759  0.8933 -0.6151  0.9486
  557TIP3   OH223161   2.488   2.559   4.038 -0.0187 -0.2687  0.1756
  557TIP3    H123162   2.503   2.635   3.981  1.1471 -1.1534 -0.7400
  557TIP3    H223163   2.539   2.489   3.999 -1.6726 -1.7674  0.5782
  558TIP3   OH223164   3.924   5.496   5.325  0.1618 -0.0188 -0.3771
  558TIP3    H123165   3.907   5.588   5.308  1.3445  0.4077  0.6747
  558TIP3    H223166   3.882   5.478   5.409 -0.3159 -0.5213 -0.7173
  559TIP3   OH223167   5.197   2.731   1.607  0.6412  0.1929  0.4334
  559TIP3    H123168   5.150   2.728   1.690  0.2759  0.3739  0.2358
  559TIP3    H223169   5.130   2.754   1.542  0.8006 -0.5305  0.0006
  560TIP3   OH223170   1.244   4.585   1.855  0.1071  0.1210 -0.0885
  560TIP3    H123171   1.313   4.548   1.800 -0.2435 -1.8401  0.7028
  560TIP3    H223172   1.208   4.509   1.902 -1.1475  1.4029  1.1023
  561TIP3   OH223173   2.263   6.457   5.074 -0.2090  0.1873 -0.0658
  561TIP3    H123174   2.348   6.413   5.077  0.7297  1.9723  1.3892
  561TIP3    H223175   2.270   6.526   5.140 -2.0911  1.6456 -1.3151
  562TIP3   OH223176   6.662   0.476   0.542  0.1546  0.1757 -0.3116
  562TIP3    H123177   6.707   0.558   0.563 -0.0987  0.4603 -0.8515
  562TIP3    H223178   6.715   0.437   0.472  0.7515 -0.5505  0.5222
  563TIP3   OH223179   6.586   6.593   3.725 -0.3782 -0.1224 -0.1595
  563TIP3    H123180   6.607   6.554   3.810  0.7671  0.8764  0.0504
  563TIP3    H223181   6.630   6.679   3.727  1.7569 -1.0125 -2.6869
  564TIP3   OH223182   1.555   1.345   4.683  0.2733  0.2896 -0.4295
  564TIP3    H123183   1.611   1.339   4.760  0.7385 -1.2784 -0.8399
  564TIP3    H223184   1.613   1.376   4.614 -0.1627  1.7700 -0.1498
  565TIP3   OH223185   6.322   6.829   3.251 -0.6939  0.5582 -0.4889
  565TIP3    H123186   6.351   6.751   3.298  0.6884  0.0840 -2.0376
  565TIP3    H223187   6.370   6.901   3.292 -0.8338  0.4092 -0.0499
  566TIP3   OH223188   0.072   5.393  10.723  0.0030  0.0503  0.1789
  566TIP3    H123189   0.021   5.461  10.678  1.2830  2.2060  1.7498
  566TIP3    H223190   0.006   5.338  10.766 -1.0801  0.2678 -1.1187
  567TIP3   OH223191   0.114   6.745  13.294  0.2405 -0.4690  0.2057
  567TIP3    H123192   0.096   6.770  13.203  1.8547 -0.3539 -0.1079
  567TIP3    H223193   0.028   6.721  13.329 -0.2147 -2.1306 -1.8236
  568TIP3   OH223194   5.260   0.245  16.253 -0.4433  0.0407  0.8571
  568TIP3    H123195   5.313   0.176  16.293  0.7910 -0.1521 -1.0310
  568TIP3    H223196   5.178   0.201  16.230 -0.8151 -0.0603  2.2525
  569TIP3   OH223197   5.426   5.522  13.098  0.6167  0.3245 -0.7641
  569TIP3    H123198   5.439   5.435  13.060  0.1796  0.2398 -0.7273
  569TIP3    H223199   5.511   5.546  13.134  1.4752  1.0269 -3.0740
  570TIP3   OH223200   0.789   0.200  15.640 -0.2125  0.2946 -0.4296
  570TIP3    H123201   0.783   0.290  15.607  1.1378 -0.1271 -1.9740
  570TIP3    H223202   0.861   0.202  15.703 -1.3043  0.6224  0.8465
  571TIP3   OH223203   3.927   2.288  13.998  0.5882  0.2581  0.2603
  571TIP3    H123204   3.913   2.377  14.029  1.1490  0.9637 -1.4010
  571TIP3    H223205   4.010   2.262  14.038 -0.0653  0.0798  1.5486
  572TIP3   OH223206   1.120   1.305  12.546  0.1365 -0.0247 -0.0090
  572TIP3    H123207   1.062   1.371  12.584 -1.3608  0.0231 -2.1511
  572TIP3    H223208   1.068   1.224  12.549  0.2585 -0.1649 -1.1819
  573TIP3   OH223209   4.711   2.578  17.192  0.0298  0.1146 -0.1000
  573TIP3    H123210   4.625   2.570  17.234  0.9847  0.2501  2.0048
  573TIP3    H223211   4.735   2.670  17.205  0.4330  0.1255 -0.8507
  574TIP3   OH223212   0.835   2.695   1.853 -0.6238 -0.2044  0.2959
  574TIP3    H123213   0.878   2.727   1.773 -0.5066  2.0166  1.1626
  574TIP3    H223214   0.752   2.743   1.856 -0.8340 -0.6182  1.2709
  575TIP3   OH223215   4.398   3.538  13.788 -0.2748  0.1214 -0.0775
  575TIP3    H123216   4.390   3.486  13.708  0.4752 -0.1721  0.0299
  575TIP3    H223217   4.309   3.544  13.822 -0.7066  0.8096 -1.2750
  576TIP3   OH223218   1.613   1.168   6.151 -0.4332  0.7375 -0.1328
  576TIP3    H123219   1.573   1.143   6.068  0.7300 -0.7423 -0.2710
  576TIP3    H223220   1.700   1.199   6.128 -0.0831  0.2668  0.5405
  577TIP3   OH223221   2.595   2.656   1.721 -0.0045 -0.0045 -0.0486
  577TIP3    H123222   2.578   2.691   1.633 -1.0992 -4.0285 -1.6694
  577TIP3    H223223   2.509   2.626   1.751  0.8425 -1.3611  1.1013
  578TIP3   OH223224   0.958   4.762   3.210  0.2898 -0.1594 -0.5147
  578TIP3    H123225   0.872   4.787   3.177 -0.2467  1.5253  1.9492
  578TIP3    H223226   0.995   4.842   3.247  2.2481 -1.2001 -0.0390
  579TIP3   OH223227   2.111   1.225   0.523 -0.2574  0.0963  0.6263
  579TIP3    H123228   2.132   1.311   0.485  0.0907  0.6684  2.0504
  579TIP3    H223229   2.084   1.245   0.613  1.4484 -1.4255  1.5235
  580TIP3   OH223230   2.311   1.699   1.916 -0.0469  0.2948 -0.1698
  580TIP3    H123231   2.228   1.678   1.872 -0.0165  0.8716 -0.5213
  580TIP3    H223232   2.348   1.614   1.940 -1.4140  0.0567  1.2704
  581TIP3   OH223233   2.030   3.237  13.316 -0.2289 -0.4853  0.1105
  581TIP3    H123234   1.979   3.232  13.397  0.5750 -0.1429  0.6486
  581TIP3    H223235   2.096   3.304  13.333 -0.8366  0.5096 -1.2864
  582TIP3   OH223236   3.526   6.009  16.023 -0.7491  0.6115  0.2187
  582TIP3    H123237   3.480   6.008  16.107 -0.2536  0.6067  0.4938
  582TIP3    H223238   3.614   5.978  16.044 -1.2984 -1.7594 -0.7231
  583TIP3   OH223239   3.177   1.641   0.851  0.1093 -0.6465 -0.1764
  583TIP3    H123240   3.180   1.734   0.874  1.5501 -0.0461 -2.4957
  583TIP3    H223241   3.086   1.625   0.826 -0.2289  0.0290  0.5881
  584TIP3   OH223242   6.809   4.224  16.382 -0.3467  0.1957  0.5008
  584TIP3    H123243   6.744   4.175  16.432  0.8930 -0.5337  1.4384
  584TIP3    H223244   6.869   4.260  16.447  1.6122 -1.2111 -0.4315
  585TIP3   OH223245   3.485   5.381  14.927 -0.2966  0.3442  0.0214
  585TIP3    H123246   3.463   5.334  14.847  4.8304 -0.5254 -1.2233
  585TIP3    H223247   3.517   5.466  14.898  0.6989  0.4079  1.1956
  586TIP3   OH223248   3.164   5.083   5.291 -0.3166 -0.6726 -0.0729
  586TIP3    H123249   3.105   5.023   5.336  1.3317 -1.8713  0.5944
  586TIP3    H223250   3.196   5.142   5.359 -1.0637  0.2846 -0.5206
  587TIP3   OH223251   6.650   4.094   3.182  0.2681  0.2337 -0.1378
  587TIP3    H123252   6.566   4.117   3.141  1.8048  2.6076 -2.2994
  587TIP3    H223253   6.667   4.166   3.243  1.7695  1.1420 -1.5359
  588TIP3   OH223254   0.437   3.662  16.772 -0.0749 -0.0273  0.1523
  588TIP3    H123255   0.501   3.678  16.703 -0.8290 -1.6894 -0.9733
  588TIP3    H223256   0.358   3.633  16.726 -0.5341 -1.3638  1.7107
  589TIP3   OH223257   6.703   0.057   4.886  0.4123  0.0151  0.1694
  589TIP3    H123258   6.741   0.117   4.951  2.2943  0.5406 -1.3358
  589TIP3    H223259   6.622   0.101   4.857  0.3651  0.5120  1.0115
  590TIP3   OH223260   5.916   4.734  15.632  0.2007 -0.4699  0.3855
  590TIP3    H123261   5.876   4.813  15.667 -1.3959 -0.8107 -0.5622
  590TIP3    H223262   5.893   4.666  15.694  0.2677 -0.4582  0.4222
  591TIP3   OH223263   5.304   2.115  11.658  0.4196  0.2608  0.8177
  591TIP3    H123264   5.219   2.090  11.695 -0.4917  1.5585 -0.3224
  591TIP3    H223265   5.338   2.180  11.719 -0.5157  1.4716  0.1137
  592TIP3   OH223266   3.741   5.652   0.587 -0.5662 -0.0849 -0.4816
  592TIP3    H123267   3.697   5.718   0.639  0.0271 -0.5934  0.7026
  592TIP3    H223268   3.698   5.655   0.502 -1.6076  0.7130  0.0623
  593TIP3   OH223269   6.195   4.070   2.262 -0.0437  0.5312 -0.1967
  593TIP3    H123270   6.165   3.988   2.224  1.6114 -0.2208  0.0595
  593TIP3    H223271   6.140   4.137   2.221 -2.0555 -0.7510  0.2770
  594TIP3   OH223272   5.406   4.628   3.746  0.6733  0.0272  0.0752
  594TIP3    H123273   5.368   4.557   3.694  0.4514  0.8518 -0.9523
  594TIP3    H223274   5.385   4.707   3.695 -0.8160  1.0501  2.1314
  595TIP3   OH223275   4.421   3.438  11.378 -0.2671  0.4063  0.6000
  595TIP3    H123276   4.505   3.442  11.424 -0.6125  2.6686  1.1551
  595TIP3    H223277   4.391   3.529  11.374 -0.2688  0.4402 -4.1941
  596TIP3   OH223278   6.406   2.444   6.132  0.6315 -0.2782  0.4115
  596TIP3    H123279   6.334   2.406   6.181 -0.6555  1.8595  0.3339
  596TIP3    H223280   6.480   2.386   6.148 -1.0763 -2.5825  0.4819
  597TIP3   OH223281   5.122   3.078  13.322  0.4767 -0.4082  0.3594
  597TIP3    H123282   5.027   3.071  13.318  0.2734 -0.0267  2.9758
  597TIP3    H223283   5.144   3.061  13.413  2.7514  1.2182  0.2120
  598TIP3   OH223284   0.566   0.541   5.529  0.5641 -0.1269 -0.3581
  598TIP3    H123285   0.496   0.572   5.587 -0.6422  1.8032 -2.6402
  598TIP3    H223286   0.608   0.470   5.577 -1.7261 -0.0808  1.9163
  599TIP3   OH223287   2.255   6.158  17.011 -0.4473 -0.1353  0.2826
  599TIP3    H123288   2.346   6.185  16.995 -0.3966 -0.9434 -0.9224
  599TIP3    H223289   2.214   6.235  17.049  0.4586  0.6369 -0.2493
  600TIP3   OH223290   2.756   3.420   0.177 -0.7379 -0.1173  0.6983
  600TIP3    H123291   2.790   3.344   0.223 -2.6182 -2.3334 -1.3370
  600TIP3    H223292   2.787   3.410   0.087  1.0577  2.9505  0.8026
  601TIP3   OH223293   1.926   1.901   4.716  0.3985  0.3466  0.5082
  601TIP3    H123294   1.937   1.820   4.666 -2.3501  0.2722 -0.1149
  601TIP3    H223295   1.963   1.881   4.802  1.9611 -0.7089 -0.3481
  602TIP3   OH223296   4.942   0.107  16.198  0.1250 -0.2426  0.4119
  602TIP3    H123297   4.861   0.093  16.248  0.7827 -0.3815  1.4753
  602TIP3    H223298   4.913   0.114  16.107 -0.9255 -1.9392  0.5619
  603TIP3   OH223299   4.705   4.211   1.536  0.0868  0.0918  0.0236
  603TIP3    H123300   4.671   4.300   1.548 -0.6969  0.0891 -1.8063
  603TIP3    H223301   4.797   4.224   1.511  1.3153  0.1416  3.9020
  604TIP3   OH223302   5.954   0.731   4.627  0.4464 -0.0357  0.0875
  604TIP3    H123303   5.952   0.751   4.533  0.6512  3.2936  0.6875
  604TIP3    H223304   6.044   0.705   4.644  0.6300  0.2010 -0.4985
  605TIP3   OH223305   0.793   2.804  16.106 -0.5885 -0.7604 -0.2501
  605TIP3    H123306   0.801   2.826  16.013  0.6113 -0.3315 -0.0670
  605TIP3    H223307   0.745   2.878  16.143  1.4694  0.5548 -0.0436
  606TIP3   OH223308   0.594   4.058  13.850  0.0627 -0.7203  0.0579
  606TIP3    H123309   0.577   3.982  13.905 -0.4023 -0.1797  0.6720
  606TIP3    H223310   0.516   4.065  13.795  0.7191 -1.5324 -1.0134
  607TIP3   OH223311   2.664   3.735  16.731 -0.0273 -0.0260  0.3432
  607TIP3    H123312   2.596   3.772  16.788 -0.5066 -0.4556  0.0676
  607TIP3    H223313   2.704   3.666  16.784 -0.5784 -0.5298  0.1077
  608TIP3   OH223314   0.168   0.292  16.546  0.0238  0.1577 -0.0335
  608TIP3    H123315   0.094   0.308  16.606 -1.0120 -0.8413 -0.9957
  608TIP3    H223316   0.127   0.256  16.467  1.4896  0.2529 -0.8664
  609TIP3   OH223317   5.746   2.553   3.784 -0.5066 -0.1978  0.2087
  609TIP3    H123318   5.830   2.586   3.817 -1.5713  1.5313  1.3698
  609TIP3    H223319   5.767   2.512   3.700  1.1361  2.7072 -0.9451
  610TIP3   OH223320   4.295   4.925  17.007  0.0650 -0.0848  0.1083
  610TIP3    H123321   4.294   4.995  17.073 -0.2946 -0.8449  0.9331
  610TIP3    H223322   4.388   4.912  16.988  0.1187  0.7895 -0.2461
  611TIP3   OH223323   5.712   2.640   2.229 -0.1232 -0.3253 -0.7716
  611TIP3    H123324   5.714   2.581   2.154 -2.1845 -0.8317 -0.5066
  611TIP3    H223325   5.770   2.601   2.294 -0.1812 -1.1806 -1.2289
  612TIP3   OH223326   0.406   5.045   1.890 -0.1714  0.5627 -0.0572
  612TIP3    H123327   0.496   5.053   1.859 -0.3245 -0.8073 -0.9378
  612TIP3    H223328   0.381   4.955   1.869 -1.4377  0.6225  1.0292
  613TIP3   OH223329   2.498   0.647  16.268  0.2792 -0.2015  0.6044
  613TIP3    H123330   2.461   0.560  16.282 -1.6657  0.4909  0.0908
  613TIP3    H223331   2.509   0.653  16.173  1.4925 -0.2819  0.7251
  614TIP3   OH223332   6.190   0.696  15.343  0.4324  0.1954  0.0719
  614TIP3    H123333   6.250   0.679  15.416  0.1755 -0.0425  0.2270
  614TIP3    H223334   6.120   0.632  15.354 -0.1093  0.7967  0.1751
  615TIP3   OH223335   3.048   6.485   1.876  0.0318  0.0564  0.1599
  615TIP3    H123336   3.131   6.447   1.903 -0.1089  0.5489  1.3894
  615TIP3    H223337   3.009   6.420   1.819  0.9768 -0.4583  0.0842
  616TIP3   OH223338   3.473   0.851   1.914  0.4795  0.0648 -0.1123
  616TIP3    H123339   3.407   0.919   1.924 -0.0769 -0.4542 -0.1977
  616TIP3    H223340   3.471   0.829   1.821  1.2531  0.5144 -0.2451
  617TIP3   OH223341   0.264   4.980   0.111  0.3747  0.2809 -0.3278
  617TIP3    H123342   0.174   4.981   0.141  0.7664  1.6232  0.9252
  617TIP3    H223343   0.272   5.057   0.055  0.8843  0.5245  0.0637
  618TIP3   OH223344   0.251   0.997   2.469  0.1678 -0.2185  0.2533
  618TIP3    H123345   0.246   0.922   2.410 -1.5862  0.5641 -0.6832
  618TIP3    H223346   0.245   1.073   2.411 -6.3628  0.6756  1.3932
  619TIP3   OH223347   0.425   6.775   3.185  0.0324  0.1289 -0.5761
  619TIP3    H123348   0.491   6.721   3.228  0.3211  0.6266 -0.3895
  619TIP3    H223349   0.383   6.716   3.122 -1.6610 -1.1417  1.6319
  620TIP3   OH223350   0.442   1.601  14.942  0.2834  0.5560  0.5408
  620TIP3    H123351   0.414   1.544  15.014  2.9011  0.3312  1.4741
  620TIP3    H223352   0.457   1.686  14.983 -1.8343  1.5332 -0.5226
  621TIP3   OH223353   5.605   2.150  13.942 -0.3305  0.1893  0.1334
  621TIP3    H123354   5.624   2.170  13.851 -1.0157  1.1228  0.1890
  621TIP3    H223355   5.581   2.057  13.942  0.9624 -0.1648 -0.4239
  622TIP3   OH223356   5.270   2.685  16.212  0.3108  0.0488  0.3045
  622TIP3    H123357   5.264   2.591  16.201 -0.8657 -0.0516  1.6237
  622TIP3    H223358   5.187   2.720  16.179  0.8361  0.6625 -0.4173
  623TIP3   OH223359   6.459   5.932  14.310 -0.2130  0.3572 -0.3960
  623TIP3    H123360   6.370   5.923  14.276  0.1993 -2.5478 -0.9454
  623TIP3    H223361   6.508   5.973  14.238 -0.7779  0.6237 -0.6382
  624TIP3   OH223362   3.064   2.403   3.353 -0.0309  0.4600 -0.5297
  624TIP3    H123363   3.154   2.388   3.382 -1.0040 -4.0197  0.9074
  624TIP3    H223364   3.024   2.451   3.425  0.6636  0.4770 -0.1421
  625TIP3   OH223365   3.459   5.440   2.901  0.2192  0.1327  0.2425
  625TIP3    H123366   3.454   5.385   2.823  0.7435  0.0014  0.3011
  625TIP3    H223367   3.477   5.379   2.972  0.4654  0.3398  0.3586
  626TIP3   OH223368   0.687   2.094  15.424  0.3789 -0.5960  0.2503
  626TIP3    H123369   0.734   2.099  15.507  0.9246  0.0466 -0.0892
  626TIP3    H223370   0.716   2.012  15.384 -1.2587 -1.8425  1.4913
  627TIP3   OH223371   1.124   4.741   0.327  0.0493 -0.3100  0.1366
  627TIP3    H123372   1.082   4.818   0.289 -1.1233 -2.0466 -2.3189
  627TIP3    H223373   1.086   4.667   0.280  2.1460 -2.3230  1.4177
  628TIP3   OH223374   2.950   3.537  11.169  0.5141  0.2212 -0.3298
  628TIP3    H123375   2.860   3.567  11.183 -0.1186 -1.9978  0.8394
  628TIP3    H223376   2.998   3.565  11.246  0.3122 -0.3293  0.0030
  629TIP3   OH223377   0.726   1.369   0.093 -0.2913 -1.3876 -0.4137
  629TIP3    H123378   0.664   1.326   0.034  0.3048 -1.6212 -0.8857
  629TIP3    H223379   0.773   1.297   0.135 -0.3102 -1.2131 -0.0899
  630TIP3   OH223380   1.244   1.802   5.927  0.3608  0.4517 -0.3479
  630TIP3    H123381   1.231   1.727   5.984  0.3530 -0.2561 -1.2554
  630TIP3    H223382   1.237   1.878   5.985  0.8363 -0.2533  0.6619
  631TIP3   OH223383   6.806   3.257   6.160  0.0458  0.5492  0.0664
  631TIP3    H123384   6.816   3.296   6.247  1.0296  1.8727 -0.5963
  631TIP3    H223385   6.832   3.327   6.100  2.2357 -1.2283 -1.2086
  632TIP3   OH223386   1.333   5.942   0.424  0.1040  0.1388 -0.3812
  632TIP3    H123387   1.375   5.873   0.373  1.8958 -0.4875  1.7891
  632TIP3    H223388   1.297   5.896   0.500  0.1294  1.4129  0.4242
  633TIP3   OH223389   2.706   4.338   0.018  0.4161  0.0058 -0.5009
  633TIP3    H123390   2.660   4.400  -0.038  2.4827  0.9498 -1.2459
  633TIP3    H223391   2.684   4.366   0.107  0.8148  1.4701 -0.8284
  634TIP3   OH223392   2.778   6.498  15.048  0.1389  0.4098  0.3724
  634TIP3    H123393   2.796   6.490  15.142  0.4074 -0.1285  0.2843
  634TIP3    H223394   2.759   6.590  15.034 -0.8942  0.3269  1.1251
  635TIP3   OH223395   1.428   0.739   4.170 -0.8901  0.3644 -0.0267
  635TIP3    H123396   1.407   0.649   4.195  0.3001  0.3069  0.8785
  635TIP3    H223397   1.521   0.748   4.190 -0.3580  1.0266 -2.4358
  636TIP3   OH223398   0.566   1.678  11.519 -0.4934  0.1535 -0.6146
  636TIP3    H123399   0.626   1.616  11.479  0.4131 -0.1615  1.1276
  636TIP3    H223400   0.578   1.759  11.469  0.5859 -0.2140 -0.9823
  637TIP3   OH223401   1.699   1.378  14.048 -0.2792 -0.1706 -0.1186
  637TIP3    H123402   1.656   1.292  14.050 -0.6794  0.0373  0.5811
  637TIP3    H223403   1.780   1.365  14.097  0.4294 -0.5391 -1.3581
  638TIP3   OH223404   3.084   4.916   1.293  0.2546  0.2203  0.3601
  638TIP3    H123405   3.101   4.825   1.316  2.7537  0.6337  0.4628
  638TIP3    H223406   3.015   4.912   1.227  0.8896 -1.8373 -0.2444
  639TIP3   OH223407   5.270   4.396   3.380  0.2469 -0.3150  0.3775
  639TIP3    H123408   5.175   4.383   3.389  0.2117  0.3607  1.0850
  639TIP3    H223409   5.309   4.326   3.432  0.1275 -0.2282  0.5840
  640TIP3   OH223410   3.756   3.451  10.665  0.0060  0.1244 -0.8941
  640TIP3    H123411   3.775   3.444  10.759 -0.0540 -0.0028 -0.8900
  640TIP3    H223412   3.682   3.511  10.660  1.0001  1.3818 -0.9783
  641TIP3   OH223413   6.016   6.057   6.046 -0.1044  0.0256  0.1174
  641TIP3    H123414   6.035   6.139   6.092  0.7679 -1.1573  1.9545
  641TIP3    H223415   6.070   6.062   5.967 -0.6669  1.5471 -0.2160
  642TIP3   OH223416   5.549   4.378  10.807 -0.3099 -0.1608  0.0840
  642TIP3    H123417   5.479   4.375  10.741 -0.3834 -3.1200  0.1373
  642TIP3    H223418   5.508   4.347  10.887  0.6925 -0.4738  0.4920
  643TIP3   OH223419   4.790   2.301   2.490  0.3051 -0.2465  0.7545
  643TIP3    H123420   4.840   2.325   2.568  0.6378 -1.5555  0.9684
  643TIP3    H223421   4.800   2.376   2.431 -0.9079  1.2729  2.3817
  644TIP3   OH223422   0.818   5.202   5.311  0.0210  0.1164  0.5234
  644TIP3    H123423   0.864   5.216   5.393 -0.9139  0.7570  0.9513
  644TIP3    H223424   0.767   5.122   5.325  1.4429 -0.9730 -0.1746
  645TIP3   OH223425   6.692   5.558   2.865 -0.0595  0.0020  0.4990
  645TIP3    H123426   6.615   5.532   2.915  0.4609 -0.7574  0.9224
  645TIP3    H223427   6.757   5.491   2.885  0.6354  0.5063 -0.0384
  646TIP3   OH223428   3.410   0.284  15.262  0.5604 -0.8373  0.5609
  646TIP3    H123429   3.408   0.246  15.174 -1.1206 -1.0099  0.6425
  646TIP3    H223430   3.502   0.276  15.289  1.0402 -1.1223 -1.0159
  647TIP3   OH223431   0.598   2.140   3.499  0.3459 -1.2655  0.5157
  647TIP3    H123432   0.675   2.128   3.555  0.9676 -0.6242 -0.1778
  647TIP3    H223433   0.591   2.059   3.450  0.9239 -1.1173  0.1777
  648TIP3   OH223434   2.786   6.170   5.462 -0.4018  0.1559  0.3010
  648TIP3    H123435   2.740   6.121   5.530 -0.6422  0.3045  0.2493
  648TIP3    H223436   2.719   6.186   5.395 -0.0611 -0.3490 -0.1647
  649TIP3   OH223437   0.661   6.508   5.158  0.2500  0.2866 -0.3679
  649TIP3    H123438   0.627   6.444   5.095  1.7182 -0.4027 -0.5105
  649TIP3    H223439   0.665   6.590   5.109  0.8584 -0.1242 -1.0314
  650TIP3   OH223440   4.921   3.749  15.343 -0.1342  0.6529 -0.4963
  650TIP3    H123441   5.012   3.720  15.335 -0.3169 -0.0541 -0.0949
  650TIP3    H223442   4.928   3.841  15.368  0.5043  0.2792  0.8685
  651TIP3   OH223443   3.113   2.792   4.690  0.3458  0.0995  0.5404
  651TIP3    H123444   3.064   2.710   4.701  1.2120 -0.5495 -0.2520
  651TIP3    H223445   3.128   2.798   4.596 -0.0372  1.3814  0.5459
  652TIP3   OH223446   0.801   5.818   4.637  0.1789  0.1983  0.0134
  652TIP3    H123447   0.719   5.859   4.664 -0.2203 -1.9406  2.4179
  652TIP3    H223448   0.868   5.861   4.690 -0.0609 -1.1464  1.4880
  653TIP3   OH223449   0.742   2.370   1.308 -0.2937  0.2383  0.2866
  653TIP3    H123450   0.819   2.367   1.365  0.9405  1.9795 -1.1534
  653TIP3    H223451   0.738   2.462   1.280 -2.5552  0.0441 -0.1607
  654TIP3   OH223452   2.357   5.325   3.468 -0.6681 -0.5769 -0.1144
  654TIP3    H123453   2.324   5.282   3.390 -3.3572  0.1720  0.5171
  654TIP3    H223454   2.367   5.417   3.442 -0.4886 -0.5276  0.1246
  655TIP3   OH223455   0.162   1.448   1.093 -0.7218 -0.1021  0.2515
  655TIP3    H123456   0.067   1.458   1.093 -0.6780  0.5941 -1.5928
  655TIP3    H223457   0.192   1.496   1.017  0.9008 -2.3345 -0.6466
  656TIP3   OH223458   4.758   3.714   4.458 -0.2332 -0.5407 -0.3920
  656TIP3    H123459   4.789   3.628   4.487  2.2611 -0.0914 -1.4292
  656TIP3    H223460   4.758   3.709   4.363  0.4483  0.7274 -0.4915
  657TIP3   OH223461   5.764   4.916   3.678 -0.1369  0.1733  0.0900
  657TIP3    H123462   5.729   4.980   3.741 -1.6927 -2.1352  1.7650
  657TIP3    H223463   5.741   4.831   3.716  2.3184 -1.4264 -1.7425
  658TIP3   OH223464   4.338   1.323   1.466 -0.5004  0.3434 -0.2538
  658TIP3    H123465   4.242   1.320   1.459 -0.5501 -2.4803  0.4653
  658TIP3    H223466   4.355   1.391   1.531 -1.9366  1.5517 -1.0844
  659TIP3   OH223467   6.315   1.643  12.633  0.1320  0.2420  0.0216
  659TIP3    H123468   6.366   1.721  12.613 -0.2076  0.3918 -0.2705
  659TIP3    H223469   6.289   1.654  12.725  1.2705 -0.2082  0.4086
  660TIP3   OH223470   5.838   5.776  15.185  0.0120  0.0013  0.4959
  660TIP3    H123471   5.812   5.749  15.273  0.2234 -0.6026  0.3797
  660TIP3    H223472   5.933   5.789  15.191  0.5381 -2.8622 -0.3090
  661TIP3   OH223473   5.942   0.561   4.227  0.4338 -0.0829 -0.3551
  661TIP3    H123474   5.962   0.647   4.262  1.6800 -0.3563 -0.3267
  661TIP3    H223475   5.848   0.551   4.239 -0.3571  2.5383 -3.1946
  662TIP3   OH223476   5.074   0.452   4.529  0.5159 -0.3130 -0.3239
  662TIP3    H123477   5.077   0.541   4.565 -1.0215 -0.3867  0.0571
  662TIP3    H223478   5.151   0.409   4.566 -0.6996 -0.2374  2.5900
  663TIP3   OH223479   3.588   3.133  15.171 -0.2422  0.4703  0.3981
  663TIP3    H123480   3.609   3.226  15.172 -1.3185  0.7457 -0.8617
  663TIP3    H223481   3.556   3.116  15.083 -1.2662 -0.8114  0.9752
  664TIP3   OH223482   0.586   1.016  10.884 -0.2603  0.2049 -0.2380
  664TIP3    H123483   0.504   1.001  10.931 -0.0352 -1.5217 -0.3516
  664TIP3    H223484   0.644   0.946  10.913  0.7206  0.5881 -1.2009
  665TIP3   OH223485   3.735   1.622  13.797 -0.2700 -0.0782  0.8161
  665TIP3    H123486   3.750   1.717  13.805 -0.2939  0.0590 -0.6037
  665TIP3    H223487   3.768   1.586  13.880  1.5620  0.9634  0.6049
  666TIP3   OH223488   3.300   3.655  14.151  0.6109  0.5128 -0.2665
  666TIP3    H123489   3.266   3.592  14.088 -3.9084  1.6872  0.6538
  666TIP3    H223490   3.381   3.615  14.185 -0.0244 -2.9228 -2.3704
  667TIP3   OH223491   2.885   2.240  15.628  0.5811  0.4745  0.2652
  667TIP3    H123492   2.965   2.189  15.643  2.0816  2.3681 -0.9000
  667TIP3    H223493   2.909   2.330  15.649 -1.4341  1.0410  0.4051
  668TIP3   OH223494   5.591   2.944  10.484 -0.5340 -0.1843  0.3224
  668TIP3    H123495   5.540   2.992  10.550 -0.7607  1.0695 -0.7126
  668TIP3    H223496   5.550   2.969  10.401  1.2183  0.1511 -0.4643
  669TIP3   OH223497   6.742   2.693   5.494 -0.4012 -0.5175 -0.0720
  669TIP3    H123498   6.803   2.695   5.567  1.0695 -3.0338 -1.1143
  669TIP3    H223499   6.747   2.781   5.456  1.3468 -0.1658  0.8747
  670TIP3   OH223500   3.504   1.877  11.153 -0.5342  0.3761  0.8027
  670TIP3    H123501   3.446   1.910  11.085 -0.9826  0.0956  1.0486
  670TIP3    H223502   3.461   1.798  11.185  0.5701 -0.5284  0.1439
  671TIP3   OH223503   5.211   3.857  14.218 -0.0076  0.5116  0.6427
  671TIP3    H123504   5.246   3.782  14.267  0.4547  0.2919 -0.0035
  671TIP3    H223505   5.157   3.904  14.281  1.2367  0.6960  1.6142
  672TIP3   OH223506   0.457   6.467   0.256 -0.0362  0.9129  0.0144
  672TIP3    H123507   0.496   6.413   0.187  0.6103  2.1280 -0.6264
  672TIP3    H223508   0.392   6.411   0.297 -0.0192 -0.0450 -1.2015
  673TIP3   OH223509   0.820   0.702  15.108  0.2381  0.0973 -0.0499
  673TIP3    H123510   0.795   0.736  15.023  0.3239 -0.7771 -0.4335
  673TIP3    H223511   0.897   0.648  15.091 -1.5404 -2.6708  0.0276
  674TIP3   OH223512   3.247   5.306   2.399  0.0678  0.4752 -0.2482
  674TIP3    H123513   3.153   5.301   2.382 -0.1530  0.2930  0.9788
  674TIP3    H223514   3.254   5.355   2.480  0.9996 -0.1161  0.0421
  675TIP3   OH223515   0.089   2.002   2.657  0.2271  0.0029 -0.0201
  675TIP3    H123516   0.034   2.033   2.729 -0.6203  2.7569 -1.7079
  675TIP3    H223517   0.028   1.962   2.595  0.8572 -1.6589  0.3735
  676TIP3   OH223518   0.616   1.862   0.302 -0.0814  0.0015  0.0394
  676TIP3    H123519   0.700   1.829   0.272  0.8206  0.3047  2.0719
  676TIP3    H223520   0.635   1.907   0.385 -2.2369  0.0237  0.6018
  677TIP3   OH223521   3.654   6.118   2.489 -0.1549  0.0165  0.7196
  677TIP3    H123522   3.749   6.105   2.496  0.0524  0.0629 -1.5082
  677TIP3    H223523   3.618   6.029   2.490  0.2435 -0.2405 -1.8709
  678TIP3   OH223524   4.794   4.594  15.426 -0.4337  0.3564 -0.1709
  678TIP3    H123525   4.819   4.661  15.363 -1.7034  0.7586 -0.2782
  678TIP3    H223526   4.748   4.528  15.373  2.9861 -1.9667 -0.5477
  679TIP3   OH223527   4.751   2.101  16.699 -0.0602  0.3723 -0.7079
  679TIP3    H123528   4.711   2.085  16.614 -1.7263  2.4938 -0.3896
  679TIP3    H223529   4.812   2.173  16.684 -1.9609  2.2866  0.2116
  680TIP3   OH223530   1.104   1.772  16.505  0.0783 -0.2243  0.0197
  680TIP3    H123531   1.125   1.856  16.465  1.6522 -0.9733 -0.8663
  680TIP3    H223532   1.048   1.793  16.579  0.7257  1.6264  0.0355
  681TIP3   OH223533   6.053   0.335   4.347 -0.3868  0.3118  1.0418
  681TIP3    H123534   5.978   0.275   4.338 -1.3374  1.4364  1.2707
  681TIP3    H223535   6.020   0.420   4.319  1.8846  0.1645 -2.7297
  682TIP3   OH223536   1.956   1.427   2.225 -0.0642  0.3900  0.2245
  682TIP3    H123537   1.878   1.442   2.172 -1.1503  0.1086  1.6886
  682TIP3    H223538   2.027   1.416   2.161 -1.2887  0.2292 -1.1502
  683TIP3   OH223539   4.505   1.724  12.607 -0.5026 -0.7955  0.0283
  683TIP3    H123540   4.542   1.780  12.539 -3.8776 -0.0755 -1.4270
  683TIP3    H223541   4.474   1.786  12.674 -1.2403 -1.1456  0.0195
  684TIP3   OH223542   0.787   2.748  14.666 -0.5358  0.5758 -0.1720
  684TIP3    H123543   0.788   2.841  14.690  0.4137  0.6977 -0.6628
  684TIP3    H223544   0.729   2.708  14.731  0.9733  1.1019  1.5727
  685TIP3   OH223545   1.605   1.811   4.899 -0.1239 -0.4406 -0.3214
  685TIP3    H123546   1.560   1.803   4.983 -0.6749  0.2625 -0.5387
  685TIP3    H223547   1.692   1.844   4.921 -0.9729  1.8599 -0.1615
  686TIP3   OH223548   5.389   6.114   5.119 -0.6428 -0.2485 -0.5739
  686TIP3    H123549   5.369   6.177   5.188  0.5314  0.5412 -0.9338
  686TIP3    H223550   5.416   6.035   5.165  4.0465  1.4276  0.0748
  687TIP3   OH223551   4.538   6.188   4.559 -0.5418 -0.1460 -0.2499
  687TIP3    H123552   4.495   6.190   4.473  1.7448 -1.3480 -1.5325
  687TIP3    H223553   4.607   6.255   4.552  0.7216 -1.3715 -0.0116
  688TIP3   OH223554   5.438   4.126   4.016 -0.0428 -0.5341 -0.1174
  688TIP3    H123555   5.501   4.185   3.975  0.4455  0.4085  1.8805
  688TIP3    H223556   5.474   4.038   4.000 -0.6584 -0.3712 -2.9039
  689TIP3   OH223557   4.907   0.986  16.886  0.3422  0.0739 -0.3983
  689TIP3    H123558   4.986   1.023  16.926  1.5163 -0.3766 -2.1894
  689TIP3    H223559   4.896   1.035  16.804 -2.1228  1.1191  0.4379
  690TIP3   OH223560   0.711   5.663   4.860  0.3797 -0.3748  0.5058
  690TIP3    H123561   0.693   5.569   4.856 -0.7719 -0.1780  0.7192
  690TIP3    H223562   0.757   5.682   4.778  2.0772 -1.3887  1.1554
  691TIP3   OH223563   4.142   4.342  12.492  0.0085 -0.1086  0.3091
  691TIP3    H123564   4.129   4.247  12.485 -0.3788 -0.0799  0.6013
  691TIP3    H223565   4.054   4.378  12.493  0.1325  0.4698 -2.2972
  692TIP3   OH223566   6.372   5.029  17.057 -0.4640  0.4435  0.1844
  692TIP3    H123567   6.293   5.067  17.097 -1.0993  0.1065 -0.7220
  692TIP3    H223568   6.356   5.035  16.963  1.5444  2.4083 -0.1177
  693TIP3   OH223569   1.188   3.393  14.488 -0.1322  0.1821  0.1143
  693TIP3    H123570   1.210   3.326  14.553 -2.1725 -2.8308 -2.0050
  693TIP3    H223571   1.106   3.430  14.520 -0.4256 -0.3239 -0.0363
  694TIP3   OH223572   1.860   6.702  11.651 -0.2067 -0.6536 -0.0779
  694TIP3    H123573   1.945   6.696  11.696 -0.6277  2.8219  1.5014
  694TIP3    H223574   1.804   6.639  11.696  0.6120 -0.4394  1.2921
  695TIP3   OH223575   3.354   6.158   4.782 -0.2303 -0.4059  0.4845
  695TIP3    H123576   3.378   6.249   4.802  1.9089 -0.7556 -0.2016
  695TIP3    H223577   3.359   6.153   4.686  0.6961 -1.4637  0.5674
  696TIP3   OH223578   0.261   0.973  15.579 -0.3657 -0.1098 -0.4355
  696TIP3    H123579   0.282   1.062  15.606  0.7737  0.0078 -1.6118
  696TIP3    H223580   0.199   0.942  15.645 -2.2805  2.1864 -1.0160
  697TIP3   OH223581   3.998   0.634  15.511  0.6974  0.2298  0.0505
  697TIP3    H123582   4.027   0.704  15.452 -0.4925  0.1992 -0.6102
  697TIP3    H223583   4.050   0.558  15.485  0.8952  0.4744 -0.2800
  698TIP3   OH223584   0.455   6.229   1.558  0.0593 -0.2747  0.3520
  698TIP3    H123585   0.493   6.141   1.553  0.0853 -0.2193 -0.7947
  698TIP3    H223586   0.474   6.259   1.647  0.1500 -1.3804  0.7149
  699TIP3   OH223587   2.074   6.804  14.795  0.7417  0.5148 -0.0121
  699TIP3    H123588   2.159   6.775  14.762  0.0477 -0.1290 -1.3398
  699TIP3    H223589   2.055   6.883  14.745 -1.4105 -1.7548 -3.1981
  700TIP3   OH223590   6.195   2.310   5.569  0.5530 -0.4200  0.1349
  700TIP3    H123591   6.113   2.266   5.547 -0.0714  0.8351 -0.1208
  700TIP3    H223592   6.218   2.276   5.655  1.9063 -3.7972 -1.4037
  701TIP3   OH223593   0.557   0.013  16.030  0.1928 -0.2843 -0.3388
  701TIP3    H123594   0.630  -0.043  16.001 -0.4493 -0.6143 -1.3650
  701TIP3    H223595   0.492   0.006  15.960 -1.0562 -0.4142  0.7944
  702TIP3   OH223596   0.653   4.243  12.383  0.1207 -0.4010  0.0333
  702TIP3    H123597   0.689   4.317  12.334 -1.1843  1.5858  1.9020
  702TIP3    H223598   0.691   4.253  12.470  0.0814 -2.1098  0.2675
  703TIP3   OH223599   2.484   0.792  16.484 -0.2272 -0.3109 -0.3399
  703TIP3    H123600   2.489   0.734  16.408 -0.0695 -0.2582 -0.3702
  703TIP3    H223601   2.569   0.837  16.485 -0.0193 -0.7124  0.1901
  704TIP3   OH223602   2.881   4.060   1.080 -0.0317 -0.3313 -0.0723
  704TIP3    H123603   2.829   4.018   1.148  0.6700  1.0575  1.3937
  704TIP3    H223604   2.835   4.040   0.998  0.4418 -4.1812  0.4011
  705TIP3   OH223605   2.254   0.814   0.394  0.7610  0.3121  0.4491
  705TIP3    H123606   2.339   0.792   0.434  0.2685  1.7143  2.4329
  705TIP3    H223607   2.266   0.903   0.361  0.9825 -0.6231 -2.2405
  706TIP3   OH223608   1.859   1.873  11.998 -0.3975 -0.1358 -0.0709
  706TIP3    H123609   1.839   1.818  12.073 -0.8237  1.2784  0.8856
  706TIP3    H223610   1.939   1.919  12.022 -0.0214 -0.3378 -0.8805
  707TIP3   OH223611   3.586   5.270  17.081  0.2541 -0.4848 -0.4626
  707TIP3    H123612   3.675   5.271  17.116 -0.7248  1.6902  2.4507
  707TIP3    H223613   3.585   5.339  17.014  0.4383  0.7577  0.7508
  708TIP3   OH223614   5.892   5.525  11.143 -0.7653  0.5734  0.2200
  708TIP3    H123615   5.877   5.453  11.204 -1.8785  0.4746 -0.1543
  708TIP3    H223616   5.959   5.579  11.186 -0.1571 -0.4950  0.6556
  709TIP3   OH223617   5.145   5.915   2.623 -0.5277  0.6716  0.3081
  709TIP3    H123618   5.151   5.937   2.530  0.0148 -2.2886 -0.4575
  709TIP3    H223619   5.052   5.923   2.643 -0.6547  1.3269 -0.4685
  710TIP3   OH223620   0.561   2.156  12.020  0.1341  0.6575 -0.0858
  710TIP3    H123621   0.511   2.116  11.948  1.1755 -0.3513 -0.2883
  710TIP3    H223622   0.580   2.083  12.079  0.7756  1.1476  0.3247
  711TIP3   OH223623   6.317   2.993   2.372  0.5508 -0.4523 -0.0285
  711TIP3    H123624   6.296   2.981   2.279 -0.5156  1.0816 -0.0263
  711TIP3    H223625   6.232   2.999   2.415  1.0342 -1.0299  1.0504
  712TIP3   OH223626   5.319   2.411  14.382  0.3788  0.6705 -0.4974
  712TIP3    H123627   5.338   2.321  14.410 -0.0538  0.7964  0.2332
  712TIP3    H223628   5.396   2.461  14.408 -1.1180  1.3628  3.3201
  713TIP3   OH223629   5.032   1.930   5.265 -0.2029  0.1217  0.0695
  713TIP3    H123630   5.020   2.015   5.308  0.1181 -0.8771  2.2648
  713TIP3    H223631   5.127   1.918   5.262 -0.2512 -0.9542  1.5604
  714TIP3   OH223632   5.945   2.908  15.108 -0.1808 -0.5207  1.0784
  714TIP3    H123633   5.956   2.813  15.106  1.4626 -0.4586 -3.1192
  714TIP3    H223634   5.859   2.923  15.069  0.4167 -0.2856 -0.1790
  715TIP3   OH223635   2.610   5.532  10.809 -0.3018 -0.2606 -0.4470
  715TIP3    H123636   2.633   5.624  10.794 -0.1299  0.0211  1.2627
  715TIP3    H223637   2.635   5.487  10.729  1.1807  0.9272 -0.6891
  716TIP3   OH223638   2.654   4.349  15.149  0.6046 -0.2674 -0.7129
  716TIP3    H123639   2.687   4.348  15.059  1.1623  1.1867 -0.5527
  716TIP3    H223640   2.683   4.433  15.185  0.1406 -0.6875  0.7396
  717TIP3   OH223641   0.662   6.632   1.938  0.4457  0.0253 -0.4433
  717TIP3    H123642   0.638   6.566   1.874 -0.7249 -0.2177  0.2101
  717TIP3    H223643   0.676   6.712   1.887  2.0621 -0.7379 -1.2584
  718TIP3   OH223644   2.297   4.226  11.483 -0.2482  0.0536  0.3944
  718TIP3    H123645   2.266   4.183  11.403 -0.7560  0.4295  0.3812
  718TIP3    H223646   2.342   4.305  11.452 -1.3441  0.7520  0.5017
  719TIP3   OH223647   1.656   4.635   5.187  0.6391  0.3679  0.2099
  719TIP3    H123648   1.683   4.688   5.112  0.5923 -0.0704 -0.1206
  719TIP3    H223649   1.610   4.560   5.149 -0.2334  0.6296  0.7243
  720TIP3   OH223650   0.018   6.308   5.478  0.2265  0.4302 -0.1057
  720TIP3    H123651  -0.025   6.261   5.406 -2.3879  1.8838  0.3809
  720TIP3    H223652   0.036   6.395   5.442  1.4046  0.3395  0.2134
  721TIP3   OH223653   3.484   5.331  16.533 -0.0002  0.3328  0.4777
  721TIP3    H123654   3.446   5.282  16.460 -1.8329 -1.8990  2.7458
  721TIP3    H223655   3.554   5.275  16.565  0.6867  1.2162  0.5624
  722TIP3   OH223656   1.539   4.520   3.755 -0.5244 -0.2882 -0.0100
  722TIP3    H123657   1.565   4.429   3.747  1.3857 -0.1566  3.0780
  722TIP3    H223658   1.616   4.570   3.730 -0.0219  0.2882  2.4142
  723TIP3   OH223659   1.002   0.109  12.908 -0.6203  0.2303  0.1691
  723TIP3    H123660   1.062   0.035  12.897 -1.2417 -0.3516  0.6283
  723TIP3    H223661   1.056   0.186  12.891  0.7553 -0.1579  2.3579
  724TIP3   OH223662   3.397   3.933  15.846  0.3221 -0.1909  0.1126
  724TIP3    H123663   3.368   3.955  15.757 -1.5629 -0.5477  0.5948
  724TIP3    H223664   3.492   3.942  15.843  0.2117  0.9073 -1.6374
  725TIP3   OH223665   3.078   3.654   1.112  0.0574  0.5829 -0.0172
  725TIP3    H123666   3.154   3.685   1.062  0.2154 -0.2163 -0.2795
  725TIP3    H223667   3.060   3.725   1.173  0.0383  1.4716 -1.0144
  726TIP3   OH223668   1.122   0.796   2.556 -0.1324 -0.0162 -0.1357
  726TIP3    H123669   1.070   0.807   2.636 -1.6756 -1.4521 -0.8848
  726TIP3    H223670   1.079   0.853   2.492  0.1766 -0.0252 -0.3530
  727TIP3   OH223671   5.771   4.545  12.933  0.7679 -0.2031 -0.1071
  727TIP3    H123672   5.680   4.550  12.963  0.7006 -0.1483 -0.3195
  727TIP3    H223673   5.772   4.470  12.872  1.1602 -1.0680  0.9316
  728TIP3   OH223674   0.422   4.223  12.065 -0.1071 -0.4278  0.3694
  728TIP3    H123675   0.407   4.129  12.068  1.0624 -0.6315  3.0688
  728TIP3    H223676   0.347   4.260  12.112 -0.0682 -0.0853  0.1639
  729TIP3   OH223677   1.346   4.423  12.975  0.1093  0.8437 -0.3661
  729TIP3    H123678   1.351   4.468  12.890  0.4342  1.8286  0.1621
  729TIP3    H223679   1.366   4.491  13.039  0.9258 -0.1365  0.4394
  730TIP3   OH223680   0.767   1.951  16.432  0.4399  0.2595 -0.3805
  730TIP3    H123681   0.738   2.025  16.379  1.7630 -0.4356 -2.1874
  730TIP3    H223682   0.840   1.914  16.383  0.6838 -1.4418  1.1557
  731TIP3   OH223683   6.393   4.854   2.579 -0.7941 -0.0453  0.3879
  731TIP3    H123684   6.334   4.779   2.578 -0.7888 -0.0664  1.0667
  731TIP3    H223685   6.340   4.925   2.616 -1.1559  0.5987 -1.2892
  732TIP3   OH223686   3.310   5.722  15.067  0.4387  0.4358  0.0311
  732TIP3    H123687   3.353   5.770  14.996  0.6690  0.6627  0.3238
  732TIP3    H223688   3.370   5.730  15.141  0.5644 -0.4570  0.0363
  733TIP3   OH223689   0.034   5.762  13.983 -0.5117  0.0932  0.4821
  733TIP3    H123690   0.094   5.787  13.913 -0.0240 -1.0349  0.4750
  733TIP3    H223691   0.083   5.778  14.064 -1.0978  1.4560  0.5946
  734TIP3   OH223692   0.927   6.502  17.191 -0.3390 -0.0471 -0.3430
  734TIP3    H123693   0.881   6.511  17.275  0.2533  1.8589 -0.1671
  734TIP3    H223694   0.995   6.569  17.194  0.0228 -0.2814 -2.1540
  735TIP3   OH223695   1.912   4.831  16.946  0.0255  0.3569  0.0129
  735TIP3    H123696   1.986   4.771  16.936 -1.2314 -1.0908 -0.8559
  735TIP3    H223697   1.951   4.918  16.933  1.4068 -0.4270 -1.4908
  736TIP3   OH223698   1.770   2.747  11.498  0.0566  0.8124  0.1849
  736TIP3    H123699   1.831   2.755  11.572 -1.4672  0.2295  1.5472
  736TIP3    H223700   1.795   2.819  11.440  1.7190  0.8910  0.9339
  737TIP3   OH223701   0.675   4.764   1.637 -0.0128  0.2091  0.5719
  737TIP3    H123702   0.669   4.736   1.546 -3.2112 -1.3250  1.1193
  737TIP3    H223703   0.622   4.844   1.641 -0.2215  0.0417  1.1795
  738TIP3   OH223704   5.500   3.511  15.876 -0.2024 -0.3900 -0.9935
  738TIP3    H123705   5.412   3.522  15.840 -0.2926 -0.9814 -0.9700
  738TIP3    H223706   5.520   3.418  15.862  1.2302  0.1259 -2.8224
  739TIP3   OH223707   1.317   2.507   4.615  0.6878 -0.4764 -0.1199
  739TIP3    H123708   1.331   2.416   4.591 -0.2776 -0.2843 -1.5705
  739TIP3    H223709   1.373   2.556   4.554  1.6072 -0.1015  0.9983
  740TIP3   OH223710   6.178   4.817   3.170  1.2121  0.3360 -0.5548
  740TIP3    H123711   6.263   4.774   3.166  1.3114 -0.0256  2.7209
  740TIP3    H223712   6.183   4.876   3.244 -1.5471 -0.1565  0.1712
  741TIP3   OH223713   5.504   5.767   2.029 -0.8137  0.0676 -0.3413
  741TIP3    H123714   5.518   5.706   2.101 -0.7853  0.0877 -0.3295
  741TIP3    H223715   5.588   5.812   2.020 -0.9525  0.3822 -0.0907
  742TIP3   OH223716   3.076   5.405   2.758  0.3908 -0.2560  0.8319
  742TIP3    H123717   3.022   5.480   2.780 -0.5242 -0.9815  1.1308
  742TIP3    H223718   3.032   5.331   2.800 -0.8672 -1.5520 -2.4263
  743TIP3   OH223719   2.249   5.472  14.237  0.0281 -0.6075 -0.8250
  743TIP3    H123720   2.273   5.408  14.304  0.4911 -1.4345 -1.7456
  743TIP3    H223721   2.234   5.419  14.158 -0.5146  0.3351 -1.3718
  744TIP3   OH223722   0.769   2.120   4.617  0.2440  0.3063  0.5281
  744TIP3    H123723   0.690   2.169   4.642  0.0958 -0.0968  0.8712
  744TIP3    H223724   0.841   2.182   4.628 -0.1655  1.1512 -1.2276
  745TIP3   OH223725   6.829   0.489  16.376 -0.0893 -0.1185  0.1528
  745TIP3    H123726   6.827   0.585  16.384 -2.3557 -0.2124  1.5482
  745TIP3    H223727   6.906   0.463  16.428  1.0276  0.9411 -0.8879
  746TIP3   OH223728   0.184   3.342   5.890  0.0535  0.2679  0.8167
  746TIP3    H123729   0.104   3.322   5.842  0.6196  1.3484 -0.6706
  746TIP3    H223730   0.172   3.432   5.921  0.8576  0.6089  0.1793
  747TIP3   OH223731   3.910   1.074  16.981  0.4625 -0.1705 -0.4521
  747TIP3    H123732   3.894   0.981  16.965  0.9296 -0.0322 -1.8496
  747TIP3    H223733   3.865   1.118  16.909  0.0184  0.7111  0.3535
  748TIP3   OH223734   2.997   6.524  16.201  0.4461 -1.0028  0.7247
  748TIP3    H123735   2.951   6.490  16.278 -2.4438 -0.0584 -0.4462
  748TIP3    H223736   3.085   6.546  16.233 -0.1619 -2.0526  3.3550
  749TIP3   OH223737   1.956   4.437  12.786  0.5189 -0.0521  0.1093
  749TIP3    H123738   1.873   4.479  12.807  0.0024 -1.3251  0.7264
  749TIP3    H223739   1.954   4.425  12.691  0.8349  1.5799 -0.1320
  750TIP3   OH223740   0.320   1.741   1.750 -0.2713 -0.2488  0.1966
  750TIP3    H123741   0.321   1.665   1.809  0.6612  0.2149  0.8054
  750TIP3    H223742   0.410   1.773   1.751 -0.3243 -0.0060 -1.2106
  751TIP3   OH223743   2.403   0.995  16.723 -0.4250  0.2147 -0.9901
  751TIP3    H123744   2.456   1.061  16.769 -2.4359  1.0290  0.3201
  751TIP3    H223745   2.428   1.003  16.631  1.4022  0.8329 -0.4685
  752TIP3   OH223746   1.880   3.493   2.524 -0.2444 -0.3000  0.4249
  752TIP3    H123747   1.934   3.422   2.559  0.1093 -0.9741 -1.3866
  752TIP3    H223748   1.825   3.451   2.458 -1.7451  0.7052  0.9898
  753TIP3   OH223749   1.652   0.205  14.984 -0.2908 -0.0456 -0.4347
  753TIP3    H123750   1.581   0.169  15.037  1.5817 -0.9406  1.6182
  753TIP3    H223751   1.622   0.195  14.894 -3.2844  0.8021  0.3375
  754TIP3   OH223752   3.267   5.258  11.494 -0.2124  0.5670 -0.0265
  754TIP3    H123753   3.337   5.219  11.441  0.1699  1.4094 -0.1511
  754TIP3    H223754   3.313   5.314  11.556 -0.6842 -0.0856  0.9439
  755TIP3   OH223755   1.057   2.662   3.845  0.2749 -0.5977 -0.0415
  755TIP3    H123756   1.032   2.742   3.798 -2.6037 -0.7036  1.0996
  755TIP3    H223757   1.135   2.687   3.895 -0.2527  1.3419 -0.0983
  756TIP3   OH223758   4.536   2.665  11.167  0.4401 -0.2315 -0.1496
  756TIP3    H123759   4.551   2.602  11.236 -0.2227 -1.2243 -0.8909
  756TIP3    H223760   4.505   2.613  11.093  0.7186  0.8507 -1.0602
  757TIP3   OH223761   4.707   1.641  16.691 -0.3574 -0.0187 -0.2975
  757TIP3    H123762   4.783   1.630  16.748 -0.8373 -1.6157  0.1016
  757TIP3    H223763   4.712   1.731  16.661  2.2921 -0.3341 -1.1172
  758TIP3   OH223764   2.814   2.879  16.104 -0.1424  0.9569  0.5488
  758TIP3    H123765   2.824   2.888  16.009  0.3181  0.0150  0.5060
  758TIP3    H223766   2.837   2.965  16.138  0.6821  1.0119 -0.1159
  759TIP3   OH223767   0.168   4.590  15.342 -0.7647  0.1082  0.0973
  759TIP3    H123768   0.164   4.572  15.248 -1.4725  2.6300 -0.4462
  759TIP3    H223769   0.085   4.635  15.361  0.4130  1.8799  1.3533
  760TIP3   OH223770   4.159   4.253  13.981 -0.1370  0.0844  0.5313
  760TIP3    H123771   4.071   4.261  14.019 -0.2509  2.0704 -0.0141
  760TIP3    H223772   4.144   4.209  13.897 -0.9255  1.9291 -0.3580
  761TIP3   OH223773   2.474   3.367  10.718  0.1319 -0.1614 -0.8436
  761TIP3    H123774   2.410   3.434  10.740  1.6707  1.3846 -0.8668
  761TIP3    H223775   2.429   3.310  10.655 -2.0046 -0.5971  0.9418
  762TIP3   OH223776   0.225   0.649  16.807 -0.4124 -0.0573  0.0476
  762TIP3    H123777   0.150   0.604  16.767 -0.8560  1.5641 -1.0235
  762TIP3    H223778   0.211   0.639  16.902 -2.0911  0.3797 -0.1269
  763TIP3   OH223779   1.825   5.214  15.730  0.2284 -0.1311 -0.0210
  763TIP3    H123780   1.855   5.229  15.820 -0.8834 -0.5644  0.4519
  763TIP3    H223781   1.756   5.279  15.717  1.3907  0.9253 -1.1172
  764TIP3   OH223782   2.470   2.881   0.825 -0.6975 -0.4940  0.2716
  764TIP3    H123783   2.494   2.921   0.741  0.3845 -0.7591  0.4395
  764TIP3    H223784   2.416   2.805   0.801 -0.4968 -0.4957 -0.1804
  765TIP3   OH223785   5.852   4.346  15.881  0.2796  0.7144 -0.3141
  765TIP3    H123786   5.930   4.294  15.867 -0.3741 -0.0322 -1.3677
  765TIP3    H223787   5.792   4.319  15.810 -0.5816  1.9090 -0.0780
  766TIP3   OH223788   5.032   5.522  12.493  0.3946 -0.6691  0.1006
  766TIP3    H123789   5.014   5.514  12.399 -0.2428 -0.1570  0.1733
  766TIP3    H223790   5.017   5.434  12.528 -0.3321 -0.6437 -0.1276
  767TIP3   OH223791   4.398   4.207   6.224  0.1657 -0.2187 -0.2579
  767TIP3    H123792   4.409   4.135   6.285  0.3266  0.3014  0.3302
  767TIP3    H223793   4.484   4.248   6.218 -0.5925  1.9138  1.9324
  768TIP3   OH223794   3.032   4.424   4.462  0.1621  0.8528 -0.0084
  768TIP3    H123795   3.023   4.390   4.373 -2.2050 -1.4102  0.9460
  768TIP3    H223796   3.014   4.518   4.454  1.9786  1.0759 -2.1303
  769TIP3   OH223797   0.958   5.139  12.658 -0.6896 -0.1354  0.1293
  769TIP3    H123798   1.000   5.093  12.731  0.1899  0.5486  0.0704
  769TIP3    H223799   0.962   5.077  12.586 -0.9876 -0.5805  0.4877
  770TIP3   OH223800   6.499   6.419   3.557  0.1542  0.0396  0.4377
  770TIP3    H123801   6.508   6.446   3.648 -0.2559 -0.7981  0.7399
  770TIP3    H223802   6.573   6.360   3.542  0.7580  0.9145 -0.0602
  771TIP3   OH223803   4.625   0.568  11.817  0.2675  0.5362 -0.6735
  771TIP3    H123804   4.702   0.571  11.874 -0.3765  0.6887  0.2123
  771TIP3    H223805   4.650   0.509  11.746  0.7894 -0.3700  0.2368
  772TIP3   OH223806   1.923   5.940   6.031  0.5094 -0.4100 -0.2473
  772TIP3    H123807   1.925   5.864   6.090  2.8582 -0.3972 -0.2019
  772TIP3    H223808   1.850   5.993   6.062 -1.0411 -2.4890 -0.1130
  773TIP3   OH223809   4.063   6.403   1.028 -0.5533  0.1769 -0.2552
  773TIP3    H123810   4.148   6.447   1.034 -1.2945  1.4984  1.3271
  773TIP3    H223811   4.013   6.455   0.966 -1.5138  1.8561  1.7972
  774TIP3   OH223812   2.747   4.439  14.071  0.2048 -0.3508 -0.1426
  774TIP3    H123813   2.824   4.453  14.017 -1.6459  0.5049 -2.7618
  774TIP3    H223814   2.698   4.369  14.028 -1.6436  0.7851 -0.0382
  775TIP3   OH223815   4.159   1.428  12.525 -0.0269  0.4662 -0.3252
  775TIP3    H123816   4.179   1.401  12.615 -0.5454  0.0879 -0.3224
  775TIP3    H223817   4.124   1.350  12.483  0.0276  0.6954 -0.8047
  776TIP3   OH223818   0.582   4.964  16.151 -0.2392 -0.2671  0.6287
  776TIP3    H123819   0.582   4.911  16.071 -1.8626  0.1741  0.2874
  776TIP3    H223820   0.672   4.997  16.159 -0.4064  1.1614 -2.0449
  777TIP3   OH223821   2.812   0.159  13.931 -0.2236 -0.2961 -0.5081
  777TIP3    H123822   2.856   0.214  13.866  2.0039 -0.6490  0.5907
  777TIP3    H223823   2.809   0.213  14.010  0.5658 -1.1643  0.1408
  778TIP3   OH223824   1.618   6.582  15.280 -0.1234  0.0693  0.2958
  778TIP3    H123825   1.570   6.501  15.261 -0.4223  0.6397 -1.5489
  778TIP3    H223826   1.556   6.652  15.262  0.5789  0.7581  0.4969
  779TIP3   OH223827   0.768   0.549  12.846  0.0812 -0.3579  0.1702
  779TIP3    H123828   0.797   0.608  12.915  1.0331  0.5934 -0.9887
  779TIP3    H223829   0.847   0.500  12.822 -0.8524 -2.6840  1.6087
  780TIP3   OH223830   2.043   6.342  11.740 -0.1112 -0.0915  0.3862
  780TIP3    H123831   2.119   6.319  11.687  0.7020  0.4326  1.3035
  780TIP3    H223832   2.058   6.432  11.767 -0.6902 -0.2254  1.2029
  781TIP3   OH223833   3.745   2.125   1.205  0.0405  0.4684  0.3883
  781TIP3    H123834   3.696   2.046   1.228  0.4731  0.0557 -0.0757
  781TIP3    H223835   3.710   2.151   1.120  1.8947 -0.9466 -0.9057
  782TIP3   OH223836   3.374   4.800   2.783  0.7078  0.3596 -0.3856
  782TIP3    H123837   3.352   4.723   2.731  0.4453 -0.0238  0.2884
  782TIP3    H223838   3.416   4.860   2.720  0.5177 -0.1472 -1.0050
  783TIP3   OH223839   5.263   6.138   5.531  0.1052 -0.1893 -0.1529
  783TIP3    H123840   5.303   6.184   5.604 -0.2155  0.0278 -0.1125
  783TIP3    H223841   5.303   6.177   5.453  0.8226 -0.7674 -0.0914
  784TIP3   OH223842   3.815   1.937   3.782  0.0915  0.7383 -0.1248
  784TIP3    H123843   3.791   1.844   3.788 -0.4052  0.7937 -1.1330
  784TIP3    H223844   3.875   1.950   3.856 -0.2152 -0.2611  0.3255
  785TIP3   OH223845   0.926   3.605  12.663 -0.1397 -0.0592  0.4021
  785TIP3    H123846   0.884   3.690  12.679 -0.0555  0.4773 -1.8821
  785TIP3    H223847   0.854   3.546  12.642 -0.0167  0.0494 -0.3347
  786TIP3   OH223848   3.788   0.956  16.133 -0.1159  0.3596 -0.4974
  786TIP3    H123849   3.709   0.909  16.162 -0.9076  1.7307 -0.3506
  786TIP3    H223850   3.778   1.044  16.169  0.9834  0.8518 -1.3484
  787TIP3   OH223851   4.659   3.301  15.530 -0.2831 -0.1639  0.5157
  787TIP3    H123852   4.697   3.378  15.488 -0.5553 -0.0770  0.4271
  787TIP3    H223853   4.566   3.304  15.506  0.0048 -1.4207 -0.8646
  788TIP3   OH223854   1.382   2.425   5.324 -0.2072  0.4200 -0.9668
  788TIP3    H123855   1.463   2.470   5.344  1.0520 -0.8880 -2.7319
  788TIP3    H223856   1.313   2.484   5.354  1.3747  1.4780  0.7687
  789TIP3   OH223857   6.513   6.003  14.603  0.2534 -0.3211  0.2548
  789TIP3    H123858   6.511   6.098  14.612  1.2740 -0.3217  0.5860
  789TIP3    H223859   6.468   5.985  14.521  1.1276  0.5375 -0.4291
  790TIP3   OH223860   5.831   6.202  12.751  0.1144  0.2835  0.1753
  790TIP3    H123861   5.920   6.224  12.723 -0.0359 -0.7576 -1.1776
  790TIP3    H223862   5.780   6.201  12.671 -1.4355  2.1172  1.0666
  791TIP3   OH223863   3.041   0.026   2.312  0.4430  0.5125  1.1474
  791TIP3    H123864   3.126   0.045   2.352  1.6011 -1.3910 -0.2546
  791TIP3    H223865   3.058   0.030   2.217 -1.0019  0.0036  0.8438
  792TIP3   OH223866   5.147   1.940  14.334 -0.2685  0.1901  0.1683
  792TIP3    H123867   5.068   1.994  14.343 -1.6343 -1.6147 -0.5206
  792TIP3    H223868   5.144   1.880  14.408 -0.7804 -1.3660 -1.0598
  793TIP3   OH223869   6.752   3.892  13.935 -0.7192  0.1245 -0.7081
  793TIP3    H123870   6.726   3.894  14.027 -2.2457  1.4142 -1.1252
  793TIP3    H223871   6.671   3.874  13.887  0.3490 -2.4820 -1.7513
  794TIP3   OH223872   6.192   4.737   1.261  0.6883 -0.2579  0.1330
  794TIP3    H123873   6.148   4.719   1.344 -1.0581  2.1879 -0.1772
  794TIP3    H223874   6.279   4.767   1.286 -0.3040  1.8805  1.2316
  795TIP3   OH223875   6.220   4.199   1.114 -0.3352  0.5335 -0.4744
  795TIP3    H123876   6.302   4.205   1.165 -0.0191 -1.7978 -0.5936
  795TIP3    H223877   6.169   4.275   1.142 -0.0727 -0.4562  3.2008
  796TIP3   OH223878   0.698   6.240  17.021 -0.0777 -0.3677  0.0562
  796TIP3    H123879   0.774   6.286  16.985  1.5650 -2.0069  1.2374
  796TIP3    H223880   0.694   6.158  16.973 -1.4111 -0.1183 -0.2963
  797TIP3   OH223881   2.631   3.844   5.865 -0.1917  0.2139 -0.1047
  797TIP3    H123882   2.681   3.915   5.904 -0.9962  0.3312  0.7624
  797TIP3    H223883   2.656   3.767   5.916 -1.3639  0.3960  0.7935
  798TIP3   OH223884   1.038   5.232   0.868 -0.5288  0.0009 -1.2392
  798TIP3    H123885   0.961   5.265   0.822 -0.8515 -0.0362 -0.7396
  798TIP3    H223886   1.083   5.310   0.899 -2.2436  0.0303  1.4942
  799TIP3   OH223887   3.192   5.571  15.849  0.4624  0.0177 -0.0246
  799TIP3    H123888   3.240   5.641  15.804 -0.6986  0.6027 -0.3813
  799TIP3    H223889   3.106   5.609  15.867 -0.0189 -1.1600  0.2109
  800TIP3   OH223890   1.756   1.325  10.510 -0.4631  0.3201 -0.2486
  800TIP3    H123891   1.752   1.289  10.421 -0.6543  1.4181 -0.6913
  800TIP3    H223892   1.794   1.254  10.562 -0.7474 -0.4962 -1.1162
  801TIP3   OH223893   2.026   3.832  16.211 -0.0166  0.2087 -0.2755
  801TIP3    H123894   1.947   3.867  16.171  0.1910  0.8536 -0.1496
  801TIP3    H223895   2.095   3.893  16.184  0.4262 -0.3197 -0.3487
  802TIP3   OH223896   0.252   4.663  14.776  0.0955 -0.1969  0.1027
  802TIP3    H123897   0.179   4.718  14.748  0.3148  0.0491 -0.0014
  802TIP3    H223898   0.218   4.574  14.775 -0.4579 -0.0024  0.9114
  803TIP3   OH223899   5.787   0.129   5.907 -0.1780  0.5285 -0.1930
  803TIP3    H123900   5.808   0.186   5.834 -0.6394  2.6350  1.2119
  803TIP3    H223901   5.706   0.085   5.881  0.2572  0.3776 -1.3547
  804TIP3   OH223902   1.804   3.137   4.717  0.1517 -0.4551  0.0872
  804TIP3    H123903   1.858   3.164   4.642  0.2565  0.2670  0.4137
  804TIP3    H223904   1.715   3.134   4.682  0.3339 -1.1553 -0.3288
  805TIP3   OH223905   0.380   5.854   5.271  0.0590  0.2721  0.0180
  805TIP3    H123906   0.289   5.834   5.292  0.4435  0.1403  1.7189
  805TIP3    H223907   0.392   5.821   5.182 -1.7472  0.9940 -0.5418
  806TIP3   OH223908   3.246   4.775  13.220 -0.4395 -0.2967  0.2606
  806TIP3    H123909   3.317   4.743  13.164 -1.1276 -0.3162 -0.6120
  806TIP3    H223910   3.266   4.868  13.233 -0.9602  0.0189 -1.0941
  807TIP3   OH223911   0.736   5.993  14.342 -0.4306 -0.1950 -0.0743
  807TIP3    H123912   0.678   6.068  14.356 -1.5937 -0.7719 -1.5799
  807TIP3    H223913   0.793   6.019  14.270  0.5306 -0.0448  0.6990
  808TIP3   OH223914   1.791   3.319   2.813 -0.2026 -0.5230 -0.5069
  808TIP3    H123915   1.832   3.362   2.889 -2.1903  3.0062 -1.1893
  808TIP3    H223916   1.865   3.286   2.762  1.3395 -0.5566  1.5962
  809TIP3   OH223917   3.869   6.168  13.121 -0.0049  0.4949 -0.1073
  809TIP3    H123918   3.957   6.134  13.138 -0.4113 -0.0074  1.1003
  809TIP3    H223919   3.853   6.149  13.029  1.1122  0.4940 -0.3085
  810TIP3   OH223920   6.332   2.499   4.807 -0.4649  0.2028  0.4397
  810TIP3    H123921   6.292   2.585   4.802 -0.6014  0.1347  0.3640
  810TIP3    H223922   6.426   2.515   4.799 -0.5378  0.2807 -0.3133
  811TIP3   OH223923   5.318   4.101  17.099 -0.2932  0.2257  0.5838
  811TIP3    H123924   5.318   4.032  17.033 -0.1387  1.5386 -0.8280
  811TIP3    H223925   5.225   4.121  17.113 -0.3318 -0.1513  0.9000
  812TIP3   OH223926   4.336   3.513  16.055  0.1672  0.2142  0.0781
  812TIP3    H123927   4.397   3.492  16.125  0.3502 -1.0327 -0.4313
  812TIP3    H223928   4.347   3.442  15.991 -2.9167 -0.9889  0.6818
  813TIP3   OH223929   2.157   6.446  15.292  0.5465  0.4410  0.1653
  813TIP3    H123930   2.187   6.534  15.269 -2.1154  1.2919 -0.4941
  813TIP3    H223931   2.116   6.456  15.378  0.8475 -0.3191  0.4072
  814TIP3   OH223932   6.270   3.833   0.635  0.9790 -0.2505 -1.3472
  814TIP3    H123933   6.286   3.739   0.626 -0.1940 -0.5759 -0.3212
  814TIP3    H223934   6.189   3.848   0.588  0.9651  0.1785 -1.1909
  815TIP3   OH223935   2.167   4.317   2.440  0.0784  0.1021 -0.0804
  815TIP3    H123936   2.133   4.286   2.356 -2.0233  1.8879  0.0112
  815TIP3    H223937   2.094   4.304   2.501  0.9595  0.4183  1.0788
  816TIP3   OH223938   5.605   6.337   1.244 -0.0373 -0.3171  0.2285
  816TIP3    H123939   5.630   6.251   1.280  0.1263 -0.4509 -0.1992
  816TIP3    H223940   5.687   6.376   1.216 -0.2948 -0.9020 -1.5063
  817TIP3   OH223941   4.861   3.304  10.957 -0.5935 -0.3082  0.7371
  817TIP3    H123942   4.858   3.314  10.862 -0.5495  0.4111  0.8062
  817TIP3    H223943   4.934   3.244  10.973  0.4956  0.8712  0.3960
  818TIP3   OH223944   3.771   1.853   5.013  0.2017  0.1958  0.4937
  818TIP3    H123945   3.811   1.807   5.086 -0.3953 -0.6546  0.2974
  818TIP3    H223946   3.747   1.785   4.951  0.1166  0.8503 -0.2161
  819TIP3   OH223947   6.387   3.674  13.691 -0.7724 -0.2406 -0.1940
  819TIP3    H123948   6.374   3.588  13.652 -0.8460  0.1931 -1.1494
  819TIP3    H223949   6.315   3.683  13.753 -0.5977 -0.9772  0.1362
  820TIP3   OH223950   0.736   0.266   4.141 -0.0653  0.1296 -0.5668
  820TIP3    H123951   0.652   0.264   4.095  0.1422 -0.2071 -0.9389
  820TIP3    H223952   0.714   0.292   4.230 -0.1627  3.9215 -1.5264
  821TIP3   OH223953   4.110   2.714   2.847  0.0150 -0.3920  0.0103
  821TIP3    H123954   4.086   2.739   2.758 -0.3876  0.0675  0.2483
  821TIP3    H223955   4.151   2.628   2.837  0.3422 -0.1643 -0.6657
  822TIP3   OH223956   3.783   0.481   6.334 -0.3629  0.1369  0.5475
  822TIP3    H123957   3.711   0.419   6.333  0.3652 -0.8042  2.0812
  822TIP3    H223958   3.808   0.491   6.242 -0.6161 -1.7190  0.2347
  823TIP3   OH223959   1.529   1.858   2.240  0.0445 -0.0098  0.2415
  823TIP3    H123960   1.513   1.803   2.163 -1.2130  0.6187  0.0336
  823TIP3    H223961   1.536   1.947   2.206  2.1743 -0.0085  0.5650
  824TIP3   OH223962   6.224   2.133   3.022 -0.0140  0.2143 -0.1236
  824TIP3    H123963   6.143   2.179   3.043  0.8068  1.0529  1.3389
  824TIP3    H223964   6.265   2.114   3.106  0.5098 -1.7424 -0.7470
  825TIP3   OH223965   0.531   4.007  16.701  0.1661  0.1870 -0.0598
  825TIP3    H123966   0.576   4.005  16.785  0.5752 -2.1637 -0.2425
  825TIP3    H223967   0.571   3.936  16.651 -1.3651  0.2874 -1.5363
  826TIP3   OH223968   2.713   3.975   5.512  0.2321 -0.0429  0.1252
  826TIP3    H123969   2.670   4.033   5.448  0.5808  0.2272  0.1321
  826TIP3    H223970   2.708   4.022   5.595  0.1432 -0.2124  0.2169
  827TIP3   OH223971   5.677   0.711   1.066  0.3469  0.3783  0.4120
  827TIP3    H123972   5.727   0.764   1.004  0.7411  0.3409  0.6941
  827TIP3    H223973   5.640   0.641   1.012  0.6615  0.3633  0.2104
  828TIP3   OH223974   0.186   6.732  17.063  0.0647  0.1707  0.0340
  828TIP3    H123975   0.184   6.713  17.157 -0.0318 -1.8790 -0.3207
  828TIP3    H223976   0.094   6.741  17.038  0.0659  0.2857  0.0741
  829TIP3   OH223977   3.818   4.174  16.722 -0.2141 -0.4838  0.1794
  829TIP3    H123978   3.865   4.093  16.708  0.4381 -0.0738 -0.0218
  829TIP3    H223979   3.836   4.227  16.645 -0.6858 -0.1676  0.2793
  830TIP3   OH223980   6.510   6.831   3.062 -0.6954  0.5465 -0.6823
  830TIP3    H123981   6.427   6.822   3.109 -0.7242  0.7813 -0.6878
  830TIP3    H223982   6.575   6.845   3.131 -0.7240  0.7966 -0.7039
  831TIP3   OH223983   6.607   0.795  13.290  0.3634  0.2934  0.0929
  831TIP3    H123984   6.558   0.723  13.249  1.3390 -0.7317  0.6506
  831TIP3    H223985   6.557   0.816  13.369  0.4062 -0.2481  0.2732
  832TIP3   OH223986   1.002   2.361   1.890 -0.0917  0.5125  0.1135
  832TIP3    H123987   1.002   2.265   1.884 -1.4875  0.4394  0.8578
  832TIP3    H223988   0.910   2.384   1.900 -0.0308  2.1156 -2.2051
  833TIP3   OH223989   1.548   1.576   6.393  0.5375 -0.1708  0.1404
  833TIP3    H123990   1.480   1.606   6.333  0.1998  0.2614  0.7317
  833TIP3    H223991   1.582   1.656   6.433  1.8690 -0.3180 -0.6319
  834TIP3   OH223992   3.868   2.783   5.757  0.4335  0.7201  0.1951
  834TIP3    H123993   3.857   2.874   5.729  0.9750  0.0986 -2.2346
  834TIP3    H223994   3.874   2.733   5.676 -0.4439 -1.5975  1.4591
  835TIP3   OH223995   5.691   3.233   1.596  0.0839  0.2812 -0.6291
  835TIP3    H123996   5.745   3.263   1.670  0.3036  2.0046 -1.4370
  835TIP3    H223997   5.606   3.275   1.610  0.0616  0.4440 -1.2101
  836TIP3   OH223998   3.719   1.885  15.673  0.1000  0.3221  0.4605
  836TIP3    H123999   3.718   1.789  15.680 -1.5679  0.1987 -0.9281
  836TIP3    H224000   3.771   1.903  15.595  0.0029  0.5285  0.4436
  837TIP3   OH224001   3.821   1.842  17.027  0.6768  0.0681 -0.1474
  837TIP3    H124002   3.869   1.776  17.076 -1.6444 -0.3117  1.8212
  837TIP3    H224003   3.845   1.826  16.935  3.9340 -0.2376  0.6511
  838TIP3   OH224004   2.177   1.997  16.682 -0.3668 -0.4962  0.2223
  838TIP3    H124005   2.181   1.955  16.767 -1.4957  0.5430  0.8151
  838TIP3    H224006   2.089   1.979  16.650 -0.9681  1.5747  0.6020
  839TIP3   OH224007   5.041   3.592  15.620 -0.1441  0.5347 -0.6387
  839TIP3    H124008   5.099   3.656  15.579  0.3371  0.6606  0.2066
  839TIP3    H224009   5.025   3.626  15.708  1.7966 -1.4564  0.6037
  840TIP3   OH224010   5.182   6.037  16.236 -0.2746 -0.6251 -0.1505
  840TIP3    H124011   5.254   6.027  16.174  0.2628  1.0657  0.1513
  840TIP3    H224012   5.135   6.114  16.206 -0.4780 -0.2552  1.0889
  841TIP3   OH224013   4.514   2.658   4.264 -0.6734 -0.1561  0.0304
  841TIP3    H124014   4.446   2.656   4.196  0.6137 -0.9246 -1.3072
  841TIP3    H224015   4.580   2.718   4.229  0.0001 -0.5424  0.6223
  842TIP3   OH224016   6.355   5.768  11.688 -0.3225 -0.4162  0.2244
  842TIP3    H124017   6.394   5.790  11.773 -2.1152 -0.2981  1.0644
  842TIP3    H224018   6.329   5.852  11.651  1.2633 -0.3816 -0.8964
  843TIP3   OH224019   1.015   5.785  12.932  0.3975  0.3733 -0.2239
  843TIP3    H124020   1.105   5.753  12.942  0.4238  0.1829 -0.9926
  843TIP3    H224021   0.961   5.717  12.971  0.5525  0.1880 -0.3298
  844TIP3   OH224022   5.534   2.616  13.553  0.1248  0.0486 -0.4207
  844TIP3    H124023   5.482   2.695  13.541  0.2152  0.4250  1.3981
  844TIP3    H224024   5.509   2.583  13.640  0.8277 -1.3541 -0.7163
  845TIP3   OH224025   0.498   4.381  10.944 -0.5341  0.7616  0.3421
  845TIP3    H124026   0.412   4.418  10.960 -0.8860  0.6140 -1.0733
  845TIP3    H224027   0.532   4.430  10.869  0.4694  0.5775  0.6515
  846TIP3   OH224028   6.612   0.340   5.740 -0.3980  0.0344  0.5890
  846TIP3    H124029   6.605   0.433   5.764 -1.1284 -0.1859  1.2462
  846TIP3    H224030   6.659   0.300   5.814 -1.4408 -0.3951  1.0328
  847TIP3   OH224031   0.145   0.191   5.991  0.5056  0.0084  0.1954
  847TIP3    H124032   0.204   0.126   6.028 -0.4925 -0.1277  1.6251
  847TIP3    H224033   0.110   0.149   5.912  1.3216 -0.4152  0.0550
  848TIP3   OH224034   4.442   2.912  11.578 -0.7937 -0.0582  0.0803
  848TIP3    H124035   4.533   2.880  11.573 -0.0546  1.9119  0.0189
  848TIP3    H224036   4.412   2.884  11.665  0.3900  0.5052  0.6942
  849TIP3   OH224037   4.181   2.127   1.295 -0.1153  0.3730  0.0543
  849TIP3    H124038   4.213   2.147   1.207  2.9305 -2.3212  0.3285
  849TIP3    H224039   4.105   2.071   1.281 -0.6579  1.3014 -0.8121
  850TIP3   OH224040   3.631   6.709  15.841 -0.3374 -0.4488 -0.1660
  850TIP3    H124041   3.703   6.654  15.812  0.4180  0.8119 -0.8032
  850TIP3    H224042   3.664   6.799  15.831 -0.7500  0.1182  2.7673
  851TIP3   OH224043   6.614   0.509  15.332  0.0705 -0.4959  0.1555
  851TIP3    H124044   6.659   0.506  15.417 -0.1394 -2.4943  0.2399
  851TIP3    H224045   6.524   0.483  15.352 -0.5772  1.2068 -0.3692
  852TIP3   OH224046   4.773   3.291  15.056  0.0911  0.0454  0.0931
  852TIP3    H124047   4.700   3.294  14.994  1.0093  1.4075 -0.9923
  852TIP3    H224048   4.778   3.199  15.083 -1.2419 -0.2994 -0.7505
  853TIP3   OH224049   6.478   0.765  12.899  0.6294 -0.3197 -0.0970
  853TIP3    H124050   6.502   0.716  12.977  0.6947  1.8148  1.3046
  853TIP3    H224051   6.431   0.842  12.932 -1.2043 -0.3598 -2.2840
  854TIP3   OH224052   4.338   5.577  16.196 -0.3355 -0.2918 -0.6178
  854TIP3    H124053   4.330   5.610  16.285  0.4560 -2.0503  0.1536
  854TIP3    H224054   4.387   5.645  16.149 -1.0064  0.7783  0.1926
  855TIP3   OH224055   2.393   2.446  15.135 -0.4399  0.0409 -0.5791
  855TIP3    H124056   2.457   2.413  15.071 -0.0358  0.2329 -0.2821
  855TIP3    H224057   2.412   2.397  15.215  0.1195  0.9170 -0.1549
  856TIP3   OH224058   2.095   3.031  14.969 -0.0289 -0.0132 -0.1670
  856TIP3    H124059   2.085   2.953  14.914 -2.3289  1.3013 -1.7672
  856TIP3    H224060   2.188   3.050  14.967  0.3244 -1.6482 -1.2839
  857TIP3   OH224061   3.848   4.389  12.566 -0.5226  0.0728  0.2477
  857TIP3    H124062   3.807   4.303  12.558 -0.2928 -0.0339  0.2149
  857TIP3    H224063   3.855   4.403  12.661 -0.5567  0.0531  0.2532
  858TIP3   OH224064   3.349   3.502   5.952 -0.1961 -0.4676  0.0670
  858TIP3    H124065   3.387   3.467   5.872  2.9945  0.9276  0.8147
  858TIP3    H224066   3.363   3.432   6.017 -0.2641 -0.5326  0.0115
  859TIP3   OH224067   1.580   2.949   1.055  0.0030  0.0169 -0.4320
  859TIP3    H124068   1.521   3.020   1.033 -0.3643  0.1544  0.8961
  859TIP3    H224069   1.523   2.872   1.063  0.3861 -0.4361 -1.7861
  860TIP3   OH224070   4.707   6.360   3.000  0.0422  0.2612 -0.3403
  860TIP3    H124071   4.650   6.408   2.939 -0.4592  0.1847  0.0625
  860TIP3    H224072   4.796   6.384   2.974 -0.1989  1.3484 -0.1948
  861TIP3   OH224073   5.886   0.531  16.324 -0.4941 -0.2142 -0.0183
  861TIP3    H124074   5.870   0.441  16.355  1.7594 -0.8236 -0.4195
  861TIP3    H224075   5.961   0.560  16.376 -0.0877  0.7675 -1.1189
  862TIP3   OH224076   0.074   2.553  11.314  0.1077 -0.6308  0.5743
  862TIP3    H124077   0.129   2.482  11.283  0.1878 -0.4786  0.3659
  862TIP3    H224078  -0.014   2.531  11.281  0.3329 -0.0591 -0.4754
  863TIP3   OH224079   2.474   3.638  14.176 -0.6215  0.2066  0.1732
  863TIP3    H124080   2.404   3.581  14.210 -0.4090  0.1636  0.5452
  863TIP3    H224081   2.466   3.631  14.081 -0.4945 -0.5926  0.2065
  864TIP3   OH224082   4.161   2.422  13.848 -0.1942  0.1578  0.6625
  864TIP3    H124083   4.201   2.338  13.866  1.8988  0.5919 -1.5053
  864TIP3    H224084   4.067   2.404  13.844  0.2443 -2.2362 -0.4626
  865TIP3   OH224085   1.013   6.425   3.273  0.6506  0.6510  0.2345
  865TIP3    H124086   0.963   6.479   3.212  1.3634  0.0002 -0.9680
  865TIP3    H224087   0.949   6.367   3.313  0.3152  0.3812 -0.6728
  866TIP3   OH224088   6.120   4.548   2.185  1.0582 -0.1561 -0.1192
  866TIP3    H124089   6.079   4.507   2.109  1.5402 -0.6071 -0.1452
  866TIP3    H224090   6.209   4.569   2.155  1.1803 -0.1405  0.2499
  867TIP3   OH224091   2.166   4.682   0.561 -0.2503  0.3872 -0.1948
  867TIP3    H124092   2.099   4.747   0.539 -1.4036 -0.9083 -0.6687
  867TIP3    H224093   2.118   4.614   0.608  1.2696  0.7166  1.9709
  868TIP3   OH224094   4.123   4.782  11.572  0.1174 -0.1906 -1.0612
  868TIP3    H124095   4.122   4.733  11.490 -0.7847 -0.7421 -0.7380
  868TIP3    H224096   4.038   4.764  11.612  1.1789 -1.3796  0.8477
  869TIP3   OH224097   3.003   1.626  14.102  0.4091 -0.3068  0.0149
  869TIP3    H124098   2.976   1.672  14.023 -0.0738  1.9483  1.4102
  869TIP3    H224099   2.936   1.559  14.114 -1.7565  1.8077  0.5365
  870TIP3   OH224100   5.435   4.254  13.193  0.1002 -0.1506 -0.4878
  870TIP3    H124101   5.425   4.341  13.232 -0.8548 -0.9599  1.1747
  870TIP3    H224102   5.415   4.193  13.265 -0.2478 -1.7367 -1.8715
  871TIP3   OH224103   6.309   1.391  14.343 -0.5952 -0.5175  0.2483
  871TIP3    H124104   6.277   1.466  14.392 -0.8162  1.3820 -2.5631
  871TIP3    H224105   6.231   1.356  14.299 -0.1440 -0.9910 -0.1910
  872TIP3   OH224106   5.344   1.917   1.000  0.5654  0.0650 -0.2623
  872TIP3    H124107   5.258   1.955   1.017  0.9093  0.1783  1.5053
  872TIP3    H224108   5.350   1.910   0.905 -1.1904  0.5033 -0.4311
  873TIP3   OH224109   5.228   6.493   1.884 -0.4221 -0.1499 -0.9576
  873TIP3    H124110   5.299   6.510   1.946 -0.8066 -1.2203 -0.1998
  873TIP3    H224111   5.259   6.531   1.802  2.3597 -3.0221 -1.4560
  874TIP3   OH224112   2.395   6.371  15.165 -0.1260 -0.6471  0.1153
  874TIP3    H124113   2.301   6.384  15.176 -0.1218 -1.5021  1.4013
  874TIP3    H224114   2.429   6.364  15.255  1.1807 -0.2546 -0.3202
  875TIP3   OH224115   4.693   1.471  11.591 -0.3624 -0.0326 -0.2117
  875TIP3    H124116   4.641   1.460  11.671 -0.4527  0.9472 -0.1289
  875TIP3    H224117   4.653   1.411  11.528  0.1481 -1.3419  0.6785
  876TIP3   OH224118   1.420   4.452  16.424 -0.3894  0.0537 -0.0011
  876TIP3    H124119   1.347   4.506  16.396  0.2618  0.9424 -0.0346
  876TIP3    H224120   1.441   4.483  16.512 -0.4367 -0.6093  0.2529
  877TIP3   OH224121   4.344   4.226   3.777 -0.5670  0.1791 -0.0597
  877TIP3    H124122   4.369   4.180   3.856 -1.0849 -0.1742 -0.0991
  877TIP3    H224123   4.286   4.296   3.806  0.7795  1.2769  0.0816
  878TIP3   OH224124   4.457   3.342  11.836 -0.6487  0.1079  0.2789
  878TIP3    H124125   4.444   3.307  11.924  0.7170 -0.5310  0.2534
  878TIP3    H224126   4.492   3.268  11.785 -1.4605  0.4522 -0.8232
  879TIP3   OH224127   2.674   5.835  13.212  0.5033  0.1438 -0.2156
  879TIP3    H124128   2.655   5.909  13.154 -0.0627 -0.9381 -1.4753
  879TIP3    H224129   2.633   5.857  13.295  1.1991  1.6801 -0.2542
  880TIP3   OH224130   0.832   3.293   1.359  0.2429  0.4397  0.2447
  880TIP3    H124131   0.848   3.296   1.265  1.1573 -0.4553  0.3543
  880TIP3    H224132   0.920   3.298   1.398  0.3119 -3.2644  0.9216
  881TIP3   OH224133   5.792   6.226   1.472 -0.3724  0.6338 -0.1071
  881TIP3    H124134   5.881   6.261   1.474 -0.8095  1.8286 -0.8039
  881TIP3    H224135   5.803   6.132   1.453  0.7577  0.6001  0.6043
  882TIP3   OH224136   6.028   4.135   0.799  0.5779  0.2485 -0.5536
  882TIP3    H124137   6.046   4.229   0.797 -0.6599  0.5799  1.3113
  882TIP3    H224138   6.010   4.116   0.891 -1.9313 -1.2459 -1.2455
  883TIP3   OH224139   5.377   4.770   3.157 -0.1843  0.2965 -0.2652
  883TIP3    H124140   5.316   4.815   3.099  0.5244  1.3208 -0.2464
  883TIP3    H224141   5.322   4.735   3.227 -1.2236 -2.0488 -2.1168
  884TIP3   OH224142   6.216   5.569  14.068 -0.2104 -0.0329  0.5724
  884TIP3    H124143   6.155   5.501  14.096 -0.5289  0.3284  0.7550
  884TIP3    H224144   6.302   5.526  14.070 -0.6025 -1.0024 -1.1617
  885TIP3   OH224145   3.714   3.710  15.225  0.2186 -0.0494 -0.1408
  885TIP3    H124146   3.631   3.708  15.176  0.1926  0.9266 -0.1711
  885TIP3    H224147   3.687   3.708  15.317  0.1747 -0.0516 -0.1531
  886TIP3   OH224148   4.111   6.718   3.781 -0.2310 -0.5911 -0.4825
  886TIP3    H124149   4.116   6.773   3.702 -1.5498 -0.5733 -0.5788
  886TIP3    H224150   4.126   6.629   3.750  1.5987 -0.3542 -0.3752
  887TIP3   OH224151   2.170   4.105  14.853 -0.3834 -0.4500 -0.3485
  887TIP3    H124152   2.208   4.193  14.858  1.1780 -1.1376  1.5799
  887TIP3    H224153   2.076   4.119  14.852 -0.1895  1.2915 -2.8670
  888TIP3   OH224154   0.984   3.647   0.589 -0.5253  0.6574  0.4963
  888TIP3    H124155   1.000   3.729   0.635  0.2072  0.9645 -0.2918
  888TIP3    H224156   0.980   3.582   0.659  2.3302  0.8396  0.9756
  889TIP3   OH224157   5.093   3.034  16.715  0.2238  0.0607  0.6485
  889TIP3    H124158   5.096   2.957  16.771 -0.0454  0.4976  1.2693
  889TIP3    H224159   5.039   3.007  16.641  0.5039 -0.4870  0.6358
  890TIP3   OH224160   6.247   4.826   5.710 -0.9730 -0.0622  0.3731
  890TIP3    H124161   6.328   4.780   5.687  0.4736  2.6009 -0.2757
  890TIP3    H224162   6.238   4.812   5.804  0.0278 -0.7410  0.3907
  891TIP3   OH224163   1.384   1.119   4.783 -0.4245 -0.2497  0.3510
  891TIP3    H124164   1.448   1.187   4.800  1.2635 -1.2707 -1.5455
  891TIP3    H224165   1.325   1.156   4.718 -0.3245 -0.1502  0.3185
  892TIP3   OH224166   5.446   0.062   6.104 -0.2781 -0.0582  0.0114
  892TIP3    H124167   5.465   0.043   6.012  0.4904 -0.8243  0.3199
  892TIP3    H224168   5.521   0.113   6.134 -0.6680  0.4453  0.1432
  893TIP3   OH224169   3.393   0.845   1.049 -0.1873 -0.2029 -0.4701
  893TIP3    H124170   3.320   0.850   0.987 -0.3160 -2.2839 -0.5359
  893TIP3    H224171   3.351   0.858   1.135 -0.8156 -2.2006 -0.4337
  894TIP3   OH224172   4.997   3.010   0.214 -0.1678 -0.0374 -0.0286
  894TIP3    H124173   5.038   3.096   0.225 -1.3405  0.4789  0.4989
  894TIP3    H224174   5.040   2.954   0.278  0.6904  0.1184 -0.4567
  895TIP3   OH224175   3.702   1.686  11.687  0.3692  0.3867 -1.2319
  895TIP3    H124176   3.706   1.779  11.709 -0.2200  0.7849 -2.6507
  895TIP3    H224177   3.629   1.679  11.625 -1.8086 -1.5921  1.3317
  896TIP3   OH224178   4.800   6.209  12.501 -0.1842 -0.2637  0.3051
  896TIP3    H124179   4.824   6.233  12.591  0.0880  0.5048  0.0316
  896TIP3    H224180   4.882   6.182  12.461 -0.0388  0.8302 -0.1542
  897TIP3   OH224181   4.434   0.792  13.739 -0.1560 -0.1788  0.4212
  897TIP3    H124182   4.409   0.705  13.709 -3.8017  0.5273  0.8433
  897TIP3    H224183   4.365   0.849  13.706  1.7504  2.4867  0.6910
  898TIP3   OH224184   1.766   3.243   3.743  0.2565 -0.2507  0.3018
  898TIP3    H124185   1.851   3.208   3.714  0.2033 -2.8353  2.8534
  898TIP3    H224186   1.707   3.226   3.670  1.3053 -1.1718 -0.3665
  899TIP3   OH224187   6.410   4.133   0.928  0.3147 -0.2573  0.8280
  899TIP3    H124188   6.438   4.202   0.867 -0.5105  0.2955  1.0565
  899TIP3    H224189   6.341   4.174   0.980  0.3260 -1.0361  1.4697
  900TIP3   OH224190   4.266   3.008   3.578  0.2102  0.2509  0.0393
  900TIP3    H124191   4.341   3.061   3.550  0.2163 -0.3361 -1.1165
  900TIP3    H224192   4.194   3.071   3.587  0.5887  0.6710  0.1879
  901TIP3   OH224193   2.400   6.030   2.344  0.4344  0.0732 -0.2026
  901TIP3    H124194   2.421   5.990   2.428  1.9618 -1.1966 -1.1345
  901TIP3    H224195   2.305   6.034   2.343  0.3705  0.0020  1.5234
  902TIP3   OH224196   4.447   2.974   1.841 -0.4319  0.7142 -0.0435
  902TIP3    H124197   4.488   2.998   1.758 -1.3635  0.2344 -0.6549
  902TIP3    H224198   4.504   3.013   1.908  0.4147  0.9724 -0.8938
  903TIP3   OH224199   5.545   3.032   4.700 -0.4880  0.1550  0.0117
  903TIP3    H124200   5.608   3.028   4.628  0.3220 -1.6531  0.7842
  903TIP3    H224201   5.579   3.099   4.758  1.4618 -1.6311  1.0357
  904TIP3   OH224202   0.043   5.527   0.280  0.5176  0.4720 -0.2998
  904TIP3    H124203   0.031   5.456   0.342 -0.3432 -0.4307 -1.4561
  904TIP3    H224204  -0.015   5.597   0.311  1.0364  0.5074  0.5959
  905TIP3   OH224205   2.465   2.507  16.285 -0.1929 -0.1687 -0.0509
  905TIP3    H124206   2.475   2.415  16.261 -1.1380  0.0167 -1.2229
  905TIP3    H224207   2.519   2.517  16.364 -1.5291 -2.1615  1.2222
  906TIP3   OH224208   2.561   0.654   1.951 -0.0625  0.2118 -0.2797
  906TIP3    H124209   2.601   0.690   2.031  1.0198  1.1840 -1.2289
  906TIP3    H224210   2.512   0.728   1.914  1.7575  0.6532 -1.9735
  907TIP3   OH224211   5.612   1.666   5.949  0.1853 -0.3910  0.5084
  907TIP3    H124212   5.534   1.662   6.005  0.2280  1.4875  0.7539
  907TIP3    H224213   5.678   1.617   5.998 -0.7868 -1.9412  0.3363
  908TIP3   OH224214   6.634   6.404  13.693  0.3212 -0.4630 -1.0253
  908TIP3    H124215   6.560   6.456  13.665  0.2518 -0.3738 -0.6791
  908TIP3    H224216   6.688   6.393  13.614  0.9557  1.1464 -0.8522
  909TIP3   OH224217   5.726   4.299  11.253  0.8702  0.4178  0.2430
  909TIP3    H124218   5.765   4.225  11.300  1.4789  1.0344  0.7195
  909TIP3    H224219   5.783   4.373  11.273  0.4243  0.9619 -0.4595
  910TIP3   OH224220   0.597   3.654   4.604 -0.0498  0.3067 -0.2870
  910TIP3    H124221   0.682   3.692   4.625  0.4680 -0.8236 -0.2644
  910TIP3    H224222   0.552   3.721   4.553  0.8381  0.9245 -0.2705
  911TIP3   OH224223   0.440   6.194   4.047 -0.1585 -0.1867  0.5150
  911TIP3    H124224   0.515   6.161   3.999 -0.5389 -0.4493  0.0881
  911TIP3    H224225   0.380   6.119   4.053 -0.7480  0.2393  0.1040
  912TIP3   OH224226   4.392   2.690  13.135 -0.7994  0.0700 -0.0050
  912TIP3    H124227   4.297   2.694  13.124 -0.7048  0.6651 -0.6918
  912TIP3    H224228   4.405   2.677  13.229 -1.5924 -1.9671 -0.1439
  913TIP3   OH224229   2.427   4.143   0.480  0.7399 -0.1036  0.0401
  913TIP3    H124230   2.415   4.216   0.419  0.6435 -0.2772 -0.1494
  913TIP3    H224231   2.396   4.178   0.564 -0.6985 -0.3744 -0.3384
  914TIP3   OH224232   4.763   0.374  12.881  0.3513 -0.3682  0.3097
  914TIP3    H124233   4.732   0.316  12.951 -0.7614  0.0779  0.2115
  914TIP3    H224234   4.735   0.332  12.801  0.3399 -0.1450  0.1958
  915TIP3   OH224235   4.411   6.406  11.005 -0.2430 -0.4001 -0.0878
  915TIP3    H124236   4.438   6.380  10.917 -0.9037  2.5711 -1.2858
  915TIP3    H224237   4.482   6.460  11.038 -0.0991 -1.3100  1.1452
  916TIP3   OH224238   0.968   4.997  12.920  0.0533 -0.3726 -0.1056
  916TIP3    H124239   1.014   4.963  12.996  1.0336 -1.8489 -1.2918
  916TIP3    H224240   0.922   4.921  12.884 -0.8114  0.4062 -0.7065
  917TIP3   OH224241   3.791   1.810  12.354  0.3164 -0.6785  0.3477
  917TIP3    H124242   3.883   1.829  12.335  0.3250  1.3516  2.0585
  917TIP3    H224243   3.747   1.819  12.269  1.2994  1.1221 -0.0236
  918TIP3   OH224244   4.180   2.128  16.046 -0.0362  0.3124  0.0122
  918TIP3    H124245   4.263   2.163  16.077 -0.1544  0.4935  0.1344
  918TIP3    H224246   4.118   2.201  16.056  0.0442  0.5758 -1.2267
  919TIP3   OH224247   4.708   0.053  11.773  0.2840  0.4863  0.2441
  919TIP3    H124248   4.779   0.111  11.802 -0.4511  0.3239  2.5836
  919TIP3    H224249   4.631   0.110  11.769  0.2221  0.3433 -0.7458
  920TIP3   OH224250   3.132   5.019   4.926 -0.0811 -0.1806  0.3416
  920TIP3    H124251   3.123   4.961   4.851 -1.1172  1.1417 -0.6093
  920TIP3    H224252   3.064   5.086   4.913  1.1425  1.3217  1.3087
  921TIP3   OH224253   4.388   3.115  15.695 -0.1248  0.2180  0.6680
  921TIP3    H124254   4.403   3.178  15.625 -1.7987 -1.6156 -1.5177
  921TIP3    H224255   4.461   3.053  15.688 -0.6599 -0.3677 -0.0281
  922TIP3   OH224256   4.806   5.991  14.849 -0.3784 -0.1367  0.2378
  922TIP3    H124257   4.723   5.983  14.802 -0.2372 -0.7997  0.1040
  922TIP3    H224258   4.781   6.013  14.939 -0.7259 -0.9221  0.3378
  923TIP3   OH224259   4.327   0.312  12.728 -0.1091  0.0714 -0.4625
  923TIP3    H124260   4.252   0.367  12.747 -0.0252  0.0626 -0.0894
  923TIP3    H224261   4.319   0.291  12.635 -1.8931 -1.8911  0.0584
  924TIP3   OH224262   5.411   1.874   2.404 -0.1747  0.4402 -0.0805
  924TIP3    H124263   5.394   1.808   2.337  0.8980  0.2877 -0.2266
  924TIP3    H224264   5.351   1.946   2.383 -1.1975 -0.3882 -0.0503
  925TIP3   OH224265   5.087   2.013  16.960 -0.3568 -0.4269 -0.3401
  925TIP3    H124266   5.162   1.954  16.950  1.6475  1.9976 -0.3402
  925TIP3    H224267   5.091   2.041  17.052 -0.7501  0.3951 -0.5648
  926TIP3   OH224268   1.323   4.266   2.751  0.2278 -0.2032  0.5225
  926TIP3    H124269   1.336   4.360   2.748 -1.2958  0.0279  0.7979
  926TIP3    H224270   1.345   4.242   2.842  2.4723 -0.4400 -0.0231
  927TIP3   OH224271   3.992   1.559   3.924 -0.2027 -0.3707  0.5060
  927TIP3    H124272   3.998   1.629   3.989 -0.8412  0.0102  0.1656
  927TIP3    H224273   3.910   1.576   3.878  0.2565 -0.6199 -0.4224
  928TIP3   OH224274   2.527   1.873  10.376  0.0901  0.4986  0.0850
  928TIP3    H124275   2.457   1.878  10.312  0.3385  2.0347 -0.0908
  928TIP3    H224276   2.541   1.779  10.389 -2.6412  0.1045  0.8475
  929TIP3   OH224277   3.187   5.940  16.084  0.1458  0.4679  0.0009
  929TIP3    H124278   3.122   5.869  16.080  0.8495 -0.1170 -2.7042
  929TIP3    H224279   3.149   6.010  16.030  0.6444  1.1350  0.5006
  930TIP3   OH224280   2.593   3.009   1.799  0.5254  0.3194  0.3098
  930TIP3    H124281   2.637   2.966   1.727  0.6684 -1.9041  1.6513
  930TIP3    H224282   2.502   3.019   1.769  0.3721 -1.3821  0.1096
  931TIP3   OH224283   6.149   1.230  12.703  0.3569  0.4618  0.7561
  931TIP3    H124284   6.107   1.305  12.661  0.5496 -0.4432 -1.1716
  931TIP3    H224285   6.237   1.228  12.667  0.4813 -0.4497  1.0852
  932TIP3   OH224286   0.308   3.079  13.874 -0.8702 -0.3650 -0.4467
  932TIP3    H124287   0.308   2.986  13.850 -2.6854 -0.3917 -0.5154
  932TIP3    H224288   0.338   3.080  13.965 -1.7408 -1.1479 -0.1308
  933TIP3   OH224289   1.318   2.282  13.248 -0.0036  0.3751  0.3458
  933TIP3    H124290   1.268   2.286  13.166  0.1052  0.5771  0.2872
  933TIP3    H224291   1.348   2.192  13.254  1.6892  0.7924 -0.8652
  934TIP3   OH224292   1.050   1.816   1.041 -0.5846  0.6618 -0.5192
  934TIP3    H124293   1.061   1.884   1.107 -0.2132 -0.6098  0.7968
  934TIP3    H224294   1.136   1.805   1.002 -0.2959 -0.0106  0.2772
  935TIP3   OH224295   4.839   6.525   6.148 -0.3513 -0.5183 -0.3110
  935TIP3    H124296   4.751   6.489   6.141 -0.0918 -1.6509  1.5471
  935TIP3    H224297   4.849   6.546   6.241  1.8519 -1.9230 -0.1589
  936TIP3   OH224298   0.635   0.156  14.433 -0.3656  0.2354 -0.1770
  936TIP3    H124299   0.541   0.140  14.438 -0.4103  0.5566  0.0061
  936TIP3    H224300   0.649   0.198  14.349 -0.3372 -0.1465 -0.3641
  937TIP3   OH224301   0.415   0.404  12.593 -0.2356  0.3797  1.0980
  937TIP3    H124302   0.422   0.312  12.569 -0.9682  0.7902 -0.8939
  937TIP3    H224303   0.505   0.432  12.611  0.4531  0.0499 -1.5291
  938TIP3   OH224304   6.710   0.254   6.039  0.7453  0.5618  0.8705
  938TIP3    H124305   6.795   0.221   6.010  0.5425 -0.8974  1.7905
  938TIP3    H224306   6.731   0.333   6.089  1.6687 -0.1533  1.6711
  939TIP3   OH224307   4.515   2.049   4.653 -0.5462 -0.1613  0.5322
  939TIP3    H124308   4.488   2.107   4.582 -0.6507 -1.6162 -0.6567
  939TIP3    H224309   4.604   2.077   4.674  0.0376 -0.6388 -1.1827
  940TIP3   OH224310   5.757   1.670   5.539 -0.4387 -0.1659  0.3845
  940TIP3    H124311   5.717   1.596   5.583  0.8322 -1.7394 -0.9701
  940TIP3    H224312   5.683   1.723   5.508 -1.5135 -2.4765 -1.2403
  941TIP3   OH224313   5.762   6.190   0.111  0.5477 -0.1046  0.2295
  941TIP3    H124314   5.709   6.179   0.190 -0.1225  1.6733  0.0795
  941TIP3    H224315   5.698   6.193   0.040  1.0967 -1.0540 -0.3210
  942TIP3   OH224316   5.335   3.451   2.514  0.4999  0.8457 -0.5189
  942TIP3    H124317   5.378   3.365   2.518 -0.2153  0.4276  3.7743
  942TIP3    H224318   5.407   3.514   2.519  0.9281  0.3833 -0.8065
  943TIP3   OH224319   0.704   2.732   5.188  0.2711  0.4399 -0.7025
  943TIP3    H124320   0.621   2.718   5.141 -0.9056 -0.8930  1.5803
  943TIP3    H224321   0.769   2.740   5.119 -1.3835 -1.1493 -2.5886
  944TIP3   OH224322   1.522   3.016   1.419 -0.3444 -0.1162 -0.3018
  944TIP3    H124323   1.443   2.989   1.373 -0.6714 -0.4513  0.4321
  944TIP3    H224324   1.589   3.021   1.352 -1.2132  1.1967 -1.1348
  945TIP3   OH224325   4.725   2.503  15.105 -0.0404  0.3890  0.4642
  945TIP3    H124326   4.759   2.586  15.139  0.2840 -0.4642  2.3193
  945TIP3    H224327   4.800   2.444  15.103 -0.9386 -0.9545  2.8094
  946TIP3   OH224328   1.355   1.736   5.565 -0.5119  0.5122  0.2851
  946TIP3    H124329   1.437   1.708   5.525 -0.8456 -0.2462  0.1085
  946TIP3    H224330   1.319   1.799   5.502 -0.2118  0.6200  0.2182
  947TIP3   OH224331   5.222   4.689  16.921  0.3836  0.5415 -0.3540
  947TIP3    H124332   5.168   4.708  16.844 -0.3720 -1.2747 -0.3301
  947TIP3    H224333   5.165   4.710  16.995 -0.0129 -0.5663 -0.3264
  948TIP3   OH224334   1.251   4.432  16.789 -0.5064  0.5233  0.2057
  948TIP3    H124335   1.278   4.350  16.748 -2.7058 -1.3694  2.2756
  948TIP3    H224336   1.261   4.497  16.719  1.2935 -1.4350 -1.5394
  949TIP3   OH224337   0.622   6.160   0.377  1.3597  0.6755  0.1080
  949TIP3    H124338   0.550   6.130   0.433  1.8781 -1.1361 -0.1168
  949TIP3    H224339   0.581   6.184   0.295  0.8517  1.1065  0.4841
  950TIP3   OH224340   3.192   6.233   2.174 -0.2647  0.1646 -0.1608
  950TIP3    H124341   3.208   6.186   2.256 -0.0505 -1.2808 -0.9889
  950TIP3    H224342   3.119   6.291   2.193 -0.6162 -0.5933  0.8929
  951TIP3   OH224343   2.465   4.203  15.043 -0.5746  0.3455  0.1143
  951TIP3    H124344   2.508   4.171  14.964 -0.3433  0.4453  0.1987
  951TIP3    H224345   2.528   4.262  15.083 -0.1734 -0.6731  1.0421
  952TIP3   OH224346   5.822   6.832  13.953 -0.3172 -0.1461  0.0215
  952TIP3    H124347   5.872   6.900  13.998  1.2674 -0.8570 -0.5810
  952TIP3    H224348   5.819   6.759  14.015 -0.8713 -0.0010  0.1674
  953TIP3   OH224349   1.688   4.638   1.147 -0.0234 -0.1949  0.4426
  953TIP3    H124350   1.639   4.706   1.193 -1.0516 -0.0099 -0.8735
  953TIP3    H224351   1.645   4.557   1.171 -0.4268 -0.1193 -0.0163
  954TIP3   OH224352   1.786   0.276  13.001 -0.0624  0.3710 -0.0390
  954TIP3    H124353   1.774   0.287  13.096  2.7172 -3.1245  0.9476
  954TIP3    H224354   1.878   0.299  12.986 -0.0722 -0.4934 -1.6086
  955TIP3   OH224355   5.129   6.127  15.688  0.3173  0.4725 -0.0089
  955TIP3    H124356   5.151   6.064  15.619 -3.9509 -1.3072 -0.0092
  955TIP3    H224357   5.064   6.185  15.648 -0.8192  0.6039  1.9181
  956TIP3   OH224358   3.062   1.974   1.310 -0.9524  0.7408 -0.0251
  956TIP3    H124359   3.023   1.945   1.392 -0.1719  2.8861  1.1581
  956TIP3    H224360   3.056   1.897   1.253  1.0152 -1.8068  2.8531
  957TIP3   OH224361   2.013   1.750  15.964  0.2532  0.5786  0.0939
  957TIP3    H124362   1.919   1.750  15.981 -0.0491  2.9934 -1.0684
  957TIP3    H224363   2.048   1.818  16.021  0.8077  1.5680 -1.3395
  958TIP3   OH224364   5.912   2.347  13.330  0.1508 -0.0023  0.4400
  958TIP3    H124365   5.919   2.266  13.280 -1.0204  0.0785  0.1057
  958TIP3    H224366   5.819   2.370  13.325  0.3407  0.9816  1.1278
  959TIP3   OH224367   3.484   2.682  14.617  0.0422  0.7418  0.1940
  959TIP3    H124368   3.488   2.777  14.603 -1.9632  0.7806 -0.4970
  959TIP3    H224369   3.392   2.664  14.636  0.0293 -1.2624 -1.3781
  960TIP3   OH224370   1.113   3.284   4.177  0.5283 -0.1690  0.2137
  960TIP3    H124371   1.181   3.344   4.147 -0.2816  0.1152 -1.1282
  960TIP3    H224372   1.146   3.250   4.260  1.3564  1.5433  0.6299
  961TIP3   OH224373   6.411   2.814   2.562  0.4670 -0.1765  0.0075
  961TIP3    H124374   6.393   2.889   2.505 -1.6761 -0.6225 -0.0033
  961TIP3    H224375   6.410   2.738   2.503 -0.5504 -0.5130  0.4366
  962TIP3   OH224376   6.653   6.240  12.151  0.3621 -0.1333  1.0776
  962TIP3    H124377   6.679   6.234  12.242  1.6243  0.2797  0.7630
  962TIP3    H224378   6.717   6.299  12.111 -0.4254  0.0458  0.0182
  963TIP3   OH224379   6.368   4.421   5.209 -0.3697  0.6182 -0.3043
  963TIP3    H124380   6.428   4.360   5.252 -0.6393  0.3793 -0.2593
  963TIP3    H224381   6.324   4.368   5.142 -2.0633  0.2141  1.0495
  964TIP3   OH224382   6.018   4.852  15.380  0.0844 -0.2029 -0.0007
  964TIP3    H124383   5.960   4.866  15.455  1.0228  3.0141  0.2475
  964TIP3    H224384   6.106   4.865  15.414  0.7104 -1.0122 -1.2249
  965TIP3   OH224385   5.677   4.150  11.714 -0.5690 -0.1501 -0.4458
  965TIP3    H124386   5.645   4.068  11.676  0.5618 -1.2653  0.9053
  965TIP3    H224387   5.772   4.140  11.714 -0.4780  0.6031  0.9388
  966TIP3   OH224388   3.096   4.857   4.702  0.3371 -0.5730  0.7571
  966TIP3    H124389   3.080   4.870   4.609 -0.2125 -0.1293  0.9123
  966TIP3    H224390   3.037   4.786   4.727 -0.2195 -0.0422  0.9712
  967TIP3   OH224391   4.965   0.294  11.291 -0.4297  0.4596 -0.0658
  967TIP3    H124392   4.946   0.367  11.232  0.1323 -0.6616 -1.7094
  967TIP3    H224393   5.058   0.301  11.309 -0.3851  0.1943 -0.1833
  968TIP3   OH224394   4.559   5.684  15.664 -0.0926  0.3014 -0.8819
  968TIP3    H124395   4.545   5.594  15.691  0.5718  0.0184 -1.4416
  968TIP3    H224396   4.651   5.701  15.683 -0.6100  1.4491  0.8664
  969TIP3   OH224397   1.947   1.965   4.414 -0.4644  0.1925 -0.2946
  969TIP3    H124398   1.957   2.038   4.353 -1.1661 -0.6474 -1.4600
  969TIP3    H224399   2.021   1.972   4.474  1.3032  0.0078 -2.3629
  970TIP3   OH224400   1.425   6.599  16.912 -0.3957  0.0831 -0.4314
  970TIP3    H124401   1.388   6.513  16.892 -1.2185 -0.0693  1.5611
  970TIP3    H224402   1.414   6.609  17.006  1.2628  1.6610 -0.3527
  971TIP3   OH224403   2.262   3.456  15.997 -0.3650  0.3448 -0.0062
  971TIP3    H124404   2.212   3.534  15.974  0.3322  1.1264  1.0615
  971TIP3    H224405   2.197   3.394  16.030 -0.7112  1.1963  0.9654
  972TIP3   OH224406   4.118   1.867   1.685 -0.0154 -0.1277  0.2784
  972TIP3    H124407   4.106   1.782   1.729 -3.3737 -0.3189 -0.7547
  972TIP3    H224408   4.051   1.869   1.617  1.8168  2.2247 -1.6690
  973TIP3   OH224409   2.156   0.305   5.659  0.0062 -0.4732  0.4208
  973TIP3    H124410   2.138   0.362   5.584  0.6735 -0.9602 -0.1250
  973TIP3    H224411   2.211   0.358   5.717  0.7224 -0.5836 -0.1395
  974TIP3   OH224412   5.363   2.178   2.881  0.2971 -0.0623 -0.3371
  974TIP3    H124413   5.351   2.206   2.972 -0.0440  2.1384 -1.0101
  974TIP3    H224414   5.437   2.118   2.885  1.4718  1.3767  1.1879
  975TIP3   OH224415   3.102   3.508  17.189 -0.3750 -0.0538 -0.6026
  975TIP3    H124416   3.198   3.506  17.185 -0.2422  1.3406  0.7789
  975TIP3    H224417   3.074   3.443  17.125  1.4652  0.4869 -2.0500
  976TIP3   OH224418   5.287   5.747  14.181 -0.5867  0.0450  0.1532
  976TIP3    H124419   5.274   5.676  14.244 -0.3664  1.2596  1.6494
  976TIP3    H224420   5.203   5.794  14.180 -0.4843  0.2211 -0.2185
  977TIP3   OH224421   4.388   6.481   2.140  0.4719 -0.3707  0.2703
  977TIP3    H124422   4.370   6.426   2.216 -0.3179  1.9470  1.8907
  977TIP3    H224423   4.459   6.437   2.094  2.0337 -1.1635  3.1989
  978TIP3   OH224424   3.719   1.539   3.124  0.6149  0.0859  0.0072
  978TIP3    H124425   3.743   1.446   3.125 -0.5128 -0.2200 -0.4482
  978TIP3    H224426   3.634   1.543   3.168 -0.0232  0.7008 -1.2542
  979TIP3   OH224427   6.672   1.415   1.864 -0.0179  0.5744  0.0020
  979TIP3    H124428   6.716   1.483   1.813 -1.2694  1.5426  0.1744
  979TIP3    H224429   6.580   1.442   1.867 -0.9182 -1.9865 -1.3636
  980TIP3   OH224430   4.832   4.657   0.861 -0.1325 -0.3956  0.2244
  980TIP3    H124431   4.877   4.729   0.817 -1.6951 -0.3091 -1.2926
  980TIP3    H224432   4.893   4.583   0.855  1.4831  0.7229  1.7837
  981TIP3   OH224433   2.607   6.603  11.806  0.6890  0.3862  0.0617
  981TIP3    H124434   2.625   6.539  11.875 -2.3131 -2.0883 -1.1681
  981TIP3    H224435   2.599   6.687  11.851  1.1304 -0.7340  2.3603
  982TIP3   OH224436   2.249   4.637  14.642 -0.5728  0.1050  0.0265
  982TIP3    H124437   2.273   4.639  14.735 -0.0715 -0.4160 -0.0837
  982TIP3    H224438   2.254   4.544  14.619  1.1833  0.4105 -0.9900
  983TIP3   OH224439   2.744   0.892  16.421  0.2880  0.3119 -0.5617
  983TIP3    H124440   2.728   0.888  16.327 -1.3853 -3.3749 -0.3038
  983TIP3    H224441   2.819   0.835  16.435  1.1591  1.6182  0.3077
  984TIP3   OH224442   1.467   5.941   5.975 -0.3339 -0.0520 -0.1030
  984TIP3    H124443   1.520   5.947   5.895 -1.5220 -1.2460 -1.0454
  984TIP3    H224444   1.389   5.891   5.948 -0.9924 -0.0797  1.6994
  985TIP3   OH224445   2.953   2.825  14.784  0.4449 -0.3507  0.1086
  985TIP3    H124446   2.960   2.795  14.875 -0.6794  0.7972  0.6053
  985TIP3    H224447   2.883   2.772  14.747 -1.3232  1.3168  0.8952
  986TIP3   OH224448   5.565   2.824   3.155  0.2296 -0.2476  0.3516
  986TIP3    H124449   5.523   2.835   3.069 -0.6342  0.4299  0.8354
  986TIP3    H224450   5.651   2.864   3.146 -0.4692  1.3057  0.2390
  987TIP3   OH224451   1.002   5.902   4.133 -0.5669 -0.1775  0.0277
  987TIP3    H124452   1.016   5.930   4.224  0.4223  0.2452 -0.2395
  987TIP3    H224453   1.051   5.820   4.126 -0.2638  0.0237 -0.2419
  988TIP3   OH224454   4.361   5.098   2.172  0.4091  0.2822 -0.2025
  988TIP3    H124455   4.406   5.107   2.256  1.3720  1.1521 -0.7865
  988TIP3    H224456   4.430   5.110   2.107 -0.2872 -0.5601 -1.1315
  989TIP3   OH224457   1.870   1.717   4.317  0.2980  0.1710  0.9454
  989TIP3    H124458   1.790   1.739   4.268  1.1269  0.3936 -0.3791
  989TIP3    H224459   1.900   1.801   4.353  0.4279  0.2563  0.6463
  990TIP3   OH224460   2.361   0.541  12.845  0.4375 -0.4208 -0.2388
  990TIP3    H124461   2.292   0.528  12.780  0.3390  0.7275 -0.3848
  990TIP3    H224462   2.409   0.457  12.847  0.1864 -0.6111 -1.4703
  991TIP3   OH224463   0.361   1.363  13.957  0.0908 -0.3064 -0.1637
  991TIP3    H124464   0.446   1.404  13.941 -0.6783  1.6348  0.4819
  991TIP3    H224465   0.323   1.414  14.028 -1.2686 -1.6850  0.1441
  992TIP3   OH224466   4.981   1.803  16.229  0.0820  0.0183  0.7994
  992TIP3    H124467   5.047   1.826  16.164 -1.5925  0.3845 -0.8604
  992TIP3    H224468   4.972   1.708  16.223  1.0334 -0.1371  1.6415
  993TIP3   OH224469   3.322   4.360   3.506 -0.7084 -0.4472  0.1774
  993TIP3    H124470   3.268   4.369   3.584 -1.1034 -1.4867  0.0405
  993TIP3    H224471   3.395   4.420   3.520 -1.7644  0.8075  0.4672
  994TIP3   OH224472   0.671   6.017   5.701  0.2446 -0.1145 -0.0428
  994TIP3    H124473   0.662   6.109   5.679 -0.4652 -0.0178  0.6133
  994TIP3    H224474   0.583   5.990   5.730  0.7130 -0.6765  0.9233
  995TIP3   OH224475   2.159   2.021  15.757  0.2939  0.7803  0.0056
  995TIP3    H124476   2.240   2.072  15.765  0.7977 -0.1683  1.6678
  995TIP3    H224477   2.169   1.952  15.823 -1.6886  0.3753 -0.0697
  996TIP3   OH224478   4.432   2.361   1.565 -0.0082 -0.1973 -0.2407
  996TIP3    H124479   4.482   2.289   1.602  0.9062 -0.0822 -1.2105
  996TIP3    H224480   4.341   2.332   1.569 -0.0484 -0.0104  2.4760
  997TIP3   OH224481   2.290   6.111  16.149  0.1591  0.2100 -0.0588
  997TIP3    H124482   2.287   6.112  16.054 -0.7611 -0.3166 -0.0499
  997TIP3    H224483   2.237   6.036  16.174 -0.5996  1.0319  0.8958
  998TIP3   OH224484   3.754   2.592   3.513 -0.0744 -0.4317  0.0548
  998TIP3    H124485   3.752   2.597   3.608 -0.2293  0.8635  0.0040
  998TIP3    H224486   3.847   2.594   3.490 -0.0410 -0.6389  0.1686
  999TIP3   OH224487   1.878   2.049  15.735 -0.2225 -0.5473  0.4803
  999TIP3    H124488   1.961   2.003  15.723 -0.2648 -0.2815 -1.0476
  999TIP3    H224489   1.851   2.073  15.646 -1.6064 -0.0516  1.0084
 1000TIP3   OH224490   2.678   5.867   4.182 -0.1984  0.1761 -0.4995
 1000TIP3    H124491   2.747   5.840   4.122 -0.3068  1.5793 -1.3048
 1000TIP3    H224492   2.611   5.799   4.175  0.0410  0.0353 -1.5522
 1001TIP3   OH224493   4.073   0.997  11.963  0.0482 -0.0492 -0.2524
 1001TIP3    H124494   4.133   0.922  11.966  1.9694  1.3997 -0.8072
 1001TIP3    H224495   4.120   1.068  12.006 -1.9860  0.7367  0.8560
 1002TIP3   OH224496   4.771   2.484  11.566  0.5018  0.2316  0.3701
 1002TIP3    H124497   4.767   2.492  11.661  2.5448  0.3733  0.4847
 1002TIP3    H224498   4.820   2.560  11.536  0.8854 -0.3918 -0.6763
 1003TIP3   OH224499   5.335   2.288  11.217  0.1086 -0.8244 -0.1543
 1003TIP3    H124500   5.388   2.213  11.190 -1.2771 -1.1896 -2.1044
 1003TIP3    H224501   5.260   2.287  11.157 -0.2971  1.7312  0.1941
 1004TIP3   OH224502   4.636   0.574  10.234  0.5667  0.1912 -0.0166
 1004TIP3    H124503   4.576   0.648  10.240  1.2657  0.9743 -1.9577
 1004TIP3    H224504   4.693   0.582  10.310  0.7668  1.7620 -0.3109
 1005TIP3   OH224505   5.851   2.557  14.518 -0.1738  0.3053  0.3621
 1005TIP3    H124506   5.869   2.482  14.575 -1.5145  0.1619  0.6123
 1005TIP3    H224507   5.789   2.524  14.453 -0.8691  1.2208  0.5426
 1006TIP3   OH224508   0.061   2.076   4.077 -0.3748  0.7597  0.1054
 1006TIP3    H124509   0.085   2.167   4.059 -1.2467  1.0014  0.0866
 1006TIP3    H224510   0.083   2.029   3.997  2.1069  0.5131  0.8697
 1007TIP3   OH224511   1.968   1.687  16.545  0.2037 -0.0111 -0.2382
 1007TIP3    H124512   1.904   1.747  16.506 -0.3690 -1.2397 -1.2505
 1007TIP3    H224513   1.953   1.693  16.639 -0.3680  0.8410 -0.3750
 1008TIP3   OH224514   0.349   5.182  11.744 -0.2219  0.4943 -0.6283
 1008TIP3    H124515   0.442   5.167  11.761 -0.2855  1.2968  0.5644
 1008TIP3    H224516   0.307   5.168  11.829 -1.2399 -0.1128 -1.2055
 1009TIP3   OH224517   0.243   1.300  11.478  0.1376  0.4731 -0.0308
 1009TIP3    H124518   0.183   1.249  11.424 -0.4595 -0.9869  1.9006
 1009TIP3    H224519   0.213   1.390  11.470  0.8722  0.5495 -3.0936
 1010TIP3   OH224520   2.258   1.417  13.660  0.2875  0.0258  0.2307
 1010TIP3    H124521   2.250   1.391  13.752  1.2199  1.9197  0.9024
 1010TIP3    H224522   2.303   1.501  13.663 -0.0257  0.3261 -1.9595
 1011TIP3   OH224523   0.974   3.530  16.971  0.2900 -0.4719 -0.1258
 1011TIP3    H124524   0.928   3.480  17.038 -0.9386  0.8682  0.0876
 1011TIP3    H224525   1.039   3.581  17.020  0.5326 -0.7402 -0.1646
 1012TIP3   OH224526   5.517   4.402   1.151 -0.1538 -0.5366 -0.3737
 1012TIP3    H124527   5.601   4.446   1.152 -0.8709  0.9504 -1.6654
 1012TIP3    H224528   5.518   4.347   1.073 -0.5283 -0.2118 -0.6100
 1013TIP3   OH224529   5.951   3.639  16.767  0.2502  0.0822  0.3265
 1013TIP3    H124530   5.858   3.662  16.770  0.2121 -0.0404  0.0930
 1013TIP3    H224531   5.975   3.649  16.675  0.8898  1.7575  0.6417
 1014TIP3   OH224532   6.079   4.311   2.854 -0.0492 -0.2155 -0.4104
 1014TIP3    H124533   6.063   4.245   2.922 -0.5207  0.4578  0.1562
 1014TIP3    H224534   6.173   4.311   2.841  0.3657  1.1784  1.8898
 1015TIP3   OH224535   2.943   5.997  17.021  0.5041 -1.2742 -0.0824
 1015TIP3    H124536   3.028   6.030  17.049 -0.1520 -0.1811  0.7449
 1015TIP3    H224537   2.912   5.945  17.095 -0.7639  0.7214  0.8954
 1016TIP3   OH224538   3.003   0.857  14.415  0.0169 -0.1211 -0.6088
 1016TIP3    H124539   2.981   0.807  14.336 -1.5413 -2.4661  1.1732
 1016TIP3    H224540   3.024   0.790  14.481 -0.0399  1.6778  1.3584
 1017TIP3   OH224541   1.984   4.462  15.222 -0.0005  0.2540  0.3283
 1017TIP3    H124542   1.986   4.487  15.314  0.3723  0.6564  0.2181
 1017TIP3    H224543   2.076   4.464  15.195 -0.1865  1.0905 -0.2975
 1018TIP3   OH224544   6.385   3.141   1.463 -0.0518 -0.1271 -0.6101
 1018TIP3    H124545   6.471   3.159   1.426 -0.8446  1.5866 -1.7565
 1018TIP3    H224546   6.381   3.195   1.542  0.1827 -0.7911 -0.1325
 1019TIP3   OH224547   3.570   4.501  10.630  0.3192 -0.2746  0.1071
 1019TIP3    H124548   3.533   4.467  10.711  1.7350  0.4904  1.1159
 1019TIP3    H224549   3.601   4.423  10.583 -0.9537 -0.7654  0.0284
 1020TIP3   OH224550   6.632   2.289   3.353 -0.1744  0.6190  0.4722
 1020TIP3    H124551   6.656   2.366   3.405 -0.5609  1.1768 -0.1731
 1020TIP3    H224552   6.652   2.313   3.263 -2.4911  0.8626 -0.0355
 1021TIP3   OH224553   4.805   5.693  11.825 -0.1512  0.1588  0.0508
 1021TIP3    H124554   4.811   5.656  11.737 -1.9649  0.3651 -0.1937
 1021TIP3    H224555   4.813   5.788  11.812  0.4681  0.1282  0.2094
 1022TIP3   OH224556   1.229   6.324  11.483  0.5119 -0.0094 -0.2411
 1022TIP3    H124557   1.264   6.246  11.440  0.8165  0.4325 -0.8143
 1022TIP3    H224558   1.147   6.341  11.438 -0.2100 -0.7499  0.7639
 1023TIP3   OH224559   6.295   1.512  13.824 -0.0076 -0.3879 -0.6187
 1023TIP3    H124560   6.367   1.541  13.768  0.8447 -0.0961  0.5939
 1023TIP3    H224561   6.326   1.528  13.913 -1.7775  0.2188 -0.0801
 1024TIP3   OH224562   5.596   2.823  14.009  0.6581 -0.4460 -0.6640
 1024TIP3    H124563   5.674   2.792  13.965 -0.1131 -1.1667 -1.5495
 1024TIP3    H224564   5.583   2.762  14.082  1.3649  0.1543 -0.0222
 1025TIP3   OH224565   1.340   1.692   3.560 -0.6947 -0.2168 -0.3493
 1025TIP3    H124566   1.269   1.745   3.523  0.3704 -0.3326 -2.7545
 1025TIP3    H224567   1.344   1.615   3.504  1.2440 -0.2672 -0.2068
 1026TIP3   OH224568   6.719   5.442  12.821 -0.5709  0.3854  0.3462
 1026TIP3    H124569   6.677   5.364  12.857  0.5552  0.2954  1.5595
 1026TIP3    H224570   6.768   5.410  12.746 -0.1235 -0.0777  0.8290
 1027TIP3   OH224571   0.522   0.158   6.532  0.4889  0.0138 -0.4923
 1027TIP3    H124572   0.497   0.249   6.550  1.4559  0.0961  0.5533
 1027TIP3    H224573   0.515   0.114   6.616 -0.8328 -1.1204 -1.1599
 1028TIP3   OH224574   5.022   5.087  16.809 -1.4103  0.1540 -0.0268
 1028TIP3    H124575   4.966   5.134  16.747  0.0699  1.8792 -0.1390
 1028TIP3    H224576   5.107   5.080  16.764 -0.5010  0.8272  1.5058
 1029TIP3   OH224577   2.902   1.401  10.938  0.4592  0.0502 -0.4766
 1029TIP3    H124578   2.913   1.495  10.951  0.8092 -0.2374  1.7090
 1029TIP3    H224579   2.818   1.381  10.981  1.7139 -1.0240  1.6283
 1030TIP3   OH224580   4.588   4.431  16.120  0.3852 -0.4055  0.7061
 1030TIP3    H124581   4.521   4.368  16.092 -1.1009  0.9589  1.0242
 1030TIP3    H224582   4.671   4.389  16.097 -0.5917 -1.6878 -0.7276
 1031TIP3   OH224583   3.408   4.459   0.413  1.1123  0.1004 -0.2487
 1031TIP3    H124584   3.390   4.544   0.373  1.3102  0.6864  0.8562
 1031TIP3    H224585   3.450   4.408   0.344  3.2023  1.7144 -0.2519
 1032TIP3   OH224586   1.494   6.609  11.856 -0.6443  0.6323  0.0726
 1032TIP3    H124587   1.410   6.582  11.893 -0.2724  0.2500  0.6509
 1032TIP3    H224588   1.514   6.542  11.791 -0.9532  0.9124 -0.3109
 1033TIP3   OH224589   0.424   2.170  13.265 -0.4960  0.2078  0.2322
 1033TIP3    H124590   0.329   2.164  13.257 -0.7418  0.6311  2.2471
 1033TIP3    H224591   0.438   2.235  13.334  1.1922 -1.1867  1.2862
 1034TIP3   OH224592   0.086   2.340  12.639  0.8648  0.4140  0.1512
 1034TIP3    H124593   0.101   2.383  12.555 -0.1022  0.8705  0.2045
 1034TIP3    H224594  -0.008   2.343  12.652  1.0486  0.9117  1.5473
 1035TIP3   OH224595   1.081   0.079   5.028  0.1611 -0.6555 -0.2653
 1035TIP3    H124596   1.137   0.060   4.953  1.5283 -3.9106  1.4161
 1035TIP3    H224597   1.108   0.017   5.095 -2.1405  0.9828  2.3961
 1036TIP3   OH224598   4.167   5.473  12.088 -0.4884 -0.1361 -0.3602
 1036TIP3    H124599   4.219   5.539  12.135  0.6619 -0.1205 -1.5952
 1036TIP3    H224600   4.076   5.503  12.098 -0.0095  1.5456 -0.7272
 1037TIP3   OH224601   1.034   5.813  12.148 -0.3992  0.1603  0.4064
 1037TIP3    H124602   1.073   5.897  12.124 -1.1586  0.7681  1.2499
 1037TIP3    H224603   1.001   5.777  12.065 -0.3543  0.8427  0.0874
 1038TIP3   OH224604   6.069   5.816   6.286 -0.0032  0.2125  0.3550
 1038TIP3    H124605   6.054   5.863   6.368 -0.4991  1.1861 -0.2839
 1038TIP3    H224606   5.986   5.821   6.239  0.3365 -0.1550 -0.3040
 1039TIP3   OH224607   6.213   2.188  14.315 -0.0089 -0.4834 -0.2000
 1039TIP3    H124608   6.153   2.114  14.312 -2.4691  1.3792 -0.4051
 1039TIP3    H224609   6.157   2.265  14.305  2.3425  1.4617  0.4900
 1040TIP3   OH224610   3.590   5.528   1.820 -0.0071 -0.7104  0.6216
 1040TIP3    H124611   3.673   5.511   1.865  0.2898 -0.8524  0.0279
 1040TIP3    H224612   3.548   5.442   1.813  0.5306 -0.8932 -0.4997
 1041TIP3   OH224613   1.047   2.558   5.768  0.3941  0.1285  0.1813
 1041TIP3    H124614   1.099   2.510   5.833  1.0704  0.6023 -0.0041
 1041TIP3    H224615   1.102   2.632   5.743 -0.8843  1.3845  0.9158
 1042TIP3   OH224616   3.683   1.362  11.890 -0.5131 -0.1964  0.4669
 1042TIP3    H124617   3.770   1.388  11.859 -0.7984  0.1847 -0.0118
 1042TIP3    H224618   3.701   1.312  11.970  0.0949  0.7365  0.9352
 1043TIP3   OH224619   0.576   2.210   6.123 -0.1479  0.8700 -0.0095
 1043TIP3    H124620   0.606   2.153   6.052 -0.9947  0.6593 -0.2107
 1043TIP3    H224621   0.564   2.152   6.197 -0.2471  0.9214  0.0146
 1044TIP3   OH224622   2.401   1.159   5.060 -0.3190 -0.1304 -0.0408
 1044TIP3    H124623   2.307   1.162   5.076 -0.3082  3.0113  0.0270
 1044TIP3    H224624   2.433   1.244   5.091  2.4275 -0.8075 -0.7794
 1045TIP3   OH224625   2.677   0.983   5.446  0.3090 -0.4886 -0.3662
 1045TIP3    H124626   2.724   1.046   5.392 -0.7894  2.4658  1.8433
 1045TIP3    H224627   2.607   0.950   5.389  2.1486 -1.4476 -2.2203
 1046TIP3   OH224628   1.173   2.457   4.916  0.4528 -0.3151  0.0876
 1046TIP3    H124629   1.207   2.460   4.827 -2.8360 -2.1601 -1.4060
 1046TIP3    H224630   1.203   2.372   4.950 -0.9429 -1.1144 -0.5656
 1047TIP3   OH224631   2.708   1.804   1.876  0.1213 -0.8271  0.6923
 1047TIP3    H124632   2.682   1.749   1.802  0.1123  0.3126 -0.1726
 1047TIP3    H224633   2.625   1.832   1.915  0.0002  1.0538 -0.7613
 1048TIP3   OH224634   0.645   6.012   3.815 -0.1493 -0.5752 -0.1700
 1048TIP3    H124635   0.658   5.930   3.768  0.4254  0.3470 -1.7010
 1048TIP3    H224636   0.642   6.079   3.746 -1.3309  0.6187  0.9843
 1049TIP3   OH224637   2.902   1.604  13.600 -0.8766  0.4984 -0.3664
 1049TIP3    H124638   2.934   1.692  13.579  0.3718  0.3723  0.7892
 1049TIP3    H224639   2.819   1.619  13.646 -1.5306  0.9587 -1.6598
 1050TIP3   OH224640   4.407   5.328  14.821  0.3435 -0.2712 -0.2900
 1050TIP3    H124641   4.437   5.237  14.818  0.7026 -0.1608 -0.0352
 1050TIP3    H224642   4.457   5.372  14.753 -0.7048 -0.5181 -1.2572
 1051TIP3   OH224643   5.029   5.745  15.239  0.2460 -0.2074 -0.3770
 1051TIP3    H124644   5.068   5.806  15.302 -0.1266  1.5136 -1.7624
 1051TIP3    H224645   5.065   5.659  15.265  1.2935  0.6550  1.2239
 1052TIP3   OH224646   6.447   6.797   3.599 -0.4499  0.4042  0.7528
 1052TIP3    H124647   6.422   6.706   3.609 -2.4142  0.7422 -0.5756
 1052TIP3    H224648   6.419   6.839   3.681 -0.2223 -0.0278  1.0567
 1053TIP3   OH224649   4.044   0.830   5.547  0.2242 -0.5195 -0.9577
 1053TIP3    H124650   4.117   0.876   5.587  0.2387 -1.4873  0.1868
 1053TIP3    H224651   4.014   0.888   5.477  1.6096  0.2131 -0.9666
 1054TIP3   OH224652   1.066   6.705  15.479 -0.3787  0.1053 -0.3322
 1054TIP3    H124653   1.008   6.641  15.521  0.7477  0.0784  1.2310
 1054TIP3    H224654   1.114   6.654  15.413 -0.2537 -0.4329  0.1689
 1055TIP3   OH224655   4.661   3.691   3.715 -0.3940  0.5447  0.2450
 1055TIP3    H124656   4.685   3.606   3.677 -2.8931 -0.5725  0.9919
 1055TIP3    H224657   4.587   3.721   3.662 -2.0371  0.3661  2.3199
 1056TIP3   OH224658   5.939   3.336   2.453  0.0237 -0.4812  0.3172
 1056TIP3    H124659   5.918   3.264   2.393  0.0677  0.4880 -0.8956
 1056TIP3    H224660   6.025   3.312   2.489  0.4752 -0.5982 -0.7947
 1057TIP3   OH224661   0.405   2.459   6.222  0.0288  0.3221 -0.3949
 1057TIP3    H124662   0.320   2.481   6.259  0.1388 -0.4372  0.3324
 1057TIP3    H224663   0.394   2.371   6.188  0.6693  0.0107  0.1855
 1058TIP3   OH224664   6.011   0.330  12.608  0.1288 -0.1428  0.3619
 1058TIP3    H124665   5.968   0.368  12.685 -0.2630  0.4621 -0.1534
 1058TIP3    H224666   5.941   0.318  12.544  0.8597  1.8759 -0.8998
 1059TIP3   OH224667   3.169   1.613   2.567  0.1441 -0.0594 -0.4972
 1059TIP3    H124668   3.202   1.584   2.652 -3.3862  3.2795  2.3556
 1059TIP3    H224669   3.207   1.700   2.554 -1.9943  0.9219 -0.5307
 1060TIP3   OH224670   0.346   5.650   4.311 -0.0194  0.1092 -0.1597
 1060TIP3    H124671   0.372   5.702   4.388  0.0417 -1.4092  0.8949
 1060TIP3    H224672   0.418   5.661   4.249  0.0740  1.1174  0.1167
 1061TIP3   OH224673   6.149   0.112  17.146  0.9141  0.1739 -0.2734
 1061TIP3    H124674   6.169   0.064  17.226 -1.4816 -2.2019 -0.9407
 1061TIP3    H224675   6.100   0.189  17.175  2.6886  1.0042  0.6649
 1062TIP3   OH224676   4.599   3.261  10.802 -0.3361  0.4581 -0.3515
 1062TIP3    H124677   4.518   3.269  10.753  0.4754  1.8693 -1.5452
 1062TIP3    H224678   4.663   3.311  10.751  0.8758  0.8304  1.4364
 1063TIP3   OH224679   2.274   4.981  14.783 -0.0986  0.1541  0.4322
 1063TIP3    H124680   2.236   5.035  14.714  0.2143  3.1244  2.4332
 1063TIP3    H224681   2.352   4.942  14.743 -0.9195  0.3084 -1.3977
 1064TIP3   OH224682   5.287   2.064   4.952 -0.1221  0.7733 -0.0345
 1064TIP3    H124683   5.292   2.121   5.029  2.3817  0.4053  0.1315
 1064TIP3    H224684   5.358   2.001   4.963 -0.5744 -0.1694 -1.9771
 1065TIP3   OH224685   1.632   3.222  17.128 -0.2522 -0.1574  0.4002
 1065TIP3    H124686   1.568   3.276  17.174 -0.8716 -1.2246  0.8532
 1065TIP3    H224687   1.586   3.193  17.049  0.8778  1.8412 -1.0802
 1066TIP3   OH224688   3.546   0.899  13.039 -0.6373  0.3952  0.1894
 1066TIP3    H124689   3.596   0.977  13.012  0.2272 -0.0187  0.5618
 1066TIP3    H224690   3.469   0.934  13.084 -0.6635  1.0434 -0.3395
 1067TIP3   OH224691   3.234   2.042  16.642 -0.1183  0.4152 -0.2215
 1067TIP3    H124692   3.297   2.027  16.713 -1.7863  0.8605  1.4210
 1067TIP3    H224693   3.272   1.997  16.566  1.7647 -0.0086  0.9195
 1068TIP3   OH224694   0.011   4.978  16.695 -0.0299  0.0676  0.0428
 1068TIP3    H124695   0.026   4.960  16.788  0.7124  0.1997 -0.0451
 1068TIP3    H224696   0.070   4.918  16.649  0.6232  0.9637 -0.3101
 1069TIP3   OH224697   4.092   3.689   2.005 -0.3414 -0.6638 -0.2863
 1069TIP3    H124698   4.118   3.649   2.088  0.3218  0.2518 -0.0360
 1069TIP3    H224699   4.173   3.724   1.969 -0.9396  0.7245 -0.3380
 1070TIP3   OH224700   4.674   4.986   6.013 -0.2953  0.3917  0.1599
 1070TIP3    H124701   4.712   5.062   6.058 -0.2932 -0.2270  1.2165
 1070TIP3    H224702   4.648   5.020   5.927  0.7694  1.3086  0.1842
 1071TIP3   OH224703   2.670   3.029  12.325  1.0323 -0.2983 -0.7042
 1071TIP3    H124704   2.616   3.041  12.402  2.4712 -1.6523  0.5807
 1071TIP3    H224705   2.643   2.944  12.289  2.1001 -0.8862 -0.1713
 1072TIP3   OH224706   6.168   3.170   4.144  0.1855  0.0273 -0.6908
 1072TIP3    H124707   6.180   3.079   4.171 -0.6055 -0.6529 -2.4379
 1072TIP3    H224708   6.080   3.173   4.106 -0.3768  1.8838  0.6088
 1073TIP3   OH224709   5.787   1.026  17.028 -0.3860 -0.0562 -0.0424
 1073TIP3    H124710   5.854   1.019  17.096 -0.8821 -0.2978  0.4254
 1073TIP3    H224711   5.771   0.936  17.000 -0.4797  0.0055 -0.1942
 1074TIP3   OH224712   6.595   4.981  11.370  0.0087  0.1418  0.2761
 1074TIP3    H124713   6.671   4.950  11.418 -0.7613  0.1722  1.5587
 1074TIP3    H224714   6.570   4.907  11.314  0.1629 -0.3813  0.8804
 1075TIP3   OH224715   3.843   4.523  11.385  0.2006  0.1647 -0.0155
 1075TIP3    H124716   3.756   4.550  11.412  0.2638 -0.3986  0.7673
 1075TIP3    H224717   3.828   4.468  11.308 -0.1935 -0.5517  0.5678
 1076TIP3   OH224718   2.113   5.240   2.083 -0.0309  0.0637  0.5820
 1076TIP3    H124719   2.018   5.231   2.089 -0.2848 -0.4083 -2.4631
 1076TIP3    H224720   2.141   5.163   2.032  2.1159 -0.1967  2.0287
 1077TIP3   OH224721   0.977   1.326   0.928 -0.2979 -0.5565  0.0877
 1077TIP3    H124722   0.980   1.328   1.023  1.4593 -0.4030  0.0782
 1077TIP3    H224723   1.020   1.408   0.901  1.2515 -1.6089 -0.7964
 1078TIP3   OH224724   5.744   5.415   3.568 -0.0681  0.3309 -0.2704
 1078TIP3    H124725   5.694   5.450   3.643 -0.2517 -0.2501 -0.1143
 1078TIP3    H224726   5.721   5.472   3.495  0.5512  1.2591  0.2354
 1079TIP3   OH224727   6.686   1.883   0.543  0.6497 -0.2972 -0.3698
 1079TIP3    H124728   6.632   1.832   0.604 -0.0387  0.6013 -0.2010
 1079TIP3    H224729   6.624   1.913   0.477  0.8965  0.9325 -0.0581
 1080TIP3   OH224730   1.276   5.989   5.173 -0.0362  0.3653 -0.3632
 1080TIP3    H124731   1.262   6.076   5.134  1.0730  1.4829  1.6081
 1080TIP3    H224732   1.188   5.960   5.197 -0.5553  0.3632 -2.1406
 1081TIP3   OH224733   5.092   0.897   5.553 -1.3523 -0.0636  0.5040
 1081TIP3    H124734   4.999   0.903   5.575 -1.3571  1.4171  0.1844
 1081TIP3    H224735   5.125   0.987   5.562 -0.0402 -0.4978  0.2435
 1082TIP3   OH224736   1.450   0.958   2.439  0.2144  0.3551  0.0684
 1082TIP3    H124737   1.397   0.925   2.367  0.6337 -2.5775  0.9439
 1082TIP3    H224738   1.387   0.992   2.502 -0.3317  0.4810 -0.5354
 1083TIP3   OH224739   4.937   6.573   4.701 -0.2470  1.0156 -0.1630
 1083TIP3    H124740   4.942   6.615   4.786 -1.8146  0.8466  0.0298
 1083TIP3    H224741   4.956   6.480   4.718 -1.4594  0.8168  0.1606
 1084TIP3   OH224742   1.012   4.619  14.551 -0.3422 -0.1216  0.3867
 1084TIP3    H124743   0.998   4.679  14.625  1.1853 -0.5243  1.0410
 1084TIP3    H224744   1.046   4.540  14.592  0.2888 -0.4397 -0.7423
 1085TIP3   OH224745   4.090   4.355   2.147 -0.7294 -0.0632 -0.7605
 1085TIP3    H124746   4.052   4.268   2.138  0.9427 -1.3732  2.7568
 1085TIP3    H224747   4.050   4.391   2.226  1.6211  0.5105  0.2764
 1086TIP3   OH224748   1.890   3.209   4.472 -0.0613  0.7246 -0.6984
 1086TIP3    H124749   1.873   3.303   4.467  1.6296  1.0371 -1.0175
 1086TIP3    H224750   1.962   3.195   4.411  0.0710 -0.7002 -0.2287
 1087TIP3   OH224751   4.693   5.690  15.990  0.0701  0.1621  0.1411
 1087TIP3    H124752   4.762   5.698  16.055 -0.6430  0.9284  0.8333
 1087TIP3    H224753   4.619   5.737  16.028 -0.3400  0.7039 -1.2645
 1088TIP3   OH224754   2.075   2.039   0.518 -0.1280  0.5502 -0.2738
 1088TIP3    H124755   2.075   2.002   0.430  2.2478  1.6800 -0.8323
 1088TIP3    H224756   2.034   2.125   0.508  1.8595  1.4950 -0.7403
 1089TIP3   OH224757   3.957   4.037  16.301 -0.1345 -0.0313 -0.0322
 1089TIP3    H124758   3.973   4.129  16.280  0.4720 -0.1759 -0.2307
 1089TIP3    H224759   3.862   4.028  16.300 -0.4602  1.4384  3.5129
 1090TIP3   OH224760   5.023   5.102  10.993  0.1678  0.0200  0.2652
 1090TIP3    H124761   5.032   5.171  10.927 -0.9957  0.4304  0.5041
 1090TIP3    H224762   5.038   5.020  10.945  2.2273  0.4439  0.1209
 1091TIP3   OH224763   5.473   6.168  14.311 -0.8438  0.7047  0.1762
 1091TIP3    H124764   5.444   6.257  14.327 -3.5119  0.0553 -0.5389
 1091TIP3    H224765   5.443   6.148  14.223  1.5891 -0.2487 -0.5199
 1092TIP3   OH224766   5.648   4.851  14.870  0.2107  0.4316  0.1601
 1092TIP3    H124767   5.632   4.914  14.799 -2.3490 -0.2532  0.0370
 1092TIP3    H224768   5.645   4.905  14.950  0.7416  0.8356 -0.0790
 1093TIP3   OH224769   4.719   0.380  16.877  0.3756  0.5622 -0.2034
 1093TIP3    H124770   4.768   0.456  16.906  1.5040 -0.4234  0.5938
 1093TIP3    H224771   4.710   0.326  16.955  0.3820 -0.5298 -0.9333
 1094TIP3   OH224772   0.683   0.688   2.856  0.3555 -0.2411 -0.0182
 1094TIP3    H124773   0.702   0.732   2.939  0.8764 -0.1702 -0.1728
 1094TIP3    H224774   0.686   0.594   2.878 -0.5970 -0.2139  0.2758
 1095TIP3   OH224775   2.038   5.364   1.285 -0.0785 -0.5895 -0.4283
 1095TIP3    H124776   2.057   5.403   1.200 -0.6000 -0.3995 -0.4626
 1095TIP3    H224777   1.958   5.313   1.272  0.1956 -1.0824 -0.2060
 1096TIP3   OH224778   5.155   6.315  16.454 -0.1189 -0.0074  0.2332
 1096TIP3    H124779   5.105   6.306  16.373  1.4702  0.4769 -0.8473
 1096TIP3    H224780   5.181   6.407  16.457 -1.7251  0.4662  2.3119
 1097TIP3   OH224781   1.244   2.261  11.572 -0.0843  0.3293  0.9809
 1097TIP3    H124782   1.261   2.171  11.598 -0.5980  0.0018  0.2040
 1097TIP3    H224783   1.201   2.301  11.647 -1.1528 -0.4778  0.8198
 1098TIP3   OH224784   6.664   3.563  10.918  0.3889  0.2473 -0.4032
 1098TIP3    H124785   6.573   3.544  10.893  0.3323  0.6868 -0.5420
 1098TIP3    H224786   6.716   3.521  10.850  0.3725 -1.6286  0.6831
 1099TIP3   OH224787   4.973   2.689  11.521  0.1678 -0.6156  0.0010
 1099TIP3    H124788   5.063   2.705  11.493 -0.0016  0.9272  0.2604
 1099TIP3    H224789   4.966   2.732  11.607 -1.1943  0.5847 -0.6587
 1100TIP3   OH224790   4.115   2.897  14.488 -0.0557 -0.2103  0.1197
 1100TIP3    H124791   4.051   2.923  14.421 -0.2098 -0.5482  0.1331
 1100TIP3    H224792   4.172   2.973  14.497  0.9168 -0.6829 -1.4999
 1101TIP3   OH224793   2.033   2.279  14.452  0.0923  0.3207 -0.2317
 1101TIP3    H124794   1.945   2.242  14.461 -0.2294  1.4341  2.0338
 1101TIP3    H224795   2.020   2.360  14.404 -0.5935  1.6644  2.0325
 1102TIP3   OH224796   1.968   6.159  11.317  0.1303 -0.1063 -0.7835
 1102TIP3    H124797   1.883   6.149  11.360  0.1972 -0.4275 -0.7235
 1102TIP3    H224798   2.015   6.224  11.369  0.4377 -0.9180 -0.0166
 1103TIP3   OH224799   0.988   2.136  12.947 -0.0069  0.1268 -0.4481
 1103TIP3    H124800   0.989   2.228  12.918 -2.4103  1.2942  2.6341
 1103TIP3    H224801   1.080   2.109  12.940  0.9044  2.9394 -0.9644
 1104TIP3   OH224802   4.191   2.121  14.462 -0.2482 -0.0194 -0.7261
 1104TIP3    H124803   4.230   2.204  14.489 -1.9437  0.9400 -1.1103
 1104TIP3    H224804   4.202   2.064  14.538  0.3561  0.7630 -0.2081
 1105TIP3   OH224805   2.870   4.736  12.036  0.5876 -0.2569 -0.7662
 1105TIP3    H124806   2.790   4.695  12.002  1.0255 -0.2583 -1.8029
 1105TIP3    H224807   2.854   4.743  12.130 -0.3148 -0.9805 -0.8505
 1106TIP3   OH224808   1.455   5.556   1.980 -0.2365 -0.3626  0.2134
 1106TIP3    H124809   1.383   5.527   1.925  0.1414 -0.9421  0.0142
 1106TIP3    H224810   1.418   5.562   2.068 -0.6305 -0.2480  0.0401
 1107TIP3   OH224811   0.824   4.761  16.462  0.4134  0.2477 -0.1982
 1107TIP3    H124812   0.750   4.770  16.522  1.0906 -0.1024  0.7158
 1107TIP3    H224813   0.850   4.669  16.470  0.7370  0.2869 -0.7651
 1108TIP3   OH224814   1.319   3.406  16.588  0.3274  0.9686 -0.5014
 1108TIP3    H124815   1.400   3.390  16.637 -0.5577  1.2650  1.1369
 1108TIP3    H224816   1.273   3.472  16.640 -0.7716  1.1182 -1.6378
 1109TIP3   OH224817   0.222   4.078   1.485 -0.4764  0.1113  0.4357
 1109TIP3    H124818   0.312   4.085   1.455 -0.0058  1.8305  2.0275
 1109TIP3    H224819   0.172   4.133   1.425 -0.0324  1.1519  0.9925
 1110TIP3   OH224820   4.858   3.155  12.468 -0.2126  0.2433 -0.5668
 1110TIP3    H124821   4.861   3.128  12.560  0.7977 -1.0768 -0.9560
 1110TIP3    H224822   4.947   3.185  12.449  0.0387 -1.0657 -1.5510
 1111TIP3   OH224823   4.916   3.332  15.653  0.0441 -0.2438 -0.1360
 1111TIP3    H124824   4.932   3.424  15.674  0.3579 -0.6188  1.3382
 1111TIP3    H224825   4.822   3.326  15.640 -0.1541  0.0472  1.0613
 1112TIP3   OH224826   3.830   4.297   5.009 -0.0554  0.5952 -0.3050
 1112TIP3    H124827   3.853   4.260   4.924  0.1905  1.0980 -0.4638
 1112TIP3    H224828   3.764   4.363   4.990 -0.4466  0.2805 -0.0343
 1113TIP3   OH224829   2.510   4.632   2.157 -0.7739 -0.5329 -0.4104
 1113TIP3    H124830   2.419   4.636   2.186 -1.2265  0.8484 -1.8666
 1113TIP3    H224831   2.506   4.589   2.072 -0.3670  1.2881 -1.4021
 1114TIP3   OH224832   6.778   0.385   0.281 -0.0074  0.4395  0.0507
 1114TIP3    H124833   6.834   0.321   0.325 -1.0535  0.1176  0.9481
 1114TIP3    H224834   6.829   0.466   0.282  0.1860  0.3336  1.4917
 1115TIP3   OH224835   2.316   6.643  12.406 -0.4401 -0.6076  0.4053
 1115TIP3    H124836   2.386   6.620  12.346 -0.9408 -0.1742 -0.3547
 1115TIP3    H224837   2.240   6.660  12.350 -0.9756 -0.4162  1.1688
 1116TIP3   OH224838   1.210   0.564  12.258  0.1843  0.1069  0.3373
 1116TIP3    H124839   1.209   0.642  12.314 -0.5062 -1.6896  3.0375
 1116TIP3    H224840   1.295   0.567  12.214  0.4998  1.9272  0.9673
 1117TIP3   OH224841   4.827   5.951  15.374  0.2958  0.2209  0.0761
 1117TIP3    H124842   4.771   5.995  15.438  2.1193 -0.1940  2.0563
 1117TIP3    H224843   4.788   5.863  15.364 -0.1832  0.4016  0.3389
 1118TIP3   OH224844   1.168   5.112   3.603 -0.3297  0.6850  0.6711
 1118TIP3    H124845   1.255   5.152   3.607 -0.3613  0.6363  3.2561
 1118TIP3    H224846   1.150   5.083   3.692 -2.9072  0.4553  0.1667
 1119TIP3   OH224847   2.449   2.622   2.013  0.4045 -0.5116 -0.0637
 1119TIP3    H124848   2.506   2.699   2.010 -1.4863  0.9259 -0.7853
 1119TIP3    H224849   2.509   2.549   2.026  2.3210  1.0105  0.1200
 1120TIP3   OH224850   3.703   2.136   4.063  0.1801 -0.1731 -0.4600
 1120TIP3    H124851   3.640   2.066   4.044 -0.4003  0.1997  0.0744
 1120TIP3    H224852   3.726   2.123   4.155  0.8901 -0.3004 -0.6472
 1121TIP3   OH224853   5.730   0.336   5.127 -0.0766 -0.2375  0.3434
 1121TIP3    H124854   5.720   0.422   5.088 -1.1930 -0.9413 -1.0531
 1121TIP3    H224855   5.740   0.352   5.221  0.4254  1.4163  0.0299
 1122TIP3   OH224856   0.094   2.750  16.849  0.2164  0.5490 -0.8245
 1122TIP3    H124857   0.043   2.828  16.825 -4.1765 -0.9069  2.3970
 1122TIP3    H224858   0.042   2.677  16.817  1.4213 -1.0924  0.7469
 1123TIP3   OH224859   6.109   5.870   2.155  0.2982 -0.0361 -0.5668
 1123TIP3    H124860   6.077   5.961   2.153 -0.0620 -0.1520 -2.9788
 1123TIP3    H224861   6.062   5.830   2.228  0.9178  1.8394  0.9482
 1124TIP3   OH224862   3.178   3.217  16.655 -0.2561 -0.1328 -0.0121
 1124TIP3    H124863   3.210   3.230  16.744 -0.1978 -0.0149 -0.0495
 1124TIP3    H224864   3.090   3.256  16.656 -1.1155 -1.9282  0.5633
 1125TIP3   OH224865   3.724   6.395  16.097 -0.2018 -0.0263 -0.0543
 1125TIP3    H124866   3.647   6.452  16.098 -1.0188 -1.0813 -0.3404
 1125TIP3    H224867   3.792   6.444  16.143 -0.5444  1.6139 -1.2019
 1126TIP3   OH224868   3.607   3.217  11.064  0.1810  0.1380  0.2856
 1126TIP3    H124869   3.698   3.192  11.051  0.2734  0.7819 -0.3561
 1126TIP3    H224870   3.601   3.307  11.032 -0.5168  0.3634  0.9907
 1127TIP3   OH224871   3.816   0.822   3.453  0.1785 -0.4346 -0.1415
 1127TIP3    H124872   3.883   0.800   3.388 -1.0358 -0.5921 -1.3851
 1127TIP3    H224873   3.733   0.804   3.409 -0.7647  1.7183  0.5985
 1128TIP3   OH224874   1.238   5.290   6.477  0.1054 -0.1837 -0.1753
 1128TIP3    H124875   1.249   5.385   6.473 -1.1486  0.0141  0.5239
 1128TIP3    H224876   1.295   5.257   6.408  1.7869  0.9444  0.6060
 1129TIP3   OH224877   4.792   3.400   1.604 -0.2471  0.5939 -0.0548
 1129TIP3    H124878   4.780   3.434   1.693 -0.3829  1.7302 -0.4871
 1129TIP3    H224879   4.704   3.374   1.577 -0.2700  0.6230 -0.0084
 1130TIP3   OH224880   6.723   1.136   3.500 -0.5493 -0.3885 -0.2887
 1130TIP3    H124881   6.788   1.072   3.529 -1.1183 -0.8290  0.0457
 1130TIP3    H224882   6.760   1.221   3.524 -0.4617 -0.6801  0.6628
 1131TIP3   OH224883   3.840   2.728   4.170  0.0039 -0.0168  0.0827
 1131TIP3    H124884   3.749   2.755   4.153 -0.4489 -2.2609 -1.5014
 1131TIP3    H224885   3.850   2.734   4.265 -2.0860 -0.5083  0.3822
 1132TIP3   OH224886   4.454   3.494   5.448 -0.5808  1.1402 -0.6616
 1132TIP3    H124887   4.538   3.466   5.412 -0.2890  1.8949 -0.5837
 1132TIP3    H224888   4.389   3.453   5.391 -0.1886  0.0519 -0.3581
 1133TIP3   OH224889   5.409   6.027  13.783  0.5094  0.3351  0.2534
 1133TIP3    H124890   5.370   6.104  13.824  1.4443  0.2016  1.4540
 1133TIP3    H224891   5.382   6.032  13.691 -0.3946  1.4592  0.5603
 1134TIP3   OH224892   1.008   0.384  13.044  0.1749 -0.0700 -0.3058
 1134TIP3    H124893   1.001   0.478  13.063 -0.6589 -0.1356 -0.2541
 1134TIP3    H224894   1.071   0.379  12.973  0.8070  0.4650  0.2079
 1135TIP3   OH224895   3.099   2.435  13.893  0.4578 -0.5952 -0.1920
 1135TIP3    H124896   3.165   2.383  13.939 -1.5052 -1.4708  1.8328
 1135TIP3    H224897   3.090   2.514  13.945  2.3962  1.2636 -2.4771
 1136TIP3   OH224898   6.526   1.728  17.172  0.5354 -0.0189  0.2964
 1136TIP3    H124899   6.434   1.748  17.158  0.5567  0.6075  1.0204
 1136TIP3    H224900   6.554   1.686  17.090  0.2010  1.9302 -0.8889
 1137TIP3   OH224901   2.094   4.468   3.849  0.2560  0.0295 -0.3549
 1137TIP3    H124902   2.150   4.524   3.795 -1.3570  1.4167 -0.6831
 1137TIP3    H224903   2.089   4.386   3.800  0.6572  0.4690 -1.1598
 1138TIP3   OH224904   0.246   1.937  14.873  0.0772  0.4043  0.1464
 1138TIP3    H124905   0.270   1.976  14.957  0.9889  2.3877 -0.9774
 1138TIP3    H224906   0.325   1.892  14.844 -0.4218 -0.7998  0.5967
 1139TIP3   OH224907   0.797   2.371  15.195 -0.4248  0.4977 -0.3764
 1139TIP3    H124908   0.764   2.290  15.156  0.4847  0.2687 -0.6952
 1139TIP3    H224909   0.828   2.422  15.120  2.1790 -0.3176  0.0605
 1140TIP3   OH224910   5.375   4.712  12.769 -0.6117  0.3610  0.4122
 1140TIP3    H124911   5.379   4.620  12.744 -0.0392  1.0713 -2.4775
 1140TIP3    H224912   5.457   4.729  12.815 -0.3923 -0.4008  0.3078
 1141TIP3   OH224913   4.148   5.540  14.967 -0.3456 -0.7070 -0.2009
 1141TIP3    H124914   4.058   5.547  14.936 -0.8364 -1.5364  0.9764
 1141TIP3    H224915   4.185   5.465  14.920 -1.1444 -2.0788  1.2834
 1142TIP3   OH224916   5.486   4.963   0.552  0.0890 -0.3630  0.4333
 1142TIP3    H124917   5.578   4.988   0.553  0.4071 -1.4403 -0.1419
 1142TIP3    H224918   5.462   4.954   0.644 -0.1336  2.2581  0.6897
 1143TIP3   OH224919   4.751   1.747   2.551  0.5194  0.4697  0.0538
 1143TIP3    H124920   4.813   1.783   2.486 -0.9781  2.0426 -0.5866
 1143TIP3    H224921   4.732   1.821   2.608 -3.0687  1.0198 -1.5977
 1144TIP3   OH224922   0.275   2.361   3.795 -0.2681 -0.7375  0.6234
 1144TIP3    H124923   0.233   2.275   3.792  0.9374 -1.3242 -1.9480
 1144TIP3    H224924   0.358   2.346   3.842  0.5950 -1.3644 -1.0199
 1145TIP3   OH224925   0.211   3.374   6.327 -0.0333  0.1047  0.3839
 1145TIP3    H124926   0.181   3.463   6.342 -3.3138 -0.9563  0.9234
 1145TIP3    H224927   0.278   3.382   6.259 -1.3310  2.8227 -0.7191
 1146TIP3   OH224928   6.388   4.658  15.792  0.2661  0.7620 -0.1749
 1146TIP3    H124929   6.447   4.734  15.796  0.5203  0.6154 -1.0013
 1146TIP3    H224930   6.406   4.618  15.707 -1.0295  0.7052 -0.4385
 1147TIP3   OH224931   0.442   4.944   6.243 -0.2405  0.5189 -0.1791
 1147TIP3    H124932   0.362   4.970   6.289  0.6050 -0.0165  1.6717
 1147TIP3    H224933   0.513   4.979   6.296  0.7955  0.2095 -1.3094
 1148TIP3   OH224934   2.035   4.538  15.471 -0.2091  0.8837  0.1575
 1148TIP3    H124935   2.052   4.456  15.518 -0.1307  0.7866 -0.0380
 1148TIP3    H224936   2.121   4.569  15.445 -0.2782  0.7699 -0.2044
 1149TIP3   OH224937   3.378   4.000  11.523  0.1496 -0.7242 -0.3498
 1149TIP3    H124938   3.472   3.984  11.518 -0.0091 -1.8355  0.0081
 1149TIP3    H224939   3.370   4.092  11.546  1.1374 -0.4609 -1.0101
 1150TIP3   OH224940   6.297   3.882  11.810 -0.2861 -0.2767  0.4281
 1150TIP3    H124941   6.235   3.954  11.814  1.2840  1.2003 -0.4435
 1150TIP3    H224942   6.330   3.874  11.899 -0.8878 -0.3263  0.6514
 1151TIP3   OH224943   5.157   5.865  13.755  0.2751 -0.1911 -0.1878
 1151TIP3    H124944   5.238   5.912  13.776  0.2670 -0.5433  0.6841
 1151TIP3    H224945   5.164   5.783  13.804 -0.9431  0.0970  0.5219
 1152TIP3   OH224946   2.325   1.924  16.932 -0.0493  0.3682 -0.0046
 1152TIP3    H124947   2.299   1.948  17.021  1.1978  0.8087  0.2559
 1152TIP3    H224948   2.402   1.978  16.913 -0.7281  0.8241 -1.6449
 1153TIP3   OH224949   4.577   1.966  13.128  0.4912 -0.3029 -0.5791
 1153TIP3    H124950   4.537   1.936  13.210  0.0628  0.3789 -0.5311
 1153TIP3    H224951   4.671   1.959  13.143  0.4747  1.3626  0.5916
 1154TIP3   OH224952   0.303   3.005   1.001  0.2648 -0.4178  0.1488
 1154TIP3    H124953   0.350   2.991   1.083  1.7604 -0.6462 -0.7065
 1154TIP3    H224954   0.293   3.100   0.995  0.7419 -0.3608  0.2736
 1155TIP3   OH224955   3.613   0.819   3.655 -0.3657  0.3424 -0.0299
 1155TIP3    H124956   3.577   0.908   3.653 -0.2330  0.4624 -3.4039
 1155TIP3    H224957   3.707   0.832   3.641 -0.6163 -0.2852 -2.9426
 1156TIP3   OH224958   2.094   1.701  11.297 -0.3931 -0.4150  0.3944
 1156TIP3    H124959   2.170   1.733  11.249 -0.6834 -0.2577  0.0234
 1156TIP3    H224960   2.121   1.698  11.388 -0.3719  0.9554  0.4528
 1157TIP3   OH224961   2.320   3.744  12.706  0.1819 -0.5399 -0.2805
 1157TIP3    H124962   2.242   3.689  12.714  0.5107 -0.9008  0.5816
 1157TIP3    H224963   2.305   3.816  12.768  0.0389  0.0118 -0.9367
 1158TIP3   OH224964   1.641   1.399   1.239 -0.3714 -0.0872  0.1811
 1158TIP3    H124965   1.670   1.376   1.150 -0.9305  0.8008 -0.2487
 1158TIP3    H224966   1.690   1.478   1.260 -0.8948  0.2118  0.3000
 1159TIP3   OH224967   6.667   2.316  15.257 -0.0638 -0.0719  0.1054
 1159TIP3    H124968   6.637   2.334  15.346  0.3180  0.9334  0.0459
 1159TIP3    H224969   6.732   2.246  15.267 -1.6498 -1.5484  0.3465
 1160TIP3   OH224970   4.003   3.443  14.725 -0.0404  0.4098 -0.2054
 1160TIP3    H124971   4.024   3.498  14.649  3.6339  1.4379  1.3435
 1160TIP3    H224972   3.992   3.505  14.797 -0.8433 -0.6737  0.6271
 1161TIP3   OH224973   6.246   4.304  13.736 -0.4738  0.6772  0.0806
 1161TIP3    H124974   6.271   4.307  13.643  0.7248  0.9120  0.3972
 1161TIP3    H224975   6.298   4.233  13.773 -0.6106  0.8758  0.6640
 1162TIP3   OH224976   3.143   5.345  11.120  0.5149 -0.2134  0.4431
 1162TIP3    H124977   3.155   5.253  11.095  1.6095 -0.0140  0.1637
 1162TIP3    H224978   3.141   5.392  11.037  1.2566  0.1425  0.6173
 1163TIP3   OH224979   4.688   3.816   3.973 -0.0899  0.4598  0.1160
 1163TIP3    H124980   4.669   3.758   3.900  0.4579  0.6697 -0.1997
 1163TIP3    H224981   4.727   3.894   3.932  2.8729 -0.5214  0.7923
 1164TIP3   OH224982   1.547   0.086   2.986 -0.4349 -0.0398  0.1136
 1164TIP3    H124983   1.496   0.025   2.933 -0.7413 -1.0572  1.5140
 1164TIP3    H224984   1.558   0.041   3.070  0.1786  1.4436  0.8597
 1165TIP3   OH224985   2.910   4.739   0.463 -0.7281  0.4630  0.0994
 1165TIP3    H124986   2.817   4.741   0.439 -0.5669 -0.8819 -0.6969
 1165TIP3    H224987   2.924   4.823   0.507 -2.0260  1.2390 -0.8693
 1166TIP3   OH224988   2.403   2.607  16.535  1.0277  0.6086 -0.4612
 1166TIP3    H124989   2.425   2.515  16.526  1.0419  0.4903  0.6572
 1166TIP3    H224990   2.426   2.629  16.625 -1.2100  1.0907  0.0599
 1167TIP3   OH224991   5.317   2.343   6.060 -0.1919  0.1561  0.2174
 1167TIP3    H124992   5.411   2.359   6.056 -0.1654  0.1891  0.7973
 1167TIP3    H224993   5.307   2.276   6.127 -0.5194 -0.4439 -0.4202
 1168TIP3   OH224994   0.311   5.696   0.398  0.3108  0.0913  0.6223
 1168TIP3    H124995   0.246   5.649   0.345  0.7346 -2.1232  1.9260
 1168TIP3    H224996   0.268   5.712   0.481 -0.1700  3.0774 -0.1087
 1169TIP3   OH224997   5.125   0.888   0.367  0.0334 -0.4959 -0.5638
 1169TIP3    H124998   5.165   0.802   0.378 -0.4723 -0.8766 -1.5422
 1169TIP3    H224999   5.066   0.878   0.292  0.9450  1.0519 -1.5551
 1170TIP3   OH225000   5.005   3.604  12.682  0.5086 -0.4552 -0.0202
 1170TIP3    H125001   5.068   3.640  12.619 -0.0201 -0.5670 -0.6249
 1170TIP3    H225002   5.025   3.511  12.686 -0.7420 -0.8443 -1.5947
 1171TIP3   OH225003   3.656   5.988   1.086 -0.0336  0.5158 -0.4518
 1171TIP3    H125004   3.687   5.912   1.135 -1.6722 -0.2768 -0.5504
 1171TIP3    H225005   3.636   6.053   1.153 -1.2871 -0.1919 -0.0952
 1172TIP3   OH225006   4.322   3.619   6.107  0.0358 -0.2811  0.3321
 1172TIP3    H125007   4.339   3.538   6.155 -1.3866 -0.4354  0.6078
 1172TIP3    H225008   4.228   3.633   6.117  0.3143  1.5879  0.5684
 1173TIP3   OH225009   3.343   6.261   0.191 -0.3383  0.1545 -0.5951
 1173TIP3    H125010   3.266   6.269   0.134  0.1952  2.1054 -1.1325
 1173TIP3    H225011   3.405   6.209   0.140 -0.5985  0.1972 -0.9613
 1174TIP3   OH225012   2.119   6.183   3.628 -0.3061 -0.2633  0.0979
 1174TIP3    H125013   2.030   6.201   3.600  0.1436  1.7445 -0.1817
 1174TIP3    H225014   2.117   6.192   3.723 -0.6964 -1.7983  0.2666
 1175TIP3   OH225015   4.703   2.123   1.440 -0.4235 -0.1259 -0.4493
 1175TIP3    H125016   4.640   2.132   1.512  1.5276 -0.8070  1.4395
 1175TIP3    H225017   4.738   2.035   1.450  0.9391  0.2981 -1.3338
 1176TIP3   OH225018   5.634   6.802  13.520  0.3368  0.4883  0.1339
 1176TIP3    H125019   5.599   6.827  13.606  1.8400 -1.4409  1.3935
 1176TIP3    H225020   5.617   6.708  13.514  0.7821  0.4838 -1.4306
 1177TIP3   OH225021   4.120   6.483  15.283  0.0823  0.0517 -0.0710
 1177TIP3    H125022   4.113   6.450  15.372  0.1861  0.2116 -0.0010
 1177TIP3    H225023   4.213   6.501  15.271 -0.0335  0.7804  0.0660
 1178TIP3   OH225024   3.908   1.278   0.947 -0.6913 -0.0629  0.1518
 1178TIP3    H125025   3.862   1.336   1.008 -1.1971 -1.1644  0.8323
 1178TIP3    H225026   3.839   1.231   0.901 -0.2798 -1.2177  0.6781
 1179TIP3   OH225027   0.764   6.709  15.320  0.3906 -0.8073  0.2093
 1179TIP3    H125028   0.721   6.642  15.267 -2.6688  1.5645 -0.6380
 1179TIP3    H225029   0.815   6.760  15.257 -0.4049 -0.1026  0.1119
 1180TIP3   OH225030   5.730   3.791  16.735 -0.4756  0.2459 -0.8265
 1180TIP3    H125031   5.654   3.805  16.791 -0.9635 -2.1134 -0.7674
 1180TIP3    H225032   5.699   3.809  16.647 -0.8819  0.0660 -0.7197
 1181TIP3   OH225033   5.364   0.798  11.530  0.1515 -0.1844  0.5954
 1181TIP3    H125034   5.308   0.838  11.596 -0.3736 -2.7949  1.8705
 1181TIP3    H225035   5.304   0.778  11.457  0.2353  0.5072  0.3316
 1182TIP3   OH225036   3.984   3.810   1.520 -0.0353 -0.9173 -0.2796
 1182TIP3    H125037   3.997   3.895   1.563 -1.4265  0.1340 -1.8198
 1182TIP3    H225038   4.071   3.786   1.488  0.3567 -0.0199  0.0838
 1183TIP3   OH225039   4.434   5.813  16.073  0.3634  0.0971 -0.1439
 1183TIP3    H125040   4.470   5.869  16.004  0.3013  0.3627  0.0358
 1183TIP3    H225041   4.347   5.849  16.090 -0.7035 -1.5609 -1.7625
 1184TIP3   OH225042   6.197   5.965  10.919 -0.3618 -0.3114 -0.7011
 1184TIP3    H125043   6.188   6.042  10.976  1.6090  0.8073 -1.7510
 1184TIP3    H225044   6.291   5.960  10.902 -0.5309 -2.5896 -1.2168
 1185TIP3   OH225045   2.913   1.825  14.782 -0.4718  0.2774 -0.0818
 1185TIP3    H125046   3.001   1.864  14.783  0.3757 -1.5398 -0.0573
 1185TIP3    H225047   2.910   1.772  14.861 -1.6013  0.2893 -0.1079
 1186TIP3   OH225048   2.533   0.868   2.497 -0.6428 -0.7438 -0.4048
 1186TIP3    H125049   2.604   0.899   2.442 -0.0015 -1.8775 -0.2510
 1186TIP3    H225050   2.561   0.781   2.526 -0.4557  0.1981  2.6057
 1187TIP3   OH225051   6.192   5.609   4.165 -0.3214 -0.1046 -0.5793
 1187TIP3    H125052   6.168   5.590   4.256  0.4062 -1.3786 -0.6234
 1187TIP3    H225053   6.142   5.546   4.113  0.8242 -0.7889 -0.8847
 1188TIP3   OH225054   6.346   0.248  16.033 -0.5608  0.9646 -0.7119
 1188TIP3    H125055   6.317   0.234  15.943 -1.7486  0.5704 -0.2864
 1188TIP3    H225056   6.306   0.331  16.058 -0.0894  1.1593 -0.6103
 1189TIP3   OH225057   2.572   2.698   1.435 -0.1398  0.1950 -0.1524
 1189TIP3    H125058   2.649   2.697   1.378  0.5508 -2.1794  0.7086
 1189TIP3    H225059   2.520   2.772   1.403  1.7775  0.9771 -1.7004
 1190TIP3   OH225060   5.154   1.811  11.689 -0.6266 -0.0384  0.2782
 1190TIP3    H125061   5.220   1.824  11.621  0.9976  0.9434  1.9557
 1190TIP3    H225062   5.137   1.717  11.687  0.4753 -0.2529 -0.5054
 1191TIP3   OH225063   1.557   3.765  14.646  0.4579  0.0548 -0.5336
 1191TIP3    H125064   1.526   3.682  14.609  0.0411  0.0760 -0.2367
 1191TIP3    H225065   1.499   3.782  14.720  0.5727  0.5891 -0.5586
 1192TIP3   OH225066   4.231   3.103   1.479 -0.3149  0.0642 -0.1166
 1192TIP3    H125067   4.263   3.105   1.389 -0.2430  0.9062 -0.0825
 1192TIP3    H225068   4.215   3.010   1.497  0.7596 -0.2380 -0.6150
 1193TIP3   OH225069   4.169   0.203   4.274 -0.4965 -0.8379 -0.1626
 1193TIP3    H125070   4.166   0.240   4.363  2.3263  0.1108 -0.3726
 1193TIP3    H225071   4.101   0.250   4.226 -0.8393 -0.0759  1.0263
 1194TIP3   OH225072   0.996   5.505  14.519 -0.0401  0.3243  0.1102
 1194TIP3    H125073   0.999   5.600  14.504  1.7841  0.5178  1.2982
 1194TIP3    H225074   0.990   5.467  14.431  0.5768  1.5179 -0.4752
 1195TIP3   OH225075   2.608   3.050   3.054 -0.0240 -0.5551 -0.0599
 1195TIP3    H125076   2.560   3.014   2.980 -0.7756  1.3016 -0.5418
 1195TIP3    H225077   2.555   3.125   3.082  1.6491  0.4307  0.5900
 1196TIP3   OH225078   6.826   0.820   6.421  0.0195  0.7756  0.3419
 1196TIP3    H125079   6.819   0.883   6.493 -0.1418  1.3576 -0.1740
 1196TIP3    H225080   6.848   0.737   6.464 -3.2083  0.3276  1.4349
 1197TIP3   OH225081   2.746   6.206  16.831  0.0705  0.1907 -0.5088
 1197TIP3    H125082   2.802   6.264  16.778 -0.5238  0.5752 -0.7189
 1197TIP3    H225083   2.803   6.131  16.851  1.0516  1.0934  0.2658
 1198TIP3   OH225084   1.417   2.995   3.103 -0.3730 -0.7941  0.4290
 1198TIP3    H125085   1.404   2.905   3.131  1.1671 -0.5842  2.0237
 1198TIP3    H225086   1.329   3.033   3.104 -1.0149 -2.2078 -0.1036
 1199TIP3   OH225087   3.828   3.736  14.743 -0.2745  0.0330 -0.0318
 1199TIP3    H125088   3.920   3.761  14.750 -0.3489  0.3406 -0.1346
 1199TIP3    H225089   3.780   3.815  14.769 -0.5069 -0.1956  0.2433
 1200TIP3   OH225090   1.494   0.999  16.868 -0.5121  0.9351  0.1132
 1200TIP3    H125091   1.524   0.911  16.890  1.7442  1.1819 -1.6160
 1200TIP3    H225092   1.533   1.016  16.782 -1.2560  3.4644  0.2187
 1201TIP3   OH225093   1.158   3.166  10.927  0.2999  0.5166 -0.2059
 1201TIP3    H125094   1.166   3.179  11.022 -1.9989 -1.2111  0.3091
 1201TIP3    H225095   1.167   3.072  10.915 -2.7199  0.2532 -1.2088
 1202TIP3   OH225096   5.296   6.282   2.133 -0.2657 -0.5448  0.0027
 1202TIP3    H125097   5.363   6.307   2.070  2.7061 -0.6641  2.8557
 1202TIP3    H225098   5.264   6.364   2.169  1.9057 -0.4345  1.9325
 1203TIP3   OH225099   0.072   4.812   6.038  0.4262 -0.0668 -0.4401
 1203TIP3    H125100   0.128   4.755   6.091  2.2691  2.0659  0.0609
 1203TIP3    H225101   0.054   4.888   6.094  0.4689  1.1728 -2.0287
 1204TIP3   OH225102   0.283   1.228   0.289 -0.4336 -0.3821 -0.2688
 1204TIP3    H125103   0.278   1.282   0.367  0.1625 -0.6618 -0.0308
 1204TIP3    H225104   0.290   1.138   0.322  1.2045 -0.4087 -0.5962
 1205TIP3   OH225105   3.977   0.518   6.531  0.6485 -0.3862 -0.4724
 1205TIP3    H125106   4.067   0.506   6.502  0.6347  0.0810 -0.7222
 1205TIP3    H225107   3.929   0.445   6.493  0.8221 -0.3404 -0.7813
 1206TIP3   OH225108   6.522   1.755   4.361  0.5759  0.2789 -0.4584
 1206TIP3    H125109   6.520   1.671   4.316  0.2085  0.3647 -0.5999
 1206TIP3    H225110   6.588   1.743   4.430  0.3448 -0.2084 -0.3137
 1207TIP3   OH225111   3.865   6.107   4.318 -0.1134  0.6078 -0.0713
 1207TIP3    H125112   3.881   6.052   4.242 -0.1399  2.0675 -1.1880
 1207TIP3    H225113   3.902   6.059   4.392  0.3123 -0.6381 -1.0753
 1208TIP3   OH225114   3.587   5.938  13.079  0.2137 -0.5517 -0.0740
 1208TIP3    H125115   3.661   5.950  13.139  1.4345  0.8268 -1.7690
 1208TIP3    H225116   3.564   6.026  13.050 -1.9182 -0.9802  0.1410
 1209TIP3   OH225117   2.767   0.466  11.353 -0.0939 -0.5700  0.3182
 1209TIP3    H125118   2.833   0.533  11.337 -0.9885  0.2829  0.1132
 1209TIP3    H225119   2.770   0.452  11.448  0.0988 -0.2420  0.3626
 1210TIP3   OH225120   4.548   4.516   0.104 -0.4199  0.0967  0.4222
 1210TIP3    H125121   4.610   4.530   0.032  2.9405 -0.1769  2.9989
 1210TIP3    H225122   4.505   4.600   0.115  2.3553  1.5848  0.8598
 1211TIP3   OH225123   6.020   6.416  11.753  0.1280  0.0446 -0.1340
 1211TIP3    H125124   5.992   6.496  11.798  0.4055  0.5979 -0.9389
 1211TIP3    H225125   6.096   6.442  11.702  0.1187 -0.6997 -0.5443
 1212TIP3   OH225126   1.059   3.468   2.194  0.4463  0.1981  0.2042
 1212TIP3    H125127   1.131   3.457   2.132 -0.7044 -0.9696 -0.9900
 1212TIP3    H225128   1.080   3.408   2.265  0.3708 -0.6102 -0.4369
 1213TIP3   OH225129   3.904   5.792   6.381  0.3335  0.2970 -0.5626
 1213TIP3    H125130   3.978   5.800   6.441 -1.0752 -1.2583  1.5393
 1213TIP3    H225131   3.944   5.767   6.297  2.1501 -2.5965  0.9868
 1214TIP3   OH225132   6.573   1.307  12.262  0.2197  0.0629 -0.2324
 1214TIP3    H125133   6.653   1.359  12.253  0.1710  0.3623  0.9776
 1214TIP3    H225134   6.599   1.219  12.236  0.7783  0.2928 -0.4692
 1215TIP3   OH225135   6.203   2.528  13.957  0.0578 -0.1172  0.2892
 1215TIP3    H125136   6.181   2.594  13.892 -1.7650  1.9021  2.7506
 1215TIP3    H225137   6.295   2.544  13.977  0.9597 -1.4071 -2.3031
 1216TIP3   OH225138   2.140   0.276   0.310  0.2122 -0.7768 -0.7629
 1216TIP3    H125139   2.058   0.248   0.270 -0.6986  1.2468 -0.4843
 1216TIP3    H225140   2.138   0.372   0.302  2.0855 -0.6239  0.1390
 1217TIP3   OH225141   3.986   2.722   2.168 -0.4203  0.1425 -0.0620
 1217TIP3    H125142   3.928   2.794   2.193  0.8247  1.1555  0.0299
 1217TIP3    H225143   3.979   2.718   2.073  0.5634  1.3754 -0.2222
 1218TIP3   OH225144   2.299   0.717  13.056  0.2431 -0.0249 -0.4986
 1218TIP3    H125145   2.281   0.658  12.983 -1.3206 -2.0019  1.3345
 1218TIP3    H225146   2.259   0.800  13.030 -0.5166 -0.7478 -1.7899
 1219TIP3   OH225147   4.385   1.392  15.949  0.2538 -0.3566 -0.1533
 1219TIP3    H125148   4.318   1.454  15.977 -1.4496 -2.4636  0.7870
 1219TIP3    H225149   4.337   1.327  15.898  1.7431 -1.5113 -0.1615
 1220TIP3   OH225150   6.105   2.503  12.375 -0.1221 -0.8564  0.1119
 1220TIP3    H125151   6.045   2.511  12.301 -0.5541  2.1062  0.6436
 1220TIP3    H225152   6.187   2.474  12.337 -0.6326 -0.4342 -1.3760
 1221TIP3   OH225153   1.931   2.131  17.078  0.8054 -0.6580 -0.0014
 1221TIP3    H125154   2.015   2.117  17.035  0.6775  2.2425 -1.4442
 1221TIP3    H225155   1.952   2.176  17.159  0.6544  0.3283 -0.5006
 1222TIP3   OH225156   1.243   5.049   6.058  0.7638 -0.1679 -0.3465
 1222TIP3    H125157   1.332   5.049   6.024  0.4558 -1.0796 -1.1847
 1222TIP3    H225158   1.253   5.028   6.151  1.4346  0.0241 -0.3704
 1223TIP3   OH225159   0.985   3.224  11.995  0.0886 -0.8649  0.0640
 1223TIP3    H125160   1.023   3.162  12.057 -0.3751 -2.6808 -1.3763
 1223TIP3    H225161   0.891   3.222  12.015  0.0591 -0.7304 -0.0634
 1224TIP3   OH225162   4.652   5.547  12.739 -0.2521  0.0616 -0.1706
 1224TIP3    H125163   4.630   5.473  12.682 -0.4285  0.3852 -0.5288
 1224TIP3    H225164   4.704   5.606  12.683 -0.6840  0.5256 -0.0967
 1225TIP3   OH225165   4.679   0.382   1.842 -0.2183 -0.3210  0.0118
 1225TIP3    H125166   4.600   0.349   1.798 -0.5828 -2.2761  1.9674
 1225TIP3    H225167   4.648   0.410   1.929  1.0131  0.3031  0.2666
 1226TIP3   OH225168   3.963   2.743  17.046 -0.6280 -0.1504 -0.0590
 1226TIP3    H125169   4.008   2.815  17.090  1.4009 -1.1650 -0.3705
 1226TIP3    H225170   4.032   2.681  17.024 -1.9543 -1.0087 -2.1478
 1227TIP3   OH225171   0.918   4.507  11.951 -0.1145  0.1908 -0.5727
 1227TIP3    H125172   0.824   4.496  11.943 -0.1272 -0.4097  0.2728
 1227TIP3    H225173   0.953   4.480  11.866 -0.5480 -1.5998 -0.2191
 1228TIP3   OH225174   2.304   6.814   0.678 -0.1120  0.4775  0.2257
 1228TIP3    H125175   2.246   6.881   0.640  0.0186  1.4850  1.7116
 1228TIP3    H225176   2.385   6.821   0.627 -1.0184 -0.4709 -1.4266
 1229TIP3   OH225177   5.831   2.519   5.407  0.3154  0.2684 -0.2667
 1229TIP3    H125178   5.757   2.493   5.461  1.7550 -3.5937  0.1279
 1229TIP3    H225179   5.905   2.525   5.467  0.8861  1.4382 -1.0378
 1230TIP3   OH225180   1.216   2.913  13.796  0.3812  0.0735 -0.1524
 1230TIP3    H125181   1.165   2.840  13.761 -0.0357 -0.5072  1.5566
 1230TIP3    H225182   1.197   2.913  13.890  2.1857  0.9316  0.2684
 1231TIP3   OH225183   6.063   4.860   2.890  0.3121  0.4465  0.1358
 1231TIP3    H125184   6.050   4.766   2.879  1.1443  0.0802  1.9414
 1231TIP3    H225185   6.067   4.873   2.985  2.1840  2.0231 -0.0974
 1232TIP3   OH225186   5.336   4.709  16.175  0.2200  0.4101 -0.3629
 1232TIP3    H125187   5.294   4.732  16.092  0.1571 -0.8275 -0.6994
 1232TIP3    H225188   5.304   4.620  16.194  2.2361 -0.3759 -0.3768
 1233TIP3   OH225189   1.265   2.852  10.273  0.2734  0.0902 -0.7226
 1233TIP3    H125190   1.333   2.873  10.337  0.6405  1.7190 -1.6213
 1233TIP3    H225191   1.273   2.757  10.261  1.4403  0.0395  0.2275
 1234TIP3   OH225192   5.342   1.348   4.801 -0.0313  0.1274  0.2323
 1234TIP3    H125193   5.289   1.404   4.857  1.0592  0.8839  0.5467
 1234TIP3    H225194   5.413   1.317   4.858 -0.7726 -1.8779  0.1715
 1235TIP3   OH225195   5.627   2.591   5.960 -0.1651  0.5339 -0.1377
 1235TIP3    H125196   5.635   2.592   6.055  0.5029 -0.3681 -0.1632
 1235TIP3    H225197   5.534   2.605   5.943 -0.2397  1.0196  0.6358
 1236TIP3   OH225198   5.814   3.289  12.475  0.1120  0.1976  0.5010
 1236TIP3    H125199   5.829   3.350  12.547  1.4221  0.0362  0.3771
 1236TIP3    H225200   5.856   3.207  12.504 -0.7297 -0.3494  0.2285
 1237TIP3   OH225201   6.038   4.041  12.541  0.6812 -0.5238  0.3230
 1237TIP3    H125202   6.105   3.993  12.493  1.0022  0.5424 -0.3534
 1237TIP3    H225203   6.084   4.115  12.580 -0.0237  0.0130  0.1725
 1238TIP3   OH225204   5.469   2.140   4.453  0.1153  0.5535  0.4012
 1238TIP3    H125205   5.433   2.209   4.509 -1.3395  0.8345 -0.8192
 1238TIP3    H225206   5.464   2.176   4.364  1.6479 -0.1841 -0.0039
 1239TIP3   OH225207   3.755   2.355  13.326  0.1095  0.0556 -0.0189
 1239TIP3    H125208   3.714   2.278  13.364 -0.4929  0.8832  1.0527
 1239TIP3    H225209   3.781   2.328  13.238 -1.4705 -0.9089 -0.2116
 1240TIP3   OH225210   6.577   3.577   0.224  0.1164  0.6555  0.0168
 1240TIP3    H125211   6.544   3.493   0.193 -0.4005  1.1974 -0.9710
 1240TIP3    H225212   6.604   3.623   0.144  1.2422  1.0809  0.6151
 1241TIP3   OH225213   1.292   6.762  13.359 -0.9327 -0.6549 -0.3181
 1241TIP3    H125214   1.296   6.766  13.263 -3.1224 -1.6289 -0.5263
 1241TIP3    H225215   1.280   6.853  13.386  1.4446 -0.1410 -0.7755
 1242TIP3   OH225216   6.731   1.785   4.543 -0.1757 -0.5295  0.0720
 1242TIP3    H125217   6.784   1.705   4.539 -0.0455 -0.5500  1.5436
 1242TIP3    H225218   6.741   1.816   4.633 -2.1859 -0.1956  0.2262
 1243TIP3   OH225219   2.535   2.235  10.875  0.1084 -0.3582  0.2235
 1243TIP3    H125220   2.584   2.170  10.926  1.0847  0.0742 -0.1384
 1243TIP3    H225221   2.488   2.286  10.940 -0.0373 -0.9192  0.5688
 1244TIP3   OH225222   3.543   2.836  15.164  0.0401  0.0586  0.1388
 1244TIP3    H125223   3.497   2.903  15.214 -1.6730 -1.4471  0.7144
 1244TIP3    H225224   3.567   2.878  15.082  0.6735  1.8623  1.1985
 1245TIP3   OH225225   0.717   3.559  15.679 -0.2977  0.2954 -0.4534
 1245TIP3    H125226   0.751   3.485  15.629  0.5731  0.1763  0.2951
 1245TIP3    H225227   0.630   3.575  15.642  0.0927 -0.1567 -1.6037
 1246TIP3   OH225228   0.730   0.788  12.134  0.5317  0.3792  0.8389
 1246TIP3    H125229   0.712   0.715  12.193  0.9275 -0.6524 -0.2587
 1246TIP3    H225230   0.677   0.860  12.167 -0.4877 -0.6411  1.4891
 1247TIP3   OH225231   1.465   6.304  15.250 -0.5945  0.3211 -0.2713
 1247TIP3    H125232   1.370   6.288  15.248 -0.9396  2.0963 -1.6562
 1247TIP3    H225233   1.502   6.226  15.290 -2.5568 -0.9026 -0.6898
 1248TIP3   OH225234   4.484   3.797   5.896  0.6628  0.2137 -0.0418
 1248TIP3    H125235   4.438   3.725   5.940 -0.1129 -0.0469 -1.2367
 1248TIP3    H225236   4.470   3.873   5.953 -0.8969  0.0405 -0.1665
 1249TIP3   OH225237   0.974   2.253   4.224 -0.0028 -0.4938 -0.4558
 1249TIP3    H125238   0.882   2.227   4.236 -0.2765  0.6531  0.0364
 1249TIP3    H225239   1.022   2.203   4.290 -0.5069  0.1193  0.3980
 1250TIP3   OH225240   2.745   6.654   1.685 -0.0541  0.2343 -0.7292
 1250TIP3    H125241   2.752   6.600   1.606  0.9209 -0.5619 -0.1203
 1250TIP3    H225242   2.683   6.723   1.661  0.1533 -0.0414 -2.1556
 1251TIP3   OH225243   3.835   6.006  11.918  0.5884  0.0649  0.2638
 1251TIP3    H125244   3.768   6.058  11.874  0.5654 -0.4661 -0.3454
 1251TIP3    H225245   3.848   6.049  12.002  0.7362  1.1739 -0.3190
 1252TIP3   OH225246   5.553   1.005   5.669 -0.0846 -0.5428 -0.1577
 1252TIP3    H125247   5.564   0.970   5.580  1.4096  0.1842 -0.2997
 1252TIP3    H225248   5.467   1.047   5.668 -0.4052 -1.1969 -1.0339
 1253TIP3   OH225249   6.348   6.228   1.972  0.4207 -0.4871  0.4046
 1253TIP3    H125250   6.394   6.263   1.896  0.4192 -1.9740 -0.3055
 1253TIP3    H225251   6.263   6.200   1.939 -0.3235  0.5251  1.3445
 1254TIP3   OH225252   4.809   3.196   4.244  0.4340  0.1206  0.0708
 1254TIP3    H125253   4.773   3.280   4.269 -0.4607 -0.4476  0.7433
 1254TIP3    H225254   4.835   3.207   4.152 -3.1382  0.0845 -1.0952
 1255TIP3   OH225255   4.211   3.411  14.132 -0.1269  0.2677  0.3142
 1255TIP3    H125256   4.294   3.370  14.157 -0.3925 -0.9234 -0.6794
 1255TIP3    H225257   4.145   3.347  14.155 -0.6121  0.3884 -0.6882
 1256TIP3   OH225258   1.375   0.887  11.314 -0.0355  1.0421 -0.0445
 1256TIP3    H125259   1.371   0.981  11.329  2.6883  0.8947  2.3974
 1256TIP3    H225260   1.447   0.875  11.253 -0.0772  0.5045  0.0066
 1257TIP3   OH225261   3.595   0.032  11.614 -0.4030 -0.3387  0.0170
 1257TIP3    H125262   3.597  -0.034  11.683 -1.5259  0.0484  0.4366
 1257TIP3    H225263   3.602   0.115  11.660  4.5426 -0.0816 -0.6608
 1258TIP3   OH225264   2.974   4.114   2.467 -0.2973  0.1350  0.3274
 1258TIP3    H125265   2.913   4.062   2.414  1.0009 -0.5550 -0.5498
 1258TIP3    H225266   3.000   4.054   2.537 -0.9127  0.5594  0.9238
 1259TIP3   OH225267   2.682   1.153  16.808 -0.1699 -0.0562 -0.9712
 1259TIP3    H125268   2.694   1.066  16.845 -0.0780  0.2798 -0.1934
 1259TIP3    H225269   2.683   1.139  16.714  0.8314 -0.7677 -0.8671
 1260TIP3   OH225270   3.744   5.343  14.686 -0.1581 -0.4545  0.0966
 1260TIP3    H125271   3.804   5.399  14.736  1.0078 -1.9345  0.4312
 1260TIP3    H225272   3.671   5.401  14.663  0.6999  1.0345  0.9316
 1261TIP3   OH225273   6.087   0.307   3.943  0.4860 -0.4546  0.0221
 1261TIP3    H125274   6.113   0.221   3.910 -0.4349 -1.0135  0.7185
 1261TIP3    H225275   6.168   0.358   3.941  1.0050 -1.2687 -0.5861
 1262TIP3   OH225276   6.356   1.369   0.860 -0.4496  0.3664 -0.2285
 1262TIP3    H125277   6.349   1.317   0.779 -1.2239  1.4349 -0.8745
 1262TIP3    H225278   6.295   1.327   0.921  1.2342 -1.3590  0.3589
 1263TIP3   OH225279   3.069   3.288   2.406 -0.5423  0.3788  0.1417
 1263TIP3    H125280   3.036   3.199   2.420 -1.1523  0.3758 -1.2105
 1263TIP3    H225281   3.112   3.310   2.489 -1.9967 -0.4624  1.1683
 1264TIP3   OH225282   4.161   1.271   0.156  0.0702  0.6266  0.3863
 1264TIP3    H125283   4.112   1.343   0.116  1.0537  2.1408  1.7946
 1264TIP3    H225284   4.213   1.235   0.083  0.4114  2.0842 -0.1243
 1265TIP3   OH225285   4.288   4.061   0.333  0.4538 -0.5084  0.0073
 1265TIP3    H125286   4.333   3.997   0.278 -0.4390 -0.0936 -1.2469
 1265TIP3    H225287   4.196   4.052   0.309  0.2501  0.8510  0.2162
 1266TIP3   OH225288   1.231   4.835  13.889  0.2938  0.2727 -0.3677
 1266TIP3    H125289   1.144   4.839  13.850 -0.5759  0.7754  1.5133
 1266TIP3    H225290   1.286   4.796  13.820 -1.2436  0.5698 -1.8366
 1267TIP3   OH225291   3.068   5.818  15.472  0.0828 -0.3103  0.0153
 1267TIP3    H125292   3.126   5.807  15.547  0.2195 -0.1181 -0.0616
 1267TIP3    H225293   3.117   5.874  15.412 -0.2614  0.0150  0.0335
 1268TIP3   OH225294   3.708   5.406  12.270  0.1021  0.2012  0.4403
 1268TIP3    H125295   3.681   5.483  12.220 -1.9328 -0.9608 -0.3958
 1268TIP3    H225296   3.677   5.422  12.359 -0.1228  0.4420  0.3186
 1269TIP3   OH225297   3.309   6.818  11.564 -0.1396 -0.5993 -0.0523
 1269TIP3    H125298   3.402   6.842  11.559 -0.1288 -0.6104  0.0822
 1269TIP3    H225299   3.265   6.898  11.594 -0.2525 -0.4201 -0.6891
 1270TIP3   OH225300   4.755   0.128   3.791 -0.1861 -0.6233  0.8659
 1270TIP3    H125301   4.707   0.176   3.859 -0.0778  0.0803  0.4548
 1270TIP3    H225302   4.845   0.161   3.797 -0.1369 -0.6895  0.4997
 1271TIP3   OH225303   3.368   3.397  13.602  0.4324  0.3017 -0.2199
 1271TIP3    H125304   3.421   3.468  13.639  0.2124 -0.5351  1.7957
 1271TIP3    H225305   3.278   3.425  13.617  0.3418 -0.0163 -0.1682
 1272TIP3   OH225306   5.089   5.278  15.948  0.0537  0.5983  0.2704
 1272TIP3    H125307   5.032   5.229  16.007 -0.3861  2.7370  1.7677
 1272TIP3    H225308   5.161   5.308  16.004  1.3894 -0.0536 -1.0592
 1273TIP3   OH225309   5.381   1.011  11.846 -0.3116  0.8185  0.6926
 1273TIP3    H125310   5.354   1.059  11.924 -1.1246  0.6743  0.5061
 1273TIP3    H225311   5.340   1.058  11.773 -1.0455 -0.0739  0.4963
 1274TIP3   OH225312   1.235   0.533   2.539  0.0922  0.0184  0.5401
 1274TIP3    H125313   1.209   0.523   2.630  2.3532 -0.1237  1.2336
 1274TIP3    H225314   1.206   0.621   2.515 -0.1694  0.2123  1.5306
 1275TIP3   OH225315   2.720   3.745  11.536 -0.5607 -0.4680 -0.1794
 1275TIP3    H125316   2.717   3.669  11.478  2.4218 -0.8730  0.0318
 1275TIP3    H225317   2.728   3.708  11.624 -1.0645  0.1151  0.1193
 1276TIP3   OH225318   5.259   1.815   5.821  0.3070 -0.3318  0.4161
 1276TIP3    H125319   5.244   1.893   5.874 -0.2612 -0.3458  0.2813
 1276TIP3    H225320   5.340   1.833   5.774  1.5884 -0.8680  2.2876
 1277TIP3   OH225321   6.463   2.629  14.076  0.2656  0.2552 -0.0220
 1277TIP3    H125322   6.412   2.709  14.067 -0.5648 -0.1770  0.7318
 1277TIP3    H225323   6.553   2.656  14.055  0.1146  1.5250  0.8410
 1278TIP3   OH225324   4.790   1.651   1.078  0.2169 -0.3036  0.1729
 1278TIP3    H125325   4.846   1.708   1.131  0.8787 -1.8925  1.2533
 1278TIP3    H225326   4.835   1.567   1.078 -0.0628 -0.5395 -2.4716
 1279TIP3   OH225327   0.984   5.894  17.008 -0.8744 -0.2666 -0.3193
 1279TIP3    H125328   0.959   5.891  17.100  0.6517 -0.0209  0.1167
 1279TIP3    H225329   0.988   5.987  16.987 -1.3950 -0.3229 -0.6981
 1280TIP3   OH225330   2.763   3.690  16.445 -0.1816 -0.3224 -0.0746
 1280TIP3    H125331   2.786   3.602  16.473 -1.4112 -0.2850  1.1510
 1280TIP3    H225332   2.682   3.710  16.491 -0.1457  1.3054 -0.6378
 1281TIP3   OH225333   6.690   3.997   1.244  0.6301 -0.1814 -0.0738
 1281TIP3    H125334   6.743   3.930   1.287 -0.2547 -1.6078 -1.1167
 1281TIP3    H225335   6.660   4.053   1.316  1.8816 -0.5320  0.7538
 1282TIP3   OH225336   4.317   1.315  13.230  0.1559 -0.6406  0.0300
 1282TIP3    H125337   4.280   1.228  13.215 -0.8193 -0.0828 -0.8937
 1282TIP3    H225338   4.389   1.321  13.167 -0.6003 -0.2937 -0.8082
 1283TIP3   OH225339   6.482   0.277   4.242 -0.1177  0.3475  0.0011
 1283TIP3    H125340   6.496   0.279   4.147  0.9364  1.3146  0.1566
 1283TIP3    H225341   6.391   0.249   4.251  0.5183 -2.4855 -1.1922
 1284TIP3   OH225342   2.109   0.985   5.407  0.2367 -0.2186  0.1360
 1284TIP3    H125343   2.085   1.077   5.422  1.7424  0.3818 -0.8558
 1284TIP3    H225344   2.173   0.966   5.476 -0.2955 -0.6392  0.5236
 1285TIP3   OH225345   3.129   3.588   3.393  0.1504  0.3958  0.2080
 1285TIP3    H125346   3.132   3.640   3.313  0.7759  3.2718  1.9651
 1285TIP3    H225347   3.202   3.526   3.385 -0.6784 -0.3934 -1.9800
 1286TIP3   OH225348   3.328   4.778   3.063 -0.2158  0.5029 -0.0186
 1286TIP3    H125349   3.378   4.699   3.083  2.2204  1.7253 -0.9324
 1286TIP3    H225350   3.338   4.791   2.969 -2.1579  0.9391 -0.2260
 1287TIP3   OH225351   4.147   6.093  15.029  0.5100 -0.4339  0.3937
 1287TIP3    H125352   4.206   6.161  15.063 -0.6898  0.8993 -0.0977
 1287TIP3    H225353   4.192   6.060  14.951  1.0491 -0.0950  0.5502
 1288TIP3   OH225354   0.663   0.153  15.359 -0.0675  0.7899  0.6418
 1288TIP3    H125355   0.718   0.150  15.281 -1.8844 -0.4200 -0.6712
 1288TIP3    H225356   0.702   0.088  15.418  1.8565  2.3498  1.2003
 1289TIP3   OH225357   0.136   1.154  14.498 -0.0775 -0.4639 -0.1330
 1289TIP3    H125358   0.189   1.108  14.434 -0.9183 -2.0035  0.2249
 1289TIP3    H225359   0.195   1.168  14.572  0.6069  0.4229 -0.8227
 1290TIP3   OH225360   0.871   0.384  15.263 -0.4202  0.1388 -0.3144
 1290TIP3    H125361   0.826   0.383  15.179 -1.0505 -0.8570  0.0118
 1290TIP3    H225362   0.876   0.291  15.288  3.1149  0.0021 -1.0072
 1291TIP3   OH225363   6.457   5.686  13.737  0.5728 -0.6383 -0.2719
 1291TIP3    H125364   6.363   5.694  13.754  0.2943 -1.3917 -1.3042
 1291TIP3    H225365   6.462   5.653  13.647  1.8695  0.6271 -0.7053
 1292TIP3   OH225366   2.537   4.017  11.337 -0.6478  0.1685  0.0590
 1292TIP3    H125367   2.629   4.040  11.350  0.3725 -2.8583 -0.9953
 1292TIP3    H225368   2.508   3.983  11.421 -0.0200 -1.1032 -0.2115
 1293TIP3   OH225369   1.165   4.222   4.713  0.1469 -0.2985  0.2260
 1293TIP3    H125370   1.168   4.166   4.791 -0.0870 -1.2043 -0.4028
 1293TIP3    H225371   1.186   4.163   4.640  0.4395  0.5563 -0.3907
 1294TIP3   OH225372   1.695   3.864  11.671  0.4440 -0.4201  0.5855
 1294TIP3    H125373   1.642   3.900  11.600 -0.1396  1.5290  1.9447
 1294TIP3    H225374   1.632   3.824  11.731  0.7777 -0.4810  0.8983
 1295TIP3   OH225375   2.039   0.891  16.593 -0.2002 -0.2232  0.0035
 1295TIP3    H125376   2.112   0.854  16.544 -1.3879 -0.8178 -1.3829
 1295TIP3    H225377   2.059   0.871  16.684  0.6921 -1.5834 -0.4605
 1296TIP3   OH225378   3.489   1.414   5.889 -0.0073 -0.5338 -0.0574
 1296TIP3    H125379   3.438   1.376   5.817  0.2257  1.5323 -1.3972
 1296TIP3    H225380   3.497   1.507   5.866  2.6756 -0.4025  1.0957
 1297TIP3   OH225381   6.792   1.387   3.548 -0.2535  0.1002  0.2179
 1297TIP3    H125382   6.733   1.436   3.606  0.3730  2.0223 -0.6852
 1297TIP3    H225383   6.877   1.430   3.559  0.1302 -0.2345 -1.2485
 1298TIP3   OH225384   1.841   6.355   2.621  0.2782 -0.1124 -0.4006
 1298TIP3    H125385   1.930   6.390   2.618 -0.3322  1.5593 -0.2512
 1298TIP3    H225386   1.825   6.335   2.713  0.3634 -0.0246 -0.3670
 1299TIP3   OH225387   6.649   5.615   6.194 -0.0427 -0.8132  0.3821
 1299TIP3    H125388   6.741   5.620   6.168 -0.4513 -1.7442 -1.4326
 1299TIP3    H225389   6.651   5.615   6.289  1.7248  0.7462  0.4092
 1300TIP3   OH225390   1.367   4.658  12.244  0.1547 -0.3628 -0.1711
 1300TIP3    H125391   1.284   4.622  12.211  0.2508  0.0917 -0.9198
 1300TIP3    H225392   1.407   4.699  12.168  0.4178  0.6402  0.4976
 1301TIP3   OH225393   2.545   2.885  13.849 -0.2159 -0.1189  0.2847
 1301TIP3    H125394   2.616   2.943  13.821 -0.3652 -0.7715 -1.6133
 1301TIP3    H225395   2.485   2.942  13.897 -0.2484  1.2979 -1.3327
 1302TIP3   OH225396   5.222   0.545   2.785 -0.1723 -0.0471  0.0713
 1302TIP3    H125397   5.160   0.616   2.803  1.0876  0.9253  0.6883
 1302TIP3    H225398   5.283   0.547   2.858  1.6793  0.2036 -1.4148
 1303TIP3   OH225399   2.642   2.482  14.689 -0.0547  0.6311  0.1244
 1303TIP3    H125400   2.603   2.423  14.626  1.8832 -0.6396  0.0377
 1303TIP3    H225401   2.602   2.567  14.671 -0.1882  0.1146 -2.2123
 1304TIP3   OH225402   5.700   5.583   3.256  0.1841  0.8732 -0.3146
 1304TIP3    H125403   5.606   5.573   3.238  0.0451  2.1840 -0.4363
 1304TIP3    H225404   5.709   5.674   3.286  1.3281  0.5730  0.3136
 1305TIP3   OH225405   2.892   5.347   5.676 -0.1587 -0.0655  0.1722
 1305TIP3    H125406   2.797   5.352   5.667 -0.0278 -1.0358 -2.4717
 1305TIP3    H225407   2.915   5.425   5.727 -2.2269  0.9937 -0.4078
 1306TIP3   OH225408   6.343   2.784  16.585  0.0020  0.1619  0.2131
 1306TIP3    H125409   6.354   2.868  16.540 -0.9125  1.0654  1.6040
 1306TIP3    H225410   6.431   2.746  16.587  0.5052  1.2659 -0.0775
 1307TIP3   OH225411   2.182   0.485  12.644 -0.6895 -0.7236 -0.6317
 1307TIP3    H125412   2.194   0.397  12.679  2.1525 -0.5497 -0.9361
 1307TIP3    H225413   2.237   0.488  12.566  0.8695  1.8793  0.4501
 1308TIP3   OH225414   2.584   2.822   4.467  0.5794 -0.5443 -0.4198
 1308TIP3    H125415   2.652   2.776   4.516  0.6700  0.5661  0.5398
 1308TIP3    H225416   2.556   2.759   4.400 -0.5619 -2.6986  1.8924
 1309TIP3   OH225417   2.086   5.850   4.723 -0.0451  0.2031  0.1143
 1309TIP3    H125418   2.059   5.907   4.651 -0.3878  1.8545  1.4845
 1309TIP3    H225419   2.127   5.909   4.786 -0.0665 -1.1316  1.4352
 1310TIP3   OH225420   3.019   2.736  12.381 -0.3521 -0.2439  0.7065
 1310TIP3    H125421   2.937   2.726  12.333 -0.1001  0.0457  0.2133
 1310TIP3    H225422   3.010   2.820  12.426  0.3393  0.5970 -0.6769
 1311TIP3   OH225423   1.026   4.822  16.233  0.1236 -0.0443 -0.0600
 1311TIP3    H125424   0.989   4.885  16.171 -2.2299 -1.2983 -0.0249
 1311TIP3    H225425   0.980   4.839  16.315  1.5646  0.0699  0.7649
 1312TIP3   OH225426   5.624   5.409  13.908  0.0006 -0.4847 -0.2176
 1312TIP3    H125427   5.618   5.478  13.975 -0.0197 -0.6062 -0.0935
 1312TIP3    H225428   5.539   5.410  13.865  1.0037  1.7318 -2.3848
 1313TIP3   OH225429   3.961   1.728  12.634  0.2039 -0.6104  0.5513
 1313TIP3    H125430   3.946   1.802  12.692  0.1582  2.0101 -2.4815
 1313TIP3    H225431   4.056   1.718  12.633  0.1964 -0.7663  1.1713
 1314TIP3   OH225432   2.693   2.320   0.569  0.0477 -0.3798 -0.0081
 1314TIP3    H125433   2.651   2.249   0.521 -0.4139 -0.0718 -0.0641
 1314TIP3    H225434   2.705   2.285   0.657 -1.6521  0.0220  0.4184
 1315TIP3   OH225435   6.405   1.453  16.992 -0.3065  0.3103  0.0920
 1315TIP3    H125436   6.349   1.430  17.066  0.3716  0.6586  0.7222
 1315TIP3    H225437   6.468   1.381  16.986  0.4021  0.8659  0.6416
 1316TIP3   OH225438   6.031   4.885  12.610  0.3403  0.2346  0.8198
 1316TIP3    H125439   6.025   4.965  12.661  1.2424  0.8086  0.0570
 1316TIP3    H225440   5.998   4.908  12.524  1.1405 -0.0434  0.4258
 1317TIP3   OH225441   5.939   1.979   0.227 -0.1487  0.4145  0.3616
 1317TIP3    H125442   5.942   2.051   0.291 -0.5320  1.1585 -0.4243
 1317TIP3    H225443   5.947   2.023   0.143  0.2248 -0.5420 -0.1095
 1318TIP3   OH225444   4.291   3.665   0.039 -0.4979  0.1445  0.5045
 1318TIP3    H125445   4.290   3.729  -0.032 -1.4974  0.4206  0.7549
 1318TIP3    H225446   4.200   3.640   0.051  0.0003 -2.6570 -0.7519
 1319TIP3   OH225447   1.760   5.650   5.449  0.5655 -0.1445 -0.2387
 1319TIP3    H125448   1.689   5.681   5.393 -0.0840  1.0382  1.1859
 1319TIP3    H225449   1.716   5.614   5.527  1.4857 -0.7422  0.0271
 1320TIP3   OH225450   0.751   6.813   1.743  0.1391  0.0165 -0.0428
 1320TIP3    H125451   0.724   6.895   1.702 -0.4839 -0.8272 -1.3753
 1320TIP3    H225452   0.816   6.777   1.683 -0.8315 -1.2735 -0.3627
 1321TIP3   OH225453   2.043   4.511   5.672 -0.3758 -0.0049  0.4815
 1321TIP3    H125454   1.951   4.512   5.648 -0.5511  3.0379  0.8623
 1321TIP3    H225455   2.044   4.532   5.765  0.6521 -3.6166  1.4413
 1322TIP3   OH225456   0.197   6.407  17.121  0.0603 -0.3128 -0.0997
 1322TIP3    H125457   0.137   6.480  17.108 -0.1009 -0.5983 -1.0628
 1322TIP3    H225458   0.162   6.358  17.195  0.0072  0.4189  0.3600
 1323TIP3   OH225459   0.212   3.475   1.378 -0.3837  0.1944  0.2875
 1323TIP3    H125460   0.118   3.456   1.378 -0.2963 -0.2550  0.3582
 1323TIP3    H225461   0.253   3.388   1.374  0.0202  0.4326 -0.9736
 1324TIP3   OH225462   6.610   0.636   2.065  0.3984 -0.0301  0.7019
 1324TIP3    H125463   6.553   0.703   2.104 -0.8439 -1.2282  0.9927
 1324TIP3    H225464   6.595   0.644   1.971  0.0963 -0.0380  0.7491
 1325TIP3   OH225465   1.176   1.620  16.965  0.5174 -0.1692 -0.3062
 1325TIP3    H125466   1.081   1.626  16.952  0.2550 -1.5861  0.6966
 1325TIP3    H225467   1.213   1.682  16.903 -1.1127  1.1900  0.0151
 1326TIP3   OH225468   0.910   0.070   2.380 -0.0637 -0.1196 -0.2921
 1326TIP3    H125469   0.926   0.106   2.292 -0.6344  2.6576  0.6589
 1326TIP3    H225470   0.986   0.013   2.396  2.1479  2.3754 -1.1076
 1327TIP3   OH225471   0.280   1.474   2.566 -0.1124 -0.2566 -0.0682
 1327TIP3    H125472   0.186   1.470   2.585 -0.0658  0.1437  0.2613
 1327TIP3    H225473   0.294   1.406   2.501 -0.6511 -0.2561 -0.1916
 1328TIP3   OH225474   1.414   4.578  11.093  0.1732 -0.5640  0.3203
 1328TIP3    H125475   1.431   4.553  11.002  0.2648 -2.5275  0.8426
 1328TIP3    H225476   1.338   4.525  11.118 -2.3842  2.7356  0.2710
 1329TIP3   OH225477   6.357   1.892  15.694  0.4697 -0.8166  0.2468
 1329TIP3    H125478   6.301   1.818  15.670  0.0371  0.2425 -2.3598
 1329TIP3    H225479   6.330   1.915  15.783 -2.7765 -0.8542 -0.5943
 1330TIP3   OH225480   0.723   4.256  14.280 -0.2747  0.6475  0.4099
 1330TIP3    H125481   0.770   4.241  14.198 -0.6853  1.2424  0.0552
 1330TIP3    H225482   0.634   4.278  14.253 -0.6604 -0.0607  1.0570
 1331TIP3   OH225483   4.782   2.169   4.689 -0.4553 -0.1709 -0.1394
 1331TIP3    H125484   4.817   2.258   4.689 -0.9320  0.0310 -0.9214
 1331TIP3    H225485   4.842   2.119   4.634 -0.2130 -0.3244  0.2624
 1332TIP3   OH225486   1.385   5.647  17.162 -0.6749  0.3054  0.0053
 1332TIP3    H125487   1.359   5.596  17.085 -3.4566  0.4439  0.7470
 1332TIP3    H225488   1.419   5.729  17.125  1.5125 -1.0038 -1.1082
 1333TIP3   OH225489   4.853   4.268   4.790  0.7071 -0.3989  0.1437
 1333TIP3    H125490   4.772   4.250   4.742  0.7384  2.4216 -1.1426
 1333TIP3    H225491   4.906   4.319   4.729  1.9322  0.9497  2.2405
 1334TIP3   OH225492   0.911   1.467  12.951 -0.1900  0.3431  0.4262
 1334TIP3    H125493   0.893   1.541  12.893  1.9883  0.2821 -0.4132
 1334TIP3    H225494   0.997   1.486  12.989 -0.2129 -1.0849  1.2879
 1335TIP3   OH225495   1.753   6.604   0.234 -0.1742  0.2651  0.4777
 1335TIP3    H125496   1.702   6.614   0.314  1.7725 -0.1417  1.8487
 1335TIP3    H225497   1.806   6.526   0.249  0.2346  0.1772 -1.2206
 1336TIP3   OH225498   3.120   2.810  13.091  0.6229 -0.5115 -0.1564
 1336TIP3    H125499   3.067   2.828  13.014  1.1559  1.0547 -0.1958
 1336TIP3    H225500   3.210   2.813  13.059  0.7937 -2.6120  0.0119
 1337TIP3   OH225501   2.679   6.770   3.654 -0.1612 -0.1744  0.4304
 1337TIP3    H125502   2.611   6.716   3.695  0.1948  0.3294  1.7439
 1337TIP3    H225503   2.756   6.712   3.650  0.2343  0.2107  1.8793
 1338TIP3   OH225504   0.013   1.629  11.689  0.0403  0.0237 -0.7270
 1338TIP3    H125505   0.064   1.640  11.769 -3.3742 -0.0264  1.6642
 1338TIP3    H225506  -0.033   1.546  11.701 -2.1290  0.9894 -1.6897
 1339TIP3   OH225507   1.179   2.667  12.030 -0.5255 -0.3986 -0.2273
 1339TIP3    H125508   1.115   2.596  12.023 -0.4805 -0.5059  0.3384
 1339TIP3    H225509   1.173   2.694  12.122  1.6527 -1.7565  0.3768
 1340TIP3   OH225510   1.929   3.153  13.090  0.0574  0.1179  0.0290
 1340TIP3    H125511   1.965   3.177  13.175  0.0148  0.5030 -0.0613
 1340TIP3    H225512   1.951   3.060  13.080  1.1051  0.3622 -0.0554
 1341TIP3   OH225513   1.245   0.220   1.877 -0.1502  0.0605 -0.8174
 1341TIP3    H125514   1.157   0.184   1.863  0.8508 -1.9173 -2.5499
 1341TIP3    H225515   1.238   0.311   1.846 -1.9859  0.5113  0.7351
 1342TIP3   OH225516   1.761   5.178   0.306  0.5831 -0.8207  0.1082
 1342TIP3    H125517   1.772   5.234   0.382  0.1774  1.6415 -1.5486
 1342TIP3    H225518   1.682   5.211   0.263  1.3303 -1.5062 -1.8846
 1343TIP3   OH225519   0.225   1.556  15.671  0.1705  0.2061  0.1242
 1343TIP3    H125520   0.295   1.563  15.606 -0.4586 -2.0691 -0.9221
 1343TIP3    H225521   0.253   1.487  15.730 -1.1041 -0.6874 -0.2657
 1344TIP3   OH225522   4.026   0.213   5.167  0.5071  0.2351  0.1721
 1344TIP3    H125523   4.115   0.231   5.198  1.4728 -1.2839 -1.5094
 1344TIP3    H225524   3.974   0.201   5.247  2.3319 -1.1898  1.2144
 1345TIP3   OH225525   3.133   2.092   2.965  0.1783 -0.2663 -0.0819
 1345TIP3    H125526   3.176   2.041   3.033 -0.8873  0.6733  1.3692
 1345TIP3    H225527   3.201   2.150   2.931  1.3226 -2.3596 -1.5478
 1346TIP3   OH225528   5.512   5.719   3.527 -0.0187  0.2579 -0.7755
 1346TIP3    H125529   5.483   5.766   3.606  3.1722  1.8780 -0.3974
 1346TIP3    H225530   5.499   5.781   3.456 -0.6800 -0.3260 -1.1792
 1347TIP3   OH225531   6.735   1.031  14.506 -0.0262  0.0783  0.0383
 1347TIP3    H125532   6.796   1.103  14.519 -0.5273  0.4620  0.2799
 1347TIP3    H225533   6.768   0.985  14.429 -0.3645  1.2469 -0.8256
 1348TIP3   OH225534   2.653   3.197   0.471  0.0487  0.0701  0.2874
 1348TIP3    H125535   2.652   3.289   0.446  0.3468  0.2704  0.9956
 1348TIP3    H225536   2.730   3.161   0.425 -0.5017 -0.0132 -0.5990
 1349TIP3   OH225537   0.355   4.767  12.614 -0.4698 -0.5752  0.6189
 1349TIP3    H125538   0.413   4.758  12.689 -0.8550 -1.2596  0.8384
 1349TIP3    H225539   0.267   4.751  12.648 -0.8854  1.0431  0.4124
 1350TIP3   OH225540   0.415   1.088   4.952 -0.0862  0.0215 -0.0492
 1350TIP3    H125541   0.456   1.133   5.025  0.2005 -0.9011  0.3725
 1350TIP3    H225542   0.442   0.997   4.961 -0.5548 -0.2243 -0.9479
 1351TIP3   OH225543   3.883   0.850   1.412 -0.2405  0.3455  0.3954
 1351TIP3    H125544   3.824   0.846   1.337 -0.8075 -2.5170  0.8796
 1351TIP3    H225545   3.825   0.857   1.488  0.2720  1.8746  0.6708
 1352TIP3   OH225546   4.000   0.916  12.615 -0.3922 -0.0600  0.2213
 1352TIP3    H125547   3.917   0.882  12.650 -1.0744  0.3609 -0.9352
 1352TIP3    H225548   4.051   0.838  12.595 -1.2276 -0.3819 -0.7277
 1353TIP3   OH225549   3.419   5.974   1.007  0.2046  0.4059 -0.0453
 1353TIP3    H125550   3.507   5.970   1.045 -0.3019 -1.5613  1.1017
 1353TIP3    H225551   3.382   6.055   1.042  1.0558  0.4963  0.6956
 1354TIP3   OH225552   6.532   5.231  11.207 -0.3051  1.0333 -0.3476
 1354TIP3    H125553   6.445   5.203  11.180  0.4962  0.5998 -2.6767
 1354TIP3    H225554   6.559   5.167  11.273 -0.3971 -0.9650 -2.1441
 1355TIP3   OH225555   6.122   5.754  11.058  0.2372 -0.4202  0.2060
 1355TIP3    H125556   6.152   5.826  11.003  2.6969 -1.1035  0.5443
 1355TIP3    H225557   6.083   5.692  10.997  0.1354  0.1948 -0.3666
 1356TIP3   OH225558   0.119   1.764   3.151  0.2764  0.0449  0.4832
 1356TIP3    H125559   0.213   1.745   3.157 -0.2513 -2.7290  1.8583
 1356TIP3    H225560   0.105   1.834   3.215  1.4681  0.8196 -0.0770
 1357TIP3   OH225561   2.264   6.625  11.133  0.2876 -0.3947 -0.4379
 1357TIP3    H125562   2.264   6.721  11.138 -1.7350 -0.2374 -1.9704
 1357TIP3    H225563   2.319   6.605  11.056  1.1895 -0.5287  0.2254
 1358TIP3   OH225564   4.470   4.404   0.512 -0.6475 -0.0039  1.1937
 1358TIP3    H125565   4.503   4.316   0.494 -0.7469  0.4098 -1.3923
 1358TIP3    H225566   4.386   4.408   0.465 -0.0674  1.8228  0.1841
 1359TIP3   OH225567   5.828   1.240  12.994 -0.1336  0.1570  0.0188
 1359TIP3    H125568   5.838   1.229  13.089  0.7307  0.3611 -0.0350
 1359TIP3    H225569   5.866   1.161  12.956  0.5751  0.5920 -0.1867
 1360TIP3   OH225570   3.693   6.740   1.288 -0.0951  0.4523 -0.1036
 1360TIP3    H125571   3.662   6.747   1.198 -0.7962  3.0133  0.2703
 1360TIP3    H225572   3.758   6.809   1.297  0.5618 -0.2886  1.1551
 1361TIP3   OH225573   5.785   2.316  16.989  0.3925  0.5366  0.3026
 1361TIP3    H125574   5.806   2.402  16.953  2.3021  0.3686  0.8970
 1361TIP3    H225575   5.770   2.260  16.913  0.6388  1.0365 -0.1150
 1362TIP3   OH225576   6.816   0.040  12.694  0.0327 -0.2616  0.1143
 1362TIP3    H125577   6.837   0.126  12.728  1.8026 -0.4478 -0.3952
 1362TIP3    H225578   6.848  -0.021  12.760 -1.0275 -0.5538  0.3806
 1363TIP3   OH225579   2.839   5.764  10.812  0.4532  0.1597  0.0462
 1363TIP3    H125580   2.797   5.838  10.856  2.5480  2.8007 -1.9649
 1363TIP3    H225581   2.796   5.760  10.727  1.4364  0.1614 -0.4616
 1364TIP3   OH225582   3.696   5.684   3.496  0.2347  0.1787  0.1680
 1364TIP3    H125583   3.679   5.758   3.554 -0.9807  0.5454 -0.6168
 1364TIP3    H225584   3.617   5.677   3.442  2.1671  1.4067 -3.1061
 1365TIP3   OH225585   3.350   2.125  14.522 -0.0557  0.4613  0.1149
 1365TIP3    H125586   3.286   2.195  14.529  0.0950  0.7946 -1.5548
 1365TIP3    H225587   3.412   2.155  14.456  1.1257 -0.4060  0.7846
 1366TIP3   OH225588   5.961   5.811   4.646 -0.1547  0.4028 -0.6201
 1366TIP3    H125589   5.942   5.732   4.595  0.0903 -0.7111  0.9544
 1366TIP3    H225590   5.875   5.852   4.659 -0.8143 -1.4536  1.4215
 1367TIP3   OH225591   6.479   5.488   5.877  0.1193 -0.3055 -0.3195
 1367TIP3    H125592   6.403   5.436   5.854 -1.5926  1.7068  0.5086
 1367TIP3    H225593   6.554   5.429   5.863 -1.6008 -2.5778 -0.3978
 1368TIP3   OH225594   4.481   1.131   1.574 -0.7115  0.4066 -0.2287
 1368TIP3    H125595   4.530   1.194   1.627 -0.4190  0.7061 -0.8578
 1368TIP3    H225596   4.416   1.183   1.527 -0.5965  0.2183 -0.5999
 1369TIP3   OH225597   1.316   0.492  12.869  0.6828 -0.0358 -0.6505
 1369TIP3    H125598   1.412   0.491  12.867  0.6957  0.8242 -1.9846
 1369TIP3    H225599   1.290   0.448  12.788 -0.0856 -0.9282  0.0504
 1370TIP3   OH225600   0.348   0.366   1.376  0.0086  0.0747 -0.0177
 1370TIP3    H125601   0.281   0.394   1.313  1.0562  1.4807 -0.5647
 1370TIP3    H225602   0.348   0.434   1.443  1.2851  0.4244 -0.3445
 1371TIP3   OH225603   2.487   4.886   4.919 -0.1502 -0.2897 -0.0513
 1371TIP3    H125604   2.438   4.873   4.838 -2.7609  0.8998  1.2376
 1371TIP3    H225605   2.517   4.798   4.943 -1.4156 -1.0235 -1.0552
 1372TIP3   OH225606   6.104   3.831   5.489 -0.1366 -0.1195 -0.4464
 1372TIP3    H125607   6.063   3.784   5.562  1.3755  1.9095  1.8715
 1372TIP3    H225608   6.181   3.779   5.468 -0.1124 -0.2653 -0.0057
 1373TIP3   OH225609   0.157   2.262   5.987 -0.5058 -1.1336  0.4144
 1373TIP3    H125610   0.149   2.189   5.926  1.1996 -0.4979 -0.6313
 1373TIP3    H225611   0.189   2.222   6.068  2.3211 -1.4099 -0.7200
 1374TIP3   OH225612   5.268   2.520  13.746 -0.0989  0.4690  0.0691
 1374TIP3    H125613   5.285   2.615  13.743  0.0890  0.4582  0.6799
 1374TIP3    H225614   5.354   2.481  13.764 -0.2240  0.1947  0.0747
 1375TIP3   OH225615   1.182   4.308   6.574  0.1294  0.3581  0.6590
 1375TIP3    H125616   1.256   4.364   6.553 -0.5721  0.9763 -0.2658
 1375TIP3    H225617   1.121   4.366   6.620 -0.2537  0.1426  0.4278
 1376TIP3   OH225618   3.282   5.974  13.115  0.2411 -0.5591  0.2513
 1376TIP3    H125619   3.365   5.963  13.068 -0.1594  3.1909 -1.6878
 1376TIP3    H225620   3.229   5.900  13.086  1.9360 -1.4753 -0.7157
 1377TIP3   OH225621   3.580   1.327   3.519 -0.0889 -0.0749  0.5342
 1377TIP3    H125622   3.637   1.403   3.530 -0.3921  0.3935 -0.8932
 1377TIP3    H225623   3.637   1.258   3.486 -0.0936  0.0213  0.3168
 1378TIP3   OH225624   6.426   2.712  11.260 -0.0689  0.3449 -0.1078
 1378TIP3    H125625   6.356   2.649  11.279  0.4606  0.0731  1.0879
 1378TIP3    H225626   6.501   2.658  11.234  0.1012  0.5385 -0.0245
 1379TIP3   OH225627   2.345   3.659   1.357 -0.4992  0.1316 -0.7457
 1379TIP3    H125628   2.367   3.630   1.268  1.7347  1.1107 -0.5905
 1379TIP3    H225629   2.408   3.729   1.375 -0.2720 -0.6812  1.9633
 1380TIP3   OH225630   2.067   3.294   1.533  0.0401  1.3015 -0.6688
 1380TIP3    H125631   2.047   3.200   1.538 -1.4311  1.5885 -0.6055
 1380TIP3    H225632   2.101   3.316   1.619  0.3075  0.8392 -0.6530
 1381TIP3   OH225633   5.964   2.171   5.859 -0.1060  0.5047 -0.0239
 1381TIP3    H125634   5.910   2.244   5.890 -1.4426 -1.0850  1.5729
 1381TIP3    H225635   6.029   2.159   5.929  1.7242  1.6898 -1.4232
 1382TIP3   OH225636   2.012   4.934   3.386  0.4005 -0.3678  0.2015
 1382TIP3    H125637   1.953   5.008   3.374  0.4466 -0.3775 -0.0985
 1382TIP3    H225638   2.004   4.884   3.305 -0.1415 -1.0577  0.6717
 1383TIP3   OH225639   6.092   3.938   2.744  0.6144  0.4040  0.3979
 1383TIP3    H125640   6.082   3.845   2.722 -1.3146  0.2840  1.5358
 1383TIP3    H225641   6.022   3.955   2.808  0.3630  2.8591 -0.4344
 1384TIP3   OH225642   1.005   1.046  12.629  0.3710  0.0439 -0.0953
 1384TIP3    H125643   0.974   1.124  12.676  0.5313  0.0041  0.0748
 1384TIP3    H225644   0.957   0.974  12.669 -0.1808  0.1121 -0.6157
 1385TIP3   OH225645   2.548   3.818  15.738 -0.2087 -0.1894  0.3226
 1385TIP3    H125646   2.479   3.868  15.695  0.4069 -0.7774 -1.4073
 1385TIP3    H225647   2.554   3.737  15.689  1.4905 -0.2945  0.6379
 1386TIP3   OH225648   3.126   6.315   3.723  0.4922  0.0234  0.1402
 1386TIP3    H125649   3.036   6.312   3.690  0.7449  0.9082 -0.7094
 1386TIP3    H225650   3.179   6.276   3.653  0.6379 -1.8938  1.2703
 1387TIP3   OH225651   0.724   5.064  16.505  0.2886  0.4059  0.4176
 1387TIP3    H125652   0.755   4.978  16.533  0.9447  0.8406  1.0478
 1387TIP3    H225653   0.771   5.082  16.423  1.5286  0.9401  1.2233
 1388TIP3   OH225654   1.995   0.247   1.513 -0.4779  0.3693  0.3437
 1388TIP3    H125655   2.008   0.231   1.419 -0.8941  1.0569  0.1628
 1388TIP3    H225656   1.910   0.291   1.518 -0.0042  1.2492  0.9417
 1389TIP3   OH225657   0.713   4.280  10.398 -0.9095 -0.4152 -0.4117
 1389TIP3    H125658   0.806   4.271  10.380 -0.8229  1.7998 -1.4344
 1389TIP3    H225659   0.702   4.247  10.487  1.4053  1.9163  0.8775
 1390TIP3   OH225660   5.892   6.721  11.537 -0.4243  0.6831 -0.2244
 1390TIP3    H125661   5.822   6.767  11.584 -0.8056  0.3524 -0.4636
 1390TIP3    H225662   5.873   6.735  11.445  0.0063  0.8535 -0.2894
 1391TIP3   OH225663   4.174   0.346   0.953 -0.0062  0.4528 -0.0754
 1391TIP3    H125664   4.178   0.441   0.953 -1.2591  0.5296  1.2895
 1391TIP3    H225665   4.213   0.320   1.036  0.7266 -0.2710 -0.6254
 1392TIP3   OH225666   5.763   5.850   1.982 -0.0774 -0.3984  0.3588
 1392TIP3    H125667   5.782   5.765   1.942  2.0558  0.0841  0.2465
 1392TIP3    H225668   5.824   5.911   1.941 -1.2217  1.1153  0.8023
 1393TIP3   OH225669   4.285   4.731   4.907 -0.0865 -0.0590 -0.1007
 1393TIP3    H125670   4.191   4.745   4.896 -0.2292 -1.0486 -0.2289
 1393TIP3    H225671   4.317   4.710   4.819  0.0376 -0.9403  0.1510
 1394TIP3   OH225672   2.960   4.709  10.548 -0.0172 -0.7676 -0.0840
 1394TIP3    H125673   2.934   4.788  10.501  0.5817 -1.1061 -1.0212
 1394TIP3    H225674   2.986   4.740  10.635 -1.7091 -0.1996  0.2593
 1395TIP3   OH225675   4.070   3.373  16.344  0.2683  0.2363 -0.0529
 1395TIP3    H125676   4.061   3.344  16.253 -0.5551 -2.7477  0.8740
 1395TIP3    H225677   4.149   3.329  16.376  1.8228  2.9579  0.1896
 1396TIP3   OH225678   0.988   2.825   5.402  0.9288 -0.2312 -0.2472
 1396TIP3    H125679   0.980   2.828   5.497  1.4934 -0.4133 -0.1892
 1396TIP3    H225680   0.921   2.763   5.374  0.1230  0.5314 -0.0570
 1397TIP3   OH225681   4.335   6.357  12.393  0.0940  0.0469  0.3256
 1397TIP3    H125682   4.282   6.333  12.469 -0.3903  0.7424  0.2203
 1397TIP3    H225683   4.380   6.276  12.369 -1.6344 -0.8431 -0.1584
 1398TIP3   OH225684   6.406   6.120  15.305 -0.0265 -0.5020  0.3062
 1398TIP3    H125685   6.402   6.194  15.244 -1.2540 -0.9128 -0.1391
 1398TIP3    H225686   6.451   6.051  15.256 -0.1271 -0.5008  0.2103
 1399TIP3   OH225687   4.380   0.697   0.776 -0.2863 -0.0315  0.0471
 1399TIP3    H125688   4.301   0.751   0.763 -1.4507 -1.5055  0.6718
 1399TIP3    H225689   4.409   0.719   0.865  0.8204  1.4764 -0.6493
 1400TIP3   OH225690   2.321   2.147   0.533 -0.6401  0.4127 -0.3177
 1400TIP3    H125691   2.230   2.117   0.530 -0.6665  0.3908  0.4979
 1400TIP3    H225692   2.321   2.222   0.592  0.0891 -0.4409  0.8124
 1401TIP3   OH225693   2.143   1.143   3.328 -0.1192 -0.7791 -0.3948
 1401TIP3    H125694   2.174   1.057   3.301  1.3075 -0.2031 -0.7038
 1401TIP3    H225695   2.123   1.188   3.246  0.2597 -0.4298 -0.2982
 1402TIP3   OH225696   3.705   0.661   3.878 -0.0371  0.0585 -0.2939
 1402TIP3    H125697   3.619   0.619   3.890 -0.2264  0.7306  0.8501
 1402TIP3    H225698   3.689   0.729   3.812 -0.3311  0.0175 -0.2688
 1403TIP3   OH225699   0.825   4.830  16.954 -0.5890 -0.4598  0.1857
 1403TIP3    H125700   0.795   4.750  16.996 -0.4298 -0.8730 -0.4745
 1403TIP3    H225701   0.913   4.809  16.921 -1.2340 -0.5978 -1.5325
 1404TIP3   OH225702   4.044   6.374   3.196 -0.1767 -0.5323 -0.6981
 1404TIP3    H125703   3.975   6.347   3.256 -0.9234 -0.3400 -1.4384
 1404TIP3    H225704   3.997   6.412   3.121  0.7297 -0.4401 -1.2417
 1405TIP3   OH225705   2.975   1.630  12.024  1.2079 -0.2296 -0.1824
 1405TIP3    H125706   2.983   1.536  12.009  0.8873 -0.1375 -0.9898
 1405TIP3    H225707   3.066   1.661  12.028  1.3225 -0.6482  0.6652
 1406TIP3   OH225708   3.818   1.730   4.300  1.2338 -0.0023  0.4086
 1406TIP3    H125709   3.839   1.788   4.227  0.5300  2.0127  1.7366
 1406TIP3    H225710   3.890   1.743   4.362  2.3389 -2.4243 -0.2343
 1407TIP3   OH225711   3.724   0.875   1.637  0.7103 -0.1825 -0.5545
 1407TIP3    H125712   3.771   0.791   1.644  0.1146 -0.4740 -0.0164
 1407TIP3    H225713   3.634   0.851   1.618  0.2152  0.2738  1.1116
 1408TIP3   OH225714   1.794   5.719   2.344  0.1572  1.0030 -0.2317
 1408TIP3    H125715   1.845   5.711   2.425 -0.3580  0.6321  0.0570
 1408TIP3    H225716   1.843   5.668   2.280  0.7214  1.5320 -0.2342
 1409TIP3   OH225717   3.248   0.769  11.289 -0.4842  0.1611  0.4865
 1409TIP3    H125718   3.156   0.743  11.295 -0.7353 -0.0303 -2.5340
 1409TIP3    H225719   3.285   0.711  11.223  0.6785  2.8727 -1.4526
 1410TIP3   OH225720   0.015   3.844   6.266  0.2875 -0.5113  0.1052
 1410TIP3    H125721  -0.052   3.775   6.265 -0.2803  0.0185  0.4662
 1410TIP3    H225722  -0.018   3.911   6.207 -0.2448  0.4122  1.3960
 1411TIP3   OH225723   3.111   0.250   4.842  0.3476 -0.1436 -0.3130
 1411TIP3    H125724   3.168   0.305   4.894 -0.5376  0.5709 -0.0784
 1411TIP3    H225725   3.130   0.274   4.751 -2.1231  2.8094 -0.1946
 1412TIP3   OH225726   4.547   5.152   0.895  0.5690  0.2625  0.3806
 1412TIP3    H125727   4.542   5.124   0.986  0.0468 -0.1611  0.2246
 1412TIP3    H225728   4.630   5.118   0.864  0.8922  0.6690  0.7836
 1413TIP3   OH225729   3.695   3.027  14.889 -0.2447  0.6624 -0.4596
 1413TIP3    H125730   3.710   2.933  14.898  2.0509  0.7897 -2.0310
 1413TIP3    H225731   3.780   3.063  14.862 -1.4721  2.9315 -1.6779
 1414TIP3   OH225732   0.675   1.323  16.160  0.0914  0.4107  0.0391
 1414TIP3    H125733   0.752   1.266  16.152 -0.0453  0.2739 -0.2951
 1414TIP3    H225734   0.636   1.299  16.244 -0.1256 -0.1807 -0.2327
 1415TIP3   OH225735   5.035   6.540  12.715 -0.1803  0.4049 -0.2337
 1415TIP3    H125736   5.047   6.514  12.624 -0.5510 -0.1503 -0.1267
 1415TIP3    H225737   5.023   6.635  12.711 -1.7803  0.2034 -0.9360
 1416TIP3   OH225738   4.426   1.502   0.186 -0.1285  0.0028 -0.1191
 1416TIP3    H125739   4.338   1.540   0.191 -0.1309 -0.0548  0.2892
 1416TIP3    H225740   4.484   1.572   0.216 -0.1838 -0.4902  1.1951
 1417TIP3   OH225741   4.328   1.658   6.813  0.5156 -0.0443 -0.2281
 1417TIP3    H125742   4.415   1.652   6.774  0.7750  1.3368  0.0915
 1417TIP3    H225743   4.327   1.592   6.882  0.3376 -1.9577 -1.9697
 1418TIP3   OH225744   3.950   5.896   3.552 -0.7001  0.3276 -0.0277
 1418TIP3    H125745   3.953   5.923   3.644 -0.2433 -0.6357  0.2459
 1418TIP3    H225746   4.023   5.835   3.541 -1.0322  0.0630 -0.9109
 1419TIP3   OH225747   4.625   6.661  12.210 -0.2096  0.3856  0.1479
 1419TIP3    H125748   4.544   6.712  12.206 -1.0077 -0.8727 -0.5656
 1419TIP3    H225749   4.605   6.580  12.163  0.3552 -1.5029  2.9452
 1420TIP3   OH225750   0.306   3.429   0.128  0.1299  0.5272  0.0750
 1420TIP3    H125751   0.348   3.344   0.141 -1.6350 -0.2268  1.1810
 1420TIP3    H225752   0.318   3.447   0.035 -0.9074 -1.7828 -0.5872
 1421TIP3   OH225753   2.301   4.482   3.488 -0.0309 -0.4067  0.2858
 1421TIP3    H125754   2.290   4.554   3.551  0.9519  3.0652 -3.0789
 1421TIP3    H225755   2.387   4.445   3.508  0.7004  1.3017  0.4741
 1422TIP3   OH225756   1.936   5.506  13.010  0.8017  0.1812  0.1758
 1422TIP3    H125757   2.011   5.496  12.951  0.6960  1.3697 -0.1882
 1422TIP3    H225758   1.898   5.591  12.986 -1.1272 -0.7277 -0.1687
 1423TIP3   OH225759   3.191   3.610  10.714  0.0144 -0.7770  0.3975
 1423TIP3    H125760   3.111   3.559  10.720  0.7835 -1.9810  0.6632
 1423TIP3    H225761   3.256   3.560  10.762  0.6734  0.7348  1.1571
 1424TIP3   OH225762   4.854   0.608  11.987  0.0678 -0.1724  0.1587
 1424TIP3    H125763   4.903   0.526  11.995  0.4769  0.1273  0.7451
 1424TIP3    H225764   4.829   0.630  12.076  0.2052  0.4892  0.0410
 1425TIP3   OH225765   1.675   3.324  11.464 -0.2500 -0.0733  0.4687
 1425TIP3    H125766   1.592   3.358  11.497  0.5516  0.9097  1.5516
 1425TIP3    H225767   1.741   3.382  11.501  0.9775 -1.2396  0.1791
 1426TIP3   OH225768   1.199   5.332  13.522  0.1814  1.1823  0.2207
 1426TIP3    H125769   1.257   5.337  13.446 -1.0880  1.0308 -0.7989
 1426TIP3    H225770   1.185   5.423  13.548  1.1395  1.2028  0.7006
 1427TIP3   OH225771   0.072   0.610  11.657  0.3947 -0.1753 -0.7552
 1427TIP3    H125772   0.150   0.634  11.706  0.4958  1.7579 -1.7529
 1427TIP3    H225773   0.103   0.599  11.567 -0.4431  0.4773 -1.1378
 1428TIP3   OH225774   0.262   1.321   0.552  0.1637  0.2223 -0.2456
 1428TIP3    H125775   0.334   1.337   0.613 -1.3920 -0.8966  2.0624
 1428TIP3    H225776   0.190   1.291   0.608 -1.4473 -0.7514 -2.6679
 1429TIP3   OH225777   0.283   5.080   3.025 -0.9981 -0.0794  0.3995
 1429TIP3    H125778   0.241   4.994   3.020  0.1918 -0.6526 -0.0421
 1429TIP3    H225779   0.252   5.126   2.947  0.0154 -0.9019 -0.5226
 1430TIP3   OH225780   2.397   1.122   4.518  0.1612  0.4152 -0.4492
 1430TIP3    H125781   2.402   1.029   4.539 -0.7802  0.3848 -0.3527
 1430TIP3    H225782   2.484   1.156   4.539  0.7589 -0.5903 -1.2048
 1431TIP3   OH225783   5.611   0.935   2.448  0.5214  0.7852  0.5484
 1431TIP3    H125784   5.630   0.950   2.356 -1.3581 -0.6560 -0.1530
 1431TIP3    H225785   5.556   1.009   2.474 -0.6314  0.1905 -0.1084
 1432TIP3   OH225786   6.200   5.947   4.577 -0.2646 -0.1307 -0.1152
 1432TIP3    H125787   6.216   5.940   4.483  1.9820 -1.5034  0.3012
 1432TIP3    H225788   6.160   5.863   4.602 -0.7161  0.1675  0.1960
 1433TIP3   OH225789   3.101   1.432   4.597 -0.5447 -0.0708  0.0819
 1433TIP3    H125790   3.059   1.517   4.602 -1.0885 -0.1902 -1.7996
 1433TIP3    H225791   3.065   1.391   4.518 -0.4892 -2.1567  1.0520
 1434TIP3   OH225792   3.502   4.107   4.477  0.2281 -0.0981 -0.0623
 1434TIP3    H125793   3.425   4.162   4.463 -0.9174 -1.2317  1.3717
 1434TIP3    H225794   3.480   4.024   4.433  1.8769  0.4657 -2.1116
 1435TIP3   OH225795   5.425   4.340  16.216  0.2168  0.0602  0.0991
 1435TIP3    H125796   5.451   4.262  16.168 -0.1970  0.8331 -1.4474
 1435TIP3    H225797   5.480   4.409  16.180 -0.8968  0.8781 -0.0865
 1436TIP3   OH225798   3.890   2.020  12.653  0.2794 -0.6245 -0.0238
 1436TIP3    H125799   3.872   1.993  12.563 -2.7480  0.6185  0.1180
 1436TIP3    H225800   3.859   2.111  12.658 -0.0129 -0.7876  2.3666
 1437TIP3   OH225801   5.117   1.386  11.326  0.4070  0.5384 -0.1493
 1437TIP3    H125802   5.211   1.378  11.340  0.4023  0.9711  0.1512
 1437TIP3    H225803   5.088   1.450  11.391 -0.1515  0.1522 -0.0120
 1438TIP3   OH225804   5.014   1.167  11.474 -0.0071  0.2101  0.2268
 1438TIP3    H125805   4.965   1.105  11.419 -1.6155  0.8078  0.9054
 1438TIP3    H225806   5.039   1.238  11.415 -0.8919  0.3861  0.0410
 1439TIP3   OH225807   3.802   4.493   5.794 -0.0149  0.1011  0.0313
 1439TIP3    H125808   3.802   4.414   5.739  1.7799 -0.5983  0.9531
 1439TIP3    H225809   3.889   4.495   5.832 -0.2934  2.1398  0.6452
 1440TIP3   OH225810   2.663   6.294   4.374 -0.1034  0.9782 -0.2571
 1440TIP3    H125811   2.680   6.268   4.283 -0.8857  1.4357 -0.5416
 1440TIP3    H225812   2.741   6.267   4.422 -0.1155 -0.2056 -0.8803
 1441TIP3   OH225813   3.141   1.442  15.601 -0.2526 -0.2253  0.4635
 1441TIP3    H125814   3.163   1.352  15.625  0.0770  0.5221  3.2459
 1441TIP3    H225815   3.225   1.487  15.595 -0.5219  0.4147  1.3806
 1442TIP3   OH225816   4.368   5.267   4.195 -0.0282  0.1188  0.0133
 1442TIP3    H125817   4.304   5.321   4.242 -0.2959 -1.1590  1.1678
 1442TIP3    H225818   4.388   5.318   4.116 -1.5926  1.0810  0.1869
 1443TIP3   OH225819   2.174   6.402  15.763 -0.3790 -0.5235  0.1619
 1443TIP3    H125820   2.149   6.440  15.848  2.5625  1.7330  0.2006
 1443TIP3    H225821   2.106   6.433  15.702 -1.5824 -0.7145  1.3620
 1444TIP3   OH225822   2.760   2.165  10.725 -0.1943  0.1771  0.3584
 1444TIP3    H125823   2.687   2.187  10.783  0.4859  1.1342  0.8843
 1444TIP3    H225824   2.789   2.078  10.754 -0.9974 -0.1317  0.2599
 1445TIP3   OH225825   2.369   5.823  10.765  0.2037 -0.2887 -0.5436
 1445TIP3    H125826   2.300   5.760  10.746  0.8323 -0.7180 -1.4819
 1445TIP3    H225827   2.398   5.853  10.679  1.1393 -0.0625 -0.1595
 1446TIP3   OH225828   1.984   4.181   1.749  0.0275 -0.2116  0.8175
 1446TIP3    H125829   1.897   4.144   1.765 -0.4485  0.0736 -0.9684
 1446TIP3    H225830   1.967   4.267   1.712  1.0369 -0.6462 -0.7421
 1447TIP3   OH225831   0.728   2.958   3.476  0.2900  0.0828 -0.2439
 1447TIP3    H125832   0.638   2.985   3.491  0.2054 -0.5299  0.3828
 1447TIP3    H225833   0.724   2.908   3.394 -0.3960 -1.9924  0.9769
 1448TIP3   OH225834   6.490   2.488  12.055 -0.3602  0.5154 -0.3812
 1448TIP3    H125835   6.563   2.544  12.027  0.6803  0.2875  1.7037
 1448TIP3    H225836   6.482   2.423  11.985  1.8974  0.1611 -0.3983
 1449TIP3   OH225837   6.517   0.350  15.110  0.5733  0.1269  0.0803
 1449TIP3    H125838   6.561   0.405  15.174 -0.5485  2.1713 -0.8237
 1449TIP3    H225839   6.432   0.391  15.096 -0.0765 -1.4939 -1.1039
 1450TIP3   OH225840   0.656   3.866   4.883 -0.1387 -0.1266 -0.0459
 1450TIP3    H125841   0.708   3.857   4.963  0.0622 -0.7251 -0.2393
 1450TIP3    H225842   0.697   3.807   4.820 -0.7673 -0.2519 -0.3522
 1451TIP3   OH225843   6.159   2.288   3.723  0.6681 -0.6249  0.0914
 1451TIP3    H125844   6.114   2.346   3.784  0.8077 -0.1953 -0.2070
 1451TIP3    H225845   6.240   2.334   3.701 -0.3134  0.2388 -2.0175
 1452TIP3   OH225846   5.872   1.436   4.844  0.2948  0.2579 -0.0161
 1452TIP3    H125847   5.929   1.381   4.790  0.0229 -0.3000  0.2577
 1452TIP3    H225848   5.840   1.378   4.912 -2.4933 -0.1243 -1.4921
 1453TIP3   OH225849   6.375   6.791   0.400  0.0967  0.1935 -0.3573
 1453TIP3    H125850   6.309   6.722   0.392 -1.3346  1.6707 -2.0563
 1453TIP3    H225851   6.424   6.768   0.479 -0.6044 -2.5027 -0.6092
 1454TIP3   OH225852   3.621   5.628  14.085  0.2615  0.0312 -0.1430
 1454TIP3    H125853   3.539   5.655  14.125  1.2881  0.4101  1.8885
 1454TIP3    H225854   3.654   5.558  14.143  2.1898  1.1224  0.1717
 1455TIP3   OH225855   0.944   3.883  15.010  0.1987  0.2204  0.1198
 1455TIP3    H125856   0.907   3.967  14.981  0.7347  1.3294  2.4081
 1455TIP3    H225857   0.872   3.821  15.001 -0.7050  1.2667 -0.1298
 1456TIP3   OH225858   2.438   4.559  12.009 -0.4042 -0.6924  0.4140
 1456TIP3    H125859   2.428   4.554  12.104 -2.0122 -0.6128  0.2812
 1456TIP3    H225860   2.524   4.522  11.992  0.4490  0.4357  2.0014
 1457TIP3   OH225861   2.712   3.263  12.997  0.4599  0.3556 -0.0389
 1457TIP3    H125862   2.627   3.270  12.954  0.3077 -0.0188  0.1984
 1457TIP3    H225863   2.772   3.311  12.940  0.0394  0.8635 -0.0619
 1458TIP3   OH225864   4.466   2.925  16.474  0.2719  0.0761 -0.6511
 1458TIP3    H125865   4.443   2.844  16.520  0.6403  0.3653  0.0383
 1458TIP3    H225866   4.558   2.940  16.495  0.6951 -0.2345 -2.1520
 1459TIP3   OH225867   3.752   5.549   2.742 -0.0757  0.0061  0.0386
 1459TIP3    H125868   3.799   5.627   2.716 -0.4142 -0.2896 -1.5328
 1459TIP3    H225869   3.735   5.502   2.660 -1.4635 -0.8112  0.7533
 1460TIP3   OH225870   4.794   3.820  10.962  0.0393 -0.1279  0.0842
 1460TIP3    H125871   4.864   3.832  11.027 -0.2915 -1.1465  0.6497
 1460TIP3    H225872   4.752   3.905  10.957  0.9021  0.3229  0.2329
 1461TIP3   OH225873   0.191   1.825  11.177 -0.6129  0.2464 -0.2374
 1461TIP3    H125874   0.240   1.824  11.095 -0.7530 -0.1812 -0.3176
 1461TIP3    H225875   0.236   1.891  11.231 -1.6470  1.8895 -1.3201
 1462TIP3   OH225876   0.960   1.643  15.858  0.4574  0.2213  0.4252
 1462TIP3    H125877   0.941   1.737  15.859 -0.3383  0.0778 -0.3311
 1462TIP3    H225878   0.893   1.604  15.914 -0.1253 -0.0388 -0.4303
 1463TIP3   OH225879   2.104   6.434  12.782  0.0009  0.5203  0.5002
 1463TIP3    H125880   2.154   6.471  12.709  1.1562  1.0372  1.5144
 1463TIP3    H225881   2.170   6.392  12.837 -0.6444  1.3747  1.9777
 1464TIP3   OH225882   1.463   1.336  17.093 -0.6778  0.0510  0.1850
 1464TIP3    H125883   1.522   1.331  17.017 -2.4159 -0.3753 -1.1894
 1464TIP3    H225884   1.378   1.307  17.060 -1.7277  0.8066  2.0673
 1465TIP3   OH225885   0.622   6.047   3.307 -0.5011 -0.0433 -0.1786
 1465TIP3    H125886   0.636   6.079   3.396 -0.3180  0.8649 -0.5225
 1465TIP3    H225887   0.545   6.096   3.276 -0.3877 -0.1392 -0.6161
 1466TIP3   OH225888   3.519   0.198  12.911 -0.4637  0.4544  0.9554
 1466TIP3    H125889   3.527   0.285  12.951 -0.7429 -0.0009  2.0333
 1466TIP3    H225890   3.591   0.148  12.949  1.7361  1.0329 -2.0419
 1467TIP3   OH225891   4.993   1.493   4.471 -0.1727  0.3866 -0.2337
 1467TIP3    H125892   5.012   1.420   4.411 -0.0240 -0.1347  0.4426
 1467TIP3    H225893   5.051   1.564   4.441 -1.0362  0.5840 -1.5306
 1468TIP3   OH225894   5.271   0.153  14.927  0.4045  0.2436 -0.3676
 1468TIP3    H125895   5.334   0.224  14.910 -0.7607  1.2654 -0.5600
 1468TIP3    H225896   5.232   0.136  14.841  0.2880 -0.2634 -0.2143
 1469TIP3   OH225897   0.005   4.527   5.716 -0.1842 -0.3785  0.4836
 1469TIP3    H125898  -0.083   4.523   5.679 -0.2897  0.7292  0.6021
 1469TIP3    H225899   0.004   4.462   5.786 -0.4757 -1.3438 -0.3788
 1470TIP3   OH225900   4.171   1.100   1.930 -0.0585  0.0623 -0.1201
 1470TIP3    H125901   4.088   1.138   1.959  0.4355  2.4788 -1.6330
 1470TIP3    H225902   4.161   1.090   1.835  0.6200 -1.7510 -0.0491
 1471TIP3   OH225903   4.269   5.304  13.116 -0.4983 -0.6235  0.0282
 1471TIP3    H125904   4.327   5.294  13.040  0.2957  1.6292  0.2569
 1471TIP3    H225905   4.191   5.346  13.081  0.1614  1.0910  0.4998
 1472TIP3   OH225906   4.342   4.010   6.005  0.2904  0.1889 -0.2956
 1472TIP3    H125907   4.251   3.984   6.020  0.2254  0.3480 -0.4177
 1472TIP3    H225908   4.360   4.076   6.072 -0.4154  1.8918 -1.7197
 1473TIP3   OH225909   1.390   3.432  16.992  0.3243 -0.5265 -0.4705
 1473TIP3    H125910   1.386   3.521  16.958 -0.9964  0.5531  2.2200
 1473TIP3    H225911   1.358   3.377  16.920  1.3970  1.1001 -2.2598
 1474TIP3   OH225912   0.244   5.851  15.199  0.3285 -0.2522  0.1253
 1474TIP3    H125913   0.163   5.848  15.149 -0.7151 -1.3430  1.8020
 1474TIP3    H225914   0.299   5.914  15.152 -0.5703 -1.2100 -2.3737
 1475TIP3   OH225915   3.800   0.020  16.394  0.6722  0.0042 -0.1526
 1475TIP3    H125916   3.887   0.050  16.421  1.0779  0.7837 -2.1608
 1475TIP3    H225917   3.771  -0.038  16.465  2.5636  0.2033  0.8353
 1476TIP3   OH225918   1.722   4.484   0.432 -0.0272 -0.1813  0.0630
 1476TIP3    H125919   1.756   4.505   0.519 -0.1599  1.2733 -0.2013
 1476TIP3    H225920   1.798   4.496   0.374  0.7627 -3.6325  0.2043
 1477TIP3   OH225921   0.599   2.365   4.705 -0.2508  0.7325  0.5350
 1477TIP3    H125922   0.608   2.361   4.610 -0.1869  1.1821  0.5173
 1477TIP3    H225923   0.658   2.436   4.732  0.2656  0.1358  0.9901
 1478TIP3   OH225924   4.394   3.189   4.562 -0.1134  0.5309 -0.6345
 1478TIP3    H125925   4.300   3.202   4.576 -0.2671 -1.5000  0.5311
 1478TIP3    H225926   4.401   3.156   4.473 -0.5444  0.2454 -0.5631
 1479TIP3   OH225927   6.792   3.802   2.333  0.4254 -0.3489 -0.4537
 1479TIP3    H125928   6.699   3.779   2.332  1.0046 -3.1167  0.7274
 1479TIP3    H225929   6.800   3.868   2.402 -0.5196 -0.8974  0.2065
 1480TIP3   OH225930   6.256   0.096   5.347  0.3119  0.0111 -0.4821
 1480TIP3    H125931   6.214   0.125   5.427  0.7282 -0.9378  0.1015
 1480TIP3    H225932   6.227   0.005   5.336  2.8715 -1.0392  0.4832
 1481TIP3   OH225933   4.391   4.166  12.551  0.0299 -0.8161  0.5229
 1481TIP3    H125934   4.434   4.080  12.549  3.4567  0.7501 -0.8748
 1481TIP3    H225935   4.322   4.159  12.485  1.4890 -1.9900 -0.9741
 1482TIP3   OH225936   6.466   4.342  13.516  0.3862  0.3883  0.1687
 1482TIP3    H125937   6.478   4.429  13.554  2.2910 -0.3618  1.4275
 1482TIP3    H225938   6.523   4.341  13.439 -0.6722  0.6778 -0.6399
 1483TIP3   OH225939   6.367   0.418   3.219  0.4250 -0.2577 -0.3942
 1483TIP3    H125940   6.282   0.402   3.178  0.3936 -1.0077 -0.0485
 1483TIP3    H225941   6.402   0.331   3.237  1.1099  0.0499 -0.2109
 1484TIP3   OH225942   2.143   5.814   2.152  0.0473  0.0922  0.0248
 1484TIP3    H125943   2.110   5.725   2.164 -0.4616  0.0165 -1.7531
 1484TIP3    H225944   2.228   5.803   2.109  0.9907  0.4295  1.6676
 1485TIP3   OH225945   6.537   0.025  10.588 -0.1809  0.2769  0.2077
 1485TIP3    H125946   6.442   0.014  10.586 -0.3042  0.7109  1.9854
 1485TIP3    H225947   6.550   0.117  10.611  0.7248  0.9047 -2.4740
 1486TIP3   OH225948   1.605   2.817  16.195 -0.2252  0.0073  0.4615
 1486TIP3    H125949   1.660   2.855  16.264 -0.1997 -2.6021  2.0638
 1486TIP3    H225950   1.520   2.859  16.205 -0.1190 -0.0799  1.9063
 1487TIP3   OH225951   0.291   3.604  10.671  0.0431 -0.5589 -0.1035
 1487TIP3    H125952   0.378   3.576  10.641 -0.2710 -0.3445 -1.2351
 1487TIP3    H225953   0.230   3.549  10.623 -0.5654  1.5748 -1.9240
 1488TIP3   OH225954   5.501   1.683   5.063 -0.1045  0.2947  0.0126
 1488TIP3    H125955   5.574   1.653   5.117  0.2863  1.6701  0.2950
 1488TIP3    H225956   5.425   1.636   5.098  0.7959 -2.2977 -1.2494
 1489TIP3   OH225957   2.965   2.568   4.785  0.8494 -0.4666 -0.1075
 1489TIP3    H125958   2.984   2.474   4.784  0.3901 -0.5640  0.1462
 1489TIP3    H225959   3.005   2.600   4.866 -0.7115 -0.8171  0.8373
 1490TIP3   OH225960   3.217   2.354  14.421 -0.2060 -0.4188  0.5116
 1490TIP3    H125961   3.287   2.397  14.470 -1.1989  0.9481  0.7976
 1490TIP3    H225962   3.251   2.344  14.333  0.0720  0.9906  0.4384
 1491TIP3   OH225963   0.054   0.899  11.788 -0.5246 -0.1982  0.1488
 1491TIP3    H125964   0.014   0.818  11.758  1.0118 -0.7921 -0.3709
 1491TIP3    H225965   0.076   0.946  11.708  0.5273 -0.2517  0.3949
 1492TIP3   OH225966   3.040   5.016   2.121 -0.8391 -0.2132  0.0723
 1492TIP3    H125967   2.994   5.030   2.203  0.7473  1.5193  0.7369
 1492TIP3    H225968   3.034   5.100   2.075 -0.0054 -0.5321 -0.6523
 1493TIP3   OH225969   4.935   1.524  12.426 -0.1602 -0.0546  0.7003
 1493TIP3    H125970   5.020   1.480  12.422 -0.6051 -0.9566  0.9258
 1493TIP3    H225971   4.952   1.613  12.394  0.6309 -0.5700 -0.3491
 1494TIP3   OH225972   2.807   3.392   5.478  0.7687 -0.4197  0.7394
 1494TIP3    H125973   2.779   3.462   5.536 -1.2747  0.4716 -1.1714
 1494TIP3    H225974   2.853   3.437   5.407 -2.0738 -0.6557 -1.4200
 1495TIP3   OH225975   1.626   1.607  13.894  0.2109 -0.4064 -0.3786
 1495TIP3    H125976   1.639   1.516  13.922  1.1549 -1.0293 -2.6041
 1495TIP3    H225977   1.702   1.653  13.930  0.6416 -0.8766 -0.6604
 1496TIP3   OH225978   5.719   2.387   0.482  0.4909  0.6140  0.1361
 1496TIP3    H125979   5.799   2.436   0.504  2.5145 -2.2284 -0.3405
 1496TIP3    H225980   5.695   2.343   0.563  1.4975 -1.1871 -0.4703
 1497TIP3   OH225981   4.345   4.628   0.741  0.0331 -0.2641  0.1499
 1497TIP3    H125982   4.391   4.563   0.793 -0.6289 -0.3252  0.6825
 1497TIP3    H225983   4.318   4.582   0.662 -1.0562 -0.8493  0.8445
 1498TIP3   OH225984   3.751   0.877  11.411  0.2075  0.9488  0.2992
 1498TIP3    H125985   3.835   0.917  11.387  0.0578  0.3510 -1.3256
 1498TIP3    H225986   3.703   0.870  11.328 -0.9103  0.0406  0.9941
 1499TIP3   OH225987   1.084   1.594   5.518 -0.2027  0.3833 -0.0036
 1499TIP3    H125988   1.178   1.592   5.536  0.0231 -0.2421 -1.1518
 1499TIP3    H225989   1.043   1.587   5.604  0.8111 -0.3886  0.4343
 1500TIP3   OH225990   0.345   3.779   2.205 -0.4443 -0.3663  0.2287
 1500TIP3    H125991   0.317   3.746   2.291 -2.4141  0.2261 -0.1297
 1500TIP3    H225992   0.343   3.875   2.215  2.1016 -0.2425  0.3105
 1501TIP3   OH225993   3.896   5.202   3.070 -0.4997 -0.0344 -0.2507
 1501TIP3    H125994   3.904   5.213   3.164  0.6709 -0.5458 -0.2799
 1501TIP3    H225995   3.805   5.175   3.056  0.1692 -3.3622  1.0736
 1502TIP3   OH225996   1.645   4.975  16.504  0.2381 -0.2014 -1.0478
 1502TIP3    H125997   1.664   5.025  16.583  0.5655 -2.0332  0.0835
 1502TIP3    H225998   1.567   5.017  16.467 -1.5649 -0.8818  1.6978
 1503TIP3   OH225999   5.664   5.959  15.887  0.0889  0.6792  0.3951
 1503TIP3    H126000   5.666   5.948  15.982 -0.3187 -2.0196  0.1788
 1503TIP3    H226001   5.576   5.932  15.862 -0.5969  3.5386 -0.6209
 1504TIP3   OH226002   5.801   2.399  12.351  0.0958  1.0393  0.3390
 1504TIP3    H126003   5.790   2.492  12.371 -0.4485  0.8200  1.1130
 1504TIP3    H226004   5.833   2.360  12.432  0.0224  0.4942  0.1132
 1505TIP3   OH226005   5.130   5.394  11.665 -0.2597  0.0567  0.2236
 1505TIP3    H126006   5.113   5.406  11.572  0.2578 -4.5945 -0.7215
 1505TIP3    H226007   5.048   5.357  11.699 -0.0697  0.6915  1.4178
 1506TIP3   OH226008   0.715   0.848   5.108 -0.1587 -0.4098  0.6708
 1506TIP3    H126009   0.796   0.849   5.160  0.2043  1.2396  0.1585
 1506TIP3    H226010   0.652   0.895   5.162 -0.6391 -1.2242  0.8352
 1507TIP3   OH226011   0.803   2.133   6.848 -0.1403  0.0350 -0.5746
 1507TIP3    H126012   0.722   2.177   6.822 -1.2794 -1.0183  1.0185
 1507TIP3    H226013   0.801   2.051   6.798 -0.1150 -0.0399 -0.4521
 1508TIP3   OH226014   2.247   5.720  14.942 -0.2430  0.4902  0.2160
 1508TIP3    H126015   2.290   5.804  14.926  1.5763 -0.5496 -0.7098
 1508TIP3    H226016   2.153   5.739  14.933  0.1066  2.4229  0.1764
 1509TIP3   OH226017   3.914   0.645  13.594 -0.0298 -0.3124 -0.1667
 1509TIP3    H126018   3.974   0.614  13.662 -1.8478 -1.4975  1.0080
 1509TIP3    H226019   3.956   0.621  13.512 -0.1984 -3.9500  0.6459
 1510TIP3   OH226020   1.142   0.381   5.052  0.3333 -0.0200  0.1772
 1510TIP3    H126021   1.080   0.421   5.113 -0.1142 -1.3172  0.6230
 1510TIP3    H226022   1.110   0.291   5.042  1.5574 -0.4127 -0.3885
 1511TIP3   OH226023   3.178   3.112  13.523 -0.6014 -0.1488 -0.0008
 1511TIP3    H126024   3.125   3.115  13.443 -0.9884  2.1762  0.2887
 1511TIP3    H226025   3.268   3.107  13.491 -0.7363  0.9916 -0.6071
 1512TIP3   OH226026   1.811   3.086   0.319  0.5951  0.3889 -0.1425
 1512TIP3    H126027   1.863   3.164   0.342  0.3998  0.0512  1.6429
 1512TIP3    H226028   1.811   3.084   0.224  2.7838  1.1185 -0.2165
 1513TIP3   OH226029   0.555   0.500   4.286  0.0750  0.4475  0.1341
 1513TIP3    H126030   0.613   0.494   4.361  0.2578 -0.4532 -0.0685
 1513TIP3    H226031   0.572   0.587   4.249  1.3390  0.1862  0.0488
 1514TIP3   OH226032   0.701   3.905   5.742 -0.4924 -0.6803 -0.6589
 1514TIP3    H126033   0.672   3.871   5.826  0.0209  0.5977  0.0671
 1514TIP3    H226034   0.620   3.926   5.695 -0.8032  1.1232  0.6076
 1515TIP3   OH226035   3.612   2.352   3.438 -0.0197  0.4096  0.5094
 1515TIP3    H126036   3.661   2.289   3.384 -0.8981  0.2993 -0.1833
 1515TIP3    H226037   3.672   2.375   3.509  1.0448  0.3014 -0.3322
 1516TIP3   OH226038   2.093   5.390  11.310  0.1126  0.6055 -0.3460
 1516TIP3    H126039   2.133   5.475  11.293  1.2174  0.2441  0.3001
 1516TIP3    H226040   2.122   5.368  11.399  1.2115 -1.1738 -1.0906
 1517TIP3   OH226041   2.952   0.626  11.244 -0.4220  0.3330 -0.0319
 1517TIP3    H126042   3.022   0.577  11.202 -2.5050 -2.9844 -0.0271
 1517TIP3    H226043   2.912   0.676  11.172  0.1157 -0.0725 -0.6258
 1518TIP3   OH226044   2.285   0.957  12.679  0.0816  0.3832 -0.6685
 1518TIP3    H126045   2.192   0.934  12.674  0.2083 -0.0492 -1.1430
 1518TIP3    H226046   2.326   0.902  12.613  0.7860  0.0070  0.0714
 1519TIP3   OH226047   0.209   3.586   3.949  0.1782  0.4053  0.2436
 1519TIP3    H126048   0.148   3.651   3.982 -1.2786 -0.1661 -1.2069
 1519TIP3    H226049   0.237   3.619   3.864  0.9834  0.0797  0.3673
 1520TIP3   OH226050   4.099   5.040   4.022 -0.1378  0.1275 -0.2635
 1520TIP3    H126051   4.125   5.052   4.113  0.3762 -0.9084 -0.2579
 1520TIP3    H226052   4.178   5.059   3.971 -1.0036  3.0428 -0.7073
 1521TIP3   OH226053   1.025   5.853   5.257 -0.1113 -0.0690 -0.3483
 1521TIP3    H126054   0.974   5.809   5.189 -1.9318 -0.4882  1.2213
 1521TIP3    H226055   0.961   5.902   5.308  1.5127  2.4576 -0.4903
 1522TIP3   OH226056   0.010   5.060   6.752  0.0766 -0.7840 -0.2060
 1522TIP3    H126057   0.022   5.041   6.845  0.9924  0.3572 -0.0663
 1522TIP3    H226058   0.068   4.998   6.707 -0.1696 -1.1601 -0.0135
 1523TIP3   OH226059   1.079   4.841  13.501 -0.3502 -0.0384 -0.1734
 1523TIP3    H126060   1.093   4.933  13.480  2.1511 -0.4311 -0.5572
 1523TIP3    H226061   1.140   4.823  13.573  0.7202 -1.8400 -1.4358
 1524TIP3   OH226062   6.338   0.561   2.535  0.0499  0.3028 -0.0989
 1524TIP3    H126063   6.366   0.651   2.519  1.2116 -0.3823 -2.5177
 1524TIP3    H226064   6.419   0.510   2.532 -0.5984 -0.8497  1.1285
 1525TIP3   OH226065   5.509   4.904   4.867  0.0828  0.2842  0.3671
 1525TIP3    H126066   5.506   4.831   4.928  0.2684  0.6371  0.7958
 1525TIP3    H226067   5.448   4.968   4.903 -1.9635 -0.6175 -1.2587
 1526TIP3   OH226068   4.864   4.879   4.606 -1.0697  0.0705  0.0218
 1526TIP3    H126069   4.951   4.850   4.579 -1.6879 -0.6101 -1.3467
 1526TIP3    H226070   4.827   4.805   4.653 -1.2804 -0.0094 -0.2685
 1527TIP3   OH226071   1.277   6.182  16.668  0.0759  0.3302 -0.5607
 1527TIP3    H126072   1.338   6.178  16.594  0.6515 -1.5956 -0.0448
 1527TIP3    H226073   1.208   6.119  16.647 -0.0896  0.2285  0.2343
 1528TIP3   OH226074   2.025   0.371  13.409  0.1581 -0.1422 -0.0513
 1528TIP3    H126075   1.986   0.319  13.479  2.3267 -1.5208  0.2323
 1528TIP3    H226076   1.952   0.419  13.371 -1.6140 -1.8355  1.0383
 1529TIP3   OH226077   3.689   0.461  11.505 -0.1038  0.1477  0.1966
 1529TIP3    H126078   3.682   0.419  11.419 -1.3942  0.3376  0.1871
 1529TIP3    H226079   3.714   0.389  11.564 -0.7665 -0.3318 -0.0850
 1530TIP3   OH226080   3.261   5.511  16.770 -0.0835 -0.1519 -0.3848
 1530TIP3    H126081   3.264   5.416  16.766 -1.4865 -0.1953 -0.8338
 1530TIP3    H226082   3.275   5.540  16.680  1.1047  0.1139 -0.1310
 1531TIP3   OH226083   5.413   6.010  12.636  0.0049  0.0286 -0.5263
 1531TIP3    H126084   5.395   6.034  12.727 -0.3001  0.7454 -0.7693
 1531TIP3    H226085   5.492   5.956  12.641 -0.7240 -1.0119  0.2898
 1532TIP3   OH226086   3.647   5.141  12.830 -0.5569  0.1174  0.1635
 1532TIP3    H126087   3.634   5.094  12.747  0.0126  1.2617 -0.6031
 1532TIP3    H226088   3.586   5.100  12.891 -1.3690 -0.3996 -0.9716
 1533TIP3   OH226089   2.902   3.188  15.795  0.0643  0.2265 -0.4568
 1533TIP3    H126090   2.868   3.260  15.741 -1.5333  0.0019  0.1946
 1533TIP3    H226091   2.993   3.212  15.812 -0.1905  1.6670 -0.9604
 1534TIP3   OH226092   5.851   2.553  11.239 -0.0890  0.3467 -0.2549
 1534TIP3    H126093   5.929   2.598  11.205  2.3632 -1.1101  2.8686
 1534TIP3    H226094   5.809   2.618  11.296  1.5626 -0.1506  1.6414
 1535TIP3   OH226095   1.866   5.302  14.277 -0.0387  0.2277  0.0695
 1535TIP3    H126096   1.912   5.260  14.204 -0.4159 -1.4005  0.7322
 1535TIP3    H226097   1.817   5.373  14.236 -0.0951 -0.5284 -1.2370
 1536TIP3   OH226098   5.492   0.076   2.808  0.4836 -0.0351 -0.5040
 1536TIP3    H126099   5.532   0.026   2.737 -0.7366 -1.3307 -0.3270
 1536TIP3    H226100   5.422   0.125   2.766  0.8643  0.5528 -0.4640
 1537TIP3   OH226101   2.550   6.374   4.992 -0.2009  0.1294  0.1794
 1537TIP3    H126102   2.533   6.366   5.086  0.3067  0.7559  0.3325
 1537TIP3    H226103   2.592   6.459   4.983 -1.6254  0.7500 -0.8251
 1538TIP3   OH226104   3.715   1.737   0.511  0.1663  0.1293 -0.0720
 1538TIP3    H126105   3.726   1.648   0.544 -0.8886 -0.1308 -0.3878
 1538TIP3    H226106   3.733   1.730   0.417 -1.4755 -0.0820 -0.3892
 1539TIP3   OH226107   5.794   4.252  16.874 -0.3125 -0.3456 -0.7792
 1539TIP3    H126108   5.809   4.165  16.911  1.4312  0.4955  0.6355
 1539TIP3    H226109   5.713   4.282  16.916  0.6720 -0.1326  1.0762
 1540TIP3   OH226110   3.579   4.772   1.276  0.2920 -0.0482 -0.2993
 1540TIP3    H126111   3.514   4.763   1.206  0.4952  0.1495 -0.5144
 1540TIP3    H226112   3.657   4.804   1.232 -0.1617  2.0122  0.3075
 1541TIP3   OH226113   0.157   1.918  16.338 -0.2589 -0.8203 -0.1602
 1541TIP3    H126114   0.209   1.886  16.264 -1.0360 -1.4261 -0.4681
 1541TIP3    H226115   0.101   1.985  16.300  1.4088  1.0272  0.4962
 1542TIP3   OH226116   1.727   3.725   3.841 -0.2964 -0.0268  0.4604
 1542TIP3    H126117   1.667   3.655   3.866 -1.3320  1.7587  3.5998
 1542TIP3    H226118   1.775   3.745   3.921  3.0133  0.1676 -1.3683
 1543TIP3   OH226119   2.348   3.711   1.758 -0.3890  0.5137 -0.5309
 1543TIP3    H126120   2.260   3.727   1.793  0.3831  1.8852  0.8799
 1543TIP3    H226121   2.407   3.744   1.825  1.2226 -0.0875 -1.6022
 1544TIP3   OH226122   0.360   4.179  11.217  0.6149 -0.2269  0.6392
 1544TIP3    H126123   0.390   4.192  11.307  1.3925 -0.6903  0.4549
 1544TIP3    H226124   0.270   4.210  11.217 -0.1410 -2.2355  2.1303
 1545TIP3   OH226125   6.252   3.632   3.091 -0.2661  0.5192  0.7487
 1545TIP3    H126126   6.239   3.569   3.021  0.7489  1.3418 -0.2122
 1545TIP3    H226127   6.342   3.663   3.079 -0.3945  1.3820  1.8339
 1546TIP3   OH226128   1.571   5.157   2.436  0.0282  0.2313 -0.2957
 1546TIP3    H126129   1.516   5.191   2.366 -1.8950  1.6377  1.7304
 1546TIP3    H226130   1.615   5.235   2.471  1.8872 -0.6128 -0.6550
 1547TIP3   OH226131   3.914   3.924   4.902 -0.0809  0.4548  0.6540
 1547TIP3    H126132   3.967   3.866   4.955  0.5823  0.2476 -0.2088
 1547TIP3    H226133   3.850   3.867   4.859  1.7045 -0.0132 -1.6212
 1548TIP3   OH226134   2.042   2.038  11.150  0.3746  0.2827 -0.5513
 1548TIP3    H126135   1.969   2.067  11.204 -0.3591  0.7165 -1.7300
 1548TIP3    H226136   2.006   2.033  11.061  1.2975 -1.3180 -0.8707
 1549TIP3   OH226137   4.397   5.382  13.749 -0.0817  0.0012 -0.5134
 1549TIP3    H126138   4.469   5.421  13.798 -0.5315  1.8046 -1.2073
 1549TIP3    H226139   4.320   5.435  13.773 -1.3132 -2.1158  0.5332
 1550TIP3   OH226140   6.618   2.891  12.463  0.1439 -0.1509  0.0812
 1550TIP3    H126141   6.623   2.808  12.509  3.0201 -0.4039 -0.4970
 1550TIP3    H226142   6.572   2.871  12.381  0.8130 -1.2016 -0.0568
 1551TIP3   OH226143   6.683   0.035  11.930 -0.0353  0.2602  0.0540
 1551TIP3    H126144   6.673   0.045  12.025  1.8668  0.1337  0.3082
 1551TIP3    H226145   6.737   0.110  11.904  2.0076 -1.2743 -0.3991
 1552TIP3   OH226146   3.632   4.146  11.605 -0.4554 -0.0125  0.2577
 1552TIP3    H126147   3.673   4.061  11.593  1.0638  0.7978 -0.6003
 1552TIP3    H226148   3.652   4.194  11.524 -2.5565  0.6723  0.0783
 1553TIP3   OH226149   1.146   4.871   3.485 -0.3796  0.1963  0.0418
 1553TIP3    H126150   1.218   4.809   3.480 -0.8207 -0.3105 -0.1071
 1553TIP3    H226151   1.187   4.954   3.511  0.1980 -0.1775  0.3283
 1554TIP3   OH226152   4.588   4.687  11.900  0.3148  0.5283 -0.4814
 1554TIP3    H126153   4.516   4.625  11.914  1.4144 -1.0001 -1.3110
 1554TIP3    H226154   4.545   4.766  11.866 -0.9346 -0.5872 -1.6444
 1555TIP3   OH226155   2.095   5.378  15.231  0.3330  0.0490  0.1764
 1555TIP3    H126156   2.055   5.461  15.208  0.7554  0.2382  0.1224
 1555TIP3    H226157   2.106   5.382  15.326 -1.6725 -0.8453  0.5232
 1556TIP3   OH226158   1.014   3.405   2.886  0.2262  0.4864  0.2475
 1556TIP3    H126159   1.046   3.393   2.975 -3.0885 -1.1282  1.3930
 1556TIP3    H226160   0.930   3.451   2.896  1.2995  3.3603 -2.3907
 1557TIP3   OH226161   1.663   5.636  13.867  0.4963 -0.3203  0.0889
 1557TIP3    H126162   1.655   5.619  13.961 -0.5654 -1.6609 -0.2229
 1557TIP3    H226163   1.684   5.730  13.862  1.3778 -0.3910  1.6777
 1558TIP3   OH226164   5.026   6.738  14.534  0.0027 -0.2484 -0.5300
 1558TIP3    H126165   4.988   6.650  14.545 -0.5071  0.3260  3.7101
 1558TIP3    H226166   4.972   6.778  14.465 -3.6393 -1.3868  1.3907
 1559TIP3   OH226167   0.598   1.025  13.611 -0.2904 -0.4888  0.2222
 1559TIP3    H126168   0.506   1.017  13.635 -0.3833 -0.7795 -0.2173
 1559TIP3    H226169   0.598   1.077  13.531  0.0038  0.3288  0.7396
 1560TIP3   OH226170   4.553   1.602   6.658 -0.4888  0.2676 -0.1181
 1560TIP3    H126171   4.639   1.569   6.686 -0.4669 -0.3049 -0.8029
 1560TIP3    H226172   4.558   1.600   6.562 -1.1737  0.4891 -0.1584
 1561TIP3   OH226173   0.754   4.937   5.069  0.0596  0.1254 -0.0219
 1561TIP3    H126174   0.674   4.900   5.034 -0.2090 -0.3377  1.0545
 1561TIP3    H226175   0.778   4.880   5.142 -0.3929  2.0455  1.7186
 1562TIP3   OH226176   6.338   2.294  13.645  0.4199  0.1746 -0.2856
 1562TIP3    H126177   6.310   2.229  13.580  0.1198 -0.1111  0.1238
 1562TIP3    H226178   6.278   2.282  13.719 -0.4211  1.7408 -0.6770
 1563TIP3   OH226179   4.380   0.402   2.510  0.0770  0.0424 -0.3692
 1563TIP3    H126180   4.383   0.383   2.604  0.3538  0.0997 -0.3643
 1563TIP3    H226181   4.332   0.329   2.472  0.6976 -0.4228 -0.2856
 1564TIP3   OH226182   1.521   3.636  13.103  0.3348 -0.3860 -0.1197
 1564TIP3    H126183   1.508   3.638  13.197  1.5787  0.1383  0.0595
 1564TIP3    H226184   1.440   3.674  13.067 -0.3064 -0.9310  0.6921
 1565TIP3   OH226185   3.989   4.618   6.329  0.2191 -0.5644 -0.1951
 1565TIP3    H126186   3.907   4.652   6.365 -0.0307 -0.5470 -0.7689
 1565TIP3    H226187   3.967   4.590   6.240  0.6946 -1.1381 -0.1426
 1566TIP3   OH226188   0.706   0.782  15.387  0.1194  0.0345 -0.4147
 1566TIP3    H126189   0.721   0.756  15.296  0.6748 -0.5044 -0.1780
 1566TIP3    H226190   0.636   0.725  15.417  0.1942 -0.0448 -0.3913
 1567TIP3   OH226191   2.351   2.913   1.395 -0.1455 -0.0632  0.6332
 1567TIP3    H126192   2.313   2.912   1.307 -1.4495  2.1709  1.1218
 1567TIP3    H226193   2.416   2.983   1.392  1.1837 -1.2325  0.9577
 1568TIP3   OH226194   4.869   5.891   1.965  0.7367 -0.1493 -0.4558
 1568TIP3    H126195   4.818   5.824   2.010  1.5141 -1.5532 -1.6004
 1568TIP3    H226196   4.960   5.864   1.974  1.2286  1.6155  0.4165
 1569TIP3   OH226197   2.900   0.938   1.523  0.0537  0.3004  0.4564
 1569TIP3    H126198   2.846   1.009   1.487 -0.5821 -0.3881  0.0424
 1569TIP3    H226199   2.840   0.887   1.577 -0.3027 -1.7970 -1.7966
 1570TIP3   OH226200   1.746   1.173   1.484 -0.1967 -0.0173 -0.4627
 1570TIP3    H126201   1.761   1.230   1.409 -1.8522 -0.2121 -0.9966
 1570TIP3    H226202   1.812   1.199   1.548  0.6831  0.7564 -1.6486
 1571TIP3   OH226203   5.831   0.585  13.636  0.2625 -0.2246 -0.1519
 1571TIP3    H126204   5.886   0.569  13.559 -1.5231 -0.0399 -1.5465
 1571TIP3    H226205   5.843   0.507  13.690  1.2167 -0.5696 -0.8328
 1572TIP3   OH226206   5.243   6.334   0.518 -0.1013  0.1964  0.6771
 1572TIP3    H126207   5.309   6.282   0.471 -1.2787 -1.3325  0.6529
 1572TIP3    H226208   5.220   6.404   0.457 -0.1635 -0.6076 -0.2526
 1573TIP3   OH226209   2.230   2.646  16.275  0.1102 -0.2015  0.6148
 1573TIP3    H126210   2.273   2.638  16.190  0.1666  0.0256  0.6194
 1573TIP3    H226211   2.287   2.600  16.337 -2.2531 -4.7802 -0.1656
 1574TIP3   OH226212   5.409   1.927  12.061 -0.5300 -0.1426 -1.1022
 1574TIP3    H126213   5.502   1.939  12.042 -0.2308  1.6897  1.1173
 1574TIP3    H226214   5.368   2.006  12.027 -1.1943 -0.6523 -1.4943
 1575TIP3   OH226215   6.409   5.798   0.293 -0.2217  0.5665 -0.6414
 1575TIP3    H126216   6.469   5.873   0.286 -0.0230  0.3240 -1.7419
 1575TIP3    H226217   6.333   5.824   0.241 -0.3368  0.1702 -0.6700
 1576TIP3   OH226218   0.729   2.523  10.438  0.1318  0.1566  0.2210
 1576TIP3    H126219   0.808   2.485  10.476 -0.2760 -1.3585 -0.3783
 1576TIP3    H226220   0.761   2.590  10.377  0.8947  0.1998  0.6567
 1577TIP3   OH226221   0.819   2.683  13.783 -0.8636  0.1140 -0.3702
 1577TIP3    H126222   0.836   2.644  13.697 -0.8256 -0.1252 -0.2545
 1577TIP3    H226223   0.820   2.609  13.844 -1.8936  0.1451 -0.2956
 1578TIP3   OH226224   5.176   4.985  17.089  0.4395  0.3439 -0.1296
 1578TIP3    H126225   5.178   5.020  17.000 -0.0923 -0.0007 -0.2801
 1578TIP3    H226226   5.262   4.945  17.101 -0.0749 -1.1347 -1.1176
 1579TIP3   OH226227   6.563   6.786  13.692  0.3025 -0.3625  0.3090
 1579TIP3    H126228   6.536   6.776  13.601  0.4071 -0.3869  0.2799
 1579TIP3    H226229   6.483   6.776  13.743  0.4051 -1.3245  0.2858
 1580TIP3   OH226230   5.990   4.023   1.487  0.1003  0.1738 -0.5483
 1580TIP3    H126231   5.923   3.977   1.437 -1.5574  1.7911  0.0473
 1580TIP3    H226232   5.941   4.087   1.539  1.9768  0.2540  1.2456
 1581TIP3   OH226233   5.394   5.092   2.070  0.1283  0.1578  0.3607
 1581TIP3    H126234   5.385   5.066   2.161 -2.1442 -2.3951 -0.4519
 1581TIP3    H226235   5.340   5.170   2.062 -1.8233 -1.0900  0.7333
 1582TIP3   OH226236   6.264   5.198   4.062  0.5109  0.1437  0.2979
 1582TIP3    H126237   6.282   5.104   4.064  0.6883  0.1188 -1.2984
 1582TIP3    H226238   6.173   5.204   4.032  0.3828  0.4834  0.7396
 1583TIP3   OH226239   0.053   4.492   1.777 -0.0533 -0.1478 -0.3025
 1583TIP3    H126240   0.087   4.405   1.755 -0.7880 -0.5186  0.0199
 1583TIP3    H226241   0.065   4.498   1.872 -0.0339  0.0934 -0.3214
 1584TIP3   OH226242   1.852   2.204   1.548  0.3228 -0.0995 -0.1175
 1584TIP3    H126243   1.947   2.197   1.539  0.4004 -3.3387  1.6808
 1584TIP3    H226244   1.839   2.232   1.639 -0.4502  0.0350 -0.2643
 1585TIP3   OH226245   5.339   0.387   0.403 -0.1060  0.3937 -0.1114
 1585TIP3    H126246   5.270   0.344   0.453  0.4269 -1.0515 -0.5778
 1585TIP3    H226247   5.380   0.317   0.353  1.2370  1.3455 -0.3956
 1586TIP3   OH226248   3.449   0.192  13.264  0.1649  0.4259 -0.2481
 1586TIP3    H126249   3.528   0.240  13.241  0.8329 -0.1169  0.7999
 1586TIP3    H226250   3.469   0.101  13.243 -0.0113  0.2267  0.4179
 1587TIP3   OH226251   1.225   3.319   5.453 -0.7529  0.4037 -0.4998
 1587TIP3    H126252   1.238   3.352   5.364 -0.8086 -0.9793 -1.0467
 1587TIP3    H226253   1.168   3.383   5.494  1.6648  2.7096 -0.4511
 1588TIP3   OH226254   5.219   4.483  12.520  0.0137 -0.0432 -0.1766
 1588TIP3    H126255   5.236   4.430  12.599 -0.2742 -0.5946 -0.4765
 1588TIP3    H226256   5.282   4.451  12.456  0.4252  0.5884 -0.0929
 1589TIP3   OH226257   0.680   5.024   4.060 -0.3090 -0.2511 -0.2034
 1589TIP3    H126258   0.602   4.973   4.082  0.2503 -1.3668 -0.7004
 1589TIP3    H226259   0.752   4.962   4.068  0.5653  0.8204  0.4593
 1590TIP3   OH226260   5.239   6.811  11.608  0.0463  0.0827 -0.2064
 1590TIP3    H126261   5.263   6.735  11.554 -1.0783 -0.9605  0.7135
 1590TIP3    H226262   5.323   6.848  11.635  0.6184 -0.7583 -0.7774
 1591TIP3   OH226263   3.533   2.233   0.300  0.2394  0.0875  0.1617
 1591TIP3    H126264   3.479   2.166   0.257 -0.7714  0.4193  0.8578
 1591TIP3    H226265   3.610   2.241   0.244 -0.8561  0.2697 -1.4286
 1592TIP3   OH226266   4.500   5.925   5.229  0.1558  0.0508  0.2712
 1592TIP3    H126267   4.563   5.996   5.217 -0.6511  0.7998  0.2963
 1592TIP3    H226268   4.429   5.965   5.280  0.1729 -1.0713  1.2123
 1593TIP3   OH226269   0.116   2.777   1.972  0.0740  0.1547  0.0849
 1593TIP3    H126270   0.025   2.794   1.945  0.1024 -2.1789 -1.8345
 1593TIP3    H226271   0.110   2.700   2.030  0.8925 -0.9271 -1.2046
 1594TIP3   OH226272   6.450   5.630  15.855  0.4432 -0.2349  0.2986
 1594TIP3    H126273   6.455   5.695  15.785  4.5421  0.6539  1.1351
 1594TIP3    H226274   6.420   5.679  15.932  0.6853 -0.0330  0.2653
 1595TIP3   OH226275   5.460   0.871   0.831 -0.5133  0.6376 -0.4721
 1595TIP3    H126276   5.396   0.865   0.760  0.2389 -0.7106 -1.0634
 1595TIP3    H226277   5.440   0.797   0.888 -0.3639  1.0390  0.1121
 1596TIP3   OH226278   2.370   3.035  14.004  0.3254 -0.1294 -0.2944
 1596TIP3    H126279   2.359   2.957  14.058  2.1109  0.1523  0.5260
 1596TIP3    H226280   2.394   3.104  14.066 -1.8347  1.2787 -0.9032
 1597TIP3   OH226281   1.332   6.234   1.715  0.2323  0.3516  0.4633
 1597TIP3    H126282   1.274   6.309   1.728 -1.1834 -0.8380  1.3333
 1597TIP3    H226283   1.389   6.260   1.643 -3.1295  0.6434 -2.3903
 1598TIP3   OH226284   2.926   4.906  17.100  0.6009  0.1704  0.4250
 1598TIP3    H126285   2.997   4.844  17.084 -0.1590 -1.0117  1.4298
 1598TIP3    H226286   2.963   4.973  17.157  1.7088  1.2572 -1.4512
 1599TIP3   OH226287   1.553   6.525   0.702  0.4885 -0.4221 -0.0459
 1599TIP3    H126288   1.518   6.436   0.696  0.7350 -0.4617 -1.1256
 1599TIP3    H226289   1.640   6.514   0.742 -0.0066 -0.5088  1.0404
 1600TIP3   OH226290   2.505   6.276  12.614  0.3612  0.5223  0.1700
 1600TIP3    H126291   2.474   6.202  12.667 -1.1443  0.0963 -1.2232
 1600TIP3    H226292   2.502   6.351  12.673  1.6002 -0.4304  1.5207
 1601TIP3   OH226293   6.352   1.088   5.867  0.9874  0.0866 -0.2385
 1601TIP3    H126294   6.429   1.145   5.864  2.0970 -1.2417  1.0967
 1601TIP3    H226295   6.310   1.110   5.950  1.7950 -1.4158  0.6140
 1602TIP3   OH226296   4.982   0.851  11.908  0.1509  0.2468 -0.3201
 1602TIP3    H126297   5.023   0.854  11.995  0.3093  1.8891 -0.4229
 1602TIP3    H226298   4.941   0.765  11.904  0.4798 -0.0109  1.2338
 1603TIP3   OH226299   4.016   1.066   6.315 -1.1541 -0.2082 -0.6705
 1603TIP3    H126300   3.969   1.104   6.241 -0.6960  0.0661 -0.8275
 1603TIP3    H226301   4.106   1.098   6.305 -1.2971  0.6491  0.5665
 1604TIP3   OH226302   1.045   1.520   1.547  0.2788  0.8158  0.5590
 1604TIP3    H126303   1.098   1.454   1.504 -1.5876 -0.0419 -0.5123
 1604TIP3    H226304   1.102   1.597   1.552  1.5831 -0.0412 -0.5865
 1605TIP3   OH226305   0.309   6.540  16.443  0.8927 -0.0724 -0.4618
 1605TIP3    H126306   0.236   6.505  16.391  1.4404 -0.8418 -0.7341
 1605TIP3    H226307   0.282   6.629  16.464 -0.3348 -0.4792 -0.1780
 1606TIP3   OH226308   6.669   1.710   5.832  0.3640  0.2533 -0.4743
 1606TIP3    H126309   6.598   1.648   5.849  1.3727 -0.7070  0.3811
 1606TIP3    H226310   6.705   1.682   5.748  1.0395 -0.5791  0.0702
 1607TIP3   OH226311   2.473   6.293   4.652 -0.5324  0.0800 -0.0765
 1607TIP3    H126312   2.529   6.369   4.639 -0.6693  0.4506  1.3839
 1607TIP3    H226313   2.522   6.236   4.710 -1.1387 -0.1783  0.1878
 1608TIP3   OH226314   1.564   0.473   6.650  0.5860 -0.2808 -0.0905
 1608TIP3    H126315   1.488   0.505   6.602  0.8580 -0.8620 -0.9301
 1608TIP3    H226316   1.529   0.404   6.708  0.5065 -0.7225 -0.6570
 1609TIP3   OH226317   2.254   4.319  14.252 -0.3234 -0.1311  0.0053
 1609TIP3    H126318   2.308   4.376  14.198 -0.2618  1.1558  1.3379
 1609TIP3    H226319   2.308   4.242  14.269  0.7796  0.7434  0.5820
 1610TIP3   OH226320   3.806   1.124  13.620  0.1122 -0.6181  0.2485
 1610TIP3    H126321   3.740   1.125  13.690  1.5881  0.2353  1.7002
 1610TIP3    H226322   3.870   1.191  13.647  0.5647 -0.0372 -2.1055
 1611TIP3   OH226323   1.270   2.635   3.623 -0.5923 -0.5638  0.6400
 1611TIP3    H126324   1.275   2.713   3.569  0.3676  0.1539  1.7208
 1611TIP3    H226325   1.179   2.634   3.654 -0.7502 -0.1746  0.2038
 1612TIP3   OH226326   2.651   3.917   1.173 -0.4107  0.1511  0.8210
 1612TIP3    H126327   2.628   3.994   1.122  1.4784  0.0435 -0.3109
 1612TIP3    H226328   2.604   3.845   1.130 -1.5680  0.5314  1.4123
 1613TIP3   OH226329   6.522   5.358  13.145  0.3444  0.7417 -0.2932
 1613TIP3    H126330   6.561   5.277  13.114 -0.1076 -0.2298  1.5308
 1613TIP3    H226331   6.596   5.415  13.165  0.7174  0.2866 -0.3594
 1614TIP3   OH226332   3.150   0.413  12.971 -0.1889  0.6931  0.2268
 1614TIP3    H126333   3.214   0.395  12.903  1.2716  0.6773  1.5389
 1614TIP3    H226334   3.150   0.509  12.979  0.2714  0.6555  0.7509
 1615TIP3   OH226335   2.649   2.499   4.549 -0.6825  0.1025 -0.1318
 1615TIP3    H126336   2.725   2.443   4.536 -0.8262  0.2393 -1.7463
 1615TIP3    H226337   2.685   2.583   4.577 -0.4578 -0.6726  2.1277
 1616TIP3   OH226338   2.618   3.061  16.979 -0.4368 -0.6526  0.3893
 1616TIP3    H126339   2.543   3.033  16.927 -1.8440 -0.5070  2.2501
 1616TIP3    H226340   2.628   2.994  17.045  0.9188 -0.5134  0.3592
 1617TIP3   OH226341   4.887   6.227  16.967  0.2740 -0.1467 -0.7809
 1617TIP3    H126342   4.792   6.211  16.968 -0.0212  1.4177 -0.7276
 1617TIP3    H226343   4.904   6.257  16.878  0.5372  0.5267 -0.5073
 1618TIP3   OH226344   4.924   5.219   4.145  0.5949  0.0410 -0.3354
 1618TIP3    H126345   4.849   5.187   4.096 -0.5779  2.2452 -0.0929
 1618TIP3    H226346   4.898   5.210   4.237  0.6078  0.8347 -0.2494
 1619TIP3   OH226347   2.467   1.646   6.138  0.3658 -0.1164  0.4262
 1619TIP3    H126348   2.385   1.689   6.116 -0.1288 -1.4823 -0.5151
 1619TIP3    H226349   2.529   1.718   6.150  0.3780  0.9293 -4.2395
 1620TIP3   OH226350   5.304   2.898   0.190 -0.0507 -0.5132  0.1417
 1620TIP3    H126351   5.360   2.967   0.225 -1.0003  0.1910  0.3052
 1620TIP3    H226352   5.239   2.884   0.258  1.3880 -3.1688  1.1152
 1621TIP3   OH226353   0.759   5.992  11.972  0.1089 -0.4191  0.1221
 1621TIP3    H126354   0.689   5.926  11.972  0.5822 -0.9285  0.6172
 1621TIP3    H226355   0.836   5.945  11.940  0.1673  0.2161 -0.7017
 1622TIP3   OH226356   3.097   0.180  12.356  0.2761 -0.5054 -0.0453
 1622TIP3    H126357   3.150   0.173  12.277  1.8535 -1.2692  1.0288
 1622TIP3    H226358   3.020   0.127  12.338 -0.4973  1.0958 -1.8586
 1623TIP3   OH226359   0.164   5.104  14.674 -0.1432  0.3364  0.3362
 1623TIP3    H126360   0.134   5.106  14.765  1.4514  1.7024  0.8796
 1623TIP3    H226361   0.180   5.196  14.652 -0.4790  0.0233 -1.3381
 1624TIP3   OH226362   1.233   5.229  14.129 -0.0331 -0.6488  0.2979
 1624TIP3    H126363   1.254   5.139  14.154  0.8101 -0.6236 -0.3024
 1624TIP3    H226364   1.303   5.255  14.070  0.2370  0.7269  1.1828
 1625TIP3   OH226365   0.281   0.915   4.232 -0.4282 -0.0635  0.3941
 1625TIP3    H126366   0.373   0.929   4.209 -0.5050 -1.5851 -0.9650
 1625TIP3    H226367   0.276   0.822   4.255 -1.8864 -0.3193 -0.8651
 1626TIP3   OH226368   2.286   1.305  11.571 -0.1826 -0.4311  0.3593
 1626TIP3    H126369   2.205   1.348  11.542  0.4958  0.5243 -0.2027
 1626TIP3    H226370   2.323   1.365  11.636  0.9927  0.1083 -0.7446
 1627TIP3   OH226371   1.100   0.773  15.722  0.4387 -0.0741  0.2070
 1627TIP3    H126372   1.044   0.789  15.646  0.7767 -0.3792 -0.1137
 1627TIP3    H226373   1.133   0.859  15.747 -0.8821  0.2392  0.9681
 1628TIP3   OH226374   1.237   0.170  14.170 -0.4173 -0.1887 -0.0397
 1628TIP3    H126375   1.229   0.098  14.107 -2.2013  0.0944 -0.1729
 1628TIP3    H226376   1.147   0.193  14.192  0.1061  2.1032 -0.0966
 1629TIP3   OH226377   4.708   6.395   0.519  0.6293  0.1640  0.3181
 1629TIP3    H126378   4.803   6.393   0.506  0.6879 -0.1778  0.7543
 1629TIP3    H226379   4.684   6.487   0.507  0.6548 -0.0997 -2.1467
 1630TIP3   OH226380   2.749   1.595   4.889  0.0583  0.1380 -0.4190
 1630TIP3    H126381   2.806   1.554   4.954 -0.0624  0.4732 -0.1033
 1630TIP3    H226382   2.703   1.522   4.847 -0.4211 -0.0262  0.3877
 1631TIP3   OH226383   4.759   0.316  16.466  0.0321 -0.1719  0.4514
 1631TIP3    H126384   4.785   0.269  16.545  1.6460  0.1687  0.1727
 1631TIP3    H226385   4.723   0.249  16.409 -2.6450 -0.1834  2.0216
 1632TIP3   OH226386   4.173   6.719   2.548  0.2978  0.0728  0.1047
 1632TIP3    H126387   4.258   6.743   2.509  0.5633  1.7066  1.5815
 1632TIP3    H226388   4.111   6.725   2.475  1.1354  0.8691 -0.5731
 1633TIP3   OH226389   6.371   1.587   0.258 -0.5616 -0.5032  0.3135
 1633TIP3    H126390   6.315   1.664   0.258  1.3166  0.9388  0.1547
 1633TIP3    H226391   6.453   1.617   0.298  0.2943 -2.3635  0.0572
 1634TIP3   OH226392   1.338   1.714  17.196 -0.0016  0.1426 -0.2431
 1634TIP3    H126393   1.311   1.651  17.129  1.1204 -1.3087  0.6130
 1634TIP3    H226394   1.353   1.796  17.147 -1.9431 -0.0795 -1.3059
 1635TIP3   OH226395   1.127   2.264  11.945 -0.4683 -0.5890  0.3582
 1635TIP3    H126396   1.072   2.214  12.006 -0.8541 -0.0750  0.4449
 1635TIP3    H226397   1.204   2.209  11.931 -1.0079 -1.3362  0.2303
 1636TIP3   OH226398   6.385   2.081  15.099 -0.3300  0.0097 -0.1132
 1636TIP3    H126399   6.480   2.077  15.111 -0.1953  0.1745 -1.0418
 1636TIP3    H226400   6.367   2.017  15.030 -0.9012 -0.0321  0.0669
 1637TIP3   OH226401   2.396   0.302  11.107  0.0057  0.1239 -0.1838
 1637TIP3    H126402   2.432   0.368  11.167 -0.7206  0.6533 -0.3233
 1637TIP3    H226403   2.472   0.274  11.056  0.7609 -0.7513  1.3362
 1638TIP3   OH226404   4.217   3.194   3.863  0.2019 -1.0361 -0.3083
 1638TIP3    H126405   4.162   3.213   3.939  1.6230 -1.2426  0.8172
 1638TIP3    H226406   4.297   3.157   3.900  0.8969 -1.2363 -1.9237
 1639TIP3   OH226407   2.795   1.705   3.576 -0.3721  0.3068 -0.1914
 1639TIP3    H126408   2.815   1.795   3.551 -0.1973  0.4546  0.4620
 1639TIP3    H226409   2.701   1.704   3.591 -1.0436 -0.4499 -3.5268
 1640TIP3   OH226410   5.622   4.963  16.238 -0.0189  0.6756  0.6861
 1640TIP3    H126411   5.551   5.011  16.195 -0.5247 -1.7581 -1.3869
 1640TIP3    H226412   5.579   4.893  16.285  0.9430 -0.5946 -0.2574
 1641TIP3   OH226413   1.821   0.691  12.207 -0.6539  0.0084 -0.1295
 1641TIP3    H126414   1.881   0.765  12.199  0.0450 -0.3321  1.5568
 1641TIP3    H226415   1.774   0.689  12.124  1.5203  0.4341 -1.4551
 1642TIP3   OH226416   3.582   0.989  12.613  0.1939 -0.2398  0.6001
 1642TIP3    H126417   3.621   1.068  12.575 -1.8065  1.1280  1.1892
 1642TIP3    H226418   3.623   0.917  12.565  3.4268  0.9968  1.2526
 1643TIP3   OH226419   4.191   0.952   5.937  0.3262 -0.1724  0.7627
 1643TIP3    H126420   4.120   0.907   5.984 -1.3720 -0.8035 -2.1973
 1643TIP3    H226421   4.245   0.881   5.902 -1.8402 -0.1502 -3.1424
 1644TIP3   OH226422   4.828   4.051   4.155 -0.0745 -0.4411  0.0996
 1644TIP3    H126423   4.911   4.004   4.156  1.3061  1.8566  0.8771
 1644TIP3    H226424   4.796   4.042   4.065 -0.2195 -3.2501  0.3316
 1645TIP3   OH226425   3.366   3.500  14.720 -0.2618 -0.5279  0.3130
 1645TIP3    H126426   3.358   3.434  14.651  0.1155  0.8713 -1.1162
 1645TIP3    H226427   3.276   3.530  14.734 -0.2353 -0.2291 -0.1565
 1646TIP3   OH226428   5.053   1.366   3.427  0.6277  0.8053  0.3648
 1646TIP3    H126429   5.052   1.313   3.506  1.1969  1.4315  0.7945
 1646TIP3    H226430   5.114   1.321   3.368 -1.0316 -0.5944 -0.3993
 1647TIP3   OH226431   3.883   2.026  16.019 -0.2800  0.6164 -1.3438
 1647TIP3    H126432   3.893   2.121  16.018 -1.2411  0.8137  0.9917
 1647TIP3    H226433   3.789   2.012  16.033 -0.0322 -0.6315 -0.7808
 1648TIP3   OH226434   4.485   4.812  15.021  0.5257 -0.3033  0.3122
 1648TIP3    H126435   4.412   4.796  14.961  0.6897  0.2048 -0.0269
 1648TIP3    H226436   4.480   4.906  15.040  1.1031 -0.2640  0.2751
 1649TIP3   OH226437   3.303   3.945  12.418 -0.4437  0.1990  1.0943
 1649TIP3    H126438   3.385   3.911  12.453 -0.4542  0.6752  1.5888
 1649TIP3    H226439   3.318   4.039  12.408 -0.0577 -0.0478 -1.2364
 1650TIP3   OH226440   0.089   3.608  14.645  0.3880 -0.2256 -0.2696
 1650TIP3    H126441   0.006   3.560  14.640 -0.0789  0.0036  3.1512
 1650TIP3    H226442   0.067   3.697  14.617 -0.7414  0.0075  1.2383
 1651TIP3   OH226443   2.714   5.768  16.220  0.1910  0.3333 -0.4034
 1651TIP3    H126444   2.761   5.838  16.265 -1.1594  1.1463 -0.2064
 1651TIP3    H226445   2.780   5.725  16.166  2.1040 -1.1954  2.8532
 1652TIP3   OH226446   2.616   3.132  15.355  0.4428 -0.1421 -0.0996
 1652TIP3    H126447   2.668   3.052  15.360  1.8350  0.7689  1.1755
 1652TIP3    H226448   2.664   3.187  15.293  0.3368  0.2633  0.1745
 1653TIP3   OH226449   2.278   3.748   3.430  0.6591 -0.1572  0.0237
 1653TIP3    H126450   2.211   3.680   3.417  1.2095 -0.5030 -1.1657
 1653TIP3    H226451   2.245   3.801   3.502 -1.1505 -0.0204 -0.8530
 1654TIP3   OH226452   2.826   0.782   1.893  0.1014 -0.4485 -0.0745
 1654TIP3    H126453   2.908   0.742   1.863 -0.4415 -2.0532  0.4408
 1654TIP3    H226454   2.817   0.861   1.840  1.2245 -1.0244 -1.1955
 1655TIP3   OH226455   5.867   4.835  12.945 -0.2751 -0.4230 -0.2493
 1655TIP3    H126456   5.921   4.771  12.992  0.3284 -0.9010 -1.5378
 1655TIP3    H226457   5.854   4.796  12.858 -0.4947  0.8881 -0.8261
 1656TIP3   OH226458   1.604   4.261   3.725 -0.2200  0.4239  0.1724
 1656TIP3    H126459   1.695   4.260   3.697 -0.0136 -0.1025  0.8312
 1656TIP3    H226460   1.557   4.211   3.659  0.2307 -0.6576  0.6545
 1657TIP3   OH226461   5.905   0.955   4.109  0.2584  0.6233 -1.0519
 1657TIP3    H126462   5.984   0.977   4.060  0.4556  3.6463  0.3852
 1657TIP3    H226463   5.887   1.033   4.162 -3.5275 -0.0246 -1.0740
 1658TIP3   OH226464   6.321   4.111   1.623  0.7503  0.1808  0.2196
 1658TIP3    H126465   6.244   4.166   1.619  0.9924  0.6842  1.8706
 1658TIP3    H226466   6.301   4.045   1.689  2.0152  0.8197  1.2908
 1659TIP3   OH226467   1.882   0.423  16.290  0.4052  0.3508 -0.5221
 1659TIP3    H126468   1.882   0.359  16.219  0.6154 -2.6768  1.9732
 1659TIP3    H226469   1.790   0.444  16.303  0.0781 -1.2543  0.0161
 1660TIP3   OH226470   2.098   4.201  12.820  0.4492 -0.1595 -0.3963
 1660TIP3    H126471   2.102   4.152  12.902 -0.0277 -2.6304 -1.7370
 1660TIP3    H226472   2.033   4.268  12.835 -0.0689 -0.9504  1.0714
 1661TIP3   OH226473   1.160   5.656   4.706 -0.8745  0.7353 -0.7369
 1661TIP3    H126474   1.157   5.742   4.749 -2.5727  1.9489 -3.0550
 1661TIP3    H226475   1.069   5.637   4.683 -0.2882 -0.7139 -2.0772
 1662TIP3   OH226476   0.020   4.964  15.285 -0.3187  0.1124 -0.0941
 1662TIP3    H126477  -0.074   4.958  15.302 -0.4732 -0.1547 -1.0096
 1662TIP3    H226478   0.061   4.949  15.370 -1.0464 -1.8230 -0.0395
 1663TIP3   OH226479   0.692   1.171   1.363  0.0742  0.3168 -0.7146
 1663TIP3    H126480   0.712   1.242   1.424  0.4298  0.8704 -1.4674
 1663TIP3    H226481   0.597   1.158   1.373  0.2369 -0.0973  0.4724
 1664TIP3   OH226482   5.425   4.424  14.148  0.2315  0.1412  0.0362
 1664TIP3    H126483   5.410   4.489  14.217 -1.1198 -1.5867  1.4794
 1664TIP3    H226484   5.340   4.414  14.106  0.4636 -0.5580 -0.2753
 1665TIP3   OH226485   2.268   2.031  14.985 -0.4589 -0.2079 -0.1832
 1665TIP3    H126486   2.315   1.953  14.953 -0.5164  0.1406 -1.1565
 1665TIP3    H226487   2.239   2.075  14.905 -2.2628 -0.2937  0.3819
 1666TIP3   OH226488   0.761   3.962   2.798  0.0522 -0.1984 -0.6578
 1666TIP3    H126489   0.810   3.983   2.877 -1.5648 -0.3355  0.4383
 1666TIP3    H226490   0.828   3.945   2.732  1.4496  1.2918  0.2917
 1667TIP3   OH226491   6.292   2.412   3.269 -0.1582  0.1964 -0.1158
 1667TIP3    H126492   6.266   2.430   3.178  0.5564  0.5476 -0.2571
 1667TIP3    H226493   6.285   2.317   3.277  0.5722  0.0662 -0.8064
 1668TIP3   OH226494   6.456   6.764  11.386  0.0417  0.1781  0.0493
 1668TIP3    H126495   6.493   6.851  11.400 -0.9181  0.6519 -0.2348
 1668TIP3    H226496   6.521   6.704  11.420  1.4124  0.9441 -1.1324
 1669TIP3   OH226497   2.694   3.842  12.125 -0.2536 -0.0409 -0.1413
 1669TIP3    H126498   2.668   3.888  12.205 -0.6682  0.4269 -0.5376
 1669TIP3    H226499   2.612   3.832  12.076 -0.0586 -0.6214 -0.3542
 1670TIP3   OH226500   2.288   2.798  13.707 -0.3471  0.3036 -0.6861
 1670TIP3    H126501   2.262   2.730  13.770 -1.2185  0.3200 -1.0093
 1670TIP3    H226502   2.209   2.850  13.695  0.6291  2.1340  0.4632
 1671TIP3   OH226503   5.533   3.689  12.566  1.0004  0.1738 -0.5862
 1671TIP3    H126504   5.587   3.648  12.498  1.2066  1.1592 -1.0321
 1671TIP3    H226505   5.537   3.783  12.546 -1.0335  0.2660 -0.7438
 1672TIP3   OH226506   0.631   0.459   3.042 -0.5203 -0.1380 -0.2590
 1672TIP3    H126507   0.570   0.522   3.080 -1.7208 -0.4587 -1.5629
 1672TIP3    H226508   0.580   0.378   3.034  0.3919 -0.7090 -0.4295
 1673TIP3   OH226509   4.278   0.320   0.688 -0.2261  0.3981  0.2432
 1673TIP3    H126510   4.218   0.302   0.761 -1.8809  0.8787 -0.9457
 1673TIP3    H226511   4.332   0.393   0.720 -0.4239  0.1224  1.2507
 1674TIP3   OH226512   0.226   4.998  13.531  0.2178  0.4969  0.1571
 1674TIP3    H126513   0.321   5.005  13.543  0.2659 -0.4968  0.4650
 1674TIP3    H226514   0.190   5.005  13.619  0.0088  0.8402  0.0440
 1675TIP3   OH226515   4.065   1.543   0.584 -0.5440 -0.1916  0.7160
 1675TIP3    H126516   4.086   1.527   0.676 -0.8058 -0.9961  0.6451
 1675TIP3    H226517   4.034   1.459   0.552  1.3274 -0.4341 -0.6082
 1676TIP3   OH226518   5.768   2.795  14.458 -0.1828 -0.0868 -0.0115
 1676TIP3    H126519   5.800   2.710  14.486 -0.2762 -0.3728 -0.7360
 1676TIP3    H226520   5.696   2.774  14.398 -0.6002  0.5128  0.2746
 1677TIP3   OH226521   1.195   0.643  13.816 -0.1517 -0.3416  0.1584
 1677TIP3    H126522   1.231   0.704  13.879 -0.1999 -1.1415  0.9867
 1677TIP3    H226523   1.112   0.614  13.855 -0.6528 -0.1388 -0.7159
 1678TIP3   OH226524   5.008   6.614  17.114 -0.1572 -0.2559 -0.1021
 1678TIP3    H126525   5.020   6.628  17.208  0.9665  1.1855 -0.4357
 1678TIP3    H226526   4.915   6.631  17.099 -0.1841  0.2863  0.6285
 1679TIP3   OH226527   6.136   3.627  14.812  0.0301 -0.0460  0.0722
 1679TIP3    H126528   6.075   3.600  14.881  0.6275  1.5133  1.2512
 1679TIP3    H226529   6.109   3.715  14.788  0.6982 -0.0388 -0.7144
 1680TIP3   OH226530   6.076   2.110  12.765 -0.2757 -0.4288  0.3953
 1680TIP3    H126531   6.040   2.043  12.707  2.1553 -0.9146 -0.6801
 1680TIP3    H226532   6.106   2.179  12.705  1.8639 -0.7257  1.0665
 1681TIP3   OH226533   2.471   5.995   2.620  0.0415  0.1022 -0.1517
 1681TIP3    H126534   2.477   6.013   2.714  0.3626 -0.0406 -0.1432
 1681TIP3    H226535   2.521   6.065   2.579 -0.3637  0.3476 -0.2403
 1682TIP3   OH226536   6.102   2.061   3.915  0.1348 -0.5207  0.0703
 1682TIP3    H126537   6.009   2.082   3.925  0.4252  1.1876 -0.5345
 1682TIP3    H226538   6.128   2.108   3.837  1.8820  0.2584  1.0864
 1683TIP3   OH226539   3.911   6.612  15.826 -0.1733 -0.5765  0.5791
 1683TIP3    H126540   3.946   6.583  15.742 -0.4124  1.7155 -0.3703
 1683TIP3    H226541   3.908   6.707  15.820 -1.9422 -0.4263  2.4864
 1684TIP3   OH226542   6.764   0.224   6.620 -0.1318  0.0886  0.5880
 1684TIP3    H126543   6.815   0.260   6.547  0.9531 -1.5606  0.4825
 1684TIP3    H226544   6.736   0.301   6.670  1.5368  1.1137  0.0382
 1685TIP3   OH226545   1.114   4.055   2.359  0.0458 -0.5904 -0.0483
 1685TIP3    H126546   1.183   3.992   2.382 -0.9591 -1.7490 -0.1187
 1685TIP3    H226547   1.061   4.010   2.293 -1.4543 -0.2101  0.8364
 1686TIP3   OH226548   3.794   4.367   1.057  0.3828 -0.1159 -0.3018
 1686TIP3    H126549   3.752   4.282   1.044  0.8279 -0.6734  1.6482
 1686TIP3    H226550   3.729   4.431   1.028 -1.1725 -1.0165  1.0330
 1687TIP3   OH226551   5.308   4.098   2.857 -0.3473  0.4424  0.1884
 1687TIP3    H126552   5.248   4.130   2.924 -1.1246 -0.3079 -0.1274
 1687TIP3    H226553   5.292   4.004   2.853  0.0509  0.4010 -0.6920
 1688TIP3   OH226554   0.488   5.065  14.687  0.0017  0.1567 -0.7224
 1688TIP3    H126555   0.563   5.052  14.629  0.2095 -0.9962 -0.2214
 1688TIP3    H226556   0.526   5.086  14.772 -0.1365 -1.8641 -0.0965
 1689TIP3   OH226557   3.627   3.135  14.400 -0.2893 -0.5767 -0.2969
 1689TIP3    H126558   3.623   3.173  14.488  0.0316 -0.3800 -0.3662
 1689TIP3    H226559   3.659   3.206  14.344 -0.8819 -0.5808 -0.6443
 1690TIP3   OH226560   2.125   6.162  15.283 -0.2584  0.7074 -0.6173
 1690TIP3    H126561   2.065   6.175  15.209 -1.5063  1.7031  0.5161
 1690TIP3    H226562   2.189   6.232  15.274 -0.1598  0.5761 -0.9732
 1691TIP3   OH226563   2.318   5.122   4.435 -0.0326  0.1197  0.0372
 1691TIP3    H126564   2.302   5.211   4.405  0.4182  0.7076  1.4549
 1691TIP3    H226565   2.286   5.066   4.364  0.7996  1.4162 -1.4072
 1692TIP3   OH226566   5.630   3.214   2.777 -0.0517 -0.2049  0.0176
 1692TIP3    H126567   5.602   3.212   2.685  0.1020 -1.1775 -0.0193
 1692TIP3    H226568   5.724   3.196   2.774 -0.0137 -0.0700  0.3555
 1693TIP3   OH226569   4.954   1.942  15.271 -0.2381  0.2535 -0.6571
 1693TIP3    H126570   4.867   1.955  15.234  0.0889 -0.2136 -1.6205
 1693TIP3    H226571   4.950   1.857  15.314 -0.0513 -0.0922 -1.3221
 1694TIP3   OH226572   3.691   2.596  16.424  0.2658 -0.2097 -0.2746
 1694TIP3    H126573   3.683   2.691  16.414 -0.1125  0.0086  1.7712
 1694TIP3    H226574   3.678   2.580  16.517 -0.9028 -2.4091 -0.7415
 1695TIP3   OH226575   4.442   1.779  15.225  0.1074  0.7173 -0.2689
 1695TIP3    H126576   4.479   1.807  15.309  0.8418  2.6039 -1.1499
 1695TIP3    H226577   4.467   1.687  15.217 -0.4712  0.3233  1.8067
 1696TIP3   OH226578   6.169   5.892  15.669  0.1121  0.2185  0.5077
 1696TIP3    H126579   6.205   5.951  15.603 -0.5912 -0.6418 -0.6900
 1696TIP3    H226580   6.225   5.815  15.665 -1.4787 -0.9520 -1.0620
 1697TIP3   OH226581   3.955   5.426   1.851  0.8856  0.1666  0.3526
 1697TIP3    H126582   3.987   5.352   1.903 -0.4144  0.3503  1.4667
 1697TIP3    H226583   3.996   5.414   1.765  0.9418 -1.6870  0.5905
 1698TIP3   OH226584   3.707   5.652   6.783 -0.1912  0.2177 -0.7924
 1698TIP3    H126585   3.644   5.584   6.759  1.8016 -1.0912 -2.8561
 1698TIP3    H226586   3.747   5.620   6.864  0.3372 -0.8585 -1.4480
 1699TIP3   OH226587   1.340   0.595   5.051 -0.3102  0.2729 -0.1982
 1699TIP3    H126588   1.263   0.542   5.031  0.6820 -0.8711 -1.1076
 1699TIP3    H226589   1.317   0.683   5.022 -1.5816  0.1452  0.3478
 1700TIP3   OH226590   4.642   4.767  12.320  0.6508 -0.1752  0.1621
 1700TIP3    H126591   4.546   4.770  12.318  0.5959 -1.5534 -1.4527
 1700TIP3    H226592   4.663   4.731  12.406 -0.2042  1.1152  0.9556
 1701TIP3   OH226593   4.057   1.014   5.165  0.2530  0.3920  0.1220
 1701TIP3    H126594   3.993   1.018   5.236  2.9548  2.0696  2.6933
 1701TIP3    H226595   4.080   1.106   5.148  0.3295 -0.0184 -2.3736
 1702TIP3   OH226596   4.202   3.649   3.023 -0.2651  0.5480 -0.2099
 1702TIP3    H126597   4.150   3.729   3.017  0.3437  0.8821 -1.3858
 1702TIP3    H226598   4.159   3.587   2.964  0.4839  0.7466 -0.9990
 1703TIP3   OH226599   5.238   4.892  15.604  0.4173  0.3811  0.1039
 1703TIP3    H126600   5.321   4.874  15.559  0.8351  1.7004  0.3172
 1703TIP3    H226601   5.172   4.877  15.537  0.9326  0.7673 -0.5090
 1704TIP3   OH226602   2.943   4.244   5.039 -0.0644 -0.2126  0.4415
 1704TIP3    H126603   3.037   4.253   5.051  0.0621  0.2003 -0.7416
 1704TIP3    H226604   2.924   4.154   5.066  0.8194 -0.5872 -0.1305
 1705TIP3   OH226605   3.430   4.191   3.809  0.1795  0.1340  0.3056
 1705TIP3    H126606   3.342   4.191   3.772  0.3741 -0.7976 -0.1744
 1705TIP3    H226607   3.438   4.277   3.851 -0.9691  0.2068  0.4065
 1706TIP3   OH226608   4.342   3.122  11.436 -0.1282  0.0490  0.4480
 1706TIP3    H126609   4.367   3.046  11.489  0.4626  0.0153  0.1324
 1706TIP3    H226610   4.397   3.193  11.470  3.2426 -0.7797 -2.5657
 1707TIP3   OH226611   1.978   3.790   4.974 -0.1398  0.0868  0.0575
 1707TIP3    H126612   2.009   3.732   4.905 -0.5205  0.0050 -0.0512
 1707TIP3    H226613   1.955   3.731   5.046  0.7865  0.2139  0.4711
 1708TIP3   OH226614   0.677   5.779  15.476  0.6925 -0.5093  0.4218
 1708TIP3    H126615   0.761   5.807  15.511  1.1439 -0.7203 -0.4612
 1708TIP3    H226616   0.695   5.694  15.435  0.0858 -0.4948  0.1149
 1709TIP3   OH226617   3.498   3.247   0.190  0.3029  0.6156 -0.0536
 1709TIP3    H126618   3.548   3.167   0.176  0.2490  0.4547  0.6337
 1709TIP3    H226619   3.407   3.218   0.197 -0.0192  0.9816 -2.0413
 1710TIP3   OH226620   4.890   3.352   5.678  0.0696 -0.3843  0.9225
 1710TIP3    H126621   4.948   3.289   5.719  1.7805  1.2920  1.2491
 1710TIP3    H226622   4.938   3.381   5.600  1.1680  3.1264  2.6705
 1711TIP3   OH226623   1.565   3.786  14.003  0.2519  0.6230  0.3376
 1711TIP3    H126624   1.470   3.793  13.995 -0.0755 -2.2091  0.8273
 1711TIP3    H226625   1.585   3.830  14.086 -0.2060  3.4332 -0.9130
 1712TIP3   OH226626   5.744   2.729  10.577 -0.0508  0.5345 -0.0918
 1712TIP3    H126627   5.693   2.802  10.542 -0.2820 -0.7876 -2.7823
 1712TIP3    H226628   5.834   2.748  10.550  0.0642  0.3466  0.1537
 1713TIP3   OH226629   0.510   2.249  15.278  0.0443 -0.0156 -0.5564
 1713TIP3    H126630   0.467   2.264  15.362 -0.9288 -0.7025 -0.8992
 1713TIP3    H226631   0.578   2.184  15.296 -0.9677 -1.1046 -0.4847
 1714TIP3   OH226632   6.217   0.933  11.275 -0.1824  0.0940 -0.3262
 1714TIP3    H126633   6.311   0.923  11.266 -0.2832 -1.3743 -0.0483
 1714TIP3    H226634   6.202   0.935  11.369 -0.2059  3.2528 -0.3113
 1715TIP3   OH226635   3.702   6.003   1.660  0.1399 -0.1219 -0.0117
 1715TIP3    H126636   3.716   6.003   1.565 -0.1578 -1.4226 -0.0816
 1715TIP3    H226637   3.631   6.066   1.673 -0.2608 -0.3972 -0.7447
 1716TIP3   OH226638   3.388   2.301  15.163  0.1374 -0.1318  0.2103
 1716TIP3    H126639   3.418   2.222  15.207 -0.1338 -0.6389 -0.4926
 1716TIP3    H226640   3.415   2.373  15.221  1.8263 -0.6168  0.0775
 1717TIP3   OH226641   2.367   4.537  12.267 -0.3335 -0.1302 -0.0136
 1717TIP3    H126642   2.386   4.596  12.339 -0.2551  1.7416 -1.4850
 1717TIP3    H226643   2.283   4.499  12.289  0.5707 -1.1429  1.9729
 1718TIP3   OH226644   0.623   1.502   5.525 -0.0923 -0.0653 -0.3024
 1718TIP3    H126645   0.559   1.551   5.474 -1.2072  0.8470  1.8536
 1718TIP3    H226646   0.674   1.569   5.570 -0.0361 -0.8355  0.8043
 1719TIP3   OH226647   4.413   5.454   6.787 -0.1584 -0.6323 -0.0053
 1719TIP3    H126648   4.491   5.485   6.835 -0.2539  1.9198 -1.2994
 1719TIP3    H226649   4.446   5.433   6.699 -0.9042  0.6255 -0.6118
 1720TIP3   OH226650   1.806   2.691   0.283 -0.5249  0.1902 -0.0621
 1720TIP3    H126651   1.783   2.646   0.201 -0.5325 -0.1106  0.1039
 1720TIP3    H226652   1.726   2.734   0.311 -0.7109 -0.2915  0.1566
 1721TIP3   OH226653   3.549   6.168   2.238  0.4794  0.2509 -0.4794
 1721TIP3    H126654   3.540   6.077   2.212  2.6950  0.4201 -2.1164
 1721TIP3    H226655   3.552   6.166   2.334 -1.2168 -1.1541 -0.4102
 1722TIP3   OH226656   3.567   1.617   4.349  0.6099  0.0834  0.6668
 1722TIP3    H126657   3.652   1.639   4.310 -0.0108 -1.8786 -2.1405
 1722TIP3    H226658   3.565   1.522   4.350 -1.4239  0.0926  0.9530
 1723TIP3   OH226659   2.659   5.694   2.941  0.1530 -0.1818  0.3183
 1723TIP3    H126660   2.712   5.715   3.018 -0.4075 -0.8478  0.9062
 1723TIP3    H226661   2.580   5.653   2.977  0.0445 -0.8465 -0.6268
 1724TIP3   OH226662   0.462   0.587   1.751 -0.2743  0.2817  0.3039
 1724TIP3    H126663   0.552   0.573   1.722 -0.5738 -0.9071 -0.1518
 1724TIP3    H226664   0.466   0.585   1.846 -0.1231 -2.4404  0.3309
 1725TIP3   OH226665   4.281   2.681   1.912  0.6422  0.0499 -0.1324
 1725TIP3    H126666   4.365   2.722   1.928 -0.1321  2.3496 -1.5659
 1725TIP3    H226667   4.221   2.723   1.974  0.0160  0.4886 -1.0081
 1726TIP3   OH226668   1.488   5.249   5.242 -0.5008 -0.0058  0.1396
 1726TIP3    H126669   1.521   5.180   5.299 -0.9018 -1.8238 -1.7136
 1726TIP3    H226670   1.416   5.288   5.290 -0.5867 -1.2208  1.0317
 1727TIP3   OH226671   4.843   0.845  17.101 -0.1265  0.3679  0.2599
 1727TIP3    H126672   4.857   0.907  17.030 -0.8047 -0.4422 -0.5918
 1727TIP3    H226673   4.900   0.876  17.171  0.6458  1.1019 -0.6767
 1728TIP3   OH226674   5.050   6.358  15.566 -0.2095 -0.1564  0.8084
 1728TIP3    H126675   5.125   6.409  15.537  0.9297 -2.4585 -0.5304
 1728TIP3    H226676   4.998   6.343  15.487 -0.9559 -0.4022  1.3288
 1729TIP3   OH226677   3.549   2.657  14.171 -0.0693  0.4893 -0.1069
 1729TIP3    H126678   3.582   2.747  14.183  1.7234 -0.1245 -0.1535
 1729TIP3    H226679   3.520   2.654  14.079  0.6605  0.7806 -0.3508
 1730TIP3   OH226680   1.313   0.824   2.232  0.2269 -0.3285  0.7543
 1730TIP3    H126681   1.395   0.807   2.186 -0.0626  1.8608 -0.6968
 1730TIP3    H226682   1.248   0.770   2.187  0.2193  0.7229 -0.5377
 1731TIP3   OH226683   5.211   5.487  15.775 -0.3402 -0.4058 -0.6214
 1731TIP3    H126684   5.161   5.413  15.811  0.8933 -1.4004 -0.8754
 1731TIP3    H226685   5.218   5.549  15.848  1.3916 -2.0212  0.6845
 1732TIP3   OH226686   1.319   3.711   3.022  0.0127 -0.3212  0.4013
 1732TIP3    H126687   1.238   3.754   2.994  0.8342  0.7657 -0.3871
 1732TIP3    H226688   1.319   3.720   3.117  0.0433  1.2681  0.2772
 1733TIP3   OH226689   2.485   1.832  16.601 -0.1341  0.2888  0.3173
 1733TIP3    H126690   2.466   1.741  16.581 -0.2692  0.8628 -2.5254
 1733TIP3    H226691   2.455   1.881  16.525  3.3766  2.2946  0.0005
 1734TIP3   OH226692   4.003   6.358   0.125 -0.4204 -0.1999 -0.1815
 1734TIP3    H126693   3.946   6.372   0.201 -0.6752 -1.3909 -0.1331
 1734TIP3    H226694   4.046   6.275   0.143 -0.1192 -0.2560 -1.1268
 1735TIP3   OH226695   6.289   0.998   1.923 -0.2997 -0.3121  0.5302
 1735TIP3    H126696   6.306   1.084   1.962  0.8356 -1.2137  2.1578
 1735TIP3    H226697   6.194   0.989   1.925 -0.4243  0.8535  0.4601
 1736TIP3   OH226698   4.913   1.874  16.804  0.2973 -0.6415 -0.6475
 1736TIP3    H126699   4.985   1.904  16.859  0.7802 -0.7518 -1.2096
 1736TIP3    H226700   4.859   1.952  16.790 -0.0009 -0.6763  0.2155
 1737TIP3   OH226701   2.930   5.226   5.135 -0.5462 -0.5321  0.0985
 1737TIP3    H126702   2.941   5.205   5.042  3.5222  1.9092 -0.2014
 1737TIP3    H226703   3.008   5.191   5.177 -1.8107 -0.6929  2.5061
 1738TIP3   OH226704   2.696   0.529  13.782  0.3463 -0.5918 -0.6888
 1738TIP3    H126705   2.659   0.448  13.746 -2.0621 -0.2404  0.8461
 1738TIP3    H226706   2.708   0.511  13.875 -0.2489  0.8268 -0.3198
 1739TIP3   OH226707   2.707   5.789   0.165 -0.3681  0.2327  0.5862
 1739TIP3    H126708   2.782   5.776   0.107 -1.4550  0.4088 -0.9167
 1739TIP3    H226709   2.744   5.827   0.244  1.0412  0.9758 -0.3908
 1740TIP3   OH226710   5.247   4.599   1.324  0.0845  0.3057 -0.2188
 1740TIP3    H126711   5.164   4.606   1.277  0.8497  1.4793 -1.4433
 1740TIP3    H226712   5.240   4.664   1.395 -0.2579 -0.0017  0.0318
 1741TIP3   OH226713   4.763   3.292  11.534 -0.0622 -0.4083 -0.0426
 1741TIP3    H126714   4.737   3.253  11.618  1.1130 -1.3764 -0.0880
 1741TIP3    H226715   4.859   3.291  11.537  0.0646 -2.1541 -2.1205
 1742TIP3   OH226716   6.669   3.109   3.441 -0.0356  0.0009  0.0976
 1742TIP3    H126717   6.751   3.158   3.452  0.3755 -1.0644  2.4124
 1742TIP3    H226718   6.600   3.175   3.450  0.5370  0.4226  1.9356
 1743TIP3   OH226719   5.404   3.275   5.732 -0.3834 -0.0682 -0.2404
 1743TIP3    H126720   5.360   3.320   5.660 -1.4325  0.9538  0.9935
 1743TIP3    H226721   5.392   3.182   5.712  1.5455  0.0969 -2.6595
 1744TIP3   OH226722   5.859   0.171   0.185  0.4329  0.0484 -0.7123
 1744TIP3    H126723   5.846   0.164   0.090  0.3608  0.8810 -0.7714
 1744TIP3    H226724   5.890   0.261   0.198 -0.2408  0.1687  0.1251
 1745TIP3   OH226725   3.044   6.068   0.395  0.2706 -0.2508 -0.0526
 1745TIP3    H126726   3.084   6.044   0.312 -0.2479  2.4521 -1.1767
 1745TIP3    H226727   3.106   6.130   0.435 -2.1303  3.4036 -1.4649
 1746TIP3   OH226728   6.524   0.207   4.701 -0.3442  0.5885  0.2733
 1746TIP3    H126729   6.522   0.286   4.754  0.7798  0.1487  1.0029
 1746TIP3    H226730   6.591   0.223   4.635  2.2916 -0.8689  2.3628
 1747TIP3   OH226731   5.653   6.470   6.136  0.5119  0.1765  0.4270
 1747TIP3    H126732   5.715   6.510   6.197  0.3497 -0.0929  0.7708
 1747TIP3    H226733   5.688   6.384   6.117  0.4783  0.1975  0.2602
 1748TIP3   OH226734   5.162   0.120  14.669 -0.5489  0.1546  0.1272
 1748TIP3    H126735   5.235   0.140  14.610 -1.1543  0.9744 -0.3707
 1748TIP3    H226736   5.120   0.043  14.630  0.7176 -1.0436  1.0512
 1749TIP3   OH226737   4.338   3.082  14.194  0.3145  0.4206  0.3636
 1749TIP3    H126738   4.318   3.030  14.116 -1.1941 -2.3547  2.4240
 1749TIP3    H226739   4.432   3.074  14.204  0.6381  1.3199 -1.4146
 1750TIP3   OH226740   1.506   2.193   5.747  0.8248  0.5490 -0.4307
 1750TIP3    H126741   1.500   2.288   5.738  1.0587  1.2424  4.0336
 1750TIP3    H226742   1.417   2.165   5.769  0.6447 -0.4259 -2.2459
 1751TIP3   OH226743   0.055   0.363   6.418  0.3012  0.5235 -0.8907
 1751TIP3    H126744   0.084   0.453   6.433  0.9753  0.0545  0.8624
 1751TIP3    H226745  -0.007   0.369   6.345 -0.5834  2.5920 -0.0349
 1752TIP3   OH226746   0.676   3.941  13.286  0.1392 -0.2322  0.4644
 1752TIP3    H126747   0.743   3.969  13.223  0.0143 -2.6563 -0.8514
 1752TIP3    H226748   0.598   3.925  13.233  0.0201 -2.3232  1.1663
 1753TIP3   OH226749   4.032   1.465   5.800  0.5903 -0.3476  0.0399
 1753TIP3    H126750   4.052   1.460   5.894 -1.3982 -0.2496  0.5235
 1753TIP3    H226751   4.012   1.557   5.785  0.6809 -0.4030 -0.4371
 1754TIP3   OH226752   2.542   5.100  10.672  0.1752  0.6696  0.2968
 1754TIP3    H126753   2.466   5.046  10.652 -0.0720  0.8970  0.6021
 1754TIP3    H226754   2.572   5.067  10.757  1.1355 -0.2046 -0.3576
 1755TIP3   OH226755   4.279   0.418  13.304  0.3359 -0.3782  1.0247
 1755TIP3    H126756   4.319   0.429  13.390  0.1899  0.1528  1.0287
 1755TIP3    H226757   4.313   0.491  13.252 -2.0504  1.2043  1.5654
 1756TIP3   OH226758   5.654   0.089   5.353 -0.0810 -0.1560  0.0071
 1756TIP3    H126759   5.739   0.048   5.334  0.0485  0.3713 -0.5781
 1756TIP3    H226760   5.647   0.160   5.289 -1.0221 -0.2722 -0.0273
 1757TIP3   OH226761   5.059   1.009   0.106 -0.1912 -0.5494 -0.0528
 1757TIP3    H126762   5.076   1.063   0.029 -0.7818  0.3997  0.4609
 1757TIP3    H226763   5.140   0.960   0.120  0.2567 -0.0071 -0.7009
 1758TIP3   OH226764   2.661   6.158   0.344 -0.3905  0.1236  0.0024
 1758TIP3    H126765   2.665   6.133   0.436 -0.9245 -0.9653 -0.2510
 1758TIP3    H226766   2.586   6.110   0.309  0.9949 -1.1111 -1.4546
 1759TIP3   OH226767   1.119   4.538  12.160  0.2544 -0.3070 -0.1764
 1759TIP3    H126768   1.076   4.489  12.230  0.0379  2.0571  1.4617
 1759TIP3    H226769   1.077   4.508  12.079 -0.4536 -2.1212  0.8097
 1760TIP3   OH226770   1.090   5.713  11.153 -0.2929 -0.6988  0.0131
 1760TIP3    H126771   1.119   5.799  11.122  0.0054 -0.3139  1.2724
 1760TIP3    H226772   1.028   5.683  11.087 -0.0051  0.2544 -0.7137
 1761TIP3   OH226773   0.393   2.978   4.976 -0.3657  0.6055 -0.2323
 1761TIP3    H126774   0.407   3.067   5.008  0.7178 -0.0583  1.2475
 1761TIP3    H226775   0.438   2.975   4.892  0.4308  1.1742  0.1709
 1762TIP3   OH226776   3.706   5.803  15.735  0.4201  0.3343  0.5080
 1762TIP3    H126777   3.651   5.724  15.735  0.0144  0.6084 -0.1924
 1762TIP3    H226778   3.653   5.869  15.690  1.6709  0.3514 -1.0052
 1763TIP3   OH226779   4.469   2.235  14.752  0.5341 -0.3320 -0.1679
 1763TIP3    H126780   4.475   2.289  14.673 -1.2610  0.1030 -0.0349
 1763TIP3    H226781   4.464   2.299  14.824 -1.0630 -0.6540  0.0309
 1764TIP3   OH226782   1.528   6.533   2.078 -0.0486 -0.1013 -0.3646
 1764TIP3    H126783   1.484   6.617   2.090  0.7743  0.2659  0.1777
 1764TIP3    H226784   1.459   6.468   2.089 -0.0380  0.3198  3.2285
 1765TIP3   OH226785   6.047   0.268   0.675  0.2721  0.1198 -0.1169
 1765TIP3    H126786   6.116   0.203   0.660  0.9178  0.5328  0.9572
 1765TIP3    H226787   6.072   0.343   0.620 -0.4446 -0.4879 -1.3157
 1766TIP3   OH226788   2.519   0.612   2.315  0.0343  0.5610  0.0448
 1766TIP3    H126789   2.559   0.550   2.254  0.9522  1.0037  0.1699
 1766TIP3    H226790   2.569   0.600   2.396 -0.3123  0.9072  0.3120
 1767TIP3   OH226791   4.100   3.074   3.140 -0.2411 -0.1768 -0.4664
 1767TIP3    H126792   4.185   3.067   3.184 -0.9121 -1.3533  0.7139
 1767TIP3    H226793   4.097   3.164   3.108  0.4594  0.6322  1.5939
 1768TIP3   OH226794   2.591   5.635   2.690  0.5792 -0.0102  0.6028
 1768TIP3    H126795   2.653   5.566   2.666  1.5640  1.2741 -0.7311
 1768TIP3    H226796   2.630   5.678   2.766  1.7296  1.1857 -0.5931
 1769TIP3   OH226797   3.180   5.530   0.608  0.3397  0.3624  0.9034
 1769TIP3    H126798   3.240   5.530   0.683  1.5630  0.9780 -0.0266
 1769TIP3    H226799   3.208   5.605   0.556  0.1730 -0.6326 -0.6705
 1770TIP3   OH226800   0.015   1.002   0.115 -0.2685 -0.0686  0.3161
 1770TIP3    H126801   0.009   1.079   0.059  0.7564  0.0137  0.3127
 1770TIP3    H226802  -0.056   0.945   0.085 -1.3449  1.0593  0.6353
 1771TIP3   OH226803   6.580   4.927  15.364  0.2302 -0.7881  0.6478
 1771TIP3    H126804   6.584   4.868  15.289  0.7740 -0.8132  0.6912
 1771TIP3    H226805   6.623   4.879  15.435  0.1118 -0.5918  0.8563
 1772TIP3   OH226806   0.328   5.178  11.138 -0.2203  0.7114 -0.1476
 1772TIP3    H126807   0.250   5.157  11.087 -0.4346 -0.4226  0.6044
 1772TIP3    H226808   0.317   5.270  11.161 -2.7911 -0.0652  2.2903
 1773TIP3   OH226809   1.387   4.549  14.825  0.0372  0.3377 -0.5687
 1773TIP3    H126810   1.414   4.594  14.745  0.2584 -1.6567 -1.6798
 1773TIP3    H226811   1.298   4.518  14.807 -0.5842  1.3359  0.6338
 1774TIP3   OH226812   4.707   0.545  15.005 -0.2817  0.0908 -0.3439
 1774TIP3    H126813   4.754   0.583  14.931 -0.6532  0.5137 -0.3687
 1774TIP3    H226814   4.635   0.496  14.966 -0.7391  0.6733 -0.2610
 1775TIP3   OH226815   2.311   4.674  14.930  0.3314 -0.1687  0.3259
 1775TIP3    H126816   2.285   4.766  14.932  2.3769  0.4495  0.2439
 1775TIP3    H226817   2.406   4.676  14.927  0.4023 -2.2991 -0.2155
 1776TIP3   OH226818   6.798   4.603  13.822 -0.1227 -0.1048 -0.8883
 1776TIP3    H126819   6.742   4.526  13.835  0.0964 -0.0055  0.9180
 1776TIP3    H226820   6.762   4.669  13.881 -0.9847  1.6145 -3.2140
 1777TIP3   OH226821   0.912   2.768   4.993 -0.2725  0.3323  0.1685
 1777TIP3    H126822   0.953   2.813   4.919  1.4541  0.1192  0.9408
 1777TIP3    H226823   0.985   2.729   5.040 -1.4199 -0.2875  1.4940
 1778TIP3   OH226824   3.635   6.670  11.793 -0.1662  0.3265  0.0285
 1778TIP3    H126825   3.670   6.640  11.876  0.0256  2.5409  0.8245
 1778TIP3    H226826   3.606   6.591  11.749  0.8512 -1.0251  1.6699
 1779TIP3   OH226827   5.248   4.296   1.620  0.8376  0.0153 -0.4070
 1779TIP3    H126828   5.287   4.334   1.542  0.1169 -0.3371 -0.9549
 1779TIP3    H226829   5.225   4.206   1.594  0.6372 -0.1216  0.2229
 1780TIP3   OH226830   4.411   3.831   0.710 -0.1320  0.1445  0.5742
 1780TIP3    H126831   4.485   3.885   0.684  2.3083 -3.9566 -2.1203
 1780TIP3    H226832   4.371   3.804   0.627 -2.1900 -0.9128  1.8353
 1781TIP3   OH226833   2.051   6.252   1.611 -0.0668 -0.3665  0.4252
 1781TIP3    H126834   1.971   6.200   1.620  0.0439 -0.5581  0.3163
 1781TIP3    H226835   2.085   6.260   1.700 -0.8014  0.6750  0.6329
 1782TIP3   OH226836   3.236   3.571  16.551 -0.0780 -0.4985 -0.0164
 1782TIP3    H126837   3.189   3.612  16.624  2.8380 -0.7915  2.2432
 1782TIP3    H226838   3.324   3.554  16.587  1.3057 -1.2917 -3.4348
 1783TIP3   OH226839   6.668   4.873  14.499 -0.1492  0.4862  0.8102
 1783TIP3    H126840   6.713   4.841  14.577 -1.0223 -0.0270  1.1080
 1783TIP3    H226841   6.737   4.916  14.448  0.7754 -0.6445  1.0612
 1784TIP3   OH226842   5.380   1.815   1.935 -0.1592 -0.5990 -0.3284
 1784TIP3    H126843   5.476   1.824   1.938 -0.0216 -1.6754 -0.6770
 1784TIP3    H226844   5.352   1.878   1.869 -0.0333  1.8168  1.7918
 1785TIP3   OH226845   5.480   0.489   2.512 -0.3716  0.6003  0.6053
 1785TIP3    H126846   5.470   0.556   2.580 -0.8440  1.3154 -0.1496
 1785TIP3    H226847   5.400   0.495   2.460 -0.8007 -1.1427  1.0166
 1786TIP3   OH226848   1.254   5.145  16.033 -0.0658  0.2580 -0.2318
 1786TIP3    H126849   1.261   5.205  16.107 -0.2757 -0.4217  0.3468
 1786TIP3    H226850   1.319   5.176  15.971  0.1234  0.8284  0.2448
 1787TIP3   OH226851   4.227   5.006  11.718  0.1088 -0.7831  0.4581
 1787TIP3    H126852   4.169   5.041  11.786 -1.5699  0.0503 -1.3257
 1787TIP3    H226853   4.171   4.947  11.667  1.0558 -0.6025 -0.8241
 1788TIP3   OH226854   6.787   2.930  15.334 -0.1424 -0.4312  0.2381
 1788TIP3    H126855   6.869   2.882  15.323 -0.4768 -0.9053 -0.2536
 1788TIP3    H226856   6.737   2.878  15.396 -1.2316 -1.7360 -1.6210
 1789TIP3   OH226857   6.729   0.091   2.491 -0.0512  0.0491  0.5381
 1789TIP3    H126858   6.753   0.037   2.416 -1.3749 -1.0293  0.8427
 1789TIP3    H226859   6.775   0.052   2.566  0.3958  0.4512  0.4799
 1790TIP3   OH226860   0.258   6.665   0.103  0.1207 -0.4077 -0.0283
 1790TIP3    H126861   0.338   6.666   0.154  0.1210  1.5007 -0.0168
 1790TIP3    H226862   0.201   6.603   0.150  1.0703 -0.7365  0.7260
 1791TIP3   OH226863   4.116   3.746   3.429  0.0154  0.3167 -0.1810
 1791TIP3    H126864   4.034   3.757   3.477  0.4719  0.6964  0.5224
 1791TIP3    H226865   4.092   3.757   3.337 -0.7003  0.5262  0.0294
 1792TIP3   OH226866   3.577   3.304   5.225 -0.5485 -0.0339 -0.0525
 1792TIP3    H126867   3.620   3.281   5.307  1.6961 -0.9206 -1.3727
 1792TIP3    H226868   3.620   3.386   5.197 -1.6601  0.5473 -0.0970
 1793TIP3   OH226869   0.339   2.457  14.300 -0.0192  0.5981 -0.1328
 1793TIP3    H126870   0.294   2.467  14.384 -0.2306 -0.9791 -0.0354
 1793TIP3    H226871   0.325   2.365  14.276  3.6017 -0.1694  0.1631
 1794TIP3   OH226872   0.937   1.553   5.767 -0.0208 -0.5368  0.1648
 1794TIP3    H126873   0.858   1.602   5.744  0.6221 -0.0453 -1.0618
 1794TIP3    H226874   0.937   1.552   5.863 -0.7731  0.6636  0.2015
 1795TIP3   OH226875   0.805   4.726   5.249 -0.0288 -0.0377  0.0760
 1795TIP3    H126876   0.775   4.648   5.297 -0.8107  0.5672  0.6111
 1795TIP3    H226877   0.877   4.695   5.196 -2.2784 -1.8791 -2.1620
 1796TIP3   OH226878   5.990   2.624  16.659  0.6299  0.1469  0.4580
 1796TIP3    H126879   5.966   2.716  16.674  1.0131  0.5160 -1.0184
 1796TIP3    H226880   5.950   2.603  16.575  1.4384 -0.7109  0.2747
 1797TIP3   OH226881   6.512   2.474  12.478 -0.2122 -0.4139 -0.4456
 1797TIP3    H126882   6.578   2.437  12.537  1.8371  2.8436 -0.4804
 1797TIP3    H226883   6.447   2.514  12.537  0.2311  0.2270 -0.3860
 1798TIP3   OH226884   0.033   3.055   1.303  0.4317 -0.1143 -0.1936
 1798TIP3    H126885  -0.033   3.118   1.330 -0.7545 -1.9443  1.3882
 1798TIP3    H226886   0.023   3.050   1.208 -0.5950  0.8186 -0.1530
 1799TIP3   OH226887   4.846   2.489  12.842 -0.2224 -0.0234 -0.4406
 1799TIP3    H126888   4.795   2.569  12.837 -0.4767 -0.0346  1.2296
 1799TIP3    H226889   4.813   2.445  12.920 -0.5107 -2.0630 -1.6453
 1800TIP3   OH226890   2.143   0.220   2.427 -0.5724  0.9670  0.2094
 1800TIP3    H126891   2.094   0.262   2.356  0.3119  0.6676 -0.5930
 1800TIP3    H226892   2.116   0.128   2.424 -1.0046  1.0688  0.6850
 1801TIP3   OH226893   0.770   4.320  10.771 -0.2464  0.5438  0.2505
 1801TIP3    H126894   0.681   4.309  10.737  0.1758 -0.5456 -0.5497
 1801TIP3    H226895   0.824   4.265  10.715  0.6869 -0.2621  1.8593
 1802TIP3   OH226896   5.376   2.001  16.649  0.4206 -0.1648  0.4888
 1802TIP3    H126897   5.301   2.052  16.680  0.6105 -0.9441  2.3975
 1802TIP3    H226898   5.437   2.065  16.613 -1.1731  0.4769 -1.1968
 1803TIP3   OH226899   2.109   4.187  16.193 -0.0268  0.0335  0.0118
 1803TIP3    H126900   2.072   4.217  16.276 -0.5250 -0.3945 -0.0532
 1803TIP3    H226901   2.192   4.235  16.185 -0.5527  0.9942  0.1620
 1804TIP3   OH226902   6.706   2.501  11.803  0.1511 -0.3648 -0.1031
 1804TIP3    H126903   6.638   2.545  11.752 -0.5677  1.0665  1.9565
 1804TIP3    H226904   6.784   2.555  11.791  0.6735 -1.3703 -1.5389
 1805TIP3   OH226905   3.029   4.214  15.455 -0.6919 -0.2809 -0.4598
 1805TIP3    H126906   2.963   4.249  15.514 -1.7817  0.1990 -1.8896
 1805TIP3    H226907   2.982   4.150  15.402  0.0976 -0.2640 -1.1985
 1806TIP3   OH226908   6.346   3.571   2.494 -0.0722  0.4310  0.5456
 1806TIP3    H126909   6.344   3.567   2.590 -3.0715 -0.3882  0.5647
 1806TIP3    H226910   6.362   3.481   2.466 -1.7964  0.1504  0.3540
 1807TIP3   OH226911   6.641   1.410  16.515  0.0462 -0.2715  0.8006
 1807TIP3    H126912   6.624   1.458  16.596  1.0451 -0.1442  0.9508
 1807TIP3    H226913   6.676   1.326  16.544 -2.8969 -1.6817  0.5806
 1808TIP3   OH226914   6.012   5.671  16.816 -0.3197 -0.5283  0.0942
 1808TIP3    H126915   5.980   5.632  16.734 -2.1802 -0.2789  0.6524
 1808TIP3    H226916   6.060   5.601  16.859  0.1378 -0.8570 -0.9201
 1809TIP3   OH226917   1.372   1.985  12.063 -0.4521  0.4002  0.3908
 1809TIP3    H126918   1.403   2.000  11.974 -0.5389 -1.1143  0.0721
 1809TIP3    H226919   1.335   1.897  12.061  1.3452 -0.4986  2.4004
 1810TIP3   OH226920   5.696   6.193  12.463 -0.0390  0.2325  0.0036
 1810TIP3    H126921   5.607   6.214  12.434  0.4735  1.2260 -0.9386
 1810TIP3    H226922   5.746   6.273  12.445  1.3645 -0.7989 -0.8339
 1811TIP3   OH226923   0.423   6.613   4.875 -0.4079 -0.0630  0.3225
 1811TIP3    H126924   0.455   6.680   4.814  0.4870 -0.1324  0.7009
 1811TIP3    H226925   0.400   6.539   4.819 -0.7889  0.3199 -0.0411
 1812TIP3   OH226926   2.074   4.950  14.969  0.1725 -0.0674 -0.6511
 1812TIP3    H126927   2.022   5.030  14.967 -0.2093 -0.3229 -1.1740
 1812TIP3    H226928   2.147   4.966  14.910  0.0349 -0.1425 -0.8427
 1813TIP3   OH226929   3.546   1.527   1.801  0.0563 -0.1495  0.1622
 1813TIP3    H126930   3.480   1.531   1.870 -0.4030  1.5413 -0.3473
 1813TIP3    H226931   3.496   1.522   1.720  0.5835 -0.4240 -0.1522
 1814TIP3   OH226932   3.445   5.672   3.374 -0.4556  0.0527 -0.3186
 1814TIP3    H126933   3.429   5.582   3.402 -1.9046  0.5643  0.6338
 1814TIP3    H226934   3.414   5.675   3.284  2.1007 -1.0309 -1.3289
 1815TIP3   OH226935   3.499   1.278   4.194  0.2927 -0.5609  0.1807
 1815TIP3    H126936   3.413   1.265   4.235  0.5726  2.9687  2.3767
 1815TIP3    H226937   3.562   1.257   4.263  0.8747  2.6669  0.8090
 1816TIP3   OH226938   0.528   2.221  13.675  0.4636 -0.4484 -0.6685
 1816TIP3    H126939   0.574   2.234  13.592 -0.2218 -0.4540 -1.0558
 1816TIP3    H226940   0.455   2.284  13.673  1.0549  0.3168  0.4049
 1817TIP3   OH226941   5.540   2.358   6.187  0.0597 -0.0234 -0.1482
 1817TIP3    H126942   5.592   2.285   6.219 -1.0456 -0.3483  0.9660
 1817TIP3    H226943   5.552   2.427   6.252 -0.0750  0.2691 -0.4297
 1818TIP3   OH226944   1.400   3.671   0.348 -0.2671  0.2780 -0.8232
 1818TIP3    H126945   1.458   3.724   0.402 -0.5694 -1.2332  1.0999
 1818TIP3    H226946   1.319   3.722   0.343 -0.0450  0.6925 -0.3123
 1819TIP3   OH226947   0.573   5.309  13.721  0.0697 -0.0571 -0.1374
 1819TIP3    H126948   0.628   5.266  13.786 -0.7917  1.0376  1.3977
 1819TIP3    H226949   0.486   5.270  13.733 -0.7618  2.0497  1.3850
 1820TIP3   OH226950   1.537   4.175   1.083  0.5677  0.0704 -0.0732
 1820TIP3    H126951   1.452   4.148   1.117  0.8578 -2.2644 -0.9912
 1820TIP3    H226952   1.517   4.240   1.016 -0.3409  0.8363  0.9132
 1821TIP3   OH226953   1.246   5.749   5.961 -0.1521 -0.5225 -0.6423
 1821TIP3    H126954   1.202   5.678   6.008  0.5317 -1.6771 -1.6628
 1821TIP3    H226955   1.181   5.780   5.899 -1.2127  1.3114  1.2681
 1822TIP3   OH226956   2.665   5.219   0.699  0.7429  0.4624  0.4085
 1822TIP3    H126957   2.673   5.314   0.696 -1.8716  0.7696  0.6627
 1822TIP3    H226958   2.692   5.195   0.788 -0.3876  1.2417  0.9922
 1823TIP3   OH226959   2.362   4.389   0.343 -0.1217  0.6452 -0.5860
 1823TIP3    H126960   2.333   4.466   0.294  0.9644  1.0955 -0.5434
 1823TIP3    H226961   2.333   4.405   0.433 -1.6475  0.0640 -0.9431
 1824TIP3   OH226962   3.092   6.089   1.968 -0.3804 -0.8788 -0.0390
 1824TIP3    H126963   3.174   6.044   1.985 -0.2661 -0.7451 -0.2241
 1824TIP3    H226964   3.099   6.171   2.017  1.0501  0.7143 -2.6579
 1825TIP3   OH226965   0.215   1.365   5.504 -0.3043  0.5247 -0.0580
 1825TIP3    H126966   0.123   1.382   5.483  0.0719  1.8777 -0.6931
 1825TIP3    H226967   0.263   1.394   5.427  0.7003  0.2532  0.4505
 1826TIP3   OH226968   3.130   0.675  12.924 -0.4987  0.3117  0.6299
 1826TIP3    H126969   3.133   0.769  12.910 -1.8643  0.3417  0.3583
 1826TIP3    H226970   3.152   0.637  12.839 -1.1521  0.4037  0.4181
 1827TIP3   OH226971   2.932   6.782   2.827  0.1310 -0.1139 -0.5087
 1827TIP3    H126972   2.897   6.712   2.882 -1.1074  1.2083  0.5058
 1827TIP3    H226973   2.863   6.798   2.762  0.3458  0.2166 -0.6590
 1828TIP3   OH226974   1.870   3.534  11.928 -0.1392 -0.4892  0.1148
 1828TIP3    H126975   1.928   3.599  11.889 -1.7939  0.6899 -0.4766
 1828TIP3    H226976   1.890   3.453  11.882  1.9497 -0.4546  0.8530
 1829TIP3   OH226977   4.622   4.857  17.103 -0.7473  0.0287 -0.1803
 1829TIP3    H126978   4.650   4.906  17.026  2.0753 -1.5010 -0.2684
 1829TIP3    H226979   4.661   4.903  17.177 -1.2967  0.0584  0.0944
 1830TIP3   OH226980   1.879   2.959   0.871 -0.3115  0.3831  0.8208
 1830TIP3    H126981   1.821   2.883   0.876  1.4167 -1.1227 -0.6133
 1830TIP3    H226982   1.961   2.924   0.837  1.4064  2.4651  2.5511
 1831TIP3   OH226983   1.960   6.073   5.400 -0.1502 -0.0485  0.5416
 1831TIP3    H126984   1.968   6.055   5.306 -0.3429  1.9525  0.0829
 1831TIP3    H226985   2.015   6.007   5.442  1.8203  0.4165 -1.1246
 1832TIP3   OH226986   1.759   0.416   3.240  0.5161 -0.3281  0.0971
 1832TIP3    H126987   1.665   0.431   3.252  0.7630  1.4438 -0.0478
 1832TIP3    H226988   1.767   0.378   3.153  0.0189  0.6038 -0.3661
 1833TIP3   OH226989   3.787   5.192  11.859  0.3798 -0.1015  0.2153
 1833TIP3    H126990   3.798   5.098  11.852 -1.5801 -0.3217 -0.4886
 1833TIP3    H226991   3.763   5.207  11.951  1.6477 -0.1454  0.5702
 1834TIP3   OH226992   5.427   3.186  15.191  0.3402  0.2733  0.1460
 1834TIP3    H126993   5.501   3.138  15.154  0.5276  0.2779  0.5190
 1834TIP3    H226994   5.363   3.119  15.213  1.1282  0.0390  1.9165
 1835TIP3   OH226995   5.122   6.067  14.278  0.0999  0.3246  0.0666
 1835TIP3    H126996   5.124   6.117  14.197 -0.5977 -0.7582 -0.6612
 1835TIP3    H226997   5.048   6.006  14.266 -0.1161  0.2495  1.5788
 1836TIP3   OH226998   0.490   1.838   2.097 -0.0497  0.4690  0.0108
 1836TIP3    H126999   0.441   1.919   2.112 -0.9066  0.0884 -0.6593
 1836TIP3    H227000   0.439   1.770   2.141  0.5126  0.2330  0.3214
 1837TIP3   OH227001   1.804   2.068  12.736  0.3627 -0.2515 -0.0527
 1837TIP3    H127002   1.771   2.104  12.819 -0.1240  1.2538 -0.8613
 1837TIP3    H227003   1.899   2.078  12.743  0.2992  0.2808  0.1645
 1838TIP3   OH227004   3.383   2.916  13.195 -0.3185  0.1439  0.2804
 1838TIP3    H127005   3.424   3.000  13.174 -1.1451  0.3066 -0.7749
 1838TIP3    H227006   3.372   2.873  13.110 -1.0960 -0.4670  0.6738
 1839TIP3   OH227007   2.674   6.467  13.561  0.5133 -0.2218 -0.1065
 1839TIP3    H127008   2.714   6.401  13.504  2.5032 -0.0506  1.0199
 1839TIP3    H227009   2.709   6.449  13.648 -2.2321 -0.2875  1.0819
 1840TIP3   OH227010   3.102   3.674   4.174  0.1397 -0.0648 -0.2366
 1840TIP3    H127011   3.076   3.618   4.101  0.0479 -0.1791 -0.1163
 1840TIP3    H227012   3.105   3.615   4.250 -1.8041  0.4277  0.2875
 1841TIP3   OH227013   3.117   6.433   6.417  0.3163  0.0741 -0.0009
 1841TIP3    H127014   3.212   6.434   6.409  0.2455  0.6033 -1.0874
 1841TIP3    H227015   3.089   6.509   6.365 -0.7802 -0.9949 -1.0169
 1842TIP3   OH227016   0.499   0.369  13.771 -0.1730  0.1294 -0.1802
 1842TIP3    H127017   0.564   0.430  13.736 -1.3434  1.1940 -0.5831
 1842TIP3    H227018   0.418   0.393  13.726 -0.8208 -1.2436  0.2183
 1843TIP3   OH227019   4.928   4.715  12.638 -0.7450  0.7814  0.0611
 1843TIP3    H127020   4.838   4.718  12.607 -1.1712 -0.3985  1.0969
 1843TIP3    H227021   4.941   4.624  12.666  1.3100  0.4882 -1.6250
 1844TIP3   OH227022   4.278   4.315   6.439 -0.0482 -0.3830  0.2585
 1844TIP3    H127023   4.333   4.314   6.360 -1.1020 -1.3256 -0.5142
 1844TIP3    H227024   4.247   4.405   6.445  1.1401  0.0328  0.4043
 1845TIP3   OH227025   5.133   5.831  11.477 -0.1073 -0.2277 -0.6735
 1845TIP3    H127026   5.210   5.846  11.422  1.3190  2.9563  1.8320
 1845TIP3    H227027   5.150   5.746  11.518  2.2509  0.4251 -0.1155
 1846TIP3   OH227028   6.170   4.145  14.721  0.4126 -0.0807 -0.3576
 1846TIP3    H127029   6.107   4.217  14.718 -0.0389 -0.4862 -0.6260
 1846TIP3    H227030   6.187   4.133  14.815  0.9874  0.7959 -0.3309
 1847TIP3   OH227031   3.434   1.417  15.362  0.8347 -0.4211 -0.7021
 1847TIP3    H127032   3.496   1.481  15.328 -1.1140  2.8906  1.4473
 1847TIP3    H227033   3.380   1.394  15.287  0.8157  1.4959 -1.3260
 1848TIP3   OH227034   1.003   6.640   1.299 -0.7843  0.4884 -0.4744
 1848TIP3    H127035   0.958   6.566   1.339  0.9078 -0.3232 -0.0093
 1848TIP3    H227036   1.025   6.610   1.211  2.5137 -0.8001  0.6341
 1849TIP3   OH227037   5.788   6.532  11.145  0.2750 -0.2611 -0.0088
 1849TIP3    H127038   5.719   6.500  11.086 -0.3504  0.8446  0.0883
 1849TIP3    H227039   5.856   6.465  11.141 -0.5638 -1.1062 -0.5506
 1850TIP3   OH227040   0.013   2.726   2.948 -0.9567  0.4269  0.2325
 1850TIP3    H127041   0.098   2.746   2.908  0.6669 -1.1345  2.6179
 1850TIP3    H227042   0.013   2.776   3.029 -0.9061 -1.8458  1.7195
 1851TIP3   OH227043   5.488   3.667   4.289 -0.5755  0.2300  0.1287
 1851TIP3    H127044   5.426   3.602   4.256  1.0710 -2.0004  1.1544
 1851TIP3    H227045   5.484   3.658   4.384  1.1735  0.0964  0.2331
 1852TIP3   OH227046   5.812   4.092   5.023 -0.2922 -0.5352 -0.3183
 1852TIP3    H127047   5.852   4.163   5.074 -0.7943 -0.2833 -0.2680
 1852TIP3    H227048   5.883   4.030   5.009 -0.2658 -0.8593  1.1208
 1853TIP3   OH227049   0.973   3.614  11.298 -0.1051 -0.4816 -0.3727
 1853TIP3    H127050   0.979   3.527  11.339  0.5214 -0.7553 -1.0159
 1853TIP3    H227051   1.062   3.632  11.269  0.3198  1.4537  1.8724
 1854TIP3   OH227052   2.420   2.977  13.061  0.1969 -0.2192  0.5631
 1854TIP3    H127053   2.388   3.017  13.141 -0.4477 -0.6015  0.5049
 1854TIP3    H227054   2.420   3.048  12.997  3.6408  0.8977  1.5948
 1855TIP3   OH227055   4.033   3.985   1.193 -0.2606  0.0843 -0.0180
 1855TIP3    H127056   3.940   3.961   1.192 -0.5075  0.7113  1.9883
 1855TIP3    H227057   4.044   4.030   1.277  2.1965 -1.3305  0.4977
 1856TIP3   OH227058   3.207   5.112  16.433 -0.4472 -0.4447 -0.1843
 1856TIP3    H127059   3.206   5.069  16.348 -0.8254 -1.4594  0.3092
 1856TIP3    H227060   3.250   5.049  16.491  0.8947  0.7303  0.1382
 1857TIP3   OH227061   5.538   3.987  16.219 -0.5036 -0.2765  0.5642
 1857TIP3    H127062   5.516   4.019  16.307  0.8193  1.8019  0.2068
 1857TIP3    H227063   5.632   3.970  16.224 -0.1111  1.2628 -0.8016
 1858TIP3   OH227064   4.738   2.986   0.346 -0.8010 -0.0420 -0.1688
 1858TIP3    H127065   4.723   3.081   0.352 -0.2068  0.0348  0.2681
 1858TIP3    H227066   4.822   2.979   0.300  0.0668 -0.2800  1.3926
 1859TIP3   OH227067   0.749   5.984   4.385  0.5654 -0.4440 -0.0031
 1859TIP3    H127068   0.760   5.982   4.290 -1.8813  0.8844 -0.4152
 1859TIP3    H227069   0.782   6.069   4.411 -0.6582  0.0643 -0.0258
 1860TIP3   OH227070   0.969   1.693   2.401 -0.6102  0.5703 -0.3571
 1860TIP3    H127071   0.924   1.760   2.452 -0.5086  0.4057 -0.0447
 1860TIP3    H227072   0.965   1.615   2.456  0.0768  0.5585 -0.3123
 1861TIP3   OH227073   4.181   6.343  10.805  0.2654 -0.1817  0.0423
 1861TIP3    H127074   4.273   6.369  10.791 -0.5790  2.2835 -1.7936
 1861TIP3    H227075   4.161   6.287  10.730  0.3369 -0.9761  0.6104
 1862TIP3   OH227076   3.903   5.190  12.741  0.6332  0.1601 -0.0047
 1862TIP3    H127077   3.962   5.265  12.729  0.4517  0.1724 -0.8467
 1862TIP3    H227078   3.822   5.228  12.774  0.3652  0.4083 -0.9243
 1863TIP3   OH227079   4.261   3.189   0.730  0.1956 -0.4214  0.1558
 1863TIP3    H127080   4.212   3.137   0.794  1.7998 -0.4451  1.4107
 1863TIP3    H227081   4.342   3.214   0.775  0.3440  1.5526 -1.0673
 1864TIP3   OH227082   0.417   0.762   1.495 -0.1568 -0.0109 -0.1639
 1864TIP3    H127083   0.472   0.695   1.536 -0.6025 -1.0751 -1.2680
 1864TIP3    H227084   0.370   0.716   1.426 -1.2384  1.2313 -0.2898
 1865TIP3   OH227085   3.846   6.327   1.162  0.3408 -0.3280 -0.1110
 1865TIP3    H127086   3.925   6.331   1.109 -0.5069  2.3183 -1.3748
 1865TIP3    H227087   3.863   6.388   1.234  0.2805 -1.4957  0.9201
 1866TIP3   OH227088   6.655   4.349   1.640  0.0815 -0.1502  0.6842
 1866TIP3    H127089   6.731   4.400   1.668  0.5065  0.2522 -1.0323
 1866TIP3    H227090   6.660   4.268   1.691  1.2588  0.1746  1.1149
 1867TIP3   OH227091   5.139   3.224   0.140  0.2082 -0.1082 -0.2507
 1867TIP3    H127092   5.216   3.273   0.168 -0.4664  1.5022 -1.0480
 1867TIP3    H227093   5.174   3.150   0.091  1.2663  0.0465  0.2421
 1868TIP3   OH227094   3.290   5.729   0.417  0.1694  0.0861 -0.5060
 1868TIP3    H127095   3.347   5.663   0.377  2.7077  1.2501  0.9086
 1868TIP3    H227096   3.351   5.797   0.448 -2.0666  1.6474  0.7372
 1869TIP3   OH227097   2.810   4.431   3.785 -0.0957  0.0609  0.3410
 1869TIP3    H127098   2.795   4.338   3.766 -0.3636  0.1372  0.1660
 1869TIP3    H227099   2.847   4.432   3.873 -0.4118 -0.1914  0.4800
 1870TIP3   OH227100   5.228   3.956   6.198 -0.0162 -0.1394 -0.1880
 1870TIP3    H127101   5.310   3.985   6.157 -0.5855  0.4304 -0.9349
 1870TIP3    H227102   5.219   3.865   6.169  0.3403 -0.2009 -0.1187
 1871TIP3   OH227103   0.720   4.273   1.902  0.0726  0.2696 -0.0342
 1871TIP3    H127104   0.730   4.313   1.815  0.4942 -0.1595 -0.1891
 1871TIP3    H227105   0.798   4.218   1.912  1.2262  2.0226  1.5514
 1872TIP3   OH227106   4.278   5.798  11.439 -0.0287  0.1727  0.3567
 1872TIP3    H127107   4.293   5.704  11.432 -0.9598  0.0426  0.0869
 1872TIP3    H227108   4.292   5.832  11.351 -0.2533  0.2143  0.3385
 1873TIP3   OH227109   2.746   5.551  11.259  0.3066  0.5692 -0.8121
 1873TIP3    H127110   2.790   5.527  11.178 -0.6176  1.1865 -1.5116
 1873TIP3    H227111   2.808   5.607  11.304  2.1881 -2.2960  0.4888
 1874TIP3   OH227112   1.675   1.089  13.097 -0.3206  0.3679 -0.0276
 1874TIP3    H127113   1.673   1.063  13.189 -0.3477 -2.2153 -0.6781
 1874TIP3    H227114   1.589   1.066  13.063 -0.1814  0.9377 -0.8010
 1875TIP3   OH227115   1.424   5.668   5.314 -0.0457 -0.2278  0.2963
 1875TIP3    H127116   1.402   5.590   5.263 -0.4228 -1.0715  1.6876
 1875TIP3    H227117   1.501   5.704   5.271  0.1589 -1.3949 -0.3481
 1876TIP3   OH227118   3.733   4.451   1.859  0.4015  0.2758 -0.5858
 1876TIP3    H127119   3.659   4.501   1.894  0.5424  0.6462 -0.8172
 1876TIP3    H227120   3.692   4.385   1.803  0.0984 -1.0258  1.0876
 1877TIP3   OH227121   5.614   5.199  14.432  0.7732  0.1170  0.3966
 1877TIP3    H127122   5.595   5.292  14.432  0.7812  0.1341 -0.7711
 1877TIP3    H227123   5.707   5.193  14.454  0.6612  0.3522  0.9373
 1878TIP3   OH227124   3.138   4.495   3.801 -0.1109 -0.2159  0.1696
 1878TIP3    H127125   3.186   4.535   3.873 -0.1970  0.4011 -0.1157
 1878TIP3    H227126   3.136   4.561   3.733  1.7582 -1.5138 -1.2313
 1879TIP3   OH227127   2.517   2.022  16.256 -0.6667  0.4534  0.5667
 1879TIP3    H127128   2.453   2.094  16.256 -0.8720  0.2739 -0.0108
 1879TIP3    H227129   2.472   1.950  16.212 -0.4947 -0.0642  1.2304
 1880TIP3   OH227130   5.022   2.924   0.920 -0.9167  0.1814 -0.1583
 1880TIP3    H127131   5.090   2.942   0.856 -0.0041 -0.7236  0.5125
 1880TIP3    H227132   4.998   2.833   0.904 -1.8378  0.4294 -0.2509
 1881TIP3   OH227133   1.804   2.748   4.657  0.2431 -0.7379  0.2927
 1881TIP3    H127134   1.849   2.751   4.573  0.9732  0.4140  0.6911
 1881TIP3    H227135   1.784   2.656   4.671 -0.1529 -0.9207 -1.2708
 1882TIP3   OH227136   6.702   5.696   4.909 -0.0841 -0.3986  0.1789
 1882TIP3    H127137   6.671   5.738   4.990  0.6311 -0.2933  0.4007
 1882TIP3    H227138   6.622   5.666   4.866 -0.5119  0.0407  0.6534
 1883TIP3   OH227139   3.636   1.565   0.227 -1.0303 -0.3315 -0.5514
 1883TIP3    H127140   3.597   1.649   0.200  0.6369  0.0428 -2.0576
 1883TIP3    H227141   3.653   1.520   0.144  1.7220 -0.4093 -0.0419
 1884TIP3   OH227142   5.015   5.116  13.051 -0.5472 -0.3820 -0.1012
 1884TIP3    H127143   5.060   5.200  13.042 -2.6369  0.8720  0.5173
 1884TIP3    H227144   5.029   5.071  12.968  0.4204  0.6615 -0.5171
 1885TIP3   OH227145   3.262   4.489  12.198 -0.5050  0.2608 -0.0038
 1885TIP3    H127146   3.357   4.493  12.192 -0.4654 -0.8320 -0.2940
 1885TIP3    H227147   3.231   4.509  12.109 -0.6109  1.7884  0.3486
 1886TIP3   OH227148   2.976   1.458  14.484 -0.6079  0.0735  0.1245
 1886TIP3    H127149   2.952   1.550  14.500 -0.7849  0.0488 -0.0006
 1886TIP3    H227150   2.895   1.417  14.455 -0.4764 -0.0711 -0.0410
 1887TIP3   OH227151   1.512   4.059  11.239  0.5428 -0.0436 -0.0071
 1887TIP3    H127152   1.451   4.035  11.168  1.6255  1.0752 -1.3765
 1887TIP3    H227153   1.487   4.148  11.263 -0.4453 -0.7522  1.7615
 1888TIP3   OH227154   6.539   6.356   0.540 -0.6955 -0.4200  0.1300
 1888TIP3    H127155   6.444   6.364   0.535 -0.5695  0.8117 -2.2427
 1888TIP3    H227156   6.571   6.440   0.506  1.2465 -0.7204  1.1063
 1889TIP3   OH227157   5.274   2.807  12.452 -0.4087  0.6158  0.1240
 1889TIP3    H127158   5.365   2.795  12.424 -1.2972 -1.1503 -2.3248
 1889TIP3    H227159   5.245   2.719  12.477 -1.7995  0.9125 -0.3685
 1890TIP3   OH227160   4.710   2.132  12.169  0.4285 -0.3515  0.2338
 1890TIP3    H127161   4.631   2.090  12.204 -0.2599 -0.6615 -1.5830
 1890TIP3    H227162   4.772   2.130  12.241 -1.6428  1.1198  2.1914
 1891TIP3   OH227163   2.047   5.393   5.779  0.0582 -0.4280  0.0019
 1891TIP3    H127164   1.954   5.396   5.756  0.4633 -0.4041 -1.8466
 1891TIP3    H227165   2.056   5.453   5.853 -1.5014 -0.9754  0.6585
 1892TIP3   OH227166   3.935   5.410   0.503 -0.0157 -0.0785 -0.2611
 1892TIP3    H127167   3.930   5.320   0.469 -0.2771 -0.3422  0.4586
 1892TIP3    H227168   3.847   5.445   0.490  0.0445  0.0247 -0.3955
 1893TIP3   OH227169   0.760   6.799  14.859  0.3557 -0.5387  0.4013
 1893TIP3    H127170   0.669   6.790  14.831  0.3830 -2.4968  0.8105
 1893TIP3    H227171   0.810   6.754  14.791  0.9085 -0.5925  0.8387
 1894TIP3   OH227172   1.538   2.524  16.990  0.3061  0.0786  0.0969
 1894TIP3    H127173   1.501   2.612  16.977  1.5856  0.5111 -0.7427
 1894TIP3    H227174   1.466   2.465  16.969  0.4109  0.8721 -2.8414
 1895TIP3   OH227175   3.555   2.716  13.322  0.1982 -0.4181  0.0967
 1895TIP3    H127176   3.586   2.661  13.250 -1.7835 -1.3200 -0.1401
 1895TIP3    H227177   3.495   2.779  13.281  2.6146  2.2426  0.3130
 1896TIP3   OH227178   6.581   2.503  10.884 -0.4740  0.9629 -0.0013
 1896TIP3    H127179   6.533   2.420  10.881 -3.8212  2.7122 -0.9285
 1896TIP3    H227180   6.641   2.500  10.810 -2.6278  0.3894 -1.8365
 1897TIP3   OH227181   5.875   3.430  15.292 -0.2569  0.2421  0.1341
 1897TIP3    H127182   5.859   3.481  15.372  0.3901 -1.5710  1.4718
 1897TIP3    H227183   5.969   3.439  15.277 -0.7267  2.8076 -2.0796
 1898TIP3   OH227184   6.428   0.077   1.946 -0.4300  0.0601  0.0106
 1898TIP3    H127185   6.432   0.173   1.945  0.4416  0.0449  0.7339
 1898TIP3    H227186   6.517   0.049   1.965 -0.5525 -0.9274 -0.7759
 1899TIP3   OH227187   3.182   0.300  12.604 -0.3374 -0.1510 -0.0635
 1899TIP3    H127188   3.205   0.241  12.533 -0.2825  0.2429 -0.3732
 1899TIP3    H227189   3.089   0.284  12.620 -0.5776  0.4206 -0.8469
 1900TIP3   OH227190   2.050   1.089   4.242  0.2128 -0.4389  0.4456
 1900TIP3    H127191   2.139   1.055   4.254  0.2033 -0.7585 -0.3043
 1900TIP3    H227192   2.062   1.184   4.238  0.3709 -0.4098  1.5045
 1901TIP3   OH227193   1.045   0.273   4.750  0.4093 -0.1793 -0.1433
 1901TIP3    H127194   1.116   0.336   4.759  1.4743 -1.3172 -0.2992
 1901TIP3    H227195   0.985   0.294   4.822  1.0974  0.5419  0.2324
 1902TIP3   OH227196   2.952   2.758  13.288  0.3558 -0.1605 -0.2725
 1902TIP3    H127197   2.993   2.786  13.206 -0.1458  2.7061  0.3559
 1902TIP3    H227198   3.025   2.744  13.348  0.6101  1.9795 -0.0237
 1903TIP3   OH227199   6.015   6.291  15.217  0.5784 -0.1142 -0.6696
 1903TIP3    H127200   5.974   6.359  15.270  3.0209  0.3074  0.8369
 1903TIP3    H227201   6.109   6.312  15.220  1.0353 -1.3768 -3.3502
 1904TIP3   OH227202   1.685   5.811   2.804 -0.1072 -0.3982 -0.0322
 1904TIP3    H127203   1.596   5.846   2.806 -0.2833 -0.7957 -0.7264
 1904TIP3    H227204   1.741   5.889   2.798 -0.3746 -0.1228  0.9508
 1905TIP3   OH227205   1.016   1.317   6.523 -0.1383  0.2936  0.0293
 1905TIP3    H127206   0.967   1.316   6.441  1.5723 -2.1971 -1.0950
 1905TIP3    H227207   1.074   1.394   6.515 -0.3032  0.3396 -0.9014
 1906TIP3   OH227208   6.803   4.008   4.335  0.0946  0.1165 -0.2870
 1906TIP3    H127209   6.861   4.067   4.287  0.0365 -0.7216 -1.4393
 1906TIP3    H227210   6.861   3.957   4.392  0.0834  1.6490  1.1768
 1907TIP3   OH227211   0.900   5.185   5.770  0.3223  0.8255 -0.0445
 1907TIP3    H127212   0.863   5.104   5.733  0.9923  0.3271  0.3616
 1907TIP3    H227213   0.827   5.224   5.817  0.5909 -0.8327  1.8766
 1908TIP3   OH227214   1.886   0.953  14.967  0.3147  0.6490  0.3081
 1908TIP3    H127215   1.830   0.973  15.042 -1.0806  2.4194 -1.1005
 1908TIP3    H227216   1.856   0.867  14.936  0.4723  0.2041  1.3430
 1909TIP3   OH227217   2.493   2.803  16.741 -0.4391 -0.2633 -0.0552
 1909TIP3    H127218   2.515   2.761  16.824  0.7377  0.9720  0.2830
 1909TIP3    H227219   2.480   2.895  16.763 -0.0755  0.0967 -1.2431
 1910TIP3   OH227220   6.605   4.964   2.411 -0.5681  0.1203  0.2498
 1910TIP3    H127221   6.527   4.945   2.463 -3.2832  1.0546 -3.1087
 1910TIP3    H227222   6.616   4.886   2.356 -0.1059  0.5931 -0.3397
 1911TIP3   OH227223   4.029   5.124  16.155  0.2454 -0.3033  0.4512
 1911TIP3    H127224   4.059   5.189  16.218 -1.8684  1.4365 -0.1961
 1911TIP3    H227225   4.015   5.045  16.208  0.3985  0.5206  1.7861
 1912TIP3   OH227226   5.428   4.547   4.023  0.1724 -0.3432 -0.2141
 1912TIP3    H127227   5.416   4.590   3.938 -0.0568  0.5877  0.2735
 1912TIP3    H227228   5.341   4.546   4.062 -0.1425 -2.7371 -0.8738
 1913TIP3   OH227229   5.435   1.633   5.545  0.4452 -0.1670  0.7526
 1913TIP3    H127230   5.432   1.567   5.475  0.1601  0.7829 -0.1693
 1913TIP3    H227231   5.354   1.683   5.534  0.5727  0.2251  1.5424
 1914TIP3   OH227232   4.543   4.513   4.647  0.3063 -0.0740 -0.2095
 1914TIP3    H127233   4.545   4.440   4.585  1.4196  0.1740 -0.4813
 1914TIP3    H227234   4.634   4.539   4.656 -0.1652  2.0706 -1.0457
 1915TIP3   OH227235   2.771   4.423   2.226  0.2384  0.6834  0.3597
 1915TIP3    H127236   2.859   4.456   2.247  0.8284 -0.4865 -0.1966
 1915TIP3    H227237   2.746   4.471   2.148  0.9066  0.1638 -0.1886
 1916TIP3   OH227238   1.224   1.754  12.075  0.0525  0.1001  0.3990
 1916TIP3    H127239   1.159   1.778  12.009 -1.1809 -0.6737  1.2844
 1916TIP3    H227240   1.253   1.666  12.050  1.0794  0.5868 -0.2052
 1917TIP3   OH227241   0.889   2.948  11.015 -0.1121  0.6029 -0.5213
 1917TIP3    H127242   0.953   2.882  10.987  0.4654  1.0811 -0.3494
 1917TIP3    H227243   0.834   2.962  10.938 -1.2425 -1.2219 -0.0846
 1918TIP3   OH227244   4.140   5.687   5.702 -0.2438  0.0578 -0.4113
 1918TIP3    H127245   4.208   5.729   5.649  0.6449 -0.0863  0.5929
 1918TIP3    H227246   4.082   5.646   5.637 -1.2715  2.9263 -1.4477
 1919TIP3   OH227247   6.678   2.687  17.127  0.2416  0.6664  0.8812
 1919TIP3    H127248   6.590   2.717  17.105  0.1102 -1.2830 -1.7009
 1919TIP3    H227249   6.727   2.768  17.143 -1.6484  1.8610  0.9219
 1920TIP3   OH227250   2.571   4.325  11.244 -0.2511  0.1787 -0.2812
 1920TIP3    H127251   2.529   4.317  11.158 -0.7518 -1.9996  0.0989
 1920TIP3    H227252   2.633   4.252  11.247 -0.9881 -0.4389  1.5643
 1921TIP3   OH227253   2.194   6.721   6.400 -0.7531  0.3955  0.1658
 1921TIP3    H127254   2.120   6.781   6.409 -0.5306  0.6472  0.3441
 1921TIP3    H227255   2.242   6.730   6.482  0.0323  1.0002 -0.3456
 1922TIP3   OH227256   1.280   2.272  14.139  0.6873  0.1911  0.0602
 1922TIP3    H127257   1.231   2.254  14.220 -0.5860  2.2911 -0.1647
 1922TIP3    H227258   1.322   2.189  14.118 -1.1668 -1.1862  1.3917
 1923TIP3   OH227259   1.158   5.160   4.295  0.1325  0.3972 -0.0700
 1923TIP3    H127260   1.239   5.110   4.305  0.6127  1.0866 -0.4117
 1923TIP3    H227261   1.186   5.251   4.291 -0.8188  0.7955  1.5736
 1924TIP3   OH227262   0.892   4.043   5.589  0.6229 -0.2700 -0.2625
 1924TIP3    H127263   0.830   3.998   5.645  0.1197 -1.0012 -1.3663
 1924TIP3    H227264   0.965   3.982   5.580 -0.3367 -1.2017 -2.2725
 1925TIP3   OH227265   6.442   0.557   2.998  0.8478  0.1930 -0.3050
 1925TIP3    H127266   6.479   0.645   3.007  0.0657  0.4287  0.7891
 1925TIP3    H227267   6.416   0.532   3.087  0.4342 -0.8780 -0.7011
 1926TIP3   OH227268   3.588   1.386   5.370 -0.1251  0.3586 -0.1060
 1926TIP3    H127269   3.623   1.325   5.304 -0.5460  0.7799 -0.7357
 1926TIP3    H227270   3.641   1.465   5.359  1.0943 -0.2046  1.3957
 1927TIP3   OH227271   6.120   0.206  11.419  0.2851 -0.0507 -0.2392
 1927TIP3    H127272   6.037   0.254  11.414  0.8671  0.9499 -0.6898
 1927TIP3    H227273   6.115   0.158  11.502 -0.9644 -0.4322 -0.5253
 1928TIP3   OH227274   5.925   4.330  12.201 -0.1006 -0.4036 -0.3780
 1928TIP3    H127275   6.020   4.323  12.197 -0.0707  0.0674 -0.5894
 1928TIP3    H227276   5.894   4.280  12.125  0.0334  0.3727 -0.9540
 1929TIP3   OH227277   4.310   6.702   0.570  0.3764  0.1452 -0.0372
 1929TIP3    H127278   4.236   6.661   0.525 -0.4367 -0.3250  1.6829
 1929TIP3    H227279   4.271   6.759   0.636  1.5385 -0.3005  1.0764
 1930TIP3   OH227280   5.247   5.580  14.466  0.0119  0.1184  0.6743
 1930TIP3    H127281   5.270   5.552  14.554 -0.4088 -1.3156  0.3436
 1930TIP3    H227282   5.155   5.604  14.470 -0.1863 -0.6040  0.4728
 1931TIP3   OH227283   5.649   4.580   1.874  0.4212  0.4907 -0.2919
 1931TIP3    H127284   5.598   4.648   1.829 -0.5488 -1.1401 -1.7492
 1931TIP3    H227285   5.615   4.580   1.963 -0.2535  1.2327 -0.5344
 1932TIP3   OH227286   4.640   2.675   5.968 -0.4786 -0.1961  0.3870
 1932TIP3    H127287   4.571   2.611   5.984 -1.4781  0.3626 -1.3870
 1932TIP3    H227288   4.595   2.760   5.971  0.2213  0.2155 -0.2522
 1933TIP3   OH227289   2.698   6.626   0.059 -0.0555 -0.2293 -0.1618
 1933TIP3    H127290   2.623   6.683   0.073  0.3570  0.0544  1.0202
 1933TIP3    H227291   2.674   6.543   0.100  0.0184 -0.3523 -0.3639
 1934TIP3   OH227292   4.082   3.945   4.455  0.0534  0.4830 -0.0066
 1934TIP3    H127293   4.053   3.873   4.399  0.7213 -0.9493  1.4073
 1934TIP3    H227294   4.000   3.988   4.483 -0.4275 -0.3854 -0.0455
 1935TIP3   OH227295   4.942   2.360  16.495 -0.0801  0.1483  0.1030
 1935TIP3    H127296   4.972   2.401  16.414  1.4699 -0.1117  0.5264
 1935TIP3    H227297   4.978   2.414  16.565  1.7356 -1.6787  0.6650
 1936TIP3   OH227298   4.180   5.654   6.430 -0.5048  0.7364  0.2823
 1936TIP3    H127299   4.173   5.597   6.506 -0.2677 -1.0567 -0.9666
 1936TIP3    H227300   4.216   5.736   6.464 -0.7677  0.1207  2.1404
 1937TIP3   OH227301   5.670   0.270  13.623 -0.0319 -0.3207  0.4531
 1937TIP3    H127302   5.650   0.182  13.656 -0.6692 -0.2380  0.3155
 1937TIP3    H227303   5.756   0.291  13.659  0.4903 -1.3253 -0.1529
 1938TIP3   OH227304   2.528   1.914   0.936  0.4008  0.0141 -0.1645
 1938TIP3    H127305   2.590   1.937   0.867  0.2794  1.8303  0.2982
 1938TIP3    H227306   2.576   1.854   0.993  1.5664  0.9543 -0.1256
 1939TIP3   OH227307   2.811   5.123   4.532 -0.3287 -0.3657 -0.1060
 1939TIP3    H127308   2.765   5.054   4.579 -0.1665  0.3222  1.0794
 1939TIP3    H227309   2.764   5.203   4.553 -1.8594 -0.3156 -3.1998
 1940TIP3   OH227310   0.894   0.981  14.061 -0.7278 -0.1536 -0.0142
 1940TIP3    H127311   0.939   0.945  14.138  1.7219  0.4404 -1.0881
 1940TIP3    H227312   0.882   0.906  14.003 -0.7051 -0.2205  0.0676
 1941TIP3   OH227313   0.498   4.819   4.127  0.4901  0.9132 -0.5497
 1941TIP3    H127314   0.485   4.778   4.042  1.1299  0.9289 -0.6581
 1941TIP3    H227315   0.416   4.865   4.144 -0.2127 -0.3392 -0.4625
 1942TIP3   OH227316   1.187   4.151   5.479  0.2455  0.1866  0.3550
 1942TIP3    H127317   1.207   4.201   5.400  2.4189 -1.2038 -0.0393
 1942TIP3    H227318   1.271   4.136   5.521 -0.6694 -0.6455  2.0099
 1943TIP3   OH227319   5.888   2.849  16.806  0.5662  0.0917 -0.2040
 1943TIP3    H127320   5.935   2.905  16.744  2.2209  0.1735  1.0612
 1943TIP3    H227321   5.855   2.910  16.872  0.9398 -0.2414  0.2953
 1944TIP3   OH227322   3.660   3.088   0.846 -0.2192 -0.1094 -0.6445
 1944TIP3    H127323   3.602   3.024   0.805 -1.4900 -0.1036  1.0228
 1944TIP3    H227324   3.602   3.160   0.870  0.5720  0.1351  0.6048
 1945TIP3   OH227325   6.540   3.957  12.451 -0.0654  0.2526  0.3557
 1945TIP3    H127326   6.490   3.970  12.531 -0.5492 -0.8067  0.2437
 1945TIP3    H227327   6.528   3.864  12.430  1.2212  0.1769 -0.1639
 1946TIP3   OH227328   0.729   5.680  13.276 -0.2561 -0.3009 -0.2518
 1946TIP3    H127329   0.819   5.649  13.283  0.2565  1.1027 -0.3578
 1946TIP3    H227330   0.697   5.680  13.366  0.6233  1.3323  0.0973
 1947TIP3   OH227331   2.827   4.311  11.824 -0.2578 -0.0592 -0.1355
 1947TIP3    H127332   2.852   4.285  11.735  1.1352 -1.0667  0.4981
 1947TIP3    H227333   2.886   4.261  11.881 -0.7136  0.9954  1.3440
 1948TIP3   OH227334   0.059   0.869  15.783 -0.5235 -0.2039 -0.4650
 1948TIP3    H127335  -0.017   0.813  15.796 -0.0653 -1.0024 -1.0895
 1948TIP3    H227336   0.128   0.829  15.835  0.4534 -1.6351 -2.6955
 1949TIP3   OH227337   1.620   5.772   4.375 -0.1121 -0.2773 -0.5074
 1949TIP3    H127338   1.551   5.756   4.311  0.0102 -1.2593 -0.4054
 1949TIP3    H227339   1.694   5.720   4.345 -0.5628 -2.0741  1.2608
 1950TIP3   OH227340   1.124   3.884  12.073  0.3933  0.1293  0.3643
 1950TIP3    H127341   1.197   3.943  12.056  0.1156  0.3652 -0.0335
 1950TIP3    H227342   1.079   3.876  11.989  1.1985 -1.7273  0.0633
 1951TIP3   OH227343   1.008   5.735  10.393  0.7525  0.2776  0.0004
 1951TIP3    H127344   0.978   5.659  10.344  0.6953 -0.0789  0.5730
 1951TIP3    H227345   0.995   5.711  10.485  0.3082  1.1517  0.1799
 1952TIP3   OH227346   6.738   1.986   5.902  0.3931 -0.4385 -0.0458
 1952TIP3    H127347   6.695   1.900   5.902 -0.5135 -0.0178  0.7276
 1952TIP3    H227348   6.756   2.003   5.995 -1.3573  1.0908  0.0864
 1953TIP3   OH227349   1.511   2.987  15.888 -0.1353 -0.0121 -0.7564
 1953TIP3    H127350   1.580   2.920  15.893 -0.4352 -0.2264  1.6906
 1953TIP3    H227351   1.546   3.061  15.936 -2.1044 -0.6839  1.9642
 1954TIP3   OH227352   3.351   4.377  11.873  0.8874 -0.3059 -0.6301
 1954TIP3    H127353   3.329   4.422  11.792 -0.6935 -0.1580 -0.1636
 1954TIP3    H227354   3.377   4.290  11.846 -1.2505 -0.8221 -1.2633
 1955TIP3   OH227355   1.260   1.025  12.723  0.2855  0.0729 -0.2887
 1955TIP3    H127356   1.166   1.030  12.705  0.4017 -0.7331 -1.1908
 1955TIP3    H227357   1.299   1.088  12.661  0.2242  1.8141  1.3465
 1956TIP3   OH227358   1.739   1.956  15.948  0.0191  0.4408 -0.0056
 1956TIP3    H127359   1.693   2.034  15.979  0.9993  0.4472  1.5119
 1956TIP3    H227360   1.787   1.986  15.871  0.0038  1.2098  0.2772
 1957TIP3   OH227361   2.581   3.197   1.040 -0.2108  0.0480 -0.3511
 1957TIP3    H127362   2.502   3.234   1.001  0.3814  0.5730 -1.1043
 1957TIP3    H227363   2.651   3.255   1.010  0.5408 -0.7647 -0.2164
 1958TIP3   OH227364   3.102   2.204  14.987 -0.2614  0.1291 -0.1044
 1958TIP3    H127365   3.105   2.128  15.045 -2.1200  0.1216  0.0488
 1958TIP3    H227366   3.089   2.278  15.046 -2.6359  0.0746 -0.4439
 1959TIP3   OH227367   1.646   4.482  12.748  0.0572  0.0875  0.1796
 1959TIP3    H127368   1.554   4.496  12.725 -0.3560 -0.9416  1.1129
 1959TIP3    H227369   1.645   4.462  12.841  1.2901  0.5052  0.3068
 1960TIP3   OH227370   4.241   5.584   1.606  0.1078  0.8560 -0.1340
 1960TIP3    H127371   4.179   5.654   1.627 -0.9223 -0.0329 -0.1473
 1960TIP3    H227372   4.327   5.621   1.627 -0.5169  1.6905  1.0708
 1961TIP3   OH227373   6.455   2.599  14.825  0.7638  0.0945 -0.3345
 1961TIP3    H127374   6.364   2.604  14.856  0.3375  0.4153 -1.5918
 1961TIP3    H227375   6.501   2.551  14.895 -0.4665 -0.5164  0.0972
 1962TIP3   OH227376   0.998   0.246  11.973 -0.0259  0.3238  0.1497
 1962TIP3    H127377   1.059   0.268  11.903 -0.1879 -2.0640 -0.8301
 1962TIP3    H227378   1.046   0.266  12.053  0.6579  1.8427 -0.5911
 1963TIP3   OH227379   1.185   0.690  17.061  0.0649  0.2797  0.2143
 1963TIP3    H127380   1.237   0.770  17.068  0.3032  0.1877 -0.4516
 1963TIP3    H227381   1.106   0.708  17.112  1.2484 -0.0082  2.2976
 1964TIP3   OH227382   1.718   2.059   5.928 -0.0377  0.4088  0.0900
 1964TIP3    H127383   1.777   2.027   5.860  0.3583 -0.9090  1.0226
 1964TIP3    H227384   1.639   2.086   5.880 -0.3486 -1.8579 -0.8155
 1965TIP3   OH227385   4.916   3.127   2.370 -0.0589 -0.3087  0.5832
 1965TIP3    H127386   4.981   3.058   2.360 -0.6634 -0.6962 -0.9826
 1965TIP3    H227387   4.912   3.170   2.284 -1.1013  0.3804  0.9493
 1966TIP3   OH227388   1.862   0.709   2.307  0.2945  0.7750 -0.6781
 1966TIP3    H127389   1.886   0.641   2.370  0.0490  0.9425 -0.4031
 1966TIP3    H227390   1.781   0.677   2.268  1.7488 -0.5947 -2.7939
 1967TIP3   OH227391   5.592   3.970   4.588 -0.5928  0.0788  0.2898
 1967TIP3    H127392   5.677   3.992   4.550 -1.3177 -1.1059 -2.2676
 1967TIP3    H227393   5.535   4.041   4.561 -1.2747 -1.1157 -1.5978
 1968TIP3   OH227394   3.388   6.828  12.074 -0.9513 -0.8067  0.4474
 1968TIP3    H127395   3.448   6.865  12.009 -0.3625 -1.5930  0.5209
 1968TIP3    H227396   3.394   6.887  12.149 -1.0339 -0.3288  0.0799
 1969TIP3   OH227397   2.424   2.639  15.782  0.1309  0.3414  0.0859
 1969TIP3    H127398   2.513   2.660  15.810 -0.0380  0.0075  0.8870
 1969TIP3    H227399   2.370   2.659  15.858 -0.5816  1.2890 -0.6566
 1970TIP3   OH227400   0.721   4.148   5.889 -0.6985 -0.2171  0.1405
 1970TIP3    H127401   0.637   4.190   5.868  0.2925  0.3648 -3.2217
 1970TIP3    H227402   0.715   4.061   5.850 -0.1061 -0.5832  0.8346
 1971TIP3   OH227403   6.490   6.156   1.017 -0.0734 -0.0669 -0.1177
 1971TIP3    H127404   6.524   6.071   0.988  1.0567  0.7173 -1.1601
 1971TIP3    H227405   6.510   6.158   1.111  2.1182  0.0352 -0.5361
 1972TIP3   OH227406   6.168   2.214   1.384 -0.0356 -0.4887 -0.4280
 1972TIP3    H127407   6.209   2.239   1.301  1.4370  1.7553  0.8634
 1972TIP3    H227408   6.210   2.130   1.406  0.3805 -0.5561 -1.4148
 1973TIP3   OH227409   1.511   4.733   1.433 -0.1901 -0.1248 -0.5805
 1973TIP3    H127410   1.572   4.663   1.455  0.6121  0.5882 -0.4939
 1973TIP3    H227411   1.512   4.791   1.509 -0.7623  0.0531 -0.6986
 1974TIP3   OH227412   5.489   6.712   1.870  0.6121  0.1252 -0.2274
 1974TIP3    H127413   5.517   6.658   1.796 -1.1041 -0.0157 -0.8157
 1974TIP3    H227414   5.532   6.796   1.856 -0.0368  0.2416 -1.6469
 1975TIP3   OH227415   6.013   2.158  15.306  0.3741  0.3924 -0.0446
 1975TIP3    H127416   6.017   2.176  15.400  0.7618 -1.3247  0.3003
 1975TIP3    H227417   6.085   2.209  15.269 -0.1892  1.5987  0.4907
 1976TIP3   OH227418   6.684   4.042  15.872  0.8232 -0.2379  0.0219
 1976TIP3    H127419   6.602   4.049  15.920  0.8824  0.4679  0.0339
 1976TIP3    H227420   6.712   4.133  15.859  2.4181 -0.4581  1.4278
 1977TIP3   OH227421   5.237   3.002  15.296 -1.1907  0.1987  0.4145
 1977TIP3    H127422   5.237   3.020  15.390  1.1025 -3.6237  1.3599
 1977TIP3    H227423   5.148   2.971  15.277 -1.5764  0.6817  1.3777
 1978TIP3   OH227424   4.427   2.570  15.281 -0.9532  0.4103 -0.0136
 1978TIP3    H127425   4.382   2.594  15.361 -0.7364  1.0916 -0.0823
 1978TIP3    H227426   4.498   2.634  15.273  1.6171 -2.0358  1.3810
 1979TIP3   OH227427   5.058   2.839  15.915 -0.4639 -0.5473 -0.4006
 1979TIP3    H127428   5.083   2.931  15.924 -2.8899 -0.0401  2.9748
 1979TIP3    H227429   5.003   2.837  15.836  0.5444  0.5980 -1.1796
 1980TIP3   OH227430   5.301   4.637  15.363 -0.5511 -0.2080  0.2413
 1980TIP3    H127431   5.339   4.617  15.277 -0.3470 -1.8382  0.6762
 1980TIP3    H227432   5.374   4.671  15.415 -0.6205  0.5465 -0.1424
 1981TIP3   OH227433   1.897   2.346  11.165 -0.1008 -0.2253 -0.1977
 1981TIP3    H127434   1.883   2.441  11.171 -0.1094 -0.2860  0.9971
 1981TIP3    H227435   1.835   2.317  11.098  0.3019  0.6818 -1.0003
 1982TIP3   OH227436   3.524   5.159   6.447 -0.5943  0.2928 -0.3171
 1982TIP3    H127437   3.450   5.162   6.387  0.4219 -1.3070 -1.7257
 1982TIP3    H227438   3.558   5.069   6.439  1.4914  0.9731  0.2800
 1983TIP3   OH227439   0.272   1.881   3.369  0.3325 -0.5455  0.7192
 1983TIP3    H127440   0.270   1.925   3.454  1.7924 -0.8254  0.9241
 1983TIP3    H227441   0.286   1.952   3.306 -2.9059 -0.0256  0.4005
 1984TIP3   OH227442   5.064   5.940   3.061  0.0409 -0.2204 -0.3746
 1984TIP3    H127443   5.104   5.987   2.987 -1.5255  0.7456 -0.6523
 1984TIP3    H227444   4.982   5.987   3.078 -0.8843 -1.9899  0.3028
 1985TIP3   OH227445   6.194   3.111   1.860 -0.1014  0.3998 -0.0198
 1985TIP3    H127446   6.252   3.043   1.826  1.1731  1.9681 -1.1116
 1985TIP3    H227447   6.250   3.166   1.914 -1.3656 -0.0148  1.7998
 1986TIP3   OH227448   5.339   4.755   6.193 -0.1993 -0.6508  0.1747
 1986TIP3    H127449   5.340   4.849   6.179 -0.8064 -0.8044 -1.0484
 1986TIP3    H227450   5.258   4.738   6.243 -0.2151 -0.5527  0.1814
 1987TIP3   OH227451   4.132   2.797  16.603  0.4068  0.3214 -0.2858
 1987TIP3    H127452   4.208   2.748  16.570 -1.0120 -1.0136 -1.7115
 1987TIP3    H227453   4.067   2.730  16.623  0.4884  1.1535  3.7122
 1988TIP3   OH227454   2.883   6.215   4.878  0.0770  0.4882 -0.7271
 1988TIP3    H127455   2.956   6.158   4.903 -0.4525 -0.7021 -1.7846
 1988TIP3    H227456   2.842   6.240   4.960 -0.0006 -1.1203 -0.2419
 1989TIP3   OH227457   5.307   2.934  15.679 -0.1565 -0.3159  0.1555
 1989TIP3    H127458   5.226   2.981  15.698 -0.3565 -0.9034  0.7819
 1989TIP3    H227459   5.350   2.925  15.764 -0.4210 -1.8146  0.1546
 1990TIP3   OH227460   2.057   4.845   2.585 -0.1972  0.2460  0.1544
 1990TIP3    H127461   1.998   4.871   2.515  2.0583  0.8876 -1.6231
 1990TIP3    H227462   2.060   4.750   2.581  0.4933  0.2965 -1.2027
 1991TIP3   OH227463   2.155   5.427  12.847 -0.7294 -0.0667 -0.4627
 1991TIP3    H127464   2.237   5.474  12.862 -0.5315 -0.4610 -0.2845
 1991TIP3    H227465   2.154   5.358  12.914 -0.8773 -0.4972 -0.9039
 1992TIP3   OH227466   0.350   2.032   2.594 -0.0992  0.0205 -0.0790
 1992TIP3    H127467   0.254   2.023   2.598 -0.1196 -0.9482 -1.5580
 1992TIP3    H227468   0.382   1.942   2.606  0.4834 -0.0381 -1.7905
 1993TIP3   OH227469   5.331   3.696  13.244  0.1785  0.9941 -0.1761
 1993TIP3    H127470   5.386   3.700  13.322  1.6296 -1.1135 -0.9880
 1993TIP3    H227471   5.363   3.619  13.197 -0.8706  1.9970 -2.6939
 1994TIP3   OH227472   5.682   0.537   4.948 -0.3474 -0.0885 -0.4506
 1994TIP3    H127473   5.723   0.545   4.861  1.4523 -0.4259  0.3187
 1994TIP3    H227474   5.683   0.627   4.982  0.1064 -0.1581 -0.2807
 1995TIP3   OH227475   1.059   3.019  12.144 -0.0535 -0.1035  0.3489
 1995TIP3    H127476   1.050   2.941  12.199  2.6706 -1.3355 -0.8068
 1995TIP3    H227477   1.088   2.986  12.059  2.1228  2.1857  0.1015
 1996TIP3   OH227478   2.042   1.231  16.530 -0.1450 -0.1221  0.4117
 1996TIP3    H127479   1.955   1.207  16.562 -0.6269  0.1624 -0.6443
 1996TIP3    H227480   2.085   1.148  16.511 -0.1660 -0.2650  0.9750
 1997TIP3   OH227481   4.931   5.989  11.347  0.5807  0.2136  0.2854
 1997TIP3    H127482   5.006   5.958  11.398  0.4424 -1.6118 -0.5414
 1997TIP3    H227483   4.969   6.029  11.269  0.7219  0.0084  0.2484
 1998TIP3   OH227484   0.464   6.724  12.663 -0.5528 -0.1345 -0.0657
 1998TIP3    H127485   0.523   6.703  12.736 -0.6981  0.9400  0.3888
 1998TIP3    H227486   0.472   6.650  12.604 -1.2023 -1.5309  1.5143
 1999TIP3   OH227487   4.221   0.483  11.369 -0.0041 -0.2203 -0.2827
 1999TIP3    H127488   4.166   0.560  11.383 -0.3530 -0.4468 -0.3942
 1999TIP3    H227489   4.161   0.409  11.374  0.2933 -0.4737 -0.3930
 2000TIP3   OH227490   3.050   4.929  14.101 -0.3314 -0.1527 -0.1471
 2000TIP3    H127491   3.107   4.938  14.177  0.8691  0.0104 -1.0510
 2000TIP3    H227492   3.051   5.015  14.059  0.2844 -0.6594 -1.2107
 2001TIP3   OH227493   2.688   5.758  15.252  0.4341 -0.3171 -0.1555
 2001TIP3    H127494   2.666   5.686  15.193 -0.3685 -0.1435 -0.0839
 2001TIP3    H227495   2.760   5.724  15.305  0.5972 -0.7776 -0.6595
 2002TIP3   OH227496   4.449   1.413   4.739  0.0694  0.4030  0.4855
 2002TIP3    H127497   4.462   1.496   4.694  0.8772  0.0812  0.1139
 2002TIP3    H227498   4.447   1.347   4.669 -2.0602  0.2409  0.6351
 2003TIP3   OH227499   3.889   5.557  11.260 -0.3106 -0.6942 -0.7161
 2003TIP3    H127500   3.794   5.543  11.248 -0.3216  0.2204 -1.8872
 2003TIP3    H227501   3.903   5.548  11.354 -1.5041 -1.1876 -0.5657
 2004TIP3   OH227502   2.957   2.360  10.633 -0.3612  0.2497 -0.5674
 2004TIP3    H127503   2.891   2.290  10.633  1.4679 -1.5742 -1.3050
 2004TIP3    H227504   2.999   2.353  10.547  1.6055  0.5317  0.3227
 2005TIP3   OH227505   1.615   2.097   2.060  0.1327 -0.0446 -0.1735
 2005TIP3    H127506   1.672   2.151   2.115  1.0404  1.8524 -2.8158
 2005TIP3    H227507   1.673   2.029   2.026  0.3728  0.6459 -1.1967
 2006TIP3   OH227508   6.668   2.660  13.278  0.1552  0.0430  0.5257
 2006TIP3    H127509   6.575   2.643  13.294 -0.2142  1.5273  0.1828
 2006TIP3    H227510   6.670   2.704  13.193  1.3155 -1.0367 -0.0307
 2007TIP3   OH227511   1.758   3.516   0.451  0.0912  0.3306  0.6532
 2007TIP3    H127512   1.695   3.472   0.393  1.1125 -0.0074 -0.2439
 2007TIP3    H227513   1.719   3.602   0.468 -1.3666 -0.4613  1.4512
 2008TIP3   OH227514   1.628   6.570   2.849 -0.1478 -0.1743 -0.2705
 2008TIP3    H127515   1.684   6.639   2.814  0.1504 -0.0229  0.5069
 2008TIP3    H227516   1.676   6.534   2.923 -0.1192 -1.4924 -0.8961
 2009TIP3   OH227517   4.359   0.036  14.237  0.2836  0.0025 -0.4724
 2009TIP3    H127518   4.300  -0.032  14.204  1.4571 -0.7286 -1.1291
 2009TIP3    H227519   4.418   0.054  14.165  1.9986 -0.5811  0.7342
 2010TIP3   OH227520   5.512   2.570  11.289  0.1367 -0.2850 -0.1169
 2010TIP3    H127521   5.474   2.644  11.336  0.9982  0.4288 -0.5286
 2010TIP3    H227522   5.520   2.501  11.355 -0.7112 -0.0407  0.2561
 2011TIP3   OH227523   2.575   4.688  14.530 -0.5225  0.3612 -0.4819
 2011TIP3    H127524   2.670   4.691  14.544 -0.7264  1.0311  0.9999
 2011TIP3    H227525   2.544   4.624  14.594 -1.1263  0.6200 -0.5069
 2012TIP3   OH227526   5.834   1.423  12.289 -0.1689 -0.0177  0.2034
 2012TIP3    H127527   5.823   1.512  12.322 -0.4086 -0.2290  0.6980
 2012TIP3    H227528   5.781   1.369  12.347  2.5968 -0.9420  2.0533
 2013TIP3   OH227529   0.852   3.476  16.746  0.0619  0.3091 -0.5747
 2013TIP3    H127530   0.889   3.537  16.682  0.8131  0.0263 -0.4257
 2013TIP3    H227531   0.905   3.489  16.825 -0.2290 -0.0291 -0.3216
 2014TIP3   OH227532   1.073   1.544  13.581  0.3321 -0.3585  0.1198
 2014TIP3    H127533   1.146   1.563  13.641  2.6644 -0.9894 -2.3175
 2014TIP3    H227534   1.072   1.449  13.575 -1.5608 -0.4401  1.0078
 2015TIP3   OH227535   1.086   1.693  14.771 -0.2270  0.3575  0.1166
 2015TIP3    H127536   0.997   1.684  14.738 -1.4142 -0.4177  3.1943
 2015TIP3    H227537   1.122   1.604  14.768  0.8584  0.8000 -1.9354
 2016TIP3   OH227538   5.638   6.448  12.689 -0.2699 -0.3726 -0.0020
 2016TIP3    H127539   5.629   6.534  12.647 -0.7441 -0.5919 -0.3668
 2016TIP3    H227540   5.731   6.428  12.684  0.0759  0.7819  1.4367
 2017TIP3   OH227541   0.370   4.257   3.140  0.0603 -0.1021  0.2610
 2017TIP3    H127542   0.292   4.231   3.188  1.2861 -1.0512  1.8390
 2017TIP3    H227543   0.371   4.199   3.064 -2.3452  1.9754 -1.5164
 2018TIP3   OH227544   1.783   3.609  15.722  0.3464  0.2705  0.2116
 2018TIP3    H127545   1.799   3.695  15.684 -1.7307  0.3504 -0.6422
 2018TIP3    H227546   1.740   3.628  15.806 -3.2672  0.2320 -1.4295
 2019TIP3   OH227547   6.726   1.870  16.569  0.0154  0.1078  0.0183
 2019TIP3    H127548   6.821   1.878  16.558  0.3876 -1.2529  1.7082
 2019TIP3    H227549   6.698   1.812  16.498  0.5589 -0.0025 -0.1104
 2020TIP3   OH227550   4.687   2.430  16.160 -0.2702  0.2227 -0.0360
 2020TIP3    H127551   4.698   2.389  16.074 -0.8354  0.2378 -0.1170
 2020TIP3    H227552   4.701   2.359  16.222  1.0332  0.3906 -0.1024
 2021TIP3   OH227553   0.937   5.616  16.162  0.1702  0.3880  0.0507
 2021TIP3    H127554   0.875   5.672  16.208  0.0896 -0.1933  0.6545
 2021TIP3    H227555   1.004   5.677  16.130 -0.9665  1.0997 -1.0820
 2022TIP3   OH227556   2.592   1.886  15.723  0.2638 -0.6455  0.8033
 2022TIP3    H127557   2.674   1.932  15.709  0.9219 -1.4846  1.7444
 2022TIP3    H227558   2.532   1.952  15.757  0.5420 -0.0247  0.0965
 2023TIP3   OH227559   4.355   4.558  11.837 -0.2224  0.2039 -0.3992
 2023TIP3    H127560   4.344   4.473  11.880 -1.1692  0.4716 -0.0817
 2023TIP3    H227561   4.283   4.562  11.774 -0.3553  0.8881 -0.2092
 2024TIP3   OH227562   1.123   1.471   3.759  0.1624  0.1766  0.1674
 2024TIP3    H127563   1.199   1.515   3.797  0.2693 -0.4882  0.7481
 2024TIP3    H227564   1.073   1.542   3.718 -0.9241  1.3074  3.1450
 2025TIP3   OH227565   3.598   3.629  13.371 -0.1965 -0.0839  0.1112
 2025TIP3    H127566   3.655   3.677  13.431 -0.0589  0.6334 -0.5759
 2025TIP3    H227567   3.524   3.688  13.356 -1.6508 -1.4001  1.7630
 2026TIP3   OH227568   3.841   2.510  15.875  0.2353 -1.1590  0.1065
 2026TIP3    H127569   3.844   2.603  15.855 -1.4942 -0.7981  1.3120
 2026TIP3    H227570   3.835   2.468  15.789 -3.0137  0.1147 -0.4445
 2027TIP3   OH227571   1.971   1.324  12.920  0.1913  0.4300  0.6198
 2027TIP3    H127572   1.995   1.403  12.871 -0.5336  1.0034  1.1498
 2027TIP3    H227573   1.932   1.358  13.001  1.3746 -0.4925  1.6130
 2028TIP3   OH227574   0.605   3.354  16.175  0.0503  0.1993 -0.0329
 2028TIP3    H127575   0.610   3.402  16.092 -1.6705  1.3906  0.4978
 2028TIP3    H227576   0.651   3.411  16.238 -1.0217  0.6416  0.3698
 2029TIP3   OH227577   1.942   2.426   5.043 -0.2196 -0.1779  0.1351
 2029TIP3    H127578   1.963   2.417   4.950  0.1371  1.3452  0.0475
 2029TIP3    H227579   2.001   2.493   5.075 -2.3487  1.5182  0.7428
 2030TIP3   OH227580   6.575   6.224   3.292 -0.2393 -0.3095 -0.0269
 2030TIP3    H127581   6.628   6.299   3.317  1.0842 -0.1254 -2.9614
 2030TIP3    H227582   6.573   6.168   3.370 -0.3369  2.1841  1.8619
 2031TIP3   OH227583   3.352   1.142   3.503 -0.3271 -0.3841  0.3915
 2031TIP3    H127584   3.339   1.080   3.574  0.0217 -2.8421 -1.5461
 2031TIP3    H227585   3.431   1.190   3.528  1.2245 -2.8648  0.6471
 2032TIP3   OH227586   2.354   5.531  12.366 -0.3585  0.1881  0.0747
 2032TIP3    H127587   2.302   5.530  12.445  1.0007 -1.8819  1.0329
 2032TIP3    H227588   2.328   5.452  12.318  0.0829  0.4880 -0.6900
 2033TIP3   OH227589   4.969   4.842  14.538 -0.0497 -0.4590  0.1580
 2033TIP3    H127590   5.014   4.802  14.464 -1.2466  0.1126 -0.9281
 2033TIP3    H227591   5.039   4.869  14.598  1.0202 -0.0383 -1.2330
 2034TIP3   OH227592   3.102   0.270  16.103  0.5958 -0.1940 -0.0961
 2034TIP3    H127593   3.121   0.250  16.195 -0.1340 -0.8614 -0.0762
 2034TIP3    H227594   3.123   0.363  16.094 -1.2945  0.4306  1.2995
 2035TIP3   OH227595   1.570   2.279   3.328 -0.0487 -0.2573 -0.7220
 2035TIP3    H127596   1.515   2.212   3.368  0.5488  0.0856  0.7404
 2035TIP3    H227597   1.598   2.334   3.401  0.5548  0.8006 -1.7112
 2036TIP3   OH227598   5.127   3.752   0.422 -0.1905 -0.0131  0.5171
 2036TIP3    H127599   5.072   3.830   0.413 -1.1092 -0.8462 -2.0527
 2036TIP3    H227600   5.168   3.741   0.336  1.2537 -1.4378  1.3192
 2037TIP3   OH227601   3.681   4.840   1.767  0.0980 -0.6021 -0.1369
 2037TIP3    H127602   3.592   4.834   1.731 -0.2328 -0.5881  0.6655
 2037TIP3    H227603   3.670   4.826   1.861  0.6424  1.6620  0.3172
 2038TIP3   OH227604   0.554   2.608  16.415  0.1826 -0.3240 -0.9674
 2038TIP3    H127605   0.547   2.521  16.376  0.4839  0.1522 -2.1147
 2038TIP3    H227606   0.464   2.639  16.422  0.1030 -0.5636 -0.9246
 2039TIP3   OH227607   6.575   4.502  16.620  0.0892  0.5550  0.3726
 2039TIP3    H127608   6.579   4.481  16.713  0.3456 -0.1225  0.2140
 2039TIP3    H227609   6.538   4.591  16.617  0.2691  0.6616  1.1226
 2040TIP3   OH227610   6.290   5.691   5.686 -0.2476  0.3875  0.1756
 2040TIP3    H127611   6.308   5.630   5.614 -0.9239  2.3395 -1.7425
 2040TIP3    H227612   6.206   5.661   5.722 -0.4168  0.0011 -0.5225
 2041TIP3   OH227613   2.088   3.972   2.452  0.4708 -0.4185 -0.5810
 2041TIP3    H127614   2.018   3.907   2.445 -0.2629  0.3489 -0.6472
 2041TIP3    H227615   2.161   3.935   2.402  0.4578 -1.6665  0.2778
 2042TIP3   OH227616   5.891   5.339   4.912 -1.2652  0.2600 -0.4424
 2042TIP3    H127617   5.885   5.370   4.822  0.8763 -0.8228 -1.0305
 2042TIP3    H227618   5.960   5.393   4.951  1.0899 -2.2105 -0.8911
 2043TIP3   OH227619   4.491   5.401   1.584  0.8387  0.1690 -0.4370
 2043TIP3    H127620   4.507   5.339   1.655  0.2213 -0.4059 -0.7946
 2043TIP3    H227621   4.464   5.482   1.629  2.6206  0.5400  0.0828
 2044TIP3   OH227622   2.618   4.668  14.002  0.1174  0.1479 -0.0847
 2044TIP3    H127623   2.628   4.580  14.039 -0.6311 -0.3598 -1.0260
 2044TIP3    H227624   2.698   4.682  13.951  0.3522  0.1169  0.2749
 2045TIP3   OH227625   0.455   4.696   1.813 -0.3675 -0.1497  0.0953
 2045TIP3    H127626   0.509   4.715   1.737 -1.0852  2.1715  0.0913
 2045TIP3    H227627   0.517   4.672   1.882  0.3415 -1.4484 -0.9471
 2046TIP3   OH227628   3.064   0.973   4.913  0.2163 -0.2625  0.1417
 2046TIP3    H127629   3.064   0.879   4.934 -2.3713 -0.0830  1.3199
 2046TIP3    H227630   3.026   0.977   4.825  0.7343 -0.3155 -0.0913
 2047TIP3   OH227631   4.134   0.866  15.752 -0.1852  0.4067 -0.5148
 2047TIP3    H127632   4.186   0.830  15.824 -0.3409 -0.2600 -0.7210
 2047TIP3    H227633   4.045   0.872  15.786  0.3279  3.6441  0.5876
 2048TIP3   OH227634   0.818   6.191  13.251 -0.6533  0.0066 -0.0531
 2048TIP3    H127635   0.885   6.245  13.294 -0.5284  0.1826 -0.4656
 2048TIP3    H227636   0.867   6.141  13.186 -0.9649  0.3218 -0.5292
 2049TIP3   OH227637   5.754   2.359  16.594  0.0629 -0.3789  0.3739
 2049TIP3    H127638   5.722   2.442  16.630 -0.4094 -0.8146  0.9683
 2049TIP3    H227639   5.839   2.381  16.556 -1.5773  1.2267 -2.8600
 2050TIP3   OH227640   5.646   3.184   0.688  0.1193 -0.2991  0.4466
 2050TIP3    H127641   5.708   3.194   0.616 -1.3707 -1.8832 -1.1558
 2050TIP3    H227642   5.693   3.132   0.753  1.9774  2.3075  1.3764
 2051TIP3   OH227643   0.853   1.632   3.946 -0.3996  0.2354 -0.6028
 2051TIP3    H127644   0.921   1.602   4.007 -1.6837 -0.2985  0.6248
 2051TIP3    H227645   0.900   1.649   3.864  1.0972 -0.8083 -0.0051
 2052TIP3   OH227646   6.288   3.188   3.498  0.6369 -0.1866  0.4171
 2052TIP3    H127647   6.197   3.198   3.470  0.9102 -0.6112 -0.7287
 2052TIP3    H227648   6.286   3.118   3.563  0.2906 -1.1927 -0.6341
 2053TIP3   OH227649   6.093   6.013  11.235 -0.5092 -0.5456 -0.5229
 2053TIP3    H127650   6.086   5.937  11.176  0.2405 -0.3029 -0.9400
 2053TIP3    H227651   6.086   6.089  11.177 -0.9545 -0.2915 -0.1442
 2054TIP3   OH227652   4.687   2.683   4.488 -1.0457  0.3691 -0.4271
 2054TIP3    H127653   4.652   2.740   4.556 -0.1044 -0.6611  0.9809
 2054TIP3    H227654   4.609   2.649   4.443 -1.6597  1.5547 -0.3025
 2055TIP3   OH227655   1.245   6.590   6.144  0.0194  0.5598 -0.0629
 2055TIP3    H127656   1.301   6.660   6.112  2.2351 -0.5771  1.0841
 2055TIP3    H227657   1.289   6.509   6.116  0.0636 -0.3967  2.4914
 2056TIP3   OH227658   5.791   2.971   3.056 -0.1248  0.3369 -0.2280
 2056TIP3    H127659   5.831   2.956   3.142 -1.2981 -0.0866  0.2553
 2056TIP3    H227660   5.808   3.064   3.037 -0.9269  0.7563  1.0296
 2057TIP3   OH227661   2.615   5.554  13.220 -0.4155 -0.0001  0.8550
 2057TIP3    H127662   2.608   5.649  13.222 -4.0299 -0.0985  0.1833
 2057TIP3    H227663   2.549   5.524  13.283 -0.0041 -2.0650  0.3747
 2058TIP3   OH227664   1.071   5.867  13.983 -0.1335  0.3824  0.5258
 2058TIP3    H127665   1.060   5.951  13.939 -2.1694  0.9324  1.9108
 2058TIP3    H227666   1.157   5.874  14.026  0.3763  1.1489 -0.5648
 2059TIP3   OH227667   5.134   3.670   5.358  0.0543  0.0652  0.1763
 2059TIP3    H127668   5.153   3.748   5.411  0.2122  0.3167 -0.2400
 2059TIP3    H227669   5.172   3.690   5.273 -0.9008 -0.0018 -0.2742
 2060TIP3   OH227670   3.615   2.774   5.055  0.4300  0.6639 -0.4682
 2060TIP3    H127671   3.642   2.854   5.099  2.1596  0.6388 -1.3709
 2060TIP3    H227672   3.588   2.715   5.125  2.4514  0.8478  0.5255
 2061TIP3   OH227673   4.022   1.858  16.800  0.8710 -0.3959 -0.5400
 2061TIP3    H127674   4.000   1.774  16.760 -0.3864  0.0121 -0.7594
 2061TIP3    H227675   4.112   1.848  16.829  0.3585 -2.2706  0.5891
 2062TIP3   OH227676   1.413   3.074   3.775 -0.2989 -0.1372 -0.5160
 2062TIP3    H127677   1.431   3.082   3.681 -1.7293  0.5181 -0.7640
 2062TIP3    H227678   1.496   3.048   3.813  0.3122 -0.4424 -1.9706
 2063TIP3   OH227679   2.914   2.453   1.340  0.1118  0.3753  0.0822
 2063TIP3    H127680   2.953   2.369   1.315  1.1724  0.7455  0.4606
 2063TIP3    H227681   2.840   2.429   1.395 -0.5411 -0.3545 -1.0741
 2064TIP3   OH227682   4.289   3.597   4.877 -0.2770  0.1992 -0.3272
 2064TIP3    H127683   4.318   3.617   4.966 -0.0634  0.9722 -0.5660
 2064TIP3    H227684   4.367   3.607   4.823 -0.6534  0.8845 -0.7653
 2065TIP3   OH227685   4.486   2.875   4.645 -0.1262  0.4034 -0.2642
 2065TIP3    H127686   4.399   2.909   4.623 -0.2361  0.0556 -0.3759
 2065TIP3    H227687   4.534   2.951   4.679  0.0085  0.9249 -1.5844
 2066TIP3   OH227688   5.784   2.199   1.996 -0.1681 -0.2418  0.4843
 2066TIP3    H127689   5.752   2.110   1.987  0.0928 -0.5636  2.2935
 2066TIP3    H227690   5.819   2.203   2.086  2.7527  0.7322 -0.5717
 2067TIP3   OH227691   2.581   3.392  14.968 -0.1112  0.0579 -0.2275
 2067TIP3    H127692   2.631   3.454  14.914 -0.4186  0.4790 -0.0281
 2067TIP3    H227693   2.558   3.321  14.907  2.1888 -1.0282  0.0299
 2068TIP3   OH227694   3.420   5.164   0.843  0.3577 -0.2984 -0.5496
 2068TIP3    H127695   3.421   5.082   0.891 -1.9147 -1.0473 -1.6453
 2068TIP3    H227696   3.329   5.193   0.846  0.7610  1.2539 -1.7032
 2069TIP3   OH227697   0.923   5.494  15.134 -0.2085  0.2443  0.1301
 2069TIP3    H127698   0.956   5.434  15.068  0.0613 -0.4196  0.8577
 2069TIP3    H227699   0.995   5.555  15.150 -0.1143  0.1239  0.1554
 2070TIP3   OH227700   4.872   0.868  13.450  0.6234  0.2368 -0.8236
 2070TIP3    H127701   4.843   0.899  13.363 -2.2570 -0.4296 -0.2097
 2070TIP3    H227702   4.871   0.772  13.442 -1.2054  0.1098  0.2965
 2071TIP3   OH227703   2.307   5.238  12.290 -0.0194 -0.2072  0.9080
 2071TIP3    H127704   2.360   5.162  12.267 -0.1831 -0.0335 -0.1274
 2071TIP3    H227705   2.234   5.203  12.340  0.2970 -0.6316  1.0762
 2072TIP3   OH227706   2.423   5.842   5.316 -0.0702 -0.5347  0.2726
 2072TIP3    H127707   2.439   5.888   5.234 -2.6135  1.7104  0.8968
 2072TIP3    H227708   2.348   5.785   5.298  1.6791 -2.9855  0.1295
 2073TIP3   OH227709   2.151   2.672   0.499 -0.3096  0.7995 -0.3413
 2073TIP3    H127710   2.065   2.668   0.541  0.5610  0.4974  1.5501
 2073TIP3    H227711   2.153   2.597   0.440 -1.0658  0.3620  0.1778
 2074TIP3   OH227712   5.208   5.280   6.028  0.1127  0.0983  0.4328
 2074TIP3    H127713   5.228   5.212   5.964 -0.3647 -0.8949  1.3020
 2074TIP3    H227714   5.134   5.245   6.078  1.0676  0.3995  2.1509
 2075TIP3   OH227715   3.661   5.402  13.019  0.1504  0.5582 -0.4687
 2075TIP3    H127716   3.634   5.422  13.109  2.2478  1.8816 -0.0791
 2075TIP3    H227717   3.658   5.306  13.014  0.9818  0.3926  1.3659
 2076TIP3   OH227718   6.676   4.263   1.152  0.2608 -0.0834 -0.3939
 2076TIP3    H127719   6.585   4.295   1.150  0.2764 -0.0227 -2.6579
 2076TIP3    H227720   6.669   4.169   1.138  0.5098 -0.2450  0.5240
 2077TIP3   OH227721   2.915   5.579  11.013 -0.6116  0.1880 -0.5317
 2077TIP3    H127722   2.883   5.646  10.952 -0.9832  2.6302  2.1421
 2077TIP3    H227723   2.997   5.549  10.974 -0.9208  1.4904 -2.3079
 2078TIP3   OH227724   6.119   3.845   4.531  0.0025  0.0081  0.0074
 2078TIP3    H127725   6.117   3.787   4.455  0.8166  2.0913 -1.7093
 2078TIP3    H227726   6.206   3.832   4.570 -0.5110 -1.2496  0.7778
 2079TIP3   OH227727   1.679   2.530  15.656  0.2411  0.0058  0.1051
 2079TIP3    H127728   1.742   2.534  15.728  0.8084  0.5196 -0.4052
 2079TIP3    H227729   1.604   2.484  15.693  0.2589  0.8104  1.2277
 2080TIP3   OH227730   2.220   3.763   1.025 -0.5178  0.0505 -0.1364
 2080TIP3    H127731   2.238   3.689   1.083  1.3777  2.4898  2.6522
 2080TIP3    H227732   2.245   3.731   0.938  2.5448 -1.9336  1.2665
 2081TIP3   OH227733   5.378   2.220  14.660 -0.3380  0.1973 -0.1903
 2081TIP3    H127734   5.294   2.256  14.687 -0.4733 -0.8801  0.8942
 2081TIP3    H227735   5.437   2.296  14.658 -1.6627  1.2717 -2.6312
 2082TIP3   OH227736   2.301   3.538   0.379 -0.2564 -0.5372 -0.2552
 2082TIP3    H127737   2.302   3.541   0.474  0.4891  1.3705 -0.2944
 2082TIP3    H227738   2.374   3.481   0.356  0.7328  0.4958  0.2902
 2083TIP3   OH227739   5.807   1.791  16.027 -0.1099 -0.0720  0.2667
 2083TIP3    H127740   5.856   1.727  16.079  2.6661  1.7671  0.1403
 2083TIP3    H227741   5.727   1.746  16.002  0.5417 -2.5764  2.3021
 2084TIP3   OH227742   3.366   3.863  11.760  0.1261  0.8369  0.8820
 2084TIP3    H127743   3.361   3.903  11.672  0.8560 -0.6423  0.1346
 2084TIP3    H227744   3.357   3.769  11.744  1.8680  0.3934  2.2185
 2085TIP3   OH227745   0.742   2.549  11.577 -0.4842 -0.2042  0.0673
 2085TIP3    H127746   0.676   2.618  11.564  1.0354  1.3053  0.0212
 2085TIP3    H227747   0.796   2.553  11.499  1.0206  0.1624  1.0837
 2086TIP3   OH227748   5.492   2.860  12.268 -0.0128  0.5831 -0.2989
 2086TIP3    H127749   5.431   2.916  12.221 -1.2138 -2.5044 -2.7852
 2086TIP3    H227750   5.521   2.796  12.203  0.1590 -2.5286  2.5591
 2087TIP3   OH227751   0.186   5.685  10.599  0.3144 -0.0417 -0.0228
 2087TIP3    H127752   0.205   5.622  10.530 -1.3893 -1.7374  0.9522
 2087TIP3    H227753   0.096   5.714  10.581  0.1450  0.1161  0.9974
 2088TIP3   OH227754   2.003   2.801  16.256  0.9404  0.2620 -1.1095
 2088TIP3    H127755   2.038   2.889  16.239 -0.0088  1.1715  1.2381
 2088TIP3    H227756   2.079   2.749  16.282  1.2368  0.9794 -0.4971
 2089TIP3   OH227757   1.201   5.291   2.172 -0.3673 -0.0798  0.1999
 2089TIP3    H127758   1.205   5.272   2.078  0.8009  0.8843  0.0392
 2089TIP3    H227759   1.110   5.271   2.196 -0.2204 -2.1772 -0.7186
 2090TIP3   OH227760   6.194   3.590   2.072 -0.0843  0.6064 -0.5124
 2090TIP3    H127761   6.157   3.549   2.150 -0.7738  2.4251  0.1729
 2090TIP3    H227762   6.285   3.606   2.094  0.1535 -0.3885 -0.7322
 2091TIP3   OH227763   1.752   4.706  11.004  0.5150 -0.0214  0.0608
 2091TIP3    H127764   1.678   4.766  11.000  0.3734 -0.1118  1.0296
 2091TIP3    H227765   1.808   4.732  10.931 -0.9324 -0.6037 -1.2870
 2092TIP3   OH227766   0.447   2.796  12.133 -0.0233 -0.0253  0.8643
 2092TIP3    H127767   0.449   2.745  12.053  0.1915  0.3716  0.6115
 2092TIP3    H227768   0.356   2.824  12.142 -0.1181 -0.3665  0.9466
 2093TIP3   OH227769   0.499   2.877   3.062 -0.2785 -0.0336 -0.3315
 2093TIP3    H127770   0.515   2.968   3.041 -1.6199  0.2208 -0.3604
 2093TIP3    H227771   0.419   2.855   3.014 -1.5004 -0.4281  1.7700
 2094TIP3   OH227772   5.303   1.540   5.190  0.0183  0.2627  0.2073
 2094TIP3    H127773   5.248   1.540   5.112  0.3905  2.2990 -0.1186
 2094TIP3    H227774   5.322   1.448   5.206 -1.9794 -0.3687 -0.7205
 2095TIP3   OH227775   4.146   6.106  17.133  0.3586  0.6392 -0.7102
 2095TIP3    H127776   4.202   6.151  17.071  1.2246 -0.5060 -0.7927
 2095TIP3    H227777   4.068   6.083  17.083 -0.0568  1.9370 -0.6844
 2096TIP3   OH227778   6.479   2.638   5.036 -0.1294  0.0713  0.4278
 2096TIP3    H127779   6.447   2.660   5.123 -0.3784  0.6690  0.1925
 2096TIP3    H227780   6.405   2.655   4.978  0.6152  1.5350 -0.1325
 2097TIP3   OH227781   5.887   1.238  11.630 -0.2629  0.1436 -0.2027
 2097TIP3    H127782   5.813   1.252  11.690 -0.9586 -0.7803 -0.8212
 2097TIP3    H227783   5.907   1.326  11.597 -0.5776  0.5104  0.5511
 2098TIP3   OH227784   0.072   1.959   1.985 -0.0996  0.5471  0.4093
 2098TIP3    H127785   0.161   1.980   2.014  1.7511 -1.0943 -3.2980
 2098TIP3    H227786   0.065   1.864   1.997 -1.5300  0.6997  0.9467
 2099TIP3   OH227787   5.516   3.696   2.037 -0.0123  0.5541  0.7679
 2099TIP3    H127788   5.423   3.695   2.011  0.2950  0.4047 -0.3882
 2099TIP3    H227789   5.531   3.611   2.078 -0.3826  0.5580  0.9117
 2100TIP3   OH227790   4.208   2.077  12.840  0.9977  0.3629 -0.5148
 2100TIP3    H127791   4.167   2.164  12.831  0.1976 -0.0164 -0.6512
 2100TIP3    H227792   4.152   2.030  12.902  0.4323 -0.6341 -1.7428
 2101TIP3   OH227793   4.173   5.965   4.354 -0.8443 -0.0725 -0.2335
 2101TIP3    H127794   4.105   5.962   4.422 -0.0915  1.1127  0.6191
 2101TIP3    H227795   4.128   5.939   4.274 -2.0024 -0.5174  0.5383
 2102TIP3   OH227796   0.898   2.459  11.335 -0.2028 -0.5072  0.5665
 2102TIP3    H127797   0.828   2.517  11.306 -1.1610 -1.4252  0.9768
 2102TIP3    H227798   0.973   2.517  11.351 -0.8368  0.4781  0.0460
 2103TIP3   OH227799   3.822   5.650   4.126  0.4165 -0.3792 -0.2816
 2103TIP3    H127800   3.874   5.644   4.046 -2.3295 -1.2679 -2.1717
 2103TIP3    H227801   3.733   5.627   4.098 -0.7719 -0.2565  2.9650
 2104TIP3   OH227802   6.556   3.328   0.485  0.7118 -0.4289 -0.3199
 2104TIP3    H127803   6.537   3.304   0.394 -0.8528  0.1572 -0.1812
 2104TIP3    H227804   6.522   3.254   0.537  0.2326 -0.0942 -0.1468
 2105TIP3   OH227805   1.551   2.643  13.696 -0.4505 -0.1724 -0.1421
 2105TIP3    H127806   1.459   2.667  13.683 -0.3571  0.0284 -0.4223
 2105TIP3    H227807   1.599   2.725  13.689 -0.3932 -0.0220  1.5158
 2106TIP3   OH227808   4.882   5.157  11.466 -0.3147 -0.2317 -0.0414
 2106TIP3    H127809   4.860   5.200  11.548  0.8702  0.7685 -0.2173
 2106TIP3    H227810   4.928   5.078  11.492  1.2515  0.7468  0.2823
 2107TIP3   OH227811   0.241   5.540  14.473 -0.1529  0.0646 -0.0790
 2107TIP3    H127812   0.285   5.462  14.507  0.5068 -0.3612 -1.7876
 2107TIP3    H227813   0.148   5.527  14.496  0.0991 -0.7099  0.5627
 2108TIP3   OH227814   5.439   0.911   6.365 -0.0265 -0.0328 -0.1544
 2108TIP3    H127815   5.484   0.995   6.360  0.7981 -0.5367 -1.9814
 2108TIP3    H227816   5.351   0.932   6.396  0.0325  1.5687 -1.0068
 2109TIP3   OH227817   0.492   4.445  15.379 -0.1316  0.0459  0.4121
 2109TIP3    H127818   0.408   4.421  15.417  0.2684  0.3807  1.5475
 2109TIP3    H227819   0.539   4.362  15.371  0.5424  0.1589  2.5880
 2110TIP3   OH227820   4.097   0.076   0.592  0.0245 -0.8518  0.3236
 2110TIP3    H127821   4.008   0.109   0.582  0.2439 -0.2984  0.1698
 2110TIP3    H227822   4.142   0.143   0.644  0.9941  0.0870 -1.6112
 2111TIP3   OH227823   6.388   0.839   2.450 -0.4326  0.2986  0.1954
 2111TIP3    H127824   6.451   0.889   2.503  0.5414 -0.6370 -0.0352
 2111TIP3    H227825   6.428   0.836   2.363 -1.2522  0.4618 -0.1914
 2112TIP3   OH227826   5.931   4.685   4.354  0.2960  0.6563  0.2940
 2112TIP3    H127827   6.007   4.735   4.323  2.0922 -2.1945 -0.3038
 2112TIP3    H227828   5.862   4.705   4.291  1.7473  0.3879 -1.4770
 2113TIP3   OH227829   5.222   4.631   5.492  0.1235  0.3279 -0.0535
 2113TIP3    H127830   5.317   4.630   5.509  0.0705  1.0094  0.3128
 2113TIP3    H227831   5.183   4.592   5.571  0.0601  0.6871  0.0941
 2114TIP3   OH227832   2.386   4.080  16.530  0.2936  0.3363  0.5758
 2114TIP3    H127833   2.467   4.130  16.540  0.3792 -0.1046  2.6394
 2114TIP3    H227834   2.320   4.144  16.505  0.6977  1.2483  1.7652
 2115TIP3   OH227835   1.159   3.256   0.086  0.0257  0.7040  0.0662
 2115TIP3    H127836   1.088   3.193   0.100 -0.0754  0.0895 -2.6304
 2115TIP3    H227837   1.117   3.341   0.097 -0.7308  0.3381  0.1400
 2116TIP3   OH227838   3.277   4.160  14.054  0.1754 -0.5174 -0.2595
 2116TIP3    H127839   3.332   4.224  14.100 -0.7383 -1.1389  1.8072
 2116TIP3    H227840   3.338   4.095  14.021  0.9174  0.2689 -0.4914
 2117TIP3   OH227841   4.118   4.325   5.840  0.2106 -0.2055 -0.5381
 2117TIP3    H127842   4.094   4.245   5.886 -3.2006  0.5811 -0.6951
 2117TIP3    H227843   4.154   4.382   5.907  2.4300 -1.6433 -0.3732
 2118TIP3   OH227844   4.645   4.180  16.397 -0.1248  0.0772 -0.4835
 2118TIP3    H127845   4.708   4.179  16.326 -0.6633 -1.5978 -0.9783
 2118TIP3    H227846   4.560   4.171  16.354 -0.3414 -3.4311  0.3819
 2119TIP3   OH227847   0.368   5.962  14.280  0.2633  0.0359 -0.3506
 2119TIP3    H127848   0.429   5.889  14.267 -1.6021 -1.5644 -0.6893
 2119TIP3    H227849   0.402   6.032  14.225  2.0493 -0.6102 -0.1182
 2120TIP3   OH227850   2.051   6.478  15.983  0.4177 -0.2375 -0.5458
 2120TIP3    H127851   1.987   6.414  16.016 -1.0920  1.6106  0.2975
 2120TIP3    H227852   2.100   6.505  16.060  0.6133  0.0937 -0.7865
 2121TIP3   OH227853   4.407   1.258   3.682 -0.1176 -0.7747  0.0494
 2121TIP3    H127854   4.312   1.249   3.670 -0.2956  1.2831 -0.5267
 2121TIP3    H227855   4.430   1.332   3.626  2.1301 -2.2350 -1.0987
 2122TIP3   OH227856   3.768   0.972   5.448 -0.0649  0.0611 -0.0521
 2122TIP3    H127857   3.851   1.018   5.432 -1.2105  2.1057 -0.4986
 2122TIP3    H227858   3.757   0.975   5.543  1.9161 -3.2291  0.4250
 2123TIP3   OH227859   4.781   6.330   1.355  0.0522 -0.2806 -0.2358
 2123TIP3    H127860   4.760   6.407   1.407  0.5105 -0.6467  0.5031
 2123TIP3    H227861   4.876   6.320   1.362 -0.2034 -2.1923  1.5628
 2124TIP3   OH227862   3.286   5.128  12.372  0.0537  0.1054  0.3961
 2124TIP3    H127863   3.301   5.182  12.450  0.3901 -0.6068  0.8411
 2124TIP3    H227864   3.192   5.109  12.373  0.5131 -2.7421  2.6053
 2125TIP3   OH227865   4.387   1.210  14.518 -0.5155  0.1378  0.0170
 2125TIP3    H127866   4.295   1.235  14.525 -0.2716  0.9763  0.3384
 2125TIP3    H227867   4.436   1.288  14.544  0.2777 -0.9800  2.0800
 2126TIP3   OH227868   0.547   6.547  13.597 -0.5135 -0.0385 -0.4530
 2126TIP3    H127869   0.609   6.606  13.554 -0.8582 -0.7273 -1.9577
 2126TIP3    H227870   0.598   6.468  13.615 -0.7090 -0.2480 -0.8150
 2127TIP3   OH227871   1.255   6.597  15.308 -0.0555 -0.2792 -0.4666
 2127TIP3    H127872   1.330   6.656  15.313  0.0311 -0.4613  0.6475
 2127TIP3    H227873   1.248   6.575  15.215  1.0202  0.0504 -0.6407
 2128TIP3   OH227874   2.072   6.465   2.745 -0.3871 -0.3037  0.5670
 2128TIP3    H127875   2.132   6.511   2.804  0.0804 -0.4387  0.1981
 2128TIP3    H227876   2.116   6.382   2.725  0.0614  0.2888 -1.0209
 2129TIP3   OH227877   0.816   1.233  17.008 -0.4972  0.1784 -0.3403
 2129TIP3    H127878   0.895   1.182  17.026  0.1426  0.5695 -1.8431
 2129TIP3    H227879   0.809   1.233  16.912 -0.9775  2.1104 -0.3560
 2130TIP3   OH227880   2.181   1.383   4.341 -0.1907  0.0170 -0.1450
 2130TIP3    H127881   2.128   1.424   4.272 -0.3188  0.6512  0.3312
 2130TIP3    H227882   2.270   1.386   4.307 -0.3938 -0.7127 -0.7853
 2131TIP3   OH227883   6.733   2.171   0.054 -0.0526  0.2416  0.1661
 2131TIP3    H127884   6.651   2.200   0.096  1.1539  1.1355  2.0385
 2131TIP3    H227885   6.753   2.241  -0.009 -1.6655 -0.9148 -1.7646
 2132TIP3   OH227886   1.295   1.905   0.941 -0.0355  0.3328 -0.1936
 2132TIP3    H127887   1.270   1.902   0.849  2.1300  0.4089 -0.8419
 2132TIP3    H227888   1.287   1.998   0.965  0.1374  0.4325 -0.5242
 2133TIP3   OH227889   0.459   3.075  11.664 -0.3926 -0.1891  0.1880
 2133TIP3    H127890   0.471   3.146  11.600  0.6016  0.6601  1.2694
 2133TIP3    H227891   0.394   3.017  11.624  0.2364  0.2773 -1.6186
 2134TIP3   OH227892   1.965   0.334  11.500 -0.0091 -0.6807 -0.3830
 2134TIP3    H127893   2.044   0.385  11.483 -0.5649  0.6602  0.8269
 2134TIP3    H227894   1.925   0.377  11.576 -1.3339 -1.9874 -0.3017
 2135TIP3   OH227895   0.618   2.418  16.086  0.1208 -0.1788 -0.5663
 2135TIP3    H127896   0.581   2.382  16.167  1.2333 -0.1120 -0.0029
 2135TIP3    H227897   0.620   2.344  16.026  0.4082 -0.5422 -0.1213
 2136TIP3   OH227898   6.714   2.795   2.651 -0.0124  0.1055 -0.1256
 2136TIP3    H127899   6.794   2.743   2.661 -0.7080 -1.0372 -0.2680
 2136TIP3    H227900   6.646   2.742   2.693 -0.7156  1.0196 -0.0693
 2137TIP3   OH227901   5.203   0.982  16.112 -0.5733 -0.2580  0.0798
 2137TIP3    H127902   5.254   1.036  16.052  0.2948 -0.6265  0.4766
 2137TIP3    H227903   5.243   0.995  16.198  0.5119 -2.5073 -0.0029
 2138TIP3   OH227904   3.600   3.523   3.089  0.3571  0.1931  0.4785
 2138TIP3    H127905   3.559   3.469   3.156 -0.1539  1.1722  0.9754
 2138TIP3    H227906   3.672   3.567   3.134 -0.8091  1.8855  0.7661
 2139TIP3   OH227907   4.995   6.818  10.955 -0.8877 -0.0498  0.0456
 2139TIP3    H127908   5.018   6.805  11.047 -0.3111 -3.0569 -0.4307
 2139TIP3    H227909   4.942   6.898  10.955 -1.6541 -0.4184  3.1123
 2140TIP3   OH227910   1.263   1.933   0.677  0.0580 -0.0360  0.2166
 2140TIP3    H127911   1.212   1.852   0.669 -2.7576  1.6340 -0.1526
 2140TIP3    H227912   1.239   1.984   0.599  3.0740  0.5415 -0.4548
 2141TIP3   OH227913   3.379   5.376  14.547  0.2783  0.3043  0.2881
 2141TIP3    H127914   3.344   5.440  14.485  1.3117  1.1472  0.5551
 2141TIP3    H227915   3.363   5.414  14.633  1.1289  0.3294  0.4413
 2142TIP3   OH227916   5.015   2.164  12.032 -0.5621 -1.0025 -0.8000
 2142TIP3    H127917   5.040   2.106  12.103 -0.8595 -0.3266 -0.1287
 2142TIP3    H227918   4.921   2.149  12.021 -0.9843  0.4179  0.4260
 2143TIP3   OH227919   4.742   4.942  14.651  0.0601  0.6281  0.1816
 2143TIP3    H127920   4.818   4.910  14.603  0.5649  2.1613 -0.0807
 2143TIP3    H227921   4.698   5.001  14.591  0.0939  1.7373  1.2017
 2144TIP3   OH227922   2.161   5.330   4.002 -0.5841 -0.8677  0.1121
 2144TIP3    H127923   2.256   5.342   4.000 -0.6178 -0.6833 -0.6361
 2144TIP3    H227924   2.147   5.247   3.958 -0.8855 -0.0396 -1.4259
 2145TIP3   OH227925   1.072   6.489   3.839  0.3325  0.1976 -0.0019
 2145TIP3    H127926   1.055   6.571   3.793  0.4857 -0.3691 -1.1265
 2145TIP3    H227927   1.164   6.469   3.820  0.1956 -0.4093 -0.0612
 2146TIP3   OH227928   4.994   4.440  11.777 -0.5316  0.1041 -0.0345
 2146TIP3    H127929   5.068   4.474  11.726  0.5096  0.3102  1.5446
 2146TIP3    H227930   4.965   4.362  11.729 -0.0947  0.7022 -1.3281
 2147TIP3   OH227931   4.176   4.982   4.742 -0.4119 -0.6124  0.2490
 2147TIP3    H127932   4.144   5.061   4.699 -0.3501 -0.2985  0.7795
 2147TIP3    H227933   4.270   4.995   4.750 -0.2006 -1.3267 -0.8725
 2148TIP3   OH227934   4.079   3.394   6.465 -0.1609 -0.1090  0.0815
 2148TIP3    H127935   4.012   3.366   6.527 -0.9741 -0.0602 -0.7504
 2148TIP3    H227936   4.053   3.483   6.441  0.0113 -0.2185 -0.5124
 2149TIP3   OH227937   3.411   6.762  14.153  0.2933  0.5560 -0.3526
 2149TIP3    H127938   3.352   6.739  14.081 -0.0095 -0.7061  0.2727
 2149TIP3    H227939   3.493   6.787  14.111  0.4439 -1.1331 -1.1045
 2150TIP3   OH227940   6.213   1.994  11.627 -0.0203 -0.2266  0.1774
 2150TIP3    H127941   6.174   2.033  11.706 -0.0780 -0.7718  0.4218
 2150TIP3    H227942   6.251   2.069  11.580  0.1703  0.0860  0.8129
 2151TIP3   OH227943   5.700   2.995   5.406 -0.3479 -0.0026  0.2379
 2151TIP3    H127944   5.711   2.962   5.496  0.2974  0.3925  0.3026
 2151TIP3    H227945   5.721   3.088   5.411 -0.7578  0.1241 -0.2398
 2152TIP3   OH227946   0.994   2.604  17.099  0.2244 -0.4972 -0.2410
 2152TIP3    H127947   0.943   2.583  17.177 -1.0509 -0.4003 -1.0288
 2152TIP3    H227948   1.085   2.599  17.129 -0.2369  1.1142  1.6464
 2153TIP3   OH227949   3.704   6.514   5.574  0.0376 -0.3623  0.4453
 2153TIP3    H127950   3.716   6.605   5.601  2.0602 -0.4234 -0.0443
 2153TIP3    H227951   3.640   6.517   5.504 -0.4429  0.5854  0.9099
 2154TIP3   OH227952   1.592   2.438   1.723  0.1710  0.3255 -0.0615
 2154TIP3    H127953   1.514   2.484   1.754 -0.1979 -0.1461 -0.2881
 2154TIP3    H227954   1.584   2.350   1.758  1.6575  0.8166  1.7004
 2155TIP3   OH227955   0.686   0.091   3.381 -0.1090  0.1138  0.4978
 2155TIP3    H127956   0.742   0.137   3.317 -0.9990  0.7291  0.1363
 2155TIP3    H227957   0.652   0.016   3.333  1.1286 -0.7917  1.0050
 2156TIP3   OH227958   4.467   5.891  14.945  0.2339 -0.0237  0.3345
 2156TIP3    H127959   4.523   5.813  14.947  0.3655  0.0653  0.1686
 2156TIP3    H227960   4.432   5.898  15.034 -2.0627 -1.9307 -0.2946
 2157TIP3   OH227961   1.355   3.452   2.852  0.3151  0.0533  0.3816
 2157TIP3    H127962   1.435   3.449   2.800 -1.3205 -0.4085 -2.3423
 2157TIP3    H227963   1.321   3.540   2.839 -0.8149 -0.4852 -0.5934
 2158TIP3   OH227964   3.324   1.576   3.541 -0.2228  0.3585  0.4235
 2158TIP3    H127965   3.233   1.590   3.565  0.0794  1.3997  1.0580
 2158TIP3    H227966   3.374   1.616   3.612  0.7175  0.9679 -0.5403
 2159TIP3   OH227967   2.128   3.865  15.256 -0.3021 -0.2950  0.1457
 2159TIP3    H127968   2.155   3.948  15.216  0.1490 -1.0060 -1.0916
 2159TIP3    H227969   2.210   3.822  15.279 -0.5427  0.4932  2.8341
 2160TIP3   OH227970   1.159   6.505  11.677  0.2583 -0.1872  0.1624
 2160TIP3    H127971   1.088   6.492  11.613 -0.7151 -0.4270  1.2483
 2160TIP3    H227972   1.226   6.443  11.652  0.1540  0.1395 -0.9806
 2161TIP3   OH227973   3.848   3.828  15.017  0.5993 -0.4536  0.2041
 2161TIP3    H127974   3.936   3.797  15.037  1.0476  1.8815  2.3416
 2161TIP3    H227975   3.792   3.786  15.082 -0.1220 -2.6090 -1.6729
 2162TIP3   OH227976   3.975   2.140  11.054  0.1843 -0.0996  0.3312
 2162TIP3    H127977   3.987   2.067  10.994 -0.0644 -0.5224  0.7885
 2162TIP3    H227978   3.888   2.127  11.092 -1.3986  2.3055 -2.1143
 2163TIP3   OH227979   0.975   6.677   6.359 -0.4441 -0.0221 -0.0195
 2163TIP3    H127980   1.032   6.741   6.403 -0.6208  1.1852 -1.4893
 2163TIP3    H227981   0.886   6.703   6.382 -0.5003 -0.0308 -0.2228
 2164TIP3   OH227982   5.023   0.084   0.308  0.3715  0.1162  0.0113
 2164TIP3    H127983   4.999   0.168   0.268  0.0176  0.3209  0.6289
 2164TIP3    H227984   4.939   0.041   0.326  0.3982  0.8627  2.2404
 2165TIP3   OH227985   5.239   1.599   1.195 -0.3721 -0.0382  0.1411
 2165TIP3    H127986   5.230   1.613   1.101 -0.2355 -2.1182 -0.2406
 2165TIP3    H227987   5.312   1.537   1.202  0.5342  1.1315  1.7375
 2166TIP3   OH227988   4.115   0.036   2.066  0.4758 -0.0530 -0.1129
 2166TIP3    H127989   4.174  -0.028   2.105 -0.8781 -0.2226  1.7945
 2166TIP3    H227990   4.059  -0.015   2.007  0.1398 -0.4592  0.5459
 2167TIP3   OH227991   1.809   4.398   4.496 -0.5155  0.8381 -0.0066
 2167TIP3    H127992   1.756   4.478   4.499 -1.3431  0.4480 -2.3850
 2167TIP3    H227993   1.749   4.331   4.461  0.0668 -0.9434  2.1856
 2168TIP3   OH227994   1.999   6.005  14.550 -0.4737 -0.5083 -0.2213
 2168TIP3    H127995   2.038   5.918  14.563  0.7870  0.4451  3.6055
 2168TIP3    H227996   1.934   6.013  14.620  0.5381  2.1178  0.5474
 2169TIP3   OH227997   2.408   5.372   0.250 -0.3050 -0.1675 -0.2126
 2169TIP3    H127998   2.401   5.339   0.340  0.3231 -1.2846 -0.5522
 2169TIP3    H227999   2.317   5.383   0.222 -0.5104  0.1494  0.5409
 2170TIP3   OH228000   5.936   5.794  14.437 -0.1899  0.8265 -0.6810
 2170TIP3    H128001   6.014   5.738  14.433  0.0979  0.7421  2.8098
 2170TIP3    H228002   5.863   5.735  14.417  0.2546 -0.4299  1.1571
 2171TIP3   OH228003   1.715   0.025   0.645  0.7008 -0.5219 -0.4725
 2171TIP3    H128004   1.621   0.032   0.659  0.6704 -0.5450 -0.6614
 2171TIP3    H228005   1.753   0.093   0.702  0.6189 -0.9667  0.1189
 2172TIP3   OH228006   0.597   3.360  14.736  0.5839 -0.6840 -1.2383
 2172TIP3    H128007   0.507   3.335  14.756  0.6016  0.0300 -0.1542
 2172TIP3    H228008   0.649   3.282  14.753  0.3413 -0.6679 -0.4052
 2173TIP3   OH228009   4.339   1.206   4.133 -0.6156 -0.1689  0.1626
 2173TIP3    H128010   4.434   1.196   4.136 -0.5065 -0.3713 -2.0191
 2173TIP3    H228011   4.305   1.118   4.151 -0.2138 -0.9368 -2.3962
 2174TIP3   OH228012   1.583   0.883   0.015 -0.2534  0.7799 -0.1147
 2174TIP3    H128013   1.664   0.855  -0.028  0.9134  1.5720  1.4280
 2174TIP3    H228014   1.582   0.978   0.005 -1.5865  0.6961 -1.0402
 2175TIP3   OH228015   2.949   1.494  16.415  0.0088  0.6385 -0.2601
 2175TIP3    H128016   2.942   1.399  16.417  0.8952  0.5600 -0.4134
 2175TIP3    H228017   2.874   1.525  16.466  0.3527 -0.1699  0.7578
 2176TIP3   OH228018   3.960   2.189   1.843  0.5055  0.1529 -0.1165
 2176TIP3    H128019   3.868   2.207   1.862  1.1303  3.1396  0.5288
 2176TIP3    H228020   3.962   2.166   1.750 -0.9250 -0.5991  0.0110
 2177TIP3   OH228021   5.364   6.305   0.962  0.3985  0.0999 -0.3162
 2177TIP3    H128022   5.305   6.261   0.900  2.1654 -2.7875 -0.1281
 2177TIP3    H228023   5.450   6.270   0.941  1.5350  1.4648  1.7680
 2178TIP3   OH228024   4.976   6.724   6.356  0.2728 -0.4626 -0.4314
 2178TIP3    H128025   4.890   6.701   6.390  0.0633  0.1162 -0.5445
 2178TIP3    H228026   4.991   6.813   6.389  0.9564 -0.6653 -0.1719
 2179TIP3   OH228027   5.409   2.767   4.605  0.1318 -0.5336  0.7780
 2179TIP3    H128028   5.446   2.799   4.523  0.1905 -0.0344  0.9971
 2179TIP3    H228029   5.485   2.750   4.661  0.2044 -2.4808  0.1776
 2180TIP3   OH228030   1.423   3.668  14.318 -0.0714 -0.4094  0.0891
 2180TIP3    H128031   1.340   3.646  14.277 -0.3609  0.8478 -0.0135
 2180TIP3    H228032   1.426   3.763  14.319  1.3348 -0.4277  0.1662
 2181TIP3   OH228033   6.315   4.221  15.840 -0.3118  0.1646  0.6110
 2181TIP3    H128034   6.390   4.258  15.794 -1.3390  2.6091  0.7471
 2181TIP3    H228035   6.350   4.145  15.886  1.7420  0.3936 -0.4518
 2182TIP3   OH228036   1.545   5.284   5.997 -0.3762  1.0259  0.6003
 2182TIP3    H128037   1.497   5.359   6.033 -0.6993  0.6698  0.9218
 2182TIP3    H228038   1.484   5.211   6.005 -1.0438  1.2037 -2.0666
 2183TIP3   OH228039   2.029   0.213  17.034 -0.1641  0.2004  0.4755
 2183TIP3    H128040   2.034   0.291  17.091  0.7681  1.9152 -1.7889
 2183TIP3    H228041   2.106   0.161  17.058  1.0790  1.6588 -0.1664
 2184TIP3   OH228042   5.753   3.570  11.052 -0.1277  0.6488 -0.2275
 2184TIP3    H128043   5.775   3.540  10.964 -0.5942 -0.1449 -0.0832
 2184TIP3    H228044   5.782   3.661  11.054  1.4261  0.2022 -0.6563
 2185TIP3   OH228045   6.184   2.812   3.934  0.7525  0.2220 -0.2862
 2185TIP3    H128046   6.176   2.886   3.872  2.7302  1.1053  0.4147
 2185TIP3    H228047   6.243   2.751   3.890  0.6404 -0.0513 -0.0582
 2186TIP3   OH228048   4.463   0.060   4.550 -0.2936  0.6860 -0.4495
 2186TIP3    H128049   4.397   0.010   4.501 -2.1003  1.7236  0.7825
 2186TIP3    H228050   4.537   0.066   4.490 -1.0954 -0.9828 -1.7246
 2187TIP3   OH228051   1.278   2.331   0.591  0.1606 -0.2122 -0.3046
 2187TIP3    H128052   1.302   2.284   0.511 -0.1276 -0.6043 -0.1621
 2187TIP3    H228053   1.198   2.288   0.622  1.3472 -1.3554  1.2767
 2188TIP3   OH228054   4.687   0.798   0.208 -0.1264  0.2436  0.4552
 2188TIP3    H128055   4.613   0.813   0.149 -0.2648 -0.1253  0.5282
 2188TIP3    H228056   4.704   0.883   0.248 -1.1101  0.1436  1.1244
 2189TIP3   OH228057   0.099   5.004  13.789  0.1508  0.6526 -0.3198
 2189TIP3    H128058   0.153   5.040  13.859  0.4628 -1.9754  0.9276
 2189TIP3    H228059   0.032   4.953  13.835 -0.8335  0.4236 -1.9213
 2190TIP3   OH228060   6.800   5.576  14.809  0.8260 -0.5275  0.4107
 2190TIP3    H128061   6.804   5.661  14.765 -2.1835 -0.1198  0.6805
 2190TIP3    H228062   6.809   5.512  14.739 -1.5093  0.1190 -0.6007
 2191TIP3   OH228063   1.619   0.344  15.327  0.2483  0.4419 -0.0279
 2191TIP3    H128064   1.622   0.259  15.283 -0.2403  1.4647 -2.1627
 2191TIP3    H228065   1.526   0.363  15.337  0.3551  0.6196  0.7227
 2192TIP3   OH228066   5.640   3.380  11.205 -0.5781 -0.6990 -0.0023
 2192TIP3    H128067   5.659   3.434  11.128 -1.1221 -0.9675 -0.3299
 2192TIP3    H228068   5.641   3.290  11.173 -3.0962 -0.7338 -0.2450
 2193TIP3   OH228069   6.344   0.846  17.077 -0.4894  0.1775 -0.5753
 2193TIP3    H128070   6.358   0.752  17.071 -1.4063  0.1013 -2.1356
 2193TIP3    H228071   6.263   0.855  17.127  0.1943  0.2264  0.5767
 2194TIP3   OH228072   4.758   4.980   5.319 -0.0575  0.2506  0.0139
 2194TIP3    H128073   4.802   4.960   5.401 -0.6279 -1.0976  0.0160
 2194TIP3    H228074   4.829   4.997   5.257  0.3827  2.6422  1.0526
 2195TIP3   OH228075   6.543   1.284  15.156  0.1461  0.2457 -0.2695
 2195TIP3    H128076   6.621   1.249  15.113  0.9725  0.0655  1.2918
 2195TIP3    H228077   6.557   1.265  15.249 -1.8458  0.0619  0.0321
 2196TIP3   OH228078   0.289   5.607  13.273  0.1127 -0.2891 -0.3420
 2196TIP3    H128079   0.253   5.686  13.314 -0.4474 -0.9184  0.4114
 2196TIP3    H228080   0.303   5.632  13.182 -1.0615  0.3646 -0.3636
 2197TIP3   OH228081   3.480   3.558  14.317  0.0836 -0.4513 -0.7579
 2197TIP3    H128082   3.503   3.611  14.393 -0.6768  0.3574 -1.0732
 2197TIP3    H228083   3.421   3.492  14.351  1.5703 -1.5675 -0.2341
 2198TIP3   OH228084   5.035   2.372   1.875 -0.2847 -0.0755  0.6420
 2198TIP3    H128085   5.010   2.280   1.882 -0.8947 -0.0394 -0.6270
 2198TIP3    H228086   5.131   2.372   1.881 -0.1550 -0.9898 -0.7744
 2199TIP3   OH228087   6.816   1.016   5.518  0.4399  0.7697 -0.1056
 2199TIP3    H128088   6.784   0.986   5.603 -0.8725 -1.7880 -1.3774
 2199TIP3    H228089   6.792   1.109   5.515 -1.3173  0.4395  1.5307
 2200TIP3   OH228090   2.188   6.453   1.265 -0.1523 -0.4528 -0.3337
 2200TIP3    H128091   2.168   6.544   1.244 -2.7157 -0.8235  0.2351
 2200TIP3    H228092   2.106   6.406   1.252  0.7848 -2.4828  0.5736
 2201TIP3   OH228093   4.909   1.903  13.980  0.2013 -0.7575  0.0848
 2201TIP3    H128094   4.934   1.985  14.022 -0.4981 -0.2844 -0.3795
 2201TIP3    H228095   4.817   1.916  13.957  0.5805 -0.9373 -1.6926
 2202TIP3   OH228096   6.681   4.115  16.769 -0.4662 -0.3655 -0.1231
 2202TIP3    H128097   6.688   4.206  16.797 -0.6290 -0.4267  0.1169
 2202TIP3    H228098   6.647   4.068  16.845 -0.2238 -0.6581 -0.1933
 2203TIP3   OH228099   5.773   1.084  16.696  0.3770  0.5322 -0.1294
 2203TIP3    H128100   5.828   1.006  16.700  0.5181  0.4689 -2.0752
 2203TIP3    H228101   5.705   1.070  16.761  0.8157 -0.8841  0.0455
 2204TIP3   OH228102   3.305   6.403  12.444  0.5421 -0.2275 -0.3569
 2204TIP3    H128103   3.322   6.310  12.427  1.1134  0.0281 -1.1833
 2204TIP3    H228104   3.265   6.435  12.364 -0.8438 -0.0305  0.3663
 2205TIP3   OH228105   5.979   2.638  15.210 -0.0576 -0.3128  0.5315
 2205TIP3    H128106   5.907   2.624  15.270 -0.1342  2.0799  1.0959
 2205TIP3    H228107   6.057   2.608  15.257 -0.5063 -1.7740  0.3828
 2206TIP3   OH228108   6.420   2.965   1.769  0.4807 -0.1084  0.2825
 2206TIP3    H128109   6.472   3.018   1.830 -1.0371  1.7425  0.0675
 2206TIP3    H228110   6.479   2.947   1.696  1.7777 -0.8348  1.4581
 2207TIP3   OH228111   5.363   3.002  11.954  0.0653 -0.0043 -0.3540
 2207TIP3    H128112   5.404   3.023  11.870  2.5063  0.7843  0.9499
 2207TIP3    H228113   5.383   3.077  12.010  2.2546 -2.2782  2.1673
 2208TIP3   OH228114   4.438   2.754   2.641 -0.1800 -0.0623 -0.0810
 2208TIP3    H128115   4.442   2.849   2.645  1.6344 -0.1260  0.8883
 2208TIP3    H228116   4.453   2.733   2.549  1.6400  0.5618  0.0426
 2209TIP3   OH228117   5.595   1.953  13.430 -0.1544  0.0483 -0.3125
 2209TIP3    H128118   5.619   2.015  13.361 -2.8490  2.1441  0.4874
 2209TIP3    H228119   5.565   1.876  13.383  2.4224 -0.4418 -1.3350
 2210TIP3   OH228120   6.531   3.395   4.724  0.6757 -0.2434  0.4760
 2210TIP3    H128121   6.454   3.451   4.733  0.9608  0.0064  1.5764
 2210TIP3    H228122   6.503   3.322   4.670 -0.1086  0.2362  0.2249
 2211TIP3   OH228123   3.279   0.181   5.387  0.1818 -0.1551 -0.8825
 2211TIP3    H128124   3.246   0.138   5.308  0.2835  3.1733 -2.9492
 2211TIP3    H228125   3.370   0.203   5.367  0.3780  0.2873  0.3823
 2212TIP3   OH228126   6.495   0.848   3.055  0.2762 -0.4050 -0.1731
 2212TIP3    H128127   6.541   0.902   2.991  1.4346 -1.9903 -0.7305
 2212TIP3    H228128   6.437   0.909   3.100  0.5659  1.0438 -1.6672
 2213TIP3   OH228129   4.320   1.529   4.389 -0.0785  0.1674 -0.2321
 2213TIP3    H128130   4.296   1.621   4.380 -0.3083  0.2533  0.9986
 2213TIP3    H228131   4.414   1.529   4.404  0.3944 -0.0121 -2.8608
 2214TIP3   OH228132   1.264   4.381  12.398  0.0237 -0.0866  0.2867
 2214TIP3    H128133   1.311   4.416  12.322 -1.3940 -0.7825 -0.9577
 2214TIP3    H228134   1.307   4.298  12.417 -0.5449 -0.6284 -0.7247
 2215TIP3   OH228135   1.857   0.430   3.980  0.3265  0.5773 -0.2725
 2215TIP3    H128136   1.866   0.339   3.950  0.3693  0.6723 -0.5524
 2215TIP3    H228137   1.889   0.483   3.907  0.7488  0.8044  0.0725
 2216TIP3   OH228138   4.161   3.408   2.445  0.0006  0.2668 -0.3408
 2216TIP3    H128139   4.146   3.455   2.364  0.0779  0.2842 -0.3444
 2216TIP3    H228140   4.256   3.401   2.453 -0.0165 -1.4815 -1.2649
 2217TIP3   OH228141   0.402   1.207  11.716  0.1103 -0.0612  0.2244
 2217TIP3    H128142   0.406   1.112  11.723 -0.9645 -0.1440 -0.1448
 2217TIP3    H228143   0.348   1.224  11.639  1.8039  0.8556 -0.8047
 2218TIP3   OH228144   0.355   2.457   1.978 -0.2979  0.2332  0.0658
 2218TIP3    H128145   0.444   2.428   1.999 -0.4089  0.4550  0.8650
 2218TIP3    H228146   0.315   2.382   1.935 -0.1074 -0.3008  0.7972
 2219TIP3   OH228147   5.070   4.552   0.122 -0.3287  0.0357 -0.3041
 2219TIP3    H128148   5.104   4.614   0.187 -0.7129  1.1617 -1.1377
 2219TIP3    H228149   5.147   4.528   0.069 -0.1829 -0.1897  0.0080
 2220TIP3   OH228150   1.322   1.826   1.221 -0.0115  0.0936 -0.0693
 2220TIP3    H128151   1.265   1.749   1.220 -0.2292  0.2475  0.1927
 2220TIP3    H228152   1.263   1.898   1.245 -0.1880  0.6331 -1.9692
 2221TIP3   OH228153   6.283   1.345   0.429 -0.8929 -0.3337 -0.2858
 2221TIP3    H128154   6.192   1.361   0.452 -0.9543 -0.0630 -0.7087
 2221TIP3    H228155   6.313   1.426   0.389  0.0855  0.2328  1.4777
 2222TIP3   OH228156   2.298   1.333  13.133  0.0507 -0.0949  0.0582
 2222TIP3    H128157   2.214   1.353  13.175  1.0694 -0.5809  2.4837
 2222TIP3    H228158   2.321   1.246  13.166  1.7210  0.2248 -0.1739
 2223TIP3   OH228159   2.252   6.169   0.752  0.0178  0.0040 -0.0049
 2223TIP3    H128160   2.234   6.175   0.658  0.3030  0.1062 -0.0571
 2223TIP3    H228161   2.236   6.077   0.774  2.8349 -0.7863 -0.7989
 2224TIP3   OH228162   2.800   1.652   3.882 -0.5867 -0.4405  0.1906
 2224TIP3    H128163   2.708   1.651   3.909 -0.7947  1.4457 -0.3029
 2224TIP3    H228164   2.797   1.673   3.789  0.3573 -0.3548  0.1750
 2225TIP3   OH228165   5.508   6.445   1.486  0.1071 -0.3559  0.0417
 2225TIP3    H128166   5.508   6.350   1.486  3.3172 -0.4662 -1.6246
 2225TIP3    H228167   5.513   6.469   1.393 -1.4488  1.5227  0.3692
 2226TIP3   OH228168   0.498   5.932  12.416  0.0792 -0.2326 -0.2333
 2226TIP3    H128169   0.589   5.962  12.425  0.2239 -0.2407 -1.5404
 2226TIP3    H228170   0.506   5.838  12.397 -0.2566 -0.4532  0.6649
 2227TIP3   OH228171   2.593   4.593  16.232 -0.1729  0.1523 -0.5220
 2227TIP3    H128172   2.623   4.527  16.169  0.2587  0.3178 -0.4983
 2227TIP3    H228173   2.660   4.662  16.228  0.3863 -0.2773  0.8297
 2228TIP3   OH228174   0.685   3.590  14.608  0.1066 -0.0046  0.2694
 2228TIP3    H128175   0.655   3.508  14.646  0.1291 -0.4687 -0.6897
 2228TIP3    H228176   0.676   3.654  14.678 -0.3174 -0.7399  0.8938
 2229TIP3   OH228177   0.596   1.526   3.963  0.7223  0.6851  0.3059
 2229TIP3    H128178   0.614   1.436   3.937  0.6546  0.5499  0.7331
 2229TIP3    H228179   0.682   1.564   3.980  0.6249 -0.2680  3.4056
 2230TIP3   OH228180   5.195   0.149   2.366 -0.0486  0.4611 -0.1613
 2230TIP3    H128181   5.290   0.132   2.368 -0.2185 -0.5264  0.1644
 2230TIP3    H228182   5.179   0.190   2.281  0.6838  0.7024 -0.1878
 2231TIP3   OH228183   4.685   6.703   5.188 -0.2137 -0.2581  0.1844
 2231TIP3    H128184   4.644   6.624   5.152  0.6188 -0.4293 -0.4337
 2231TIP3    H228185   4.765   6.671   5.231 -0.4892  0.1140  0.9781
 2232TIP3   OH228186   4.768   1.401   4.731  0.0606 -0.1116 -0.4344
 2232TIP3    H128187   4.673   1.396   4.742  0.1171 -1.0750 -0.2855
 2232TIP3    H228188   4.790   1.323   4.681  0.9708 -0.7661  0.9378
 2233TIP3   OH228189   6.777   3.899   0.313 -0.7693 -0.0558  0.1841
 2233TIP3    H128190   6.782   3.836   0.385  0.6086  0.6537  0.7446
 2233TIP3    H228191   6.753   3.981   0.356  0.4662  0.4672 -0.0857
 2234TIP3   OH228192   4.946   3.677   2.292  0.1145  0.7748 -0.3202
 2234TIP3    H128193   5.041   3.689   2.299  0.3108  0.9353 -2.4885
 2234TIP3    H228194   4.924   3.621   2.366  1.7356  1.4956  0.7741
 2235TIP3   OH228195   1.691   3.662   5.685 -0.1291 -0.1801 -0.3840
 2235TIP3    H128196   1.763   3.641   5.626  0.6164  3.1779 -0.9168
 2235TIP3    H228197   1.616   3.613   5.652  0.9253 -0.4515 -2.4923
 2236TIP3   OH228198   2.066   6.184   4.238 -0.6488 -0.2795  0.1210
 2236TIP3    H128199   2.010   6.218   4.308 -0.4825 -1.5077  0.8779
 2236TIP3    H228200   2.021   6.105   4.208 -0.2277 -0.2834 -0.5079
 2237TIP3   OH228201   1.505   0.378  13.136  0.5564  0.4092 -0.1056
 2237TIP3    H128202   1.533   0.320  13.065  1.9729  0.7090  0.1737
 2237TIP3    H228203   1.549   0.461  13.118 -0.6215  1.0869  0.0670
 2238TIP3   OH228204   0.449   3.643   2.491 -0.3461  0.4917 -0.2287
 2238TIP3    H128205   0.391   3.718   2.505  0.7134  1.4385 -0.7108
 2238TIP3    H228206   0.536   3.682   2.484  0.1327 -0.7102 -1.2845
 2239TIP3   OH228207   5.270   1.360  15.571 -0.1858  0.0957  0.0768
 2239TIP3    H128208   5.180   1.389  15.579 -0.2094  0.2333 -0.5940
 2239TIP3    H228209   5.264   1.265  15.562 -0.3930  0.2213 -1.4570
 2240TIP3   OH228210   5.712   2.339  10.441  0.2617  0.3316 -0.0458
 2240TIP3    H128211   5.804   2.352  10.417  0.7919 -0.9303  1.1768
 2240TIP3    H228212   5.682   2.271  10.380  0.2867  0.3790 -0.1115
 2241TIP3   OH228213   6.257   2.557   4.281 -0.5289  0.2609 -0.2838
 2241TIP3    H128214   6.262   2.477   4.229 -1.4559  0.0155 -0.0236
 2241TIP3    H228215   6.221   2.529   4.365  0.1204  0.7950  0.1821
 2242TIP3   OH228216   3.279   5.485   5.944 -0.2775  0.3487 -0.2074
 2242TIP3    H128217   3.236   5.533   6.014 -1.5735 -0.9900 -0.0642
 2242TIP3    H228218   3.275   5.393   5.970  1.2131  0.0291 -0.9833
 2243TIP3   OH228219   5.311   1.913   4.381  0.1900 -0.5242  0.0778
 2243TIP3    H128220   5.369   1.903   4.305  0.2927 -0.6201  0.1675
 2243TIP3    H228221   5.333   1.999   4.417 -2.2074  1.0836 -1.9610
 2244TIP3   OH228222   5.105   4.890   5.676 -0.0973  0.2360 -0.2619
 2244TIP3    H128223   5.091   4.900   5.770 -1.2493 -0.7528 -0.3046
 2244TIP3    H228224   5.040   4.826   5.649  0.8625 -0.2245 -1.5751
 2245TIP3   OH228225   2.368   1.960  13.444  0.1143 -0.5991  0.4863
 2245TIP3    H128226   2.346   1.867  13.440  1.5682 -1.0625  2.1198
 2245TIP3    H228227   2.303   1.998  13.504  0.3736 -0.8403  0.9184
 2246TIP3   OH228228   6.365   1.582   1.465 -0.0928  0.0725 -0.7613
 2246TIP3    H128229   6.363   1.565   1.371 -0.1494  0.1339 -0.7713
 2246TIP3    H228230   6.453   1.617   1.480 -0.4401  1.0638 -0.9680
 2247TIP3   OH228231   5.146   2.164  16.719 -0.3455 -0.6880  0.0971
 2247TIP3    H128232   5.124   2.167  16.812  2.0279  0.0050  0.7092
 2247TIP3    H228233   5.160   2.255  16.695 -1.2681 -0.8330 -1.0585
 2248TIP3   OH228234   3.991   3.549   5.182  0.4488  0.0108 -0.3112
 2248TIP3    H128235   3.919   3.528   5.242  0.0388  2.4729  0.1487
 2248TIP3    H228236   4.017   3.464   5.146 -1.2486 -1.1991  1.1209
 2249TIP3   OH228237   5.828   3.997  16.974 -0.1312  0.0583 -1.2594
 2249TIP3    H128238   5.746   3.992  17.024  0.8691 -0.6464  0.3735
 2249TIP3    H228239   5.805   3.961  16.888 -0.9458 -2.7092 -0.0074
 2250TIP3   OH228240   2.883   4.418  11.522  0.0251  0.8019  0.7951
 2250TIP3    H128241   2.812   4.454  11.469 -0.9663 -0.4409  1.2366
 2250TIP3    H228242   2.908   4.490  11.581 -2.1290  0.7134  1.8908
 2251TIP3   OH228243   3.034   4.812  12.661  0.1776 -0.6644 -0.0109
 2251TIP3    H128244   3.127   4.813  12.638  0.6767  0.9424  1.7981
 2251TIP3    H228245   2.989   4.837  12.580  1.2139 -2.2295 -1.1286
 2252TIP3   OH228246   0.339   6.236   6.203 -0.0666  0.2674 -0.7623
 2252TIP3    H128247   0.313   6.177   6.274  2.3179 -0.0222 -0.0307
 2252TIP3    H228248   0.369   6.315   6.248  0.0950  0.6586 -1.5472
 2253TIP3   OH228249   0.605   1.209  16.387 -0.7716  0.6645  0.8541
 2253TIP3    H128250   0.582   1.116  16.383  0.0436  0.4664 -2.1029
 2253TIP3    H228251   0.692   1.210  16.428  0.8218 -0.4015 -2.1499
 2254TIP3   OH228252   1.909   1.507  17.173  0.3599  0.0358  0.5323
 2254TIP3    H128253   1.995   1.522  17.134  0.9811  0.2123  1.9176
 2254TIP3    H228254   1.917   1.539  17.263 -0.5870 -1.6325  1.2606
 2255TIP3   OH228255   2.766   4.564  11.309  0.5637  0.0655 -0.2618
 2255TIP3    H128256   2.798   4.554  11.219  0.4934  0.9061 -0.3941
 2255TIP3    H228257   2.784   4.656  11.330  2.1863 -0.5337  1.2209
 2256TIP3   OH228258   0.586   4.498  16.736  0.4442 -0.3980  0.0498
 2256TIP3    H128259   0.511   4.442  16.757 -0.0944  0.3871  0.2708
 2256TIP3    H228260   0.611   4.473  16.647 -2.1043  1.4536 -1.3352
 2257TIP3   OH228261   5.769   5.739  11.627 -0.3931 -0.2658 -0.0920
 2257TIP3    H128262   5.758   5.812  11.687 -0.4613  2.5754 -3.2856
 2257TIP3    H228263   5.863   5.728  11.618 -0.3626  0.1854 -0.3783
 2258TIP3   OH228264   3.627   5.466  14.375 -0.0872  0.6680 -0.4218
 2258TIP3    H128265   3.647   5.551  14.414  0.3684 -0.1664  1.2968
 2258TIP3    H228266   3.563   5.427  14.435 -0.6228 -0.0322 -1.4196
 2259TIP3   OH228267   6.682   4.531  12.551  0.1459  0.4339 -0.1674
 2259TIP3    H128268   6.749   4.519  12.484 -1.1524  0.4651 -1.5029
 2259TIP3    H228269   6.652   4.442  12.570  1.4111  0.2858  1.3834
 2260TIP3   OH228270   2.205   4.548  11.859 -0.4322  0.9079 -0.2156
 2260TIP3    H128271   2.290   4.543  11.902 -0.4224 -1.4086 -0.3627
 2260TIP3    H228272   2.225   4.568  11.767 -0.1563  1.6504  0.0021
 2261TIP3   OH228273   3.775   2.578   2.855  0.2854  0.5181  0.1146
 2261TIP3    H128274   3.789   2.663   2.814 -0.6711  0.1603 -0.9817
 2261TIP3    H228275   3.723   2.528   2.792 -0.5325 -0.3378  1.4074
 2262TIP3   OH228276   3.200   5.690   6.153  0.0434  0.2954  0.1115
 2262TIP3    H128277   3.128   5.725   6.204 -1.4618  0.5005 -2.0334
 2262TIP3    H228278   3.212   5.601   6.185  0.7492  1.1327  2.3645
 2263TIP3   OH228279   5.069   6.822  15.016  0.2372  0.3768  0.0269
 2263TIP3    H128280   5.157   6.800  14.985 -0.2308  0.1090 -1.1712
 2263TIP3    H228281   5.035   6.881  14.949 -0.8830 -0.3653 -0.0744
 2264TIP3   OH228282   2.684   5.470  14.767 -0.2193  0.0009 -0.1022
 2264TIP3    H128283   2.731   5.539  14.720 -1.1091 -0.7975 -2.2944
 2264TIP3    H228284   2.604   5.512  14.797  1.0507  0.9326  2.2137
 2265TIP3   OH228285   2.484   4.119   0.066  0.1496 -0.0746 -0.1122
 2265TIP3    H128286   2.426   4.062   0.116  1.0994 -0.2631  0.8030
 2265TIP3    H228287   2.525   4.176   0.131  1.4934 -0.3985 -0.6322
 2266TIP3   OH228288   4.457   5.569  16.792  0.4848 -0.1272 -0.4029
 2266TIP3    H128289   4.368   5.546  16.818 -0.1700  0.2062 -2.1811
 2266TIP3    H228290   4.460   5.665  16.801  0.1911  0.0136 -1.6052
 2267TIP3   OH228291   0.136   0.331  13.903  0.1801  0.0111  0.4179
 2267TIP3    H128292   0.045   0.317  13.876  0.7267 -0.0188 -1.4782
 2267TIP3    H228293   0.170   0.244  13.920  0.2936 -0.1033 -0.3739
 2268TIP3   OH228294   3.497   2.214  14.312 -0.0307 -0.6955  0.3840
 2268TIP3    H128295   3.576   2.174  14.275 -0.2544 -1.9407  1.1630
 2268TIP3    H228296   3.477   2.288  14.255  2.3480  0.3646  0.8009
 2269TIP3   OH228297   6.619   0.500   2.648  0.1947 -0.4501  0.0314
 2269TIP3    H128298   6.699   0.463   2.612 -0.5452  1.3338 -4.0244
 2269TIP3    H228299   6.644   0.586   2.681  0.3406 -0.8843  1.0821
 2270TIP3   OH228300   2.409   6.359  13.524 -0.5347 -0.1742  0.1130
 2270TIP3    H128301   2.330   6.411  13.511 -0.3561  0.2054  0.5354
 2270TIP3    H228302   2.480   6.423  13.523 -0.0046 -0.6820 -2.2161
 2271TIP3   OH228303   2.067   0.220  12.571 -0.5102  0.0189 -0.9148
 2271TIP3    H128304   2.100   0.146  12.621 -1.2569 -0.8201 -1.6218
 2271TIP3    H228305   1.972   0.207  12.569 -0.6991  1.2816 -0.6139
 2272TIP3   OH228306   1.827   3.588  11.192 -0.1293 -0.0476  0.2135
 2272TIP3    H128307   1.910   3.543  11.209 -0.5218 -1.2642 -0.9234
 2272TIP3    H228308   1.838   3.626  11.105 -0.6697  0.0030  0.1674
 2273TIP3   OH228309   6.052   4.432   6.081  0.1905 -0.2142 -0.2967
 2273TIP3    H128310   6.038   4.517   6.123  1.4229 -0.1319 -0.0060
 2273TIP3    H228311   5.986   4.428   6.012  1.2172  1.7849 -1.4907
 2274TIP3   OH228312   3.816   0.823  15.311 -0.1479 -0.5758 -0.0879
 2274TIP3    H128313   3.896   0.873  15.302  0.6309 -1.8353 -0.4713
 2274TIP3    H228314   3.775   0.856  15.391  0.2036  0.8133 -0.4598
 2275TIP3   OH228315   6.519   1.461   4.177  0.0434  0.4829  0.0187
 2275TIP3    H128316   6.579   1.432   4.246 -2.5280 -2.0983  1.3471
 2275TIP3    H228317   6.513   1.386   4.118 -0.8323  1.2152 -0.8479
 2276TIP3   OH228318   5.552   0.630  13.368  0.0753 -0.4838  0.1423
 2276TIP3    H128319   5.459   0.613  13.385 -0.4849  1.3983 -0.7157
 2276TIP3    H228320   5.587   0.657  13.453 -0.4182 -0.2422  0.2762
 2277TIP3   OH228321   1.259   0.544   0.786 -0.0963 -0.5358  0.3531
 2277TIP3    H128322   1.316   0.619   0.765  0.6384 -0.2311  3.1119
 2277TIP3    H228323   1.208   0.531   0.706 -0.7346  3.3507 -0.0706
 2278TIP3   OH228324   1.513   6.815   5.955  0.2759 -0.3479 -0.0610
 2278TIP3    H128325   1.513   6.732   6.002 -1.0746  0.1472  0.9106
 2278TIP3    H228326   1.597   6.855   5.975  0.7351 -1.2676 -0.1488
 2279TIP3   OH228327   4.780   5.156   1.229 -0.4471  0.0762 -0.2971
 2279TIP3    H128328   4.698   5.108   1.215 -0.9702  0.8413  0.0456
 2279TIP3    H228329   4.752   5.245   1.249  0.4776  0.3484 -0.1719
 2280TIP3   OH228330   2.171   3.741   5.298 -0.7248 -0.0899 -0.3987
 2280TIP3    H128331   2.225   3.732   5.219  0.0008  0.4673  0.0184
 2280TIP3    H228332   2.200   3.824   5.336 -1.1203 -0.3259  0.4171
 2281TIP3   OH228333   2.162   5.523  13.504  0.4438  0.2940 -0.8814
 2281TIP3    H128334   2.144   5.585  13.433  0.4349  1.1362 -0.1685
 2281TIP3    H228335   2.164   5.578  13.583  1.0404 -0.5381 -0.3060
 2282TIP3   OH228336   3.391   6.226  16.207  0.3663  0.3187  0.4576
 2282TIP3    H128337   3.356   6.308  16.173 -2.2847 -0.1388  1.7913
 2282TIP3    H228338   3.352   6.217  16.293  1.4390 -1.8353  0.7948
 2283TIP3   OH228339   2.409   3.412  10.986  1.0019 -0.1797 -0.5778
 2283TIP3    H128340   2.489   3.463  10.975  0.3927  0.8746 -0.2840
 2283TIP3    H228341   2.341   3.465  10.943  0.0814  0.0135  1.0188
 2284TIP3   OH228342   3.238   2.922  15.720  0.7477  0.3924  0.0493
 2284TIP3    H128343   3.214   2.982  15.790 -2.7476 -2.1749  1.3684
 2284TIP3    H228344   3.240   2.836  15.762  0.5321 -1.0119 -2.6026
 2285TIP3   OH228345   6.319   4.605  13.543 -0.3277  0.0581  0.0194
 2285TIP3    H128346   6.247   4.666  13.560 -0.0518  0.3056  0.3140
 2285TIP3    H228347   6.379   4.654  13.486 -0.1580  0.0296  0.1702
 2286TIP3   OH228348   0.862   1.984  15.860  0.2904 -0.6889  0.4555
 2286TIP3    H128349   0.932   2.021  15.915  0.2680 -0.0911  0.0911
 2286TIP3    H228350   0.874   2.026  15.775 -0.6773 -0.3809  0.4603
 2287TIP3   OH228351   2.393   6.593  16.682 -0.4896 -0.7754 -0.9754
 2287TIP3    H128352   2.307   6.630  16.660 -0.7400 -0.9459 -0.3216
 2287TIP3    H228353   2.372   6.509  16.724 -0.0792 -0.0809  0.6767
 2288TIP3   OH228354   4.542   3.485  15.713  0.6350 -0.8326  0.2571
 2288TIP3    H128355   4.581   3.531  15.787  2.4580 -3.1555  0.8827
 2288TIP3    H228356   4.609   3.487  15.645 -0.1199 -0.6655 -0.4874
 2289TIP3   OH228357   0.290   4.004   4.222  0.1626  0.2917 -0.2452
 2289TIP3    H128358   0.298   3.964   4.136  1.5602  0.4822 -0.2253
 2289TIP3    H228359   0.338   4.086   4.215 -1.6025  1.4034  0.0821
 2290TIP3   OH228360   6.269   0.488   2.270  0.6489  0.5209 -0.1432
 2290TIP3    H128361   6.299   0.398   2.283 -2.0568 -0.3345  0.8255
 2290TIP3    H228362   6.276   0.529   2.356  1.0088  0.9660 -0.3795
 2291TIP3   OH228363   2.903   1.661  11.449  0.1902  0.2814 -0.3295
 2291TIP3    H128364   2.899   1.679  11.542 -2.7939 -0.9315 -0.1097
 2291TIP3    H228365   2.944   1.739  11.411 -1.5417  2.3128  1.6636
 2292TIP3   OH228366   4.646   5.705  10.731  0.3367 -0.1220 -0.1809
 2292TIP3    H128367   4.609   5.672  10.650 -1.7660 -0.2551  0.7661
 2292TIP3    H228368   4.648   5.629  10.790  2.2048 -0.1244 -0.1890
 2293TIP3   OH228369   2.639   0.573  17.136  0.3294 -0.0405 -0.4000
 2293TIP3    H128370   2.728   0.555  17.167  0.8038 -0.2871 -1.8589
 2293TIP3    H228371   2.636   0.537  17.048 -0.9704  0.6853 -0.6813
 2294TIP3   OH228372   3.981   5.881  15.027 -0.2138 -0.1217 -0.3425
 2294TIP3    H128373   4.054   5.820  15.041  0.0476  0.3477  0.3862
 2294TIP3    H228374   4.022   5.967  15.027 -0.9237  0.2533  1.4055
 2295TIP3   OH228375   2.539   0.009  13.117 -0.0061  0.0718 -0.1836
 2295TIP3    H128376   2.453   0.049  13.133 -0.1964  0.2317 -1.4291
 2295TIP3    H228377   2.602   0.075  13.144 -0.2552 -0.1627  1.0251
 2296TIP3   OH228378   3.495   0.971  12.265 -0.5352 -0.1785  0.1517
 2296TIP3    H128379   3.426   0.919  12.223 -1.0650 -2.1357  3.1417
 2296TIP3    H228380   3.547   0.907  12.313  1.7446  1.6010  0.2140
 2297TIP3   OH228381   1.831   0.301  14.205  0.6057  0.7699 -0.2299
 2297TIP3    H128382   1.813   0.273  14.295  2.3611  0.1242 -0.0371
 2297TIP3    H228383   1.847   0.395  14.213 -0.3668  0.9358 -0.0708
 2298TIP3   OH228384   5.732   4.256   3.715  0.1940  0.2020 -0.2368
 2298TIP3    H128385   5.692   4.250   3.801  0.4942  0.7082 -0.0544
 2298TIP3    H228386   5.760   4.347   3.708 -0.5864  0.3864 -1.2136
 2299TIP3   OH228387   1.781   3.829   4.097 -1.2455  0.2070  0.4204
 2299TIP3    H128388   1.871   3.859   4.081 -1.1092 -0.4021  0.0096
 2299TIP3    H228389   1.726   3.898   4.061 -0.9415  0.1052 -0.2470
 2300TIP3   OH228390   2.927   2.971  12.468  0.0188 -0.0073 -0.1963
 2300TIP3    H128391   2.898   2.983  12.558  0.3691  0.5209 -0.1416
 2300TIP3    H228392   2.849   2.987  12.415 -0.2658 -0.6605  0.0285
 2301TIP3   OH228393   2.115   5.226  13.052 -0.4116 -0.1872  0.0994
 2301TIP3    H128394   2.073   5.239  13.137 -0.7247 -1.2470  0.1281
 2301TIP3    H228395   2.070   5.150  13.015 -1.1575  1.0350 -1.5924
 2302TIP3   OH228396   3.398   0.791   5.642  0.2581  0.2549  0.0853
 2302TIP3    H128397   3.315   0.764   5.681  0.7851  0.8374  1.6801
 2302TIP3    H228398   3.454   0.713   5.651  0.3422  0.3498  0.3958
 2303TIP3   OH228399   0.938   6.204  15.845 -0.7198  0.0298 -0.5774
 2303TIP3    H128400   0.977   6.260  15.912 -0.1955  0.4023 -1.1847
 2303TIP3    H228401   0.946   6.115  15.880  3.3344 -0.3057 -1.8607
 2304TIP3   OH228402   1.635   4.507  11.339  0.4800 -0.2487  0.2506
 2304TIP3    H128403   1.618   4.424  11.384  1.3768 -0.5989 -0.0314
 2304TIP3    H228404   1.559   4.519  11.282  0.7437 -1.3400 -0.3650
 2305TIP3   OH228405   4.699   4.217   0.963  0.4201 -0.3566  0.7238
 2305TIP3    H128406   4.729   4.245   1.049 -1.1042 -0.6847  1.3959
 2305TIP3    H228407   4.670   4.127   0.975  2.6730 -1.3769 -0.7799
 2306TIP3   OH228408   4.514   6.098  14.361  0.6468  0.0880  0.0259
 2306TIP3    H128409   4.422   6.082  14.378  0.4412  1.4871  0.4255
 2306TIP3    H228410   4.548   6.015  14.329 -0.9656 -0.1755 -1.1059
 2307TIP3   OH228411   6.762   1.358   4.266  0.6661 -0.1690  0.2137
 2307TIP3    H128412   6.766   1.326   4.176  3.3053 -1.2967  0.6295
 2307TIP3    H228413   6.772   1.453   4.258 -0.6566 -0.0828 -0.7191
 2308TIP3   OH228414   4.410   1.467   3.510  0.4215 -0.0658  0.2005
 2308TIP3    H128415   4.457   1.550   3.521  0.9274 -0.4316  0.9018
 2308TIP3    H228416   4.322   1.492   3.481  0.6161  0.7008  0.2610
 2309TIP3   OH228417   1.528   3.221   4.265  0.0548  0.2158 -0.5166
 2309TIP3    H128418   1.449   3.181   4.229 -1.7787  2.8385  0.2723
 2309TIP3    H228419   1.496   3.275   4.337  2.8296  0.0589  0.9536
 2310TIP3   OH228420   0.078   6.562  16.799  0.2254 -0.0861  0.2622
 2310TIP3    H128421   0.049   6.563  16.890  0.7632  0.8019  0.4401
 2310TIP3    H228422   0.167   6.526  16.803 -0.2084 -1.2028 -0.0653
 2311TIP3   OH228423   5.232   1.431   6.680  0.0558  0.0848  0.3417
 2311TIP3    H128424   5.293   1.374   6.727 -1.7134  0.1897  2.8861
 2311TIP3    H228425   5.153   1.379   6.670 -0.9126  1.3930  0.9461
 2312TIP3   OH228426   3.793   5.487  11.770  0.1975  0.4399 -0.4552
 2312TIP3    H128427   3.848   5.554  11.731 -1.4012  1.6252 -0.7617
 2312TIP3    H228428   3.814   5.407  11.721  1.5180  0.8698 -0.6343
 2313TIP3   OH228429   4.469   1.587  16.908 -0.7449  0.0844 -0.1797
 2313TIP3    H128430   4.538   1.590  16.842  0.2143 -0.1463  0.7910
 2313TIP3    H228431   4.495   1.653  16.973 -0.5443 -1.1535  1.0304
 2314TIP3   OH228432   6.812   3.428   1.753  0.2100 -0.4840  0.1288
 2314TIP3    H128433   6.838   3.336   1.753 -0.4911 -0.6928  0.7872
 2314TIP3    H228434   6.892   3.476   1.772  0.5121 -0.9825  0.1364
 2315TIP3   OH228435   1.556   6.726  16.697  0.1222 -0.1007  0.0484
 2315TIP3    H128436   1.618   6.654  16.710 -0.1366 -0.4396 -0.5519
 2315TIP3    H228437   1.482   6.705  16.755 -2.0648 -2.8115 -3.3489
 2316TIP3   OH228438   2.135   0.081   0.494 -0.1370  0.1817 -0.5430
 2316TIP3    H128439   2.160   0.155   0.438 -4.5093  1.7104 -0.8469
 2316TIP3    H228440   2.055   0.046   0.454 -1.7780 -0.6103  3.0068
 2317TIP3   OH228441   1.488   4.997   3.847 -0.0634  0.0749 -0.0134
 2317TIP3    H128442   1.534   5.039   3.920 -1.0274  0.1145  0.5878
 2317TIP3    H228443   1.409   5.049   3.836 -1.3874 -1.6565  0.8740
 2318TIP3   OH228444   4.604   5.649  14.934 -0.3748  0.1087  0.3732
 2318TIP3    H128445   4.636   5.585  14.871  0.5990  0.2726  0.6870
 2318TIP3    H228446   4.555   5.597  14.998  0.8946 -0.4159  0.9481
 2319TIP3   OH228447   6.427   5.669   4.937 -0.0837  0.4049  0.1292
 2319TIP3    H128448   6.381   5.669   4.853  1.0672 -0.8387 -0.5509
 2319TIP3    H228449   6.385   5.738   4.987 -0.1453  1.8945 -1.8322
 2320TIP3   OH228450   5.690   5.963  14.437  0.6037  0.0767  0.1572
 2320TIP3    H128451   5.722   6.012  14.362  1.7416  0.5016  0.8943
 2320TIP3    H228452   5.769   5.924  14.475  0.1443  0.4279  1.5185
 2321TIP3   OH228453   4.067   5.004   5.006  0.0864 -0.0343  0.1583
 2321TIP3    H128454   4.024   5.038   4.927 -1.1656 -1.1718  0.3138
 2321TIP3    H228455   4.159   4.998   4.982 -0.0777  0.8243 -0.7797
 2322TIP3   OH228456   0.644   4.600   4.592 -0.4635 -0.1066 -0.0396
 2322TIP3    H128457   0.559   4.582   4.633 -0.4275  0.4768  0.3008
 2322TIP3    H228458   0.646   4.544   4.514  0.3325 -2.9141  1.8212
 2323TIP3   OH228459   6.523   6.486  12.920 -0.0015 -0.3253  0.4369
 2323TIP3    H128460   6.516   6.419  12.988  0.0572 -2.0374 -1.1631
 2323TIP3    H228461   6.580   6.553  12.958 -1.4315 -0.2928  2.7351
 2324TIP3   OH228462   3.988   6.028   0.803 -0.2838 -0.2555  0.2688
 2324TIP3    H128463   4.039   5.997   0.878  0.3458  0.5507  0.1881
 2324TIP3    H228464   3.907   6.061   0.842 -0.6979 -1.3938  0.4123
 2325TIP3   OH228465   4.859   6.237   3.814  0.0790 -0.1809 -0.4733
 2325TIP3    H128466   4.867   6.143   3.798 -0.7451 -0.1857 -0.9285
 2325TIP3    H228467   4.765   6.252   3.826 -0.0570  0.8652 -2.3602
 2326TIP3   OH228468   3.924   1.712   0.762  0.1829  0.2137  0.3149
 2326TIP3    H128469   3.835   1.736   0.788 -0.3147  1.2289 -2.0646
 2326TIP3    H228470   3.913   1.633   0.710  0.9362 -0.7659  1.6039
 2327TIP3   OH228471   4.959   4.069  13.013  0.2558  0.3689  0.3586
 2327TIP3    H128472   4.911   3.987  13.024 -0.0244  0.6605  1.4615
 2327TIP3    H228473   5.043   4.042  12.977  1.2980 -0.8052  3.3273
 2328TIP3   OH228474   3.109   3.426   3.948  0.6599  0.1025 -0.0761
 2328TIP3    H128475   3.123   3.394   3.858 -0.5935 -0.3265 -0.1300
 2328TIP3    H228476   3.039   3.370   3.982  1.2341  0.1594  1.2323
 2329TIP3   OH228477   1.029   2.503  12.655 -0.3139  0.1318 -0.5713
 2329TIP3    H128478   1.112   2.482  12.698  0.3666  1.1911 -1.3256
 2329TIP3    H228479   0.962   2.477  12.719  0.6128 -0.2354  0.2759
 2330TIP3   OH228480   3.671   6.672   4.908  0.4268 -0.6479  0.3113
 2330TIP3    H128481   3.683   6.759   4.947  0.5922 -1.2850  1.7263
 2330TIP3    H228482   3.640   6.618   4.980  3.3583 -2.5395  0.3361
 2331TIP3   OH228483   5.222   4.082   2.194  0.3270 -0.6382  0.1542
 2331TIP3    H128484   5.222   4.126   2.109 -0.2746  1.1282  1.0129
 2331TIP3    H228485   5.299   4.116   2.239  0.8095 -1.7914  0.2204
 2332TIP3   OH228486   1.500   1.036   3.042  0.3315  0.1661 -0.3569
 2332TIP3    H128487   1.418   1.044   2.993  0.7465  1.7120 -0.8599
 2332TIP3    H228488   1.559   0.991   2.982  0.2597  0.3162 -0.5436
 2333TIP3   OH228489   3.960   6.513   2.974  0.1371 -0.6369  0.2540
 2333TIP3    H128490   3.876   6.555   2.958  1.5122  1.2552 -2.9986
 2333TIP3    H228491   3.963   6.440   2.912  0.1657 -1.9745  1.7552
 2334TIP3   OH228492   6.344   3.506   0.978 -0.2528 -0.5333  0.7458
 2334TIP3    H128493   6.375   3.591   0.948  0.7524 -1.2375 -0.3353
 2334TIP3    H228494   6.249   3.509   0.968 -0.2405  0.5005  0.8580
 2335TIP3   OH228495   2.703   1.693  16.305  0.4828 -0.0163  0.1954
 2335TIP3    H128496   2.692   1.688  16.400  0.1924 -1.0611  0.1204
 2335TIP3    H228497   2.706   1.787  16.286 -0.1475  0.2121  1.1571
 2336TIP3   OH228498   5.725   4.721   4.172 -0.5458  0.1302  0.3039
 2336TIP3    H128499   5.776   4.677   4.104 -1.8467 -2.1769  0.7298
 2336TIP3    H228500   5.669   4.782   4.124  0.6922  0.7674 -0.3864
 2337TIP3   OH228501   0.322   4.535   4.104 -0.1895 -0.5760 -0.0456
 2337TIP3    H128502   0.318   4.630   4.091  0.4649 -0.7252 -1.5333
 2337TIP3    H228503   0.391   4.523   4.168 -0.1660 -0.0470  0.0341
 2338TIP3   OH228504   4.595   6.334   2.071  0.0756  0.4101 -0.0172
 2338TIP3    H128505   4.677   6.373   2.100  0.8655 -0.7502 -0.6024
 2338TIP3    H228506   4.613   6.240   2.067 -1.4243  0.0754  0.2799
 2339TIP3   OH228507   1.907   3.800   0.542 -0.6838 -0.5712  0.1681
 2339TIP3    H128508   1.895   3.869   0.607 -1.0502 -0.5983  0.1303
 2339TIP3    H228509   1.931   3.846   0.462 -1.7121 -0.4236 -0.0659
 2340TIP3   OH228510   1.754   5.317   5.790  0.4745  0.1919 -0.3222
 2340TIP3    H128511   1.769   5.222   5.790 -0.4462  0.0365 -0.9340
 2340TIP3    H228512   1.686   5.330   5.856  0.4184  0.4073 -0.4254
 2341TIP3   OH228513   4.520   3.514   3.946 -0.1348 -0.2849 -0.2343
 2341TIP3    H128514   4.547   3.553   3.863  0.6639 -0.1391  0.0872
 2341TIP3    H228515   4.542   3.421   3.937 -0.8346 -0.4343 -0.5005
 2342TIP3   OH228516   6.090   2.598  10.675  0.2398 -0.0292 -0.2924
 2342TIP3    H128517   6.132   2.524  10.632  0.6047 -0.2876  0.5028
 2342TIP3    H228518   6.067   2.658  10.603 -0.8915 -1.3085 -1.0479
 2343TIP3   OH228519   3.732   3.847   0.115 -0.4029  0.2075 -0.0369
 2343TIP3    H128520   3.807   3.828   0.058  0.3813  1.1270  0.6372
 2343TIP3    H228521   3.716   3.941   0.103 -0.4022  0.3609  1.0090
 2344TIP3   OH228522   6.072   0.051   3.795  0.3074  0.1591  0.0625
 2344TIP3    H128523   6.162   0.022   3.806  0.3475  0.7730  1.5500
 2344TIP3    H228524   6.024   0.009   3.866 -1.0547 -1.8600 -1.9027
 2345TIP3   OH228525   0.078   1.487  13.038 -0.0040 -0.4626  0.1282
 2345TIP3    H128526   0.152   1.540  13.012  0.0886 -0.1744  0.9379
 2345TIP3    H228527   0.002   1.531  13.000 -0.2961  2.1166  3.3029
 2346TIP3   OH228528   2.126   1.587  12.443  0.1740  0.2230 -0.2035
 2346TIP3    H128529   2.095   1.504  12.479 -0.4048  0.7365  0.5116
 2346TIP3    H228530   2.100   1.583  12.351  2.4603 -1.4828 -0.8648
 2347TIP3   OH228531   2.787   2.960   1.630  0.2571  0.2323 -0.3724
 2347TIP3    H128532   2.843   2.891   1.593 -0.4580 -0.6276  0.1299
 2347TIP3    H228533   2.842   3.038   1.628  2.7772 -1.2057  3.1686
 2348TIP3   OH228534   1.874   5.060  13.880  0.0647  0.1593  0.6372
 2348TIP3    H128535   1.946   5.061  13.943  0.5624 -0.7846  0.0921
 2348TIP3    H228536   1.895   5.130  13.818 -0.1014  0.6615  1.1290
 2349TIP3   OH228537   5.744   4.349   2.409 -0.2581  0.0900  0.5515
 2349TIP3    H128538   5.705   4.437   2.408  0.1991  0.2974  0.6131
 2349TIP3    H228539   5.755   4.327   2.317  0.9400  0.7007  0.5276
 2350TIP3   OH228540   1.824   1.749  11.363 -0.5400  0.2063 -0.1300
 2350TIP3    H128541   1.756   1.706  11.312  0.0482  1.5658 -2.2234
 2350TIP3    H228542   1.905   1.731  11.316  0.1703  0.7967  0.8149
 2351TIP3   OH228543   4.724   4.849  16.669 -0.5039 -0.4631  0.2562
 2351TIP3    H128544   4.629   4.843  16.682 -0.3840  1.2412  2.5338
 2351TIP3    H228545   4.761   4.840  16.757  1.6040 -2.5020 -0.7262
 2352TIP3   OH228546   1.741   0.996   1.138  0.2931 -0.4940  0.2622
 2352TIP3    H128547   1.712   1.035   1.055  0.6069  1.3223  0.9481
 2352TIP3    H228548   1.733   0.902   1.124 -0.6778 -0.2126 -1.4555
 2353TIP3   OH228549   2.070   4.151   4.933  0.3827 -0.1133 -0.1894
 2353TIP3    H128550   2.128   4.226   4.922  1.2552 -0.8004 -0.3778
 2353TIP3    H228551   2.093   4.114   5.018  0.6743 -0.7642 -0.5419
 2354TIP3   OH228552   5.217   1.630   0.897  0.3284 -0.6064  0.5338
 2354TIP3    H128553   5.158   1.555   0.886  0.1213 -0.3530 -0.1104
 2354TIP3    H228554   5.242   1.654   0.808 -2.5290  2.4239  0.3755
 2355TIP3   OH228555   1.720   2.229  12.475 -0.0128 -0.3727  0.0967
 2355TIP3    H128556   1.744   2.319  12.451  2.6436 -0.8642  0.6199
 2355TIP3    H228557   1.792   2.199  12.530 -1.3047 -2.5360  0.7146
 2356TIP3   OH228558   2.416   4.891  12.862 -0.0306  0.8701 -0.3289
 2356TIP3    H128559   2.500   4.851  12.885 -0.6173 -0.5714 -0.5864
 2356TIP3    H228560   2.383   4.838  12.790 -2.4098 -0.3050  1.5028
 2357TIP3   OH228561   1.046   5.427   0.043 -0.0069 -0.3415 -0.4342
 2357TIP3    H128562   0.998   5.366   0.099 -1.5557  0.0219 -1.3126
 2357TIP3    H228563   0.991   5.436  -0.035  1.1139  0.7311 -1.1343
 2358TIP3   OH228564   4.625   2.532  14.584 -0.3482 -0.1691 -0.3105
 2358TIP3    H128565   4.623   2.562  14.675  0.2448 -1.6623  0.2211
 2358TIP3    H228566   4.647   2.610  14.533  0.4347  0.4471  0.9318
 2359TIP3   OH228567   5.206   1.038   2.600  0.3324 -0.3416 -0.0912
 2359TIP3    H128568   5.222   1.043   2.694  0.6164 -0.2593 -0.1454
 2359TIP3    H228569   5.252   1.114   2.563  1.6474 -1.3031 -0.4928
 2360TIP3   OH228570   0.374   2.567  13.508  0.2533 -0.7652  0.1481
 2360TIP3    H128571   0.406   2.595  13.594  0.4096 -1.3153  0.2766
 2360TIP3    H228572   0.376   2.646  13.455  1.2683 -0.6585  0.3222
 2361TIP3   OH228573   5.354   0.574  10.428 -0.2345  0.2722 -0.6477
 2361TIP3    H128574   5.299   0.508  10.384 -0.8135 -0.9446  1.7284
 2361TIP3    H228575   5.373   0.536  10.514  0.7271  2.5714  0.2414
 2362TIP3   OH228576   4.133   6.279  11.520  0.1040  0.0365  0.1623
 2362TIP3    H128577   4.216   6.254  11.560  0.0697  1.1568  0.9800
 2362TIP3    H228578   4.112   6.363  11.560 -1.2531 -0.0675 -0.2952
 2363TIP3   OH228579   4.988   1.184   3.871 -0.0345 -0.5325 -0.4679
 2363TIP3    H128580   5.074   1.225   3.878 -0.3366  0.3585 -1.5816
 2363TIP3    H228581   4.926   1.256   3.885 -0.5735 -0.8145 -1.3097
 2364TIP3   OH228582   4.008   1.803   1.040  0.1336 -0.3852 -0.4473
 2364TIP3    H128583   4.026   1.839   0.953  1.5664 -0.9013 -0.4007
 2364TIP3    H228584   4.094   1.775   1.072 -0.8544 -3.7662 -0.4223
 2365TIP3   OH228585   4.895   5.720   4.257  0.0910  0.5951  0.3762
 2365TIP3    H128586   4.883   5.626   4.267  0.0057  0.6534  0.8362
 2365TIP3    H228587   4.990   5.733   4.260  0.1109  0.5081  0.1513
 2366TIP3   OH228588   6.329   4.271   2.734  0.1051 -0.7661  0.5663
 2366TIP3    H128589   6.424   4.271   2.742  0.1901  0.2895 -0.3032
 2366TIP3    H228590   6.310   4.206   2.666  0.2291 -0.7104  0.4786
 2367TIP3   OH228591   0.030   6.394  12.058  0.5348  0.3588 -0.5768
 2367TIP3    H128592   0.059   6.484  12.044  1.2438  0.3159  0.5223
 2367TIP3    H228593   0.104   6.351  12.102 -0.8474  0.0355  1.5805
 2368TIP3   OH228594   2.683   6.558   4.313  0.2185 -0.4623 -0.2483
 2368TIP3    H128595   2.618   6.588   4.250  0.8897  1.7566  0.0405
 2368TIP3    H228596   2.661   6.466   4.328 -1.1553 -0.5209 -2.2015
 2369TIP3   OH228597   6.803   5.962   3.077 -1.0312 -0.2494  0.1038
 2369TIP3    H128598   6.825   5.898   3.145 -0.6067 -1.3328 -1.0176
 2369TIP3    H228599   6.824   6.047   3.116 -1.7888 -0.7583  1.6930
 2370TIP3   OH228600   1.958   5.248  13.482  0.5764 -0.0095 -0.5202
 2370TIP3    H128601   1.942   5.154  13.469  1.0909 -0.1697 -0.0447
 2370TIP3    H228602   1.948   5.287  13.396 -0.4248 -0.3867 -0.5864
 2371TIP3   OH228603   5.684   3.371  14.051 -0.1884 -0.7398 -0.1273
 2371TIP3    H128604   5.753   3.356  13.986  1.5363  0.8728  1.2295
 2371TIP3    H228605   5.634   3.445  14.016  2.0254  1.5397  1.2119
 2372TIP3   OH228606   1.254   2.587   4.108  0.3294  0.7233 -0.5078
 2372TIP3    H128607   1.297   2.568   4.025 -1.1731 -0.5161 -1.0451
 2372TIP3    H228608   1.326   2.600   4.170  1.4620  0.9155 -1.8296
 2373TIP3   OH228609   4.914   2.725  16.718  0.4727 -0.0501  0.0745
 2373TIP3    H128610   4.970   2.774  16.779  1.2788 -1.3292  0.3966
 2373TIP3    H228611   4.970   2.710  16.641 -0.0215  0.2023 -0.3356
 2374TIP3   OH228612   3.366   4.261   1.445  0.1097 -0.0766  0.5915
 2374TIP3    H128613   3.368   4.352   1.475  0.8833  0.5258 -1.2084
 2374TIP3    H228614   3.454   4.244   1.414 -0.0941 -1.3851  0.7031
 2375TIP3   OH228615   3.514   5.994  14.958  0.2125 -0.4698 -0.0510
 2375TIP3    H128616   3.421   6.016  14.946  0.0756 -0.4076  0.9750
 2375TIP3    H228617   3.532   6.020  15.049  1.7774  1.4174 -0.8344
 2376TIP3   OH228618   4.939   5.289   3.810 -0.9370 -0.0168  0.0797
 2376TIP3    H128619   4.957   5.352   3.740  0.2616  0.3107  0.6537
 2376TIP3    H228620   4.880   5.335   3.869 -0.7770  0.2550  0.0315
 2377TIP3   OH228621   1.479   4.612   0.571 -0.0997  0.3825  0.4716
 2377TIP3    H128622   1.552   4.563   0.531 -0.8818 -1.3405  1.0574
 2377TIP3    H228623   1.401   4.562   0.546 -0.9922  1.6222  0.7267
 2378TIP3   OH228624   5.797   0.262   6.700 -0.1745 -1.1252  0.2102
 2378TIP3    H128625   5.766   0.319   6.629  1.4366 -1.5917 -0.9078
 2378TIP3    H228626   5.750   0.294   6.778 -0.2830  0.9003 -0.6147
 2379TIP3   OH228627   3.840   5.167   5.540  0.1569 -0.3210 -0.2168
 2379TIP3    H128628   3.827   5.127   5.454  0.9092 -1.3693  0.1430
 2379TIP3    H228629   3.928   5.139   5.567  0.8371  1.7906 -0.0592
 2380TIP3   OH228630   4.132   6.179  12.524  0.0228 -0.2158  0.0601
 2380TIP3    H128631   4.147   6.167  12.618 -2.1510  0.4820  0.5399
 2380TIP3    H228632   4.110   6.092  12.492  0.1140 -0.3361  0.3232
 2381TIP3   OH228633   4.654   2.370   5.232 -0.0091  0.0773  0.5173
 2381TIP3    H128634   4.737   2.323   5.241  0.2452 -0.3334 -2.6670
 2381TIP3    H228635   4.598   2.309   5.184 -2.1511  0.4436  2.3853
 2382TIP3   OH228636   1.190   0.576   4.669 -0.1562  0.5978  0.3026
 2382TIP3    H128637   1.244   0.500   4.689  0.1470  0.5110 -0.7536
 2382TIP3    H228638   1.158   0.559   4.580  0.5419  2.0532 -0.2570
 2383TIP3   OH228639   6.552   3.498   4.211 -0.1602  0.4246 -0.0233
 2383TIP3    H128640   6.602   3.454   4.280  1.1056  0.6576 -0.7514
 2383TIP3    H228641   6.469   3.450   4.207  0.8948 -1.4715 -0.3275
 2384TIP3   OH228642   6.005   0.366  12.104  0.1430 -0.4590 -0.3420
 2384TIP3    H128643   6.052   0.332  12.180  1.4628  0.9608 -0.4604
 2384TIP3    H228644   6.069   0.362  12.032 -0.7006 -0.6933 -1.1039
 2385TIP3   OH228645   4.819   3.984  12.103  0.1848 -0.4054 -1.0801
 2385TIP3    H128646   4.830   3.961  12.195 -0.5607 -0.4555 -0.9900
 2385TIP3    H228647   4.900   4.029  12.078  0.2810 -0.1519 -0.3259
 2386TIP3   OH228648   6.800   5.308   0.625  0.0177 -0.0130  0.3354
 2386TIP3    H128649   6.758   5.363   0.559 -0.9997  0.6554  1.4873
 2386TIP3    H228650   6.869   5.365   0.662  0.6331 -0.4100 -0.1906
 2387TIP3   OH228651   0.791   0.970   1.200  0.0789  0.2347 -0.5316
 2387TIP3    H128652   0.709   0.926   1.222 -0.7795  1.1327 -1.8058
 2387TIP3    H228653   0.792   1.047   1.256  1.0927 -0.8091  0.9682
 2388TIP3   OH228654   1.516   0.635   6.230  0.4265  0.3054  0.1187
 2388TIP3    H128655   1.486   0.569   6.167  0.7643  1.0335 -0.8269
 2388TIP3    H228656   1.438   0.658   6.279 -0.4764  1.6304 -1.8054
 2389TIP3   OH228657   4.462   1.170  13.043  0.2309 -0.1769  0.5781
 2389TIP3    H128658   4.552   1.138  13.033 -0.2665 -0.7404 -3.2543
 2389TIP3    H228659   4.414   1.094  13.075  0.3891 -1.2521 -1.5763
 2390TIP3   OH228660   4.657   4.788   3.821 -0.5987 -0.4127 -0.1866
 2390TIP3    H128661   4.693   4.870   3.785 -1.1910 -0.4908 -0.9958
 2390TIP3    H228662   4.727   4.753   3.875  0.0004  0.1773 -0.5592
 2391TIP3   OH228663   2.792   0.676   5.972  0.1428 -0.0684 -0.2985
 2391TIP3    H128664   2.862   0.673   6.037  0.1343  3.2859  0.0601
 2391TIP3    H228665   2.836   0.699   5.890 -0.4038  1.5389 -0.1789
 2392TIP3   OH228666   1.250   6.716   4.226  0.0411 -0.6516 -0.3770
 2392TIP3    H128667   1.321   6.662   4.262  0.3690 -0.0986 -0.1954
 2392TIP3    H228668   1.184   6.719   4.295 -0.8324 -2.3858 -1.0764
 2393TIP3   OH228669   3.472   3.984  16.524  0.0430 -0.3857 -0.0439
 2393TIP3    H128670   3.553   3.938  16.502  0.0560 -0.6082  0.4417
 2393TIP3    H228671   3.476   3.994  16.620  0.2135  0.9458 -0.1687
 2394TIP3   OH228672   1.221   6.034  16.147  0.1657 -0.1814  0.0553
 2394TIP3    H128673   1.167   6.049  16.225  0.8408 -0.2128  0.5309
 2394TIP3    H228674   1.250   6.121  16.120  0.8497 -0.2627  0.5044
 2395TIP3   OH228675   3.887   6.257   4.075  0.1308 -0.7695  0.1974
 2395TIP3    H128676   3.910   6.220   4.161 -0.6434 -0.7039  0.4431
 2395TIP3    H228677   3.865   6.348   4.094 -0.5514 -0.8897  0.0252
 2396TIP3   OH228678   1.771   2.923  14.771 -0.1056  0.6275 -0.0933
 2396TIP3    H128679   1.827   2.950  14.843 -0.8997 -0.6383  1.0422
 2396TIP3    H228680   1.729   3.004  14.741 -0.1569  1.0966  1.2019
 2397TIP3   OH228681   4.134   2.739  13.062 -0.7706  0.2181  0.4380
 2397TIP3    H128682   4.059   2.733  13.120 -1.4519  1.5669 -0.2423
 2397TIP3    H228683   4.109   2.805  12.997  1.0356  0.8070  0.2652
 2398TIP3   OH228684   5.004   1.333  14.472  0.1656  0.5874  0.4254
 2398TIP3    H128685   5.052   1.292  14.544  0.7008 -2.3173 -1.4161
 2398TIP3    H228686   4.916   1.294  14.477 -0.6197  2.3231  0.9599
 2399TIP3   OH228687   3.932   4.353  16.520 -0.1529  0.4921 -0.3009
 2399TIP3    H128688   3.904   4.442  16.539 -1.0169  0.3624 -0.8879
 2399TIP3    H228689   3.958   4.356  16.428 -0.5716  0.0589 -0.4394
 2400TIP3   OH228690   0.737   2.411   3.946 -0.1184 -0.4855 -0.1665
 2400TIP3    H128691   0.734   2.499   3.910 -1.4287  0.4531  1.9949
 2400TIP3    H228692   0.828   2.383   3.936  0.0689  0.6077 -1.9284
 2401TIP3   OH228693   3.843   4.619   5.560  0.6353 -0.3128  0.2226
 2401TIP3    H128694   3.826   4.594   5.651 -0.6917 -1.7527 -0.3787
 2401TIP3    H228695   3.762   4.661   5.531  0.4036 -1.4017 -0.7828
 2402TIP3   OH228696   6.056   3.033   5.135 -0.4617  0.3462  0.5121
 2402TIP3    H128697   6.090   3.077   5.057 -0.0222  1.1486  1.1401
 2402TIP3    H228698   6.066   2.939   5.116 -0.9187  0.5149 -0.6314
 2403TIP3   OH228699   4.002   0.926   3.647  0.6743 -0.0957 -0.0927
 2403TIP3    H128700   3.926   0.927   3.589  0.5752  1.1063  0.0278
 2403TIP3    H228701   3.966   0.940   3.735  1.0770  1.3046 -0.1241
 2404TIP3   OH228702   4.754   1.864   5.965 -0.6861 -0.4307  0.0536
 2404TIP3    H128703   4.771   1.949   6.006  2.1134 -0.5842 -0.5998
 2404TIP3    H228704   4.695   1.819   6.027 -1.7162  1.6894  0.7040
 2405TIP3   OH228705   3.310   5.411  15.634 -0.1555  0.0039 -0.6283
 2405TIP3    H128706   3.349   5.327  15.657  1.3180  0.2009 -2.2284
 2405TIP3    H228707   3.323   5.466  15.712  2.1362 -0.1804 -0.8289
 2406TIP3   OH228708   0.764   4.188  11.364  0.0655 -0.0191 -0.5273
 2406TIP3    H128709   0.848   4.169  11.320  1.2611  1.8498  0.8070
 2406TIP3    H228710   0.760   4.123  11.434  0.0017 -0.6049 -1.0598
 2407TIP3   OH228711   1.500   5.754  15.619 -0.0457 -1.1500 -0.2882
 2407TIP3    H128712   1.486   5.849  15.621 -0.2215 -1.1529 -1.2136
 2407TIP3    H228713   1.595   5.744  15.618  0.0170 -1.0331  1.4501
 2408TIP3   OH228714   1.014   6.218   5.711  0.1078  0.0725 -0.0923
 2408TIP3    H128715   0.955   6.288   5.682  1.5032 -0.0096 -3.4715
 2408TIP3    H228716   1.004   6.149   5.646  0.8997 -1.7434  1.6048
 2409TIP3   OH228717   2.667   3.747   0.705  0.0160  0.2528  0.2479
 2409TIP3    H128718   2.635   3.658   0.699 -1.3971  0.7228  0.4078
 2409TIP3    H228719   2.626   3.793   0.631  0.8053  0.7372  0.1013
 2410TIP3   OH228720   6.327   3.284   2.013 -0.1983 -0.3960  0.1599
 2410TIP3    H128721   6.367   3.366   2.041  0.4610 -0.8369  0.5211
 2410TIP3    H228722   6.400   3.223   2.003 -0.5124 -0.5574 -1.4881
 2411TIP3   OH228723   0.124   2.539  13.228 -0.1699  0.1613 -0.5878
 2411TIP3    H128724   0.095   2.586  13.150 -1.9693 -1.6062 -1.0737
 2411TIP3    H228725   0.196   2.483  13.198 -1.3839 -1.1251 -1.2668
 2412TIP3   OH228726   6.155   6.293   5.898  0.0477  0.2684 -0.4879
 2412TIP3    H128727   6.237   6.341   5.903  1.1705 -1.5202 -0.8908
 2412TIP3    H228728   6.107   6.318   5.977  2.3781 -1.0398  1.4687
 2413TIP3   OH228729   6.291   0.765   0.785 -0.1969  0.0800 -0.2896
 2413TIP3    H128730   6.237   0.757   0.864  0.1568  3.2231  0.4053
 2413TIP3    H228731   6.311   0.674   0.761 -0.5903 -1.0598  3.0345
 2414TIP3   OH228732   2.201   4.628  11.587  0.0314  0.5973  0.5828
 2414TIP3    H128733   2.133   4.582  11.537  1.5570  0.0248 -1.0323
 2414TIP3    H228734   2.230   4.699  11.530  1.3952  0.3069  0.8772
 2415TIP3   OH228735   0.852   1.410   2.237 -0.2493  0.4803  1.0055
 2415TIP3    H128736   0.943   1.408   2.208 -0.2521 -0.3595  1.0344
 2415TIP3    H228737   0.810   1.473   2.179  0.3943  1.0372  1.1328
 2416TIP3   OH228738   0.350   1.233   4.322 -0.1354  0.5539 -0.9266
 2416TIP3    H128739   0.417   1.176   4.282  0.1659  0.2818 -0.0679
 2416TIP3    H228740   0.272   1.218   4.269 -0.7359 -2.4248  0.5479
 2417TIP3   OH228741   1.905   2.103  15.449  0.3641  0.0850  0.2056
 2417TIP3    H128742   1.997   2.080  15.431 -0.0381  0.2341 -2.3661
 2417TIP3    H228743   1.907   2.198  15.465  0.5358  0.2930 -0.9832
 2418TIP3   OH228744   5.564   2.266   2.339 -0.3031 -0.0879 -0.4390
 2418TIP3    H128745   5.547   2.221   2.422 -0.2365  0.1247 -0.3072
 2418TIP3    H228746   5.529   2.208   2.272 -1.0834  0.1016 -0.2101
 2419TIP3   OH228747   3.972   0.284  16.133 -0.0105  0.0838  0.0212
 2419TIP3    H128748   4.064   0.309  16.142 -0.3536  0.8168  1.8970
 2419TIP3    H228749   3.970   0.192  16.160  0.2860 -0.1755 -0.8177
 2420TIP3   OH228750   5.911   4.504  16.080 -0.1975 -0.0457 -0.4152
 2420TIP3    H128751   5.890   4.425  16.030 -0.3782 -0.2765  0.0172
 2420TIP3    H228752   6.001   4.491  16.109 -0.8062 -0.9195  1.1673
 2421TIP3   OH228753   5.301   3.470   4.215  0.5381  0.4372  0.4392
 2421TIP3    H128754   5.300   3.441   4.306 -1.9669 -0.2703  0.2641
 2421TIP3    H228755   5.313   3.391   4.164  0.8768  0.6825  0.1365
 2422TIP3   OH228756   2.050   2.807   6.359 -0.5154 -0.0810  0.0515
 2422TIP3    H128757   1.956   2.812   6.341 -0.4521 -0.5427 -0.4377
 2422TIP3    H228758   2.057   2.744   6.430 -0.5536 -0.2923 -0.1300
 2423TIP3   OH228759   0.935   3.065   2.981  0.0510 -0.2474 -0.6674
 2423TIP3    H128760   0.867   2.998   2.996  0.3503 -0.4618 -0.2171
 2423TIP3    H228761   0.910   3.107   2.900 -0.1261 -0.9431 -0.9855
 2424TIP3   OH228762   0.744   1.674   0.548 -0.2455  0.1547 -0.3536
 2424TIP3    H128763   0.780   1.685   0.459 -0.4528  0.2639 -0.4241
 2424TIP3    H228764   0.783   1.593   0.579  0.6034  0.6209 -0.1711
 2425TIP3   OH228765   2.236   5.812   2.966  0.9033 -0.3231  0.1603
 2425TIP3    H128766   2.170   5.752   2.931 -0.6019  1.4924 -0.2142
 2425TIP3    H228767   2.187   5.888   2.995  2.8127  0.9431  0.2355
 2426TIP3   OH228768   3.071   2.194  10.884  0.8227 -0.3688  0.2087
 2426TIP3    H128769   3.047   2.280  10.850 -0.4593 -0.9654 -0.4723
 2426TIP3    H228770   3.104   2.146  10.807 -0.7940 -1.2714  0.0243
 2427TIP3   OH228771   4.367   3.704   1.217 -0.1366  0.2051 -0.4593
 2427TIP3    H128772   4.349   3.796   1.197  3.7206  0.9362 -1.4652
 2427TIP3    H228773   4.347   3.658   1.135  0.2544  0.5860 -0.7775
 2428TIP3   OH228774   3.536   3.240  13.765  0.3918 -0.0325  0.0180
 2428TIP3    H128775   3.464   3.263  13.707  1.0639 -1.3700 -1.4159
 2428TIP3    H228776   3.573   3.324  13.793  0.4397  0.6658 -2.0130
 2429TIP3   OH228777   1.060   1.294  15.977  0.0561 -0.4136  0.3932
 2429TIP3    H128778   1.111   1.222  15.939  0.0750 -1.5203  2.3709
 2429TIP3    H228779   0.973   1.286  15.938  1.2042  1.3686 -2.8648
 2430TIP3   OH228780   2.293   4.465  11.263 -0.1792  0.3310  0.3213
 2430TIP3    H128781   2.214   4.517  11.275  0.0611  1.1161 -1.2128
 2430TIP3    H228782   2.263   4.384  11.221 -0.3039  0.1184  0.8176
 2431TIP3   OH228783   5.065   0.127  15.844  0.1568  0.2086  0.0997
 2431TIP3    H128784   5.031   0.206  15.802 -1.7689 -0.8552 -0.4248
 2431TIP3    H228785   4.988   0.082  15.878  1.4991  0.6595  4.3351
 2432TIP3   OH228786   3.674   4.993  13.842 -0.1003 -0.5330 -0.4757
 2432TIP3    H128787   3.713   5.081  13.844  0.8974 -0.9547 -0.9965
 2432TIP3    H228788   3.607   4.999  13.774 -1.0569  0.2210  0.4876
 2433TIP3   OH228789   3.373   5.111  17.150  0.0279 -0.4913 -0.3905
 2433TIP3    H128790   3.367   5.086  17.058  0.7842 -0.9023 -0.3373
 2433TIP3    H228791   3.447   5.173  17.153 -0.3908  0.0054 -0.1595
 2434TIP3   OH228792   1.482   2.350  14.867 -0.1153  0.5603  0.6710
 2434TIP3    H128793   1.485   2.358  14.962 -1.4929  2.3839  0.6256
 2434TIP3    H228794   1.407   2.294  14.849 -0.5811  1.1846  0.6468
 2435TIP3   OH228795   0.021   1.795   3.449  0.1288  0.2437  0.1369
 2435TIP3    H128796   0.059   1.815   3.534  1.8924  0.9304 -0.7654
 2435TIP3    H228797   0.096   1.781   3.391 -0.8326  3.5187 -2.2077
 2436TIP3   OH228798   1.066   3.184  12.810 -0.3573  0.0850  0.2085
 2436TIP3    H128799   1.038   3.098  12.780  0.2726 -1.3179  3.1851
 2436TIP3    H228800   1.138   3.208  12.752 -0.6055 -1.3668 -0.7438
 2437TIP3   OH228801   4.858   5.384  16.709 -0.6351 -0.6409 -0.0744
 2437TIP3    H128802   4.777   5.399  16.660 -0.1796 -2.2622 -1.4217
 2437TIP3    H228803   4.829   5.367  16.798 -1.7194 -0.4411 -0.3688
 2438TIP3   OH228804   0.026   1.495  12.561 -0.1377  0.8539  0.0892
 2438TIP3    H128805   0.037   1.426  12.626  2.2604  1.0704 -0.0007
 2438TIP3    H228806  -0.061   1.531  12.579 -0.5121 -0.6780  1.6041
 2439TIP3   OH228807   4.024   6.604  12.155 -0.1250  0.1700  0.2549
 2439TIP3    H128808   3.995   6.619  12.245  0.2623  1.2610  0.2140
 2439TIP3    H228809   4.120   6.608  12.161 -0.1150  2.4833 -0.5327
 2440TIP3   OH228810   5.000   0.411  17.124 -0.4132  0.2960 -0.2728
 2440TIP3    H128811   5.052   0.377  17.052 -1.4517 -0.7926 -0.5328
 2440TIP3    H228812   5.064   0.432  17.192  0.3722 -0.8748 -0.6408
 2441TIP3   OH228813   1.838   4.863   2.375 -0.6168 -0.2692  0.2579
 2441TIP3    H128814   1.870   4.794   2.316  0.4689  0.3867  0.0414
 2441TIP3    H228815   1.754   4.831   2.407 -0.1169 -1.7179  0.1993
 2442TIP3   OH228816   6.608   2.420   0.260  0.4800  0.4989 -0.1929
 2442TIP3    H128817   6.638   2.341   0.306  1.2664  1.1240  0.3828
 2442TIP3    H228818   6.577   2.387   0.175 -0.2502 -0.5656  0.4598
 2443TIP3   OH228819   3.945   4.869  12.188  0.0474 -0.2602 -0.0359
 2443TIP3    H128820   3.915   4.950  12.230  0.2745 -0.9915  1.6133
 2443TIP3    H228821   4.036   4.886  12.164  0.1947 -0.1330  0.6097
 2444TIP3   OH228822   0.321   0.246   0.922  0.6229  0.2003 -0.7028
 2444TIP3    H128823   0.364   0.329   0.943 -0.5883  0.2535  1.8648
 2444TIP3    H228824   0.257   0.269   0.855  2.2615  0.7268 -2.1745
 2445TIP3   OH228825   2.492   6.229  14.947 -0.6928  0.1614  0.5752
 2445TIP3    H128826   2.582   6.219  14.977 -0.1970  0.6186 -0.6990
 2445TIP3    H228827   2.445   6.262  15.024  0.0689 -0.7250  1.4495
 2446TIP3   OH228828   3.427   0.896  13.832  0.0751 -0.2694  0.0440
 2446TIP3    H128829   3.342   0.940  13.824 -0.3422 -0.9784  0.4997
 2446TIP3    H228830   3.424   0.824  13.770 -0.6129 -1.7542  1.7139
 2447TIP3   OH228831   5.003   0.215  12.739 -0.0538  0.2875  0.4749
 2447TIP3    H128832   4.942   0.244  12.806  0.7253 -0.9990  1.8139
 2447TIP3    H228833   5.087   0.253  12.764  0.5562 -1.3655  1.1345
 2448TIP3   OH228834   4.331   1.474   2.777 -0.0896 -0.4100  0.3758
 2448TIP3    H128835   4.427   1.480   2.774 -0.0881 -0.3551  0.5206
 2448TIP3    H228836   4.305   1.461   2.686 -0.0803  1.4242  0.0855
 2449TIP3   OH228837   5.039   0.214  16.506  0.0364 -0.3125  0.0599
 2449TIP3    H128838   4.969   0.219  16.571 -1.6024  0.3392 -1.6529
 2449TIP3    H228839   5.039   0.122  16.478 -1.0615 -0.0456 -0.8629
 2450TIP3   OH228840   4.104   1.982  11.265 -0.2566  0.1618 -0.2864
 2450TIP3    H128841   4.042   1.919  11.302  2.6364 -2.1470  1.0751
 2450TIP3    H228842   4.057   2.021  11.191 -3.5730 -0.7214  1.1578
 2451TIP3   OH228843   1.276   4.816  15.981 -0.0015  0.0789  0.0993
 2451TIP3    H128844   1.279   4.908  16.006 -0.1505  0.1689 -0.2164
 2451TIP3    H228845   1.348   4.776  16.031  0.0464  0.3581  0.2571
 2452TIP3   OH228846   3.040   2.841  16.497  0.1177  0.1564  1.1220
 2452TIP3    H128847   3.034   2.749  16.523  2.0652 -0.2402  0.3164
 2452TIP3    H228848   2.950   2.874  16.505 -0.5477 -1.6963  1.8015
 2453TIP3   OH228849   4.821   3.983   2.213  0.1834 -0.2007 -0.3911
 2453TIP3    H128850   4.862   4.047   2.270 -1.0184 -0.6815  1.0783
 2453TIP3    H228851   4.894   3.933   2.176  0.9878  0.0687  0.7880
 2454TIP3   OH228852   1.146   2.246  14.376 -0.1254 -0.1254  0.1341
 2454TIP3    H128853   1.209   2.296  14.429 -0.2712  0.4387 -0.2170
 2454TIP3    H228854   1.092   2.200  14.440  0.4818 -0.4167  0.4458
 2455TIP3   OH228855   5.248   4.686  10.592  0.0419 -0.3297  0.4436
 2455TIP3    H128856   5.213   4.765  10.551  0.2190 -0.9194 -0.9103
 2455TIP3    H228857   5.172   4.632  10.610 -0.1024  0.2187  1.5902
 2456TIP3   OH228858   0.262   0.945   4.770 -0.2827  0.0435 -0.3581
 2456TIP3    H128859   0.305   1.007   4.828  1.1550  1.0195 -2.3704
 2456TIP3    H228860   0.176   0.984   4.753 -0.2683  0.3188  0.1733
 2457TIP3   OH228861   0.548   0.830   4.878  0.0347  0.7469 -0.4609
 2457TIP3    H128862   0.475   0.818   4.939 -0.6726 -0.2394 -1.4601
 2457TIP3    H228863   0.625   0.839   4.935 -0.3802 -1.6653  0.6182
 2458TIP3   OH228864   4.966   6.603   5.143 -0.1177  0.4636 -0.2698
 2458TIP3    H128865   4.978   6.509   5.127  0.3797  0.6772 -1.2194
 2458TIP3    H228866   5.001   6.645   5.065 -1.6701  1.3911 -0.4956
 2459TIP3   OH228867   6.793   3.369   2.774  0.3637  0.0868  0.9951
 2459TIP3    H128868   6.800   3.325   2.689  1.2345  0.5656  0.8060
 2459TIP3    H228869   6.884   3.382   2.802  0.0938  0.2543  1.8386
 2460TIP3   OH228870   6.049   4.725   6.192 -0.1724 -0.0937 -0.0824
 2460TIP3    H128871   6.119   4.760   6.247 -0.8834  0.6511  0.3776
 2460TIP3    H228872   5.969   4.765   6.226 -1.0471 -2.1646  0.4463
 2461TIP3   OH228873   2.756   6.280  11.658  0.4160 -0.3477 -0.4382
 2461TIP3    H128874   2.755   6.196  11.612 -0.0674  0.1324 -1.3282
 2461TIP3    H228875   2.768   6.257  11.750 -0.6385 -1.4454 -0.5503
 2462TIP3   OH228876   6.760   4.979   5.739  0.2578 -0.6721  0.4999
 2462TIP3    H128877   6.834   4.919   5.740  0.3042 -0.6450 -0.7649
 2462TIP3    H228878   6.795   5.060   5.703 -0.5542 -0.8973 -0.8377
 2463TIP3   OH228879   0.046   3.777  12.205 -0.3034  0.5047 -0.6704
 2463TIP3    H128880  -0.049   3.764  12.199 -0.4755  2.0334 -1.5061
 2463TIP3    H228881   0.069   3.828  12.128  1.3138 -0.3477 -0.7905
 2464TIP3   OH228882   5.238   0.638   0.383 -0.7335 -0.7143  0.2825
 2464TIP3    H128883   5.313   0.689   0.352 -1.3652  0.1778  0.1926
 2464TIP3    H228884   5.275   0.552   0.402  0.5539  0.0148  1.2905
 2465TIP3   OH228885   5.947   3.835   4.978  0.1443  0.6994 -0.5465
 2465TIP3    H128886   5.883   3.797   5.038 -0.9410  1.1043 -1.4339
 2465TIP3    H228887   5.936   3.786   4.896  2.2833 -0.5222 -0.2030
 2466TIP3   OH228888   0.308   0.764   2.297 -0.0236  0.1300  0.1482
 2466TIP3    H128889   0.318   0.767   2.202 -0.1320 -1.9075  0.0306
 2466TIP3    H228890   0.393   0.737   2.330 -0.5301 -1.1668  0.4508
 2467TIP3   OH228891   0.273   4.411  14.455  0.1794  0.2365  0.8826
 2467TIP3    H128892   0.256   4.505  14.461 -1.4129  0.0112  0.4027
 2467TIP3    H228893   0.310   4.399  14.367 -3.7847 -0.0631 -0.9416
 2468TIP3   OH228894   4.104   0.512  15.983  0.2171 -0.6378 -0.2853
 2468TIP3    H128895   4.031   0.474  15.935 -0.5361  1.4669 -0.9076
 2468TIP3    H228896   4.172   0.525  15.916  0.0931 -0.0141 -0.3009
 2469TIP3   OH228897   1.608   1.982   3.618 -0.3063  0.1436  0.0996
 2469TIP3    H128898   1.610   1.941   3.531 -1.9473  0.4302 -0.0990
 2469TIP3    H228899   1.622   1.909   3.679 -2.1090 -0.5655 -0.2921
 2470TIP3   OH228900   5.926   5.547  13.503 -0.5440 -0.0914 -0.6457
 2470TIP3    H128901   5.862   5.512  13.442 -2.4688  1.1925  0.5344
 2470TIP3    H228902   5.900   5.638  13.516  1.1805  0.3027  0.3419
 2471TIP3   OH228903   6.247   5.175  13.766 -0.1425  0.2675 -0.2602
 2471TIP3    H128904   6.191   5.250  13.748 -0.3680  0.1195 -0.1769
 2471TIP3    H228905   6.332   5.199  13.729 -0.7146 -0.2127 -1.9995
 2472TIP3   OH228906   3.869   4.583   6.087  0.1595 -0.4026  0.1539
 2472TIP3    H128907   3.837   4.495   6.067 -1.7276  0.2890 -0.0008
 2472TIP3    H228908   3.923   4.606   6.011 -0.1476 -1.0350 -0.2682
 2473TIP3   OH228909   2.318   3.703   5.054  0.1812  0.5617  0.0774
 2473TIP3    H128910   2.387   3.652   5.011 -0.5143 -0.6497  0.3691
 2473TIP3    H228911   2.256   3.723   4.984  1.5136  2.9529 -0.5176
 2474TIP3   OH228912   0.458   0.109  12.501  0.0863  0.5920  0.2046
 2474TIP3    H128913   0.544   0.070  12.486  0.1604  0.9854 -0.4268
 2474TIP3    H228914   0.419   0.055  12.569  0.3110 -0.3892 -0.4226
 2475TIP3   OH228915   1.592   6.717  16.399  0.3393 -0.1197 -0.1127
 2475TIP3    H128916   1.562   6.630  16.371  0.8784 -0.6133  0.8046
 2475TIP3    H228917   1.576   6.720  16.493 -1.3706  1.4913 -0.3968
 2476TIP3   OH228918   0.485   1.486  16.424  0.1237 -0.7426  0.8982
 2476TIP3    H128919   0.569   1.528  16.439 -0.3333  0.5779 -0.0180
 2476TIP3    H228920   0.506   1.397  16.396  1.1643 -0.7092  1.5298
 2477TIP3   OH228921   4.030   5.556   0.252  0.0304 -0.4708  0.1854
 2477TIP3    H128922   4.075   5.638   0.273  3.8116 -1.9682 -1.1461
 2477TIP3    H228923   4.036   5.505   0.333  0.1035 -0.3888  0.2327
 2478TIP3   OH228924   1.477   2.397  11.878 -0.5505  0.4726 -0.1162
 2478TIP3    H128925   1.489   2.320  11.822  0.1506  0.4175  0.1038
 2478TIP3    H228926   1.383   2.412  11.877 -0.5822  0.3284 -1.1252
 2479TIP3   OH228927   6.042   0.348   3.380  0.0340  0.1812 -0.0851
 2479TIP3    H128928   6.008   0.281   3.439  0.1896  0.1974  0.0254
 2479TIP3    H228929   6.124   0.377   3.422 -0.9423  1.7708  0.8246
 2480TIP3   OH228930   6.771   3.177  15.894  0.4097  0.6864 -0.2563
 2480TIP3    H128931   6.843   3.117  15.913 -0.8121 -0.6148  0.4357
 2480TIP3    H228932   6.805   3.233  15.825  2.5108  0.9221  0.8745
 2481TIP3   OH228933   1.636   5.288  14.571  0.2009 -0.7352  0.0037
 2481TIP3    H128934   1.629   5.349  14.644  0.2670 -0.0649 -0.5415
 2481TIP3    H228935   1.596   5.207  14.604 -0.3834 -0.2385  0.5565
 2482TIP3   OH228936   0.319   3.332  10.826 -0.0674 -0.4333 -0.2261
 2482TIP3    H128937   0.247   3.286  10.784 -0.3538 -0.2842  0.0985
 2482TIP3    H228938   0.356   3.386  10.757  2.2785 -3.4057 -1.5306
 2483TIP3   OH228939   6.693   2.241  14.030 -0.0922 -0.1235  0.2373
 2483TIP3    H128940   6.676   2.201  13.944  3.5788 -1.2317 -0.1114
 2483TIP3    H228941   6.607   2.272  14.058 -1.7997 -1.4436 -2.9449
 2484TIP3   OH228942   3.293   4.914  12.623  0.1970  0.7770 -0.3032
 2484TIP3    H128943   3.257   4.989  12.671  2.0175  2.0394 -0.7838
 2484TIP3    H228944   3.388   4.923  12.632  0.5199 -0.4621 -1.8822
 2485TIP3   OH228945   4.986   5.671  14.340  0.3661 -0.5245  0.1604
 2485TIP3    H128946   5.007   5.687  14.248 -0.5357 -1.6736 -0.2842
 2485TIP3    H228947   4.947   5.753  14.371 -0.2489 -0.4511 -0.7809
 2486TIP3   OH228948   4.740   3.976  15.194  0.1563 -0.7162 -0.5635
 2486TIP3    H128949   4.670   3.931  15.242  1.4064 -2.7412 -0.5006
 2486TIP3    H228950   4.805   3.907  15.176  1.7826  0.9116 -1.2887
 2487TIP3   OH228951   0.994   5.861   2.579 -0.1337  0.2591  0.3333
 2487TIP3    H128952   0.905   5.838   2.606 -0.0625 -2.0434 -1.1597
 2487TIP3    H228953   1.022   5.788   2.524  1.6066  2.2722 -1.6592
 2488TIP3   OH228954   3.284   5.694  13.034  0.2840 -0.1326  0.0161
 2488TIP3    H128955   3.197   5.662  13.057  0.6840 -2.6204 -1.5424
 2488TIP3    H228956   3.283   5.697  12.938  2.2127 -1.3357 -0.0909
 2489TIP3   OH228957   1.660   1.388   5.758 -0.7186  0.3933 -0.5508
 2489TIP3    H128958   1.684   1.344   5.676 -1.3667 -0.3246 -0.3707
 2489TIP3    H228959   1.638   1.316   5.817 -1.4575  0.9550 -0.1343
 2490TIP3   OH228960   5.153   5.818  12.952  0.1915  0.3057  0.0849
 2490TIP3    H128961   5.209   5.894  12.938  1.7086 -1.0319 -1.7480
 2490TIP3    H228962   5.214   5.747  12.972 -0.6614 -1.3838 -2.6916
 2491TIP3   OH228963   4.529   3.528   3.122 -0.0142  0.1478 -0.2538
 2491TIP3    H128964   4.473   3.597   3.158  0.8684  0.5728  0.3523
 2491TIP3    H228965   4.489   3.505   3.039 -1.1469  0.3553  0.2211
 2492TIP3   OH228966   5.412   2.510   2.056  0.1262  0.4838  0.2566
 2492TIP3    H128967   5.403   2.488   2.149  0.8334 -3.2132 -0.3804
 2492TIP3    H228968   5.505   2.493   2.037  0.1227  1.7462 -1.0354
 2493TIP3   OH228969   0.629   3.688   3.846 -0.0988 -0.0636  0.6316
 2493TIP3    H128970   0.677   3.621   3.896 -2.5708 -0.7644  2.2817
 2493TIP3    H228971   0.565   3.639   3.796 -0.9378  0.9576  0.6661
 2494TIP3   OH228972   6.558   5.569   5.445  0.4163 -0.0593  0.1217
 2494TIP3    H128973   6.468   5.578   5.478  0.3016 -0.8298  0.0463
 2494TIP3    H228974   6.591   5.490   5.487  0.6726 -0.4108 -0.7115
 2495TIP3   OH228975   6.333   3.768   4.168  0.2989  0.0252 -0.1978
 2495TIP3    H128976   6.269   3.727   4.226  0.3079 -0.9280 -0.8454
 2495TIP3    H228977   6.417   3.758   4.214  0.3783 -1.1591 -0.5671
 2496TIP3   OH228978   4.524   0.373   3.733  0.2968 -0.5530 -0.2736
 2496TIP3    H128979   4.430   0.360   3.716 -0.0471  0.8108  0.4741
 2496TIP3    H228980   4.538   0.337   3.821  0.8850 -2.3878 -1.0646
 2497TIP3   OH228981   5.653   0.247   6.131 -0.4241  0.7609  0.1232
 2497TIP3    H128982   5.704   0.218   6.056 -1.9190  2.2696 -1.5570
 2497TIP3    H228983   5.701   0.213   6.207  0.3707 -2.0920 -1.4955
 2498TIP3   OH228984   4.164   0.822  12.920  0.0093 -0.5428  0.0481
 2498TIP3    H128985   4.156   0.792  13.011  1.9510  0.9235  0.7693
 2498TIP3    H228986   4.123   0.909  12.920 -1.3046 -1.1336 -0.8681
 2499TIP3   OH228987   0.122   3.534   4.329 -0.1642  0.1794 -0.1243
 2499TIP3    H128988   0.130   3.626   4.352 -0.9118  0.6229 -1.5625
 2499TIP3    H228989   0.193   3.491   4.378  1.0173  1.6956 -0.4503
 2500TIP3   OH228990   4.362   4.371   2.191  0.3397  0.0460 -0.0442
 2500TIP3    H128991   4.278   4.359   2.148  0.4629  1.6505 -0.8017
 2500TIP3    H228992   4.358   4.458   2.228  1.8023  0.3165 -0.4461
 2501TIP3   OH228993   0.346   3.917  11.454  0.2956  0.0656 -0.2872
 2501TIP3    H128994   0.390   4.002  11.448 -0.1129  0.2898 -0.1610
 2501TIP3    H228995   0.253   3.939  11.463  0.2624 -0.3726  0.6128
 2502TIP3   OH228996   3.894   1.069   0.100 -0.4552 -0.5698  0.4517
 2502TIP3    H128997   3.898   1.050   0.006 -2.2772 -2.4479  0.6913
 2502TIP3    H228998   3.916   1.162   0.106  1.4682 -0.8110 -1.6139
 2503TIP3   OH228999   2.102   1.720   4.993 -0.2744 -0.7130  0.1153
 2503TIP3    H129000   2.021   1.693   4.949 -0.9828  1.5067 -0.0325
 2503TIP3    H229001   2.079   1.720   5.086 -0.2507 -0.6999  0.1210
 2504TIP3   OH229002   2.093   2.235  12.306  0.6146  0.2600 -0.1609
 2504TIP3    H129003   2.046   2.252  12.387 -1.1166 -1.8384 -0.6511
 2504TIP3    H229004   2.171   2.186  12.333  1.4640  1.8559  0.4334
 2505TIP3   OH229005   2.544   4.536   0.814 -0.1018  0.4452  0.3071
 2505TIP3    H129006   2.639   4.548   0.809  0.0371 -1.0734 -1.8154
 2505TIP3    H229007   2.510   4.624   0.829  1.6236  1.0034  1.2258
 2506TIP3   OH229008   1.444   4.846  12.022 -0.0479 -0.6390 -0.8539
 2506TIP3    H129009   1.515   4.802  11.976  1.2416  2.6200 -2.2927
 2506TIP3    H229010   1.377   4.860  11.954 -1.2212 -1.8465  0.0029
 2507TIP3   OH229011   1.896   1.599   4.894 -0.2059  0.5519  0.5349
 2507TIP3    H129012   1.885   1.597   4.799  1.2039 -0.4250  0.3552
 2507TIP3    H229013   1.808   1.615   4.928 -0.6998  1.1290 -0.9333
 2508TIP3   OH229014   6.506   4.118  14.541 -0.1040 -0.4263 -0.0024
 2508TIP3    H129015   6.477   4.038  14.584 -0.0384  0.1921  1.2348
 2508TIP3    H229016   6.426   4.169  14.529 -0.3580 -1.1921 -2.0082
 2509TIP3   OH229017   1.108   0.452  11.570  0.5622  0.5830  0.1761
 2509TIP3    H129018   1.030   0.470  11.623  1.9802  0.0919  2.5883
 2509TIP3    H229019   1.133   0.537  11.535  0.3079  1.1746  1.3848
 2510TIP3   OH229020   1.574   5.562   2.435  0.1790  0.5873  0.5905
 2510TIP3    H129021   1.643   5.495   2.431 -0.6002 -0.2451  0.8244
 2510TIP3    H229022   1.621   5.645   2.422  1.1572  0.0012  0.2554
 2511TIP3   OH229023   2.196   3.757   0.746  0.7033 -0.2591  0.5318
 2511TIP3    H129024   2.251   3.818   0.696  1.0473  0.1397  1.3814
 2511TIP3    H229025   2.125   3.734   0.686  1.3799 -0.1888 -0.3208
 2512TIP3   OH229026   6.262   5.407   5.214 -0.4810 -0.4117 -0.1491
 2512TIP3    H129027   6.337   5.362   5.253 -0.3009 -0.5776 -0.6868
 2512TIP3    H229028   6.201   5.337   5.191 -1.7818 -0.1687  2.2622
 2513TIP3   OH229029   3.851   4.760   1.348  0.0653 -0.0017 -0.2761
 2513TIP3    H129030   3.791   4.690   1.371 -1.5718  0.6861 -2.1529
 2513TIP3    H229031   3.894   4.785   1.430  0.5335 -2.9929  0.4774
 2514TIP3   OH229032   5.813   3.351  14.583 -1.3989  0.1637 -0.0952
 2514TIP3    H129033   5.818   3.384  14.494 -1.8773  0.8289  0.1182
 2514TIP3    H229034   5.840   3.259  14.576 -1.7037  0.1311 -0.9625
 2515TIP3   OH229035   0.707   2.212   4.226 -0.1725  1.0091  0.1918
 2515TIP3    H129036   0.692   2.256   4.143  0.4083  0.3478 -0.2766
 2515TIP3    H229037   0.662   2.128   4.218 -1.6574  1.6536  1.2459
 2516TIP3   OH229038   2.333   1.663  13.387  0.4626  0.6973 -0.0500
 2516TIP3    H129039   2.388   1.635  13.314  2.7586  3.3299  0.5052
 2516TIP3    H229040   2.367   1.616  13.462 -1.4501 -1.4824 -0.4488
 2517TIP3   OH229041   4.683   6.612  11.879  0.0194 -0.3461  0.5444
 2517TIP3    H129042   4.597   6.598  11.919  0.0063  0.6337  0.8734
 2517TIP3    H229043   4.683   6.704  11.852  0.8958 -0.3861  0.3791
 2518TIP3   OH229044   4.019   5.064  11.195 -0.4000  0.6268 -0.4089
 2518TIP3    H129045   4.000   4.973  11.175 -2.5562  0.9921 -0.2530
 2518TIP3    H229046   3.938   5.111  11.174 -0.5690  1.9955  2.7748
 2519TIP3   OH229047   4.353   6.300   4.732 -0.3407 -0.5157 -0.0698
 2519TIP3    H129048   4.410   6.292   4.655  0.6275 -1.2771  0.6947
 2519TIP3    H229049   4.265   6.280   4.699 -0.0067 -0.3879 -1.0662
 2520TIP3   OH229050   6.017   2.044  11.248 -0.5448 -0.3897 -0.5694
 2520TIP3    H129051   5.986   1.997  11.325 -1.8061 -2.0485 -1.9915
 2520TIP3    H229052   6.107   2.071  11.270 -0.6882 -1.2638  1.2439
 2521TIP3   OH229053   4.387   0.101  17.156  0.8228  0.3819  0.1304
 2521TIP3    H129054   4.313   0.090  17.216  1.0081 -1.4066  0.0877
 2521TIP3    H229055   4.347   0.103  17.069  0.7797 -0.3772  0.1211
 2522TIP3   OH229056   2.526   0.329   0.673  0.1562 -0.1910 -0.0656
 2522TIP3    H129057   2.547   0.240   0.645  0.1144 -0.9139  2.0551
 2522TIP3    H229058   2.580   0.344   0.751 -2.4845  0.2126  1.8285
 2523TIP3   OH229059   2.429   5.338   1.113  0.6496  0.0333 -0.3011
 2523TIP3    H129060   2.335   5.350   1.098  0.4147 -0.4782  0.7250
 2523TIP3    H229061   2.469   5.414   1.070 -0.1422 -0.3003 -1.6860
 2524TIP3   OH229062   4.940   4.395  17.115  0.9096  0.5154 -0.4735
 2524TIP3    H129063   4.981   4.429  17.195 -0.5023  0.9815  0.0873
 2524TIP3    H229064   4.888   4.468  17.082  0.7270  0.0260 -1.2997
 2525TIP3   OH229065   0.051   5.199  15.883  0.1066 -0.2515 -0.1353
 2525TIP3    H129066   0.118   5.267  15.889 -0.7031  0.4359  1.5657
 2525TIP3    H229067   0.031   5.176  15.973  0.4495 -2.9054 -0.6433
 2526TIP3   OH229068   6.373   2.644   1.177 -0.1858 -0.7528 -0.6819
 2526TIP3    H129069   6.373   2.558   1.135  2.2119 -0.2928 -1.8224
 2526TIP3    H229070   6.292   2.686   1.147 -0.7301 -2.1148 -1.1898
 2527TIP3   OH229071   5.828   0.239   2.886  0.4456 -0.4382 -0.3474
 2527TIP3    H129072   5.832   0.143   2.881 -0.2863 -0.4701 -0.3724
 2527TIP3    H229073   5.878   0.269   2.810 -0.8064 -0.8288 -1.3543
 2528TIP3   OH229074   0.535   3.754  11.326  0.2736  0.1988  0.5212
 2528TIP3    H129075   0.483   3.823  11.367 -0.0810 -0.7764  1.7764
 2528TIP3    H229076   0.471   3.693  11.290  0.5829  0.7992 -1.1251
 2529TIP3   OH229077   5.326   3.819   4.036 -0.2880 -0.1378  0.0013
 2529TIP3    H129078   5.389   3.763   3.992  0.3024  0.1847  0.4310
 2529TIP3    H229079   5.364   3.837   4.122 -1.6653 -1.1948  0.8863
 2530TIP3   OH229080   3.851   4.741  14.889  0.4721  0.4609 -0.3225
 2530TIP3    H129081   3.812   4.807  14.832 -2.8100 -1.9861 -1.2035
 2530TIP3    H229082   3.799   4.744  14.969 -0.1532 -1.3150 -0.6019
 2531TIP3   OH229083   4.153   4.492  11.666 -0.1784  0.3546 -0.4017
 2531TIP3    H129084   4.211   4.499  11.590 -0.0164  0.0336 -0.3098
 2531TIP3    H229085   4.168   4.403  11.699 -0.2375  0.4978  0.0121
 2532TIP3   OH229086   4.178   2.446   3.020 -0.0967 -0.1133  0.7039
 2532TIP3    H129087   4.192   2.379   3.087  2.3283  3.0367  3.7110
 2532TIP3    H229088   4.249   2.434   2.958 -0.8142 -1.4148  0.0861
 2533TIP3   OH229089   1.336   0.084   5.318  0.5945  0.1035  0.5134
 2533TIP3    H129090   1.370   0.008   5.271  1.0071  0.5770  0.0204
 2533TIP3    H229091   1.278   0.048   5.384 -1.9112 -0.5266 -1.8508
 2534TIP3   OH229092   2.294   3.322  13.433 -0.6757 -0.1355  0.0480
 2534TIP3    H129093   2.343   3.354  13.509 -0.9647 -1.1673  0.6923
 2534TIP3    H229094   2.331   3.369  13.359  0.3281  0.1324  0.6985
 2535TIP3   OH229095   4.648   5.879   4.204 -0.5725 -0.1705  0.3332
 2535TIP3    H129096   4.601   5.809   4.250 -0.6039  0.6722  1.6212
 2535TIP3    H229097   4.740   5.856   4.212 -0.4764  0.7266  2.1544
 2536TIP3   OH229098   6.185   5.345   3.194  0.0290 -0.0152  0.1027
 2536TIP3    H129099   6.094   5.366   3.213 -0.0469  0.4187 -0.7087
 2536TIP3    H229100   6.234   5.424   3.220  0.1877 -0.2678  0.5915
 2537TIP3   OH229101   2.183   5.113  15.219 -0.0042 -0.0957 -0.0041
 2537TIP3    H129102   2.255   5.121  15.157  1.1785  1.4779  1.4655
 2537TIP3    H229103   2.148   5.202  15.227 -1.3299 -0.6159  0.2316
 2538TIP3   OH229104   6.228   0.812  15.981 -0.1515 -0.2100 -0.1149
 2538TIP3    H129105   6.222   0.875  16.053 -0.2345  0.5467 -0.7750
 2538TIP3    H229106   6.137   0.789  15.963 -0.1015 -0.8321  0.3848
 2539TIP3   OH229107   1.089   2.029  16.060  0.1696  0.1122 -0.0233
 2539TIP3    H129108   1.180   2.011  16.038  0.6183  1.7697  0.3450
 2539TIP3    H229109   1.090   2.116  16.099 -1.3755 -0.4194  1.3356
 2540TIP3   OH229110   2.923   2.373   1.005 -0.1512  0.6827  0.5481
 2540TIP3    H129111   2.985   2.421   0.949  0.4933 -1.4466 -0.6813
 2540TIP3    H229112   2.962   2.378   1.092 -0.2698  2.6079  0.5311
 2541TIP3   OH229113   2.508   3.806   2.789 -0.0760 -0.6180  0.0261
 2541TIP3    H129114   2.520   3.727   2.841  0.0596 -0.9630 -0.5178
 2541TIP3    H229115   2.517   3.878   2.852  1.2405 -0.9824  0.2888
 2542TIP3   OH229116   5.821   1.228   4.292 -0.1779 -0.1338  0.5614
 2542TIP3    H129117   5.731   1.253   4.313  0.2663 -0.1706  2.7464
 2542TIP3    H229118   5.863   1.310   4.266 -1.0692 -0.2954 -1.5990
 2543TIP3   OH229119   2.995   5.083  10.515 -0.2579 -0.2442  0.1888
 2543TIP3    H129120   3.034   5.114  10.597 -0.4147 -0.1462  0.2260
 2543TIP3    H229121   3.034   5.139  10.448 -1.0486  0.5039  0.3235
 2544TIP3   OH229122   2.456   1.121  13.246  0.3865  0.1238 -0.1257
 2544TIP3    H129123   2.544   1.130  13.209 -1.1757 -0.5784 -4.7274
 2544TIP3    H229124   2.440   1.027  13.248 -0.1891  0.2358  0.8652
 2545TIP3   OH229125   1.231   1.089  11.692 -0.1692 -0.1436 -0.5077
 2545TIP3    H129126   1.149   1.138  11.681 -0.6585 -1.2141 -1.9942
 2545TIP3    H229127   1.290   1.128  11.628 -0.0792 -0.4793 -0.6326
 2546TIP3   OH229128   2.303   4.986   5.157 -0.0544 -1.0865  0.1929
 2546TIP3    H129129   2.357   4.975   5.079 -1.7228 -0.6639 -1.0831
 2546TIP3    H229130   2.214   4.995   5.123 -0.5682  1.7581  1.9456
 2547TIP3   OH229131   3.859   5.847   6.649  0.1913  0.2392  0.3684
 2547TIP3    H129132   3.937   5.853   6.703  0.4409  0.3087  0.0045
 2547TIP3    H229133   3.813   5.770   6.681 -0.8240  1.5471  2.1931
 2548TIP3   OH229134   6.212   5.495  15.754  0.6945  0.1799 -0.5888
 2548TIP3    H129135   6.296   5.526  15.789  0.5940 -0.7022  0.4866
 2548TIP3    H229136   6.237   5.444  15.677  1.0892  0.4603 -0.6533
 2549TIP3   OH229137   4.542   0.331  14.163 -0.0284  0.2829 -0.0765
 2549TIP3    H129138   4.458   0.374  14.175 -0.0765 -0.1619  1.4650
 2549TIP3    H229139   4.548   0.314  14.069 -1.4481  0.7322 -0.2687
 2550TIP3   OH229140   3.293   2.634  12.324 -0.2110 -0.4550  0.2248
 2550TIP3    H129141   3.218   2.671  12.371 -1.0498  0.6981 -1.9044
 2550TIP3    H229142   3.255   2.598  12.244  1.4417 -0.3771 -0.6176
 2551TIP3   OH229143   0.650   0.575  12.297 -0.1552 -0.0700  0.0204
 2551TIP3    H129144   0.591   0.510  12.335 -0.9375  1.4632  1.5486
 2551TIP3    H229145   0.723   0.580  12.359  0.7311 -0.6191 -0.9256
 2552TIP3   OH229146   3.288   2.181  11.104  0.1688  0.5146  0.0039
 2552TIP3    H129147   3.228   2.108  11.089  1.2436 -0.1921 -0.9847
 2552TIP3    H229148   3.236   2.259  11.083 -0.2522 -0.1106 -1.4193
 2553TIP3   OH229149   2.712   6.266  17.159 -0.3381 -0.2379  0.4182
 2553TIP3    H129150   2.687   6.308  17.241  1.7383  0.1347  0.9251
 2553TIP3    H229151   2.785   6.319  17.127 -0.9058 -0.5701 -1.5239
 2554TIP3   OH229152   1.698   0.041   0.188 -0.3403  0.7437 -0.3270
 2554TIP3    H129153   1.640   0.077   0.254  0.4242  0.1260  0.7097
 2554TIP3    H229154   1.690  -0.054   0.198 -0.5161  0.6292 -1.4018
 2555TIP3   OH229155   1.095   4.187   3.461  0.0141  0.5733  0.0673
 2555TIP3    H129156   1.146   4.241   3.522 -0.3515 -0.5543  1.4236
 2555TIP3    H229157   1.007   4.187   3.497  0.1761 -1.5863  0.6364
 2556TIP3   OH229158   4.578   3.609  14.468  0.0101  0.5539 -0.4462
 2556TIP3    H129159   4.496   3.657  14.454  0.2095  0.7823 -0.8352
 2556TIP3    H229160   4.582   3.596  14.563  0.0053  1.4093 -0.3243
 2557TIP3   OH229161   3.964   0.615  12.554  0.3498  0.3448  0.0778
 2557TIP3    H129162   3.917   0.535  12.532  1.7449 -1.0821  2.0126
 2557TIP3    H229163   3.978   0.658  12.469 -0.2275 -1.5696 -1.0457
 2558TIP3   OH229164   5.505   3.515   3.185 -0.1285 -0.0780 -0.3701
 2558TIP3    H129165   5.478   3.452   3.252  1.2577 -0.5374 -0.2005
 2558TIP3    H229166   5.434   3.579   3.182 -1.1657 -1.1605  0.0763
 2559TIP3   OH229167   1.245   6.234   3.567 -0.7292  0.4656  0.5470
 2559TIP3    H129168   1.259   6.144   3.537 -0.6753  0.1843  1.3877
 2559TIP3    H229169   1.282   6.236   3.655 -1.3191  1.1357  0.7893
 2560TIP3   OH229170   0.978   1.526  15.367  0.4445 -0.3046  1.0744
 2560TIP3    H129171   1.053   1.579  15.395  0.7577 -0.7648  1.1327
 2560TIP3    H229172   1.004   1.436  15.388 -0.5107 -0.3980  1.9862
 2561TIP3   OH229173   6.784   4.472   6.047  0.2672 -0.2909 -0.2305
 2561TIP3    H129174   6.847   4.535   6.081 -1.0236  1.8548 -1.5749
 2561TIP3    H229175   6.700   4.516   6.054 -0.4600 -1.0615 -2.9817
 2562TIP3   OH229176   3.010   2.383  13.414  0.1977  0.3967 -0.5010
 2562TIP3    H129177   3.033   2.356  13.325  0.6871  0.7016 -0.4718
 2562TIP3    H229178   2.973   2.470  13.404 -0.0064  0.3163 -0.4383
 2563TIP3   OH229179   2.517   1.269   5.791  0.3666  0.1109  0.5351
 2563TIP3    H129180   2.597   1.262   5.738  0.2206  1.7036  0.0565
 2563TIP3    H229181   2.518   1.359   5.824 -0.5209 -0.2835  1.7074
 2564TIP3   OH229182   6.112   6.361   1.047 -0.3765  0.1745  0.2354
 2564TIP3    H129183   6.085   6.371   0.956  2.9477  1.5092 -0.7542
 2564TIP3    H229184   6.139   6.270   1.055  0.5257  0.3636 -0.5351
 2565TIP3   OH229185   4.889   5.516  16.446 -0.6666  0.0915  0.5975
 2565TIP3    H129186   4.899   5.438  16.501  1.3867 -1.3704 -1.6350
 2565TIP3    H229187   4.912   5.589  16.505 -1.5607 -1.0408  2.4527
 2566TIP3   OH229188   5.490   3.706   5.876 -0.2728  0.2931  0.3184
 2566TIP3    H129189   5.402   3.740   5.862  0.0174  0.7704 -0.4653
 2566TIP3    H229190   5.486   3.616   5.845 -0.2459  0.6206 -0.6804
 2567TIP3   OH229191   5.906   3.844  15.633  0.2154 -0.2494 -0.1626
 2567TIP3    H129192   5.896   3.907  15.561 -0.0400 -2.3098 -2.0492
 2567TIP3    H229193   5.818   3.834  15.669  0.1519  0.0568 -0.2350
 2568TIP3   OH229194   5.722   0.405  12.592  0.1253  0.1267 -0.5753
 2568TIP3    H129195   5.661   0.439  12.658 -0.1207  0.8260 -1.1492
 2568TIP3    H229196   5.721   0.471  12.523  1.1827 -0.0917 -0.8086
 2569TIP3   OH229197   2.328   3.503   1.582  0.0067  0.0386  0.4702
 2569TIP3    H129198   2.334   3.540   1.494 -0.7588 -1.1118 -0.0918
 2569TIP3    H229199   2.327   3.579   1.640  1.8848  0.7995 -0.3951
 2570TIP3   OH229200   5.805   4.764   1.235  0.0102  0.0797  0.4909
 2570TIP3    H129201   5.801   4.681   1.186 -1.5528  0.2782  0.2515
 2570TIP3    H229202   5.833   4.739   1.323  2.5104 -0.3333 -0.3367
 2571TIP3   OH229203   5.749   3.474  10.812 -0.0642 -0.3432  0.0741
 2571TIP3    H129204   5.786   3.425  10.739 -0.0981  1.1978 -1.0207
 2571TIP3    H229205   5.658   3.490  10.787  0.2386  1.2309 -0.1496
 2572TIP3   OH229206   5.366   1.630  17.135  0.2687  0.1180 -0.5034
 2572TIP3    H129207   5.423   1.695  17.177  2.2381 -0.2834 -2.3453
 2572TIP3    H229208   5.387   1.548  17.178 -2.1158  0.5424  1.7237
 2573TIP3   OH229209   1.304   4.971  14.192 -0.2488  0.2896 -0.2183
 2573TIP3    H129210   1.301   4.885  14.150 -0.2300 -1.1398  2.4882
 2573TIP3    H229211   1.344   4.954  14.278  0.0797  3.0820  0.2644
 2574TIP3   OH229212   3.316   2.242   5.530  0.2302 -0.1419  0.6501
 2574TIP3    H129213   3.231   2.234   5.574  0.1337 -0.9646  0.3323
 2574TIP3    H229214   3.366   2.302   5.585 -0.9417  1.3027  0.2347
 2575TIP3   OH229215   0.632   0.761  16.001  0.2442 -0.4898 -0.2074
 2575TIP3    H129216   0.653   0.795  15.914  0.5651  1.3130  0.5356
 2575TIP3    H229217   0.625   0.667  15.989  2.2251 -0.4886 -1.7966
 2576TIP3   OH229218   5.682   4.084   2.957 -0.0790  0.0597  0.1351
 2576TIP3    H129219   5.691   4.179   2.956  2.0386 -0.0815  0.8739
 2576TIP3    H229220   5.640   4.065   3.041  1.1543  0.2703  0.8263
 2577TIP3   OH229221   2.681   0.048  14.834 -0.7290  0.4718  0.4335
 2577TIP3    H129222   2.688   0.003  14.919  2.4336  0.0423  0.0605
 2577TIP3    H229223   2.605   0.105  14.844 -0.0624  0.9830  3.8645
 2578TIP3   OH229224   0.333   6.378  14.950  0.5526  0.1234  0.4047
 2578TIP3    H129225   0.359   6.406  15.038 -1.0167 -0.5416  1.1320
 2578TIP3    H229226   0.411   6.340  14.912  0.7382 -1.6318  2.3898
 2579TIP3   OH229227   3.273   3.435  11.469 -0.3182  0.6844 -0.1850
 2579TIP3    H129228   3.301   3.356  11.515 -2.0009 -0.4045 -0.9280
 2579TIP3    H229229   3.300   3.422  11.378 -0.2041  1.1721 -0.2272
 2580TIP3   OH229230   2.492   4.177  14.312 -0.2106 -0.3124 -0.4365
 2580TIP3    H129231   2.576   4.223  14.311 -1.8266  2.8626 -0.2154
 2580TIP3    H229232   2.513   4.089  14.279  2.7810  1.0597 -2.6472
 2581TIP3   OH229233   5.980   5.347  15.399  0.1116 -0.4886  0.3430
 2581TIP3    H129234   5.996   5.383  15.312 -4.4241  1.9864  0.2249
 2581TIP3    H229235   6.040   5.394  15.456  1.4016 -0.3110 -1.1000
 2582TIP3   OH229236   4.485   1.135  11.672  0.4274  0.5274 -0.7975
 2582TIP3    H129237   4.445   1.201  11.617 -0.0298  0.6346 -0.3418
 2582TIP3    H229238   4.449   1.052  11.641  0.4229  0.5607 -0.8794
 2583TIP3   OH229239   2.960   2.137   5.132 -0.0547  0.1755 -0.3242
 2583TIP3    H129240   2.933   2.045   5.138 -1.3347  0.6202  2.9054
 2583TIP3    H229241   2.878   2.184   5.115  0.8291  0.7313 -3.8404
 2584TIP3   OH229242   4.047   3.779   2.466 -0.1037 -0.0445  0.0496
 2584TIP3    H129243   3.981   3.711   2.482  0.8521 -0.9931  0.0351
 2584TIP3    H229244   4.130   3.739   2.492  0.5040  1.0527 -0.1539
 2585TIP3   OH229245   6.208   0.999  12.243 -0.6537 -0.1423  0.6765
 2585TIP3    H129246   6.127   1.024  12.287 -0.2850  3.2751 -0.3561
 2585TIP3    H229247   6.180   0.970  12.156 -0.8672 -0.3712  0.8208
 2586TIP3   OH229248   5.181   4.482  16.217  0.3247  0.0061 -0.3193
 2586TIP3    H129249   5.142   4.480  16.305  0.9469 -0.5598 -0.0473
 2586TIP3    H229250   5.239   4.406  16.215 -1.2791 -1.2597 -1.9651
 2587TIP3   OH229251   0.362   2.612  14.067  0.1849  0.3450  0.1596
 2587TIP3    H129252   0.416   2.686  14.095  0.1887  0.5911 -0.4827
 2587TIP3    H229253   0.366   2.551  14.140  0.7130  0.6941  0.4327
 2588TIP3   OH229254   0.821   5.139   3.421  0.2137  0.8783 -0.7280
 2588TIP3    H129255   0.728   5.118   3.415  0.4450  0.2518 -3.1117
 2588TIP3    H229256   0.853   5.088   3.496 -1.2652  0.7826 -0.1385
 2589TIP3   OH229257   6.055   5.000   4.485  0.2042  0.0210  0.2059
 2589TIP3    H129258   6.127   5.048   4.447 -0.4712  0.0611 -1.0870
 2589TIP3    H229259   5.978   5.056   4.472 -0.5959 -1.3266 -1.3213
 2590TIP3   OH229260   5.215   6.382   2.911  0.2019 -0.1140 -0.6644
 2590TIP3    H129261   5.258   6.455   2.957 -1.3190 -0.0540  0.7454
 2590TIP3    H229262   5.288   6.328   2.879  1.3678  1.7538 -1.3661
 2591TIP3   OH229263   6.174   0.930  12.716 -0.1865 -0.7361  0.2581
 2591TIP3    H129264   6.126   0.856  12.679  0.6422 -0.5579 -1.2872
 2591TIP3    H229265   6.149   1.005  12.662  2.8954 -0.9211 -1.7156
 2592TIP3   OH229266   1.259   5.816  16.837 -0.6589 -0.0296  0.1355
 2592TIP3    H129267   1.170   5.843  16.861 -0.7860 -0.1975 -0.1393
 2592TIP3    H229268   1.316   5.866  16.895 -0.9617 -0.3914  0.7470
 2593TIP3   OH229269   6.210   2.279   0.572  0.3730  0.8311  0.0045
 2593TIP3    H129270   6.258   2.362   0.571  0.1476  1.0541  2.3414
 2593TIP3    H229271   6.143   2.290   0.505  1.9303  1.5112 -1.5304
 2594TIP3   OH229272   1.920   3.856  15.690  0.8288  0.4022  0.2401
 2594TIP3    H129273   1.991   3.792  15.702 -0.3048 -1.1271 -0.7166
 2594TIP3    H229274   1.960   3.941  15.707  2.6238 -0.4960  0.7144
 2595TIP3   OH229275   4.134   4.910   1.398 -0.4374 -0.3804 -0.2356
 2595TIP3    H129276   4.172   4.990   1.434  0.1036 -1.8916  2.8839
 2595TIP3    H229277   4.152   4.915   1.304 -0.4054  3.0826 -0.1733
 2596TIP3   OH229278   4.520   0.123   1.556  0.2435  0.6592  0.0802
 2596TIP3    H129279   4.451   0.075   1.511  2.0941 -2.4740  0.3336
 2596TIP3    H229280   4.543   0.194   1.495 -1.1150 -0.0748 -1.3653
 2597TIP3   OH229281   5.462   2.639   1.564  0.1708 -0.0984  0.4373
 2597TIP3    H129282   5.372   2.667   1.581 -0.2102 -0.6008 -0.6703
 2597TIP3    H229283   5.511   2.672   1.639 -0.7910  0.8852  0.6753
 2598TIP3   OH229284   2.039   2.212   2.288 -0.4927  0.6835  0.5372
 2598TIP3    H129285   2.055   2.234   2.380  0.8547 -2.6100  1.2412
 2598TIP3    H229286   2.092   2.275   2.239  1.3820  0.5102  2.2019
 2599TIP3   OH229287   3.664   5.726   4.848  0.2978 -0.0898  0.3948
 2599TIP3    H129288   3.584   5.718   4.797  0.4746  0.2177  0.0640
 2599TIP3    H229289   3.638   5.703   4.938 -0.2945  0.6009  0.4057
 2600TIP3   OH229290   5.421   0.047  16.396  0.2069 -0.2285 -0.1720
 2600TIP3    H129291   5.442   0.117  16.458  0.4707 -0.7876  0.3792
 2600TIP3    H229292   5.350  -0.002  16.438 -0.7224  0.3275 -1.0315
 2601TIP3   OH229293   1.140   4.358   6.067  0.6088  0.1483  0.0058
 2601TIP3    H129294   1.183   4.276   6.092  3.5160  1.5758  0.1954
 2601TIP3    H229295   1.100   4.390   6.148 -1.7081 -1.6159 -0.3524
 2602TIP3   OH229296   3.904   4.863  14.635 -0.3535 -0.1388  0.1455
 2602TIP3    H129297   3.971   4.800  14.609 -0.7972 -0.5915  0.0712
 2602TIP3    H229298   3.949   4.923  14.694  0.3211  0.0614 -0.5549
 2603TIP3   OH229299   3.944   1.672   5.111 -0.3103  0.4219 -0.5844
 2603TIP3    H129300   3.934   1.611   5.038  0.8986 -1.0020  0.3593
 2603TIP3    H229301   3.976   1.617   5.183 -0.5221  1.9503  0.7222
 2604TIP3   OH229302   1.423   4.588  11.786  0.2629  0.4736  0.0756
 2604TIP3    H129303   1.496   4.583  11.847  0.3842  1.6922  0.0602
 2604TIP3    H229304   1.407   4.682  11.775 -0.8682  0.2437 -0.4402
 2605TIP3   OH229305   4.951   4.519  16.790  0.1873 -0.7424  0.1090
 2605TIP3    H129306   4.928   4.429  16.767 -2.3435 -0.3064  0.5813
 2605TIP3    H229307   4.870   4.556  16.826  1.0083  1.8696 -0.4953
 2606TIP3   OH229308   3.819   0.071  14.912  0.5871 -0.1666  0.1823
 2606TIP3    H129309   3.820   0.056  14.817  0.9604  0.2056  0.1211
 2606TIP3    H229310   3.858  -0.008  14.949 -0.0567 -0.5418  0.0617
 2607TIP3   OH229311   2.863   4.334   3.000  0.2695  0.0598 -0.5466
 2607TIP3    H129312   2.913   4.341   3.082 -0.1180 -1.1946 -0.1705
 2607TIP3    H229313   2.832   4.243   2.999  0.1592  0.0904 -2.0363
 2608TIP3   OH229314   2.549   1.235  15.176  0.2748 -0.2397 -0.3717
 2608TIP3    H129315   2.588   1.245  15.089  0.7238 -0.1452 -0.1657
 2608TIP3    H229316   2.471   1.182  15.161 -0.9045  1.6132 -1.1723
 2609TIP3   OH229317   2.958   2.526  13.655 -0.5342 -0.8166 -0.0104
 2609TIP3    H129318   3.007   2.483  13.725  1.5054  0.2142 -0.7275
 2609TIP3    H229319   3.025   2.569  13.602 -2.2182  0.3757 -1.2663
 2610TIP3   OH229320   0.891   1.757   3.178  0.2998 -0.5890 -0.2794
 2610TIP3    H129321   0.877   1.731   3.269 -0.9350  0.0946 -0.2669
 2610TIP3    H229322   0.813   1.726   3.132  0.2265  0.3872 -0.8269
 2611TIP3   OH229323   5.203   6.095  15.209 -0.1624  0.0350  0.0100
 2611TIP3    H129324   5.134   6.096  15.142  2.1111 -2.1274 -2.6505
 2611TIP3    H229325   5.174   6.030  15.272 -1.3851  0.5310 -0.0054
 2612TIP3   OH229326   5.570   5.608  17.103  0.8444  0.3167  0.1469
 2612TIP3    H129327   5.474   5.607  17.092  0.7826  1.8936  0.3631
 2612TIP3    H229328   5.604   5.592  17.015  0.3546  1.3922 -0.2604
 2613TIP3   OH229329   5.308   4.879  13.669  0.3725  0.1368 -0.4421
 2613TIP3    H129330   5.279   4.802  13.621  1.1138  0.0176 -0.7221
 2613TIP3    H229331   5.402   4.865  13.682  0.4653  0.8677 -0.2677
 2614TIP3   OH229332   0.942   2.037   3.128 -0.0778  0.6062  0.5297
 2614TIP3    H129333   0.976   2.043   3.039 -1.5627  1.3161 -0.0282
 2614TIP3    H229334   0.930   1.944   3.144 -1.3053  0.5340 -0.6439
 2615TIP3   OH229335   2.807   3.191  16.569  0.2056 -0.5803  0.2834
 2615TIP3    H129336   2.889   3.202  16.521  0.4942 -1.8685  0.4473
 2615TIP3    H229337   2.745   3.157  16.504 -0.3005  0.6733  0.0900
 2616TIP3   OH229338   6.776   4.476  12.236  0.1666 -0.2808 -0.1141
 2616TIP3    H129339   6.785   4.566  12.205  0.0314 -0.4529 -0.6555
 2616TIP3    H229340   6.859   4.457  12.279  0.2388  0.0641 -0.1014
 2617TIP3   OH229341   6.345   4.371  11.548 -0.0482  0.1813  0.3765
 2617TIP3    H129342   6.409   4.343  11.614  0.1994 -0.9343 -0.3173
 2617TIP3    H229343   6.378   4.454  11.516  0.8573 -0.1905  0.3154
 2618TIP3   OH229344   3.650   2.783   0.735  0.4162 -0.1838 -0.3626
 2618TIP3    H129345   3.573   2.838   0.746  1.3474  0.9649  0.8093
 2618TIP3    H229346   3.649   2.724   0.811  0.1029 -0.9472 -0.9458
 2619TIP3   OH229347   1.180   5.050  15.673  1.3418  0.1355 -0.6410
 2619TIP3    H129348   1.220   4.963  15.679 -1.6560 -1.5108 -2.2780
 2619TIP3    H229349   1.101   5.043  15.726  0.6630  1.6625 -1.4016
 2620TIP3   OH229350   2.251   4.153   3.589  0.7868 -0.1066 -0.2785
 2620TIP3    H129351   2.212   4.182   3.507  1.4672  2.4130  0.2119
 2620TIP3    H229352   2.335   4.199   3.594  1.3008 -1.1206  1.2876
 2621TIP3   OH229353   3.535   5.575   6.202  0.4196 -0.7015  0.0150
 2621TIP3    H129354   3.590   5.579   6.123  0.6027 -0.9365  0.1280
 2621TIP3    H229355   3.464   5.637   6.185  1.4642  0.6308  0.4440
 2622TIP3   OH229356   5.989   4.201   3.126 -0.8598 -0.0679 -0.2511
 2622TIP3    H129357   5.911   4.161   3.165 -0.4798 -0.4393  0.1307
 2622TIP3    H229358   5.976   4.295   3.138 -0.6862 -0.1759  0.9073
 2623TIP3   OH229359   0.854   4.111   5.253 -0.0970 -0.2565 -0.5836
 2623TIP3    H129360   0.858   4.108   5.348  1.1537  1.8867 -0.5143
 2623TIP3    H229361   0.789   4.045   5.230  1.0508 -2.3124  1.6072
 2624TIP3   OH229362   4.629   5.940  11.023 -0.2837  0.0509  0.9906
 2624TIP3    H129363   4.718   5.968  11.002  0.3621 -1.8743  0.8999
 2624TIP3    H229364   4.577   5.969  10.949 -0.1542  2.8297  1.8747
 2625TIP3   OH229365   6.032   5.570   1.570  0.1040 -0.8131 -0.2875
 2625TIP3    H129366   6.010   5.614   1.488  0.0858  0.0641  0.1776
 2625TIP3    H229367   6.044   5.479   1.546  1.7718 -0.2940 -1.5835
 2626TIP3   OH229368   6.506   1.513   4.552  0.0696  0.4633 -0.5663
 2626TIP3    H129369   6.459   1.475   4.626  1.8777  1.3433  1.1235
 2626TIP3    H229370   6.525   1.602   4.579  0.4174  0.9531 -2.3046
 2627TIP3   OH229371   2.475   5.935   1.448 -0.0480  0.2186 -0.1653
 2627TIP3    H129372   2.484   5.919   1.542 -0.8951 -0.4152 -0.1867
 2627TIP3    H229373   2.400   5.995   1.441 -1.0535 -1.0442 -0.5351
 2628TIP3   OH229374   0.765   3.065  16.807 -0.4906 -0.2988 -0.1555
 2628TIP3    H129375   0.706   3.010  16.754 -1.0441 -0.8060  0.9480
 2628TIP3    H229376   0.724   3.067  16.893  1.8654 -1.9747  1.1273
 2629TIP3   OH229377   2.235   2.568   4.371 -0.0855  0.1601  0.3587
 2629TIP3    H129378   2.329   2.564   4.391  0.0942 -2.4436 -0.5827
 2629TIP3    H229379   2.230   2.551   4.277 -1.5556 -1.7374  0.7178
 2630TIP3   OH229380   2.956   3.878  16.567  0.0352  0.2086 -0.2538
 2630TIP3    H129381   3.001   3.907  16.488  0.5726 -1.0061 -0.4241
 2630TIP3    H229382   2.899   3.807  16.537 -2.3731  1.9806 -0.1180
 2631TIP3   OH229383   2.513   4.723  11.800 -0.4722 -0.5057  0.3462
 2631TIP3    H129384   2.459   4.802  11.799 -0.6385 -0.6102  0.8566
 2631TIP3    H229385   2.469   4.665  11.863 -1.2977 -1.6739 -1.2276
 2632TIP3   OH229386   2.577   2.055   2.848 -0.5332 -0.2784  0.5412
 2632TIP3    H129387   2.666   2.058   2.884 -0.3612 -2.0975  0.3959
 2632TIP3    H229388   2.563   2.142   2.810  1.8570 -0.4564 -0.9826
 2633TIP3   OH229389   1.786   0.472  13.325  0.1787  0.2113 -0.2832
 2633TIP3    H129390   1.761   0.494  13.415 -0.7388 -0.1179 -0.4470
 2633TIP3    H229391   1.766   0.550  13.274  0.4993  0.3227 -0.2425
 2634TIP3   OH229392   3.375   1.969   0.562  0.0693 -0.2897 -0.4132
 2634TIP3    H129393   3.355   1.972   0.469  1.3075 -2.6122 -0.8377
 2634TIP3    H229394   3.315   1.903   0.597 -0.5226  0.6975  0.5142
 2635TIP3   OH229395   3.213   0.867  12.650 -0.1835  0.5796  0.1773
 2635TIP3    H129396   3.264   0.948  12.650  1.8686 -0.6410 -0.6675
 2635TIP3    H229397   3.273   0.801  12.685 -1.0778 -0.9689 -1.0725
 2636TIP3   OH229398   1.622   6.121   1.129 -0.5848 -0.0794 -0.1976
 2636TIP3    H129399   1.611   6.121   1.224  1.2246 -1.4210  0.0536
 2636TIP3    H229400   1.642   6.030   1.107 -1.0146  0.1997 -1.8859
 2637TIP3   OH229401   1.177   6.250  10.980  0.2786 -0.8694  0.1557
 2637TIP3    H129402   1.164   6.315  11.049 -0.1742  0.4602 -1.1377
 2637TIP3    H229403   1.110   6.184  10.997 -0.4350 -0.0895  0.4657
 2638TIP3   OH229404   3.369   1.329  17.200  0.9961 -0.1932  0.6531
 2638TIP3    H129405   3.319   1.409  17.184  2.0224  0.5044  0.8032
 2638TIP3    H229406   3.370   1.320  17.295  1.5475  0.0744  0.6804
 2639TIP3   OH229407   2.439   2.179   3.817  0.0375  0.2958  0.2148
 2639TIP3    H129408   2.364   2.211   3.765  0.3395 -0.2784 -0.5956
 2639TIP3    H229409   2.498   2.140   3.752  1.9458  2.3850  0.5769
 2640TIP3   OH229410   2.311   0.245  12.800  0.2388 -0.1215 -0.4468
 2640TIP3    H129411   2.389   0.272  12.848 -0.1989  1.3452 -0.5418
 2640TIP3    H229412   2.329   0.154  12.774  1.0567 -0.4863  1.2720
 2641TIP3   OH229413   5.542   5.097   6.210 -0.4037  0.3041  0.0924
 2641TIP3    H129414   5.622   5.143   6.184 -0.4520  0.8129  0.8014
 2641TIP3    H229415   5.472   5.141   6.162 -0.3474  0.3857  0.0847
 2642TIP3   OH229416   6.736   0.158  14.454  0.2233  0.3916 -0.1771
 2642TIP3    H129417   6.704   0.068  14.462 -3.0169  1.5603  2.0395
 2642TIP3    H229418   6.690   0.193  14.378 -1.0698  0.9844  0.8194
 2643TIP3   OH229419   2.310   6.431   0.153  0.2680  0.1044  0.5364
 2643TIP3    H129420   2.325   6.339   0.172  1.9264  0.5801  1.6785
 2643TIP3    H229421   2.337   6.477   0.232  0.1703  1.6338 -0.2845
 2644TIP3   OH229422   1.314   5.946  14.397 -0.9675 -0.3524 -0.1609
 2644TIP3    H129423   1.402   5.909  14.385  0.0724  1.6802  0.6997
 2644TIP3    H229424   1.296   5.932  14.490 -0.3808  1.5385  0.2790
 2645TIP3   OH229425   6.138   3.769  11.293  0.3623 -0.1475 -0.5669
 2645TIP3    H129426   6.147   3.768  11.198  1.4912  0.8007 -0.5015
 2645TIP3    H229427   6.216   3.724  11.326 -0.0085 -0.4567 -0.0760
 2646TIP3   OH229428   3.812   0.134   1.809  0.0551 -0.3758 -0.0948
 2646TIP3    H129429   3.876   0.071   1.842 -0.6525 -0.7959  0.5102
 2646TIP3    H229430   3.775   0.173   1.888 -0.3576 -0.0617 -0.4436
 2647TIP3   OH229431   4.035   6.639   5.613 -0.0091 -0.1059 -0.5810
 2647TIP3    H129432   4.102   6.664   5.677 -0.5963 -0.0115  0.0016
 2647TIP3    H229433   4.050   6.545   5.599  1.9361  0.4041 -2.4705
 2648TIP3   OH229434   4.285   1.817   6.001 -0.6257  0.4930 -0.3265
 2648TIP3    H129435   4.235   1.836   6.080  0.3527  0.9497  0.2027
 2648TIP3    H229436   4.337   1.740   6.024  0.9275  1.6227  0.0877
 2649TIP3   OH229437   0.019   3.902  15.597 -0.6648  0.9492  0.2009
 2649TIP3    H129438  -0.005   3.993  15.615  3.7646  2.5289 -0.7150
 2649TIP3    H229439   0.012   3.894  15.502  1.4207  1.2256 -0.0045
 2650TIP3   OH229440   3.413   0.297   4.139  0.6275 -0.2627 -0.0315
 2650TIP3    H129441   3.334   0.242   4.138  0.1982  0.3364  0.0240
 2650TIP3    H229442   3.481   0.241   4.176 -0.0400 -0.4496  0.9619
 2651TIP3   OH229443   1.770   3.144   5.487  0.0359 -0.1729 -0.1752
 2651TIP3    H129444   1.759   3.120   5.395 -0.5138  0.3358 -0.2501
 2651TIP3    H229445   1.682   3.158   5.520  0.1413 -1.5898  0.7979
 2652TIP3   OH229446   2.834   6.427  16.414  0.2453  0.0055 -0.3971
 2652TIP3    H129447   2.867   6.446  16.501 -0.7837  0.7702 -0.1509
 2652TIP3    H229448   2.739   6.418  16.425 -0.2065  2.2148 -1.7268
 2653TIP3   OH229449   2.127   1.850  12.074  0.0304  0.1809 -0.0088
 2653TIP3    H129450   2.170   1.935  12.064  1.2178 -0.4661 -0.6211
 2653TIP3    H229451   2.176   1.791  12.017  0.4637 -1.3433  1.8290
 2654TIP3   OH229452   2.495   2.196   4.287  0.5816  0.1950 -0.1321
 2654TIP3    H129453   2.425   2.253   4.319  0.9916  0.0993  0.9795
 2654TIP3    H229454   2.550   2.181   4.363  0.7362 -1.3289 -0.5177
 2655TIP3   OH229455   0.946   5.190  11.683 -0.1228 -0.5355 -0.2160
 2655TIP3    H129456   0.895   5.115  11.714 -1.8451 -0.1958 -1.9901
 2655TIP3    H229457   0.918   5.263  11.737 -0.9153 -0.5363 -0.6069
 2656TIP3   OH229458   3.074   4.977   0.291 -0.0510 -0.0150 -0.2607
 2656TIP3    H129459   2.983   5.006   0.282 -0.0634 -0.4278 -1.7108
 2656TIP3    H229460   3.068   4.882   0.297  0.2333  0.0171  0.7941
 2657TIP3   OH229461   4.890   1.185  15.864  0.0245 -0.5449  0.3486
 2657TIP3    H129462   4.918   1.094  15.868 -0.1379 -0.6558 -0.7597
 2657TIP3    H229463   4.837   1.191  15.785 -1.0448  0.2255  1.0928
 2658TIP3   OH229464   6.729   5.069   0.967 -0.0174 -0.4046 -0.2287
 2658TIP3    H129465   6.686   5.130   1.028  0.2930 -0.7311  0.3259
 2658TIP3    H229466   6.772   5.005   1.024 -0.4775 -1.2433 -0.8036
 2659TIP3   OH229467   2.764   3.390   0.942  0.4539  0.2278  0.4561
 2659TIP3    H129468   2.781   3.345   0.859 -0.0110 -0.3654  0.6695
 2659TIP3    H229469   2.796   3.479   0.929  0.5358  0.0925 -0.3017
 2660TIP3   OH229470   2.514   0.701  14.979  0.4579  0.0932  0.0867
 2660TIP3    H129471   2.528   0.788  15.017 -1.4279  0.2283  0.6012
 2660TIP3    H229472   2.527   0.713  14.885  0.4585  0.8928  0.1836
 2661TIP3   OH229473   3.065   3.888   2.619 -0.0831 -0.3804 -0.3708
 2661TIP3    H129474   2.997   3.838   2.663 -1.7251  1.6904 -0.4197
 2661TIP3    H229475   3.097   3.830   2.550 -0.0879 -2.2583  1.1364
 2662TIP3   OH229476   5.098   1.540   2.763 -0.2546 -0.5693  0.4034
 2662TIP3    H129477   5.004   1.555   2.771 -0.1017 -0.4256  2.6028
 2662TIP3    H229478   5.139   1.621   2.794  0.6153 -0.5662 -0.6762
 2663TIP3   OH229479   4.305   6.039  16.519 -0.2179 -0.3206 -0.1352
 2663TIP3    H129480   4.355   6.096  16.461  1.2800  0.2825  1.6385
 2663TIP3    H229481   4.218   6.034  16.481  0.7263 -0.0470 -2.4530
 2664TIP3   OH229482   4.604   5.543   0.504 -0.5706  0.1872 -0.0398
 2664TIP3    H129483   4.605   5.631   0.467  0.4010  0.5314  0.7614
 2664TIP3    H229484   4.564   5.554   0.590 -0.5405 -0.1680  0.0189
 2665TIP3   OH229485   5.423   1.888   3.259  0.8286  0.2343 -0.0979
 2665TIP3    H129486   5.338   1.921   3.287  0.7536  0.5680 -0.7037
 2665TIP3    H229487   5.403   1.810   3.207  0.6678  1.7988 -2.5448
 2666TIP3   OH229488   0.047   5.771  12.037  0.6947  0.0139 -0.0165
 2666TIP3    H129489  -0.002   5.690  12.049 -1.1714  1.2980  1.7552
 2666TIP3    H229490   0.138   5.744  12.027  0.1356 -2.2571  0.5844
 2667TIP3   OH229491   5.023   2.502   2.125  0.1559  0.1166  0.0468
 2667TIP3    H129492   5.020   2.466   2.037  2.4125 -1.6716  0.6009
 2667TIP3    H229493   5.070   2.585   2.116 -0.4108  0.3824 -0.5290
 2668TIP3   OH229494   6.406   5.256  10.888 -0.7166 -0.0600  0.3750
 2668TIP3    H129495   6.317   5.245  10.920 -1.5745  0.9237 -1.5061
 2668TIP3    H229496   6.420   5.351  10.890  0.1307 -0.1745  0.2234
 2669TIP3   OH229497   0.681   1.906   5.480  0.3983  0.4810 -0.3804
 2669TIP3    H129498   0.687   1.984   5.425 -0.3047  0.4487 -0.5190
 2669TIP3    H229499   0.756   1.853   5.456  0.6055  0.8881 -0.6426
 2670TIP3   OH229500   1.480   3.525   4.197  0.0328 -0.1202 -0.2471
 2670TIP3    H129501   1.429   3.485   4.127 -0.6257 -0.0227  0.1725
 2670TIP3    H229502   1.446   3.486   4.278  1.4704 -0.9912 -0.0245
 2671TIP3   OH229503   0.519   1.845  14.775 -0.0665 -1.0282  0.3265
 2671TIP3    H129504   0.546   1.845  14.867 -0.4863  1.8552  0.5425
 2671TIP3    H229505   0.591   1.890  14.729 -1.1872  0.2524 -0.2405
 2672TIP3   OH229506   4.910   0.791  11.485  0.0277 -0.4229  0.0787
 2672TIP3    H129507   4.830   0.829  11.523  0.4785  2.2531 -1.3975
 2672TIP3    H229508   4.893   0.789  11.391  1.7023  0.2791 -0.2685
 2673TIP3   OH229509   1.445   1.053  14.060  0.3803 -0.3743  0.7324
 2673TIP3    H129510   1.485   1.096  13.985  0.8836  0.0233  1.2266
 2673TIP3    H229511   1.482   0.965  14.060 -1.5086 -1.2586 -0.9601
 2674TIP3   OH229512   1.505   6.741   5.698 -0.2028 -0.6457 -0.2113
 2674TIP3    H129513   1.505   6.652   5.734  2.6500 -1.2126 -1.3755
 2674TIP3    H229514   1.531   6.797   5.770 -1.3931 -0.7983  0.3621
 2675TIP3   OH229515   6.546   2.996   4.808  0.1497 -0.6714 -0.5317
 2675TIP3    H129516   6.610   3.019   4.875  0.5209  2.7166 -1.8639
 2675TIP3    H229517   6.596   2.948   4.742  0.6608 -0.6336 -0.1712
 2676TIP3   OH229518   1.991   5.387  14.832 -0.4655  0.0561  0.1044
 2676TIP3    H129519   1.999   5.410  14.739 -1.4121  1.3057  0.2996
 2676TIP3    H229520   2.081   5.393  14.865 -0.0591 -0.7570 -0.7924
 2677TIP3   OH229521   3.076   6.130  11.707  0.4671  0.6445 -0.0301
 2677TIP3    H129522   3.141   6.084  11.761 -0.4919  1.8865  2.3289
 2677TIP3    H229523   3.002   6.070  11.701  1.2283 -0.1948 -1.5093
 2678TIP3   OH229524   2.841   2.151   3.728 -0.4337 -0.5290 -0.4025
 2678TIP3    H129525   2.851   2.112   3.641 -1.0368  0.7724 -1.0710
 2678TIP3    H229526   2.765   2.209   3.720 -0.8273 -0.7813  1.1417
 2679TIP3   OH229527   2.885   5.978  14.245  0.5380  0.0814 -0.1468
 2679TIP3    H129528   2.912   5.954  14.333 -1.0183 -2.2443 -0.2384
 2679TIP3    H229529   2.965   5.972  14.193  1.8191  2.8810  1.2334
 2680TIP3   OH229530   2.784   3.789  13.316 -0.2278 -0.3727  0.1630
 2680TIP3    H129531   2.745   3.789  13.229  0.4987 -1.2557 -0.1834
 2680TIP3    H229532   2.738   3.720  13.364  0.0135 -0.5334  0.1676
 2681TIP3   OH229533   2.618   5.348  11.768  0.2068 -0.1036 -0.2309
 2681TIP3    H129534   2.565   5.274  11.740 -0.1304 -0.2547  0.7542
 2681TIP3    H229535   2.557   5.422  11.768  0.7197  0.3589 -1.9431
 2682TIP3   OH229536   1.887   5.873  13.339 -0.4305 -0.5726  0.0479
 2682TIP3    H129537   1.842   5.941  13.288  1.0528  1.3707  1.1593
 2682TIP3    H229538   1.842   5.872  13.423  0.4978  0.1557  0.5654
 2683TIP3   OH229539   1.632   6.093  11.455 -0.3946 -0.7295 -0.4098
 2683TIP3    H129540   1.681   6.172  11.480 -0.6336  0.0122 -2.1216
 2683TIP3    H229541   1.664   6.025  11.514  0.0564  0.5744  0.9022
 2684TIP3   OH229542   2.900   4.083  12.804  0.0689 -0.3970  0.1062
 2684TIP3    H129543   2.921   4.114  12.892 -0.9005 -3.8854  1.7598
 2684TIP3    H229544   2.804   4.086  12.799  0.1044 -0.3478 -0.7861
 2685TIP3   OH229545   0.348   5.076   1.296 -0.5638 -0.2317 -0.1090
 2685TIP3    H129546   0.426   5.118   1.331 -0.6624  0.6462 -0.8943
 2685TIP3    H229547   0.283   5.146   1.292 -0.9931 -0.6510 -0.6664
 2686TIP3   OH229548   2.373   2.840  11.801  0.0246 -0.0928 -0.1102
 2686TIP3    H129549   2.401   2.866  11.713  0.3435  2.0706  0.5651
 2686TIP3    H229550   2.279   2.857  11.802  0.0682  0.1438  0.0423
 2687TIP3   OH229551   3.343   1.101  12.600 -0.2102 -0.0905  0.0143
 2687TIP3    H129552   3.373   1.190  12.619  0.1562 -0.6715  2.6440
 2687TIP3    H229553   3.422   1.048  12.606 -0.5045 -0.6614 -1.0699
 2688TIP3   OH229554   3.143   6.683  17.150 -0.0708 -0.3006 -0.1108
 2688TIP3    H129555   3.088   6.630  17.208  0.5259 -0.8245 -0.0165
 2688TIP3    H229556   3.226   6.636  17.146  0.6906  0.9513  0.4685
 2689TIP3   OH229557   6.793   0.488   3.982  0.1246  0.7402 -0.0555
 2689TIP3    H129558   6.740   0.535   3.918  2.3105  2.0555 -1.0387
 2689TIP3    H229559   6.804   0.551   4.054  0.3112  0.4823  0.1414
 2690TIP3   OH229560   2.160   5.285  10.361 -0.0603  0.6855  0.1912
 2690TIP3    H129561   2.087   5.341  10.388 -0.1332  0.5017  0.3831
 2690TIP3    H229562   2.133   5.248  10.277 -0.1794  0.6364  0.2503
 2691TIP3   OH229563   0.972   4.659   2.761 -0.5423  0.0405 -0.1507
 2691TIP3    H129564   0.888   4.650   2.806 -0.7102 -2.1051 -0.7840
 2691TIP3    H229565   1.032   4.690   2.829 -1.3082 -0.8614  0.9733
 2692TIP3   OH229566   1.501   1.895  16.535 -0.3511 -0.0233  0.2204
 2692TIP3    H129567   1.485   1.937  16.620 -0.6452  0.9629 -0.3050
 2692TIP3    H229568   1.497   1.967  16.472 -0.0808 -0.7371 -0.6272
 2693TIP3   OH229569   1.799   5.170  17.001  0.0101 -0.2775  0.1485
 2693TIP3    H129570   1.841   5.123  17.073  2.6952  1.2056 -0.3225
 2693TIP3    H229571   1.761   5.248  17.041 -1.5349 -1.1325  0.4201
 2694TIP3   OH229572   6.304   3.937   2.970 -0.6151  0.6384 -0.4780
 2694TIP3    H129573   6.236   3.923   2.904  0.5791 -1.1605 -1.4043
 2694TIP3    H229574   6.386   3.914   2.926  0.4160  1.0396  1.1328
 2695TIP3   OH229575   0.600   2.321  10.258  0.8635  0.2907  0.1489
 2695TIP3    H129576   0.512   2.356  10.276  0.7966 -0.1495  0.7044
 2695TIP3    H229577   0.659   2.383  10.300  0.7396 -0.3152  1.2522
 2696TIP3   OH229578   5.837   4.798   4.891  0.2848 -0.3220 -0.1867
 2696TIP3    H129579   5.785   4.804   4.810 -0.5584  2.7542  0.4467
 2696TIP3    H229580   5.771   4.795   4.961  0.8194  2.7234  0.5811
 2697TIP3   OH229581   3.788   2.232   5.209  0.3146 -0.5960 -0.3522
 2697TIP3    H129582   3.883   2.239   5.199  0.2550 -1.9489 -2.8157
 2697TIP3    H229583   3.776   2.189   5.294  1.8526  0.0398  0.2329
 2698TIP3   OH229584   1.132   0.833   5.101 -0.2117 -0.3131 -0.1197
 2698TIP3    H129585   1.053   0.868   5.143 -0.6771 -1.5988  0.1118
 2698TIP3    H229586   1.187   0.804   5.174  0.6125  0.8042 -0.2669
 2699TIP3   OH229587   6.780   4.060  14.469 -0.8781 -0.6197 -0.3778
 2699TIP3    H129588   6.696   4.104  14.482 -0.9387 -1.2669  1.7988
 2699TIP3    H229589   6.843   4.115  14.516 -0.4249 -1.2127 -0.2903
 2700TIP3   OH229590   2.222   5.406  16.886 -0.6549 -0.2415 -0.4293
 2700TIP3    H129591   2.218   5.399  16.981  0.0755 -0.0704 -0.3838
 2700TIP3    H229592   2.315   5.416  16.866 -0.9849  2.9433 -0.9358
 2701TIP3   OH229593   5.834   2.091   4.001  0.0783  0.3394  0.8882
 2701TIP3    H129594   5.786   2.141   4.066 -0.5965 -0.0583  0.7049
 2701TIP3    H229595   5.772   2.077   3.930  0.6614  0.3607  0.3627
 2702TIP3   OH229596   4.985   5.300  12.009  0.1375 -0.2082  0.3744
 2702TIP3    H129597   4.940   5.225  11.969 -1.6528  0.8623  0.2494
 2702TIP3    H229598   5.064   5.310  11.956 -1.2616  0.0357 -1.8411
 2703TIP3   OH229599   1.322   0.385   6.758 -0.0032 -0.0965  0.1259
 2703TIP3    H129600   1.318   0.464   6.703 -0.7171  0.3288  0.7574
 2703TIP3    H229601   1.257   0.326   6.720  0.0139 -0.0912  0.0882
 2704TIP3   OH229602   6.289   6.416   0.617 -0.0515 -0.4337 -0.2992
 2704TIP3    H129603   6.251   6.350   0.676  0.6452 -0.5354  0.0414
 2704TIP3    H229604   6.308   6.491   0.675 -0.3505 -0.1279 -0.5905
 2705TIP3   OH229605   3.480   4.242   1.083 -0.3009  0.7669 -0.0106
 2705TIP3    H129606   3.441   4.170   1.132  1.9522  0.0579  0.8969
 2705TIP3    H229607   3.459   4.225   0.992  0.6921 -1.4489  0.1204
 2706TIP3   OH229608   0.739   4.975   1.148 -0.1126  0.2054 -0.1506
 2706TIP3    H129609   0.778   5.060   1.167 -1.6193  0.8637  0.1394
 2706TIP3    H229610   0.798   4.912   1.190 -0.3223  1.2848  1.9078
 2707TIP3   OH229611   3.757   0.942  16.603  0.0372 -0.1218 -0.7265
 2707TIP3    H129612   3.837   0.899  16.573 -0.1193 -1.1945  0.3311
 2707TIP3    H229613   3.788   1.015  16.657  0.3353 -1.1950  0.6031
 2708TIP3   OH229614   3.475   1.596  13.888  0.4838 -0.1705  0.2623
 2708TIP3    H129615   3.570   1.597  13.879  0.6862 -0.2376  2.0599
 2708TIP3    H229616   3.451   1.689  13.894  0.6342 -0.1908  1.3861
 2709TIP3   OH229617   0.827   3.529   0.843 -0.2159 -0.0684  0.8510
 2709TIP3    H129618   0.889   3.580   0.895  0.2822 -1.0108  1.2090
 2709TIP3    H229619   0.800   3.458   0.902 -0.6937 -0.3730  0.2742
 2710TIP3   OH229620   0.180   5.167   2.774 -0.0642  0.0090 -0.1284
 2710TIP3    H129621   0.182   5.075   2.747 -1.3839 -0.4713  1.2333
 2710TIP3    H229622   0.102   5.203   2.731  0.2918  0.4155 -0.4350
 2711TIP3   OH229623   5.387   2.396  11.821  0.3103  0.4432  0.2217
 2711TIP3    H129624   5.471   2.441  11.820  0.6884 -0.1899 -1.8132
 2711TIP3    H229625   5.326   2.459  11.781  0.0121  0.5536  0.8412
 2712TIP3   OH229626   0.711   0.618   0.030  0.5783 -0.1062 -0.2667
 2712TIP3    H129627   0.666   0.638   0.112 -1.3755  0.4322 -1.3897
 2712TIP3    H229628   0.718   0.523   0.028  0.7636 -0.1207  0.5511
 2713TIP3   OH229629   1.422   0.172   5.673 -0.1283 -0.9809  0.0415
 2713TIP3    H129630   1.510   0.188   5.707  0.0608 -0.8532 -0.4982
 2713TIP3    H229631   1.426   0.083   5.638 -0.6217 -1.5099  1.2784
 2714TIP3   OH229632   3.062   4.428  12.367  0.3279 -0.0123  0.3967
 2714TIP3    H129633   3.063   4.341  12.407 -1.2255 -0.1052  0.3140
 2714TIP3    H229634   3.136   4.428  12.307  0.6433 -1.1021  0.7578
 2715TIP3   OH229635   0.842   1.660  14.641  0.1986  0.2576  0.0179
 2715TIP3    H129636   0.772   1.594  14.647  1.2098 -0.8159  0.4941
 2715TIP3    H229637   0.811   1.732  14.696 -1.1115  0.3669 -0.8215
 2716TIP3   OH229638   0.975   5.641  15.456  0.2412  0.6166  0.2081
 2716TIP3    H129639   1.047   5.580  15.471 -0.5590 -0.1174  1.2562
 2716TIP3    H229640   1.014   5.715  15.410  1.3104 -0.5292 -0.8024
 2717TIP3   OH229641   4.558   1.023  12.269  0.1343  0.0411  0.4965
 2717TIP3    H129642   4.600   1.071  12.340 -0.8073 -1.9458  2.5171
 2717TIP3    H229643   4.484   1.078  12.244 -0.5638  0.0093  2.3247
 2718TIP3   OH229644   0.969   0.518   0.235  0.2129  0.5748  0.1189
 2718TIP3    H129645   0.914   0.515   0.156 -0.5202  2.7084  0.4902
 2718TIP3    H229646   1.058   0.523   0.202  0.1771 -1.5849 -0.5005
 2719TIP3   OH229647   3.512   1.834  15.929 -0.6489 -0.1381  0.3571
 2719TIP3    H129648   3.575   1.862  15.996  0.1521 -1.7825  0.3468
 2719TIP3    H229649   3.450   1.778  15.977 -2.3618  1.7135  0.4340
 2720TIP3   OH229650   3.993   5.821  13.929 -0.1327  0.2111 -0.1235
 2720TIP3    H129651   4.041   5.761  13.870 -0.1527 -0.4701  0.5388
 2720TIP3    H229652   3.901   5.810  13.904 -0.2108 -0.6099  0.4997
 2721TIP3   OH229653   2.174   6.675  13.704 -0.5393  0.2753  0.6779
 2721TIP3    H129654   2.215   6.674  13.617 -1.6002  0.6384  0.1574
 2721TIP3    H229655   2.170   6.768  13.728  0.6670  0.1168  1.5831
 2722TIP3   OH229656   1.013   1.814   4.330 -0.3470  0.4264 -0.1009
 2722TIP3    H129657   1.043   1.814   4.421 -0.7052 -0.1383  0.0214
 2722TIP3    H229658   1.072   1.753   4.285 -2.5184 -2.3919  0.5782
 2723TIP3   OH229659   4.162   4.820   3.503  0.4618  0.4059  0.1907
 2723TIP3    H129660   4.231   4.765   3.467 -0.9463 -0.4268 -1.3954
 2723TIP3    H229661   4.171   4.810   3.598  2.7826  0.7477  0.0650
 2724TIP3   OH229662   6.606   3.572  13.053  0.3359  0.2489  0.0700
 2724TIP3    H129663   6.516   3.565  13.021 -0.1907  0.4791  1.3999
 2724TIP3    H229664   6.641   3.484  13.046  0.2590  0.2942 -1.1201
 2725TIP3   OH229665   3.991   5.576  12.461  0.3844 -0.9430  0.0092
 2725TIP3    H129666   3.980   5.632  12.384  2.2529  0.3054  0.5837
 2725TIP3    H229667   3.931   5.503  12.446 -0.4092  0.0205 -1.8981
 2726TIP3   OH229668   5.592   4.682  11.840 -0.8481 -0.4183  0.8717
 2726TIP3    H129669   5.632   4.768  11.829 -1.9844 -0.0726 -0.9441
 2726TIP3    H229670   5.638   4.626  11.778 -3.1923  0.0351 -1.4095
 2727TIP3   OH229671   6.126   4.062   5.642  0.1189 -0.0735  0.4325
 2727TIP3    H129672   6.156   3.977   5.608  0.5144 -0.5636  1.9526
 2727TIP3    H229673   6.039   4.044   5.676  0.1787  0.1453  0.6992
 2728TIP3   OH229674   0.838   2.005   5.994  0.0346  0.0569  0.2726
 2728TIP3    H129675   0.776   1.941   5.958 -0.9630  0.6951  0.7972
 2728TIP3    H229676   0.887   1.955   6.059 -1.0241 -0.1042  0.9833
 2729TIP3   OH229677   4.956   4.654   2.899  0.3794 -0.2724  0.2543
 2729TIP3    H129678   5.008   4.597   2.842  0.0906 -0.8231  0.5365
 2729TIP3    H229679   4.876   4.671   2.849  1.4038  1.7778 -0.8175
 2730TIP3   OH229680   2.867   6.012   0.114  0.6939 -0.0043 -0.2072
 2730TIP3    H129681   2.826   6.071   0.050  1.5102  0.9979  0.1566
 2730TIP3    H229682   2.821   5.929   0.103 -0.3166  0.6212 -0.9255
 2731TIP3   OH229683   2.571   5.476  11.462  0.1670  0.1499 -0.4935
 2731TIP3    H129684   2.633   5.409  11.493  1.7464  2.4896  1.7823
 2731TIP3    H229685   2.612   5.511  11.383  0.7802  0.3206 -0.1107
 2732TIP3   OH229686   0.094   4.973  13.245 -1.2690 -0.5425  0.2605
 2732TIP3    H129687   0.097   5.063  13.213  1.7121 -0.8483 -0.5955
 2732TIP3    H229688   0.132   4.977  13.332 -2.3942 -0.8337  0.7903
 2733TIP3   OH229689   2.158   3.600  16.253  0.4684  0.2104 -0.2462
 2733TIP3    H129690   2.165   3.571  16.162 -0.7536 -0.2541 -0.2107
 2733TIP3    H229691   2.110   3.682  16.249  1.9811  1.1396 -0.1483
 2734TIP3   OH229692   3.049   6.632   3.574 -0.2344  0.1902  0.1001
 2734TIP3    H129693   3.126   6.581   3.548  0.5646  1.5806 -0.3940
 2734TIP3    H229694   2.985   6.567   3.601  0.9897 -1.0266  0.1801
 2735TIP3   OH229695   0.928   4.225   0.698 -0.0169 -0.2969  0.6848
 2735TIP3    H129696   0.899   4.185   0.616 -1.0905 -0.8214  1.3098
 2735TIP3    H229697   1.024   4.217   0.696 -0.1413 -1.9078  0.2911
 2736TIP3   OH229698   3.304   4.562  14.636 -0.1105  0.4122 -0.6624
 2736TIP3    H129699   3.242   4.574  14.708  1.2654  1.3276  0.4360
 2736TIP3    H229700   3.343   4.648  14.624  2.5390 -0.5587  0.2347
 2737TIP3   OH229701   4.975   6.697   3.077 -0.3865 -0.1452 -0.2824
 2737TIP3    H129702   4.903   6.729   3.024  0.4660  2.9483  0.2146
 2737TIP3    H229703   4.978   6.756   3.152  1.8905 -0.9484  0.3540
 2738TIP3   OH229704   2.221   2.405  13.435  0.5640  0.0712 -0.7030
 2738TIP3    H129705   2.138   2.416  13.480  0.1221  0.6015 -1.6255
 2738TIP3    H229706   2.248   2.494  13.413  1.7985 -0.0213  0.3139
 2739TIP3   OH229707   4.544   0.297  11.812 -0.4097 -0.3087 -0.9022
 2739TIP3    H129708   4.541   0.360  11.885  0.4370  0.0740 -1.1843
 2739TIP3    H229709   4.512   0.347  11.736  2.4021  0.5550 -1.6348
 2740TIP3   OH229710   6.835   0.654  12.281  0.4035  0.6323  0.3095
 2740TIP3    H129711   6.913   0.609  12.315  0.2553  0.9014  1.0141
 2740TIP3    H229712   6.836   0.739  12.324  0.6049  1.2775 -0.9098
 2741TIP3   OH229713   5.640   1.524  15.178 -0.3883  0.3149 -0.4214
 2741TIP3    H129714   5.591   1.501  15.257 -0.5988 -0.3735 -0.7417
 2741TIP3    H229715   5.573   1.550  15.115 -0.1021  2.8561  0.2257
 2742TIP3   OH229716   6.790   1.015  13.416 -0.2689 -0.3001 -0.5991
 2742TIP3    H129717   6.854   1.013  13.488  0.4356  1.2466 -1.1421
 2742TIP3    H229718   6.740   0.934  13.427  1.1674 -1.1075  0.4108
 2743TIP3   OH229719   4.182   3.376   1.351  0.0341  0.5422  0.2194
 2743TIP3    H129720   4.123   3.327   1.294  0.1201  1.4516 -0.6766
 2743TIP3    H229721   4.213   3.311   1.415  1.1337 -0.8983 -1.6904
 2744TIP3   OH229722   2.112   0.904  13.263  0.0628  0.0945 -0.0958
 2744TIP3    H129723   2.140   0.924  13.174  0.4308  1.4519  0.3032
 2744TIP3    H229724   2.127   0.985  13.312 -0.2543 -0.5851  1.1733
 2745TIP3   OH229725   6.769   0.995   6.198 -0.3727  0.1997  0.4336
 2745TIP3    H129726   6.848   1.048   6.211 -0.2808  0.1400  0.1171
 2745TIP3    H229727   6.743   0.969   6.287 -1.4553  2.2498  0.7965
 2746TIP3   OH229728   1.829   1.435  15.574  0.0256 -0.5830  0.4911
 2746TIP3    H129729   1.734   1.438  15.577 -0.1134  1.9127 -2.2280
 2746TIP3    H229730   1.850   1.402  15.487  1.6262  0.1038  0.5686
 2747TIP3   OH229731   4.807   3.791   1.701  0.8020  0.7944  0.4824
 2747TIP3    H129732   4.762   3.711   1.730  1.4238  1.2517  2.9192
 2747TIP3    H229733   4.887   3.759   1.659  0.2188  0.1125 -0.1514
 2748TIP3   OH229734   3.722   6.264  12.371  0.2122 -0.1600 -0.0366
 2748TIP3    H129735   3.817   6.279  12.374  0.0378  0.9709 -0.0571
 2748TIP3    H229736   3.685   6.346  12.342 -0.7284 -0.8801 -0.9338
 2749TIP3   OH229737   5.334   3.676   0.879 -0.1088 -0.0350 -0.1669
 2749TIP3    H129738   5.300   3.635   0.799  0.5794 -1.1480  0.0932
 2749TIP3    H229739   5.414   3.721   0.851  0.8226 -1.4799  0.1088
 2750TIP3   OH229740   5.016   0.046  14.260  0.4463 -0.2817 -0.2548
 2750TIP3    H129741   4.936   0.053  14.312 -0.0812  1.4088 -1.2078
 2750TIP3    H229742   5.067   0.124  14.282  1.5138 -0.9752 -0.1959
 2751TIP3   OH229743   5.249   5.042  11.559  0.0113 -0.2310  0.0617
 2751TIP3    H129744   5.275   4.951  11.572 -1.4904 -0.9794 -1.7656
 2751TIP3    H229745   5.274   5.062  11.469  0.6353  1.3003  0.5468
 2752TIP3   OH229746   4.363   3.987  15.329 -0.5590 -0.2142  0.2103
 2752TIP3    H129747   4.368   3.976  15.234 -2.0491 -0.7605  0.1691
 2752TIP3    H229748   4.425   3.924  15.365 -0.2797 -0.2787 -0.3874
 2753TIP3   OH229749   3.357   6.626   0.499  0.7270 -0.7169 -0.1184
 2753TIP3    H129750   3.368   6.712   0.459 -1.0718 -0.3994 -0.0138
 2753TIP3    H229751   3.321   6.571   0.429  3.1684 -1.8359 -0.6096
 2754TIP3   OH229752   3.039   6.494   6.141 -0.0737 -0.4909  0.0036
 2754TIP3    H129753   3.026   6.472   6.049  0.9700  0.4668 -0.3959
 2754TIP3    H229754   3.117   6.445   6.166  0.8533  0.8070 -0.2241
 2755TIP3   OH229755   4.158   2.451  14.631 -0.9604 -0.0350  0.3265
 2755TIP3    H129756   4.211   2.468  14.709 -1.7537 -2.8116  1.5743
 2755TIP3    H229757   4.199   2.504  14.563  1.6220  0.1841  1.9062
 2756TIP3   OH229758   5.071   0.951  11.069 -0.2516  0.4612  0.3985
 2756TIP3    H129759   5.018   0.958  10.990 -0.5405  2.1453  0.7190
 2756TIP3    H229760   5.157   0.984  11.044 -0.7681  2.5068  1.1372
 2757TIP3   OH229761   3.196   4.818  11.435 -0.3632  0.4398  0.7595
 2757TIP3    H129762   3.270   4.799  11.378 -0.1117  1.9199  0.5446
 2757TIP3    H229763   3.148   4.736  11.441  0.3817 -0.1056 -0.4456
 2758TIP3   OH229764   4.278   5.165   5.354  0.2863 -0.3176  0.3063
 2758TIP3    H129765   4.291   5.086   5.407  0.9554 -0.1169  0.4545
 2758TIP3    H229766   4.367   5.191   5.328  0.0015 -0.1309 -0.5057
 2759TIP3   OH229767   1.501   3.256   5.414 -0.3852 -0.1290  0.3875
 2759TIP3    H129768   1.410   3.282   5.430 -0.8927 -2.5231  1.8734
 2759TIP3    H229769   1.519   3.284   5.324 -3.0332 -0.7028 -0.3965
 2760TIP3   OH229770   4.849   3.866  12.390  0.3950 -0.0714  0.1115
 2760TIP3    H129771   4.870   3.786  12.342 -0.1212 -0.5389  0.6587
 2760TIP3    H229772   4.928   3.921  12.381  0.4838 -0.3412 -0.8638
 2761TIP3   OH229773   2.623   6.740  15.944 -0.1882  0.4190  0.2377
 2761TIP3    H129774   2.687   6.812  15.939 -0.6260  0.7583 -1.2014
 2761TIP3    H229775   2.540   6.784  15.964 -0.1045  0.0609  1.4017
 2762TIP3   OH229776   5.802   2.796  13.244 -0.6953  0.3645  0.6835
 2762TIP3    H129777   5.875   2.735  13.238 -0.8591  0.3145 -1.5605
 2762TIP3    H229778   5.724   2.740  13.252 -0.5895  0.3994  2.1964
 2763TIP3   OH229779   6.517   2.134   2.902  0.0129  0.3852  0.0338
 2763TIP3    H129780   6.594   2.080   2.888 -0.3425  0.2562 -1.6670
 2763TIP3    H229781   6.467   2.089   2.969 -0.1244 -1.2671 -1.1267
 2764TIP3   OH229782   0.944   3.170   5.936  0.4823 -0.2024 -0.5654
 2764TIP3    H129783   0.985   3.191   6.020  2.4252 -0.8119 -1.2957
 2764TIP3    H229784   0.924   3.077   5.941 -1.0495  0.1286 -0.1494
 2765TIP3   OH229785   4.042   2.613   4.039  0.3589  0.1568 -0.3314
 2765TIP3    H129786   4.017   2.556   3.967  0.7828  0.6969 -0.9221
 2765TIP3    H229787   3.959   2.639   4.079 -0.0233  1.2245 -1.7178
 2766TIP3   OH229788   4.950   5.777   5.434 -0.4687 -0.2899  0.9139
 2766TIP3    H129789   4.940   5.701   5.490  0.3047  0.4014  2.0162
 2766TIP3    H229790   4.939   5.852   5.492  1.1438  0.4522  0.3264
 2767TIP3   OH229791   4.966   0.027  16.926 -0.4135 -0.3210 -0.1694
 2767TIP3    H129792   5.026   0.057  16.995  0.0708  0.4280 -0.8962
 2767TIP3    H229793   4.894  -0.013  16.974 -0.0885  0.1785  0.7822
 2768TIP3   OH229794   4.813   1.060  14.937  0.4348 -0.0705  0.6999
 2768TIP3    H129795   4.767   1.012  15.006 -0.0797  0.5770  0.8199
 2768TIP3    H229796   4.751   1.128  14.910  0.6728 -0.2354 -0.3159
 2769TIP3   OH229797   1.634   1.870  14.257  0.4082 -0.7112 -0.2393
 2769TIP3    H129798   1.630   1.779  14.288 -0.7015 -0.2266  1.1256
 2769TIP3    H229799   1.590   1.868  14.172  0.1414 -1.3933 -0.0913
 2770TIP3   OH229800   0.153   0.357  13.082 -0.8318 -0.1111  0.5159
 2770TIP3    H129801   0.099   0.388  13.009 -1.9209  0.3081  1.4766
 2770TIP3    H229802   0.243   0.378  13.056 -1.0811 -1.0089 -1.2095
 2771TIP3   OH229803   2.406   2.487   3.632 -0.5053 -0.3146  0.1491
 2771TIP3    H129804   2.347   2.563   3.634 -0.2296 -0.0969 -0.0111
 2771TIP3    H229805   2.369   2.430   3.565 -0.1727  0.1128 -0.4000
 2772TIP3   OH229806   3.584   6.746  16.849  0.0949 -0.1038  0.1103
 2772TIP3    H129807   3.679   6.738  16.859  0.2046  1.7290  0.9526
 2772TIP3    H229808   3.565   6.835  16.878 -1.8304 -0.2781 -0.5262
 2773TIP3   OH229809   4.262   4.343   1.170  0.0680 -0.0551 -0.0448
 2773TIP3    H129810   4.197   4.409   1.195  0.5589  0.1155  0.7840
 2773TIP3    H229811   4.340   4.393   1.147  0.8661 -0.3810  1.8259
 2774TIP3   OH229812   3.665   1.062  14.152 -0.2082 -0.5431 -0.2155
 2774TIP3    H129813   3.655   0.967  14.145 -2.0206 -0.4478  0.4280
 2774TIP3    H229814   3.582   1.092  14.188 -0.3173  1.4792 -1.9520
 2775TIP3   OH229815   1.752   5.353   2.513  0.4001  0.2763  0.1159
 2775TIP3    H129816   1.814   5.335   2.583  1.1115  1.6281 -0.1433
 2775TIP3    H229817   1.806   5.358   2.434 -0.2947 -0.4335 -0.4218
 2776TIP3   OH229818   5.315   2.317   0.711  0.1238 -0.1462 -0.5785
 2776TIP3    H129819   5.289   2.408   0.721 -0.0220 -0.1493 -0.9142
 2776TIP3    H229820   5.315   2.282   0.800  2.7901  0.8736 -0.1051
 2777TIP3   OH229821   1.291   0.646  15.318 -0.2798 -0.1832 -0.1521
 2777TIP3    H129822   1.356   0.623  15.384  0.1634  0.7199 -0.2560
 2777TIP3    H229823   1.324   0.727  15.279 -1.1189 -0.0808 -0.6810
 2778TIP3   OH229824   6.596   2.788   0.775 -0.0291 -0.2302 -0.0384
 2778TIP3    H129825   6.572   2.880   0.770  0.5686 -0.1267 -1.8649
 2778TIP3    H229826   6.655   2.775   0.701 -1.6855 -2.5302 -1.0746
 2779TIP3   OH229827   2.695   2.984  14.657  0.2354  0.2133 -0.1895
 2779TIP3    H129828   2.788   3.007  14.654 -0.0192  1.2484 -1.1135
 2779TIP3    H229829   2.693   2.889  14.651  1.2013  0.2739 -2.2040
 2780TIP3   OH229830   2.866   5.687   3.977  0.7117 -0.8104  0.6456
 2780TIP3    H129831   2.934   5.730   3.926 -0.2318  1.7946  1.4020
 2780TIP3    H229832   2.913   5.638   4.045  1.8582 -1.2572 -0.4502
 2781TIP3   OH229833   2.526   0.001  14.583 -0.0869  0.1494 -0.6041
 2781TIP3    H129834   2.572  -0.042  14.655  0.2235  2.3146  0.5579
 2781TIP3    H229835   2.583  -0.012  14.507  2.2991  2.2448  0.6749
 2782TIP3   OH229836   1.989   1.977   1.030 -0.6262 -0.2948  0.3394
 2782TIP3    H129837   1.912   1.927   1.005 -0.6465 -0.6838  1.1515
 2782TIP3    H229838   2.029   2.003   0.947 -1.3782 -0.4736 -0.0864
 2783TIP3   OH229839   5.197   5.640  13.185  0.5158  0.1071  0.9190
 2783TIP3    H129840   5.126   5.598  13.137  1.0612 -0.4819  0.6052
 2783TIP3    H229841   5.271   5.581  13.173  1.3513  1.2351  0.3542
 2784TIP3   OH229842   0.176   2.104   3.052 -0.2383  0.3477  0.1657
 2784TIP3    H129843   0.187   2.044   2.979  0.7867  0.5416  0.1459
 2784TIP3    H229844   0.233   2.178   3.032  1.4729 -0.3898  1.9791
 2785TIP3   OH229845   0.352   1.264   1.919 -0.5198 -0.6928 -0.3391
 2785TIP3    H129846   0.333   1.354   1.947 -1.4150 -0.7759 -0.6574
 2785TIP3    H229847   0.440   1.269   1.883 -0.3755 -0.0382  0.0669
 2786TIP3   OH229848   5.519   4.203   3.183 -0.5206  0.2761  0.8226
 2786TIP3    H129849   5.463   4.132   3.213 -1.2278  0.8301  0.8454
 2786TIP3    H229850   5.529   4.260   3.259  0.5329 -0.0915  0.9767
 2787TIP3   OH229851   6.000   3.261  13.140 -0.2086 -0.4803 -0.3022
 2787TIP3    H129852   6.075   3.308  13.106  0.4276 -1.8014 -0.8008
 2787TIP3    H229853   5.975   3.308  13.220  0.0360  0.9949 -1.0618
 2788TIP3   OH229854   1.746   2.575   1.950  0.1591  0.4502  1.0330
 2788TIP3    H129855   1.736   2.492   1.995  0.6984  0.5978  1.4319
 2788TIP3    H229856   1.727   2.555   1.858  2.0745 -0.5060  0.8052
 2789TIP3   OH229857   5.047   0.762   4.943  0.3927  0.2030 -0.3700
 2789TIP3    H129858   5.046   0.833   5.008  0.6010 -0.8843  0.8464
 2789TIP3    H229859   5.033   0.682   4.993  2.3222 -0.8747 -1.4105
 2790TIP3   OH229860   1.373   6.731   0.856 -0.0965  0.1107 -0.0086
 2790TIP3    H129861   1.329   6.657   0.813  0.2770  0.1554 -0.4719
 2790TIP3    H229862   1.465   6.719   0.835  0.3534 -0.9000  2.3277
 2791TIP3   OH229863   0.422   1.772   2.600 -0.1994 -0.6070 -0.2295
 2791TIP3    H129864   0.485   1.767   2.527 -0.0414 -1.2520 -0.0484
 2791TIP3    H229865   0.368   1.694   2.591 -2.0397  0.6954 -1.3219
 2792TIP3   OH229866   6.284   1.002  16.570 -0.1811 -0.3166  0.0773
 2792TIP3    H129867   6.362   1.040  16.530 -0.3705 -0.1287 -0.1142
 2792TIP3    H229868   6.306   0.996  16.663  0.2487 -0.7248 -0.0409
 2793TIP3   OH229869   5.764   3.826  10.914 -0.0847  0.5040 -0.0553
 2793TIP3    H129870   5.778   3.800  10.823 -1.0585  2.3426 -0.7962
 2793TIP3    H229871   5.717   3.909  10.908  0.2416  0.9155  2.1350
 2794TIP3   OH229872   5.430   3.355   5.115  1.0433 -0.1635 -0.4546
 2794TIP3    H129873   5.376   3.377   5.039  0.9644 -1.0366 -0.6618
 2794TIP3    H229874   5.373   3.300   5.169  0.9689  0.7461  0.4355
 2795TIP3   OH229875   0.800   6.442  15.761  0.2066 -0.0276 -0.5807
 2795TIP3    H129876   0.867   6.448  15.694  1.5735  0.0789  0.7534
 2795TIP3    H229877   0.810   6.354  15.798 -2.3107 -1.1540 -2.2423
 2796TIP3   OH229878   1.340   3.965  16.851  0.0089 -0.2828  0.3773
 2796TIP3    H129879   1.290   4.006  16.780  0.9226 -1.8130 -1.2252
 2796TIP3    H229880   1.430   3.990  16.833  0.1774 -0.0567  1.4803
 2797TIP3   OH229881   4.856   2.150   5.857  0.2441 -0.2704 -0.1632
 2797TIP3    H129882   4.779   2.154   5.913  0.3254 -0.9288 -0.0009
 2797TIP3    H229883   4.902   2.232   5.874  0.9991 -1.0562  1.7805
 2798TIP3   OH229884   6.375   2.119  13.274  0.2747  0.4135  0.3322
 2798TIP3    H129885   6.436   2.096  13.344 -0.2238 -2.5235 -0.0665
 2798TIP3    H229886   6.403   2.067  13.199 -1.3531  0.7220 -0.5416
 2799TIP3   OH229887   1.534   5.627   4.675 -0.1334 -0.7045  0.7324
 2799TIP3    H129888   1.597   5.571   4.630  0.0289 -1.4554  1.8573
 2799TIP3    H229889   1.581   5.709   4.690 -0.5921  0.0275 -1.5260
 2800TIP3   OH229890   3.457   0.276   2.425 -0.3777  0.2723  0.4821
 2800TIP3    H129891   3.451   0.285   2.330  2.2760  0.7225  0.2982
 2800TIP3    H229892   3.425   0.360   2.459 -1.6804 -0.0222  0.0530
 2801TIP3   OH229893   4.859   1.106   5.519 -0.2075 -0.6828  0.3377
 2801TIP3    H129894   4.776   1.061   5.502 -0.4325 -0.4729  0.8458
 2801TIP3    H229895   4.853   1.132   5.611 -0.5888  1.4210 -0.2148
 2802TIP3   OH229896   6.385   0.505   5.504 -0.3897  0.5930  0.3113
 2802TIP3    H129897   6.298   0.503   5.464 -1.2481 -0.2143  2.1102
 2802TIP3    H229898   6.429   0.578   5.461 -1.5450  0.3354 -1.4279
 2803TIP3   OH229899   6.567   6.751   1.690 -0.6122 -0.5339 -0.6283
 2803TIP3    H129900   6.542   6.828   1.640 -1.6386  0.3656  1.1614
 2803TIP3    H229901   6.484   6.709   1.712 -0.2497 -0.5060  0.8722
 2804TIP3   OH229902   5.686   5.280  14.781  0.2303 -0.3185 -0.5723
 2804TIP3    H129903   5.651   5.364  14.812  0.1623  0.0287 -1.5408
 2804TIP3    H229904   5.737   5.303  14.703 -1.1489 -1.3438 -1.8426
 2805TIP3   OH229905   6.253   6.182  16.345  0.0164 -0.0523  0.0705
 2805TIP3    H129906   6.162   6.204  16.325 -0.6109 -2.3910 -0.0547
 2805TIP3    H229907   6.291   6.160  16.260 -0.4708 -2.7131  0.4339
 2806TIP3   OH229908   0.926   4.604   3.657  0.3351  0.2229 -0.2057
 2806TIP3    H129909   1.006   4.619   3.709  1.1688 -1.6888 -0.8701
 2806TIP3    H229910   0.957   4.592   3.568 -1.1316  4.0589 -1.4355
 2807TIP3   OH229911   2.551   4.697  16.783 -0.2411  0.0251 -0.2207
 2807TIP3    H129912   2.589   4.671  16.700 -0.6024 -0.8706 -0.1203
 2807TIP3    H229913   2.560   4.793  16.786 -1.2340  0.2014 -1.7861
 2808TIP3   OH229914   4.590   2.467   1.282  0.0327  0.2254 -0.3962
 2808TIP3    H129915   4.519   2.432   1.336  2.0153 -2.8183  0.4526
 2808TIP3    H229916   4.608   2.554   1.320 -3.9463  1.7380 -1.4832
 2809TIP3   OH229917   2.819   4.067   0.119  0.3341  0.1084 -0.0376
 2809TIP3    H129918   2.832   4.044   0.211 -0.8045  0.4529  0.2238
 2809TIP3    H229919   2.767   4.147   0.121 -2.5444 -1.5937 -0.9559
 2810TIP3   OH229920   3.746   5.892   1.926 -0.0808  0.1844 -0.2827
 2810TIP3    H129921   3.766   5.907   1.833 -0.8073  3.7079 -0.0068
 2810TIP3    H229922   3.656   5.860   1.925 -0.2033  0.5223 -0.7998
 2811TIP3   OH229923   1.555   2.590  12.262 -0.6451  0.1978  0.3628
 2811TIP3    H129924   1.528   2.672  12.221 -1.0116  0.6894  1.5352
 2811TIP3    H229925   1.608   2.546  12.196  1.1692  2.2344  0.3385
 2812TIP3   OH229926   4.199   5.044   4.287 -0.6237 -0.5009  0.1487
 2812TIP3    H129927   4.251   4.964   4.283 -0.0463 -0.1652  0.7537
 2812TIP3    H229928   4.262   5.115   4.274 -0.8903 -0.0834  1.0514
 2813TIP3   OH229929   5.557   5.068   3.410 -0.0005  0.5721  0.2708
 2813TIP3    H129930   5.603   5.144   3.374 -0.4100  0.6710 -0.0555
 2813TIP3    H229931   5.465   5.081   3.384  0.1536 -0.7778 -1.1038
 2814TIP3   OH229932   5.148   6.193   1.883 -0.2999  0.6702  0.0080
 2814TIP3    H129933   5.177   6.268   1.934  0.7615  0.1703  0.1712
 2814TIP3    H229934   5.141   6.226   1.793  0.3714  0.9191  0.0423
 2815TIP3   OH229935   3.689   6.614   2.946  0.0377 -0.1565  0.1839
 2815TIP3    H129936   3.672   6.674   3.019  0.4984  1.9068 -1.3106
 2815TIP3    H229937   3.620   6.634   2.882  1.0995 -0.0758 -0.9873
 2816TIP3   OH229938   5.197   5.118   3.070  0.5710 -0.3845  0.2670
 2816TIP3    H129939   5.262   5.160   3.127  0.1203  1.0062 -0.1967
 2816TIP3    H229940   5.240   5.038   3.040  1.2629 -0.5452  1.6135
 2817TIP3   OH229941   0.989   0.508   5.247  0.4349  0.1525 -0.0452
 2817TIP3    H129942   1.057   0.502   5.314  0.3730 -1.2176 -0.0818
 2817TIP3    H229943   0.915   0.550   5.291  1.2841  1.6863 -0.0151
 2818TIP3   OH229944   6.521   0.459  13.393  0.1583 -0.2108 -0.3773
 2818TIP3    H129945   6.506   0.535  13.448  1.8843  0.9680 -1.4524
 2818TIP3    H229946   6.489   0.485  13.306 -0.1154 -1.0819 -0.5559
 2819TIP3   OH229947   5.521   6.759  11.874 -0.0173 -0.1866 -0.0090
 2819TIP3    H129948   5.528   6.796  11.962  2.1436 -1.7536  0.5523
 2819TIP3    H229949   5.505   6.835  11.817 -2.7781  0.7474  1.7693
 2820TIP3   OH229950   4.327   0.887   4.153 -0.0659 -0.0929 -0.4521
 2820TIP3    H129951   4.329   0.893   4.057  0.6664  0.5119 -0.4101
 2820TIP3    H229952   4.344   0.795   4.172  0.6012 -0.0654 -0.8886
 2821TIP3   OH229953   2.065   0.964   3.541  0.4672  0.0529 -0.1328
 2821TIP3    H129954   2.122   1.009   3.479  0.3484  0.6562  0.1814
 2821TIP3    H229955   2.097   0.874   3.543  1.0877  0.2668 -0.3321
 2822TIP3   OH229956   3.264   6.020  11.434 -0.0779 -0.5843  0.4169
 2822TIP3    H129957   3.323   6.096  11.440 -2.3780  1.4355 -0.5530
 2822TIP3    H229958   3.322   5.944  11.437  2.6357  1.2501 -1.1225
 2823TIP3   OH229959   5.178   2.082   0.780  0.3266 -0.0743 -0.2110
 2823TIP3    H129960   5.176   2.170   0.743  1.2445 -0.6459 -1.6801
 2823TIP3    H229961   5.252   2.040   0.738  0.4692 -1.2749  1.1582
 2824TIP3   OH229962   4.479   2.114  17.187  0.5378  0.0185  0.2780
 2824TIP3    H129963   4.435   2.132  17.270  0.0504  0.8785 -0.1522
 2824TIP3    H229964   4.414   2.137  17.120  0.9637 -0.5429 -0.3432
 2825TIP3   OH229965   5.573   1.232  12.034  0.0156 -0.0981 -0.4875
 2825TIP3    H129966   5.594   1.233  11.940  0.5441 -1.2667 -0.3967
 2825TIP3    H229967   5.491   1.280  12.040  0.9834  1.7921 -1.2742
 2826TIP3   OH229968   6.300   1.520   4.354 -0.3035  0.2068 -0.2355
 2826TIP3    H129969   6.386   1.532   4.314 -0.7250  3.9188 -0.3631
 2826TIP3    H229970   6.318   1.518   4.448 -0.0300  1.3154 -0.2428
 2827TIP3   OH229971   3.227   0.869   1.255 -0.4149  0.6425 -0.5168
 2827TIP3    H129972   3.155   0.896   1.198 -0.7151  2.3204  0.5713
 2827TIP3    H229973   3.195   0.887   1.344  0.8851  0.2518  0.0535
 2828TIP3   OH229974   1.021   2.251   4.714  0.0493 -0.0598  0.0654
 2828TIP3    H129975   1.036   2.165   4.674  1.3627  0.1674  0.0310
 2828TIP3    H229976   1.049   2.240   4.804 -1.6340 -0.1899  0.6051
 2829TIP3   OH229977   2.296   2.914  16.077  0.3804  0.0579  0.3936
 2829TIP3    H129978   2.388   2.889  16.085  0.3839 -0.1068 -0.1101
 2829TIP3    H229979   2.284   2.983  16.142  1.6239  2.2208 -1.5081
 2830TIP3   OH229980   0.858   5.481  17.060 -0.0604  0.3359  0.6978
 2830TIP3    H129981   0.762   5.480  17.061 -0.0758 -1.1239  0.9521
 2830TIP3    H229982   0.881   5.521  16.976 -0.8984  0.2782  0.4288
 2831TIP3   OH229983   4.690   4.899   5.593 -0.0413  0.1393  0.1445
 2831TIP3    H129984   4.661   4.986   5.617  0.0808  1.3659 -3.5131
 2831TIP3    H229985   4.627   4.870   5.527  1.0761 -1.6701 -0.2020
 2832TIP3   OH229986   0.938   3.696   2.008 -0.2736 -0.2569 -0.3123
 2832TIP3    H129987   0.890   3.659   1.934 -0.3860  0.2358 -0.4886
 2832TIP3    H229988   0.961   3.620   2.062 -2.4348 -0.4283  0.4882
 2833TIP3   OH229989   3.713   1.408  16.400 -0.0688  0.2346  0.2213
 2833TIP3    H129990   3.774   1.452  16.341  0.2173  0.0792  0.3994
 2833TIP3    H229991   3.688   1.476  16.464 -1.3556  0.7676 -0.7990
 2834TIP3   OH229992   5.812   6.699  14.193 -0.5202 -0.5041 -0.6646
 2834TIP3    H129993   5.890   6.667  14.238 -0.8589 -0.7717 -0.2581
 2834TIP3    H229994   5.772   6.759  14.256 -2.0370 -2.3412  0.1776
 2835TIP3   OH229995   1.863   1.104   0.072 -0.3647 -0.3779  0.2935
 2835TIP3    H129996   1.876   1.080   0.164 -2.9822  0.6504  1.0193
 2835TIP3    H229997   1.951   1.113   0.037  0.7234 -0.2255  2.8599
 2836TIP3   OH229998   5.344   4.177   3.536 -0.1256  0.0015  0.1122
 2836TIP3    H129999   5.426   4.128   3.539 -0.5037 -0.9953 -2.5688
 2836TIP3    H230000   5.276   4.110   3.525 -1.0955  0.9134  0.3546
 2837TIP3   OH230001   2.659   1.688   4.609 -0.3415 -0.1030 -0.2879
 2837TIP3    H130002   2.620   1.775   4.616  1.4035  0.8469 -1.7174
 2837TIP3    H230003   2.663   1.657   4.700 -0.9794  1.2910  0.2542
 2838TIP3   OH230004   4.898   1.843  12.092  0.3875  0.4676  0.0037
 2838TIP3    H130005   4.915   1.859  11.999  0.1221 -0.4775 -0.2210
 2838TIP3    H230006   4.864   1.753  12.095  1.7051 -0.0271  1.1736
 2839TIP3   OH230007   4.221   5.494  12.763 -0.0678 -0.0884 -0.4634
 2839TIP3    H130008   4.282   5.464  12.831  0.1319 -0.9053 -0.9831
 2839TIP3    H230009   4.253   5.581  12.740 -1.4634  1.1963  2.0477
 2840TIP3   OH230010   0.170   3.645   6.396 -0.7988  0.1161  0.2423
 2840TIP3    H130011   0.127   3.722   6.358 -0.8532 -0.6548 -1.3505
 2840TIP3    H230012   0.222   3.679   6.469 -1.3628  1.5500 -0.0006
 2841TIP3   OH230013   2.861   6.811  15.438  0.0802 -0.3589  0.3399
 2841TIP3    H130014   2.878   6.761  15.517 -0.2387 -0.5756  0.2768
 2841TIP3    H230015   2.844   6.900  15.468  3.6026  0.4692  0.2400
 2842TIP3   OH230016   5.862   2.402   3.575  0.1423 -0.0984 -0.4085
 2842TIP3    H130017   5.816   2.325   3.542 -0.9886  1.0548 -1.6006
 2842TIP3    H230018   5.934   2.415   3.514  1.0227 -0.8349  0.4335
 2843TIP3   OH230019   1.338   1.829  15.052  0.4633  0.5966  0.2970
 2843TIP3    H130020   1.417   1.830  15.106  1.2844  2.3334 -0.8535
 2843TIP3    H230021   1.325   1.920  15.026 -2.2088  0.4411  0.8081
 2844TIP3   OH230022   1.197   3.526  12.622 -0.4674  0.1792 -0.4671
 2844TIP3    H130023   1.115   3.567  12.651 -0.2979 -0.3249  0.8137
 2844TIP3    H230024   1.171   3.439  12.592 -0.2431 -0.5815  1.4232
 2845TIP3   OH230025   5.914   0.100   6.516  0.0596 -0.2214  0.3256
 2845TIP3    H130026   6.006   0.083   6.537 -0.5929 -3.9375  0.9497
 2845TIP3    H230027   5.881   0.152   6.589  1.4555  0.4825  0.4828
 2846TIP3   OH230028   2.837   5.688  14.937  0.0383 -0.3693 -0.2208
 2846TIP3    H130029   2.769   5.628  14.969  1.0631 -1.5144 -0.1299
 2846TIP3    H230030   2.822   5.769  14.986 -2.3206  0.0120 -1.4275
 2847TIP3   OH230031   6.300   4.301  16.854 -0.1840  0.2908  0.1427
 2847TIP3    H130032   6.209   4.332  16.851 -0.0992  0.4918 -0.4604
 2847TIP3    H230033   6.295   4.210  16.824 -0.0427  0.6529 -1.0159
 2848TIP3   OH230034   6.666   5.531   0.486  0.4405 -0.2273  0.2692
 2848TIP3    H130035   6.627   5.530   0.573  0.6302 -0.6033  0.3510
 2848TIP3    H230036   6.592   5.525   0.426  0.1680  1.6737  0.3441
 2849TIP3   OH230037   5.551   6.002   1.008  0.3710 -0.1671 -0.1067
 2849TIP3    H130038   5.570   6.055   0.930 -2.8598  2.4148  0.6349
 2849TIP3    H230039   5.508   5.924   0.973 -0.7105  0.7809 -0.9639
 2850TIP3   OH230040   0.670   6.733   0.771  0.1005  0.0590 -0.1173
 2850TIP3    H130041   0.592   6.787   0.781  0.0702 -0.1816  1.0162
 2850TIP3    H230042   0.741   6.787   0.807  0.3190 -0.0777 -0.3377
 2851TIP3   OH230043   6.672   5.936  16.389  0.2790 -0.0656  0.5459
 2851TIP3    H130044   6.626   6.020  16.380  0.1341  0.2886  3.4162
 2851TIP3    H230045   6.721   5.945  16.471  0.2700 -2.7662  0.9353
 2852TIP3   OH230046   6.795   6.188  16.704  0.1283  0.5874  0.8770
 2852TIP3    H130047   6.859   6.225  16.764  1.4084  2.7146 -1.5836
 2852TIP3    H230048   6.837   6.108  16.671  1.0946  1.4130  0.0606
 2853TIP3   OH230049   1.357   5.773   5.023 -0.6024  0.1517  0.1595
 2853TIP3    H130050   1.357   5.681   5.047 -0.1983 -0.2041 -1.1155
 2853TIP3    H230051   1.328   5.819   5.102 -2.3562 -1.1657  0.3257
 2854TIP3   OH230052   1.679   4.573  14.778 -0.3129  0.5343 -0.6306
 2854TIP3    H130053   1.584   4.580  14.787 -0.5702 -1.9803 -0.7565
 2854TIP3    H230054   1.698   4.611  14.692 -1.4994 -0.6631 -1.4687
 2855TIP3   OH230055   5.140   0.834  13.768  0.2396  0.4189  0.4244
 2855TIP3    H130056   5.160   0.921  13.733 -0.2118  1.6190  2.9418
 2855TIP3    H230057   5.210   0.817  13.831  0.2815 -1.0417  0.0099
 2856TIP3   OH230058   4.191   5.980  12.909  0.1918 -0.4263 -0.6642
 2856TIP3    H130059   4.246   5.943  12.978 -0.8206 -1.4424 -0.3576
 2856TIP3    H230060   4.106   5.993  12.951 -0.2963 -0.5795 -1.5718
 2857TIP3   OH230061   1.760   5.090   0.609  0.1561 -0.0774  0.2413
 2857TIP3    H130062   1.742   5.007   0.564 -0.2359  0.8000 -1.2770
 2857TIP3    H230063   1.680   5.109   0.658 -0.1786 -0.0488 -0.3080
 2858TIP3   OH230064   4.064   3.045  14.241 -0.4599 -0.5684 -0.0319
 2858TIP3    H130065   4.158   3.056  14.226 -0.4549 -2.0534 -1.3815
 2858TIP3    H230066   4.024   3.125  14.205  0.2748  0.0818  0.5766
 2859TIP3   OH230067   3.468   2.557   2.249 -0.1144  0.1256 -0.6378
 2859TIP3    H130068   3.522   2.614   2.193 -1.6757  1.6078 -0.7262
 2859TIP3    H230069   3.436   2.615   2.318  1.0715 -1.4797  1.3669
 2860TIP3   OH230070   1.008   6.362  13.370  0.7025  0.6436  0.0075
 2860TIP3    H130071   1.034   6.450  13.395 -1.1079  2.0053 -2.4113
 2860TIP3    H230072   1.090   6.315  13.356  1.7342  2.4655 -0.2789
 2861TIP3   OH230073   0.839   3.158  12.978  0.5359 -0.2150 -0.0901
 2861TIP3    H130074   0.773   3.145  12.910 -0.6767  2.3752  0.4476
 2861TIP3    H230075   0.922   3.160  12.930 -0.1895  0.5396 -1.3938
 2862TIP3   OH230076   0.902   5.950   3.579 -0.2102 -0.5783  0.1266
 2862TIP3    H130077   0.866   6.033   3.547 -3.4481 -1.8648  0.0796
 2862TIP3    H230078   0.963   5.923   3.511  0.9612  1.7130  0.1490
 2863TIP3   OH230079   1.027   5.991  16.652 -0.2132  0.6374 -0.3822
 2863TIP3    H130080   0.964   6.034  16.595 -0.0298  0.9967 -0.3158
 2863TIP3    H230081   0.979   5.916  16.689 -0.6924  1.0850 -0.0922
 2864TIP3   OH230082   3.744   6.791   4.335 -0.4272  0.1748 -0.0463
 2864TIP3    H130083   3.798   6.869   4.345 -2.3430  1.5172  0.4744
 2864TIP3    H230084   3.796   6.721   4.374  1.3383  1.1666 -0.5013
 2865TIP3   OH230085   5.768   5.208   3.244  0.3088  0.4697  0.5541
 2865TIP3    H130086   5.809   5.294   3.242  0.1136  0.6040  1.8902
 2865TIP3    H230087   5.811   5.162   3.316  0.2208 -0.4620  0.0318
 2866TIP3   OH230088   2.419   2.448  12.058  0.0897 -0.0672 -0.0604
 2866TIP3    H130089   2.475   2.517  12.022  0.1838 -0.4328 -0.6208
 2866TIP3    H230090   2.467   2.418  12.135 -1.3243  2.4955  1.9965
 2867TIP3   OH230091   2.123   5.580   2.327 -0.2508  0.3095 -0.1697
 2867TIP3    H130092   2.195   5.637   2.352 -0.6844  0.7527  0.0841
 2867TIP3    H230093   2.074   5.567   2.407 -0.2989 -0.2218 -0.2806
 2868TIP3   OH230094   3.655   3.887   2.360 -0.2509 -0.6798  0.1677
 2868TIP3    H130095   3.715   3.821   2.326 -1.9098 -1.4075 -1.4936
 2868TIP3    H230096   3.568   3.852   2.342 -1.1919  1.4638  0.2791
 2869TIP3   OH230097   3.615   2.750   3.820 -0.0430  0.4594  0.0237
 2869TIP3    H130098   3.684   2.713   3.765  1.3607  2.8607  0.0175
 2869TIP3    H230099   3.623   2.705   3.904  0.8148 -0.0560 -0.3303
 2870TIP3   OH230100   1.306   4.229  16.593  0.0330 -0.1792 -0.1851
 2870TIP3    H130101   1.374   4.264  16.534  0.4341  0.9906  0.9260
 2870TIP3    H230102   1.245   4.184  16.535  0.8468  0.2336 -1.4030
 2871TIP3   OH230103   0.361   6.032   0.441 -0.0293  0.7652 -0.0773
 2871TIP3    H130104   0.269   6.007   0.434  0.2166 -0.3021  0.3178
 2871TIP3    H230105   0.402   5.991   0.365  0.5882 -1.0766  1.1956
 2872TIP3   OH230106   2.944   0.495  15.464  0.0407  0.3063  0.8893
 2872TIP3    H130107   3.031   0.467  15.436 -0.1005  0.8469 -0.1182
 2872TIP3    H230108   2.902   0.414  15.495  0.9103  0.0557  1.4362
 2873TIP3   OH230109   2.421   0.169  16.144  0.3122  0.0462 -0.3131
 2873TIP3    H130110   2.414   0.147  16.051 -0.2953 -0.8417 -0.0721
 2873TIP3    H230111   2.336   0.145  16.180  0.2973  1.0740  0.3387
 2874TIP3   OH230112   3.222   3.111  13.814  0.4065  0.6400  0.0564
 2874TIP3    H130113   3.208   3.109  13.719 -2.3605 -0.8883  0.3789
 2874TIP3    H230114   3.171   3.037  13.847 -0.9071  2.6608  2.9966
 2875TIP3   OH230115   6.272   5.226  16.155  0.1494 -0.3216  0.2518
 2875TIP3    H130116   6.317   5.306  16.128  2.1918 -1.3249  0.4808
 2875TIP3    H230117   6.182   5.236  16.123  0.3847  1.9920  0.1929
 2876TIP3   OH230118   5.324   1.408  16.534 -0.0932  0.2297  0.0289
 2876TIP3    H130119   5.237   1.366  16.532 -0.3620  0.7741 -1.2419
 2876TIP3    H230120   5.385   1.337  16.553 -0.5768 -0.6979 -1.6862
 2877TIP3   OH230121   5.835   4.538  15.404  0.2387  0.5054  0.2487
 2877TIP3    H130122   5.846   4.605  15.471 -0.1527 -0.7657  1.6550
 2877TIP3    H230123   5.904   4.474  15.422  0.4450  0.3852 -0.8940
 2878TIP3   OH230124   6.411   2.301   5.409  0.2135  0.3790  0.2564
 2878TIP3    H130125   6.463   2.377   5.437 -1.8029  2.5828 -1.5033
 2878TIP3    H230126   6.347   2.289   5.478 -1.1957  2.1838 -0.6249
 2879TIP3   OH230127   0.061   6.217   3.141 -0.1398  0.0312  0.4122
 2879TIP3    H130128   0.053   6.311   3.128 -1.3117 -0.1245 -0.1019
 2879TIP3    H230129   0.109   6.186   3.064 -1.7390 -0.0744 -0.5805
 2880TIP3   OH230130   5.196   0.011   0.126  0.2838 -0.1026  0.1362
 2880TIP3    H130131   5.146   0.042   0.202  2.5195 -0.4361  1.8671
 2880TIP3    H230132   5.268  -0.039   0.164  2.0870  0.5669 -2.1526
 2881TIP3   OH230133   2.093   0.594   6.014  0.1481  0.2441  0.0721
 2881TIP3    H130134   2.072   0.562   6.102 -0.5068 -0.7473 -0.4222
 2881TIP3    H230135   2.082   0.689   6.019  1.6022  0.3843  1.4509
 2882TIP3   OH230136   1.619   4.019  16.787 -0.1141 -0.1947 -0.2830
 2882TIP3    H130137   1.693   3.959  16.801  0.5069  0.2487 -1.5139
 2882TIP3    H230138   1.653   4.085  16.726 -0.2118  2.4571  2.3353
 2883TIP3   OH230139   4.320   5.525   1.899  0.7231  0.0559  0.4063
 2883TIP3    H130140   4.378   5.459   1.937 -0.7648 -0.0658  2.6417
 2883TIP3    H230141   4.309   5.498   1.808  2.0757 -1.3587  0.6253
 2884TIP3   OH230142   6.203   4.634  12.537  0.1728  0.0012  0.2266
 2884TIP3    H130143   6.143   4.695  12.579  0.6626  0.4310  0.3108
 2884TIP3    H230144   6.280   4.686  12.516  1.3785 -0.9652  1.9654
 2885TIP3   OH230145   0.853   2.522  14.939 -0.2468  0.2616 -0.4349
 2885TIP3    H130146   0.797   2.596  14.914  0.1276  0.7913  0.2831
 2885TIP3    H230147   0.828   2.452  14.878  1.2123  1.7377 -2.9321
 2886TIP3   OH230148   2.340   0.573  16.850 -0.0711 -0.0340 -0.2626
 2886TIP3    H130149   2.381   0.559  16.764  0.5330 -1.6378  0.2459
 2886TIP3    H230150   2.347   0.488  16.893 -1.6767  0.3592  0.8353
 2887TIP3   OH230151   3.423   4.356  14.841 -0.2949  0.2226  0.2004
 2887TIP3    H130152   3.426   4.451  14.824  0.8706  0.4688  1.5516
 2887TIP3    H230153   3.511   4.335  14.871 -0.4056 -1.4155 -0.5593
 2888TIP3   OH230154   6.174   0.801  14.236 -0.3237 -0.4576 -0.3995
 2888TIP3    H130155   6.226   0.747  14.295 -1.4156 -0.6225  0.4669
 2888TIP3    H230156   6.097   0.747  14.217 -0.7869  0.2671 -0.6067
 2889TIP3   OH230157   1.463   3.192   2.688 -0.3823  0.4271  0.3041
 2889TIP3    H130158   1.472   3.283   2.659 -2.0631  0.7639  0.7217
 2889TIP3    H230159   1.374   3.187   2.724  0.5439 -0.7074  2.6892
 2890TIP3   OH230160   0.138   6.532  14.552  0.0589  0.0797  0.5366
 2890TIP3    H130161   0.149   6.467  14.622  0.0581 -0.3662  0.1252
 2890TIP3    H230162   0.136   6.616  14.598  0.6327 -0.1642  1.0246
 2891TIP3   OH230163   0.912   1.540  10.844  0.3510 -0.5298  0.3846
 2891TIP3    H130164   0.989   1.596  10.834 -0.7304  0.9786  0.1121
 2891TIP3    H230165   0.859   1.558  10.767 -1.1746 -0.0556  1.4996
 2892TIP3   OH230166   0.584   6.169   0.699  0.1391 -0.5841 -0.0567
 2892TIP3    H130167   0.656   6.170   0.637  0.3155 -1.3659  0.1338
 2892TIP3    H230168   0.581   6.259   0.733  0.6812 -0.4123 -0.4485
 2893TIP3   OH230169   6.533   3.530   4.977 -0.0408 -0.4277 -0.0760
 2893TIP3    H130170   6.517   3.614   4.934  0.5849 -0.4406 -0.3477
 2893TIP3    H230171   6.585   3.481   4.913 -1.1293 -1.3470 -0.2840
 2894TIP3   OH230172   4.038   1.132   1.679  0.1465  0.3662  0.8093
 2894TIP3    H130173   4.026   1.226   1.664 -0.0120  0.8350  3.4242
 2894TIP3    H230174   3.989   1.090   1.608 -0.4941  2.2526  0.0764
 2895TIP3   OH230175   5.276   0.238   1.309 -0.0897 -0.3306 -0.0884
 2895TIP3    H130176   5.370   0.219   1.310 -0.3689 -2.2175 -2.2209
 2895TIP3    H230177   5.239   0.174   1.248 -2.5314  1.4430 -0.6133
 2896TIP3   OH230178   4.542   2.401  11.779 -0.5270  0.4174  0.0933
 2896TIP3    H130179   4.504   2.313  11.783  2.4196 -1.0675 -1.6285
 2896TIP3    H230180   4.497   2.443  11.706  0.1985 -0.8450 -1.1210
 2897TIP3   OH230181   4.077   1.585  12.051  0.2331 -0.1452 -0.4219
 2897TIP3    H130182   4.079   1.572  12.146  0.7870  0.7289 -0.3002
 2897TIP3    H230183   3.988   1.615  12.033  1.0906  3.3238  0.3857
 2898TIP3   OH230184   0.022   1.158   0.369 -0.3127 -0.3172 -0.0049
 2898TIP3    H130185   0.038   1.115   0.285 -2.4488  1.0385 -1.2078
 2898TIP3    H230186   0.103   1.203   0.388 -0.1124  0.2683 -1.9575
 2899TIP3   OH230187   2.938   4.327  16.116 -0.5608 -0.4069 -0.7112
 2899TIP3    H130188   2.869   4.282  16.164 -1.1089  0.1131 -0.9941
 2899TIP3    H230189   2.964   4.266  16.047  1.8584 -2.1546  1.5688
 2900TIP3   OH230190   4.755   4.787  13.800  0.6346 -0.4884  0.0413
 2900TIP3    H130191   4.663   4.777  13.773  0.2060 -0.7170  1.5011
 2900TIP3    H230192   4.803   4.791  13.718 -0.6499 -0.7006 -0.7588
 2901TIP3   OH230193   0.484   2.039   5.088 -0.3831 -0.6241  0.1736
 2901TIP3    H130194   0.484   1.943   5.083  1.1838 -0.6607  0.2754
 2901TIP3    H230195   0.397   2.061   5.120 -0.6594 -2.0411  0.4864
 2902TIP3   OH230196   3.194   2.275  13.609 -0.0469 -0.0057 -0.2557
 2902TIP3    H130197   3.130   2.302  13.543  0.9366 -1.7285 -2.0164
 2902TIP3    H230198   3.148   2.211  13.662 -0.6854  1.0093  0.4573
 2903TIP3   OH230199   4.468   5.254  15.361 -0.7182 -0.4104 -0.0145
 2903TIP3    H130200   4.419   5.334  15.342  1.0715  0.6957 -0.1512
 2903TIP3    H230201   4.478   5.212  15.276  0.9223  0.7913 -0.4623
 2904TIP3   OH230202   4.492   6.715   4.034 -0.9067 -0.4897 -0.1981
 2904TIP3    H130203   4.455   6.629   4.014 -2.3960 -0.1556  0.9363
 2904TIP3    H230204   4.496   6.718   4.130  1.5286 -0.2369 -0.2283
 2905TIP3   OH230205   3.617   4.917  11.298  0.6265 -0.6732  0.1761
 2905TIP3    H130206   3.648   4.891  11.385  0.4619 -0.1134  0.4072
 2905TIP3    H230207   3.697   4.940  11.250  0.7087 -0.8778  0.2143
 2906TIP3   OH230208   3.535   2.581   4.020  0.1032  0.5741  0.2126
 2906TIP3    H130209   3.617   2.533   4.037 -0.6378 -0.3848  1.2791
 2906TIP3    H230210   3.490   2.528   3.955 -0.5332  0.0105  1.0879
 2907TIP3   OH230211   6.378   3.328  16.778  0.0974  0.0075 -0.3837
 2907TIP3    H130212   6.333   3.322  16.693 -2.7679  0.8291  0.9646
 2907TIP3    H230213   6.353   3.415  16.811  0.5699 -0.5807  1.5984
 2908TIP3   OH230214   1.633   4.244  14.069  0.2305 -0.4910  0.2244
 2908TIP3    H130215   1.601   4.234  13.979  1.0096 -2.0270  0.0795
 2908TIP3    H230216   1.580   4.314  14.106 -1.1433 -0.8516 -0.9660
 2909TIP3   OH230217   5.691   4.110  13.421  0.4201 -0.5537 -0.2218
 2909TIP3    H130218   5.686   4.016  13.404 -2.5982 -0.0877 -2.8763
 2909TIP3    H230219   5.610   4.131  13.468  1.0659  0.7327  0.3921
 2910TIP3   OH230220   5.044   1.079   3.222 -0.7002 -0.1363  0.4989
 2910TIP3    H130221   5.121   1.095   3.277 -1.5124  0.3053  1.5546
 2910TIP3    H230222   5.045   1.151   3.159  0.2941 -0.6995 -0.1680
 2911TIP3   OH230223   1.126   4.618   1.552 -0.2012 -0.1746 -0.1260
 2911TIP3    H130224   1.041   4.575   1.548 -2.0748  3.2284 -1.5285
 2911TIP3    H230225   1.113   4.689   1.616  0.9822  1.4052 -1.5544
 2912TIP3   OH230226   0.113   5.790  14.233  0.6193  0.8789  0.0477
 2912TIP3    H130227   0.179   5.827  14.291 -0.0325  0.0862  1.3405
 2912TIP3    H230228   0.033   5.790  14.285 -0.0278  0.3218 -0.9272
 2913TIP3   OH230229   0.729   1.060  12.861 -0.2561  0.1259  0.5447
 2913TIP3    H130230   0.761   0.976  12.829 -1.8008 -0.5170  0.6158
 2913TIP3    H230231   0.791   1.124  12.825  0.6346 -0.9728  0.0466
 2914TIP3   OH230232   0.370   2.179   1.841 -0.1696  0.5237  0.2429
 2914TIP3    H130233   0.465   2.178   1.830 -0.3427  1.0971 -1.7215
 2914TIP3    H230234   0.335   2.177   1.751 -1.9944  1.0579  0.8861
 2915TIP3   OH230235   2.566   6.386  16.953 -0.2591  0.4351  0.2391
 2915TIP3    H130236   2.597   6.356  17.038 -1.8324 -0.4416  0.5564
 2915TIP3    H230237   2.614   6.333  16.890 -1.6467 -1.5674  0.7419
 2916TIP3   OH230238   5.657   0.102  14.818  0.1487  0.5042  0.0021
 2916TIP3    H130239   5.693   0.020  14.783 -1.0227 -0.0468  0.0668
 2916TIP3    H230240   5.732   0.162  14.819  1.6482 -1.2098  2.1278
 2917TIP3   OH230241   0.737   4.032   6.835  0.3778  0.1307  0.2495
 2917TIP3    H130242   0.680   4.097   6.793  0.3916  0.6616  1.0276
 2917TIP3    H230243   0.801   4.009   6.768  0.7464  1.3774  0.1572
 2918TIP3   OH230244   4.104   4.110   4.831  0.2623 -0.4591 -0.0646
 2918TIP3    H130245   4.050   4.043   4.871  0.2721 -0.2533  0.2963
 2918TIP3    H230246   4.163   4.062   4.772  0.6151 -0.8178  0.5746
 2919TIP3   OH230247   3.102   2.850  11.571 -0.0017 -0.5225  0.2599
 2919TIP3    H130248   3.137   2.882  11.655 -1.7169  0.2446  0.7198
 2919TIP3    H230249   3.172   2.795  11.536  0.9978 -0.3818  1.9089
 2920TIP3   OH230250   1.335   0.316  12.651 -0.4358  0.2391  0.2185
 2920TIP3    H130251   1.390   0.340  12.576  0.1319  1.5508  1.0103
 2920TIP3    H230252   1.333   0.221  12.650 -0.4198  0.2260 -1.4452
 2921TIP3   OH230253   2.466   6.682  11.450  0.7076  0.3173 -0.0491
 2921TIP3    H130254   2.500   6.599  11.481 -0.5392  0.3167  1.4008
 2921TIP3    H230255   2.378   6.662  11.418  0.5876  0.9936 -0.1633
 2922TIP3   OH230256   1.967   3.029   2.361  0.0971  0.1318  0.4779
 2922TIP3    H130257   2.054   3.018   2.323  0.4267 -1.2871  1.5624
 2922TIP3    H230258   1.907   3.022   2.286  0.8075 -1.1905 -0.0023
 2923TIP3   OH230259   1.320   4.859  11.750  0.0445 -0.0574 -0.3704
 2923TIP3    H130260   1.240   4.814  11.723 -0.2655  0.5688 -0.4996
 2923TIP3    H230261   1.355   4.897  11.670 -0.3934  1.0314 -0.0614
 2924TIP3   OH230262   6.726   2.034   1.783 -0.4739 -0.0303  0.0241
 2924TIP3    H130263   6.662   2.067   1.846  1.6446  1.9625  1.2684
 2924TIP3    H230264   6.804   2.015   1.835  0.7088 -0.2608 -1.7358
 2925TIP3   OH230265   2.541   5.003   0.064 -0.3953  0.4006 -0.2797
 2925TIP3    H130266   2.579   5.004  -0.024 -3.7862  0.3318 -1.9231
 2925TIP3    H230267   2.562   5.089   0.100 -0.0364  0.9343 -1.7010
 2926TIP3   OH230268   2.626   2.062  17.082  0.0685 -0.2725 -0.3256
 2926TIP3    H130269   2.610   2.130  17.148 -1.9777 -0.9956  0.0229
 2926TIP3    H230270   2.692   2.099  17.024 -0.0836  1.4963  0.5611
 2927TIP3   OH230271   5.602   1.588   4.719  0.3148 -0.4458  0.4125
 2927TIP3    H130272   5.672   1.555   4.776  0.5156  0.8798  0.9807
 2927TIP3    H230273   5.645   1.608   4.636  0.5238 -0.1250  0.5930
 2928TIP3   OH230274   1.158   0.928   4.839  0.1088 -0.4884 -0.5144
 2928TIP3    H130275   1.149   0.911   4.933  0.3081  2.0631  0.0358
 2928TIP3    H230276   1.213   1.005   4.834 -1.2289  0.4000 -2.6532
 2929TIP3   OH230277   6.684   2.161  14.864 -0.2657  0.3218 -0.3688
 2929TIP3    H130278   6.671   2.095  14.932 -1.5943  2.0569  1.1918
 2929TIP3    H230279   6.595   2.186  14.838  0.1763  1.7714 -0.5984
 2930TIP3   OH230280   5.247   4.021   2.468  0.0188  0.4567 -0.3037
 2930TIP3    H130281   5.181   4.032   2.399 -1.4725  0.1247  1.0157
 2930TIP3    H230282   5.299   3.946   2.441 -0.2556  0.6070 -1.2780
 2931TIP3   OH230283   4.732   4.236  15.125 -0.1944  0.5141 -0.1226
 2931TIP3    H130284   4.700   4.246  15.036 -2.1737  0.1668  0.4899
 2931TIP3    H230285   4.729   4.142  15.141  2.1378  0.3609 -0.3350
 2932TIP3   OH230286   2.785   5.425  11.964  0.1033 -0.0687  0.4465
 2932TIP3    H130287   2.864   5.374  11.949  0.1324 -0.1378  0.8378
 2932TIP3    H230288   2.725   5.398  11.894 -1.1733 -3.2324  2.5301
 2933TIP3   OH230289   1.554   5.165  12.173 -0.1572 -0.5975 -0.4540
 2933TIP3    H130290   1.459   5.157  12.162 -0.5600 -0.5965  2.2046
 2933TIP3    H230291   1.585   5.075  12.183 -0.2400 -0.5232  0.6827
 2934TIP3   OH230292   6.357   3.509  15.303 -0.4090  0.4392  0.6928
 2934TIP3    H130293   6.317   3.447  15.242  0.8602 -0.5834  0.8575
 2934TIP3    H230294   6.451   3.501  15.288 -0.1771  1.7781  1.2670
 2935TIP3   OH230295   6.597   1.821   1.649  0.6030  0.2932 -0.0468
 2935TIP3    H130296   6.636   1.899   1.687  0.1228  0.5493 -0.0748
 2935TIP3    H230297   6.594   1.838   1.555  1.2006 -0.0781 -0.1412
 2936TIP3   OH230298   2.979   3.137  14.038 -0.7589 -0.0566 -0.1133
 2936TIP3    H130299   3.053   3.079  14.019  0.4929  1.1057  0.9059
 2936TIP3    H230300   2.930   3.092  14.107  0.9427  0.5725  1.6308
 2937TIP3   OH230301   5.488   0.063  14.233 -0.0525  0.0007  0.0601
 2937TIP3    H130302   5.582   0.071  14.247  0.2043 -1.5728 -0.5905
 2937TIP3    H230303   5.474   0.094  14.144 -0.3883  1.5542  0.6157
 2938TIP3   OH230304   5.051   4.696   5.296 -0.1983  0.5553 -0.3178
 2938TIP3    H130305   5.117   4.671   5.360 -1.6162 -3.6195 -0.1879
 2938TIP3    H230306   4.970   4.700   5.347 -1.2347 -2.1727 -1.5531
 2939TIP3   OH230307   2.205   2.543  15.527  0.2287 -0.5079  0.1928
 2939TIP3    H130308   2.154   2.614  15.487  2.2150  0.5195 -0.6571
 2939TIP3    H230309   2.269   2.588  15.582  1.6587 -1.6029 -0.5127
 2940TIP3   OH230310   4.457   4.067   5.364  0.3939 -0.2397 -0.2508
 2940TIP3    H130311   4.405   3.989   5.383  1.2751 -1.0093 -0.9078
 2940TIP3    H230312   4.452   4.078   5.269  0.1406  0.6048 -0.1456
 2941TIP3   OH230313   5.319   2.039   3.664  0.1762 -0.1607  0.5486
 2941TIP3    H130314   5.371   1.988   3.727 -2.3194 -0.4865  2.5277
 2941TIP3    H230315   5.297   1.976   3.595  0.1758 -0.7843  1.0980
 2942TIP3   OH230316   1.284   3.798  15.586 -0.1628 -0.1724 -0.1551
 2942TIP3    H130317   1.261   3.820  15.676  2.4663  0.8345  0.3414
 2942TIP3    H230318   1.202   3.767  15.548 -1.9093  1.6044  1.8806
 2943TIP3   OH230319   2.092   0.157  14.612  0.1182 -0.7105  0.0414
 2943TIP3    H130320   2.170   0.136  14.561  1.1726 -2.2170  2.1129
 2943TIP3    H230321   2.115   0.237  14.659 -0.2824 -0.1615 -0.6835
 2944TIP3   OH230322   3.278   2.832  10.657 -0.4096 -0.3222 -0.3034
 2944TIP3    H130323   3.271   2.754  10.602 -1.3926  0.3608 -1.1936
 2944TIP3    H230324   3.215   2.894  10.620  1.3608  1.4635 -0.5408
 2945TIP3   OH230325   2.363   3.203  11.782 -0.2393  0.4460 -0.1341
 2945TIP3    H130326   2.388   3.144  11.854  1.3526  1.0062 -0.1852
 2945TIP3    H230327   2.310   3.271  11.824 -0.1052  0.2626  0.3441
 2946TIP3   OH230328   0.048   4.383   2.634 -0.0800  0.2731 -0.0312
 2946TIP3    H130329  -0.043   4.355   2.619  0.5635 -1.4328 -1.1221
 2946TIP3    H230330   0.068   4.351   2.723 -0.4270  0.2932  0.0559
 2947TIP3   OH230331   0.292   1.741  13.696  0.2340 -0.4403 -0.3436
 2947TIP3    H130332   0.241   1.820  13.679  0.8773 -0.2053 -1.2973
 2947TIP3    H230333   0.269   1.682  13.623  1.1675 -0.3969 -0.6892
 2948TIP3   OH230334   0.793   0.641   5.403 -0.1334  0.5889  0.2964
 2948TIP3    H130335   0.826   0.654   5.492 -0.1539 -0.8380  0.5425
 2948TIP3    H230336   0.705   0.606   5.415 -0.1422  0.4094 -0.2829
 2949TIP3   OH230337   1.412   5.775   2.631 -0.3746 -0.1214 -0.2256
 2949TIP3    H130338   1.361   5.855   2.646 -1.6882 -0.5634 -2.0835
 2949TIP3    H230339   1.443   5.782   2.541  0.3476 -1.2635 -0.0882
 2950TIP3   OH230340   4.457   5.465   1.127  0.0185 -0.4309  0.2588
 2950TIP3    H130341   4.409   5.448   1.046  2.3493 -0.3474 -1.2258
 2950TIP3    H230342   4.519   5.535   1.104  0.8952 -0.5586  2.0400
 2951TIP3   OH230343   1.091   3.551   0.089  0.1367  0.3396 -0.4165
 2951TIP3    H130344   1.079   3.632   0.139 -0.0628 -0.3623  0.7106
 2951TIP3    H230345   1.167   3.569   0.033  0.3841  1.1519  0.1553
 2952TIP3   OH230346   6.235   2.609  16.745 -0.1446 -0.3819  0.1355
 2952TIP3    H130347   6.273   2.668  16.680 -0.3296 -0.2122  0.1813
 2952TIP3    H230348   6.147   2.589  16.711 -0.3165 -0.1345  0.4302
 2953TIP3   OH230349   2.293   3.203  15.860  0.3275 -0.2044  0.3803
 2953TIP3    H130350   2.303   3.289  15.902 -0.1266 -0.6752  1.5124
 2953TIP3    H230351   2.234   3.155  15.919  0.3531 -1.1963 -0.3808
 2954TIP3   OH230352   1.895   4.969  12.923  0.0758 -0.3764  0.2586
 2954TIP3    H130353   1.837   4.917  12.978 -1.4598 -1.3210 -2.0759
 2954TIP3    H230354   1.876   5.060  12.947 -0.3593 -0.7577  1.4183
 2955TIP3   OH230355   4.167   1.804   4.906  0.1808 -0.2990 -0.1520
 2955TIP3    H130356   4.249   1.777   4.864  0.2017  0.4178 -0.5876
 2955TIP3    H230357   4.139   1.727   4.955  2.5862  0.2223  2.3515
 2956TIP3   OH230358   6.073   6.225   1.885  0.1693 -0.2386 -0.6348
 2956TIP3    H130359   6.053   6.318   1.887 -1.0663 -0.4463 -2.0733
 2956TIP3    H230360   6.057   6.195   1.975 -0.3777  0.7251 -0.3993
 2957TIP3   OH230361   3.235   3.057  14.440 -0.4057 -0.5499  0.6519
 2957TIP3    H130362   3.221   2.962  14.433  0.7820 -0.6609 -0.7898
 2957TIP3    H230363   3.311   3.073  14.384 -2.0215  1.6021 -1.1131
 2958TIP3   OH230364   2.165   4.579   2.532  0.5018 -0.0582  0.5197
 2958TIP3    H130365   2.180   4.499   2.482  0.0607  0.6539 -0.7866
 2958TIP3    H230366   2.226   4.643   2.495 -0.1991  0.6273  0.5129
 2959TIP3   OH230367   5.027   4.190   6.469  0.2098 -0.5706  0.0084
 2959TIP3    H130368   4.968   4.209   6.542 -0.0167  0.0792 -0.3330
 2959TIP3    H230369   4.977   4.217   6.391  1.1817  0.5386 -0.2481
 2960TIP3   OH230370   1.354   6.355  12.649  0.4882 -0.1597  0.2050
 2960TIP3    H130371   1.290   6.346  12.578  2.5569 -1.1854 -1.6551
 2960TIP3    H230372   1.420   6.415  12.614  1.4124 -0.4692  1.3769
 2961TIP3   OH230373   2.111   5.707  14.275  0.2464  0.4073 -0.4700
 2961TIP3    H130374   2.157   5.624  14.261  0.0823  0.2521 -0.0987
 2961TIP3    H230375   2.168   5.773  14.234  0.2388  0.0847 -1.0170
 2962TIP3   OH230376   2.602   1.339   4.515  0.0954  0.4030 -0.1768
 2962TIP3    H130377   2.649   1.319   4.434  0.8048 -1.1444  0.5773
 2962TIP3    H230378   2.547   1.414   4.492 -2.1857 -1.8708 -3.0491
 2963TIP3   OH230379   4.759   1.035   1.842 -0.5310 -0.3617 -0.0178
 2963TIP3    H130380   4.754   0.973   1.915  1.3831 -0.1277  0.3513
 2963TIP3    H230381   4.829   1.000   1.786 -0.0251  0.9916 -0.2556
 2964TIP3   OH230382   3.962   6.039  15.299  0.1590 -0.0355  0.0635
 2964TIP3    H130383   3.981   5.968  15.238 -0.1990 -0.6906  0.6986
 2964TIP3    H230384   4.048   6.070  15.328  0.3138 -0.2177 -0.1967
 2965TIP3   OH230385   6.008   6.288  16.504  0.1546 -0.4767 -0.1091
 2965TIP3    H130386   5.998   6.195  16.482 -1.9547 -0.9862  2.4010
 2965TIP3    H230387   5.982   6.293  16.597 -0.5167  2.7240 -0.3439
 2966TIP3   OH230388   4.241   1.133   3.370 -0.0664 -0.5527  0.0430
 2966TIP3    H130389   4.243   1.192   3.295  0.0369  1.5042  1.5935
 2966TIP3    H230390   4.327   1.092   3.371  0.4797  0.5608 -0.0838
 2967TIP3   OH230391   4.340   1.320  13.497  0.0680 -0.4588 -0.5851
 2967TIP3    H130392   4.427   1.288  13.521  0.7894  0.6396 -1.6730
 2967TIP3    H230393   4.332   1.300  13.404 -0.9880 -0.8404 -0.4228
 2968TIP3   OH230394   1.813   5.396   4.825 -0.3350 -0.2901 -0.2000
 2968TIP3    H130395   1.770   5.385   4.910  1.3014 -0.4400  0.6487
 2968TIP3    H230396   1.781   5.323   4.772 -1.2131 -0.3155  0.3440
 2969TIP3   OH230397   2.419   3.415  17.185 -0.0571 -0.1501 -0.1880
 2969TIP3    H130398   2.352   3.381  17.126 -0.1714  0.2108 -0.2728
 2969TIP3    H230399   2.443   3.500  17.147  1.1443 -0.7009 -0.6913
 2970TIP3   OH230400   3.588   0.457   2.007 -0.0211 -0.2431  0.0322
 2970TIP3    H130401   3.559   0.493   1.923  1.2862 -1.0188 -0.7772
 2970TIP3    H230402   3.511   0.412   2.042 -0.5866  0.1165 -0.7296
 2971TIP3   OH230403   3.316   6.279  12.822  0.1393 -0.9265 -0.2665
 2971TIP3    H130404   3.363   6.362  12.810 -2.7058  1.2642  2.0793
 2971TIP3    H230405   3.356   6.241  12.900 -0.7175 -0.0014  0.6451
 2972TIP3   OH230406   1.710   1.368  13.071 -0.2573  0.4802  1.1388
 2972TIP3    H130407   1.698   1.280  13.108  1.4202 -0.4319 -0.3462
 2972TIP3    H230408   1.673   1.362  12.983  3.3153 -0.0217 -0.4721
 2973TIP3   OH230409   0.332   2.458   3.560 -0.3082 -0.3810  0.5455
 2973TIP3    H130410   0.427   2.461   3.572 -0.1388 -0.9151 -0.5041
 2973TIP3    H230411   0.298   2.429   3.644  0.2343  2.1337  1.7357
 2974TIP3   OH230412   1.489   2.791  14.195  0.2326  0.5184  0.3222
 2974TIP3    H130413   1.484   2.794  14.100  2.0388 -0.3025  0.1644
 2974TIP3    H230414   1.404   2.756  14.223 -0.1957  0.4684 -0.9977
 2975TIP3   OH230415   6.349   4.532  16.029  0.1046  0.2004 -0.5121
 2975TIP3    H130416   6.380   4.584  15.955  0.6584 -1.6381 -1.6291
 2975TIP3    H230417   6.297   4.462  15.989  1.2045 -1.4016  0.7261
 2976TIP3   OH230418   4.003   4.587   5.322  0.4332 -0.1885  0.3496
 2976TIP3    H130419   3.967   4.575   5.410  0.4239 -0.1265  0.3541
 2976TIP3    H230420   3.998   4.682   5.307 -1.0636 -0.3411 -0.3493
 2977TIP3   OH230421   2.764   4.757  16.093 -0.0895  0.6517  0.3036
 2977TIP3    H130422   2.812   4.685  16.054 -0.4611 -0.1029  1.2116
 2977TIP3    H230423   2.752   4.820  16.021  1.1396  0.2906 -0.2325
 2978TIP3   OH230424   2.329   6.538   0.772  0.0006 -0.2785  0.2083
 2978TIP3    H130425   2.314   6.629   0.747 -1.2536  0.0515  1.9486
 2978TIP3    H230426   2.415   6.517   0.735  0.0115  1.3790 -0.8272
 2979TIP3   OH230427   6.673   2.293   2.731 -0.1444 -0.1659  0.0211
 2979TIP3    H130428   6.727   2.360   2.773 -1.3607  0.4186  0.7021
 2979TIP3    H230429   6.640   2.239   2.803 -0.2499 -0.6817 -0.4065
 2980TIP3   OH230430   2.159   1.330  13.400 -0.3762  0.4192  0.7018
 2980TIP3    H130431   2.160   1.378  13.482 -0.7802  0.9723  0.3888
 2980TIP3    H230432   2.179   1.240  13.424 -0.8529  0.5102  1.4422
 2981TIP3   OH230433   6.585   2.580   1.009 -0.5913 -0.3373 -0.2084
 2981TIP3    H130434   6.585   2.669   0.975  0.5162  0.1265  0.9534
 2981TIP3    H230435   6.569   2.589   1.103 -0.3515 -1.3492 -0.0495
 2982TIP3   OH230436   4.508   0.483  16.691 -0.2965 -0.3009  0.1854
 2982TIP3    H130437   4.507   0.520  16.779 -1.7590 -1.8365  0.8656
 2982TIP3    H230438   4.601   0.484  16.666 -0.0449  1.7471  1.0013
 2983TIP3   OH230439   6.605   2.973  11.437 -0.4200 -0.1173  0.0208
 2983TIP3    H130440   6.625   3.065  11.450  1.2260 -0.5132  0.5661
 2983TIP3    H230441   6.691   2.931  11.428 -1.0833 -1.7374  0.8656
 2984TIP3   OH230442   4.675   0.692  16.068 -0.0563  0.0397 -0.5120
 2984TIP3    H130443   4.652   0.672  16.159  0.5570  0.1943 -0.3133
 2984TIP3    H230444   4.671   0.608  16.023  2.6872 -0.6548  0.3535
 2985TIP3   OH230445   0.412   3.022  15.987  0.4887 -0.4343  0.7214
 2985TIP3    H130446   0.486   2.989  16.037  0.4802 -0.4152  0.7469
 2985TIP3    H230447   0.420   2.981  15.901  0.1953 -0.8904  0.9082
 2986TIP3   OH230448   4.147   3.134  13.505 -0.5571  0.1823  0.0414
 2986TIP3    H130449   4.147   3.177  13.591  1.4345  0.1737  0.0995
 2986TIP3    H230450   4.058   3.144  13.473 -1.2987  0.3661  2.0235
 2987TIP3   OH230451   2.347   2.677  17.186 -0.1642 -0.2902  0.2366
 2987TIP3    H130452   2.373   2.694  17.095  0.5904 -0.6801  0.3712
 2987TIP3    H230453   2.255   2.704  17.190  0.0636  0.6597 -0.3958
 2988TIP3   OH230454   5.540   4.645  12.249 -0.0669 -0.1926  0.6744
 2988TIP3    H130455   5.584   4.583  12.190  3.2554  1.4657  1.1534
 2988TIP3    H230456   5.484   4.697  12.191 -0.2808 -1.4247 -0.2690
 2989TIP3   OH230457   6.562   1.633  14.430  0.7011 -0.1875  0.3396
 2989TIP3    H130458   6.529   1.554  14.474 -0.1582 -0.7822 -1.2995
 2989TIP3    H230459   6.483   1.685  14.412  0.9790 -0.1285 -0.7804
 2990TIP3   OH230460   0.203   3.209   0.598 -0.0069 -0.1366 -0.0257
 2990TIP3    H130461   0.200   3.259   0.516  1.0759  0.3714  0.2202
 2990TIP3    H230462   0.269   3.142   0.583 -1.0549 -1.1571 -0.1535
 2991TIP3   OH230463   3.001   6.227  13.875  0.0082  0.0315  0.3235
 2991TIP3    H130464   3.084   6.236  13.921  0.1889  1.0258 -0.1849
 2991TIP3    H230465   2.936   6.214  13.945  0.5203 -0.3625  0.7404
 2992TIP3   OH230466   1.575   6.245   0.371  0.4960  0.4696  0.5074
 2992TIP3    H130467   1.570   6.233   0.276 -0.3851 -0.3926  0.6453
 2992TIP3    H230468   1.502   6.303   0.392 -0.8701 -1.3020  0.9191
 2993TIP3   OH230469   1.475   4.719  15.062  0.3153 -0.7471 -0.2861
 2993TIP3    H130470   1.439   4.653  15.002  1.7080 -0.9831 -0.8887
 2993TIP3    H230471   1.535   4.671  15.118  0.9898 -0.0799 -0.4168
 2994TIP3   OH230472   5.848   5.008   5.095 -0.4125 -0.5362 -0.0207
 2994TIP3    H130473   5.921   4.961   5.134  0.8100 -0.0674 -1.6464
 2994TIP3    H230474   5.856   4.992   5.001 -2.3584 -0.3878 -0.2482
 2995TIP3   OH230475   3.857   3.817  12.856  0.5324  0.0693 -0.1480
 2995TIP3    H130476   3.941   3.772  12.858  0.5694  0.0187 -1.7423
 2995TIP3    H230477   3.805   3.773  12.923  1.6163 -0.1977  0.5466
 2996TIP3   OH230478   6.557   0.544  11.109 -0.0150  0.1531 -0.2966
 2996TIP3    H130479   6.534   0.503  11.193  0.6909  1.0232  0.3376
 2996TIP3    H230480   6.652   0.549  11.110  0.0234 -0.3010 -1.3910
 2997TIP3   OH230481   2.974   0.928   6.128  0.7010 -0.6542 -0.2156
 2997TIP3    H130482   3.000   0.890   6.212 -0.9527 -1.6391 -0.1055
 2997TIP3    H230483   2.879   0.917   6.125  0.2532  2.4746 -0.7133
 2998TIP3   OH230484   3.639   6.616  12.962 -0.5683 -0.4478  0.2125
 2998TIP3    H130485   3.552   6.578  12.953 -0.9641 -0.6883  3.7621
 2998TIP3    H230486   3.699   6.542  12.962 -0.7268 -0.5862  0.9890
 2999TIP3   OH230487   5.227   2.378   5.676  0.5481  0.0156  0.2756
 2999TIP3    H130488   5.268   2.341   5.597  1.0094  0.2624  0.3942
 2999TIP3    H230489   5.216   2.303   5.734 -0.7092 -0.3502 -0.3941
 3000TIP3   OH230490   1.968   2.282   0.135 -0.0425  0.5108  0.1692
 3000TIP3    H130491   2.013   2.232   0.203  1.0203  2.0248  0.6458
 3000TIP3    H230492   1.882   2.241   0.128  0.4348 -0.7536  1.1982
 3001TIP3   OH230493   1.741   0.683   6.602 -0.2338 -0.2002 -0.1308
 3001TIP3    H130494   1.686   0.609   6.628 -0.3633  0.6131  2.1512
 3001TIP3    H230495   1.729   0.689   6.507 -1.6129 -1.9861 -0.1323
 3002TIP3   OH230496   6.269   3.141  11.768 -0.2313 -0.2140 -0.2433
 3002TIP3    H130497   6.350   3.172  11.809  0.2101  0.3558 -1.4988
 3002TIP3    H230498   6.227   3.088  11.835  2.1278 -2.1581 -0.1621
 3003TIP3   OH230499   0.493   2.252   0.714 -0.3033 -0.1416 -0.5168
 3003TIP3    H130500   0.447   2.171   0.737  0.6756 -0.1081  1.7617
 3003TIP3    H230501   0.426   2.320   0.720 -0.3972 -0.3426  0.9534
 3004TIP3   OH230502   4.050   4.026  14.404  0.3065 -0.6199 -0.5086
 3004TIP3    H130503   4.117   4.058  14.344  1.2543 -2.4831 -0.5209
 3004TIP3    H230504   4.052   4.088  14.477 -0.0060  0.9744 -1.8053
 3005TIP3   OH230505   6.701   4.048  11.323 -0.1221 -0.1757 -0.0737
 3005TIP3    H130506   6.623   4.007  11.360  0.3628 -0.2415  0.9268
 3005TIP3    H230507   6.690   4.141  11.342  1.4712 -0.4802  3.0142
 3006TIP3   OH230508   5.819   4.122   0.068 -0.5139 -0.2857  0.2343
 3006TIP3    H130509   5.892   4.164   0.022 -1.4161 -0.3563 -1.3161
 3006TIP3    H230510   5.858   4.090   0.149  1.2279 -0.4769 -0.6314
 3007TIP3   OH230511   2.852   0.964   3.683  0.5203 -0.5421  0.2710
 3007TIP3    H130512   2.762   0.930   3.672 -0.0205  0.8281  0.2931
 3007TIP3    H230513   2.842   1.059   3.682  1.8622 -0.3665  1.3167
 3008TIP3   OH230514   1.149   3.809   1.733  0.1735  0.4872  0.2255
 3008TIP3    H130515   1.059   3.818   1.700  0.1724  0.3063  0.1809
 3008TIP3    H230516   1.159   3.715   1.749 -0.1101  0.6564  1.5252
 3009TIP3   OH230517   4.260   2.466  12.028 -0.3490 -0.3730  0.0846
 3009TIP3    H130518   4.256   2.392  12.090  0.9011  0.3094  1.0221
 3009TIP3    H230519   4.349   2.500  12.037 -0.1617 -0.1878 -2.0590
 3010TIP3   OH230520   5.315   2.720  12.051 -0.0486  0.0631  0.0284
 3010TIP3    H130521   5.263   2.671  12.115 -0.3602  0.2837 -0.0552
 3010TIP3    H230522   5.263   2.798  12.033  0.7981  0.8261  0.7586
 3011TIP3   OH230523   0.953   0.763  16.334 -0.9820 -0.0360 -0.0367
 3011TIP3    H130524   1.009   0.748  16.258 -0.3532 -0.2600  0.4626
 3011TIP3    H230525   0.888   0.693  16.330 -0.8755 -0.1200 -0.3017
 3012TIP3   OH230526   2.363   2.198  13.269  0.2578  0.6588  0.1617
 3012TIP3    H130527   2.337   2.264  13.334 -1.7491  0.6444 -0.5596
 3012TIP3    H230528   2.413   2.133  13.320 -0.0238  1.3768  1.3967
 3013TIP3   OH230529   5.296   3.490  11.161 -0.0149 -0.4095 -0.0529
 3013TIP3    H130530   5.345   3.557  11.114 -0.1696 -0.9790 -1.0437
 3013TIP3    H230531   5.314   3.409  11.114  0.0636 -1.0582  1.0418
 3014TIP3   OH230532   5.107   3.778   3.837 -0.6206 -0.2170  0.5198
 3014TIP3    H130533   5.179   3.779   3.901 -0.6519 -1.4725  0.5861
 3014TIP3    H230534   5.107   3.867   3.801  1.4545 -0.3731 -0.0079
 3015TIP3   OH230535   1.850   1.685  14.065  0.2932 -0.1412 -0.9115
 3015TIP3    H130536   1.933   1.641  14.046 -1.0089 -1.6840 -3.5573
 3015TIP3    H230537   1.820   1.646  14.147  2.7754  1.4951  0.8991
 3016TIP3   OH230538   5.298   5.971  16.599  0.1495 -0.1183  0.7755
 3016TIP3    H130539   5.327   6.063  16.596 -1.8455  0.5427  0.2539
 3016TIP3    H230540   5.339   5.936  16.678  1.7532  0.9057  0.4647
 3017TIP3   OH230541   5.576   6.183  17.125  1.4445  0.0389  0.4469
 3017TIP3    H130542   5.524   6.104  17.143  0.7808  0.7471  1.8952
 3017TIP3    H230543   5.524   6.232  17.062  1.0519  0.0566  0.7762
 3018TIP3   OH230544   5.658   5.763   1.304  0.3044  0.0737  0.1177
 3018TIP3    H130545   5.634   5.676   1.336  0.3971 -0.8556 -2.1734
 3018TIP3    H230546   5.730   5.747   1.242  0.5590  1.8195 -0.0968
 3019TIP3   OH230547   2.153   0.348  16.319  0.2067 -0.5648  0.0118
 3019TIP3    H130548   2.166   0.375  16.228  1.0162  4.8742  1.3724
 3019TIP3    H230549   2.074   0.395  16.347  1.9346  0.9684  2.8938
 3020TIP3   OH230550   3.997   6.801  11.757  0.3469 -0.0834  0.3445
 3020TIP3    H130551   3.955   6.786  11.842 -2.5663  2.4532 -0.4666
 3020TIP3    H230552   3.962   6.733  11.700 -0.0833 -0.0007  0.5035
 3021TIP3   OH230553   5.310   4.599  14.314 -0.2333  0.1097  0.4264
 3021TIP3    H130554   5.346   4.670  14.367  0.5210  1.2547 -1.5014
 3021TIP3    H230555   5.272   4.643  14.237 -0.5164 -1.5153 -0.4113
 3022TIP3   OH230556   4.845   6.270   4.314 -0.4534  0.1452 -0.3796
 3022TIP3    H130557   4.818   6.336   4.377 -0.4437  1.2714 -1.5039
 3022TIP3    H230558   4.840   6.187   4.361  2.3442  1.1607  1.9755
 3023TIP3   OH230559   1.384   4.767  13.367 -0.1635 -0.8398  0.0753
 3023TIP3    H130560   1.471   4.732  13.387 -1.0402 -1.4147  3.3120
 3023TIP3    H230561   1.402   4.853  13.327  1.8731 -1.3914 -0.3385
 3024TIP3   OH230562   0.115   0.312  10.946  0.5526  0.3109 -0.3293
 3024TIP3    H130563   0.124   0.355  10.860  1.4599 -0.5124 -0.6705
 3024TIP3    H230564   0.066   0.375  10.999 -2.0595 -0.0933 -2.0939
 3025TIP3   OH230565   1.843   5.139   6.500  0.3872  0.2103  0.1366
 3025TIP3    H130566   1.790   5.200   6.449  0.0036 -0.0285  0.2428
 3025TIP3    H230567   1.834   5.055   6.455  1.7570  0.4296 -0.6125
 3026TIP3   OH230568   2.630   6.112   3.481  0.2478 -0.3422  0.5919
 3026TIP3    H130569   2.538   6.138   3.469 -0.0971 -1.5471  0.4952
 3026TIP3    H230570   2.660   6.091   3.393  0.3771 -0.6938  0.7185
 3027TIP3   OH230571   5.536   6.709   2.140 -0.1571 -0.1935 -0.0613
 3027TIP3    H130572   5.627   6.689   2.118 -0.0039 -2.1722  1.9275
 3027TIP3    H230573   5.492   6.718   2.056  1.4103 -1.6271 -1.1031
 3028TIP3   OH230574   5.890   6.127   4.442  0.1827  0.1516  0.1624
 3028TIP3    H130575   5.931   6.093   4.362  0.2273 -2.3105  1.1539
 3028TIP3    H230576   5.799   6.096   4.437 -0.4115  1.7799  0.1209
 3029TIP3   OH230577   5.191   2.907   3.115 -0.4585  0.0220 -0.0158
 3029TIP3    H130578   5.265   2.882   3.061 -0.8532 -1.6506  0.1748
 3029TIP3    H230579   5.160   2.989   3.076  0.5805 -0.0185 -0.9851
 3030TIP3   OH230580   1.525   5.506  13.426 -0.0942  0.1535  0.5216
 3030TIP3    H130581   1.604   5.539  13.384  0.2383  0.6736  1.5251
 3030TIP3    H230582   1.542   5.513  13.519 -2.0760  2.2148  0.8338
 3031TIP3   OH230583   6.387   5.736  15.614  0.4589  0.4456 -0.2869
 3031TIP3    H130584   6.377   5.667  15.548  0.9908 -0.1327  0.2249
 3031TIP3    H230585   6.477   5.765  15.604  0.4343  0.6008 -0.0549
 3032TIP3   OH230586   1.987   3.394  10.833 -0.2562 -0.0668 -0.1999
 3032TIP3    H130587   1.999   3.301  10.853  1.9276 -0.3174 -2.1975
 3032TIP3    H230588   2.070   3.434  10.858 -1.5251  1.6276  1.6207
 3033TIP3   OH230589   5.580   5.732  14.300 -0.0028  0.3405 -0.1168
 3033TIP3    H130590   5.609   5.814  14.339 -0.4248  0.1131  0.7001
 3033TIP3    H230591   5.512   5.757  14.238  0.4103  0.6755 -0.4325
 3034TIP3   OH230592   4.127   2.033   4.578 -0.1266  0.2512 -0.1833
 3034TIP3    H130593   4.036   2.027   4.606  0.0753  0.0202  0.4441
 3034TIP3    H230594   4.175   2.058   4.658  0.3762  0.2301 -0.4738
 3035TIP3   OH230595   6.193   4.029   3.237 -0.2094 -0.0301  0.1603
 3035TIP3    H130596   6.245   4.000   3.163  0.5718 -1.4918  1.2351
 3035TIP3    H230597   6.134   4.095   3.201  1.8259  1.1004 -1.2488
 3036TIP3   OH230598   5.055   5.089  16.420 -0.1635 -0.6963  0.1946
 3036TIP3    H130599   4.984   5.091  16.484  0.7501 -2.0358  1.3253
 3036TIP3    H230600   5.043   5.006  16.374  0.4274 -0.7530  0.1319
 3037TIP3   OH230601   2.955   6.356   5.598 -0.1742  0.1790 -0.1843
 3037TIP3    H130602   2.900   6.290   5.556  0.8027 -0.6603 -0.2058
 3037TIP3    H230603   2.905   6.437   5.592 -1.4815 -0.5824 -0.0215
 3038TIP3   OH230604   1.247   6.668   5.182  0.5623 -0.1769  0.4749
 3038TIP3    H130605   1.207   6.609   5.246  0.6671  0.6589  1.3218
 3038TIP3    H230606   1.340   6.646   5.185  0.3330 -1.4719 -0.8170
 3039TIP3   OH230607   6.682   4.738  15.546  0.2413 -0.5511 -0.5283
 3039TIP3    H130608   6.654   4.763  15.634  0.3664 -2.2356  0.0303
 3039TIP3    H230609   6.631   4.659  15.526  0.3422 -0.2942 -1.9023
 3040TIP3   OH230610   5.696   3.453  16.876 -0.0770  0.0924 -0.0351
 3040TIP3    H130611   5.641   3.377  16.856 -0.1590 -0.1760  1.1490
 3040TIP3    H230612   5.760   3.421  16.939  0.4955  0.7808 -0.2471
 3041TIP3   OH230613   4.322   4.792   2.848 -0.5416 -0.2582  0.3925
 3041TIP3    H130614   4.368   4.732   2.908 -0.5706 -0.2775  0.3957
 3041TIP3    H230615   4.274   4.734   2.789  0.3962 -0.2747 -0.3844
 3042TIP3   OH230616   4.161   1.000   2.841 -0.1774 -0.6496 -0.2737
 3042TIP3    H130617   4.139   0.938   2.771  1.1129 -0.7308 -0.6298
 3042TIP3    H230618   4.210   0.947   2.904  2.4870  0.3086 -1.4019
 3043TIP3   OH230619   5.313   1.295  16.248 -0.4346  0.0729  0.3297
 3043TIP3    H130620   5.272   1.368  16.294  1.1020  0.3861  1.2892
 3043TIP3    H230621   5.317   1.226  16.314 -0.9123 -0.5272 -0.2576
 3044TIP3   OH230622   1.208   4.139   4.201  0.4336  0.2450  0.0626
 3044TIP3    H130623   1.136   4.147   4.264 -0.6480 -0.2351 -1.0646
 3044TIP3    H230624   1.233   4.229   4.182  1.7959  0.4050  2.2405
 3045TIP3   OH230625   1.646   1.355  16.416  0.6941 -0.4244 -0.0909
 3045TIP3    H130626   1.736   1.378  16.392  1.0615  0.2670  1.7581
 3045TIP3    H230627   1.595   1.433  16.396  0.7382 -0.3661  0.0214
 3046TIP3   OH230628   5.362   0.760   2.179  0.2295  0.1960  0.1678
 3046TIP3    H130629   5.334   0.804   2.260 -1.0276  1.1376 -0.7393
 3046TIP3    H230630   5.316   0.676   2.181  0.3773  0.1231  0.5425
 3047TIP3   OH230631   2.629   3.712  14.602  0.2342  0.2919  0.1347
 3047TIP3    H130632   2.646   3.776  14.671  0.3067 -2.5099  2.9532
 3047TIP3    H230633   2.539   3.729  14.576 -0.0181  1.0675  1.4099
 3048TIP3   OH230634   5.593   4.318   5.476 -0.5590  0.0126 -0.4972
 3048TIP3    H130635   5.676   4.271   5.467 -0.0883  0.7181  0.0438
 3048TIP3    H230636   5.611   4.406   5.442 -0.2543  1.0542  2.1136
 3049TIP3   OH230637   2.784   1.494   2.457 -0.0131  0.5274  0.0281
 3049TIP3    H130638   2.755   1.467   2.370 -0.5981 -0.1256  0.4173
 3049TIP3    H230639   2.867   1.447   2.470  0.0006  0.5113 -0.1130
 3050TIP3   OH230640   2.572   0.764  14.671  0.3753 -0.1427 -1.0245
 3050TIP3    H130641   2.560   0.857  14.649 -1.0702 -0.0995 -0.2044
 3050TIP3    H230642   2.650   0.763  14.727  0.6815  0.5092 -1.4275
 3051TIP3   OH230643   1.405   3.273  13.672 -0.0466  0.2374  0.0905
 3051TIP3    H130644   1.394   3.300  13.581 -0.4513  1.0166  0.3603
 3051TIP3    H230645   1.358   3.190  13.679 -1.7498  1.1493  0.0596
 3052TIP3   OH230646   4.928   2.253   5.303  0.4006 -0.2305 -0.0509
 3052TIP3    H130647   4.965   2.223   5.385  0.2103  0.1790  0.1893
 3052TIP3    H230648   4.922   2.175   5.248  0.8758 -0.4361  0.1906
 3053TIP3   OH230649   5.412   6.803  15.669  0.5048  0.1669  0.1083
 3053TIP3    H130650   5.450   6.853  15.742 -1.1203  1.5168  0.0781
 3053TIP3    H230651   5.394   6.717  15.706 -0.3006  0.8315  1.3246
 3054TIP3   OH230652   5.224   6.635   5.427 -0.1055 -0.4409  0.2773
 3054TIP3    H130653   5.285   6.701   5.460 -0.6411  2.0590 -3.1687
 3054TIP3    H230654   5.252   6.619   5.337 -3.2638 -0.7428 -0.7742
 3055TIP3   OH230655   1.540   6.216  13.124 -0.2859 -0.1977  0.7132
 3055TIP3    H130656   1.605   6.287  13.123 -0.7226  0.2069  0.2661
 3055TIP3    H230657   1.581   6.147  13.176  0.1487  0.3849  1.1591
 3056TIP3   OH230658   3.499   1.186   2.950 -0.1652  0.1138 -0.4421
 3056TIP3    H130659   3.488   1.256   3.015  1.3890 -0.8356  0.9198
 3056TIP3    H230660   3.416   1.185   2.902 -0.7924  1.8650  0.5049
 3057TIP3   OH230661   2.870   6.253   5.172  0.0672  0.0626  0.6007
 3057TIP3    H130662   2.794   6.277   5.226  0.8008 -0.5847  1.9664
 3057TIP3    H230663   2.944   6.297   5.214  0.7195 -0.7836  0.3530
 3058TIP3   OH230664   2.500   5.077  12.477 -0.4492  0.2300  0.0003
 3058TIP3    H130665   2.528   5.099  12.565  0.8777 -1.1725 -0.0427
 3058TIP3    H230666   2.508   4.982  12.471  2.5128  0.4826 -2.5556
 3059TIP3   OH230667   6.233   3.208  12.891 -0.2201  0.2522  0.1511
 3059TIP3    H130668   6.255   3.269  12.961  0.5912 -0.0595  0.1802
 3059TIP3    H230669   6.170   3.148  12.931 -0.2705  0.4737  0.4095
 3060TIP3   OH230670   5.706   2.653   6.529 -0.2739 -0.5401  0.2293
 3060TIP3    H130671   5.713   2.558   6.543  1.2438 -0.0967  3.2234
 3060TIP3    H230672   5.750   2.692   6.604  1.0897  2.5726 -1.9681
 3061TIP3   OH230673   1.226   1.659   2.928  0.5409  0.0941 -0.1491
 3061TIP3    H130674   1.292   1.623   2.868  0.0855 -0.3912 -0.3685
 3061TIP3    H230675   1.220   1.751   2.905  0.8573  0.0538 -0.3996
 3062TIP3   OH230676   5.780   3.769  14.687 -0.4667 -0.1893 -0.0641
 3062TIP3    H130677   5.691   3.736  14.680 -0.4325 -0.2769 -0.0931
 3062TIP3    H230678   5.795   3.818  14.606 -1.1771  1.5432  0.8232
 3063TIP3   OH230679   5.394   0.591  14.685  0.0878  0.4336 -0.0602
 3063TIP3    H130680   5.461   0.588  14.617 -0.2681  0.4736 -0.4163
 3063TIP3    H230681   5.436   0.553  14.762  0.3182 -0.1117 -0.4526
 3064TIP3   OH230682   6.131   5.502  16.281  0.5662 -0.4909 -0.2573
 3064TIP3    H130683   6.070   5.490  16.354 -0.2436  1.6589 -0.5044
 3064TIP3    H230684   6.088   5.461  16.206 -0.0332 -0.0347 -0.1695
 3065TIP3   OH230685   3.472   4.460   1.266 -0.1819 -0.3316 -1.1052
 3065TIP3    H130686   3.501   4.536   1.215  0.9363 -0.4588 -0.6920
 3065TIP3    H230687   3.446   4.395   1.201  0.3944 -0.1700 -1.5068
 3066TIP3   OH230688   6.629   6.210   0.761 -0.0641 -0.3470  0.1879
 3066TIP3    H130689   6.607   6.263   0.838 -0.8475  1.4499 -1.1963
 3066TIP3    H230690   6.585   6.254   0.688 -0.4720 -2.7447 -1.1231
 3067TIP3   OH230691   4.417   5.361   3.942 -0.5797  0.0687  0.0268
 3067TIP3    H130692   4.360   5.410   3.883 -0.6954  1.2380  1.0632
 3067TIP3    H230693   4.501   5.408   3.939 -0.5952  0.1591  0.7929
 3068TIP3   OH230694   5.209   1.307   1.526 -0.6167 -0.2455 -0.0291
 3068TIP3    H130695   5.284   1.366   1.533 -0.2089 -0.9292  2.3036
 3068TIP3    H230696   5.171   1.327   1.441  3.0443 -0.8974 -2.0441
 3069TIP3   OH230697   5.646   5.528   0.228  0.5609 -0.2721  0.6173
 3069TIP3    H130698   5.689   5.528   0.142 -0.6708 -0.7428 -0.0267
 3069TIP3    H230699   5.611   5.617   0.237  4.0325  1.0876  2.4451
 3070TIP3   OH230700   6.520   4.092   5.902 -0.4119  0.1906  0.3569
 3070TIP3    H130701   6.455   4.024   5.886  0.8507 -0.7636 -1.0238
 3070TIP3    H230702   6.563   4.066   5.983  1.2430 -1.7255 -1.0369
 3071TIP3   OH230703   5.802   1.510  11.755 -0.7446  0.0975 -0.5816
 3071TIP3    H130704   5.875   1.535  11.700 -1.1102 -2.1269 -2.2444
 3071TIP3    H230705   5.842   1.480  11.837  0.2933 -1.4916 -1.6207
 3072TIP3   OH230706   1.607   1.276   2.679 -0.3217 -0.2817 -0.8605
 3072TIP3    H130707   1.588   1.347   2.618 -0.7521 -0.5468 -1.0389
 3072TIP3    H230708   1.629   1.201   2.623 -0.0463 -0.3394 -0.6777
 3073TIP3   OH230709   2.277   5.153  16.424 -0.3617 -0.2871  0.6186
 3073TIP3    H130710   2.356   5.100  16.423 -0.8746 -1.0582  0.3693
 3073TIP3    H230711   2.287   5.209  16.502 -0.4880 -1.8033  1.7696
 3074TIP3   OH230712   4.913   5.158   1.780  0.3713  0.0714 -0.9461
 3074TIP3    H130713   4.995   5.148   1.829 -0.3939  0.0730  0.3810
 3074TIP3    H230714   4.919   5.094   1.709  1.5105  0.0699 -0.8677
 3075TIP3   OH230715   1.746   3.994  12.999 -0.0760 -0.2394  0.2710
 3075TIP3    H130716   1.684   4.015  13.069 -0.5203 -2.3498  0.5785
 3075TIP3    H230717   1.820   3.953  13.044  1.4231  1.8842 -0.1395
 3076TIP3   OH230718   5.383   3.627  15.288 -0.2130 -0.7241  0.1687
 3076TIP3    H130719   5.293   3.632  15.320  0.5931 -0.2213  2.6048
 3076TIP3    H230720   5.412   3.539  15.311  0.6539 -0.0692  1.7517
 3077TIP3   OH230721   2.989   2.767  15.060  0.3167 -0.1792 -0.0064
 3077TIP3    H130722   2.918   2.807  15.110 -0.7606 -2.4603  0.4026
 3077TIP3    H230723   3.067   2.814  15.089 -0.9140  2.1881 -0.2312
 3078TIP3   OH230724   6.072   6.461   2.660  0.2321 -0.2246 -0.4025
 3078TIP3    H130725   6.155   6.506   2.678 -0.3269  0.6679  0.0047
 3078TIP3    H230726   6.096   6.369   2.652  1.1965 -0.0346  0.1617
 3079TIP3   OH230727   0.119   3.120   3.352 -0.9130  0.3437  0.0498
 3079TIP3    H130728   0.145   3.029   3.333 -0.9436  0.1827  0.7536
 3079TIP3    H230729   0.160   3.140   3.436 -2.5199  0.2857  0.8985
 3080TIP3   OH230730   1.837   3.555  12.588  0.2397 -0.6191  0.6761
 3080TIP3    H130731   1.810   3.605  12.511  1.4868 -1.9091 -0.6624
 3080TIP3    H230732   1.755   3.524  12.627 -0.3941 -0.5216 -0.5504
 3081TIP3   OH230733   4.352   3.779   5.379 -0.5351  0.4083  0.6879
 3081TIP3    H130734   4.437   3.778   5.423 -0.0207 -1.8483 -0.1889
 3081TIP3    H230735   4.371   3.748   5.290 -2.3072 -0.4206  0.5614
 3082TIP3   OH230736   0.534   2.869  11.099 -0.3248 -0.0650 -0.3565
 3082TIP3    H130737   0.559   2.889  11.009  0.7111 -1.2693 -0.3642
 3082TIP3    H230738   0.616   2.846  11.143 -0.9745 -0.8259  0.5304
 3083TIP3   OH230739   3.558   3.422  11.664  0.2258  0.4444  0.4744
 3083TIP3    H130740   3.528   3.340  11.624 -1.2738  2.1112 -2.0713
 3083TIP3    H230741   3.631   3.396  11.719  0.0218 -2.5628 -0.4957
 3084TIP3   OH230742   3.304   0.241  11.607  0.0542 -0.1498  0.1878
 3084TIP3    H130743   3.296   0.308  11.540  1.9152 -1.1604 -1.1274
 3084TIP3    H230744   3.287   0.288  11.689 -1.3056  1.3195 -0.8630
 3085TIP3   OH230745   1.170   3.787   2.746 -0.5909 -0.2228 -0.4670
 3085TIP3    H130746   1.260   3.818   2.732 -0.4059 -0.8604 -0.7667
 3085TIP3    H230747   1.115   3.856   2.711 -0.3377  1.5857  2.3810
 3086TIP3   OH230748   0.930   1.317  13.415 -0.3704  0.2819  0.0586
 3086TIP3    H130749   0.895   1.262  13.485 -2.0170  0.7563 -0.3578
 3086TIP3    H230750   1.017   1.280  13.396 -0.3001 -0.4422  1.6661
 3087TIP3   OH230751   6.013   5.275   2.841  0.1941  0.1280  0.0054
 3087TIP3    H130752   6.103   5.270   2.874  0.5905  0.4080 -1.0137
 3087TIP3    H230753   6.009   5.210   2.771 -0.2289  0.5455 -0.3600
 3088TIP3   OH230754   1.812   6.613   5.201  0.3519 -0.2189 -0.2962
 3088TIP3    H130755   1.896   6.620   5.155  0.8697 -2.3011  0.2290
 3088TIP3    H230756   1.829   6.551   5.272 -1.8563 -1.4512 -0.7575
 3089TIP3   OH230757   3.129   6.586  11.427 -0.2340  0.0505  0.4372
 3089TIP3    H130758   3.076   6.525  11.478  0.0639 -0.0739  0.5975
 3089TIP3    H230759   3.153   6.655  11.488 -0.0331 -0.0018  0.4172
 3090TIP3   OH230760   2.399   2.496  14.447  0.4586 -0.0616 -0.1746
 3090TIP3    H130761   2.405   2.478  14.353  0.5162  1.0509 -0.4038
 3090TIP3    H230762   2.401   2.410  14.489 -0.2520 -0.6037 -1.2233
 3091TIP3   OH230763   2.012   3.125  13.724 -0.4322 -0.5791  0.1494
 3091TIP3    H130764   2.078   3.112  13.656 -0.1208  0.0740  0.3199
 3091TIP3    H230765   1.942   3.175  13.681 -0.3280 -0.3426  0.2539
 3092TIP3   OH230766   5.260   2.188  11.927  0.2082  0.0163 -0.2250
 3092TIP3    H130767   5.281   2.274  11.890 -1.5345  0.7786  0.4674
 3092TIP3    H230768   5.165   2.190  11.940  0.2936 -1.5856  0.9032
 3093TIP3   OH230769   5.048   2.990   4.527  0.0253 -0.1440  0.1399
 3093TIP3    H130770   4.984   3.061   4.521 -3.0410 -2.5607  1.4368
 3093TIP3    H230771   5.084   2.999   4.616 -1.1376 -0.7537  0.6942
 3094TIP3   OH230772   3.335   0.467  13.874 -0.2852  0.2075 -0.3530
 3094TIP3    H130773   3.419   0.424  13.889 -0.1921 -0.1220 -1.7102
 3094TIP3    H230774   3.355   0.540  13.814 -1.2873 -1.3960 -2.8079
 3095TIP3   OH230775   0.835   3.189   0.404  1.0496 -0.1285 -0.1131
 3095TIP3    H130776   0.908   3.173   0.344  1.7499 -1.9636  1.1460
 3095TIP3    H230777   0.847   3.280   0.433  1.0273  0.6080 -2.2245
 3096TIP3   OH230778   5.273   6.314  13.367  0.0718  0.3983  0.1192
 3096TIP3    H130779   5.278   6.251  13.439  2.4021  0.5217  0.1547
 3096TIP3    H230780   5.239   6.264  13.293  1.2054 -0.7511  0.3440
 3097TIP3   OH230781   2.839   4.065  11.988  0.1633  0.2457  0.7036
 3097TIP3    H130782   2.917   4.013  11.967  0.0600  0.4986 -0.3924
 3097TIP3    H230783   2.791   4.013  12.053 -0.3087 -1.3991 -0.8818
 3098TIP3   OH230784   2.046   3.687  11.802  0.1376 -0.0492 -0.1033
 3098TIP3    H130785   2.139   3.697  11.822  0.3758 -1.8148 -0.1480
 3098TIP3    H230786   2.042   3.683  11.706  0.1348 -0.6997 -0.0867
 3099TIP3   OH230787   6.104   1.728   2.894 -0.2555 -0.0193 -0.0881
 3099TIP3    H130788   6.136   1.792   2.958 -3.6796  0.2424  1.5900
 3099TIP3    H230789   6.087   1.649   2.945  0.9178 -1.2897 -1.5563
 3100TIP3   OH230790   5.256   0.404   3.763  0.2336 -0.0844 -0.5927
 3100TIP3    H130791   5.304   0.365   3.689  1.6936  0.0145  0.2684
 3100TIP3    H230792   5.300   0.488   3.778 -0.6238  0.2988 -0.1692
 3101TIP3   OH230793   0.569   4.135  11.055 -0.0546 -0.3173  0.1023
 3101TIP3    H130794   0.500   4.114  11.118  0.2438 -0.2783  0.4425
 3101TIP3    H230795   0.549   4.224  11.027 -0.8563 -0.7406 -0.7389
 3102TIP3   OH230796   3.147   2.989  11.824  0.2168  0.5625 -0.1528
 3102TIP3    H130797   3.099   3.015  11.903  1.7948 -0.1553  1.0956
 3102TIP3    H230798   3.236   2.971  11.854  0.6272 -0.6948 -1.9294
 3103TIP3   OH230799   1.103   5.292  11.384 -0.1378 -0.2431  0.1976
 3103TIP3    H130800   1.195   5.279  11.359 -1.1195 -0.3970 -4.2164
 3103TIP3    H230801   1.084   5.222  11.446  1.9850 -2.2000 -1.2017
 3104TIP3   OH230802   3.846   2.781   4.696  0.4004 -0.3443  0.0655
 3104TIP3    H130803   3.866   2.735   4.778  0.6022 -0.5159 -0.0791
 3104TIP3    H230804   3.789   2.721   4.649  0.8113 -0.5306 -0.2038
 3105TIP3   OH230805   4.143   2.409  17.203  0.1930 -0.2811 -0.3477
 3105TIP3    H130806   4.184   2.463  17.135 -1.1357 -0.1839 -1.0910
 3105TIP3    H230807   4.157   2.459  17.284  1.1749 -0.0610 -0.6361
 3106TIP3   OH230808   2.954   5.612   0.755 -0.2432  0.2805 -0.1635
 3106TIP3    H130809   3.029   5.584   0.703 -0.8626 -0.0720 -0.8953
 3106TIP3    H230810   2.972   5.704   0.776  0.9551 -0.1368  0.7225
 3107TIP3   OH230811   4.924   2.561  16.303  0.6225 -0.2534 -0.0379
 3107TIP3    H130812   4.948   2.634  16.245 -0.5317  1.0249  1.0220
 3107TIP3    H230813   4.844   2.526  16.266 -0.6135  1.1319  1.1729
 3108TIP3   OH230814   3.476   5.926   2.185 -0.3533  0.4776 -0.0475
 3108TIP3    H130815   3.526   5.850   2.154 -2.3664 -0.7492 -0.4458
 3108TIP3    H230816   3.388   5.914   2.149 -0.7822  2.9817 -0.0518
 3109TIP3   OH230817   6.590   3.556   1.672 -0.1982  0.6248  0.1957
 3109TIP3    H130818   6.636   3.619   1.618  1.0211  1.3056  1.9313
 3109TIP3    H230819   6.657   3.492   1.698 -1.1685 -0.7898 -0.6259
 3110TIP3   OH230820   1.323   3.913  15.848  0.5466 -0.2446  0.1627
 3110TIP3    H130821   1.244   3.893  15.898  0.8036  0.3875  0.8442
 3110TIP3    H230822   1.323   4.009  15.842  0.8270 -0.2820 -0.5586
 3111TIP3   OH230823   3.445   1.557  13.218  0.4859 -0.2632 -0.3653
 3111TIP3    H130824   3.473   1.494  13.152  0.0180  1.5105 -2.3804
 3111TIP3    H230825   3.350   1.559  13.211  0.4656  0.3637 -0.0176
 3112TIP3   OH230826   2.538   0.315  12.920 -0.1968 -0.7050  0.3539
 3112TIP3    H130827   2.571   0.308  13.010  0.4993 -3.7342 -0.0305
 3112TIP3    H230828   2.614   0.295  12.865 -1.5366 -3.3055 -0.7111
 3113TIP3   OH230829   2.083   0.285  16.720  0.1785 -0.0082 -0.1909
 3113TIP3    H130830   2.082   0.377  16.747 -1.0556  0.1946 -0.8332
 3113TIP3    H230831   2.050   0.237  16.796 -0.2374  0.2093 -0.2324
 3114TIP3   OH230832   5.980   0.399   4.606 -0.6425 -1.0143  0.1266
 3114TIP3    H130833   6.020   0.388   4.519 -1.1809  1.3512 -0.4842
 3114TIP3    H230834   5.910   0.333   4.607 -1.2694 -0.4508 -1.6728
 3115TIP3   OH230835   1.806   4.339  15.753  0.0459 -0.5847 -0.7623
 3115TIP3    H130836   1.850   4.424  15.742 -1.0218 -0.1417 -1.8343
 3115TIP3    H230837   1.859   4.293  15.818  0.8387  0.7718 -0.4064
 3116TIP3   OH230838   5.105   2.015  12.233  0.5531  0.9421  0.4878
 3116TIP3    H130839   5.043   1.956  12.276  0.6911 -0.4820 -1.1425
 3116TIP3    H230840   5.178   2.023  12.294  0.2308 -0.0615  1.0178
 3117TIP3   OH230841   4.123   5.783  15.488 -0.3552 -0.0837 -0.4265
 3117TIP3    H130842   4.153   5.864  15.446 -0.4963 -0.3502 -1.0457
 3117TIP3    H230843   4.097   5.726  15.416  0.5777 -1.0215 -0.0385
 3118TIP3   OH230844   2.130   1.281  12.594  0.3018 -0.2496 -0.6545
 3118TIP3    H130845   2.206   1.246  12.547 -0.4860 -2.0443 -0.6912
 3118TIP3    H230846   2.061   1.216  12.579 -0.5262  0.0658  1.4220
 3119TIP3   OH230847   4.091   2.685  11.083  0.7619  0.4452 -0.1696
 3119TIP3    H130848   4.109   2.612  11.024  0.0930  0.2452 -0.1383
 3119TIP3    H230849   4.148   2.670  11.158 -0.7883 -1.1793  0.7553
 3120TIP3   OH230850   0.995   6.509   5.915  0.1161  0.0537 -0.2101
 3120TIP3    H130851   1.073   6.494   5.860 -0.8092 -0.4260 -1.4379
 3120TIP3    H230852   0.923   6.473   5.864 -0.8447 -0.0683  1.1829
 3121TIP3   OH230853   2.507   0.058   4.239 -0.3325 -0.2511  0.6118
 3121TIP3    H130854   2.502  -0.038   4.233 -1.1610 -0.1815 -0.0956
 3121TIP3    H230855   2.501   0.088   4.148 -0.8721  0.4979  0.8802
 3122TIP3   OH230856   2.514   4.382  13.410  0.4432 -0.7419 -0.1296
 3122TIP3    H130857   2.557   4.457  13.368  1.1163 -0.7647  0.4981
 3122TIP3    H230858   2.496   4.412  13.499 -2.0592 -0.2698 -0.7171
 3123TIP3   OH230859   5.405   4.308   4.216  0.2052  0.3774 -0.0514
 3123TIP3    H130860   5.428   4.229   4.167  0.3776 -0.5741  1.5118
 3123TIP3    H230861   5.427   4.380   4.157  2.3796 -0.6587 -0.5815
 3124TIP3   OH230862   5.819   0.223  17.130  0.3838  0.4646  0.0973
 3124TIP3    H130863   5.743   0.196  17.078  1.9386 -0.4186 -1.8785
 3124TIP3    H230864   5.864   0.286  17.074  0.8242  1.4236  1.4967
 3125TIP3   OH230865   5.948   3.039   2.008  0.9288 -0.0507  0.3452
 3125TIP3    H130866   6.022   3.018   1.950  2.4547 -0.3350  2.3086
 3125TIP3    H230867   5.915   3.123   1.974  0.7766 -0.9217 -1.8341
 3126TIP3   OH230868   2.203   3.747  13.688 -0.5031  1.1436 -0.1443
 3126TIP3    H130869   2.127   3.766  13.743  1.7160  3.9267  2.2679
 3126TIP3    H230870   2.253   3.682  13.738 -0.0913  1.1931 -0.4905
 3127TIP3   OH230871   0.978   6.346  12.666 -0.4782 -0.2220 -0.2518
 3127TIP3    H130872   0.931   6.276  12.712 -1.0192 -1.7174 -2.8350
 3127TIP3    H230873   1.038   6.299  12.607 -1.8726  1.3588 -3.1243
 3128TIP3   OH230874   6.001   0.834   5.729 -0.2509  0.4573  0.6109
 3128TIP3    H130875   5.973   0.919   5.762 -0.4071  0.1640  1.2488
 3128TIP3    H230876   5.933   0.809   5.667 -0.0951  0.8890  0.2561
 3129TIP3   OH230877   1.052   5.455   4.950  0.3472  0.0537 -0.1607
 3129TIP3    H130878   1.014   5.541   4.965  1.2343  0.4020  0.1027
 3129TIP3    H230879   1.146   5.469   4.951  0.5596 -1.1488  1.3822
 3130TIP3   OH230880   3.782   4.885   0.565  0.2286 -0.4060  0.2009
 3130TIP3    H130881   3.714   4.846   0.510 -0.1503 -0.7433  0.8938
 3130TIP3    H230882   3.857   4.895   0.507 -1.0501  1.9947 -1.1926
 3131TIP3   OH230883   6.671   2.906   4.330  0.0462 -0.0637 -0.0083
 3131TIP3    H130884   6.687   2.825   4.378  0.7758 -0.6117 -1.1120
 3131TIP3    H230885   6.707   2.889   4.243  1.3717  1.8944  0.0979
 3132TIP3   OH230886   2.218   2.712  16.853 -0.3272 -0.3628 -0.9950
 3132TIP3    H130887   2.158   2.657  16.904 -1.4375 -0.3749 -2.2331
 3132TIP3    H230888   2.281   2.651  16.816  2.6568 -0.0330  2.9505
 3133TIP3   OH230889   6.331   5.051  15.102 -0.3858 -1.0238  0.4946
 3133TIP3    H130890   6.421   5.055  15.072 -0.8090 -1.7519 -0.9835
 3133TIP3    H230891   6.325   4.969  15.150 -0.4726 -1.4379 -0.2089
 3134TIP3   OH230892   2.214   1.955  13.675 -0.1589  0.5077 -0.3387
 3134TIP3    H130893   2.166   1.876  13.701  0.4135  0.0992 -0.5022
 3134TIP3    H230894   2.163   2.027  13.711 -1.7801  0.1953 -1.8539
 3135TIP3   OH230895   2.902   1.633  13.295  0.0493 -0.2974  0.3116
 3135TIP3    H130896   2.833   1.628  13.228  0.2325 -2.5990  0.2132
 3135TIP3    H230897   2.876   1.567  13.360  2.2522 -1.3823  0.1568
 3136TIP3   OH230898   1.106   2.677   0.996  0.0043 -0.0896 -0.2915
 3136TIP3    H130899   1.061   2.594   1.011 -0.1887  0.1666  0.5634
 3136TIP3    H230900   1.199   2.656   1.007 -0.0831 -0.0733  0.5333
 3137TIP3   OH230901   1.233   1.482  11.999  0.2393  0.1934  0.3323
 3137TIP3    H130902   1.246   1.524  11.914 -0.0748  0.2572  0.3137
 3137TIP3    H230903   1.262   1.392  11.986 -0.2251  0.0830  0.0281
 3138TIP3   OH230904   0.743   2.017  13.658  0.0294  0.9794  0.2178
 3138TIP3    H130905   0.750   2.011  13.563  0.3504 -1.7253  0.3250
 3138TIP3    H230906   0.653   2.044  13.674 -0.2602  0.6870 -0.8492
 3139TIP3   OH230907   3.908   0.104  15.251  0.4968 -0.0013  0.4734
 3139TIP3    H130908   3.843   0.110  15.181  2.2201 -0.2771 -1.2135
 3139TIP3    H230909   3.868   0.047  15.316 -1.3592  0.6685 -0.0196
 3140TIP3   OH230910   2.948   6.140   1.440 -0.0713 -0.1768  0.1764
 3140TIP3    H130911   2.857   6.161   1.461  0.3722 -0.0250  2.1503
 3140TIP3    H230912   2.982   6.098   1.519  2.4320  2.5176  0.7134
 3141TIP3   OH230913   6.347   4.334  12.827  0.3837 -0.0275  0.1812
 3141TIP3    H130914   6.293   4.386  12.888  1.6211  0.8229  0.5931
 3141TIP3    H230915   6.435   4.369  12.839  1.2498 -2.1635  0.3703
 3142TIP3   OH230916   3.301   6.304   4.535 -0.2580 -0.5921  0.2120
 3142TIP3    H130917   3.233   6.350   4.486 -0.4042 -0.2855  0.6909
 3142TIP3    H230918   3.307   6.352   4.618 -0.5524 -1.5576  0.8045
 3143TIP3   OH230919   0.652   1.861  10.450  0.4811 -0.2724  0.4160
 3143TIP3    H130920   0.625   1.920  10.379 -0.1898  1.7443  2.2504
 3143TIP3    H230921   0.601   1.781  10.435  0.3555  0.0976 -1.3412
 3144TIP3   OH230922   0.376   1.957  12.269 -0.2445 -0.0720 -1.1237
 3144TIP3    H130923   0.466   1.936  12.242 -0.2336 -1.7758  0.0535
 3144TIP3    H230924   0.384   2.036  12.321  0.9798 -1.4145  0.8856
 3145TIP3   OH230925   0.140   0.638  14.532  0.1570  0.3825  0.3314
 3145TIP3    H130926   0.047   0.622  14.513 -0.4954  1.0999  2.6547
 3145TIP3    H230927   0.153   0.602  14.620  2.1433  0.1973  0.0092
 3146TIP3   OH230928   1.571   3.645   1.624  0.0767 -0.0730 -0.3343
 3146TIP3    H130929   1.633   3.643   1.551  2.4245 -0.6288  1.5678
 3146TIP3    H230930   1.527   3.729   1.616  1.5055  0.6102 -1.4204
 3147TIP3   OH230931   0.258   6.007   4.665 -0.0276  0.2836  0.1207
 3147TIP3    H130932   0.273   5.913   4.653 -2.1324 -0.0176 -0.6515
 3147TIP3    H230933   0.173   6.023   4.624  0.7611  2.7616 -0.7429
 3148TIP3   OH230934   2.355   4.364  16.236  0.5332  1.0194 -0.4038
 3148TIP3    H130935   2.421   4.319  16.184 -0.0599 -1.0898  0.5532
 3148TIP3    H230936   2.342   4.448  16.192  2.1683  0.5334 -1.9088
 3149TIP3   OH230937   4.253   0.640  16.305 -0.1789 -0.0115 -0.3582
 3149TIP3    H130938   4.182   0.666  16.247  0.4637  1.2754 -0.5934
 3149TIP3    H230939   4.320   0.604  16.247  0.5774  1.5264 -0.4684
 3150TIP3   OH230940   2.418   5.936   1.114 -0.0825  0.0673  0.2125
 3150TIP3    H130941   2.343   5.993   1.127 -0.3032 -0.6045  2.1849
 3150TIP3    H230942   2.394   5.854   1.156  1.6024 -0.2894  0.5696
 3151TIP3   OH230943   1.746   4.829  16.280  0.8156  0.2209  0.0964
 3151TIP3    H130944   1.736   4.880  16.360  1.6378 -0.3715  0.5955
 3151TIP3    H230945   1.830   4.856  16.244  1.1045 -0.5222  0.1863
 3152TIP3   OH230946   5.411   6.364  13.670  0.7784 -0.5953  0.4918
 3152TIP3    H130947   5.404   6.457  13.691  1.7371 -0.4420  0.1820
 3152TIP3    H230948   5.326   6.328  13.695 -0.2139  0.6593 -0.8872
 3153TIP3   OH230949   6.717   4.133   0.405 -0.9340 -0.1853  0.3223
 3153TIP3    H130950   6.781   4.201   0.426 -1.9485  0.3203  1.9431
 3153TIP3    H230951   6.653   4.177   0.349  1.3040 -1.3113 -3.4750
 3154TIP3   OH230952   5.097   2.055   4.203 -0.0371 -0.0654 -0.0595
 3154TIP3    H130953   5.128   1.991   4.267 -0.5753 -1.0756 -0.7724
 3154TIP3    H230954   5.117   2.015   4.118  0.8271  1.3281 -0.5329
 3155TIP3   OH230955   6.048   6.525  14.963  0.1440  0.3442 -0.2932
 3155TIP3    H130956   5.970   6.483  14.927 -0.1686  1.3755 -0.8620
 3155TIP3    H230957   6.116   6.459  14.956  0.1602  0.5419 -3.0264
 3156TIP3   OH230958   6.524   2.192  12.969 -0.3434 -0.0833 -0.4400
 3156TIP3    H130959   6.575   2.259  13.014 -0.2172  0.0879 -0.8255
 3156TIP3    H230960   6.433   2.215  12.986 -0.3583  1.1593 -1.8895
 3157TIP3   OH230961   0.776   5.383  15.720 -0.2341 -0.0898 -0.0225
 3157TIP3    H130962   0.771   5.325  15.643 -0.8176 -2.3024  1.5897
 3157TIP3    H230963   0.703   5.443  15.708  0.0462  0.0120 -1.4839
 3158TIP3   OH230964   4.509   3.230   3.539  0.2881  0.0868 -0.1961
 3158TIP3    H130965   4.583   3.169   3.545 -0.2346 -0.4587  1.1560
 3158TIP3    H230966   4.537   3.296   3.475  1.2374 -1.0549 -0.9998
 3159TIP3   OH230967   1.582   1.513  14.827  0.3113 -0.1855 -0.5856
 3159TIP3    H130968   1.582   1.457  14.749  2.6780 -0.2934 -0.5821
 3159TIP3    H230969   1.562   1.453  14.899 -1.7017 -0.1206 -1.0367
 3160TIP3   OH230970   1.387   1.505   1.290  0.1887 -0.0146 -0.3576
 3160TIP3    H130971   1.460   1.443   1.282 -0.1693 -0.4140 -0.5718
 3160TIP3    H230972   1.407   1.555   1.369  1.2347  0.6046 -0.9942
 3161TIP3   OH230973   0.593   0.538   1.978  0.0763  0.1395 -0.2543
 3161TIP3    H130974   0.558   0.511   2.063  0.0774  0.6698 -0.0834
 3161TIP3    H230975   0.679   0.496   1.974 -0.1714 -0.3787 -0.2586
 3162TIP3   OH230976   4.768   1.593   2.234 -0.4670  0.0564 -0.3332
 3162TIP3    H130977   4.692   1.567   2.286  0.0497  1.3270  1.1571
 3162TIP3    H230978   4.782   1.685   2.257  1.7349 -0.2438 -0.2760
 3163TIP3   OH230979   2.159   0.180   6.602  0.3332 -0.3616  0.3661
 3163TIP3    H130980   2.083   0.221   6.642  0.8940  0.1923  0.8698
 3163TIP3    H230981   2.226   0.180   6.670  1.1609  0.1980 -0.4257
 3164TIP3   OH230982   5.730   2.887  15.551  0.1890 -0.1598  0.2708
 3164TIP3    H130983   5.754   2.956  15.613  0.4545 -0.4027  0.4394
 3164TIP3    H230984   5.689   2.820  15.606  1.7782 -1.0538  0.4193
 3165TIP3   OH230985   1.715   1.976   1.626 -0.7847 -0.4383  0.2698
 3165TIP3    H130986   1.659   1.973   1.549 -1.6048  1.1118  0.7588
 3165TIP3    H230987   1.769   2.053   1.613  0.5891 -1.3709  0.2694
 3166TIP3   OH230988   4.682   2.085   0.159  0.0029 -0.0292 -0.8521
 3166TIP3    H130989   4.604   2.080   0.104 -0.9828 -0.5901  0.5491
 3166TIP3    H230990   4.736   2.011   0.132 -0.4450 -0.2641 -1.1060
 3167TIP3   OH230991   6.605   3.769  16.738  0.1030 -0.0437  0.3542
 3167TIP3    H130992   6.582   3.850  16.784  2.5724  1.5628 -1.0174
 3167TIP3    H230993   6.547   3.767  16.662 -1.9112 -1.1196  1.8550
 3168TIP3   OH230994   5.025   3.083   5.304 -0.5139 -0.4340  0.1612
 3168TIP3    H130995   5.108   3.130   5.299 -1.5628  1.3637 -2.6355
 3168TIP3    H230996   5.023   3.030   5.225 -2.4263  0.3473 -0.3600
 3169TIP3   OH230997   0.380   3.350  15.506  0.1066  0.7818 -0.3102
 3169TIP3    H130998   0.285   3.346  15.512  0.1741 -2.6120  0.1295
 3169TIP3    H230999   0.409   3.386  15.590 -0.7412 -0.2964  0.4627
 3170TIP3   OH231000   4.827   1.511   5.297 -0.4972  0.1691 -0.3962
 3170TIP3    H131001   4.805   1.571   5.368 -1.4231 -0.7664  0.1329
 3170TIP3    H231002   4.880   1.563   5.237 -0.2373  1.1577  0.6566
 3171TIP3   OH231003   5.668   0.656   2.280  0.3654 -0.9290 -0.2365
 3171TIP3    H131004   5.615   0.727   2.243  1.3650  0.8681  1.6258
 3171TIP3    H231005   5.604   0.599   2.324 -0.2926 -0.3134 -0.3793
 3172TIP3   OH231006   3.206   6.710  14.328 -0.3298  0.3954 -0.2123
 3172TIP3    H131007   3.244   6.668  14.405 -0.8758  0.3644  0.0418
 3172TIP3    H231008   3.282   6.744  14.280  0.1151 -0.7061 -0.3241
 3173TIP3   OH231009   4.281   0.410   1.530  0.5266  0.4455  0.5389
 3173TIP3    H131010   4.324   0.424   1.615  1.1976 -0.4059  0.3514
 3173TIP3    H231011   4.306   0.487   1.478  1.3877  0.2291  0.6186
 3174TIP3   OH231012   4.188   5.324  16.274 -0.3996  0.2820 -0.4560
 3174TIP3    H131013   4.222   5.384  16.341 -2.2891  0.7819  0.1045
 3174TIP3    H231014   4.247   5.336  16.200  0.8171  0.8786  0.5619
 3175TIP3   OH231015   4.763   2.499  12.442  0.2045 -0.6146  1.0387
 3175TIP3    H131016   4.767   2.418  12.494 -0.3793 -0.4582  1.3316
 3175TIP3    H231017   4.749   2.469  12.352 -1.2322 -0.7992  1.3108
 3176TIP3   OH231018   4.568   5.621  13.391  0.3071 -0.0031  0.0042
 3176TIP3    H131019   4.530   5.665  13.316 -0.1223  0.2382  0.3594
 3176TIP3    H231020   4.610   5.692  13.442  0.9127 -0.2126 -0.1909
 3177TIP3   OH231021   3.027   5.472  14.051 -0.3682 -0.4444 -0.0859
 3177TIP3    H131022   2.970   5.547  14.033  0.9818  1.2146  2.0571
 3177TIP3    H231023   3.097   5.479  13.986 -0.0236  0.4395  0.3663
 3178TIP3   OH231024   5.969   5.084  13.621  0.8761 -0.1210 -0.0928
 3178TIP3    H131025   6.016   5.142  13.561  2.6426  0.0911  1.4138
 3178TIP3    H231026   5.895   5.136  13.652  0.8527  0.3207 -0.8742
 3179TIP3   OH231027   6.804   5.459  12.486 -0.2357 -0.7980  0.4244
 3179TIP3    H131028   6.894   5.491  12.489 -0.7632  0.7716  0.4114
 3179TIP3    H231029   6.812   5.367  12.461  1.3828 -0.8286  0.9504
 3180TIP3   OH231030   5.892   4.725   1.494 -0.1615  0.6725  0.7223
 3180TIP3    H131031   5.932   4.641   1.519  0.2915  0.7004  0.1152
 3180TIP3    H231032   5.913   4.784   1.566  1.5128  0.8706  0.1249
 3181TIP3   OH231033   3.342   4.719  10.893  0.3811  0.1484  0.0255
 3181TIP3    H131034   3.390   4.636  10.885  1.2648  0.6121  0.3265
 3181TIP3    H231035   3.366   4.767  10.813 -2.1273 -0.8387 -1.4422
 3182TIP3   OH231036   1.117   3.922  14.179 -0.7940 -0.2279  0.5388
 3182TIP3    H131037   1.045   3.915  14.243  0.6297 -1.4204  2.1048
 3182TIP3    H231038   1.184   3.973  14.225 -0.6249  0.9438 -0.9344
 3183TIP3   OH231039   3.087   1.519  12.521 -0.0938 -0.0397 -0.2781
 3183TIP3    H131040   3.092   1.452  12.453  0.4752 -1.1716  0.8232
 3183TIP3    H231041   2.994   1.529  12.539 -0.1438 -1.6144  0.5168
 3184TIP3   OH231042   0.340   1.999  11.533 -0.2591  0.6509 -0.1641
 3184TIP3    H131043   0.408   1.938  11.501 -0.6087 -0.7418  1.6021
 3184TIP3    H231044   0.334   2.065  11.464  1.9031  0.0540 -1.0296
 3185TIP3   OH231045   1.821   6.572  15.079 -0.4124  0.0496 -0.1030
 3185TIP3    H131046   1.767   6.569  15.000 -1.6510  1.5617  0.6277
 3185TIP3    H231047   1.760   6.596  15.149  1.0257  0.8071  0.9486
 3186TIP3   OH231048   0.582   3.737   2.956  0.3274  0.8897  0.2115
 3186TIP3    H131049   0.560   3.721   3.047 -0.8918  0.1887 -0.1895
 3186TIP3    H231050   0.657   3.681   2.939  0.3752  0.8063  0.6987
 3187TIP3   OH231051   1.590   1.267   2.935 -0.4864 -0.0471 -0.4345
 3187TIP3    H131052   1.578   1.173   2.948 -1.5832  0.2613  0.9864
 3187TIP3    H231053   1.619   1.275   2.844  4.6675 -2.1115  0.6720
 3188TIP3   OH231054   1.161   4.623  17.009  0.0250 -0.1603  0.2683
 3188TIP3    H131055   1.151   4.545  17.064  0.9453 -0.0552  0.6036
 3188TIP3    H231056   1.182   4.588  16.922  1.5384 -0.2877  0.6626
 3189TIP3   OH231057   1.236   6.159  17.074  0.1177  0.4387  0.3587
 3189TIP3    H131058   1.240   6.159  17.169  1.8365  3.7404  0.4372
 3189TIP3    H231059   1.151   6.198  17.052  0.4384  1.3140  0.6265
 3190TIP3   OH231060   5.568   6.645   4.769  0.1305 -0.2035  0.6333
 3190TIP3    H131061   5.546   6.735   4.748  0.9861 -0.2415 -0.5457
 3190TIP3    H231062   5.583   6.603   4.684 -1.5356 -1.8168  1.0527
 3191TIP3   OH231063   3.123   0.993  13.826  0.7306 -0.2812 -0.2724
 3191TIP3    H131064   3.062   1.013  13.755 -0.2985 -0.4551  0.5390
 3191TIP3    H231065   3.084   0.918  13.871  1.4997 -0.3387  0.3240
 3192TIP3   OH231066   2.747   6.816  14.432  0.0580  0.9733 -0.0426
 3192TIP3    H131067   2.776   6.783  14.346 -0.5317  0.1871  0.0477
 3192TIP3    H231068   2.763   6.911  14.427  2.3425  0.6562 -0.0987
 3193TIP3   OH231069   1.987   5.899  15.336  0.4287  0.1351 -0.1332
 3193TIP3    H131070   1.944   5.962  15.278  0.1998  2.0459  1.9767
 3193TIP3    H231071   2.079   5.901  15.310  0.4097  1.3051 -0.1560
 3194TIP3   OH231072   1.804   6.662   3.350 -0.7620  0.0444  0.1261
 3194TIP3    H131073   1.867   6.727   3.382 -2.3839  1.1093  1.3063
 3194TIP3    H231074   1.732   6.664   3.413 -1.5588 -1.8567 -0.6204
 3195TIP3   OH231075   0.790   0.221  13.077 -0.1668 -0.2086 -0.0847
 3195TIP3    H131076   0.790   0.151  13.012  1.3305  1.4285 -2.0049
 3195TIP3    H231077   0.876   0.263  13.066 -0.3429  0.8551  2.1725
 3196TIP3   OH231078   3.350   2.250  11.593 -0.2859 -0.0886  0.1440
 3196TIP3    H131079   3.442   2.263  11.573 -0.5213  0.9687 -0.3125
 3196TIP3    H231080   3.311   2.220  11.511 -0.5500  0.5826  0.0131
 3197TIP3   OH231081   5.747   0.457  14.517  0.3153  0.6198 -0.6633
 3197TIP3    H131082   5.672   0.405  14.488  0.9520 -0.3437 -0.6384
 3197TIP3    H231083   5.709   0.528  14.568 -0.5636 -0.0237 -0.4033
 3198TIP3   OH231084   6.539   2.926  13.753  0.1702  0.7037 -0.3087
 3198TIP3    H131085   6.619   2.905  13.802 -0.7427 -0.1238  0.8973
 3198TIP3    H231086   6.505   2.841  13.725 -1.4111  0.8243  1.0659
 3199TIP3   OH231087   4.323   3.796  12.168  0.8606 -1.1098  0.0064
 3199TIP3    H131088   4.344   3.887  12.144  0.8929 -1.3037 -0.7296
 3199TIP3    H231089   4.344   3.791  12.261  0.0323 -0.1186  0.2666
 3200TIP3   OH231090   0.692   5.031  14.489  0.2118  0.9905 -0.3201
 3200TIP3    H131091   0.746   5.063  14.561  0.4018  0.9113 -0.4268
 3200TIP3    H231092   0.755   5.002  14.423  0.0476  1.6172 -0.7702
 3201TIP3   OH231093   0.326   4.247   5.608 -0.4011  0.1644  0.0343
 3201TIP3    H131094   0.266   4.219   5.539  0.5994 -2.2272  0.0111
 3201TIP3    H231095   0.292   4.205   5.687  1.4476 -1.7407 -0.0825
 3202TIP3   OH231096   3.821   4.390  16.075 -0.3654 -0.2983 -0.5004
 3202TIP3    H131097   3.841   4.425  15.988  0.1842  0.4043 -0.1041
 3202TIP3    H231098   3.843   4.297  16.069 -2.0983 -0.6677 -1.6442
 3203TIP3   OH231099   5.135   3.359   1.817 -0.1324  0.5122  0.4003
 3203TIP3    H131100   5.096   3.446   1.810 -1.3139  0.0244  0.7170
 3203TIP3    H231101   5.207   3.360   1.754  0.1778  1.8700  0.7413
 3204TIP3   OH231102   5.233   0.593   0.717 -0.6488 -0.0887 -0.6516
 3204TIP3    H131103   5.270   0.506   0.733 -0.6505 -0.0886 -0.6470
 3204TIP3    H231104   5.239   0.638   0.801 -1.6350 -0.4570 -0.3702
 3205TIP3   OH231105   0.285   6.337   5.148  0.5645 -0.4406  0.3470
 3205TIP3    H131106   0.348   6.270   5.175  2.2332  1.6363  1.8191
 3205TIP3    H231107   0.252   6.304   5.064  0.2695 -3.7535  1.5877
 3206TIP3   OH231108   4.502   1.069   1.856 -0.0280 -0.2680 -0.0479
 3206TIP3    H131109   4.495   1.143   1.796  0.7247 -0.3263 -0.2182
 3206TIP3    H231110   4.592   1.037   1.844 -0.1876 -0.8950  0.3870
 3207TIP3   OH231111   4.640   0.628  13.025 -0.4777 -1.0844 -0.4007
 3207TIP3    H131112   4.586   0.560  12.984 -1.7570 -0.4109  0.0876
 3207TIP3    H231113   4.624   0.706  12.971  1.3070 -1.2277 -1.2128
 3208TIP3   OH231114   4.156   4.746  14.519 -0.0393  0.0163  0.0828
 3208TIP3    H131115   4.235   4.793  14.549 -0.2172  0.3586  0.0175
 3208TIP3    H231116   4.146   4.771  14.428 -0.1270 -0.1634  0.0438
 3209TIP3   OH231117   6.054   3.617  12.954 -0.3127 -0.9706  0.1688
 3209TIP3    H131118   5.980   3.571  12.995 -0.1961 -2.1295 -0.8632
 3209TIP3    H231119   6.033   3.710  12.965 -2.9264 -1.1960 -1.6817
 3210TIP3   OH231120   3.909   0.051   6.152 -0.0429  0.0914 -0.3013
 3210TIP3    H131121   4.003   0.033   6.152  0.1731  1.0508  1.1314
 3210TIP3    H231122   3.869  -0.031   6.183  0.5283  0.4194  1.4028
 3211TIP3   OH231123   6.247   3.167   0.698  0.1255  0.2616 -0.4017
 3211TIP3    H131124   6.254   3.081   0.740  1.9759  0.8740  0.6590
 3211TIP3    H231125   6.275   3.152   0.608  0.5614 -0.2288 -0.1909
 3212TIP3   OH231126   2.614   6.739  15.062  0.2766  0.5169  0.5746
 3212TIP3    H131127   2.541   6.681  15.042  0.8555  0.0299 -0.1730
 3212TIP3    H231128   2.600   6.764  15.154 -2.4387  2.8102 -0.3296
 3213TIP3   OH231129   1.257   2.875  16.573 -0.1595  0.1549  0.0448
 3213TIP3    H131130   1.235   2.955  16.621  0.7644 -1.1220  2.8485
 3213TIP3    H231131   1.209   2.882  16.491  0.6011  3.9763 -0.2961
 3214TIP3   OH231132   0.093   2.906  10.452  0.7727  0.4563 -0.2240
 3214TIP3    H131133   0.011   2.876  10.490  1.0761  1.2050  1.0895
 3214TIP3    H231134   0.069   2.945  10.368 -0.2450  0.8386  0.2349
 3215TIP3   OH231135   6.232   0.169  15.228  0.1214 -0.4643  0.0332
 3215TIP3    H131136   6.220   0.261  15.205 -0.3780 -0.4097  0.4796
 3215TIP3    H231137   6.296   0.136  15.165  1.1049  0.4488  0.5228
 3216TIP3   OH231138   3.569   3.352  16.338  0.0381 -0.2057  0.3020
 3216TIP3    H131139   3.641   3.294  16.365  2.3255  1.6774 -1.3280
 3216TIP3    H231140   3.589   3.436  16.380 -0.8249  0.5535 -0.7677
 3217TIP3   OH231141   6.762   3.188  14.380  0.4046  0.1873 -0.0756
 3217TIP3    H131142   6.737   3.242  14.306 -0.2238  1.7976  1.2439
 3217TIP3    H231143   6.850   3.216  14.402  0.4485 -0.0219  0.0206
 3218TIP3   OH231144   0.779   0.127   1.458  0.4219  0.4220 -0.3860
 3218TIP3    H131145   0.686   0.108   1.451  0.9130 -2.0052 -1.5605
 3218TIP3    H231146   0.788   0.215   1.423 -1.1284 -0.4234 -3.3502
 3219TIP3   OH231147   0.085   0.661  13.513 -0.1608  0.5405 -0.0373
 3219TIP3    H131148   0.033   0.581  13.514 -0.8527  0.9351 -1.5057
 3219TIP3    H231149   0.096   0.682  13.421 -0.8209  2.6498  0.2968
 3220TIP3   OH231150   6.605   1.182  15.414  0.2808 -0.0376 -0.1855
 3220TIP3    H131151   6.682   1.144  15.457 -1.1041 -2.2570  0.4714
 3220TIP3    H231152   6.553   1.220  15.485  0.1732  0.3677 -0.4770
 3221TIP3   OH231153   3.758   3.276   3.399  0.0838  0.4440  0.2269
 3221TIP3    H131154   3.809   3.318   3.329  0.7190  0.5441  0.7415
 3221TIP3    H231155   3.674   3.257   3.358  0.7308 -0.2910 -0.8276
 3222TIP3   OH231156   1.096   6.573   5.575 -0.1154  0.6573 -0.1644
 3222TIP3    H131157   1.096   6.497   5.633 -0.3667  0.4124 -0.4843
 3222TIP3    H231158   1.184   6.574   5.537  0.3190  1.2898  0.8302
 3223TIP3   OH231159   1.988   2.164  16.405 -0.3109  0.1861 -0.1744
 3223TIP3    H131160   2.057   2.230  16.405 -0.3432  0.2246 -0.5891
 3223TIP3    H231161   1.963   2.154  16.497 -1.2653  1.7572 -0.2420
 3224TIP3   OH231162   3.120   4.436   6.073  0.4929 -0.2712  0.3726
 3224TIP3    H131163   3.198   4.386   6.096 -0.6133 -0.9102  3.0270
 3224TIP3    H231164   3.063   4.429   6.149 -2.7319 -0.8810 -1.8752
 3225TIP3   OH231165   0.196   2.911   0.255 -0.3906  0.1856  0.4613
 3225TIP3    H131166   0.225   2.867   0.335 -2.3323 -0.3587  0.9156
 3225TIP3    H231167   0.199   2.844   0.188 -0.7993  0.0714  0.5566
 3226TIP3   OH231168   1.397   0.738   1.501  0.4114  0.3896 -0.3981
 3226TIP3    H131169   1.398   0.788   1.419 -1.1705 -0.8487 -1.2193
 3226TIP3    H231170   1.305   0.718   1.516  0.7903 -0.3601  1.1180
 3227TIP3   OH231171   5.393   5.314   1.372 -0.3201  0.3200  0.5427
 3227TIP3    H131172   5.458   5.383   1.379 -0.4452  0.3996  0.9579
 3227TIP3    H231173   5.439   5.235   1.400  0.1497  0.0147 -0.9940
 3228TIP3   OH231174   5.390   6.352   0.094 -0.4882 -0.0684  0.0834
 3228TIP3    H131175   5.300   6.371   0.069 -0.2766 -0.1014 -0.7155
 3228TIP3    H231176   5.407   6.264   0.062 -0.0208  0.1155 -0.1917
 3229TIP3   OH231177   3.446   2.376  14.556 -0.2860  0.5250  0.0338
 3229TIP3    H131178   3.501   2.453  14.571 -0.8664  0.7093  1.3995
 3229TIP3    H231179   3.507   2.306  14.532  0.2347  1.4121 -1.3241
 3230TIP3   OH231180   5.355   2.452   2.686 -0.3666 -0.1888  0.1875
 3230TIP3    H131181   5.355   2.478   2.778 -0.0661 -0.3733  0.2393
 3230TIP3    H231182   5.312   2.525   2.641  0.6938  0.5264  0.3010
 3231TIP3   OH231183   4.951   6.475  14.567  0.5094  0.2601 -0.5389
 3231TIP3    H131184   4.880   6.469  14.503 -2.8020 -3.9006  2.9587
 3231TIP3    H231185   5.015   6.410  14.537 -0.0074 -0.1809 -0.6916
 3232TIP3   OH231186   3.470   2.221  16.489  0.2245  0.3913  0.6577
 3232TIP3    H131187   3.559   2.195  16.513  0.2904  0.0227  0.0421
 3232TIP3    H231188   3.442   2.280  16.558  1.3583  1.3926  0.2778
 3233TIP3   OH231189   5.823   1.046  12.107  0.1001 -0.2813 -0.2653
 3233TIP3    H131190   5.812   0.960  12.067  0.4236 -0.3591 -0.1909
 3233TIP3    H231191   5.774   1.105  12.050 -1.4786 -0.7302  0.5757
 3234TIP3   OH231192   5.957   2.022   2.720  0.1810 -0.1577 -0.1436
 3234TIP3    H131193   6.039   1.977   2.743  0.0678 -1.1193 -1.5020
 3234TIP3    H231194   5.903   2.014   2.798  0.6648 -1.2386  0.1001
 3235TIP3   OH231195   5.179   0.553   2.195 -0.1039 -0.3000  0.4437
 3235TIP3    H131196   5.150   0.465   2.171  0.0351 -0.8503  2.1673
 3235TIP3    H231197   5.159   0.560   2.288 -0.6469  1.7216  0.2228
 3236TIP3   OH231198   1.469   3.162  12.145  0.4584  0.2551  0.0220
 3236TIP3    H131199   1.539   3.168  12.080 -2.0651  0.3031 -2.9119
 3236TIP3    H231200   1.441   3.070  12.143  0.5892  0.1598  1.3909
 3237TIP3   OH231201   0.951   2.114   5.711  0.2778 -0.3232 -0.2418
 3237TIP3    H131202   0.888   2.043   5.718  0.6177 -0.4855  1.6723
 3237TIP3    H231203   0.935   2.168   5.788  1.6028  0.3533 -0.4112
 3238TIP3   OH231204   5.128   4.748   3.653 -0.3159 -0.3454 -0.1232
 3238TIP3    H131205   5.109   4.780   3.741 -2.4091  0.9686 -0.9782
 3238TIP3    H231206   5.132   4.827   3.599 -0.6834 -1.2183 -1.4723
 3239TIP3   OH231207   5.048   4.279  12.420 -0.1610  0.1912  0.1357
 3239TIP3    H131208   4.987   4.280  12.494  1.2165 -0.7993  1.3492
 3239TIP3    H231209   5.099   4.359  12.429 -0.6800  0.5823 -0.3609
 3240TIP3   OH231210   4.958   4.266   5.317  0.5211 -0.4022  0.1949
 3240TIP3    H131211   4.994   4.198   5.375 -0.3700 -0.5609  0.5792
 3240TIP3    H231212   4.864   4.248   5.316  0.7123 -1.8963 -3.2143
 3241TIP3   OH231213   1.375   6.291   0.758 -0.0358  0.6416  0.1039
 3241TIP3    H131214   1.453   6.237   0.767  0.5485  1.7662  2.6387
 3241TIP3    H231215   1.339   6.267   0.672  1.9633 -1.3395 -0.2764
 3242TIP3   OH231216   6.236   1.925  12.400  0.4589 -0.2395 -0.0909
 3242TIP3    H131217   6.319   1.944  12.443  0.3516 -0.2152  0.1106
 3242TIP3    H231218   6.249   1.841  12.357  1.4991  1.0203 -2.4200
 3243TIP3   OH231219   5.303   1.833   0.404  0.8069  0.6406  0.3758
 3243TIP3    H131220   5.254   1.752   0.421  0.3571  1.2239  2.0977
 3243TIP3    H231221   5.344   1.819   0.319 -3.0327  0.4106 -1.6989
 3244TIP3   OH231222   1.263   3.645  11.277 -0.1238 -0.0632 -0.1215
 3244TIP3    H131223   1.355   3.625  11.258  0.7111  2.2515  1.1272
 3244TIP3    H231224   1.261   3.662  11.371 -1.9328 -0.4147 -0.0647
 3245TIP3   OH231225   0.213   4.622  12.081  0.4361  0.1795  0.0462
 3245TIP3    H131226   0.307   4.620  12.101  0.3177 -0.7204  0.5380
 3245TIP3    H231227   0.193   4.533  12.053 -0.3382  0.2968  0.2247
 3246TIP3   OH231228   3.174   1.423  11.256  0.8477 -0.3357 -0.0275
 3246TIP3    H131229   3.157   1.483  11.183  0.9540  0.4277  0.5663
 3246TIP3    H231230   3.193   1.480  11.330  0.8317 -1.1078  0.5819
 3247TIP3   OH231231   1.983   4.240   6.331  0.0072  0.5762 -0.5641
 3247TIP3    H131232   1.990   4.168   6.269  1.0205  0.8230 -0.7479
 3247TIP3    H231233   2.041   4.216   6.403 -0.8326  0.4903  0.0995
 3248TIP3   OH231234   2.171   5.161   0.420 -0.3442 -0.3872 -0.1894
 3248TIP3    H131235   2.161   5.198   0.507  0.4675 -1.0114  0.1811
 3248TIP3    H231236   2.198   5.235   0.365  3.4725 -0.7134  0.9768
 3249TIP3   OH231237   3.281   5.200  15.838  0.0590 -0.1825 -0.3561
 3249TIP3    H131238   3.371   5.172  15.820  0.1367 -0.0712 -0.1407
 3249TIP3    H231239   3.246   5.131  15.894  0.9366  1.1785  1.9824
 3250TIP3   OH231240   3.052   0.714   5.023 -0.1456  0.4001  0.4807
 3250TIP3    H131241   3.139   0.698   5.060 -0.0867  0.9493  0.5991
 3250TIP3    H231242   3.004   0.758   5.094 -0.7732 -0.5942  0.6859
 3251TIP3   OH231243   3.036   2.429   2.102 -0.1876  0.4027  0.0096
 3251TIP3    H131244   3.014   2.398   2.014  1.4220 -0.5725 -0.0896
 3251TIP3    H231245   2.979   2.378   2.160  0.6556 -0.9950 -0.3253
 3252TIP3   OH231246   1.103   3.839  14.507 -0.0987  0.6279 -0.1998
 3252TIP3    H131247   1.015   3.859  14.475  0.0561  0.8577 -0.4860
 3252TIP3    H231248   1.090   3.807  14.596 -0.3481  1.9918  0.2681
 3253TIP3   OH231249   2.787   0.030   5.469  0.1206 -0.5182 -0.4191
 3253TIP3    H131250   2.824   0.098   5.413  0.2488 -0.2483 -0.0075
 3253TIP3    H231251   2.833   0.040   5.553 -0.4959 -0.5276 -0.0760
 3254TIP3   OH231252   5.785   1.984  12.345  0.2626 -0.3966  0.1905
 3254TIP3    H131253   5.853   2.030  12.296 -0.3094 -0.7490 -0.9956
 3254TIP3    H231254   5.706   2.037  12.331  0.4319  0.5057  2.2887
 3255TIP3   OH231255   1.647   0.236   5.804 -0.1365 -0.4912 -0.3349
 3255TIP3    H131256   1.610   0.272   5.885  1.7023  3.7497 -1.0968
 3255TIP3    H231257   1.739   0.218   5.826  0.5815  1.3891 -1.4749
 3256TIP3   OH231258   6.747   2.397  17.080 -0.5228  0.2811 -0.2067
 3256TIP3    H131259   6.690   2.364  17.011 -1.7635  0.2034  0.8199
 3256TIP3    H231260   6.717   2.487  17.095  1.2909  1.1430 -1.3583
 3257TIP3   OH231261   4.607   3.496  15.271  0.4098  0.3100  0.2290
 3257TIP3    H131262   4.689   3.530  15.237  0.1991 -0.2490 -0.8881
 3257TIP3    H231263   4.598   3.410  15.231 -1.5296  1.0269 -1.0654
 3258TIP3   OH231264   4.957   3.635  14.878 -0.2052  0.5905  0.0503
 3258TIP3    H131265   4.939   3.551  14.837  1.6742 -1.5290  3.0855
 3258TIP3    H231266   5.003   3.612  14.959 -1.3013  4.4698  2.0193
 3259TIP3   OH231267   5.424   6.794  12.144  0.0117 -0.0685 -0.0571
 3259TIP3    H131268   5.357   6.860  12.127 -1.7573 -1.3144  1.5896
 3259TIP3    H231269   5.472   6.827  12.220  0.5543  0.3042 -0.5550
 3260TIP3   OH231270   0.325   2.722  16.454 -0.7028 -0.0485  0.0321
 3260TIP3    H131271   0.244   2.676  16.434 -2.3444  2.8549 -0.6900
 3260TIP3    H231272   0.314   2.752  16.544  0.9354 -2.0834  0.9773
 3261TIP3   OH231273   6.669   4.278  11.450 -1.0571 -0.2581 -0.1488
 3261TIP3    H131274   6.620   4.256  11.529 -1.5852  0.1465 -0.3578
 3261TIP3    H231275   6.685   4.372  11.457  1.1692 -0.6282  0.7361
 3262TIP3   OH231276   6.287   6.737   1.560 -0.3355 -0.5312 -0.6717
 3262TIP3    H131277   6.308   6.644   1.562 -0.1725 -0.4893 -0.0211
 3262TIP3    H231278   6.345   6.773   1.493 -1.0760 -1.0392 -1.6200
 3263TIP3   OH231279   0.592   4.171  13.424  0.0113  0.3352 -0.2833
 3263TIP3    H131280   0.511   4.161  13.373  1.1530 -0.0408 -2.1057
 3263TIP3    H231281   0.647   4.097  13.396  1.1924  0.8871  0.5147
 3264TIP3   OH231282   2.715   0.932   4.451 -0.5043  0.3284  0.5304
 3264TIP3    H131283   2.724   0.982   4.532  0.5377 -0.1643  0.7297
 3264TIP3    H231284   2.661   0.857   4.475  0.8234 -0.4816  1.1015
 3265TIP3   OH231285   1.318   3.450   5.763 -0.1749 -0.4097 -1.0215
 3265TIP3    H131286   1.359   3.365   5.778 -1.1964 -0.6380  0.7647
 3265TIP3    H231287   1.244   3.431   5.706 -0.5945 -0.7789 -0.3567
 3266TIP3   OH231288   0.593   3.707   2.116  0.6551  0.1394  0.0496
 3266TIP3    H131289   0.500   3.723   2.132  0.3252 -0.6884 -0.9327
 3266TIP3    H231290   0.602   3.612   2.125  0.3401 -0.5776 -4.6146
 3267TIP3   OH231291   5.250   1.281   5.957  0.7649 -0.1852 -0.2001
 3267TIP3    H131292   5.198   1.355   5.988  0.1323 -0.8403  0.3207
 3267TIP3    H231293   5.337   1.295   5.995  0.8448  0.6384 -0.6564
 3268TIP3   OH231294   0.253   6.265  14.604  0.5230  0.1854  0.4370
 3268TIP3    H131295   0.289   6.316  14.531  0.4715 -0.4089 -0.0126
 3268TIP3    H231296   0.325   6.208  14.631  0.5667  0.4596  0.9076
 3269TIP3   OH231297   0.971   6.393   5.181  0.1665 -0.0127  0.5586
 3269TIP3    H131298   0.906   6.346   5.233 -1.4953  0.5695 -0.8807
 3269TIP3    H231299   1.049   6.396   5.236 -0.2200 -2.8585  1.3861
 3270TIP3   OH231300   1.509   4.856   0.708  0.2072 -0.5727 -0.8159
 3270TIP3    H131301   1.511   4.771   0.663 -0.1442 -0.5074 -0.9587
 3270TIP3    H231302   1.478   4.834   0.797 -3.3872 -0.2112 -1.8136
 3271TIP3   OH231303   6.188   0.619  16.757 -0.2291  0.0970  0.2458
 3271TIP3    H131304   6.137   0.649  16.681  1.0258 -1.2416 -1.1754
 3271TIP3    H231305   6.277   0.651  16.740  0.0978 -0.3451  1.0821
 3272TIP3   OH231306   1.897   6.597   2.335  0.0641 -0.2389  0.3589
 3272TIP3    H131307   1.822   6.639   2.377  1.7362  2.7876  0.6622
 3272TIP3    H231308   1.880   6.503   2.343 -2.7984  0.2946  1.9607
 3273TIP3   OH231309   2.768   2.746  13.709  0.2253 -0.4215 -0.1048
 3273TIP3    H131310   2.847   2.799  13.707 -0.1143  0.2396  1.8684
 3273TIP3    H231311   2.799   2.656  13.702  1.4573 -0.3573  3.0129
 3274TIP3   OH231312   0.234   6.142   1.130 -0.0098 -0.0770 -0.3261
 3274TIP3    H131313   0.273   6.201   1.195 -0.4883 -0.7549  0.6093
 3274TIP3    H231314   0.178   6.084   1.182 -0.9063 -0.2304 -1.4328
 3275TIP3   OH231315   0.688   6.340   3.169 -0.0601 -0.0725  0.1295
 3275TIP3    H131316   0.605   6.294   3.171 -1.1395  1.7444  2.4059
 3275TIP3    H231317   0.677   6.408   3.103  0.2735 -0.8488 -0.7517
 3276TIP3   OH231318   5.471   1.717   3.546 -0.0686 -0.1660 -0.5579
 3276TIP3    H131319   5.451   1.764   3.465 -0.0286  1.3808  0.2746
 3276TIP3    H231320   5.565   1.732   3.560 -0.3105  0.6173  0.3635
 3277TIP3   OH231321   1.460   2.174  12.903  0.1644 -0.2418  0.2649
 3277TIP3    H131322   1.471   2.212  12.816 -0.0359  0.8322  0.6873
 3277TIP3    H231323   1.548   2.179  12.943 -0.1139  0.9781  0.7721
 3278TIP3   OH231324   2.906   1.854   3.081  0.0034 -0.1807 -0.0385
 3278TIP3    H131325   2.998   1.877   3.076  0.4671 -1.6520  0.8886
 3278TIP3    H231326   2.872   1.904   3.155  0.3377 -0.4614  0.3074
 3279TIP3   OH231327   6.344   0.578   0.392  0.1093 -0.1908  0.5534
 3279TIP3    H131328   6.334   0.555   0.485 -2.9226  0.8328  0.5866
 3279TIP3    H231329   6.375   0.669   0.394  1.5704 -0.6606  0.4970
 3280TIP3   OH231330   3.232   1.140  15.808  0.1126 -0.2743  0.2345
 3280TIP3    H131331   3.307   1.167  15.755 -0.0041 -0.0353  0.1908
 3280TIP3    H231332   3.266   1.139  15.898 -0.1101  0.8561  0.3388
 3281TIP3   OH231333   6.038   1.343   1.434 -0.1923 -0.1103  0.1396
 3281TIP3    H131334   6.012   1.259   1.396  1.4188 -1.1090  1.1328
 3281TIP3    H231335   6.134   1.341   1.434 -0.1097  1.7177  0.2580
 3282TIP3   OH231336   4.540   2.200   5.636 -0.3710  0.1581 -0.4725
 3282TIP3    H131337   4.553   2.193   5.730 -1.6621 -1.9438 -0.3806
 3282TIP3    H231338   4.577   2.118   5.601 -2.4049 -0.4132 -1.4266
 3283TIP3   OH231339   2.794   0.523  11.818  0.1572  0.2684  0.5976
 3283TIP3    H131340   2.773   0.599  11.871  2.2582  0.3302  1.4163
 3283TIP3    H231341   2.831   0.559  11.737 -0.3325  0.1331  0.3109
 3284TIP3   OH231342   0.183   0.864   0.653 -0.5778 -0.0219 -0.2359
 3284TIP3    H131343   0.271   0.886   0.622 -0.5488  0.2560  0.0306
 3284TIP3    H231344   0.125   0.889   0.581 -0.3523 -1.2984 -0.8897
 3285TIP3   OH231345   0.585   2.445  13.926 -0.6021  0.0864  0.0342
 3285TIP3    H131346   0.625   2.417  14.008  0.4012 -0.4102 -0.6052
 3285TIP3    H231347   0.496   2.409  13.928 -0.8056  0.6207  1.1698
 3286TIP3   OH231348   3.693   4.145  15.725  0.1864  0.6943 -0.2160
 3286TIP3    H131349   3.649   4.229  15.712 -0.1519  0.3422 -1.4650
 3286TIP3    H231350   3.766   4.147  15.663 -0.1094 -0.1242 -0.6002
 3287TIP3   OH231351   1.774   6.261  12.859 -0.1383 -0.5414 -0.2368
 3287TIP3    H131352   1.758   6.342  12.907  0.7050  0.5790 -1.7552
 3287TIP3    H231353   1.688   6.220  12.852 -0.9727  1.2644 -1.1783
 3288TIP3   OH231354   4.755   3.091   1.985  0.1542  0.2468  0.2978
 3288TIP3    H131355   4.838   3.050   1.960 -0.3083 -0.5443  0.0449
 3288TIP3    H231356   4.762   3.181   1.951  1.2968  0.4861  1.1233
 3289TIP3   OH231357   5.754   5.999   5.670  0.0135  0.3590  0.2088
 3289TIP3    H131358   5.714   5.958   5.593 -1.1447  1.7225  0.0402
 3289TIP3    H231359   5.837   5.954   5.681 -1.0934 -1.8805 -0.0607
 3290TIP3   OH231360   3.966   4.892   1.951 -0.4209  0.4424 -0.3143
 3290TIP3    H131361   3.969   4.808   1.998 -0.9859  0.1980 -0.7054
 3290TIP3    H231362   4.058   4.916   1.939 -0.1855 -1.0679 -1.8618
 3291TIP3   OH231363   2.686   6.609   4.938 -0.3657 -0.5366  0.3879
 3291TIP3    H131364   2.766   6.565   4.964 -0.6735 -1.4643 -0.1969
 3291TIP3    H231365   2.702   6.702   4.957  0.8886 -0.6889  0.1521
 3292TIP3   OH231366   4.771   1.844   0.075  0.7409  0.2287 -0.0297
 3292TIP3    H131367   4.832   1.803   0.137 -0.9753  0.4001  1.8654
 3292TIP3    H231368   4.723   1.771   0.036 -0.9590  0.2233  1.9039
 3293TIP3   OH231369   0.336   5.474   6.032 -0.1658  0.6895  0.5497
 3293TIP3    H131370   0.395   5.548   6.022 -0.1695  0.7760  1.1160
 3293TIP3    H231371   0.376   5.420   6.100 -1.0316  1.0487  1.3619
 3294TIP3   OH231372   3.589   0.353   0.814 -0.1313 -0.3536 -0.3446
 3294TIP3    H131373   3.623   0.432   0.772 -1.0632 -0.3307 -1.0882
 3294TIP3    H231374   3.494   0.361   0.808 -0.2485 -1.5295 -0.4275
 3295TIP3   OH231375   0.635   1.193   2.706 -0.0066 -0.2551  0.1290
 3295TIP3    H131376   0.674   1.260   2.649  0.5101 -0.1451  0.6030
 3295TIP3    H231377   0.623   1.118   2.648  0.6065 -0.1790 -0.1110
 3296TIP3   OH231378   4.542   3.379   0.447 -0.1525 -0.0166  0.3371
 3296TIP3    H131379   4.483   3.435   0.497 -0.9963 -0.1699 -0.4608
 3296TIP3    H231380   4.487   3.306   0.419  0.4204 -0.1752 -0.4099
 3297TIP3   OH231381   1.550   3.151   0.776 -0.0815  0.1203  0.4570
 3297TIP3    H131382   1.644   3.141   0.760  0.1151 -0.1173  1.6486
 3297TIP3    H231383   1.531   3.242   0.754  0.1051 -0.2068 -1.2000
 3298TIP3   OH231384   3.493   5.996  14.139  0.2564 -0.1634 -0.2427
 3298TIP3    H131385   3.411   5.948  14.124 -2.5686  3.5831  1.5198
 3298TIP3    H231386   3.510   6.042  14.057 -0.9817  1.0304  0.1319
 3299TIP3   OH231387   4.390   1.827   2.198 -0.0759  0.4706  0.3969
 3299TIP3    H131388   4.390   1.912   2.155 -1.4160  0.1373 -0.3307
 3299TIP3    H231389   4.372   1.847   2.290  0.4121  1.0145  0.3839
 3300TIP3   OH231390   1.532   3.206  14.383  0.1363  0.0306 -0.2730
 3300TIP3    H131391   1.608   3.242  14.336 -1.1626  1.6240 -1.2560
 3300TIP3    H231392   1.456   3.239  14.334 -1.2171 -0.8380  1.1671
 3301TIP3   OH231393   4.707   6.297   3.540  0.3209  0.1127  0.5341
 3301TIP3    H131394   4.708   6.339   3.455  0.4798 -1.1724 -0.1229
 3301TIP3    H231395   4.690   6.368   3.602  0.2280  1.0642 -0.5554
 3302TIP3   OH231396   5.442   1.556  14.991  0.0568 -0.0374 -0.2173
 3302TIP3    H131397   5.350   1.559  14.964  0.8483 -0.1400 -3.3542
 3302TIP3    H231398   5.477   1.478  14.947  1.9364  0.7109 -0.1355
 3303TIP3   OH231399   1.640   6.683   5.465  0.6161  0.2601  0.3544
 3303TIP3    H131400   1.691   6.611   5.501  1.7670  0.5278 -0.6456
 3303TIP3    H231401   1.588   6.715   5.538  1.1717 -0.6583  1.1729
 3304TIP3   OH231402   4.582   0.628   3.836 -0.0708  0.3362 -0.3492
 3304TIP3    H131403   4.564   0.545   3.794 -1.5036 -0.2845  1.3582
 3304TIP3    H231404   4.497   0.658   3.869  0.8654  0.9355  1.7024
 3305TIP3   OH231405   0.264   4.898  16.185 -0.0730  0.0818  0.7256
 3305TIP3    H131406   0.344   4.874  16.232 -0.1795  1.1145  1.4444
 3305TIP3    H231407   0.294   4.950  16.111 -0.0311 -0.1764  0.5590
 3306TIP3   OH231408   0.674   0.856   6.339 -0.0498 -0.3239  0.0308
 3306TIP3    H131409   0.654   0.793   6.409  3.5770  0.2173  1.7827
 3306TIP3    H231410   0.634   0.938   6.369  0.8833 -0.2641  1.2037
 3307TIP3   OH231411   4.297   4.702   0.329 -0.2507  0.5919 -0.1176
 3307TIP3    H131412   4.332   4.732   0.413  0.0844  1.2508 -0.4849
 3307TIP3    H231413   4.326   4.768   0.266  1.2157 -0.9070 -1.0943
 3308TIP3   OH231414   1.283   5.063   0.626 -0.4067 -0.5577 -0.2629
 3308TIP3    H131415   1.193   5.065   0.594  0.1476 -1.6176 -2.0248
 3308TIP3    H231416   1.323   4.987   0.584  1.5344  0.3055 -0.1322
 3309TIP3   OH231417   4.140   6.538   2.025 -0.0607  0.0898 -0.6590
 3309TIP3    H131418   4.172   6.618   1.983 -0.6325  1.4636  1.3844
 3309TIP3    H231419   4.218   6.499   2.065 -0.2463  1.4153  1.0991
 3310TIP3   OH231420   0.684   5.512   6.666  0.0770 -0.3947  0.3004
 3310TIP3    H131421   0.687   5.542   6.575 -0.8835 -2.2515 -0.4010
 3310TIP3    H231422   0.631   5.578   6.711  1.7945  1.3461 -0.0946
 3311TIP3   OH231423   2.410   0.309   1.414  0.0585  0.0269  0.0201
 3311TIP3    H131424   2.502   0.294   1.433  0.4933  1.1279 -1.1382
 3311TIP3    H231425   2.381   0.228   1.371  0.3316 -0.5035  0.7984
 3312TIP3   OH231426   2.545   2.553  13.168  0.8187  0.2435 -0.7989
 3312TIP3    H131427   2.477   2.503  13.123  0.2233 -0.0452  0.3771
 3312TIP3    H231428   2.578   2.614  13.102  0.1316 -0.3084 -1.6758
 3313TIP3   OH231429   2.449   2.758  14.392  0.6042 -0.5305  0.1003
 3313TIP3    H131430   2.431   2.820  14.463 -1.2661 -0.1174 -0.6816
 3313TIP3    H231431   2.422   2.673  14.426 -1.7763 -0.1180 -0.5659
 3314TIP3   OH231432   0.601   1.490  13.948  0.1262  0.4170  0.4737
 3314TIP3    H131433   0.637   1.496  13.860 -2.1827  2.4880 -0.4363
 3314TIP3    H231434   0.573   1.579  13.969 -2.9322 -0.7089  1.6817
 3315TIP3   OH231435   6.605   3.187  13.259  0.4579  0.4262 -0.4275
 3315TIP3    H131436   6.619   3.128  13.333 -1.2631  0.3798 -0.1050
 3315TIP3    H231437   6.676   3.251  13.265  1.4774 -0.7117  0.0952
 3316TIP3   OH231438   2.253   4.090   5.149 -0.3309 -0.3452 -0.0024
 3316TIP3    H131439   2.317   4.091   5.220 -0.1342 -1.9086 -0.1204
 3316TIP3    H231440   2.177   4.043   5.185 -0.0188 -1.6490 -0.9673
 3317TIP3   OH231441   3.001   4.599   5.097  0.1586 -0.5088  0.2765
 3317TIP3    H131442   2.947   4.543   5.152  0.7821 -0.7458  0.6574
 3317TIP3    H231443   2.987   4.566   5.008 -1.0368  0.0319  0.2519
 3318TIP3   OH231444   4.037   2.242   5.303  0.2739 -0.2534  0.5108
 3318TIP3    H131445   4.005   2.189   5.376 -1.0139 -0.8257 -0.4090
 3318TIP3    H231446   4.109   2.192   5.266 -0.4628 -1.0480  0.0993
 3319TIP3   OH231447   6.263   3.865  16.146 -0.3190 -0.1184 -0.7151
 3319TIP3    H131448   6.193   3.917  16.185  0.2915 -0.4467  0.9078
 3319TIP3    H231449   6.229   3.776  16.143  0.1950 -0.4014  0.6755
 3320TIP3   OH231450   6.572   6.195   4.000  0.0304  0.0621  0.4655
 3320TIP3    H131451   6.621   6.231   3.926  2.5910 -1.9720  1.0042
 3320TIP3    H231452   6.601   6.246   4.075  0.2509 -0.2291  0.5805
 3321TIP3   OH231453   2.152   4.880  12.066 -0.2206 -0.2058 -0.0455
 3321TIP3    H131454   2.184   4.917  12.149 -1.2156  0.3181  0.1134
 3321TIP3    H231455   2.127   4.790  12.088  1.9492 -0.9495 -0.3720
 3322TIP3   OH231456   5.296   0.624  12.330  0.3795  0.2429 -0.8085
 3322TIP3    H131457   5.203   0.641  12.319  0.3720  0.3512 -0.5812
 3322TIP3    H231458   5.329   0.699  12.379  0.5788  0.1896 -0.8597
 3323TIP3   OH231459   2.767   3.775  15.461  0.3769  0.1171  0.3651
 3323TIP3    H131460   2.818   3.844  15.501  1.7855 -1.0707  0.7107
 3323TIP3    H231461   2.776   3.790  15.366  1.9268 -0.4257  0.3990
 3324TIP3   OH231462   6.776   3.153   0.095 -0.6222  0.1448 -0.8309
 3324TIP3    H131463   6.749   3.243   0.080 -0.4827  0.5576  1.1630
 3324TIP3    H231464   6.752   3.135   0.187 -1.2301 -2.0515 -1.3365
 3325TIP3   OH231465   6.311   1.590   3.264  0.3937  0.3336  0.0947
 3325TIP3    H131466   6.348   1.592   3.175 -0.7740  0.0370 -0.4243
 3325TIP3    H231467   6.346   1.510   3.303  0.6076  0.2628 -0.2382
 3326TIP3   OH231468   2.805   1.652  14.593  0.0606  0.1971 -0.4855
 3326TIP3    H131469   2.790   1.713  14.521  0.2197 -0.2255 -0.8910
 3326TIP3    H231470   2.829   1.707  14.667  0.0273  0.6356 -0.7948
 3327TIP3   OH231471   5.991   5.180   4.010 -0.5932  0.1061  0.7295
 3327TIP3    H131472   5.948   5.114   4.064  3.4180 -1.7312  2.0267
 3327TIP3    H231473   5.937   5.185   3.931 -3.4903 -1.3557  2.4482
 3328TIP3   OH231474   5.619   6.528  17.054  0.2028 -0.0910  0.2750
 3328TIP3    H131475   5.571   6.605  17.022  0.9884  0.4928  0.4523
 3328TIP3    H231476   5.581   6.454  17.007 -0.5030  0.4182  0.0267
 3329TIP3   OH231477   5.499   4.407  12.079 -0.6084  0.2996 -0.7320
 3329TIP3    H131478   5.511   4.317  12.050 -0.3721  0.8867 -2.5491
 3329TIP3    H231479   5.433   4.443  12.020  0.1359  1.6516 -0.7851
 3330TIP3   OH231480   5.959   1.669   2.212  0.4748  0.4054 -0.0499
 3330TIP3    H131481   5.867   1.695   2.223  0.0602 -0.7191 -0.7924
 3330TIP3    H231482   6.007   1.750   2.227 -0.3847  0.4413  3.5214
 3331TIP3   OH231483   6.558   3.990  13.522  0.3419 -0.9616 -0.7493
 3331TIP3    H131484   6.538   4.075  13.561  1.8036 -0.3936 -1.1951
 3331TIP3    H231485   6.493   3.981  13.452  0.9031  0.3400 -1.4675
 3332TIP3   OH231486   1.959   5.805   1.324  0.5622  0.3771  0.1477
 3332TIP3    H131487   2.002   5.773   1.244  1.2686  1.6904 -0.0258
 3332TIP3    H231488   2.031   5.823   1.384  0.3083  2.4469 -0.0871
 3333TIP3   OH231489   1.959   1.682   5.236 -0.3345  0.4045  0.0328
 3333TIP3    H131490   1.920   1.769   5.236 -0.6886  0.2505 -0.4549
 3333TIP3    H231491   1.888   1.624   5.263 -0.2991  0.1801 -0.3632
 3334TIP3   OH231492   4.454   1.969   0.946 -0.3331  0.2620 -0.0714
 3334TIP3    H131493   4.526   1.995   1.003 -0.2113 -0.0058 -0.1028
 3334TIP3    H231494   4.447   1.874   0.956 -0.0785  0.1609 -0.7640
 3335TIP3   OH231495   3.609   2.788   1.941 -0.7510 -0.1273  0.4270
 3335TIP3    H131496   3.526   2.830   1.920 -0.4266  0.6611  0.6659
 3335TIP3    H231497   3.675   2.842   1.898 -0.3661 -0.8169  0.1313
 3336TIP3   OH231498   0.105   5.295  16.577  0.3796  0.0529  0.4151
 3336TIP3    H131499   0.182   5.317  16.523  0.9486 -1.8235  0.3940
 3336TIP3    H231500   0.129   5.213  16.620 -0.5436  0.8732  2.6262
 3337TIP3   OH231501   6.657   5.375  10.822 -0.1884  0.2180 -0.4213
 3337TIP3    H131502   6.587   5.312  10.839 -1.3551  0.6191 -3.1045
 3337TIP3    H231503   6.648   5.440  10.892 -1.2126 -0.7938  0.4252
 3338TIP3   OH231504   0.331   3.459  12.017  0.0718  0.3527 -0.2393
 3338TIP3    H131505   0.363   3.547  12.001  0.5743  0.8955  3.1657
 3338TIP3    H231506   0.384   3.403  11.960 -0.4110  2.1681 -2.6218
 3339TIP3   OH231507   6.360   3.616   3.899  0.0926  0.4363  0.3256
 3339TIP3    H131508   6.323   3.630   3.986  1.7308 -1.4504  1.4201
 3339TIP3    H231509   6.453   3.637   3.910  0.0702  1.5698 -1.3775
 3340TIP3   OH231510   2.693   6.189  14.427 -0.0915 -0.1430  0.2007
 3340TIP3    H131511   2.651   6.243  14.494  1.3615  1.1715  0.1106
 3340TIP3    H231512   2.755   6.249  14.384  1.5775 -1.8688  0.0868
 3341TIP3   OH231513   5.720   5.799  14.927 -0.6604  0.3649 -0.2248
 3341TIP3    H131514   5.674   5.784  15.010 -3.0435  1.2393 -1.2779
 3341TIP3    H231515   5.795   5.853  14.950 -0.8070 -0.1025  1.4574
 3342TIP3   OH231516   5.604   0.962  15.457  0.3954  0.4836 -0.1491
 3342TIP3    H131517   5.690   0.926  15.481 -0.7125 -0.7523  2.4320
 3342TIP3    H231518   5.600   1.047  15.500  0.0781  0.2167  0.3628
 3343TIP3   OH231519   2.330   3.797   2.389  0.8578  0.3344  0.4040
 3343TIP3    H131520   2.351   3.703   2.390 -1.6681 -0.3885 -1.2782
 3343TIP3    H231521   2.406   3.840   2.427  2.5709 -2.3190  0.2385
 3344TIP3   OH231522   0.187   2.715  13.873  0.1282  0.2188 -0.0204
 3344TIP3    H131523   0.222   2.732  13.786  0.1985 -2.0123 -0.4673
 3344TIP3    H231524   0.263   2.684  13.923 -0.3100 -0.3694  0.2820
 3345TIP3   OH231525   6.468   0.602  13.150 -0.4481 -0.4791  0.1229
 3345TIP3    H131526   6.522   0.531  13.115 -1.7375 -1.6377  0.4076
 3345TIP3    H231527   6.379   0.581  13.121 -1.4280 -0.9155  3.0640
 3346TIP3   OH231528   1.167   4.534   2.541 -0.1351  0.6937 -0.2564
 3346TIP3    H131529   1.227   4.551   2.613  1.6518 -1.2442 -1.1867
 3346TIP3    H231530   1.083   4.568   2.571 -0.1299 -2.1982  3.8128
 3347TIP3   OH231531   3.904   5.165  14.489  1.0488 -0.0787 -0.2131
 3347TIP3    H131532   3.851   5.245  14.496  1.1978 -0.0048  0.1148
 3347TIP3    H231533   3.855   5.109  14.430  0.0251 -0.4662  0.9623
 3348TIP3   OH231534   3.577   1.449  15.039 -0.5639  0.0869 -0.0743
 3348TIP3    H131535   3.519   1.379  15.069 -0.5159 -0.1598 -0.5483
 3348TIP3    H231536   3.533   1.485  14.962 -0.7365  0.7843  0.3450
 3349TIP3   OH231537   6.130   4.805  13.679  0.2470  0.3552  0.2543
 3349TIP3    H131538   6.218   4.831  13.705  0.2326 -0.2410  0.9201
 3349TIP3    H231539   6.081   4.888  13.675  0.8894  0.7186 -0.3756
 3350TIP3   OH231540   5.245   5.018   4.429  0.2173  0.1663  0.6995
 3350TIP3    H131541   5.234   4.934   4.386 -0.3225  1.4916 -2.0173
 3350TIP3    H231542   5.331   5.013   4.472  0.8947 -1.2432 -0.7197
 3351TIP3   OH231543   1.519   6.683   5.218  0.0753 -0.3989  0.5472
 3351TIP3    H131544   1.562   6.668   5.302  1.8824  1.3012  0.0176
 3351TIP3    H231545   1.592   6.691   5.155 -0.7664  3.8984 -0.2116
 3352TIP3   OH231546   6.108   4.006  13.718  0.4793  0.2747  0.3075
 3352TIP3    H131547   6.126   3.980  13.628 -2.4885  0.4144 -0.4560
 3352TIP3    H231548   6.025   4.054  13.713  0.2720  0.4057  3.0974
 3353TIP3   OH231549   0.857   0.215  12.575 -0.2003 -0.3297  0.2625
 3353TIP3    H131550   0.923   0.222  12.506 -0.3896  1.9344  0.2194
 3353TIP3    H231551   0.779   0.183  12.530 -0.2754  0.9681 -0.5870
 3354TIP3   OH231552   3.530   4.834  14.025 -0.3980  0.0422 -0.4346
 3354TIP3    H131553   3.486   4.903  14.074  0.3378  0.6799 -0.6507
 3354TIP3    H231554   3.578   4.880  13.956 -0.0877 -0.7032 -0.7305
 3355TIP3   OH231555   2.618   3.999   5.220 -0.1086 -0.6543 -0.7951
 3355TIP3    H131556   2.566   4.074   5.193  4.7101  2.8125 -1.6909
 3355TIP3    H231557   2.669   3.975   5.143  1.4811 -2.0930  0.6020
 3356TIP3   OH231558   4.400   3.733  11.428 -0.3352  0.0538  0.3802
 3356TIP3    H131559   4.486   3.696  11.447  0.5361  1.5773 -0.3532
 3356TIP3    H231560   4.358   3.741  11.514  1.1327  1.2605  1.0468
 3357TIP3   OH231561   5.974   2.399   1.316 -0.7133  0.5011 -0.3788
 3357TIP3    H131562   6.009   2.327   1.369 -0.8472  0.7937  0.1207
 3357TIP3    H231563   5.953   2.467   1.380  1.0500  1.6794 -0.9759
 3358TIP3   OH231564   5.412   3.166   0.293 -0.5632 -0.0768 -0.2971
 3358TIP3    H131565   5.418   3.259   0.272 -0.7350  0.0614  0.2547
 3358TIP3    H231566   5.495   3.145   0.336 -1.0545  0.1436  0.7941
 3359TIP3   OH231567   3.178   0.470   2.921  0.0595  0.1914 -0.0325
 3359TIP3    H131568   3.145   0.386   2.954 -0.8893 -0.2000 -1.8374
 3359TIP3    H231569   3.227   0.447   2.842 -1.7297  1.4262 -1.6047
 3360TIP3   OH231570   0.307   2.649  11.164 -0.1060 -0.0345  0.5229
 3360TIP3    H131571   0.384   2.681  11.210  0.5127 -1.7803  0.7492
 3360TIP3    H231572   0.235   2.659  11.227 -0.1118  1.6452  0.2897
 3361TIP3   OH231573   5.497   5.630   6.165  0.3981 -0.0236 -0.4128
 3361TIP3    H131574   5.579   5.581   6.171  0.2081 -0.2072  0.9947
 3361TIP3    H231575   5.468   5.641   6.256 -1.1118  0.0882 -0.8690
 3362TIP3   OH231576   2.623   3.836  13.910  0.3434 -0.1904  0.3627
 3362TIP3    H131577   2.653   3.856  13.821 -2.7225  1.3197 -0.4660
 3362TIP3    H231578   2.623   3.920  13.955  0.7553 -0.7565  1.4577
 3363TIP3   OH231579   4.478   3.786  13.361 -0.0940 -0.1609  0.0448
 3363TIP3    H131580   4.402   3.804  13.417 -0.0964 -0.9449  0.2980
 3363TIP3    H231581   4.440   3.771  13.274 -0.1921 -0.1213  0.0796
 3364TIP3   OH231582   5.135   2.679   3.550 -0.1232  0.1377 -0.4903
 3364TIP3    H131583   5.092   2.761   3.527 -2.0404 -0.4626  0.7180
 3364TIP3    H231584   5.116   2.621   3.477 -2.8785 -0.5936  0.6651
 3365TIP3   OH231585   1.852   4.948   3.650 -0.0157  0.0725  0.2065
 3365TIP3    H131586   1.908   4.928   3.575 -1.7252  0.9032 -1.3691
 3365TIP3    H231587   1.911   4.989   3.714  0.7702  3.3612 -2.4175
 3366TIP3   OH231588   4.115   4.020  14.996  0.0604  0.3978 -0.0544
 3366TIP3    H131589   4.051   4.044  15.063 -0.1751  0.6624 -0.3702
 3366TIP3    H231590   4.066   3.967  14.933 -0.4777  2.5186 -1.5438
 3367TIP3   OH231591   1.507   1.967   2.694 -0.3520 -0.0546  0.0358
 3367TIP3    H131592   1.516   2.062   2.688 -0.6891 -0.1078 -1.7209
 3367TIP3    H231593   1.572   1.933   2.633 -0.0826 -0.9702  0.8177
 3368TIP3   OH231594   1.189   5.370  10.546 -0.7947 -0.1148  0.5823
 3368TIP3    H131595   1.172   5.332  10.460 -0.4277  0.2684  0.3353
 3368TIP3    H231596   1.272   5.331  10.574 -1.1925 -0.6608  1.0116
 3369TIP3   OH231597   1.841   4.936  14.330 -0.5720  0.0965 -0.3864
 3369TIP3    H131598   1.893   4.872  14.282 -0.7466 -0.5890  0.3083
 3369TIP3    H231599   1.765   4.952  14.274  0.6444  1.5716 -1.6949
 3370TIP3   OH231600   2.774   1.740   2.168 -0.1927 -0.5057 -0.8432
 3370TIP3    H131601   2.766   1.816   2.112 -0.3975  1.0107  1.1434
 3370TIP3    H231602   2.836   1.767   2.236 -0.4139 -2.0496  0.0122
 3371TIP3   OH231603   0.216   6.092   5.869 -0.1707  0.5401 -0.6404
 3371TIP3    H131604   0.168   6.033   5.927  0.0697  0.8340 -0.1388
 3371TIP3    H231605   0.156   6.107   5.796 -0.5598  0.3377 -0.3681
 3372TIP3   OH231606   6.446   0.667   1.651 -0.5266 -0.2405 -0.4457
 3372TIP3    H131607   6.400   0.661   1.735 -0.4607  1.8169 -0.1937
 3372TIP3    H231608   6.493   0.750   1.657  0.8245 -0.8638 -1.8834
 3373TIP3   OH231609   3.599   3.477  12.580 -0.0063 -0.6452 -0.4023
 3373TIP3    H131610   3.655   3.555  12.586  0.2216 -0.8436  0.0513
 3373TIP3    H231611   3.540   3.496  12.506 -0.9006  0.5769  0.5790
 3374TIP3   OH231612   0.894   4.983   0.872  0.2594 -0.5291 -0.6040
 3374TIP3    H131613   0.847   5.001   0.954  1.3063  0.0223 -0.1083
 3374TIP3    H231614   0.933   5.067   0.848 -0.4315 -0.5705 -1.9418
 3375TIP3   OH231615   6.169   2.602  16.995 -0.4334 -0.0097  0.2704
 3375TIP3    H131616   6.202   2.594  16.905 -1.4692 -1.4663 -0.0213
 3375TIP3    H231617   6.161   2.696  17.009 -0.4463  0.2469 -1.2542
 3376TIP3   OH231618   6.589   1.979  15.384  0.7047  0.4213 -0.2643
 3376TIP3    H131619   6.527   2.034  15.432 -1.1938 -1.5560 -0.3118
 3376TIP3    H231620   6.614   1.911  15.446  1.1559 -0.0292 -0.9274
 3377TIP3   OH231621   1.708   2.252  13.858  0.3730  0.2612  0.7395
 3377TIP3    H131622   1.802   2.252  13.880  0.5006  0.0611  0.2163
 3377TIP3    H231623   1.693   2.166  13.818  0.3152  0.8661 -0.5873
 3378TIP3   OH231624   1.076   4.231   1.530  0.4777 -0.5855  0.0720
 3378TIP3    H131625   1.131   4.308   1.544  0.2937 -0.4424 -0.0014
 3378TIP3    H231626   1.138   4.157   1.533  0.4331 -0.5975  1.8728
 3379TIP3   OH231627   0.935   0.988   5.827 -0.3843  0.3604 -0.0128
 3379TIP3    H131628   1.028   0.967   5.839  0.1575  0.3965 -3.2490
 3379TIP3    H231629   0.935   1.070   5.779 -2.0223 -0.4391 -1.4757
 3380TIP3   OH231630   5.438   1.386  17.202  0.5654 -0.5786 -0.5721
 3380TIP3    H131631   5.525   1.349  17.209  0.5364 -0.6185 -0.4284
 3380TIP3    H231632   5.379   1.310  17.204  0.5507 -0.5861 -1.1222
 3381TIP3   OH231633   6.741   0.628  14.767  0.1278  0.0402  0.0408
 3381TIP3    H131634   6.727   0.569  14.841 -2.2559 -1.7239 -1.6629
 3381TIP3    H231635   6.721   0.715  14.802 -1.3883 -0.7996  1.3984
 3382TIP3   OH231636   0.863   4.882   1.825  0.2248 -0.1107 -0.2139
 3382TIP3    H131637   0.818   4.847   1.748 -1.2641  0.1962  0.4744
 3382TIP3    H231638   0.914   4.956   1.792 -0.4063  0.0232 -0.9064
 3383TIP3   OH231639   0.463   6.727   6.086 -0.0351  0.0062  0.2969
 3383TIP3    H131640   0.501   6.662   6.027  0.7345  1.0057 -0.3384
 3383TIP3    H231641   0.488   6.696   6.173  0.2684 -0.5848  0.0122
 3384TIP3   OH231642   3.178   1.841  12.721 -0.3358  0.1521  0.1625
 3384TIP3    H131643   3.115   1.814  12.655  1.2529  1.1803 -1.8618
 3384TIP3    H231644   3.213   1.924  12.689  2.0907 -0.4045  1.1517
 3385TIP3   OH231645   1.412   0.678   5.639 -0.2965  0.8669 -0.1155
 3385TIP3    H131646   1.450   0.620   5.573  0.5384 -0.0708  1.1330
 3385TIP3    H231647   1.488   0.717   5.682 -0.7072 -0.3900  1.8728
 3386TIP3   OH231648   4.621   3.692  16.702  0.3085 -0.3187 -0.7279
 3386TIP3    H131649   4.644   3.777  16.664 -1.2298  0.6886  0.4495
 3386TIP3    H231650   4.585   3.642  16.629 -2.6907  1.6031 -0.7350
 3387TIP3   OH231651   2.228   6.231   3.204 -0.3936 -0.6377  0.4537
 3387TIP3    H131652   2.285   6.270   3.138 -0.2570 -1.6266 -0.0334
 3387TIP3    H231653   2.285   6.215   3.279 -0.5918  0.6751  0.9134
 3388TIP3   OH231654   2.058   5.736  14.561 -0.1833 -0.1672 -0.2387
 3388TIP3    H131655   1.986   5.682  14.593 -0.4861  0.5388  0.3314
 3388TIP3    H231656   2.080   5.700  14.476 -1.4672 -0.1701 -0.5883
 3389TIP3   OH231657   2.663   2.420   1.470 -0.2433  0.5809  0.3078
 3389TIP3    H131658   2.632   2.492   1.526 -0.5792  0.8799 -0.2543
 3389TIP3    H231659   2.591   2.357   1.471  0.0221  0.2787  0.7419
 3390TIP3   OH231660   3.726   2.553  13.512 -0.0991 -0.5198 -0.0134
 3390TIP3    H131661   3.669   2.615  13.467 -0.6249 -1.0085 -0.0214
 3390TIP3    H231662   3.729   2.477  13.455 -1.7272 -1.6256  1.2868
 3391TIP3   OH231663   2.599   3.479   3.350  0.3909  0.9698  0.5431
 3391TIP3    H131664   2.515   3.445   3.382  0.7001 -0.1748  0.1805
 3391TIP3    H231665   2.614   3.559   3.401 -0.1997  0.3876  1.6586
 3392TIP3   OH231666   1.890   3.463   0.982 -0.5967 -0.2217  0.3688
 3392TIP3    H131667   1.817   3.462   0.920  0.6409 -1.3071 -1.1247
 3392TIP3    H231668   1.909   3.370   0.998  2.0258 -0.0364 -1.2143
 3393TIP3   OH231669   5.687   0.245  14.163  0.2291  0.2066  0.2217
 3393TIP3    H131670   5.776   0.245  14.127  0.0648 -2.5503 -0.3970
 3393TIP3    H231671   5.631   0.270  14.090  0.3858  1.1183  0.3949
 3394TIP3   OH231672   4.145   3.299   1.989 -0.0615 -0.0979 -0.3073
 3394TIP3    H131673   4.199   3.293   1.910 -0.4744  0.6398 -0.6490
 3394TIP3    H231674   4.132   3.207   2.015 -0.3568 -0.3883 -1.3986
 3395TIP3   OH231675   5.235   5.261   0.569  0.1732 -0.0122 -0.2926
 3395TIP3    H131676   5.172   5.333   0.569 -0.3892 -0.4930  0.0412
 3395TIP3    H231677   5.184   5.185   0.596  1.5063  0.1177  3.0479
 3396TIP3   OH231678   6.789   6.003   0.844 -0.6030 -0.7398 -0.2900
 3396TIP3    H131679   6.761   6.091   0.818 -2.8505 -1.1001  0.6332
 3396TIP3    H231680   6.875   5.993   0.805 -1.0788  1.1535 -2.0251
 3397TIP3   OH231681   4.290   1.880  15.013  0.2938  0.1411 -0.1482
 3397TIP3    H131682   4.323   1.846  15.096  0.0399 -0.5127 -0.3109
 3397TIP3    H231683   4.231   1.812  14.981  2.7455 -1.0920 -2.4089
 3398TIP3   OH231684   4.715   6.809   0.358 -0.1361 -0.1075 -0.5068
 3398TIP3    H131685   4.625   6.800   0.327 -0.3391  1.4695 -0.4471
 3398TIP3    H231686   4.709   6.803   0.453 -0.4233  1.4757 -0.3907
 3399TIP3   OH231687   3.602   0.732   4.702 -0.5165 -0.2036 -0.5025
 3399TIP3    H131688   3.531   0.770   4.754  0.1442 -1.0111  1.0660
 3399TIP3    H231689   3.584   0.638   4.704 -0.2950 -0.2720 -1.4770
 3400TIP3   OH231690   6.352   1.111   3.381 -0.5095  0.2846  0.4990
 3400TIP3    H131691   6.440   1.089   3.351 -1.0765 -1.4065 -0.0791
 3400TIP3    H231692   6.352   1.206   3.391  0.6009  0.6192 -2.0280
 3401TIP3   OH231693   3.817   0.319   2.030  0.1544 -0.2623 -0.1600
 3401TIP3    H131694   3.756   0.390   2.014 -1.4511 -1.6962 -0.7384
 3401TIP3    H231695   3.832   0.320   2.124 -0.3247  0.4615 -0.0858
 3402TIP3   OH231696   3.015   6.284  12.232 -0.1169  0.4506  0.1136
 3402TIP3    H131697   3.098   6.246  12.263 -0.2786 -1.4468 -1.5345
 3402TIP3    H231698   2.979   6.329  12.308  1.9238  0.4253  1.1661
 3403TIP3   OH231699   6.388   2.136   3.264 -0.3897 -0.5825  0.5987
 3403TIP3    H131700   6.462   2.191   3.289  0.1278 -0.8810 -0.2384
 3403TIP3    H231701   6.412   2.048   3.295 -0.5946 -0.5957  0.7193
 3404TIP3   OH231702   0.290   4.498   5.480  0.2328 -0.1958  0.6208
 3404TIP3    H131703   0.284   4.412   5.521  0.4890 -0.6381 -0.2527
 3404TIP3    H231704   0.204   4.513   5.441  1.3149 -1.9448 -2.8544
 3405TIP3   OH231705   1.417   5.423  13.978 -0.0650 -0.3391 -0.1959
 3405TIP3    H131706   1.327   5.450  13.961  0.1678  0.0069 -0.9143
 3405TIP3    H231707   1.420   5.331  13.951 -0.2622 -0.4220  0.0621
 3406TIP3   OH231708   3.476   6.468  13.964 -0.0709 -0.2627  0.0453
 3406TIP3    H131709   3.421   6.448  14.039 -0.9902  2.4290  0.2040
 3406TIP3    H231710   3.521   6.549  13.987  1.7818 -0.8607 -1.2343
 3407TIP3   OH231711   4.499   4.529  16.593  0.0080  0.1003 -0.0448
 3407TIP3    H131712   4.499   4.624  16.578 -0.0257  0.0896 -0.1120
 3407TIP3    H231713   4.407   4.506  16.604  0.1596  0.4724  2.6062
 3408TIP3   OH231714   1.312   4.817   0.496 -0.2620 -0.1645 -0.3839
 3408TIP3    H131715   1.390   4.762   0.486 -0.5714 -0.4263 -1.4097
 3408TIP3    H231716   1.246   4.777   0.441 -1.5944 -0.7275  1.5135
 3409TIP3   OH231717   4.682   2.602  16.888 -0.2299  0.3192 -0.1189
 3409TIP3    H131718   4.666   2.570  16.977  0.3627 -1.8108 -0.6913
 3409TIP3    H231719   4.733   2.682  16.900 -0.3559  0.2017  1.4545
 3410TIP3   OH231720   2.138   4.013  14.546  0.4886  0.2891  0.0806
 3410TIP3    H131721   2.121   4.001  14.453  0.8331  0.4841 -0.0109
 3410TIP3    H231722   2.086   3.945  14.589  1.2667 -0.5803 -0.3220
 3411TIP3   OH231723   0.138   3.683  13.118  0.1619  0.2906 -0.2362
 3411TIP3    H131724   0.210   3.628  13.088  1.8284  1.8783  0.6600
 3411TIP3    H231725   0.105   3.726  13.038 -1.5183 -2.2782 -1.0284
 3412TIP3   OH231726   6.713   1.989  15.856 -0.4078  0.3382  0.2097
 3412TIP3    H131727   6.793   1.946  15.887 -0.3238  0.6750  0.4731
 3412TIP3    H231728   6.648   1.971  15.923 -0.4678  0.3337  0.1507
 3413TIP3   OH231729   5.774   6.806   3.336 -0.2193 -0.3216 -0.3071
 3413TIP3    H131730   5.692   6.856   3.338  1.9596  3.6614  0.9438
 3413TIP3    H231731   5.762   6.737   3.401 -2.6673 -0.1553 -0.4786
 3414TIP3   OH231732   5.083   6.683   4.917  0.1492  0.0435 -0.1112
 3414TIP3    H131733   5.164   6.646   4.882  0.0623  1.0125 -1.4069
 3414TIP3    H231734   5.074   6.767   4.872 -0.2583  1.1226  1.8794
 3415TIP3   OH231735   1.199   0.983   1.685  0.1361  0.0876 -0.0309
 3415TIP3    H131736   1.206   0.913   1.620 -0.1338  0.9229 -1.0041
 3415TIP3    H231737   1.105   0.995   1.698  0.1838  0.1226  0.2924
 3416TIP3   OH231738   5.355   3.520  16.711 -0.3122 -0.2135  0.4619
 3416TIP3    H131739   5.363   3.443  16.654 -0.9101 -1.2621  1.7380
 3416TIP3    H231740   5.265   3.518  16.741  0.6364 -1.3596  3.6299
 3417TIP3   OH231741   4.684   2.348   3.320  0.8148  0.1890 -0.1333
 3417TIP3    H131742   4.629   2.403   3.264 -0.2268 -0.0718  0.6076
 3417TIP3    H231743   4.660   2.259   3.296 -0.7223  0.0598  1.7134
 3418TIP3   OH231744   1.087   6.584   4.773 -0.4664 -0.7788  0.1695
 3418TIP3    H131745   1.102   6.678   4.784 -1.8550 -0.4227 -0.7578
 3418TIP3    H231746   1.174   6.545   4.779  0.1520  0.5775  0.3836
 3419TIP3   OH231747   3.699   2.766  14.883 -0.1728  0.5581  0.5318
 3419TIP3    H131748   3.660   2.731  14.802 -0.8314  2.1261  0.1436
 3419TIP3    H231749   3.748   2.692  14.918 -0.7926 -0.5075 -0.7069
 3420TIP3   OH231750   5.591   5.374  11.820 -0.1604  0.0109 -0.0433
 3420TIP3    H131751   5.515   5.325  11.788  0.9237 -1.8641  0.1377
 3420TIP3    H231752   5.622   5.325  11.896  0.7821  1.1609  0.3469
 3421TIP3   OH231753   6.126   4.674  14.287 -0.3002  0.2203 -0.1892
 3421TIP3    H131754   6.152   4.667  14.195 -0.4147  0.1114 -0.2130
 3421TIP3    H231755   6.101   4.766  14.299 -0.7968  0.1134 -0.4007
 3422TIP3   OH231756   5.221   2.070   2.380 -0.0156  0.0292  0.1967
 3422TIP3    H131757   5.202   2.162   2.362 -0.0992  0.0106  0.1932
 3422TIP3    H231758   5.153   2.021   2.335  1.0326 -0.1221 -1.3158
 3423TIP3   OH231759   3.746   0.059  12.998  0.0169 -0.5639 -0.1107
 3423TIP3    H131760   3.752  -0.035  12.980  2.2163 -0.6227  0.6579
 3423TIP3    H231761   3.762   0.067  13.092 -1.0676  0.5427  0.0092
 3424TIP3   OH231762   2.779   0.834  14.875 -0.7847  0.1815 -0.6670
 3424TIP3    H131763   2.862   0.841  14.828 -0.9428  0.4541 -0.9049
 3424TIP3    H231764   2.773   0.916  14.925 -0.7488  0.0137 -0.3815
 3425TIP3   OH231765   4.868   5.223  14.546  0.2622 -0.2358  0.2723
 3425TIP3    H131766   4.841   5.164  14.475 -0.7579 -1.4826  1.6559
 3425TIP3    H231767   4.834   5.309  14.519  0.2358 -0.5959 -0.9238
 3426TIP3   OH231768   3.007   6.720   1.714 -0.2990  0.2494 -0.3392
 3426TIP3    H131769   3.055   6.656   1.767 -2.1448 -0.7154  0.2898
 3426TIP3    H231770   2.917   6.686   1.712 -0.8199  1.5801 -2.0414
 3427TIP3   OH231771   0.733   5.198   5.052 -0.4217 -0.0547 -0.7019
 3427TIP3    H131772   0.747   5.104   5.059  0.5764  0.0784 -0.6148
 3427TIP3    H231773   0.770   5.233   5.133 -0.7462  0.4138 -0.7526
 3428TIP3   OH231774   2.202   4.878  13.017 -0.4180 -0.5590  0.0260
 3428TIP3    H131775   2.282   4.901  12.971  0.0300 -0.5489  0.7958
 3428TIP3    H231776   2.181   4.790  12.987  0.2063 -0.7904  0.2565
 3429TIP3   OH231777   3.441   6.032   1.337 -0.9892  0.0536 -0.2660
 3429TIP3    H131778   3.358   6.066   1.305 -0.3975  2.0105  0.1455
 3429TIP3    H231779   3.507   6.093   1.304  0.0096  0.0256  1.5193
 3430TIP3   OH231780   3.026   2.160  12.934 -0.1033 -0.0177 -0.4168
 3430TIP3    H131781   3.018   2.234  12.874  1.4672 -1.0906 -2.0501
 3430TIP3    H231782   3.116   2.129  12.922 -0.1638 -1.0872  1.5594
 3431TIP3   OH231783   3.740   2.196   0.729  0.0623 -0.0843 -0.3510
 3431TIP3    H131784   3.748   2.130   0.660 -0.3139 -0.7967  0.2917
 3431TIP3    H231785   3.816   2.182   0.785  0.0927  0.1673 -0.3259
 3432TIP3   OH231786   3.991   5.412   5.655 -0.0213  0.3822 -0.9200
 3432TIP3    H131787   4.003   5.317   5.647  0.4209  0.0822  2.0960
 3432TIP3    H231788   4.079   5.444   5.676 -0.5683  1.1343  0.2667
 3433TIP3   OH231789   1.351   4.428   3.106  0.0321 -0.5914  0.5359
 3433TIP3    H131790   1.305   4.345   3.092  1.8808 -1.2357 -3.0536
 3433TIP3    H231791   1.389   4.421   3.193 -1.3609 -2.6957  1.0429
 3434TIP3   OH231792   3.261   0.995  14.593 -0.5940 -0.1233  0.0363
 3434TIP3    H131793   3.262   1.078  14.546 -0.6925 -0.3088 -0.3061
 3434TIP3    H231794   3.177   0.995  14.640 -0.6508 -0.0834 -0.0640
 3435TIP3   OH231795   2.719   2.365  11.565 -0.2821  0.4070  0.9094
 3435TIP3    H131796   2.673   2.445  11.540 -1.1677  0.0613  1.4183
 3435TIP3    H231797   2.802   2.396  11.603 -0.5570  1.0771  0.9728
 3436TIP3   OH231798   6.772   4.154  12.356  0.0625 -0.1821  0.0278
 3436TIP3    H131799   6.741   4.064  12.364  0.5591 -0.3579  0.0168
 3436TIP3    H231800   6.731   4.187  12.276 -1.8683  0.3278  1.1681
 3437TIP3   OH231801   3.262   1.905  11.421  0.4851 -0.7940 -0.3364
 3437TIP3    H131802   3.289   1.995  11.399 -0.4178 -0.5262 -0.3650
 3437TIP3    H231803   3.238   1.910  11.514 -1.3108 -0.5832 -0.7953
 3438TIP3   OH231804   2.021   3.584  15.976  0.2529 -0.0993 -0.1248
 3438TIP3    H131805   1.966   3.611  16.050  0.7300 -2.4484  1.1737
 3438TIP3    H231806   1.959   3.551  15.911 -0.0355 -0.7880  0.4760
 3439TIP3   OH231807   3.710   2.957   3.088  0.0392  0.0883  0.1703
 3439TIP3    H131808   3.712   3.044   3.127 -0.0913 -0.0534  0.4985
 3439TIP3    H231809   3.790   2.952   3.036  1.3378 -0.5049  2.1106
 3440TIP3   OH231810   3.569   2.284   4.577 -0.1261  0.6357  0.1571
 3440TIP3    H131811   3.607   2.202   4.544 -0.6736  0.8604 -1.1172
 3440TIP3    H231812   3.571   2.343   4.501 -0.4532  1.5422  0.8393
 3441TIP3   OH231813   4.538   3.155   2.992  0.9912 -0.4713  0.3474
 3441TIP3    H131814   4.527   3.174   2.899  1.1342 -3.1385 -0.2978
 3441TIP3    H231815   4.614   3.207   3.018 -0.3142  1.9887 -0.4000
 3442TIP3   OH231816   0.124   5.089   3.491  0.3601  0.0986 -0.5027
 3442TIP3    H131817   0.077   5.027   3.436  0.6444  0.3952 -1.0906
 3442TIP3    H231818   0.193   5.125   3.434  1.1099 -0.1113  0.2442
 3443TIP3   OH231819   2.539   4.041   4.588  0.1160 -0.1481  0.3593
 3443TIP3    H131820   2.505   4.128   4.571  0.2863 -0.0695  0.4183
 3443TIP3    H231821   2.465   3.982   4.573  0.3060 -0.1031 -0.8607
 3444TIP3   OH231822   2.431   5.556  14.648  0.5046  0.1330 -0.3303
 3444TIP3    H131823   2.502   5.583  14.590 -0.4825  0.2164 -1.5446
 3444TIP3    H231824   2.381   5.636  14.664  0.3659 -0.0288  0.0548
 3445TIP3   OH231825   4.974   1.152  13.118 -0.1604  0.5114  0.0330
 3445TIP3    H131826   5.057   1.125  13.157 -0.6952 -0.6187  0.4255
 3445TIP3    H231827   4.926   1.071  13.105 -0.1887  0.8840 -2.6277
 3446TIP3   OH231828   3.362   5.069   3.432 -0.2844 -0.2931  0.3225
 3446TIP3    H131829   3.279   5.025   3.412 -1.1240  0.7431  1.4253
 3446TIP3    H231830   3.394   5.098   3.346  0.6475 -3.5297 -0.5527
 3447TIP3   OH231831   3.997   4.240   5.382  0.2957  0.0850  0.0594
 3447TIP3    H131832   3.980   4.190   5.302  0.6658 -0.6281  0.4132
 3447TIP3    H231833   4.041   4.319   5.352 -0.8306  0.4974 -0.5658
 3448TIP3   OH231834   1.245   2.025  12.976 -0.5806  0.8406 -0.5138
 3448TIP3    H131835   1.312   2.093  12.968 -1.1830  1.3803 -1.0017
 3448TIP3    H231836   1.249   1.977  12.893 -1.1164  1.1693 -0.7326
 3449TIP3   OH231837   4.586   4.829   6.470 -0.0692  0.2290  0.2599
 3449TIP3    H131838   4.585   4.919   6.500  0.0149  0.5818 -0.7403
 3449TIP3    H231839   4.532   4.781   6.532  0.0229  0.9364  0.8898
 3450TIP3   OH231840   4.896   1.784  12.372 -0.4599  0.1763  0.0324
 3450TIP3    H131841   4.928   1.793  12.282 -1.2286 -4.7523 -1.0478
 3450TIP3    H231842   4.802   1.802  12.366 -0.5088 -0.1368 -0.1634
 3451TIP3   OH231843   5.929   5.955   1.286  0.0754  0.1972 -0.3455
 3451TIP3    H131844   5.911   5.866   1.256  0.3462 -0.6520  1.7863
 3451TIP3    H231845   5.842   5.995   1.294 -0.0216  0.3033 -1.7322
 3452TIP3   OH231846   1.843   3.211  14.467  0.7139 -0.7098 -0.1930
 3452TIP3    H131847   1.936   3.192  14.458  0.5298 -1.0915 -1.5156
 3452TIP3    H231848   1.818   3.251  14.383 -0.2658 -0.4132  0.2226
 3453TIP3   OH231849   3.952   5.062  14.124 -0.1985 -0.6453 -0.6130
 3453TIP3    H131850   3.916   5.121  14.059 -0.2627 -0.9577 -0.8614
 3453TIP3    H231851   4.033   5.104  14.153 -1.1454  0.4408  0.5182
 3454TIP3   OH231852   1.718   6.499  17.173  0.2887  0.0718 -0.5433
 3454TIP3    H131853   1.785   6.529  17.111  1.0141  1.3640  0.7946
 3454TIP3    H231854   1.726   6.559  17.248 -1.2945 -0.7491  0.3389
 3455TIP3   OH231855   5.630   0.364  13.380 -0.0797 -0.8127  0.2119
 3455TIP3    H131856   5.620   0.348  13.474  0.4702  0.0132  0.4207
 3455TIP3    H231857   5.640   0.459  13.373 -0.6866 -0.8018 -0.7388
 3456TIP3   OH231858   0.784   4.755  15.384  0.5287 -0.5710  0.4092
 3456TIP3    H131859   0.871   4.794  15.376  0.1016  0.6644  1.4547
 3456TIP3    H231860   0.724   4.830  15.383 -0.9135 -1.4948 -3.8310
 3457TIP3   OH231861   0.783   5.318   0.776 -0.1337 -0.0071  0.3784
 3457TIP3    H131862   0.733   5.288   0.700  0.6035  0.7116 -0.4044
 3457TIP3    H231863   0.773   5.413   0.776  0.9310  0.1125  0.4194
 3458TIP3   OH231864   1.966   5.732  15.654  0.2164 -0.0289 -0.0101
 3458TIP3    H131865   1.884   5.683  15.647  0.2357  0.1847 -2.1821
 3458TIP3    H231866   1.997   5.740  15.564  3.2171 -1.0501  0.8100
 3459TIP3   OH231867   5.756   4.011   0.651  0.4573  0.7278  0.1312
 3459TIP3    H131868   5.792   4.093   0.616  1.1768  0.8165  1.0139
 3459TIP3    H231869   5.758   4.024   0.746 -0.1929 -0.0036  0.2485
 3460TIP3   OH231870   5.507   6.631   3.471  0.5692  0.2497  0.4560
 3460TIP3    H131871   5.487   6.685   3.395 -1.0014  1.1086  1.4359
 3460TIP3    H231872   5.593   6.661   3.500  0.6645  0.7088 -0.2919
 3461TIP3   OH231873   3.254   6.045  13.832 -0.0532  0.6616  0.3342
 3461TIP3    H131874   3.215   5.994  13.903 -0.2485  0.1817 -0.1143
 3461TIP3    H231875   3.327   6.092  13.874 -0.2287  0.4678  0.8718
 3462TIP3   OH231876   3.549   3.009   3.594  0.1576 -0.2866 -0.3724
 3462TIP3    H131877   3.630   2.966   3.568  1.8181  1.6658  1.1949
 3462TIP3    H231878   3.552   3.011   3.690 -0.8097  1.4599 -0.3266
 3463TIP3   OH231879   4.758   6.121   5.315  0.1004  0.5349  0.1314
 3463TIP3    H131880   4.781   6.114   5.223  2.1022  4.4313  0.1427
 3463TIP3    H231881   4.691   6.189   5.318 -1.1386 -0.6538  1.5176
 3464TIP3   OH231882   0.061   3.120   1.726 -0.1698  0.1943  0.0268
 3464TIP3    H131883   0.040   3.125   1.820 -0.9960 -1.9732  0.0023
 3464TIP3    H231884   0.117   3.043   1.718  1.1248  1.2050 -1.0988
 3465TIP3   OH231885   1.010   2.603   3.450 -0.1295  0.0400  0.3571
 3465TIP3    H131886   0.974   2.515   3.439 -0.1773 -0.0110  0.9258
 3465TIP3    H231887   0.955   2.643   3.518  0.1322  0.3784  0.3684
 3466TIP3   OH231888   1.047   1.271  15.414  0.1025 -0.0014  0.4196
 3466TIP3    H131889   1.141   1.252  15.413 -0.2854 -2.1780  0.4902
 3466TIP3    H231890   1.012   1.213  15.482 -1.1364  1.7190  1.3199
 3467TIP3   OH231891   0.710   6.603   1.036 -0.1791  0.0088 -0.3526
 3467TIP3    H131892   0.797   6.564   1.043  0.3248  0.6968 -2.2677
 3467TIP3    H231893   0.704   6.634   0.946 -2.6338 -0.5210 -0.4639
 3468TIP3   OH231894   3.239   0.851   3.527 -0.1444 -0.3926 -0.5129
 3468TIP3    H131895   3.212   0.826   3.615 -0.8357  0.7438 -0.3777
 3468TIP3    H231896   3.327   0.815   3.517  0.1428 -0.1093  0.8369
 3469TIP3   OH231897   5.448   6.529  14.017  0.0466  0.2175 -0.1231
 3469TIP3    H131898   5.390   6.600  14.042 -1.2620 -1.0183  0.4937
 3469TIP3    H231899   5.484   6.556  13.932 -0.6759  1.4434 -0.0671
 3470TIP3   OH231900   0.323   0.908  16.843 -0.5484  0.1694 -0.2655
 3470TIP3    H131901   0.336   0.846  16.914  1.6389  0.2675 -0.5294
 3470TIP3    H231902   0.244   0.876  16.798 -1.3761 -0.4713  1.5600
 3471TIP3   OH231903   2.650   5.913   6.532  0.2851  0.5153 -0.4352
 3471TIP3    H131904   2.701   5.833   6.520 -0.9799 -0.5967  1.1364
 3471TIP3    H231905   2.569   5.897   6.483  0.9960  1.8731 -2.1291
 3472TIP3   OH231906   5.177   0.681  16.952 -0.6330  0.4451  0.1721
 3472TIP3    H131907   5.134   0.610  16.905 -0.0514  0.5958 -0.6072
 3472TIP3    H231908   5.208   0.740  16.883  2.0240 -0.3361  0.5857
 3473TIP3   OH231909   0.881   4.783  12.572  0.1685  0.2465 -0.2030
 3473TIP3    H131910   0.862   4.857  12.515 -0.6257 -0.6299 -1.1306
 3473TIP3    H231911   0.975   4.787  12.587  0.2779  0.9039 -1.0150
 3474TIP3   OH231912   1.929   3.307   5.310 -0.5713 -0.1895  0.6420
 3474TIP3    H131913   1.867   3.283   5.379  0.0214  1.1412  1.6834
 3474TIP3    H231914   1.988   3.369   5.352  1.0385 -0.8710 -0.5260
 3475TIP3   OH231915   6.452   0.946   0.660 -0.5295 -0.4069  0.4648
 3475TIP3    H131916   6.442   0.939   0.565  0.2163  1.1693  0.2444
 3475TIP3    H231917   6.376   0.899   0.695 -0.5633 -1.4381 -0.8829
 3476TIP3   OH231918   5.722   3.183   4.858 -0.2005  0.1232  0.2436
 3476TIP3    H131919   5.767   3.263   4.886  1.9280 -0.8274 -0.2611
 3476TIP3    H231920   5.682   3.149   4.937  0.2051  0.8692  0.7845
 3477TIP3   OH231921   3.572   0.453   1.588  0.2943 -0.6182  0.1656
 3477TIP3    H131922   3.511   0.399   1.639  0.1544 -0.4321  0.1943
 3477TIP3    H231923   3.521   0.529   1.562  0.8697  0.1975  1.3364
 3478TIP3   OH231924   1.861   5.588  13.661 -0.1307 -0.2478  0.2392
 3478TIP3    H131925   1.910   5.507  13.646  0.3031 -0.3151  1.8159
 3478TIP3    H231926   1.816   5.574  13.744 -1.3863  0.5150 -0.2917
 3479TIP3   OH231927   1.473   1.518  13.705  0.1601  0.3556  0.0682
 3479TIP3    H131928   1.540   1.555  13.762  1.1012 -0.3777 -0.5257
 3479TIP3    H231929   1.390   1.544  13.745  0.7587 -1.1871  2.5091
 3480TIP3   OH231930   5.348   2.372  16.407 -0.2009 -0.2783  0.1381
 3480TIP3    H131931   5.302   2.391  16.489 -1.0259 -0.5374 -0.2456
 3480TIP3    H231932   5.404   2.297  16.428 -1.1202 -0.9616  0.2434
 3481TIP3   OH231933   5.991   2.215   0.414 -0.3782 -0.9375 -0.2676
 3481TIP3    H131934   5.939   2.168   0.480  0.9290 -0.1917  1.3704
 3481TIP3    H231935   5.927   2.239   0.346 -1.9652 -0.9608  1.1383
 3482TIP3   OH231936   4.487   5.149  14.355 -0.2726 -0.4581  0.4184
 3482TIP3    H131937   4.579   5.120  14.355 -0.5833 -1.5331  1.7445
 3482TIP3    H231938   4.493   5.245  14.359  0.7911 -0.4937  0.1702
 3483TIP3   OH231939   4.416   6.562   3.143  0.1989 -0.7084  0.6425
 3483TIP3    H131940   4.477   6.511   3.197  1.1264 -1.1077 -0.7185
 3483TIP3    H231941   4.458   6.648   3.135 -0.3337 -0.3917  1.2114
 3484TIP3   OH231942   3.178   1.536  11.714 -0.2713 -0.1467 -0.1986
 3484TIP3    H131943   3.161   1.442  11.715  2.2929 -0.6848 -1.2178
 3484TIP3    H231944   3.255   1.548  11.769  0.9128  0.9848 -1.9942
 3485TIP3   OH231945   6.225   0.695  12.352 -0.5160 -0.1059  0.1713
 3485TIP3    H131946   6.232   0.719  12.260 -0.0964 -0.0820  0.2049
 3485TIP3    H231947   6.172   0.615  12.352 -1.5580  0.5643  0.0254
 3486TIP3   OH231948   6.591   0.067  15.866  0.1850 -0.6472  0.1755
 3486TIP3    H131949   6.564   0.123  15.794  0.8428 -1.3499 -0.6361
 3486TIP3    H231950   6.670   0.023  15.835  1.6755  0.5064  2.0412
 3487TIP3   OH231951   0.380   1.273  14.559 -0.0977  0.0867 -0.5182
 3487TIP3    H131952   0.385   1.351  14.503  0.7989 -0.3617 -1.0933
 3487TIP3    H231953   0.347   1.306  14.642 -1.9774  0.6932 -1.4415
 3488TIP3   OH231954   2.993   0.657  14.649  0.9305  0.3193 -0.4775
 3488TIP3    H131955   3.044   0.592  14.696  0.6652 -0.1936 -0.8845
 3488TIP3    H231956   2.989   0.732  14.708  1.1608 -0.0683  0.0380
 3489TIP3   OH231957   1.333   6.093   1.240 -0.3099  0.5059  0.2370
 3489TIP3    H131958   1.368   6.063   1.156 -1.0597 -1.0756  0.4406
 3489TIP3    H231959   1.366   6.182   1.250  1.9684 -0.1838 -0.5005
 3490TIP3   OH231960   1.976   2.181   4.270  0.7945 -0.7406 -0.3103
 3490TIP3    H131961   2.014   2.243   4.332 -2.4143  0.1553  1.0075
 3490TIP3    H231962   1.923   2.235   4.211  0.2306 -1.9666 -0.9802
 3491TIP3   OH231963   6.481   2.872   2.156  0.3373 -0.0681 -0.2841
 3491TIP3    H131964   6.386   2.883   2.161  0.4696  0.6253  1.1913
 3491TIP3    H231965   6.498   2.787   2.196  0.2488 -0.8261 -1.7893
 3492TIP3   OH231966   4.198   1.502  13.923 -0.7148  0.1112  0.3382
 3492TIP3    H131967   4.266   1.545  13.974  1.7704 -0.6808 -2.1054
 3492TIP3    H231968   4.185   1.418  13.968 -1.2663  0.8777  1.6856
 3493TIP3   OH231969   4.155   4.057  15.478  0.3231 -0.1511 -0.2735
 3493TIP3    H131970   4.194   4.055  15.565 -0.3334 -1.2953  0.0157
 3493TIP3    H231971   4.224   4.024  15.420  1.9605  3.6296 -0.7741
 3494TIP3   OH231972   3.296   2.132  12.896  0.1281  0.0628 -0.9452
 3494TIP3    H131973   3.381   2.098  12.924 -0.8423 -2.5989 -0.9986
 3494TIP3    H231974   3.285   2.098  12.807 -0.6381  1.0947 -1.2601
 3495TIP3   OH231975   1.594   0.541  16.265 -0.4415  0.2361  0.1166
 3495TIP3    H131976   1.622   0.570  16.178 -0.7042  0.6630  0.1724
 3495TIP3    H231977   1.502   0.517  16.254 -0.6044  0.7289  0.3758
 3496TIP3   OH231978   2.568   2.941   0.555  0.0485  0.3113 -0.1127
 3496TIP3    H131979   2.648   2.888   0.559 -0.2431 -0.1430 -0.2582
 3496TIP3    H231980   2.596   3.022   0.512  0.3054 -0.0856 -0.7105
 3497TIP3   OH231981   4.574   5.958  10.724  0.2556  0.2173 -0.3687
 3497TIP3    H131982   4.583   5.864  10.711 -0.6201  0.1965 -0.8690
 3497TIP3    H231983   4.663   5.988  10.745  0.2999 -0.9318  1.3055
 3498TIP3   OH231984   6.746   5.415   1.596  0.1630 -0.3443 -0.1569
 3498TIP3    H131985   6.651   5.414   1.603  0.1930  2.1955  2.2501
 3498TIP3    H231986   6.777   5.390   1.683  1.7352 -0.7031 -0.7728
 3499TIP3   OH231987   2.591   5.573  13.659 -0.0651 -0.5222 -0.0330
 3499TIP3    H131988   2.608   5.480  13.671 -0.4879 -0.5358  0.5206
 3499TIP3    H231989   2.532   5.576  13.583 -1.3552 -0.8500  0.9214
 3500TIP3   OH231990   6.017   4.859   2.612  0.0083  0.2330 -0.1306
 3500TIP3    H131991   5.945   4.799   2.590  0.2969 -0.5910  1.0830
 3500TIP3    H231992   6.032   4.845   2.706 -0.0673  2.4022  0.2359
 3501TIP3   OH231993   2.999   3.016   2.351  1.1009 -0.1042  0.6801
 3501TIP3    H131994   3.082   2.990   2.310  0.9763 -1.4036  1.2079
 3501TIP3    H231995   2.957   2.934   2.375 -0.8524  0.4776 -0.5052
 3502TIP3   OH231996   4.372   2.131   0.204  0.3675  0.2390 -0.4180
 3502TIP3    H131997   4.283   2.148   0.173  0.6517  1.7476 -0.4767
 3502TIP3    H231998   4.363   2.056   0.263 -0.5987 -1.0148 -2.0426
 3503TIP3   OH231999   5.121   2.070  14.726 -0.4150 -0.5039 -0.0554
 3503TIP3    H132000   5.199   2.017  14.739  0.1515 -1.1557 -4.5358
 3503TIP3    H232001   5.052   2.024  14.774  1.5593 -0.5127  3.0678
 3504TIP3   OH232002   2.391   4.456   0.004  0.3021 -0.0059 -0.3810
 3504TIP3    H132003   2.453   4.486  -0.063  1.5487 -0.3054  0.5932
 3504TIP3    H232004   2.352   4.377  -0.034  0.0492  0.5281 -1.2623
 3505TIP3   OH232005   4.456   5.354   0.150 -0.4413  0.1431  0.0985
 3505TIP3    H132006   4.400   5.296   0.202  1.0514 -0.2959  1.2951
 3505TIP3    H232007   4.531   5.372   0.207  0.4571  1.0234 -1.3041
 3506TIP3   OH232008   6.400   2.244  14.811 -0.2052 -0.4006 -0.2077
 3506TIP3    H132009   6.361   2.253  14.899  2.0394  0.1475  0.8051
 3506TIP3    H232010   6.397   2.333  14.775  1.3413 -0.0473  0.4690
 3507TIP3   OH232011   1.984   5.477   4.448 -0.1110  0.0340 -0.0503
 3507TIP3    H132012   2.053   5.533   4.484  0.7780 -0.6948 -0.5716
 3507TIP3    H232013   2.031   5.412   4.396 -1.1048 -1.2442  0.5945
 3508TIP3   OH232014   0.160   4.918  15.801  0.1133  0.0238  0.3229
 3508TIP3    H132015   0.220   4.966  15.858  0.1653 -0.4629  0.6832
 3508TIP3    H232016   0.090   4.887  15.859  0.4406 -0.9303  0.2408
 3509TIP3   OH232017   3.739   3.813   5.169  0.2732 -0.2183 -1.0217
 3509TIP3    H132018   3.799   3.847   5.235  1.5587 -0.8682 -1.8167
 3509TIP3    H232019   3.694   3.890   5.135 -1.7828  0.0002  1.8047
 3510TIP3   OH232020   6.055   5.160  11.592  0.1202 -0.0537  0.2952
 3510TIP3    H132021   5.999   5.119  11.658 -1.4723  1.1087 -0.2713
 3510TIP3    H232022   6.067   5.250  11.623  1.2413 -0.1156  0.1073
 3511TIP3   OH232023   0.536   6.152  11.702 -0.4579  0.3158  0.2575
 3511TIP3    H132024   0.489   6.199  11.772 -0.6815  0.9047 -0.2807
 3511TIP3    H232025   0.563   6.220  11.641 -1.4508 -0.3190 -0.9352
 3512TIP3   OH232026   4.879   4.577   2.105 -0.3262  0.1951  0.1251
 3512TIP3    H132027   4.851   4.552   2.193 -2.0448  2.3289  0.2812
 3512TIP3    H232028   4.958   4.525   2.089 -1.7024 -2.5786  1.6370
 3513TIP3   OH232029   5.152   3.957  14.938 -0.4384  0.0616 -0.4308
 3513TIP3    H132030   5.196   4.018  14.997  2.0468 -1.0606 -0.9832
 3513TIP3    H232031   5.060   3.962  14.963  0.1134  1.7361  1.5865
 3514TIP3   OH232032   6.246   1.185   4.865  0.1275  0.3768 -0.2511
 3514TIP3    H132033   6.156   1.218   4.872  0.0923  0.4521 -0.9787
 3514TIP3    H232034   6.248   1.108   4.923 -0.5676  0.0445 -0.6525
 3515TIP3   OH232035   1.588   4.338   4.310  0.2692  0.0270  0.7001
 3515TIP3    H132036   1.527   4.371   4.244 -1.0511 -0.0739  1.8291
 3515TIP3    H232037   1.651   4.285   4.260 -2.0424 -2.0026 -0.2509
 3516TIP3   OH232038   4.405   6.813   0.335  0.2978 -0.8452 -0.4810
 3516TIP3    H132039   4.385   6.805   0.428 -0.5846 -0.7389 -0.6558
 3516TIP3    H232040   4.351   6.745   0.293  1.8023 -1.9263 -0.7796
 3517TIP3   OH232041   6.130   3.174   2.584 -0.2866 -0.0580  0.5256
 3517TIP3    H132042   6.115   3.089   2.544 -0.0104 -0.6766  1.6900
 3517TIP3    H232043   6.180   3.154   2.663 -0.1168  1.2014  0.7498
 3518TIP3   OH232044   4.003   6.409   6.124 -0.5131  0.1423  0.1955
 3518TIP3    H132045   3.913   6.385   6.146 -0.3720  0.8410  1.6674
 3518TIP3    H232046   4.056   6.371   6.193  0.5640 -1.6611 -1.5213
 3519TIP3   OH232047   4.153   6.758  14.669 -0.4090 -0.2496  0.5116
 3519TIP3    H132048   4.119   6.819  14.603  0.3507 -0.3134  0.0430
 3519TIP3    H232049   4.076   6.711  14.700 -0.8724  0.2641  0.1677
 3520TIP3   OH232050   4.668   3.053  13.456  0.5107  0.2255 -0.7779
 3520TIP3    H132051   4.723   3.019  13.385  1.5371  0.1348  0.0409
 3520TIP3    H232052   4.580   3.025  13.432  0.6807  1.0179 -2.5000
 3521TIP3   OH232053   2.798   3.749   6.241  0.2526  0.1744 -0.0350
 3521TIP3    H132054   2.791   3.670   6.186  1.9414  0.6986 -1.0854
 3521TIP3    H232055   2.709   3.785   6.242 -0.3831 -1.3014 -0.1910
 3522TIP3   OH232056   0.115   0.409   5.239 -0.6500 -0.3030 -0.1125
 3522TIP3    H132057   0.027   0.387   5.208 -1.3472  2.8106 -0.6388
 3522TIP3    H232058   0.101   0.444   5.327  0.1048 -0.0895 -0.0747
 3523TIP3   OH232059   3.687   4.697  10.820 -0.5726  0.1798  0.4203
 3523TIP3    H132060   3.744   4.630  10.858  0.8890  1.5214  0.7088
 3523TIP3    H232061   3.652   4.656  10.741  1.3358 -0.5204 -0.1388
 3524TIP3   OH232062   2.356   4.493  14.085 -0.0262  0.4133  0.1938
 3524TIP3    H132063   2.415   4.565  14.059  1.9737 -1.2273 -0.0631
 3524TIP3    H232064   2.344   4.442  14.005 -3.4415  1.6675 -0.2805
 3525TIP3   OH232065   5.726   3.714  11.940  0.8935 -0.8503 -0.2257
 3525TIP3    H132066   5.747   3.761  12.021 -0.3841 -1.0326  0.2308
 3525TIP3    H232067   5.741   3.778  11.870 -0.5512  0.1949  0.3639
 3526TIP3   OH232068   2.915   2.142  13.589 -0.5951  0.0401 -0.2616
 3526TIP3    H132069   2.941   2.196  13.662  0.0485  0.6486 -0.9302
 3526TIP3    H232070   2.935   2.194  13.511  0.0073 -1.1289 -0.9211
 3527TIP3   OH232071   2.509   0.173   1.136  0.4917 -0.3652 -0.2210
 3527TIP3    H132072   2.439   0.124   1.094 -0.2530 -1.0465  1.7077
 3527TIP3    H232073   2.582   0.110   1.142  1.2005  0.2394 -1.9178
 3528TIP3   OH232074   6.004   4.994   1.776 -0.4760 -0.1244 -0.0506
 3528TIP3    H132075   5.941   4.984   1.848 -1.5360  2.3615 -0.5019
 3528TIP3    H232076   6.064   4.920   1.785 -3.1666 -2.3879  0.6902
 3529TIP3   OH232077   3.260   5.977  14.586 -0.1096 -0.1645  0.1540
 3529TIP3    H132078   3.204   6.018  14.652 -1.4723 -2.0889  0.2750
 3529TIP3    H232079   3.266   6.043  14.516 -0.7393  0.9213  1.0761
 3530TIP3   OH232080   4.823   4.538  12.092 -0.5662  0.5469  0.0427
 3530TIP3    H132081   4.915   4.525  12.115  0.3300  1.8035 -2.3925
 3530TIP3    H232082   4.799   4.620  12.134  0.3634  1.6826 -1.5293
 3531TIP3   OH232083   6.141   6.100  15.908  0.2328  0.0803 -0.5366
 3531TIP3    H132084   6.190   6.035  15.857  0.7611 -0.2659  0.3929
 3531TIP3    H232085   6.207   6.164  15.934  0.0366  0.0614  0.0119
 3532TIP3   OH232086   3.755   1.439  17.087 -0.3248 -0.3524 -0.9120
 3532TIP3    H132087   3.783   1.438  16.995 -1.2488 -0.3013 -1.2031
 3532TIP3    H232088   3.670   1.483  17.085 -0.9676 -1.5316 -0.2101
 3533TIP3   OH232089   0.230   6.027  11.880 -0.4473  0.0319 -0.0861
 3533TIP3    H132090   0.172   5.954  11.860 -0.3228  0.4469 -2.2937
 3533TIP3    H232091   0.292   5.992  11.944 -1.4610 -1.2402  0.2401
 3534TIP3   OH232092   6.712   2.039   5.320 -0.5056  0.6969 -0.3034
 3534TIP3    H132093   6.747   1.973   5.380 -1.4673  1.3405  1.0290
 3534TIP3    H232094   6.676   1.989   5.247 -1.1765 -0.2534  0.6585
 3535TIP3   OH232095   5.295   0.680   4.590 -0.3417 -0.3585  0.5539
 3535TIP3    H132096   5.282   0.753   4.651  0.6861  0.0372  0.3367
 3535TIP3    H232097   5.354   0.621   4.636  1.0739  0.3188 -0.3135
 3536TIP3   OH232098   2.472   2.262   2.309  0.2259  0.3925 -0.2317
 3536TIP3    H132099   2.378   2.275   2.326  0.3323  1.0643 -0.0985
 3536TIP3    H232100   2.480   2.268   2.213  0.1863  0.7686 -0.2145
 3537TIP3   OH232101   5.291   3.434   6.576  0.3347 -0.0902 -0.1938
 3537TIP3    H132102   5.320   3.345   6.595  1.5810  0.6374  1.4650
 3537TIP3    H232103   5.251   3.427   6.489  2.5295 -1.8137 -1.1811
 3538TIP3   OH232104   5.341   2.580   5.410  0.1643 -0.4960  0.3608
 3538TIP3    H132105   5.275   2.649   5.419  1.0789  0.3801  0.6420
 3538TIP3    H232106   5.423   2.628   5.398  0.7320 -1.5577 -0.1258
 3539TIP3   OH232107   5.386   2.930   1.651 -0.1221  0.2239 -0.3493
 3539TIP3    H132108   5.360   3.005   1.705  0.4352  0.1478  0.0372
 3539TIP3    H232109   5.310   2.872   1.651  0.3065 -0.4258  1.5274
 3540TIP3   OH232110   0.508   2.290   1.455 -0.3377  0.0701  0.1085
 3540TIP3    H132111   0.546   2.233   1.522 -1.7071 -0.9433  0.0705
 3540TIP3    H232112   0.582   2.315   1.400  0.6717  0.2370  1.4879
 3541TIP3   OH232113   1.591   0.406   3.765  0.3765 -0.0186 -0.7744
 3541TIP3    H132114   1.555   0.488   3.799 -1.2039 -0.0404 -2.2411
 3541TIP3    H232115   1.543   0.337   3.812  0.2133 -0.0663 -1.0053
 3542TIP3   OH232116   1.263   2.954  11.131 -0.0107 -0.4593 -0.5232
 3542TIP3    H132117   1.215   2.871  11.129 -0.8651  0.0277 -0.9804
 3542TIP3    H232118   1.324   2.949  11.058  1.1560 -1.3704  0.4793
 3543TIP3   OH232119   4.234   4.553   5.981  0.3333  0.1419 -0.1491
 3543TIP3    H132120   4.195   4.498   6.049 -1.3420 -1.3165 -2.1704
 3543TIP3    H232121   4.240   4.640   6.022 -1.6493 -0.4080  1.4996
 3544TIP3   OH232122   0.744   3.261   3.504  0.4574 -0.0451  0.4191
 3544TIP3    H132123   0.692   3.188   3.539  0.7272  0.8022  2.8205
 3544TIP3    H232124   0.796   3.222   3.433 -1.0300 -1.6484  0.1399
 3545TIP3   OH232125   2.808   2.718  14.562  0.3080 -0.4112  0.2602
 3545TIP3    H132126   2.832   2.632  14.596 -2.3363 -0.5681  2.0809
 3545TIP3    H232127   2.791   2.703  14.469  3.5541 -0.9295 -0.3735
 3546TIP3   OH232128   1.205   4.714   6.331  0.3173  0.1809 -0.1887
 3546TIP3    H132129   1.225   4.799   6.370  4.7861  0.2826 -2.1048
 3546TIP3    H232130   1.138   4.733   6.265 -3.2962  0.8886  3.2329
 3547TIP3   OH232131   1.128   3.770  11.735 -0.1121 -0.0807  0.1227
 3547TIP3    H132132   1.063   3.840  11.737  1.0100  1.0395 -0.8738
 3547TIP3    H232133   1.197   3.803  11.678  0.5977 -1.8954 -0.1334
 3548TIP3   OH232134   2.454   6.786  16.445  0.0919 -0.4443 -0.1549
 3548TIP3    H132135   2.435   6.726  16.517  3.0866 -0.8349  0.4362
 3548TIP3    H232136   2.476   6.728  16.371  2.7251 -0.1879  0.3411
 3549TIP3   OH232137   2.148   1.591   0.623  0.6672  0.1378  0.0120
 3549TIP3    H132138   2.085   1.598   0.552 -0.6100  0.2891  1.1296
 3549TIP3    H232139   2.096   1.572   0.701  2.2994 -3.8046  0.3703
 3550TIP3   OH232140   6.482   4.326  16.415 -0.4392  0.0468  0.2631
 3550TIP3    H132141   6.512   4.236  16.423 -0.5484 -0.2808 -2.1060
 3550TIP3    H232142   6.527   4.373  16.485  1.0806 -1.4890  0.3842
 3551TIP3   OH232143   6.253   1.727  13.411 -0.3362 -0.0096 -0.6130
 3551TIP3    H132144   6.279   1.787  13.481 -0.0725 -0.5539 -0.2376
 3551TIP3    H232145   6.216   1.651  13.456 -0.5957 -0.1674 -1.0804
 3552TIP3   OH232146   1.232   2.836  10.708 -0.3915  0.4502 -0.8139
 3552TIP3    H132147   1.247   2.927  10.684 -1.0694  0.6784 -0.4082
 3552TIP3    H232148   1.155   2.811  10.656  0.2816 -0.1482 -1.5459
 3553TIP3   OH232149   1.952   3.952  11.709  0.5087  0.3576 -0.4083
 3553TIP3    H132150   1.988   3.884  11.767  2.3617 -0.8852 -2.7774
 3553TIP3    H232151   1.861   3.927  11.695  0.5205 -0.2858  0.6097
 3554TIP3   OH232152   6.717   3.019  13.035  0.0078  0.2155 -0.5431
 3554TIP3    H132153   6.772   3.025  13.114 -0.0832 -1.0704 -0.3611
 3554TIP3    H232154   6.628   3.027  13.068 -0.0534 -0.7436 -0.4411
 3555TIP3   OH232155   4.470   0.662   2.530  0.0601  0.2114  0.0840
 3555TIP3    H132156   4.425   0.586   2.495  0.1991 -0.5133  1.4316
 3555TIP3    H232157   4.498   0.636   2.617  2.0016  1.0667 -0.2249
 3556TIP3   OH232158   4.130   1.102  15.590 -0.2125 -0.2735  0.0289
 3556TIP3    H132159   4.151   1.016  15.628 -0.9880 -1.2862 -1.6956
 3556TIP3    H232160   4.198   1.160  15.624  0.2463 -1.5251  1.3798
 3557TIP3   OH232161   1.859   1.665  13.565  0.1452 -0.3430 -0.0615
 3557TIP3    H132162   1.906   1.719  13.502 -1.8772  1.5401 -0.0985
 3557TIP3    H232163   1.782   1.633  13.517 -1.3634  1.0004  1.3102
 3558TIP3   OH232164   0.281   2.303  13.541 -0.1465  0.3722 -0.1840
 3558TIP3    H132165   0.231   2.313  13.622 -0.9746 -0.5377 -0.5596
 3558TIP3    H232166   0.287   2.391  13.505  2.3325  1.2259  2.0436
 3559TIP3   OH232167   6.201   2.072  13.515 -0.2147 -0.4935 -0.2681
 3559TIP3    H132168   6.184   2.020  13.593 -0.5626  0.1395  0.0847
 3559TIP3    H232169   6.140   2.038  13.450  1.2416 -2.2058 -0.8346
 3560TIP3   OH232170   6.435   3.861   6.780  0.0031 -0.2847  1.0576
 3560TIP3    H132171   6.480   3.945   6.792  0.8497 -0.5983  0.1936
 3560TIP3    H232172   6.503   3.802   6.746 -1.2096 -0.5366 -1.1469
 3561TIP3   OH232173   2.154   1.578  14.517  0.1860  0.5862  0.0308
 3561TIP3    H132174   2.151   1.668  14.549  0.8742 -0.0430  2.0416
 3561TIP3    H232175   2.150   1.525  14.597  1.2961 -1.1259 -1.0053
 3562TIP3   OH232176   4.345   0.827  15.939 -0.5212  0.4158 -0.1486
 3562TIP3    H132177   4.436   0.840  15.915 -1.7002  3.4982 -3.9544
 3562TIP3    H232178   4.327   0.894  16.005  0.2870 -1.5886  2.2915
 3563TIP3   OH232179   0.851   0.446   3.705  0.0534  0.1462 -0.2775
 3563TIP3    H132180   0.899   0.447   3.787 -1.0277  0.2472  0.3699
 3563TIP3    H232181   0.910   0.403   3.643  0.9984  0.3457  0.4662
 3564TIP3   OH232182   1.696   1.244   3.654 -0.4947  0.0451  0.7352
 3564TIP3    H132183   1.686   1.319   3.594  2.0646  0.3458  0.5811
 3564TIP3    H232184   1.707   1.284   3.740 -2.9086 -0.3522  1.3005
 3565TIP3   OH232185   1.342   5.583  11.257 -0.6479 -0.3232  0.2996
 3565TIP3    H132186   1.265   5.638  11.271  0.3118  1.1220  0.1268
 3565TIP3    H232187   1.411   5.644  11.233  0.2709 -1.7097 -0.7370
 3566TIP3   OH232188   0.787   5.017  13.630 -0.9395 -0.7469  0.8832
 3566TIP3    H132189   0.809   5.056  13.545 -0.4334 -1.3626  0.7275
 3566TIP3    H232190   0.699   4.981  13.617 -0.2251 -2.2951  0.0967
 3567TIP3   OH232191   1.157   4.192  12.209  0.0752 -0.6527  0.5723
 3567TIP3    H132192   1.088   4.138  12.248  1.4367 -3.1102 -0.1899
 3567TIP3    H232193   1.182   4.253  12.278 -0.9865 -1.5361  1.7924
 3568TIP3   OH232194   1.276   5.432   6.112 -0.7560  0.3649  0.2504
 3568TIP3    H132195   1.350   5.469   6.159 -0.4819  1.0450 -0.6963
 3568TIP3    H232196   1.201   5.447   6.170 -0.5051  1.6335  0.2814
 3569TIP3   OH232197   6.744   0.889   2.502 -0.4259 -0.5883 -0.8284
 3569TIP3    H132198   6.673   0.939   2.542  2.2029  3.0611 -0.1890
 3569TIP3    H232199   6.800   0.863   2.575 -0.5908 -2.7175 -1.3826
 3570TIP3   OH232200   6.128   3.027   4.610 -0.2260  0.5379 -0.4378
 3570TIP3    H132201   6.173   2.948   4.580 -1.4810 -0.7596  0.9588
 3570TIP3    H232202   6.197   3.079   4.652  0.4058 -0.3646 -0.3215
 3571TIP3   OH232203   5.764   4.393  12.415 -0.0884  0.0755 -0.3346
 3571TIP3    H132204   5.802   4.378  12.328  0.8333 -0.3158  0.1238
 3571TIP3    H232205   5.840   4.398  12.473 -0.7247 -0.1865  0.5276
 3572TIP3   OH232206   1.161   1.249  13.600 -0.5605  0.1401  1.0070
 3572TIP3    H132207   1.190   1.232  13.511  1.0362  1.3034  1.2577
 3572TIP3    H232208   1.202   1.181  13.653 -1.0755 -0.2316  0.9376
 3573TIP3   OH232209   4.292   6.431   4.969  0.1267 -0.0014 -0.3576
 3573TIP3    H132210   4.293   6.390   4.883  0.2162  0.3213 -0.5110
 3573TIP3    H232211   4.256   6.518   4.954  2.8586  1.1741 -0.5792
 3574TIP3   OH232212   4.379   5.843   1.252 -0.1172  0.6839 -0.6567
 3574TIP3    H132213   4.443   5.776   1.276 -0.4808  0.5565 -0.0194
 3574TIP3    H232214   4.406   5.871   1.164 -0.9146 -1.4798 -1.6873
 3575TIP3   OH232215   5.753   6.455  13.736  0.5446  0.2745  0.6641
 3575TIP3    H132216   5.792   6.370  13.715  1.3516  0.3906  1.5852
 3575TIP3    H232217   5.803   6.485  13.812  1.8955  2.6481 -1.0436
 3576TIP3   OH232218   5.222   2.982  12.813 -0.1443  0.3957  0.3357
 3576TIP3    H132219   5.239   2.990  12.907 -0.3429 -1.1929  0.5260
 3576TIP3    H232220   5.176   2.899  12.804  3.1612 -1.4554 -1.5468
 3577TIP3   OH232221   3.736   1.541   6.209 -0.2381  0.4217 -0.2586
 3577TIP3    H132222   3.781   1.604   6.153  1.3644  0.2576  0.7780
 3577TIP3    H232223   3.790   1.463   6.206 -1.8375 -0.7096 -0.9693
 3578TIP3   OH232224   2.072   4.510  13.955  0.3272 -0.2026  0.2741
 3578TIP3    H132225   1.982   4.498  13.926  0.2963  0.4959  0.0517
 3578TIP3    H232226   2.064   4.550  14.041  0.4223  0.3430  0.0320
 3579TIP3   OH232227   6.475   4.809  14.063 -0.2108  0.7671  0.7073
 3579TIP3    H132228   6.433   4.894  14.056 -0.6319  0.6109  1.2680
 3579TIP3    H232229   6.405   4.746  14.048  0.5069  0.5027 -1.9712
 3580TIP3   OH232230   1.474   4.709   2.205  0.2654  0.6355 -0.9513
 3580TIP3    H132231   1.380   4.723   2.214  0.6813  3.4224  0.4745
 3580TIP3    H232232   1.508   4.717   2.294  1.7321 -2.0177 -1.1913
 3581TIP3   OH232233   6.147   0.978   3.956  0.4513 -0.2461 -0.0199
 3581TIP3    H132234   6.241   0.977   3.941  0.3183  1.3578 -1.1851
 3581TIP3    H232235   6.111   0.917   3.892  0.5787  0.3870 -0.7055
 3582TIP3   OH232236   4.784   2.017   3.638 -0.0178 -0.5086 -0.6823
 3582TIP3    H132237   4.777   1.961   3.561  0.5445 -0.4194 -0.8065
 3582TIP3    H232238   4.875   2.049   3.636 -0.6840  1.5077 -1.3772
 3583TIP3   OH232239   3.516   0.791   0.478  0.0744  0.7883 -0.0453
 3583TIP3    H132240   3.457   0.845   0.530 -0.4566 -1.0643  1.3867
 3583TIP3    H232241   3.587   0.850   0.453 -1.3994  2.5761 -0.1661
 3584TIP3   OH232242   5.519   2.126   5.703  0.0075 -1.1332 -0.5059
 3584TIP3    H132243   5.482   2.046   5.741  1.1027 -1.2351  0.3975
 3584TIP3    H232244   5.563   2.169   5.777  2.2563 -1.3703 -1.6385
 3585TIP3   OH232245   0.286   0.739   0.066 -0.3558  0.4692 -0.1920
 3585TIP3    H132246   0.353   0.780   0.012 -1.1399  2.4997  0.2891
 3585TIP3    H232247   0.220   0.709   0.003 -0.0663  0.5138 -0.5198
 3586TIP3   OH232248   0.441   5.607   1.169  0.0388 -0.6471 -0.1971
 3586TIP3    H132249   0.518   5.662   1.183 -0.8137  0.4993  0.0996
 3586TIP3    H232250   0.469   5.543   1.103  1.9005 -1.6371  1.4541
 3587TIP3   OH232251   0.454   6.728  13.803  0.2156  0.6308  0.3878
 3587TIP3    H132252   0.417   6.642  13.783 -1.3631  1.2383  0.4886
 3587TIP3    H232253   0.490   6.758  13.720  1.4190 -0.3914  0.5077
 3588TIP3   OH232254   3.068   0.028  15.240  0.4128  0.3586  0.4450
 3588TIP3    H132255   3.049   0.118  15.211  0.4502 -0.1636 -1.2716
 3588TIP3    H232256   2.986  -0.002  15.280  0.5826  1.3352  1.6082
 3589TIP3   OH232257   6.649   4.971   5.328 -0.3750 -0.6996 -0.4158
 3589TIP3    H132258   6.639   4.921   5.409 -0.6319 -0.3457 -0.2312
 3589TIP3    H232259   6.560   5.000   5.307 -0.0547  0.7342  0.1423
 3590TIP3   OH232260   5.654   1.018   0.493 -0.3653  0.1549  0.7343
 3590TIP3    H132261   5.581   0.967   0.529 -0.6038  0.1430  0.2382
 3590TIP3    H232262   5.718   1.022   0.565 -0.7645 -0.0079  1.1028
 3591TIP3   OH232263   5.578   4.907   4.033  0.2146 -0.1643 -0.4461
 3591TIP3    H132264   5.483   4.893   4.042 -0.0828  1.8631  0.0475
 3591TIP3    H232265   5.586   4.969   3.961  1.2429 -0.8668 -0.9480
 3592TIP3   OH232266   0.764   5.924  12.917 -0.3931 -0.1944 -0.7893
 3592TIP3    H132267   0.808   5.895  12.837  1.1474  0.4317 -0.1965
 3592TIP3    H232268   0.828   5.980  12.961 -1.7247  0.5923  0.2088
 3593TIP3   OH232269   5.556   0.004   5.026  0.6499 -0.0666  0.0059
 3593TIP3    H132270   5.467   0.029   5.051  0.4856 -1.3563  0.7836
 3593TIP3    H232271   5.551  -0.011   4.931  0.4724  1.5326 -0.2734
 3594TIP3   OH232272   2.930   3.743  12.530  0.4058  0.4413 -0.5337
 3594TIP3    H132273   2.936   3.747  12.626  0.2010  1.7765 -0.5573
 3594TIP3    H232274   2.874   3.668  12.513  0.5294  0.1223  0.3910
 3595TIP3   OH232275   5.147   5.714   4.079 -0.1910  0.0756 -0.6527
 3595TIP3    H132276   5.184   5.751   4.159  0.2076 -0.2484 -0.6853
 3595TIP3    H232277   5.128   5.790   4.024 -1.1906  0.3512  0.0532
 3596TIP3   OH232278   1.545   5.115  16.903  0.2679 -0.3302  0.0502
 3596TIP3    H132279   1.615   5.139  16.964  0.2558  0.4650 -0.2331
 3596TIP3    H232280   1.487   5.191  16.902  0.3606 -0.2524 -1.0717
 3597TIP3   OH232281   3.723   3.834   2.929 -0.0231  0.5347  0.4535
 3597TIP3    H132282   3.662   3.799   2.994  0.4759  0.8681  1.1115
 3597TIP3    H232283   3.701   3.788   2.848  0.5817 -1.2897  1.2703
 3598TIP3   OH232284   1.581   6.334   1.572  0.1330 -0.4234  0.5830
 3598TIP3    H132285   1.672   6.353   1.548 -0.2122 -0.1609 -0.5734
 3598TIP3    H232286   1.561   6.399   1.639  0.0977  1.0521 -0.7924
 3599TIP3   OH232287   4.340   5.674   4.171 -0.0383 -0.0534 -0.3132
 3599TIP3    H132288   4.354   5.759   4.129  0.7066 -0.6125 -1.2419
 3599TIP3    H232289   4.263   5.638   4.126  0.4334 -0.4196 -0.8396
 3600TIP3   OH232290   3.317   3.876   5.866  0.2913  0.5912  0.5125
 3600TIP3    H132291   3.245   3.818   5.894  2.1412 -0.2374  4.1541
 3600TIP3    H232292   3.368   3.823   5.805 -0.2965 -0.0905  0.6014
 3601TIP3   OH232293   4.074   1.005  15.342  0.1714 -0.4045  0.2595
 3601TIP3    H132294   4.143   0.945  15.370 -0.1332 -0.7416  0.2953
 3601TIP3    H232295   4.075   1.075  15.408  0.7712 -0.1739  0.0171
 3602TIP3   OH232296   2.645   0.188   0.349 -0.1196  0.3408 -0.4530
 3602TIP3    H132297   2.703   0.161   0.277 -0.8431 -2.3200 -0.1600
 3602TIP3    H232298   2.558   0.162   0.320 -0.8507  2.0243  0.1595
 3603TIP3   OH232299   3.956   1.759  15.144 -0.0542 -0.0657 -0.6212
 3603TIP3    H132300   4.043   1.721  15.152 -0.0811 -0.0004  0.0405
 3603TIP3    H232301   3.941   1.765  15.049  1.2018  1.2004 -0.7668
 3604TIP3   OH232302   0.205   3.762  12.425 -0.1012 -0.2921 -0.1326
 3604TIP3    H132303   0.132   3.770  12.363  0.9372  0.2509 -1.3235
 3604TIP3    H232304   0.281   3.795  12.377  0.6517  0.6641  1.6365
 3605TIP3   OH232305   5.092   3.370  12.716 -0.4533  0.1634 -0.2003
 3605TIP3    H132306   5.173   3.389  12.765 -1.1238  0.2585  0.9138
 3605TIP3    H232307   5.122   3.324  12.638  0.8675  2.0666 -0.8928
 3606TIP3   OH232308   2.113   6.652   6.096  0.0874 -0.3976  0.4841
 3606TIP3    H132309   2.195   6.639   6.143  3.1699  1.4690 -3.7324
 3606TIP3    H232310   2.086   6.741   6.117 -0.0063 -0.4774  0.7023
 3607TIP3   OH232311   4.771   0.627  14.134  0.0854 -0.2800 -0.0131
 3607TIP3    H132312   4.707   0.658  14.070  0.3465 -0.8853 -0.5781
 3607TIP3    H232313   4.730   0.644  14.219  0.5615  2.3443 -0.2409
 3608TIP3   OH232314   1.362   4.620  16.625 -0.4800 -0.2055  0.0704
 3608TIP3    H132315   1.271   4.648  16.613 -0.1732  0.1001 -1.8691
 3608TIP3    H232316   1.411   4.675  16.564  0.7132 -1.9549 -0.6045
 3609TIP3   OH232317   2.927   4.794   2.531 -0.2177  1.1683 -0.0546
 3609TIP3    H132318   3.015   4.756   2.526 -0.4618  0.7197 -1.2806
 3609TIP3    H232319   2.868   4.721   2.514 -0.7609  1.7855 -0.8833
 3610TIP3   OH232320   1.365   2.760  15.985 -0.2777  0.1297 -0.4259
 3610TIP3    H132321   1.385   2.852  15.970 -1.9692  1.0528  2.2071
 3610TIP3    H232322   1.429   2.732  16.051  0.7213 -0.8900 -1.7498
 3611TIP3   OH232323   0.308   2.230  17.172  0.3841 -0.3813  0.1700
 3611TIP3    H132324   0.273   2.171  17.105 -0.9145 -0.1104  0.5727
 3611TIP3    H232325   0.282   2.191  17.255 -0.4551  0.7074  0.4473
 3612TIP3   OH232326   6.139   4.358  11.982  0.1070 -0.3047 -0.4116
 3612TIP3    H132327   6.176   4.307  12.054 -1.1984  0.8675  1.1703
 3612TIP3    H232328   6.176   4.446  11.993  0.2179 -0.2090 -1.4427
 3613TIP3   OH232329   2.678   4.015  17.046 -0.4564 -0.1428  0.1514
 3613TIP3    H132330   2.600   3.990  16.997  0.1391 -0.8483 -0.4493
 3613TIP3    H232331   2.643   4.059  17.124 -1.4551 -0.5930 -0.0201
 3614TIP3   OH232332   5.017   4.240  15.245  0.3674  0.3065 -0.1605
 3614TIP3    H132333   4.961   4.275  15.176 -0.7382 -1.3853 -0.1940
 3614TIP3    H232334   5.035   4.315  15.302 -0.8406  1.1886 -0.8867
 3615TIP3   OH232335   0.524   1.481  12.947 -0.4423  0.0715 -0.3632
 3615TIP3    H132336   0.575   1.474  13.028 -0.6356  0.0980 -0.2363
 3615TIP3    H232337   0.587   1.508  12.880 -0.3506  0.4137 -0.1427
 3616TIP3   OH232338   3.467   5.602   0.232 -0.3885  0.1905  0.0906
 3616TIP3    H132339   3.549   5.577   0.275 -0.3904  1.4855  0.8974
 3616TIP3    H232340   3.458   5.540   0.159  0.8214 -0.5548  0.5456
 3617TIP3   OH232341   2.462   0.322  16.933 -0.2682 -0.8198  0.0590
 3617TIP3    H132342   2.438   0.249  16.990  0.3726 -1.5892 -0.6285
 3617TIP3    H232343   2.470   0.283  16.846 -0.1411  0.1167 -0.3564
 3618TIP3   OH232344   2.006   0.511  16.877 -0.3213  0.0155 -0.1850
 3618TIP3    H132345   1.957   0.555  16.945 -1.8754 -0.0310 -1.2221
 3618TIP3    H232346   2.098   0.522  16.902 -0.8449 -0.7301  2.3258
 3619TIP3   OH232347   3.035   4.446   5.449 -0.1978 -0.8952  0.0859
 3619TIP3    H132348   3.096   4.499   5.397 -0.1534 -0.0997  0.9113
 3619TIP3    H232349   3.091   4.380   5.490  0.1349 -0.1551  0.8554
 3620TIP3   OH232350   3.796   5.969  16.065 -0.2454  0.0523  0.0881
 3620TIP3    H132351   3.799   5.880  16.100  0.1096 -0.5006 -1.2754
 3620TIP3    H232352   3.842   5.963  15.981 -2.3589  0.9809 -1.2082
 3621TIP3   OH232353   3.602   6.167   5.091  0.2487 -0.1441  0.0095
 3621TIP3    H132354   3.691   6.184   5.060  0.5555 -1.5506  0.0343
 3621TIP3    H232355   3.599   6.072   5.102 -0.9920 -0.0269  0.8380
 3622TIP3   OH232356   3.015   4.260  14.444 -0.0778 -0.1915  0.2518
 3622TIP3    H132357   3.057   4.244  14.528  0.9290  2.4006  0.3225
 3622TIP3    H232358   3.077   4.225  14.379  0.0362 -0.4869  0.5200
 3623TIP3   OH232359   6.310   5.103  16.401 -0.6986  0.8436 -0.8152
 3623TIP3    H132360   6.265   5.020  16.386 -0.3372  0.9905 -3.2904
 3623TIP3    H232361   6.318   5.142  16.313 -0.0113  3.0494  0.1431
 3624TIP3   OH232362   0.054   6.562  11.528 -0.7072  0.1168  0.3698
 3624TIP3    H132363   0.068   6.600  11.614  0.0100  0.3677  0.1444
 3624TIP3    H232364   0.112   6.486  11.524 -2.0904 -1.0257  0.7991
 3625TIP3   OH232365   4.440   4.018  14.283  0.2931  0.4739 -0.2136
 3625TIP3    H132366   4.363   4.069  14.259 -0.4812  0.0767  1.2707
 3625TIP3    H232367   4.512   4.056  14.232 -0.5312  2.0710 -0.2398
 3626TIP3   OH232368   4.391   4.262  15.949 -0.1702 -0.2691  0.6211
 3626TIP3    H132369   4.364   4.255  15.857 -1.0376  1.8366  0.6640
 3626TIP3    H232370   4.340   4.194  15.994 -0.6512 -0.5180 -0.2624
 3627TIP3   OH232371   1.143   6.113  15.511 -0.3093  0.0856 -0.5071
 3627TIP3    H132372   1.050   6.110  15.535 -0.6420  1.0837 -1.5791
 3627TIP3    H232373   1.184   6.164  15.581 -0.2883 -1.4865  0.6911
 3628TIP3   OH232374   0.384   4.571   0.629 -0.3082 -0.0687 -0.6508
 3628TIP3    H132375   0.348   4.587   0.542 -0.5912  2.6260 -0.1339
 3628TIP3    H232376   0.312   4.590   0.689  0.6193  0.7831  0.2414
 3629TIP3   OH232377   0.736   4.496  12.245 -0.4781  0.2624  0.0716
 3629TIP3    H132378   0.743   4.592  12.248 -1.6351  0.3802 -0.4066
 3629TIP3    H232379   0.809   4.465  12.299 -0.5149  1.4262  0.8277
 3630TIP3   OH232380   0.734   2.617  12.326  0.3208 -0.3852 -0.0639
 3630TIP3    H132381   0.757   2.537  12.278  1.9032 -0.1862  0.3115
 3630TIP3    H232382   0.722   2.683  12.259 -0.3376 -0.7696 -0.3372
 3631TIP3   OH232383   3.373   4.388  16.367 -0.0740 -0.4522  0.3973
 3631TIP3    H132384   3.333   4.420  16.287  0.4825  1.0218  0.6704
 3631TIP3    H232385   3.337   4.443  16.436  0.3494 -0.9206  1.0052
 3632TIP3   OH232386   0.155   5.741   4.907 -0.0707  0.1478  0.1267
 3632TIP3    H132387   0.190   5.742   4.818 -0.1574  3.7354 -0.0483
 3632TIP3    H232388   0.060   5.750   4.895 -0.0699  0.8001  0.5299
 3633TIP3   OH232389   0.269   1.381   4.548  0.3433  0.1101  0.9807
 3633TIP3    H132390   0.339   1.444   4.535  0.3216 -0.0308  0.1673
 3633TIP3    H232391   0.282   1.315   4.480 -1.1425  0.6016  0.1713
 3634TIP3   OH232392   2.301   5.886  16.966  0.1566  0.4484 -0.6568
 3634TIP3    H132393   2.272   5.972  16.995  1.2162 -0.2252  2.8218
 3634TIP3    H232394   2.378   5.866  17.019 -0.0533 -2.6696 -1.2818
 3635TIP3   OH232395   5.598   6.668  12.541  0.0128  0.2406 -0.2167
 3635TIP3    H132396   5.586   6.761  12.521 -0.6115 -0.1265 -1.6725
 3635TIP3    H232397   5.606   6.626  12.455  0.9429 -0.9785  0.4368
 3636TIP3   OH232398   1.803   1.388  10.811  0.2378 -0.4126 -0.1349
 3636TIP3    H132399   1.815   1.300  10.777 -0.8133 -0.7594  0.3310
 3636TIP3    H232400   1.733   1.425  10.757 -0.3295 -0.3943  0.5974
 3637TIP3   OH232401   2.355   5.488  11.871 -1.2214 -0.1926  0.0145
 3637TIP3    H132402   2.327   5.417  11.929 -1.7438 -2.0797 -2.3744
 3637TIP3    H232403   2.418   5.538  11.923 -0.1695 -2.9141  1.5751
 3638TIP3   OH232404   1.787   1.923   1.947  0.1907  0.0296 -0.3682
 3638TIP3    H132405   1.764   1.833   1.972  1.0427 -0.2679 -0.6204
 3638TIP3    H232406   1.875   1.915   1.910  0.5735  1.0835  0.2905
 3639TIP3   OH232407   2.920   1.208  14.002  0.3629  0.2579 -0.6547
 3639TIP3    H132408   2.827   1.222  13.984  0.2211  1.4539  0.7982
 3639TIP3    H232409   2.966   1.266  13.942 -0.0618  3.5045  1.8681
 3640TIP3   OH232410   3.199   5.933   5.778 -0.2705  0.1703  0.2686
 3640TIP3    H132411   3.148   5.877   5.719 -1.1311  1.5496 -0.3483
 3640TIP3    H232412   3.279   5.951   5.729 -0.6971  0.7790 -0.2160
 3641TIP3   OH232413   0.309   5.572  15.224 -0.0939  0.2958  0.0655
 3641TIP3    H132414   0.286   5.663  15.205 -0.2705  0.1127 -0.6366
 3641TIP3    H232415   0.232   5.537  15.269 -0.1136  0.4339  0.1376
 3642TIP3   OH232416   6.762   3.602  14.935  0.5184  0.6627  0.3540
 3642TIP3    H132417   6.710   3.610  14.855  0.1450  0.3927  0.5683
 3642TIP3    H232418   6.769   3.692  14.968 -1.0831  0.5445  1.1253
 3643TIP3   OH232419   2.117   3.251   2.995  0.5257 -0.3669  0.9200
 3643TIP3    H132420   2.106   3.345   2.990 -0.4612 -0.4992  0.4142
 3643TIP3    H232421   2.048   3.222   3.055 -0.1176 -0.9123 -0.0514
 3644TIP3   OH232422   6.146   5.199  11.928 -0.5220  0.2898 -0.0312
 3644TIP3    H132423   6.114   5.148  11.854  1.0032  0.9645 -1.1868
 3644TIP3    H232424   6.175   5.282  11.890  0.5056  0.5640  1.2735
 3645TIP3   OH232425   4.693   0.252   1.031 -0.0402  0.5420 -0.1492
 3645TIP3    H132426   4.776   0.291   1.056 -0.2156  1.4496 -0.9529
 3645TIP3    H232427   4.626   0.314   1.062 -0.4525 -0.2976  0.7201
 3646TIP3   OH232428   0.725   1.478   3.273  0.1402 -0.9090  0.5492
 3646TIP3    H132429   0.654   1.417   3.291  0.3067 -0.2974  3.7746
 3646TIP3    H232430   0.686   1.542   3.213 -1.2571 -1.8899  0.3398
 3647TIP3   OH232431   2.146   2.189  14.763 -0.5731  0.0383  0.2170
 3647TIP3    H132432   2.177   2.274  14.794 -0.0405 -0.1187  0.1393
 3647TIP3    H232433   2.051   2.195  14.764 -0.5368  0.6909  0.0567
 3648TIP3   OH232434   0.633   3.992  12.885 -0.1558 -0.0375  0.8278
 3648TIP3    H132435   0.560   3.963  12.831 -0.5046  1.5329  0.3966
 3648TIP3    H232436   0.597   3.992  12.974  0.6368 -3.3340  1.2813
 3649TIP3   OH232437   2.274   6.675  15.866 -0.5815  0.0403 -0.2823
 3649TIP3    H132438   2.233   6.630  15.940 -1.3132  0.5183 -0.3763
 3649TIP3    H232439   2.224   6.645  15.790  1.2582 -1.7750 -0.8337
 3650TIP3   OH232440   4.984   4.527   3.673 -0.1434 -0.0903 -0.2664
 3650TIP3    H132441   4.983   4.495   3.583 -2.3441  1.0492 -0.7118
 3650TIP3    H232442   5.046   4.600   3.672 -0.4720  0.1781 -0.9528
 3651TIP3   OH232443   2.001   0.662  16.264 -0.3422 -0.4738 -0.2359
 3651TIP3    H132444   1.969   0.724  16.330  1.8846 -1.2700  1.7051
 3651TIP3    H232445   1.964   0.578  16.290  1.2831 -0.9606  0.6044
 3652TIP3   OH232446   3.647   3.502   2.702 -0.8123  0.4658  0.5332
 3652TIP3    H132447   3.636   3.594   2.678 -2.3033  0.2218  0.1571
 3652TIP3    H232448   3.575   3.457   2.657  0.4549 -1.0343 -0.0965
 3653TIP3   OH232449   4.925   3.346  13.400  0.0694 -0.6130 -0.1931
 3653TIP3    H132450   4.857   3.324  13.463  0.5960  0.6329  0.8535
 3653TIP3    H232451   4.893   3.311  13.317 -1.2800 -1.0780  0.4902
 3654TIP3   OH232452   0.595   4.948   3.182  0.0851  0.5776  0.1587
 3654TIP3    H132453   0.584   4.876   3.120  2.5109 -0.6406  0.9966
 3654TIP3    H232454   0.624   5.022   3.129 -1.1503  0.5702 -0.5474
 3655TIP3   OH232455   3.975   1.421  15.776 -0.5616 -0.0787 -0.4100
 3655TIP3    H132456   3.926   1.340  15.789 -2.1252  1.0348  1.1740
 3655TIP3    H232457   3.989   1.426  15.681 -1.3417 -1.6723 -0.6413
 3656TIP3   OH232458   5.061   3.113   5.728  0.1377  0.2132 -0.6003
 3656TIP3    H132459   5.084   3.042   5.788  2.9243  0.7771 -0.8468
 3656TIP3    H232460   5.116   3.098   5.651  2.3091  3.5705  0.0975
 3657TIP3   OH232461   5.449   6.452   5.630 -0.1872  0.1525  0.2364
 3657TIP3    H132462   5.359   6.484   5.633 -0.3713 -0.3050 -0.3372
 3657TIP3    H232463   5.445   6.365   5.670 -0.5035 -0.9932 -2.1310
 3658TIP3   OH232464   6.668   5.990   5.521  0.0703 -0.1074 -0.7158
 3658TIP3    H132465   6.624   5.933   5.584 -1.0965  1.1341 -0.3488
 3658TIP3    H232466   6.752   5.946   5.503 -0.6156 -1.7173 -0.1815
 3659TIP3   OH232467   5.696   2.801  12.635 -0.0727  0.2131 -0.3959
 3659TIP3    H132468   5.671   2.709  12.630  0.0342  0.1415  0.2604
 3659TIP3    H232469   5.641   2.845  12.570  0.2284 -0.3816 -1.0575
 3660TIP3   OH232470   1.808   2.974  11.341  0.5359  0.2429  0.0726
 3660TIP3    H132471   1.765   2.970  11.255  0.9041 -1.2553 -0.0704
 3660TIP3    H232472   1.897   3.004  11.321  0.6538 -0.2053 -0.0907
 3661TIP3   OH232473   5.313   5.322  14.700 -0.3657  0.5262  0.3168
 3661TIP3    H132474   5.352   5.363  14.777 -0.2554  1.2503 -0.1172
 3661TIP3    H232475   5.355   5.236  14.694 -1.1580 -0.0012  1.6891
 3662TIP3   OH232476   2.063   5.635   0.820 -0.1974 -0.2987 -0.2357
 3662TIP3    H132477   2.042   5.574   0.749 -0.3866  1.6602 -1.9673
 3662TIP3    H232478   2.156   5.621   0.837  0.1450 -0.0435 -1.7183
 3663TIP3   OH232479   4.024   0.904   0.981 -0.0446  0.2375 -0.5095
 3663TIP3    H132480   4.058   0.821   0.947  1.8394 -0.3384  2.4271
 3663TIP3    H232481   3.976   0.880   1.060  1.2119  1.9447  0.8559
 3664TIP3   OH232482   2.659   2.996   1.183 -0.2174  0.1170  0.0455
 3664TIP3    H132483   2.590   3.037   1.130  0.2288 -0.6656 -1.1993
 3664TIP3    H232484   2.652   3.038   1.269  0.2095  2.8302 -1.1231
 3665TIP3   OH232485   6.101   6.263  12.722  0.5960  0.4473  0.7820
 3665TIP3    H132486   6.153   6.199  12.675 -0.1325  0.0568  0.4941
 3665TIP3    H232487   6.163   6.332  12.745  1.2244  0.0167  0.4043
 3666TIP3   OH232488   3.801   1.875  12.879 -0.5265  0.3457 -0.2939
 3666TIP3    H132489   3.886   1.912  12.900 -0.6151 -0.3139  1.3513
 3666TIP3    H232490   3.766   1.932  12.810  0.2524  1.9977  0.6291
 3667TIP3   OH232491   3.665   4.793   4.510 -0.3828  0.6209 -0.1707
 3667TIP3    H132492   3.688   4.821   4.422  0.2452  2.6559  0.6015
 3667TIP3    H232493   3.738   4.738   4.539  0.8077  2.3111  0.1198
 3668TIP3   OH232494   5.875   0.034   4.264 -0.4853  0.2821  0.2490
 3668TIP3    H132495   5.786   0.005   4.286 -0.0216 -1.3175  0.1503
 3668TIP3    H232496   5.922   0.029   4.347 -0.2214  0.0812  0.0868
 3669TIP3   OH232497   3.011   0.515   0.545  0.6137 -0.5026 -0.3126
 3669TIP3    H132498   3.007   0.436   0.599 -1.6071 -0.4298 -0.2733
 3669TIP3    H232499   2.988   0.586   0.606  0.5534 -0.1058 -0.7900
 3670TIP3   OH232500   4.781   2.359   3.588  0.4923 -0.0741  0.3827
 3670TIP3    H132501   4.745   2.446   3.606 -0.7133 -0.5276  0.2860
 3670TIP3    H232502   4.739   2.334   3.505  2.5985  0.1891 -0.8212
 3671TIP3   OH232503   0.914   6.182   5.960  0.2562 -0.4848  0.2036
 3671TIP3    H132504   0.987   6.158   6.017 -0.0152 -2.3011 -0.1810
 3671TIP3    H232505   0.955   6.197   5.874  0.3136 -0.4565  0.2362
 3672TIP3   OH232506   0.883   3.959  13.098 -0.1163  0.3409  0.0915
 3672TIP3    H132507   0.884   3.898  13.024  1.5175 -0.3950  0.6660
 3672TIP3    H232508   0.952   3.927  13.157  0.1181  2.1635  0.8992
 3673TIP3   OH232509   2.212   2.625   3.419  0.7089 -0.3677  0.1161
 3673TIP3    H132510   2.166   2.607   3.338  0.1542 -2.3577  0.8260
 3673TIP3    H232511   2.304   2.634   3.393  0.2594  1.5167 -1.0134
 3674TIP3   OH232512   0.580   5.615   4.121 -0.5673 -0.2505  0.4280
 3674TIP3    H132513   0.645   5.675   4.084 -1.6385  0.3553 -0.5645
 3674TIP3    H232514   0.522   5.596   4.047 -1.3281 -1.0368  1.2118
 3675TIP3   OH232515   2.722   1.078  15.320  0.1996  0.1741 -0.0441
 3675TIP3    H132516   2.768   1.149  15.363  0.8155 -0.9394  1.1971
 3675TIP3    H232517   2.661   1.122  15.260  0.5026  1.7278  0.7327
 3676TIP3   OH232518   5.289   1.637  13.995  0.0094  0.1040 -0.2642
 3676TIP3    H132519   5.207   1.666  13.955 -0.0048 -0.5288 -0.6998
 3676TIP3    H232520   5.319   1.565  13.940  0.3623 -0.3155  0.4567
 3677TIP3   OH232521   4.784   2.335   0.406  0.5952  0.3856  0.2010
 3677TIP3    H132522   4.847   2.284   0.357 -1.2885  1.4634 -3.8035
 3677TIP3    H232523   4.728   2.271   0.450  2.2501 -0.6328  0.9053
 3678TIP3   OH232524   0.533   5.231   1.414 -0.4074  0.0684 -0.2927
 3678TIP3    H132525   0.511   5.323   1.430  0.3512  0.0440  1.0743
 3678TIP3    H232526   0.619   5.219   1.455 -1.7455 -1.9445  2.2548
 3679TIP3   OH232527   3.846   0.161   0.590  0.0479 -0.3419  0.3350
 3679TIP3    H132528   3.779   0.212   0.545 -0.6692 -0.8359  0.8125
 3679TIP3    H232529   3.847   0.195   0.680 -1.1640 -1.7822  0.9512
 3680TIP3   OH232530   1.508   0.753   2.054 -0.1560  0.1894  0.1273
 3680TIP3    H132531   1.510   0.849   2.056  1.1925  0.1900 -0.3991
 3680TIP3    H232532   1.533   0.730   1.965  1.6764 -0.6464  0.7908
 3681TIP3   OH232533   4.410   1.591   2.076 -0.2215  0.4967  0.1947
 3681TIP3    H132534   4.438   1.671   2.122  1.0553  0.7700 -0.9948
 3681TIP3    H232535   4.407   1.617   1.984  3.6644 -1.6039 -0.7455
 3682TIP3   OH232536   1.090   0.952   4.297  0.2238  0.1786  0.4427
 3682TIP3    H132537   1.174   0.977   4.261  0.1948 -2.2755 -1.6355
 3682TIP3    H232538   1.104   0.949   4.392  2.4561 -0.0611  0.1483
 3683TIP3   OH232539   3.740   2.474  11.713 -0.5181  0.3716  0.0515
 3683TIP3    H132540   3.661   2.447  11.667 -0.0163  0.5979 -0.9602
 3683TIP3    H232541   3.803   2.496  11.644  0.0406  1.3390  0.8339
 3684TIP3   OH232542   0.459   2.804  17.197  0.3032 -0.6334  0.3279
 3684TIP3    H132543   0.488   2.793  17.288 -1.2648 -0.1937  0.9154
 3684TIP3    H232544   0.522   2.866  17.160 -1.2371  2.4200  2.3512
 3685TIP3   OH232545   5.784   0.854  15.046 -0.9120  0.0902 -0.4452
 3685TIP3    H132546   5.706   0.799  15.052 -0.6463 -0.2665 -0.2879
 3685TIP3    H232547   5.819   0.856  15.135  1.0274 -2.2958 -1.0619
 3686TIP3   OH232548   0.971   5.016   4.935  0.1920  0.0973 -0.1458
 3686TIP3    H132549   0.893   4.974   4.972 -0.2316  1.5502  0.7148
 3686TIP3    H232550   0.975   5.101   4.980  2.1835  0.1178 -0.2951
 3687TIP3   OH232551   3.504   5.295  13.989 -0.5086 -0.2935  0.5290
 3687TIP3    H132552   3.575   5.329  14.043 -0.5480  2.5790 -1.0610
 3687TIP3    H232553   3.540   5.289  13.901 -1.8365 -0.0834 -0.0576
 3688TIP3   OH232554   0.953   5.963  16.013  0.4351 -0.5899  0.3278
 3688TIP3    H132555   0.992   5.876  16.015  1.5894 -0.1357 -0.8239
 3688TIP3    H232556   0.958   5.993  16.104  0.2609 -1.6156  0.6897
 3689TIP3   OH232557   6.453   4.649   5.711  0.3152 -0.0332 -0.2937
 3689TIP3    H132558   6.465   4.569   5.660  0.8377 -0.3120  0.2526
 3689TIP3    H232559   6.465   4.622   5.802 -0.3765  0.5022 -0.0333
 3690TIP3   OH232560   0.053   1.390  10.801 -0.1784 -0.3740  0.4960
 3690TIP3    H132561   0.111   1.325  10.842  3.1617  3.3293  2.2733
 3690TIP3    H232562   0.071   1.382  10.708 -0.1297 -2.1782  0.6230
 3691TIP3   OH232563   6.162   3.136   0.209  0.0366 -0.5408 -0.6431
 3691TIP3    H132564   6.087   3.188   0.180 -0.7916 -0.6590  1.1463
 3691TIP3    H232565   6.222   3.136   0.134  0.0871  2.9494 -0.7602
 3692TIP3   OH232566   4.816   0.782   3.763 -0.1970  0.6270  0.3589
 3692TIP3    H132567   4.733   0.745   3.793 -0.3552  0.8794  0.2306
 3692TIP3    H232568   4.842   0.843   3.832 -1.4623  2.5726 -0.8187
 3693TIP3   OH232569   0.899   5.834  12.690  0.6283  0.4501  0.0130
 3693TIP3    H132570   0.959   5.824  12.617  2.2618 -0.0969  1.3594
 3693TIP3    H232571   0.952   5.813  12.768 -1.4943 -0.8089  1.2129
 3694TIP3   OH232572   0.142   0.468  14.770 -0.4419  0.5759 -0.0171
 3694TIP3    H132573   0.066   0.526  14.774 -0.5878  0.3581  2.6368
 3694TIP3    H232574   0.120   0.403  14.703 -1.5483  1.8600 -0.9494
 3695TIP3   OH232575   4.781   2.848   1.407  0.0123  0.4619  0.0164
 3695TIP3    H132576   4.807   2.757   1.397 -1.9759  0.0898 -3.6208
 3695TIP3    H232577   4.841   2.896   1.350 -0.5900  1.0319 -0.1500
 3696TIP3   OH232578   5.795   4.788   3.155 -0.1772  0.0337  0.3017
 3696TIP3    H132579   5.858   4.849   3.117 -0.7905  1.3717  1.3272
 3696TIP3    H232580   5.782   4.820   3.245 -1.3387 -0.9774  0.5288
 3697TIP3   OH232581   6.000   2.765   5.598 -0.3461  0.2625 -0.2027
 3697TIP3    H132582   6.032   2.681   5.631  1.6741  0.6801 -0.9501
 3697TIP3    H232583   5.907   2.767   5.623 -0.4057 -2.0892  0.0018
 3698TIP3   OH232584   2.691   5.518   0.675  0.2100  0.0031 -0.2499
 3698TIP3    H132585   2.677   5.590   0.613 -1.4247  3.2363  3.4211
 3698TIP3    H232586   2.772   5.541   0.720  0.9237 -1.8311 -0.5076
 3699TIP3   OH232587   5.323   5.807   3.700  0.3761  0.4567  0.2321
 3699TIP3    H132588   5.302   5.874   3.765 -1.8327  1.1668 -1.1127
 3699TIP3    H232589   5.249   5.747   3.703  0.6492  0.0393 -1.0403
 3700TIP3   OH232590   3.111   5.943  11.921 -0.2037  0.1400  0.2994
 3700TIP3    H132591   3.205   5.947  11.905 -0.4976  0.3918 -1.6293
 3700TIP3    H232592   3.103   5.925  12.014  1.7629 -0.8530  0.3171
 3701TIP3   OH232593   3.755   6.155   0.914  0.2931 -0.0090  0.1681
 3701TIP3    H132594   3.766   6.230   0.972  0.3035 -0.7507  1.1623
 3701TIP3    H232595   3.727   6.084   0.972 -2.8765 -0.0275 -1.1994
 3702TIP3   OH232596   6.525   5.604   0.994 -0.3225  0.2153 -0.1470
 3702TIP3    H132597   6.527   5.517   1.034  0.1002  0.2588 -0.0637
 3702TIP3    H232598   6.437   5.636   1.010 -0.7615 -0.5491 -0.9280
 3703TIP3   OH232599   4.550   2.078   3.015  0.1673  0.0242  0.2731
 3703TIP3    H132600   4.592   1.998   3.045 -1.1846 -1.2811 -1.1213
 3703TIP3    H232601   4.602   2.106   2.939 -0.1232 -0.2719 -0.0351
 3704TIP3   OH232602   0.518   5.241   5.778 -0.0672  0.4442  0.2425
 3704TIP3    H132603   0.498   5.265   5.687 -0.9106  1.3060  0.6388
 3704TIP3    H232604   0.448   5.181   5.804  1.0438 -1.0860 -0.1592
 3705TIP3   OH232605   0.583   4.496  12.903 -0.2170 -0.1847  0.1979
 3705TIP3    H132606   0.603   4.460  12.990  0.5359 -2.0507 -0.6912
 3705TIP3    H232607   0.492   4.471  12.887 -0.2943 -0.0149  0.3727
 3706TIP3   OH232608   2.494   3.386   4.250  0.6102  0.0070 -0.3472
 3706TIP3    H132609   2.482   3.412   4.341  0.3056 -1.3863  0.0255
 3706TIP3    H232610   2.520   3.294   4.254  0.7942 -0.0243 -1.6645
 3707TIP3   OH232611   0.810   4.312   5.589  0.6246  0.2847 -0.1352
 3707TIP3    H132612   0.724   4.322   5.631  0.3638  0.2244 -0.6505
 3707TIP3    H232613   0.832   4.220   5.601  0.8941  0.4255  0.5154
 3708TIP3   OH232614   0.464   6.831   4.722 -0.2648 -0.5057 -0.0628
 3708TIP3    H132615   0.435   6.856   4.634  1.7843  0.8502 -0.4113
 3708TIP3    H232616   0.496   6.912   4.761 -0.1837 -1.2824  1.5858
 3709TIP3   OH232617   1.603   3.462  12.698 -0.6501 -0.3974 -0.3454
 3709TIP3    H132618   1.604   3.445  12.793  0.1502  0.6493 -0.1490
 3709TIP3    H232619   1.546   3.394  12.662 -3.2927  0.8883  1.1960
 3710TIP3   OH232620   6.643   5.483   4.596 -0.5454  0.0600 -0.2495
 3710TIP3    H132621   6.735   5.467   4.571 -0.5785 -0.1568 -0.2334
 3710TIP3    H232622   6.631   5.433   4.676 -0.5714  0.3935 -0.0416
 3711TIP3   OH232623   4.353   0.960  15.201 -0.4857 -0.3032 -0.4894
 3711TIP3    H132624   4.332   1.053  15.198  2.0533  0.3221 -0.6405
 3711TIP3    H232625   4.340   0.936  15.293  0.0729  0.5270 -0.1823
 3712TIP3   OH232626   4.930   1.595   1.569  0.5402  0.0522  0.2914
 3712TIP3    H132627   4.983   1.674   1.561 -0.2363  0.4760 -0.9942
 3712TIP3    H232628   4.967   1.535   1.504  0.1286 -0.0431  0.1397
 3713TIP3   OH232629   3.539   4.174   3.098 -0.0675  0.2463 -0.4775
 3713TIP3    H132630   3.629   4.200   3.116 -0.0366 -0.5193  0.5542
 3713TIP3    H232631   3.491   4.197   3.179 -0.2911 -1.6337 -0.0404
 3714TIP3   OH232632   4.031   5.057  11.490  0.3490 -0.9071  0.8955
 3714TIP3    H132633   4.017   4.963  11.482 -1.4205 -0.7167  1.3599
 3714TIP3    H232634   4.026   5.090  11.401  0.8693 -1.2247  0.7418
 3715TIP3   OH232635   6.461   2.410  11.581 -0.2248  0.3538  0.2273
 3715TIP3    H132636   6.467   2.386  11.674  0.5595  1.0311  0.3651
 3715TIP3    H232637   6.468   2.505  11.581  1.5987  0.2667 -0.6348
 3716TIP3   OH232638   2.427   6.504  14.202  0.4678 -0.3428 -0.0206
 3716TIP3    H132639   2.412   6.596  14.180  1.5883  0.3550  1.9144
 3716TIP3    H232640   2.339   6.469  14.219  0.0738  0.5001 -0.2999
 3717TIP3   OH232641   4.045   0.422  10.691 -0.1205  0.2209  0.4440
 3717TIP3    H132642   4.032   0.379  10.606  0.5836 -2.4180  1.5766
 3717TIP3    H232643   3.964   0.405  10.739 -0.3160  1.2677  0.5182
 3718TIP3   OH232644   0.085   5.807  15.732 -0.1314 -0.3524  0.0642
 3718TIP3    H132645   0.136   5.877  15.691  0.0868 -1.2609 -1.3056
 3718TIP3    H232646   0.144   5.732  15.733 -0.8821 -0.9588  0.0121
 3719TIP3   OH232647   6.509   3.266   0.230  0.5564 -0.4530  0.1082
 3719TIP3    H132648   6.420   3.288   0.205  0.2101 -0.3592  1.3448
 3719TIP3    H232649   6.525   3.180   0.191  0.0881 -0.2831 -0.4732
 3720TIP3   OH232650   3.468   0.876  15.683 -0.4794  0.3600  0.7889
 3720TIP3    H132651   3.375   0.857  15.669 -0.4691  0.5231  0.5001
 3720TIP3    H232652   3.469   0.939  15.754 -0.5913  0.3778  0.7750
 3721TIP3   OH232653   1.017   0.202   2.675 -0.0357  0.1301  0.1158
 3721TIP3    H132654   0.933   0.247   2.677 -0.7337 -1.1397  0.5791
 3721TIP3    H232655   1.000   0.117   2.717  1.3663 -0.3317 -0.1887
 3722TIP3   OH232656   2.362   2.463  16.809 -0.3174 -0.1664 -0.2233
 3722TIP3    H132657   2.339   2.377  16.773 -0.7716 -0.3283  0.4272
 3722TIP3    H232658   2.421   2.443  16.882  2.3522  0.2586 -2.1015
 3723TIP3   OH232659   5.489   2.735  15.041 -0.0394 -0.0855  0.0662
 3723TIP3    H132660   5.572   2.784  15.033 -0.3926  0.3890 -0.8526
 3723TIP3    H232661   5.515   2.651  15.080  1.1690 -0.6522 -1.8096
 3724TIP3   OH232662   5.499   4.957   4.525 -0.0832  0.3676 -0.4997
 3724TIP3    H132663   5.570   5.011   4.492 -1.2450  2.9793  0.9571
 3724TIP3    H232664   5.510   4.959   4.620 -1.0524 -0.7653 -0.3341
 3725TIP3   OH232665   1.598   6.579   3.508 -0.0347 -0.6730 -0.4708
 3725TIP3    H132666   1.520   6.632   3.525 -0.4586 -1.0159 -1.2582
 3725TIP3    H232667   1.570   6.517   3.441  1.3431  0.2395 -1.9896
 3726TIP3   OH232668   6.141   1.347  15.917  0.1063 -0.6927  0.5319
 3726TIP3    H132669   6.149   1.293  15.996  1.3303  0.1722  1.0340
 3726TIP3    H232670   6.088   1.422  15.944  0.0750 -0.6652  0.3935
 3727TIP3   OH232671   3.252   3.311  13.307 -0.1194  0.2610  0.4133
 3727TIP3    H132672   3.224   3.224  13.281 -0.5650  0.3637  0.5486
 3727TIP3    H232673   3.325   3.295  13.367 -0.0715 -0.0129  0.2840
 3728TIP3   OH232674   0.007   0.185  12.440  0.0086  0.1023 -1.1176
 3728TIP3    H132675   0.097   0.196  12.470  0.6037 -1.4269 -2.2187
 3728TIP3    H232676  -0.031   0.122  12.501 -0.2456  0.5359 -0.8203
 3729TIP3   OH232677   6.716   6.683  12.259  0.5970 -0.3400  1.2081
 3729TIP3    H132678   6.716   6.778  12.267 -1.3161 -0.3511  1.8103
 3729TIP3    H232679   6.627   6.656  12.285  0.4142 -2.1110 -0.9132
 3730TIP3   OH232680   5.064   3.501   0.020 -0.1351  0.2178  0.3583
 3730TIP3    H132681   5.103   3.529  -0.063  2.0737  1.5475  1.7377
 3730TIP3    H232682   5.104   3.416   0.039 -0.6759 -0.1087  0.0697
 3731TIP3   OH232683   2.464   1.426  15.724 -0.1634 -0.1551  0.2714
 3731TIP3    H132684   2.478   1.391  15.636  1.4532  0.9024  0.0598
 3731TIP3    H232685   2.440   1.349  15.777  3.0757 -1.6644 -0.1966
 3732TIP3   OH232686   6.518   4.328  15.309  0.3827 -0.0014  0.1030
 3732TIP3    H132687   6.497   4.235  15.323  2.7355 -0.7744 -0.9568
 3732TIP3    H232688   6.558   4.331  15.223  0.2054  2.0695  0.0441
 3733TIP3   OH232689   5.489   0.524  15.922  0.0909 -0.3124 -0.0041
 3733TIP3    H132690   5.572   0.523  15.970 -0.6472 -0.4575  1.3171
 3733TIP3    H232691   5.424   0.496  15.986 -1.1811  1.0168 -0.6481
 3734TIP3   OH232692   2.096   5.785  15.968 -0.0878 -0.8067 -0.3173
 3734TIP3    H132693   2.108   5.819  16.056 -1.1188  0.1436 -0.5141
 3734TIP3    H232694   2.184   5.771  15.934  0.3163 -0.6026  0.6393
 3735TIP3   OH232695   1.354   5.401   3.083 -0.3459 -0.4840 -0.3999
 3735TIP3    H132696   1.403   5.473   3.043 -0.9869 -1.5078 -3.2563
 3735TIP3    H232697   1.399   5.322   3.054 -2.1600 -1.3619 -0.9663
 3736TIP3   OH232698   2.033   5.035   0.721  0.2794  0.5652 -0.1178
 3736TIP3    H132699   1.944   5.072   0.721 -0.7050 -1.6162 -0.0068
 3736TIP3    H232700   2.090   5.110   0.706 -1.6344  1.9133 -1.1726
 3737TIP3   OH232701   4.268   6.160   6.209 -0.0449  0.1642  1.0454
 3737TIP3    H132702   4.314   6.188   6.288 -0.8094 -0.3044  1.6768
 3737TIP3    H232703   4.321   6.194   6.137  1.0891 -0.0698  1.7442
 3738TIP3   OH232704   0.408   2.595   3.239  0.1756  0.2519  0.3603
 3738TIP3    H132705   0.458   2.624   3.316 -0.5968  1.0339  0.5745
 3738TIP3    H232706   0.391   2.675   3.190  1.4906 -0.3392 -1.1617
 3739TIP3   OH232707   0.734   4.773  12.250 -0.1354 -0.4221 -0.1775
 3739TIP3    H132708   0.814   4.827  12.244 -1.0103  0.8377 -0.9596
 3739TIP3    H232709   0.677   4.822  12.309 -0.5960 -0.9916 -0.1470
 3740TIP3   OH232710   0.097   0.255   4.962  0.6865  0.4802 -0.2781
 3740TIP3    H132711   0.133   0.189   4.903 -0.5734 -0.5878  0.0890
 3740TIP3    H232712   0.162   0.325   4.963  1.8481 -0.5498 -1.0465
 3741TIP3   OH232713   0.130   4.117  15.732 -0.3017 -0.8839  0.3594
 3741TIP3    H132714   0.127   4.058  15.807 -1.5705  1.3158  2.1214
 3741TIP3    H232715   0.224   4.130  15.716 -0.0172 -1.6759  1.2866
 3742TIP3   OH232716   3.882   3.787   3.549  0.3019  0.4738  0.4907
 3742TIP3    H132717   3.846   3.861   3.500  0.1337 -0.4220 -0.7826
 3742TIP3    H232718   3.819   3.771   3.620 -0.5472  0.4735 -0.2533
 3743TIP3   OH232719   6.048   5.390   2.512  0.0933 -0.0231 -0.2016
 3743TIP3    H132720   6.040   5.469   2.566 -2.8116 -0.4083  0.1076
 3743TIP3    H232721   6.026   5.318   2.571  0.3981 -0.8205 -1.0395
 3744TIP3   OH232722   3.584   2.354   2.434  0.4214  0.0237 -0.4565
 3744TIP3    H132723   3.528   2.421   2.396  0.5681  0.3860 -0.0374
 3744TIP3    H232724   3.636   2.321   2.360  0.0550  0.0771 -0.7391
 3745TIP3   OH232725   4.029   5.638  14.394 -0.1160 -0.6197 -0.5933
 3745TIP3    H132726   3.996   5.673  14.312  0.7748  1.6345 -0.0692
 3745TIP3    H232727   3.955   5.644  14.454 -0.5578 -1.6116 -1.0079
 3746TIP3   OH232728   0.086   0.163  15.931 -0.4723  0.0741 -0.4279
 3746TIP3    H132729   0.006   0.210  15.955 -0.7423  0.3673 -1.8169
 3746TIP3    H232730   0.154   0.200  15.987 -1.2870 -0.1383  0.7301
 3747TIP3   OH232731   5.610   4.659  11.474 -0.0245 -0.3813 -1.0029
 3747TIP3    H132732   5.638   4.748  11.452 -0.5450  0.1636  0.3789
 3747TIP3    H232733   5.691   4.608  11.476  0.4020  0.2812 -0.8640
 3748TIP3   OH232734   2.290   0.022   1.961  0.3916 -0.3843 -0.1703
 3748TIP3    H132735   2.315  -0.062   1.999 -1.2089 -1.0332 -0.4580
 3748TIP3    H232736   2.196   0.029   1.978  0.3827  1.0800 -0.6723
 3749TIP3   OH232737   0.399   6.478   5.645 -0.7122 -0.2355  0.2655
 3749TIP3    H132738   0.422   6.545   5.580 -1.1017 -0.8859 -0.5597
 3749TIP3    H232739   0.434   6.512   5.727  0.0934  0.4460 -0.3375
 3750TIP3   OH232740   1.975   3.173   5.668  0.6281  0.2812  0.1644
 3750TIP3    H132741   1.931   3.160   5.584 -0.8535 -1.6604  1.1544
 3750TIP3    H232742   2.067   3.154   5.650  0.0761 -1.7984 -0.7188
 3751TIP3   OH232743   5.691   5.845   0.183  0.1852  0.3968  0.4357
 3751TIP3    H132744   5.785   5.849   0.198  0.1085  0.2253  0.9814
 3751TIP3    H232745   5.681   5.856   0.088  0.8172 -0.7883  0.2171
 3752TIP3   OH232746   4.106   6.133  15.894 -0.1896  0.4557 -0.2240
 3752TIP3    H132747   4.043   6.205  15.895  0.2828  0.8819 -0.6020
 3752TIP3    H232748   4.055   6.056  15.866 -0.9579  0.3748  1.2966
 3753TIP3   OH232749   6.188   4.347   1.529 -0.4403  0.4167 -0.1829
 3753TIP3    H132750   6.158   4.340   1.439 -0.2210 -1.1288 -0.1703
 3753TIP3    H232751   6.283   4.354   1.522 -0.5296  2.2212 -0.1090
 3754TIP3   OH232752   0.300   5.311  12.893  0.2703  0.1005 -0.1348
 3754TIP3    H132753   0.357   5.253  12.944 -1.7495 -0.7462  1.3122
 3754TIP3    H232754   0.314   5.398  12.932 -0.7614 -0.4245  1.5334
 3755TIP3   OH232755   6.690   0.815   6.008 -0.4539  0.0239  0.4307
 3755TIP3    H132756   6.702   0.876   6.081  0.1873  1.3252 -0.7216
 3755TIP3    H232757   6.614   0.763   6.033 -0.0314  0.1739  2.1858
 3756TIP3   OH232758   0.418   4.545  16.010 -0.1615 -0.6054  0.3127
 3756TIP3    H132759   0.457   4.500  16.086  0.6786 -2.0170 -0.9031
 3756TIP3    H232760   0.483   4.612  15.987  0.0408 -0.8277  0.2371
 3757TIP3   OH232761   5.294   5.364   4.879  0.4815 -0.5804  0.3166
 3757TIP3    H132762   5.225   5.371   4.813 -1.3199 -1.6662  1.9959
 3757TIP3    H232763   5.365   5.418   4.844 -0.9554  0.0986 -1.7757
 3758TIP3   OH232764   0.459   0.194   0.566  0.2591  0.4931 -0.1706
 3758TIP3    H132765   0.425   0.261   0.624  2.3610 -0.2793  2.1573
 3758TIP3    H232766   0.525   0.239   0.512  0.6757  0.5959  0.4163
 3759TIP3   OH232767   1.093   4.905   4.089  0.3235 -0.5064 -0.3870
 3759TIP3    H132768   1.157   4.841   4.119  1.9443  1.3539  0.3609
 3759TIP3    H232769   1.072   4.957   4.167  0.8403  1.3105 -1.3877
 3760TIP3   OH232770   4.799   1.236   2.837  0.3366 -0.6002 -0.0120
 3760TIP3    H132771   4.874   1.292   2.859 -1.0412  0.5767  2.0683
 3760TIP3    H232772   4.794   1.240   2.742  0.6725  2.4574 -0.0209
 3761TIP3   OH232773   1.079   1.416  14.727  0.0644 -0.2517 -0.3892
 3761TIP3    H132774   1.054   1.327  14.750 -0.8996  0.3318  0.8908
 3761TIP3    H232775   1.036   1.432  14.643  1.2638 -1.3936 -1.2687
 3762TIP3   OH232776   5.247   5.897   5.332  0.1878  0.3913  0.3094
 3762TIP3    H132777   5.174   5.836   5.318  1.1497 -0.9978  1.1241
 3762TIP3    H232778   5.234   5.930   5.421 -0.9119  2.2470 -0.4891
 3763TIP3   OH232779   3.127   0.605   3.894 -0.4022 -0.0979  0.2692
 3763TIP3    H132780   3.162   0.537   3.836 -0.0621 -0.9318  1.4131
 3763TIP3    H232781   3.038   0.620   3.863 -0.8166 -1.7557  0.5335
 3764TIP3   OH232782   1.536   1.346  12.845  0.2002 -0.3402  0.7290
 3764TIP3    H132783   1.529   1.263  12.797 -0.6586 -0.4156  0.9711
 3764TIP3    H232784   1.531   1.413  12.778  1.3394 -0.4780  0.4827
 3765TIP3   OH232785   1.760   5.035   5.770  0.1907 -0.1656 -0.0780
 3765TIP3    H132786   1.732   4.977   5.699  1.7738  0.8592 -1.6237
 3765TIP3    H232787   1.763   4.979   5.847  2.2238 -2.3333 -1.6194
 3766TIP3   OH232788   3.143   5.068   1.835  0.0269 -0.1712 -0.1201
 3766TIP3    H132789   3.079   5.016   1.785  0.8728  1.9374 -3.8094
 3766TIP3    H232790   3.092   5.140   1.871 -0.2372 -0.4447  0.0575
 3767TIP3   OH232791   4.244   0.615   0.459 -0.0035  0.3011  0.7267
 3767TIP3    H132792   4.292   0.610   0.541  2.1106 -1.4496 -0.5239
 3767TIP3    H232793   4.310   0.602   0.391 -1.9800 -0.5435 -1.1576
 3768TIP3   OH232794   1.725   6.345  16.310  0.6690 -0.1777 -0.6115
 3768TIP3    H132795   1.787   6.314  16.244  1.1040  0.1560 -0.3692
 3768TIP3    H232796   1.772   6.415  16.355  1.3064 -1.9431  1.6348
 3769TIP3   OH232797   0.747   5.199  11.218 -0.1501 -0.0202  0.6031
 3769TIP3    H132798   0.683   5.268  11.231 -0.0947 -0.3522  3.0562
 3769TIP3    H232799   0.696   5.125  11.183 -0.6971  0.3831  0.5395
 3770TIP3   OH232800   0.438   2.377   0.970 -0.5753 -0.0658 -0.3515
 3770TIP3    H132801   0.525   2.339   0.982  0.6022  2.4808 -0.0527
 3770TIP3    H232802   0.451   2.444   0.902 -2.0647  1.0369  0.3952
 3771TIP3   OH232803   2.704   0.885   3.986  0.3714 -0.3830  0.1283
 3771TIP3    H132804   2.780   0.913   3.934 -0.2006  1.8327  0.4134
 3771TIP3    H232805   2.670   0.809   3.939  1.2152  0.1835 -1.4691
 3772TIP3   OH232806   4.636   3.604   0.845 -0.4677 -0.1656 -0.2154
 3772TIP3    H132807   4.720   3.605   0.800  0.2254 -2.8047  0.8390
 3772TIP3    H232808   4.571   3.610   0.775  0.5721  0.6111 -1.1448
 3773TIP3   OH232809   3.155   3.583  14.901  0.7945  1.0086 -0.1689
 3773TIP3    H132810   3.245   3.566  14.929  0.1164 -0.0023  1.5757
 3773TIP3    H232811   3.131   3.664  14.946  0.0615 -0.0320  1.3868
 3774TIP3   OH232812   2.330   3.305  12.481 -0.1723 -0.2526 -0.4705
 3774TIP3    H132813   2.290   3.335  12.563 -1.3046  0.2371 -1.1836
 3774TIP3    H232814   2.371   3.222  12.504  0.6342  0.4884  0.8894
 3775TIP3   OH232815   5.815   5.829   4.363  0.3462 -0.1468  0.1074
 3775TIP3    H132816   5.762   5.908   4.365 -1.5454 -1.3518 -0.3461
 3775TIP3    H232817   5.888   5.852   4.305 -1.5154  0.5191 -2.1477
 3776TIP3   OH232818   4.630   4.680  12.601 -0.1034 -0.4670  0.2554
 3776TIP3    H132819   4.539   4.704  12.588  0.0326 -0.0986 -0.0480
 3776TIP3    H232820   4.630   4.585  12.601 -0.2560 -0.4974 -1.5485
 3777TIP3   OH232821   4.029   5.909   4.139  0.5454 -0.4656  0.5374
 3777TIP3    H132822   4.076   5.954   4.069  1.2289 -0.3685  1.0426
 3777TIP3    H232823   4.010   5.822   4.104 -2.1261  0.6117 -1.0257
 3778TIP3   OH232824   6.259   3.467  15.725 -0.4988 -0.1267 -0.4033
 3778TIP3    H132825   6.214   3.470  15.641 -0.3095 -1.6101 -0.5803
 3778TIP3    H232826   6.278   3.374  15.739  0.6461  0.2425  0.6551
 3779TIP3   OH232827   2.772   0.715  12.047 -0.0203 -0.0330  0.2685
 3779TIP3    H132828   2.821   0.794  12.026 -0.2452  0.1735  0.5164
 3779TIP3    H232829   2.682   0.745  12.057 -0.1601 -0.3720  0.0483
 3780TIP3   OH232830   2.684   4.038  11.745 -0.0606  0.2463  0.1756
 3780TIP3    H132831   2.711   4.055  11.835 -0.2652  0.9560  0.1045
 3780TIP3    H232832   2.765   4.020  11.698  0.2352  1.6789  0.1090
 3781TIP3   OH232833   1.640   3.681   5.170 -0.1768  0.0633  0.1277
 3781TIP3    H132834   1.677   3.655   5.085 -0.9215 -0.1307 -0.1439
 3781TIP3    H232835   1.577   3.612   5.191 -2.2895  1.6192 -0.6811
 3782TIP3   OH232836   3.895   6.533   4.779  0.0500 -0.1581 -0.3284
 3782TIP3    H132837   3.982   6.556   4.812  0.5114 -1.3757 -0.6253
 3782TIP3    H232838   3.836   6.595   4.821  0.6784 -1.2048  2.3446
 3783TIP3   OH232839   6.362   2.912   5.406  0.2162  0.4366  0.2483
 3783TIP3    H132840   6.293   2.859   5.366  0.8381  0.9481 -1.5809
 3783TIP3    H232841   6.314   2.981   5.452 -0.5357  0.8894 -1.1356
 3784TIP3   OH232842   1.801   1.837  10.980  0.0570  0.0350  0.3577
 3784TIP3    H132843   1.859   1.902  10.942 -0.5346  1.1339  1.2601
 3784TIP3    H232844   1.754   1.884  11.049 -1.6741 -0.8789 -0.1196
 3785TIP3   OH232845   2.883   2.195   2.245 -0.1435  0.3683  0.2991
 3785TIP3    H132846   2.804   2.146   2.221 -0.5445  0.8918  0.5061
 3785TIP3    H232847   2.870   2.216   2.338 -0.4166  1.6324 -0.0031
 3786TIP3   OH232848   2.975   1.066  13.598 -0.1000  0.5002  0.0100
 3786TIP3    H132849   3.023   1.140  13.562 -1.7941  0.6167 -2.2463
 3786TIP3    H232850   2.911   1.106  13.657  1.2001  0.4975  1.4789
 3787TIP3   OH232851   5.307   3.451  14.660  0.2400  0.3319  0.0632
 3787TIP3    H132852   5.387   3.405  14.685 -0.5392  0.0722  2.2602
 3787TIP3    H232853   5.278   3.495  14.739 -3.0870 -1.5839  0.1034
 3788TIP3   OH232854   4.028   4.872   2.343 -0.7823 -0.1968 -0.0203
 3788TIP3    H132855   4.017   4.809   2.272  0.3883  1.4847 -1.7957
 3788TIP3    H232856   4.018   4.958   2.302 -1.2608  0.8452  2.0991
 3789TIP3   OH232857   0.289   2.592  11.583  0.2662  0.1316  0.3017
 3789TIP3    H132858   0.377   2.622  11.564  0.3261 -0.0817  0.2415
 3789TIP3    H232859   0.275   2.518  11.524 -0.0309  0.2994  0.1570
 3790TIP3   OH232860   4.451   0.945  14.832 -0.2217 -0.4771 -0.3637
 3790TIP3    H132861   4.531   0.920  14.878  0.4429 -0.7919 -1.6430
 3790TIP3    H232862   4.415   1.017  14.884 -0.9960 -2.5113  2.1723
 3791TIP3   OH232863   6.023   4.295  14.367 -0.3120  0.2073 -0.2384
 3791TIP3    H132864   6.060   4.335  14.288  1.4916  0.7159  0.8088
 3791TIP3    H232865   5.929   4.293  14.351  0.0789 -1.1154 -3.0409
 3792TIP3   OH232866   2.597   4.729  14.904 -0.3008 -0.1880  0.1916
 3792TIP3    H132867   2.659   4.780  14.852  0.1214  0.0525  0.9243
 3792TIP3    H232868   2.652   4.671  14.957 -0.6931  0.2656  1.0950
 3793TIP3   OH232869   6.810   5.204  12.376  1.0439  0.2500 -0.2502
 3793TIP3    H132870   6.716   5.198  12.359  1.1968  0.7439 -1.3270
 3793TIP3    H232871   6.838   5.113  12.389  0.7505 -0.0934 -1.8131
 3794TIP3   OH232872   2.571   1.745   0.667 -0.4130  0.1044  0.1346
 3794TIP3    H132873   2.605   1.663   0.702  0.2672  0.2279 -0.2277
 3794TIP3    H232874   2.488   1.757   0.712 -0.1824 -0.4200  0.7155
 3795TIP3   OH232875   2.928   5.789   2.886  0.0341  0.0220 -0.1620
 3795TIP3    H132876   2.949   5.702   2.921 -1.8264 -0.2357  0.4039
 3795TIP3    H232877   2.910   5.842   2.964 -0.2940  0.5267 -0.5744
 3796TIP3   OH232878   0.729   1.518  15.962 -0.4592  0.0639 -0.3187
 3796TIP3    H132879   0.690   1.480  15.883 -0.1853 -1.2590  0.1601
 3796TIP3    H232880   0.727   1.447  16.027  0.8455  0.6042  0.3544
 3797TIP3   OH232881   6.130   6.114  13.240  0.1763  0.6067 -0.1314
 3797TIP3    H132882   6.068   6.111  13.167  0.3028  0.7459 -0.2440
 3797TIP3    H232883   6.207   6.067  13.208  0.7678  1.8560 -0.5914
 3798TIP3   OH232884   1.140   6.332  14.902 -0.1628 -0.3018 -0.0381
 3798TIP3    H132885   1.144   6.236  14.904 -0.3046 -0.2952  0.5716
 3798TIP3    H232886   1.150   6.354  14.809 -2.0545 -1.0063 -0.4643
 3799TIP3   OH232887   4.394   5.853  16.863  0.4672  0.4495  0.2199
 3799TIP3    H132888   4.450   5.881  16.791 -0.7569  1.5102 -0.3331
 3799TIP3    H232889   4.404   5.921  16.929  0.5917  0.1247  0.5432
 3800TIP3   OH232890   3.421   0.798  13.362  0.0523 -0.0131  0.0834
 3800TIP3    H132891   3.349   0.857  13.383  1.9519  2.5546 -0.0913
 3800TIP3    H232892   3.495   0.856  13.345  1.7418 -2.4397 -1.4852
 3801TIP3   OH232893   6.044   5.396  12.732 -0.1348  0.2050 -0.1120
 3801TIP3    H132894   6.099   5.372  12.807  0.3486  0.7145 -0.2964
 3801TIP3    H232895   6.004   5.313  12.704  0.1448 -0.0855  0.3366
 3802TIP3   OH232896   0.490   0.174  14.729  0.0227 -0.8757  0.2827
 3802TIP3    H132897   0.436   0.237  14.777 -0.2058 -0.3236 -0.6900
 3802TIP3    H232898   0.465   0.184  14.638  0.2679 -2.1175  0.0642
 3803TIP3   OH232899   6.035   2.038   3.288  0.3907  0.2195 -0.5173
 3803TIP3    H132900   5.968   2.106   3.280 -0.8897 -0.4748  2.6071
 3803TIP3    H232901   6.076   2.054   3.373  1.3556 -1.7779 -0.5383
 3804TIP3   OH232902   2.293   2.742   4.573  0.0239 -0.2006 -0.0631
 3804TIP3    H132903   2.350   2.800   4.523 -0.7367 -0.4496 -1.2765
 3804TIP3    H232904   2.238   2.700   4.507  1.9972 -4.0335  0.4323
 3805TIP3   OH232905   1.160   2.085   4.345 -0.4309  0.3767  0.1072
 3805TIP3    H132906   1.252   2.083   4.318 -0.2457  1.4057  0.6248
 3805TIP3    H232907   1.144   1.999   4.384  0.4732  0.4010  0.5392
 3806TIP3   OH232908   5.012   4.935   5.936  0.3748 -0.0151  0.3485
 3806TIP3    H132909   5.010   5.009   5.997 -3.2977  0.6822 -0.3977
 3806TIP3    H232910   4.975   4.862   5.985 -0.3248 -0.0919 -0.2726
 3807TIP3   OH232911   2.299   6.720   0.310 -0.1977  0.1510  0.0198
 3807TIP3    H132912   2.229   6.729   0.375  1.3843  1.2324  1.6980
 3807TIP3    H232913   2.350   6.645   0.339 -1.3811 -1.5420 -2.0083
 3808TIP3   OH232914   5.967   1.691   0.369  0.5716  0.4388  0.0971
 3808TIP3    H132915   6.054   1.708   0.404 -0.4938  0.3973  3.0874
 3808TIP3    H232916   5.934   1.778   0.344  1.6726  0.3683 -1.8116
 3809TIP3   OH232917   4.919   0.641   3.559 -0.1225  0.1330  0.4050
 3809TIP3    H132918   4.871   0.658   3.640 -1.1758 -1.4179  0.1638
 3809TIP3    H232919   4.961   0.724   3.538 -3.8449  2.1123 -0.0987
 3810TIP3   OH232920   2.773   3.397   2.971 -0.5669  0.5116 -0.7099
 3810TIP3    H132921   2.860   3.432   2.989 -1.4305  2.3493  0.1348
 3810TIP3    H232922   2.732   3.389   3.057 -2.0304  1.9035 -1.2298
 3811TIP3   OH232923   2.774   2.507  11.175 -0.3871 -0.2804  0.3639
 3811TIP3    H132924   2.704   2.522  11.239 -0.0339 -0.2080  0.7348
 3811TIP3    H232925   2.855   2.524  11.223 -0.0351 -1.8346  0.3685
 3812TIP3   OH232926   5.968   3.876   0.817  0.3061  0.5425  0.7742
 3812TIP3    H132927   5.917   3.880   0.898 -0.3638  0.5808  0.3584
 3812TIP3    H232928   5.989   3.968   0.799 -0.6025  0.6615  0.2555
 3813TIP3   OH232929   4.714   5.355   4.911 -0.4161 -0.9732  0.4122
 3813TIP3    H132930   4.799   5.360   4.955 -2.1484  1.2603  4.0363
 3813TIP3    H232931   4.653   5.396   4.973 -3.5695  0.8477 -3.4684
 3814TIP3   OH232932   3.563   3.919  14.281  0.1652 -0.6093  0.6904
 3814TIP3    H132933   3.506   3.923  14.204  0.0216 -0.7280  0.7905
 3814TIP3    H232934   3.642   3.968  14.255  0.8857 -2.1526 -0.1806
 3815TIP3   OH232935   4.736   0.545  15.637 -0.4885 -0.6925  0.8838
 3815TIP3    H132936   4.726   0.580  15.548 -1.1263 -0.5490  1.0090
 3815TIP3    H232937   4.648   0.549  15.674 -0.1514 -0.3794  1.6638
 3816TIP3   OH232938   0.196   2.955   5.364 -0.2003  0.4548  0.5405
 3816TIP3    H132939   0.119   2.946   5.308  0.3179  2.2079 -0.5237
 3816TIP3    H232940   0.214   3.049   5.366  0.9519  0.2528  2.1125
 3817TIP3   OH232941   4.203   2.145  14.894 -0.2472  0.1972 -0.5692
 3817TIP3    H132942   4.260   2.157  14.819 -0.2544 -0.4372 -0.6830
 3817TIP3    H232943   4.216   2.054  14.920  1.4902  0.9708  1.6176
 3818TIP3   OH232944   6.543   0.574   5.871  0.1995  0.1088 -0.7478
 3818TIP3    H132945   6.474   0.632   5.838 -0.9845 -1.1014 -0.4912
 3818TIP3    H232946   6.536   0.581   5.967 -3.0612 -3.7063 -0.4313
 3819TIP3   OH232947   4.182   1.925  13.287  0.3490 -0.5313  0.4721
 3819TIP3    H132948   4.251   1.864  13.313  2.4349  2.0468  1.5596
 3819TIP3    H232949   4.143   1.953  13.369 -0.2381 -0.0655  0.0431
 3820TIP3   OH232950   2.345   3.970   3.929  0.1514  0.0749  0.2872
 3820TIP3    H132951   2.291   3.957   3.852  1.4762 -0.2603 -0.6132
 3820TIP3    H232952   2.356   3.882   3.966  0.4669  0.0748  0.1962
 3821TIP3   OH232953   6.316   5.285   4.733  0.0221  0.0815 -0.1007
 3821TIP3    H132954   6.376   5.272   4.660 -0.2479 -1.7861 -0.0416
 3821TIP3    H232955   6.261   5.206   4.733  1.0288 -0.7500  3.0489
 3822TIP3   OH232956   6.000   5.453  12.173 -0.1831 -0.0507  0.1292
 3822TIP3    H132957   5.947   5.395  12.118 -0.7199 -1.8979  2.4310
 3822TIP3    H232958   5.939   5.521  12.201 -0.0831  0.4969 -0.9186
 3823TIP3   OH232959   4.184   2.509  12.910  0.1722 -0.1241  0.6884
 3823TIP3    H132960   4.273   2.531  12.884 -0.5044 -0.0442 -1.7632
 3823TIP3    H232961   4.150   2.590  12.948 -0.4123  1.5280 -2.9902
 3824TIP3   OH232962   1.309   6.034  11.112  0.3406 -0.7476 -0.3352
 3824TIP3    H132963   1.341   5.959  11.062  1.4054  0.6445 -1.8539
 3824TIP3    H232964   1.288   6.100  11.046 -0.9448  0.1720  0.9367
 3825TIP3   OH232965   3.642   2.925   4.300  0.5913 -0.2824 -0.3153
 3825TIP3    H132966   3.715   2.981   4.328  0.5383 -0.2508 -0.2406
 3825TIP3    H232967   3.583   2.923   4.376  0.1051  0.3584 -0.6769
 3826TIP3   OH232968   0.919   2.274   5.947 -0.0773 -0.2083 -0.4485
 3826TIP3    H132969   1.000   2.295   5.992  1.2694  0.6092 -3.0226
 3826TIP3    H232970   0.898   2.185   5.974  2.3464 -0.8814 -0.5598
 3827TIP3   OH232971   0.176   6.634  15.141 -0.3403  0.3995  0.0624
 3827TIP3    H132972   0.177   6.561  15.203 -2.1412  0.7021  0.5209
 3827TIP3    H232973   0.264   6.671  15.146  0.0179 -0.5439  1.2808
 3828TIP3   OH232974   4.252   0.318  10.896  0.7122 -0.0808  0.0866
 3828TIP3    H132975   4.209   0.353  10.818  0.1945 -0.0954  0.3612
 3828TIP3    H232976   4.192   0.251  10.928  1.4515 -0.8679 -0.1387
 3829TIP3   OH232977   0.662   3.663  10.934 -0.1993  0.2806 -0.1674
 3829TIP3    H132978   0.719   3.619  10.870 -0.0129  0.2418  0.0257
 3829TIP3    H232979   0.579   3.674  10.888 -0.3971 -0.6867 -0.0599
 3830TIP3   OH232980   2.037   2.042   5.069 -0.6315 -0.9859 -0.4325
 3830TIP3    H132981   2.125   2.005   5.073 -0.7961 -1.5305 -1.3441
 3830TIP3    H232982   2.038   2.115   5.131  0.5644 -0.7648 -0.6848
 3831TIP3   OH232983   2.970   1.915   2.321 -0.2185 -0.3854  0.1808
 3831TIP3    H132984   3.006   2.003   2.310  2.4084 -1.0934  2.0703
 3831TIP3    H232985   2.886   1.929   2.364 -0.1561  1.1960 -0.1315
 3832TIP3   OH232986   3.098   5.178  10.747  0.0568  0.0573  0.2416
 3832TIP3    H132987   3.132   5.258  10.786  0.9990  0.0194 -0.4677
 3832TIP3    H232988   3.040   5.141  10.814  1.0188  0.3998  1.2921
 3833TIP3   OH232989   6.754   3.265   2.519 -0.4656  0.0469 -0.0009
 3833TIP3    H132990   6.747   3.170   2.521 -1.6102  0.0829  3.0241
 3833TIP3    H232991   6.687   3.293   2.456 -0.2633 -1.1064 -0.7549
 3834TIP3   OH232992   1.596   2.975   0.451 -0.1042 -0.6492 -0.6681
 3834TIP3    H132993   1.624   3.028   0.526 -0.4022 -3.5759  1.6840
 3834TIP3    H232994   1.677   2.954   0.405  0.1499  0.6905 -0.8715
 3835TIP3   OH232995   1.862   4.755  12.116  0.4957 -0.2047  0.1903
 3835TIP3    H132996   1.824   4.791  12.036 -2.1196 -1.1370  0.9073
 3835TIP3    H232997   1.899   4.671  12.090 -1.6685 -1.2083  0.1388
 3836TIP3   OH232998   5.231   2.755   5.024 -0.2095  0.1853  0.1089
 3836TIP3    H132999   5.278   2.828   5.065  1.0774 -1.1210  1.0502
 3836TIP3    H233000   5.297   2.711   4.970 -0.8313 -0.6061 -0.0288
 3837TIP3   OH233001   2.415   4.740  12.452 -0.4067  0.4477 -0.0777
 3837TIP3    H133002   2.502   4.747  12.490 -0.4909 -1.4809  0.5859
 3837TIP3    H233003   2.355   4.740  12.527 -0.7144 -1.3336 -0.2661
 3838TIP3   OH233004   3.317   2.559   4.473  0.2106  0.0678  0.0489
 3838TIP3    H133005   3.354   2.600   4.395 -1.4574 -0.5878 -1.1493
 3838TIP3    H233006   3.247   2.502   4.440 -0.1431 -0.7128  1.9771
 3839TIP3   OH233007   5.741   6.461  14.022  0.3041 -0.8997  0.7734
 3839TIP3    H133008   5.831   6.433  14.033  0.3544 -0.9391  0.2618
 3839TIP3    H233009   5.742   6.554  14.043  0.6537 -0.6779 -0.1836
 3840TIP3   OH233010   3.397   5.000   1.882 -0.0522 -0.0562 -0.1228
 3840TIP3    H133011   3.388   4.942   1.958 -0.9183 -1.2743 -1.0996
 3840TIP3    H233012   3.307   5.022   1.858  0.2383  0.9200 -0.3610
 3841TIP3   OH233013   5.873   3.958   3.540 -0.6614 -0.3408  0.3983
 3841TIP3    H133014   5.909   3.980   3.626  1.4580 -1.1234 -0.2036
 3841TIP3    H233015   5.949   3.928   3.490 -1.8588 -0.0475 -1.7124
 3842TIP3   OH233016   6.236   1.760   4.528  0.3043 -0.4031  0.5456
 3842TIP3    H133017   6.223   1.832   4.466  1.2591 -1.7346 -1.2697
 3842TIP3    H233018   6.317   1.783   4.573  2.1079 -1.5131 -1.9030
 3843TIP3   OH233019   0.562   3.105   2.711  0.1451 -0.1222  0.5603
 3843TIP3    H133020   0.552   3.072   2.800 -0.7614  0.4118  0.6686
 3843TIP3    H233021   0.544   3.199   2.718 -0.7585 -0.2150 -0.3218
 3844TIP3   OH233022   5.968   0.119   4.520  0.1747 -0.7085  0.1933
 3844TIP3    H133023   5.925   0.168   4.590  1.1725  0.2516  0.1634
 3844TIP3    H233024   5.976   0.031   4.554  0.7850 -0.2200  1.3672
 3845TIP3   OH233025   2.466   1.615   0.283  0.3542 -0.5332 -0.2739
 3845TIP3    H133026   2.489   1.534   0.327  0.9479  0.5221  1.4695
 3845TIP3    H233027   2.409   1.661   0.344  1.2748  1.0308 -0.5177
 3846TIP3   OH233028   6.704   3.722  17.174  0.0797 -0.7939 -0.1053
 3846TIP3    H133029   6.784   3.671  17.163  0.1282 -0.5811 -0.7644
 3846TIP3    H233030   6.641   3.682  17.114 -0.2334 -0.8010  0.2233
 3847TIP3   OH233031   2.015   0.136  11.048 -0.1266  0.3473 -0.6899
 3847TIP3    H133032   1.923   0.147  11.073 -0.0755 -1.2517  0.3107
 3847TIP3    H233033   2.020   0.172  10.959 -1.4528  1.4720 -0.3472
 3848TIP3   OH233034   4.284   2.797   4.894 -0.8011  0.0281  0.9985
 3848TIP3    H133035   4.292   2.778   4.988  1.4282  1.4365  1.1676
 3848TIP3    H233036   4.302   2.891   4.887  0.3575 -0.2747 -0.9373
 3849TIP3   OH233037   3.741   1.836   0.944  0.0778 -0.0314  0.5699
 3849TIP3    H133038   3.701   1.915   0.979 -1.4454 -0.6705  0.3739
 3849TIP3    H233039   3.825   1.829   0.990  0.8764  2.3823 -0.3995
 3850TIP3   OH233040   1.143   2.833  14.910 -0.6921  0.1001 -0.7611
 3850TIP3    H133041   1.210   2.815  14.845 -1.0745  0.1346 -1.1679
 3850TIP3    H233042   1.130   2.750  14.955  1.5663  0.6767  1.1984
 3851TIP3   OH233043   6.822   2.535  15.516 -0.4999 -0.4369  0.2377
 3851TIP3    H133044   6.795   2.623  15.490  2.0009  0.2437 -0.3798
 3851TIP3    H233045   6.740   2.488  15.531 -1.9632  2.4642  2.4041
 3852TIP3   OH233046   1.841   0.014   5.809  0.3296  0.0095  0.4093
 3852TIP3    H133047   1.779   0.038   5.879  0.5843 -0.1712  0.6984
 3852TIP3    H233048   1.825  -0.079   5.795 -2.4097  0.7092 -2.4184
 3853TIP3   OH233049   2.721   0.466   0.431 -0.1970  0.1617  0.1133
 3853TIP3    H133050   2.719   0.473   0.336 -0.5097  0.0907  0.1136
 3853TIP3    H233051   2.714   0.372   0.449 -3.2707  0.3200  0.2624
 3854TIP3   OH233052   4.439   2.385   0.248 -0.0974  0.3481  0.3310
 3854TIP3    H133053   4.439   2.409   0.341  1.8440 -0.1228  0.4928
 3854TIP3    H233054   4.410   2.294   0.247 -1.2065  0.6875  0.3440
 3855TIP3   OH233055   0.713   4.401   3.686 -0.0746 -0.0320  0.2488
 3855TIP3    H133056   0.788   4.456   3.708  0.0390 -0.3268  0.6041
 3855TIP3    H233057   0.750   4.323   3.645 -0.1642 -0.3082  0.6873
 3856TIP3   OH233058   6.051   4.150  15.805 -0.4276 -0.3643 -0.4854
 3856TIP3    H133059   6.008   4.156  15.719  1.2355 -0.6217 -1.3643
 3856TIP3    H233060   6.143   4.165  15.787  0.5036 -3.8604  0.7202
 3857TIP3   OH233061   4.287   0.615   5.676 -0.1229 -0.2947 -0.3306
 3857TIP3    H133062   4.212   0.590   5.622  0.7883  0.6260 -2.0747
 3857TIP3    H233063   4.360   0.621   5.615  0.4490  3.2040  0.4859
 3858TIP3   OH233064   1.503   2.749  10.662  0.1620  0.1490  0.6692
 3858TIP3    H133065   1.536   2.836  10.640  0.0996  0.7036  2.5981
 3858TIP3    H233066   1.408   2.760  10.667 -0.0677 -0.6066 -1.3501
 3859TIP3   OH233067   4.394   0.557  16.050  0.1135 -0.1925  0.0287
 3859TIP3    H133068   4.367   0.648  16.037  0.1332 -0.2076 -0.1281
 3859TIP3    H233069   4.440   0.534  15.969  2.5229  0.5065  1.1066
 3860TIP3   OH233070   0.263   1.315  11.040  0.1196  0.1593  0.1054
 3860TIP3    H133071   0.305   1.370  11.107 -0.5318 -0.5434  1.1149
 3860TIP3    H233072   0.194   1.269  11.087 -1.2259  0.6207 -1.3285
 3861TIP3   OH233073   6.823   6.835   4.127  0.3580  0.2437  0.3335
 3861TIP3    H133074   6.742   6.865   4.169 -0.5798  0.5056 -1.5753
 3861TIP3    H233075   6.876   6.914   4.119  1.3711 -0.1091  2.6109
 3862TIP3   OH233076   2.215   1.243  15.090  0.1854  0.0360  0.3473
 3862TIP3    H133077   2.236   1.211  15.178  0.9298  0.5339  0.3597
 3862TIP3    H233078   2.203   1.338  15.102 -0.0980  0.0470 -0.0215
 3863TIP3   OH233079   2.065   2.992  13.946 -0.0201 -0.2214 -0.4706
 3863TIP3    H133080   2.135   3.047  13.982  1.9525 -2.9605  0.2229
 3863TIP3    H233081   2.049   3.027  13.859  0.6209  1.8294  0.1738
 3864TIP3   OH233082   5.014   5.118   5.538  0.5456 -0.4072  0.2977
 3864TIP3    H133083   5.050   5.042   5.585 -0.3170 -1.1734 -0.2453
 3864TIP3    H233084   5.069   5.125   5.459  0.2887 -0.8122  0.0786
 3865TIP3   OH233085   6.510   1.079   0.150 -0.2179 -0.5040 -0.1017
 3865TIP3    H133086   6.562   1.147   0.192  1.1446 -2.4944  1.6646
 3865TIP3    H233087   6.421   1.092   0.184  0.1331  0.0462  0.6366
 3866TIP3   OH233088   0.536   1.537   4.365  0.3203 -0.3190 -0.2626
 3866TIP3    H133089   0.621   1.496   4.348  0.2505 -0.4007 -0.4173
 3866TIP3    H233090   0.552   1.595   4.440 -0.2379 -2.8196  1.9651
 3867TIP3   OH233091   2.153   5.510   2.002 -0.0123  0.2639 -0.7866
 3867TIP3    H133092   2.103   5.581   1.962  0.6787 -0.3818 -2.9343
 3867TIP3    H233093   2.104   5.430   1.979  0.3625 -0.1404 -0.2296
 3868TIP3   OH233094   0.280   5.630  13.893 -0.1301  0.3162 -0.5837
 3868TIP3    H133095   0.356   5.647  13.949  1.2727 -1.8026 -1.7101
 3868TIP3    H233096   0.283   5.536  13.876 -2.3946  0.3569 -1.5774
 3869TIP3   OH233097   3.086   5.091  12.766  0.0086  0.1199  0.2156
 3869TIP3    H133098   3.075   4.997  12.777  1.7594 -0.4442 -2.0497
 3869TIP3    H233099   2.997   5.125  12.754 -0.5519 -1.4711 -0.3393
 3870TIP3   OH233100   0.550   4.819   2.315 -0.3172  0.5122 -0.4063
 3870TIP3    H133101   0.643   4.836   2.297 -0.0066  0.7322  1.2526
 3870TIP3    H233102   0.550   4.776   2.401 -1.6088 -1.4893 -1.3433
 3871TIP3   OH233103   0.492   0.210   2.416  0.7226  0.0244  0.3068
 3871TIP3    H133104   0.492   0.183   2.508  0.2552 -0.3977  0.1919
 3871TIP3    H233105   0.509   0.129   2.367 -1.7541 -0.3393 -0.0974
 3872TIP3   OH233106   0.168   6.184  11.671 -0.3774 -0.8782 -0.0815
 3872TIP3    H133107   0.097   6.234  11.710  1.2751  0.5506  1.2597
 3872TIP3    H233108   0.193   6.120  11.737 -0.1931 -1.1533 -0.4099
 3873TIP3   OH233109   3.885   2.075   2.743 -0.0306  0.1374  0.4495
 3873TIP3    H133110   3.910   2.073   2.650 -1.9270 -0.3490 -0.0795
 3873TIP3    H233111   3.797   2.111   2.744  0.6168  1.8454  2.2649
 3874TIP3   OH233112   6.405   6.598   4.255 -0.2383 -0.1864 -0.4283
 3874TIP3    H133113   6.472   6.663   4.280 -0.3584 -0.7113  1.4070
 3874TIP3    H233114   6.371   6.567   4.339 -0.0895 -2.7242 -1.2529
 3875TIP3   OH233115   0.176   3.936   5.266 -0.8378  0.2446  0.1110
 3875TIP3    H133116   0.176   3.845   5.235  0.3051  0.4194 -0.4275
 3875TIP3    H233117   0.107   3.978   5.215 -0.8708 -0.1442 -0.1728
 3876TIP3   OH233118   1.001   2.743   3.224 -0.0973  0.1898  0.0452
 3876TIP3    H133119   0.910   2.740   3.197  0.1572 -4.4365 -1.1309
 3876TIP3    H233120   1.004   2.695   3.306  1.2693  0.2430  0.0592
 3877TIP3   OH233121   6.131   3.549   2.346  0.1292  0.4960  0.5135
 3877TIP3    H133122   6.049   3.572   2.391  0.7427  2.4366  0.7674
 3877TIP3    H233123   6.200   3.581   2.404  1.0374  0.1262 -0.3269
 3878TIP3   OH233124   2.708   5.160  13.317 -0.3711 -0.7593 -0.6724
 3878TIP3    H133125   2.629   5.111  13.294 -0.5213 -1.1142  0.5296
 3878TIP3    H233126   2.714   5.152  13.413  0.7558 -0.1837 -0.6813
 3879TIP3   OH233127   2.463   1.289   0.331  0.0861 -0.3009 -0.2135
 3879TIP3    H133128   2.468   1.217   0.394  1.3719 -0.3768 -0.3756
 3879TIP3    H233129   2.522   1.263   0.260 -0.5223  0.2742 -0.9542
 3880TIP3   OH233130   0.867   5.590   0.453  0.1766 -0.5574 -0.6425
 3880TIP3    H133131   0.773   5.592   0.472  0.1697 -0.6829 -0.6674
 3880TIP3    H233132   0.893   5.500   0.468  0.3798 -0.4264 -0.2133
 3881TIP3   OH233133   4.551   5.839  14.246  0.4119  0.1616  0.4669
 3881TIP3    H133134   4.468   5.794  14.230  0.6074 -0.5017  1.2682
 3881TIP3    H233135   4.604   5.820  14.169 -0.3109  0.9081 -0.2269
 3882TIP3   OH233136   0.425   1.557  16.680 -0.3611 -0.0915 -0.2972
 3882TIP3    H133137   0.480   1.593  16.611 -0.3095  0.1419 -0.1374
 3882TIP3    H233138   0.414   1.630  16.742 -0.8427 -0.1376 -0.3233
 3883TIP3   OH233139   6.059   6.713   3.308 -0.0006 -0.8018  0.7773
 3883TIP3    H133140   6.081   6.780   3.373  0.1234 -1.6890  1.6812
 3883TIP3    H233141   5.973   6.740   3.275 -0.8570 -1.1916  2.5412
 3884TIP3   OH233142   2.820   3.148  12.129 -0.4477 -0.7230  0.2914
 3884TIP3    H133143   2.751   3.206  12.097  0.1168  0.4539  1.1110
 3884TIP3    H233144   2.781   3.101  12.202 -0.3410  0.1282  0.9187
 3885TIP3   OH233145   0.034   3.880  16.241 -0.1565  0.1847  0.1111
 3885TIP3    H133146   0.012   3.880  16.335  1.8077 -1.4748  0.6548
 3885TIP3    H233147   0.108   3.818  16.234  0.6775  1.3374 -2.3193
 3886TIP3   OH233148   2.295   5.285   4.952 -0.1885 -0.5116 -0.3983
 3886TIP3    H133149   2.327   5.202   4.917 -2.8789 -2.3723  1.2341
 3886TIP3    H233150   2.221   5.308   4.896  2.2088  2.4717 -2.6551
 3887TIP3   OH233151   4.047   3.325   5.069 -0.2955 -0.9459  0.0593
 3887TIP3    H133152   4.021   3.237   5.095  0.8762 -2.2562 -2.8230
 3887TIP3    H233153   4.143   3.321   5.061 -0.1576  0.7578  0.3172
 3888TIP3   OH233154   2.651   4.572  13.021 -0.1993 -0.3282  0.2703
 3888TIP3    H133155   2.630   4.605  13.109 -0.1675 -1.2624  0.6424
 3888TIP3    H233156   2.571   4.527  12.993 -0.2573  0.0851 -0.2451
 3889TIP3   OH233157   3.291   4.389   4.149  0.0449  0.4041  0.5666
 3889TIP3    H133158   3.378   4.362   4.123 -0.1762  1.5012 -1.5171
 3889TIP3    H233159   3.279   4.475   4.107 -1.5322  0.8940  1.9002
 3890TIP3   OH233160   0.625   6.011  14.940 -0.0812  0.1495 -0.1096
 3890TIP3    H133161   0.560   5.957  14.894  0.2701 -0.4325  0.0637
 3890TIP3    H233162   0.626   5.975  15.029 -0.1966  0.7643  0.1414
 3891TIP3   OH233163   0.962   2.430   5.159 -0.0487 -0.1243 -0.4944
 3891TIP3    H133164   1.007   2.509   5.189 -0.0310 -0.8315  1.4853
 3891TIP3    H233165   1.033   2.367   5.142 -0.1019 -1.5252  3.4486
 3892TIP3   OH233166   6.666   0.386   1.266  0.4573 -0.1973 -0.6570
 3892TIP3    H133167   6.615   0.443   1.323  2.3641  0.2650  0.7144
 3892TIP3    H233168   6.652   0.298   1.301  0.1548 -0.1392 -0.6347
 3893TIP3   OH233169   0.382   3.372  15.012  0.0632  0.3785 -0.1622
 3893TIP3    H133170   0.385   3.431  15.087  4.9687  2.9144 -1.9641
 3893TIP3    H233171   0.407   3.287  15.048  0.7158  1.1664  1.3510
 3894TIP3   OH233172   0.999   2.084  16.643  0.0941 -0.2498  0.3672
 3894TIP3    H133173   0.981   2.092  16.549  0.3741 -0.2848  0.3099
 3894TIP3    H233174   0.952   2.158  16.683 -0.3231 -0.4477  0.2421
 3895TIP3   OH233175   6.584   6.313  14.079  0.6181  0.1929 -0.1527
 3895TIP3    H133176   6.658   6.281  14.027  0.7217  1.1565 -0.6157
 3895TIP3    H233177   6.510   6.259  14.051 -0.1111  2.7100 -3.7404
 3896TIP3   OH233178   5.720   0.756   4.044  0.0689 -0.2791 -0.5562
 3896TIP3    H133179   5.785   0.816   4.082  1.5322 -1.2375 -1.4641
 3896TIP3    H233180   5.692   0.702   4.118 -0.4798  0.7878  0.0491
 3897TIP3   OH233181   6.098   1.660   1.251 -0.2132  0.2092  0.8082
 3897TIP3    H133182   6.157   1.584   1.255  0.9813  0.8439 -1.9738
 3897TIP3    H233183   6.134   1.722   1.315 -0.3362 -0.9654  2.0538
 3898TIP3   OH233184   0.828   1.933   3.418  0.1982  0.0099 -0.0265
 3898TIP3    H133185   0.747   1.947   3.368  0.9093 -0.3945 -1.3233
 3898TIP3    H233186   0.820   1.843   3.451  0.4134 -0.2647 -0.7174
 3899TIP3   OH233187   2.942   5.354   0.090  0.0246  0.1718 -0.3201
 3899TIP3    H133188   2.874   5.413   0.122  0.8031  0.7902  0.2516
 3899TIP3    H233189   3.024   5.400   0.108  0.5869 -0.4532 -1.2079
 3900TIP3   OH233190   5.676   5.655  13.144 -0.1158  0.2434 -0.4081
 3900TIP3    H133191   5.644   5.729  13.093 -1.0413 -0.0523 -0.2759
 3900TIP3    H233192   5.763   5.681  13.172 -1.0690  2.0241  1.1390
 3901TIP3   OH233193   3.147   1.013   5.841 -0.0108 -0.3650 -0.3224
 3901TIP3    H133194   3.220   1.069   5.865 -0.2005 -0.6236  0.9476
 3901TIP3    H233195   3.127   0.964   5.922 -2.7458  0.9969 -0.0722
 3902TIP3   OH233196   0.760   5.622   0.078 -0.2407  0.0758  0.1073
 3902TIP3    H133197   0.825   5.582   0.020 -0.9432  0.0054 -0.6716
 3902TIP3    H233198   0.696   5.552   0.094 -1.2992  0.7452 -0.9877
 3903TIP3   OH233199   5.392   3.454   2.103  0.6731 -0.3570 -0.3167
 3903TIP3    H133200   5.375   3.390   2.172 -1.4544  0.8942  0.4037
 3903TIP3    H233201   5.399   3.402   2.024 -1.3353 -1.5223  0.1952
 3904TIP3   OH233202   5.893   2.359  13.612 -0.1112  0.0116  0.2222
 3904TIP3    H133203   5.904   2.323  13.524  0.8618 -1.0599  0.7566
 3904TIP3    H233204   5.884   2.454  13.598  0.0433 -0.1404 -1.0212
 3905TIP3   OH233205   3.166   2.961  15.137 -0.3439 -0.4488 -0.3576
 3905TIP3    H133206   3.138   2.960  15.228 -1.7373 -0.5564 -0.7552
 3905TIP3    H233207   3.147   3.050  15.107 -2.0491 -1.0164 -1.1233
 3906TIP3   OH233208   5.131   0.736  16.572  0.2971  0.5896  0.2121
 3906TIP3    H133209   5.075   0.658  16.569  0.7135  0.2221  1.2291
 3906TIP3    H233210   5.205   0.715  16.516 -0.4441  0.9757 -0.9330
 3907TIP3   OH233211   5.502   4.492   6.360 -0.9140  0.0259 -0.0189
 3907TIP3    H133212   5.508   4.573   6.310 -0.8064  0.2625  0.3738
 3907TIP3    H233213   5.466   4.518   6.444 -0.9210 -0.3415  0.0941
 3908TIP3   OH233214   4.237   1.354  12.784  0.3110  0.1735 -0.7034
 3908TIP3    H133215   4.326   1.385  12.803  0.2183 -0.1235  0.2195
 3908TIP3    H233216   4.187   1.374  12.862 -0.1865 -0.6466 -0.8037
 3909TIP3   OH233217   5.277   0.323   0.819  0.4062  0.1497  0.6605
 3909TIP3    H133218   5.340   0.265   0.861 -0.8665 -1.4577  0.4551
 3909TIP3    H233219   5.271   0.291   0.728 -0.8459  0.1037  0.7347
 3910TIP3   OH233220   5.758   5.716  16.558  0.0124 -0.5672  0.4525
 3910TIP3    H133221   5.747   5.699  16.464 -0.9605  0.1161  0.4203
 3910TIP3    H233222   5.762   5.629  16.598  2.1934 -0.9045 -0.3728
 3911TIP3   OH233223   4.896   0.161   5.405 -0.2010  0.2359  0.1318
 3911TIP3    H133224   4.912   0.067   5.411 -1.0382  0.1294  1.0402
 3911TIP3    H233225   4.836   0.179   5.477  0.6067  1.6151  0.5047
 3912TIP3   OH233226   0.309   4.789   3.958  1.0284  0.3461  0.2450
 3912TIP3    H133227   0.262   4.742   3.889 -0.9583 -1.0292  2.4122
 3912TIP3    H233228   0.300   4.882   3.934 -1.3426  0.0316 -0.3441
 3913TIP3   OH233229   1.271   1.045  13.747 -0.1688  0.1982  0.3826
 3913TIP3    H133230   1.365   1.060  13.757 -0.0312 -0.1743 -0.2760
 3913TIP3    H233231   1.247   0.990  13.821  0.1585  0.1696  0.4699
 3914TIP3   OH233232   2.014   3.349  15.652 -0.3193 -0.1000 -0.4283
 3914TIP3    H133233   2.068   3.428  15.647  0.2456 -0.3756  0.9518
 3914TIP3    H233234   2.069   3.280  15.614  0.5745 -0.4862  1.4399
 3915TIP3   OH233235   4.792   6.778  17.105 -0.4520 -0.0348 -0.4936
 3915TIP3    H133236   4.746   6.842  17.160  1.6690 -0.5914  2.1360
 3915TIP3    H233237   4.731   6.704  17.098 -1.1254  0.4204  0.3985
 3916TIP3   OH233238   5.400   1.855  10.790  0.0485  0.1576  0.4319
 3916TIP3    H133239   5.378   1.947  10.805  1.2932  0.4328  0.6417
 3916TIP3    H233240   5.477   1.857  10.734  1.8946 -0.6365  2.7539
 3917TIP3   OH233241   1.252   4.543   1.063 -0.4057  0.1414 -0.4729
 3917TIP3    H133242   1.284   4.554   1.153  1.4577 -1.3318 -0.9129
 3917TIP3    H233243   1.174   4.488   1.072  0.1430 -0.5401  0.1918
 3918TIP3   OH233244   5.149   0.101   1.565 -0.1074  0.0701 -0.3474
 3918TIP3    H133245   5.110   0.075   1.482 -1.6144  0.4275  0.2101
 3918TIP3    H233246   5.117   0.035   1.628 -1.3326  1.3740  0.4577
 3919TIP3   OH233247   6.356   1.310   3.700  0.1235  0.4436 -0.0765
 3919TIP3    H133248   6.389   1.374   3.763  0.0879  0.8278 -0.4472
 3919TIP3    H233249   6.308   1.246   3.753 -2.9463  2.6007  0.0085
 3920TIP3   OH233250   3.880   4.403   1.321  0.3969 -0.0942 -0.2984
 3920TIP3    H133251   3.854   4.406   1.229 -0.6529 -0.5468 -0.0358
 3920TIP3    H233252   3.797   4.413   1.369  1.0463  1.1923  0.6069
 3921TIP3   OH233253   6.809   6.094   6.616 -0.5119  0.2659 -0.1146
 3921TIP3    H133254   6.772   6.026   6.559  0.7789  0.8946 -1.7896
 3921TIP3    H233255   6.864   6.046   6.677 -1.5040 -0.3788  0.3060
 3922TIP3   OH233256   5.594   4.644  10.893  0.2314  0.1540 -0.6166
 3922TIP3    H133257   5.670   4.661  10.837  2.7533 -1.0460  2.1008
 3922TIP3    H233258   5.569   4.554  10.873  1.1544 -0.2868  0.1027
 3923TIP3   OH233259   5.626   2.382   2.644  0.6698  0.3144 -0.3137
 3923TIP3    H133260   5.618   2.289   2.626  0.9760 -0.2211  2.0491
 3923TIP3    H233261   5.535   2.413   2.652  0.5693 -0.2256  0.8269
 3924TIP3   OH233262   1.492   1.177  15.802 -0.4006 -0.7780  0.0245
 3924TIP3    H133263   1.426   1.113  15.827 -0.3476 -0.0943  2.1072
 3924TIP3    H233264   1.445   1.261  15.799 -0.0385 -0.5880 -0.5164
 3925TIP3   OH233265   6.245   5.145  16.803  0.3391  0.1288  0.2791
 3925TIP3    H133266   6.306   5.139  16.730 -1.1185  1.3092 -1.1105
 3925TIP3    H233267   6.203   5.059  16.807 -1.2384  0.7163 -1.8707
 3926TIP3   OH233268   3.575   0.533   2.320 -0.2225 -0.0793 -0.4168
 3926TIP3    H133269   3.586   0.520   2.226  0.8062 -1.4022 -0.1452
 3926TIP3    H233270   3.639   0.473   2.360 -0.1116  1.0056  1.1088
 3927TIP3   OH233271   3.643   5.684  12.220 -0.2109  0.6442 -0.1695
 3927TIP3    H133272   3.603   5.695  12.134  0.6769  2.0781 -0.4410
 3927TIP3    H233273   3.596   5.745  12.276  0.5627  1.2122 -0.1315
 3928TIP3   OH233274   5.535   3.660  16.361  0.0449 -0.5598 -0.0935
 3928TIP3    H133275   5.589   3.699  16.293 -0.5089  0.0247 -0.2095
 3928TIP3    H233276   5.596   3.637  16.431  0.3734  0.6888  0.0481
 3929TIP3   OH233277   0.403   1.821   0.882 -0.0116  0.2769  0.0224
 3929TIP3    H133278   0.485   1.780   0.855  0.0213 -0.7833  1.6256
 3929TIP3    H233279   0.340   1.749   0.887 -1.2015  1.1301 -1.5814
 3930TIP3   OH233280   4.027   6.354  16.397  0.2188  0.3759 -0.1852
 3930TIP3    H133281   4.100   6.375  16.339  0.1420 -0.8013 -0.7422
 3930TIP3    H233282   3.952   6.346  16.339 -0.3319  1.4173  0.3667
 3931TIP3   OH233283   4.382   2.976  13.409 -0.1779 -0.3726 -0.0962
 3931TIP3    H133284   4.313   2.998  13.471 -0.2132 -1.0658  0.1124
 3931TIP3    H233285   4.418   2.893  13.440  0.9400  0.1172 -0.0470
 3932TIP3   OH233286   6.666   5.965  14.090 -0.0624  0.3941 -0.4030
 3932TIP3    H133287   6.717   6.029  14.041  0.8045 -0.2880 -0.4258
 3932TIP3    H233288   6.701   5.880  14.061  0.0201 -0.0331  0.9149
 3933TIP3   OH233289   0.829   1.808   1.874 -0.1561 -0.0716  0.1005
 3933TIP3    H133290   0.910   1.842   1.836  0.1428 -1.1149 -0.2430
 3933TIP3    H233291   0.856   1.769   1.957 -0.4818  0.4831  0.4660
 3934TIP3   OH233292   0.283   5.319  13.818  0.3458  0.3265 -0.4810
 3934TIP3    H133293   0.191   5.326  13.845  0.3472 -0.0255 -0.3722
 3934TIP3    H233294   0.331   5.307  13.900  0.4070 -0.2156 -0.5902
 3935TIP3   OH233295   0.208   2.520   1.052  0.2020 -0.3740  0.2468
 3935TIP3    H133296   0.289   2.470   1.046  1.1191  1.1679 -0.9533
 3935TIP3    H233297   0.229   2.595   1.106 -0.3062  0.2461 -0.3936
 3936TIP3   OH233298   5.715   5.242  12.259 -0.1008 -0.1680  0.2127
 3936TIP3    H133299   5.637   5.292  12.236 -1.1072 -1.3430  0.9551
 3936TIP3    H233300   5.691   5.194  12.338  1.6092 -0.0399  0.8616
 3937TIP3   OH233301   3.968   5.462  11.029 -0.2004  0.0308 -0.1526
 3937TIP3    H133302   3.994   5.541  10.983 -1.3487 -0.1216 -1.1284
 3937TIP3    H233303   3.929   5.492  11.111 -1.5624  0.5805 -0.9627
 3938TIP3   OH233304   5.861   2.047   1.315  0.1405  0.2403 -0.0239
 3938TIP3    H133305   5.832   1.956   1.305 -0.7428  0.4868  0.2568
 3938TIP3    H233306   5.948   2.048   1.275 -0.2867 -0.4843 -1.0115
 3939TIP3   OH233307   5.979   3.406  16.208 -0.3976 -0.4065  0.0824
 3939TIP3    H133308   6.040   3.334  16.227 -2.5727 -2.2402  0.5579
 3939TIP3    H233309   5.934   3.422  16.291 -0.0014  1.5346 -0.0283
 3940TIP3   OH233310   6.581   5.212  16.123  0.1608 -0.2884 -0.1687
 3940TIP3    H133311   6.573   5.133  16.177  1.6925 -1.7393 -1.8982
 3940TIP3    H233312   6.674   5.233  16.124 -0.3532  2.3381  1.2527
 3941TIP3   OH233313   6.297   1.467   1.235  0.2260 -0.9427  0.0758
 3941TIP3    H133314   6.297   1.423   1.149 -2.1907  0.6709 -0.8366
 3941TIP3    H233315   6.286   1.396   1.298 -2.1240 -1.8668 -1.2619
 3942TIP3   OH233316   5.596   2.818   1.775  0.3811 -0.0666  0.0191
 3942TIP3    H133317   5.555   2.787   1.855 -0.6186 -0.8063 -0.7522
 3942TIP3    H233318   5.527   2.867   1.729  1.5212  2.1925  0.5414
 3943TIP3   OH233319   0.153   5.871   0.051 -0.3592  0.8758  0.2896
 3943TIP3    H133320   0.107   5.798   0.008  1.6131 -0.3257  0.1027
 3943TIP3    H233321   0.115   5.949   0.012 -0.7167 -0.1178 -1.4866
 3944TIP3   OH233322   1.625   1.700  12.710  0.3260 -0.5494  0.4205
 3944TIP3    H133323   1.683   1.721  12.783 -0.2635  1.4622  0.3696
 3944TIP3    H233324   1.567   1.776  12.703  1.6692  0.3248 -3.4379
 3945TIP3   OH233325   2.137   4.168   0.785  0.2152 -0.5774  0.4084
 3945TIP3    H133326   2.230   4.169   0.765  0.0538 -0.1627 -0.4087
 3945TIP3    H233327   2.114   4.260   0.795 -0.6429 -0.4034 -2.2696
 3946TIP3   OH233328   2.612   3.419  14.671 -0.4519 -0.3013 -0.1077
 3946TIP3    H133329   2.683   3.483  14.668 -1.0977  0.5598  1.5354
 3946TIP3    H233330   2.541   3.461  14.623 -0.8858  0.2855  0.9965
 3947TIP3   OH233331   3.844   1.431   4.236  0.1156 -0.1056 -0.2330
 3947TIP3    H133332   3.936   1.420   4.211  0.2369  0.0408  0.1424
 3947TIP3    H233333   3.822   1.520   4.208  0.1165 -0.1090 -0.2443
 3948TIP3   OH233334   6.717   1.420  11.289 -0.6463  0.4990  0.5505
 3948TIP3    H133335   6.767   1.501  11.298 -2.4749  1.5145  2.3414
 3948TIP3    H233336   6.776   1.351  11.321  0.4572  1.2889  0.2557
 3949TIP3   OH233337   1.405   2.863  12.282  0.5547 -0.1954 -0.4397
 3949TIP3    H133338   1.460   2.885  12.358  0.5703  0.2653 -0.5784
 3949TIP3    H233339   1.336   2.929  12.283  0.9809  0.2854 -1.2550
 3950TIP3   OH233340   6.251   2.740   3.176  0.2478 -0.1306 -0.2960
 3950TIP3    H133341   6.336   2.726   3.220  0.6591 -0.7109 -1.2466
 3950TIP3    H233342   6.223   2.652   3.150  0.5441  0.2836 -2.1452
 3951TIP3   OH233343   2.056   2.004  11.744 -0.1711  0.5047  0.4220
 3951TIP3    H133344   2.004   1.988  11.665 -1.7279 -0.5042  1.5971
 3951TIP3    H233345   2.100   1.921  11.761 -0.9264  0.2826  1.3609
 3952TIP3   OH233346   1.151   4.850  16.742  0.7687 -0.4164  0.1468
 3952TIP3    H133347   1.104   4.931  16.721  0.6471 -0.3852  0.5363
 3952TIP3    H233348   1.241   4.879  16.761  0.6595 -0.3415  0.5509
 3953TIP3   OH233349   0.762   6.278  15.091 -0.0303 -0.3349 -0.2238
 3953TIP3    H133350   0.792   6.285  15.181  0.6990  1.0982 -0.5374
 3953TIP3    H233351   0.821   6.216  15.050 -0.1870 -0.7718  0.2152
 3954TIP3   OH233352   2.801   4.796   1.479  0.3618 -0.2688  0.4118
 3954TIP3    H133353   2.738   4.775   1.410 -0.3357  1.5516  0.4461
 3954TIP3    H233354   2.809   4.715   1.530 -0.8631 -0.9469 -0.4225
 3955TIP3   OH233355   4.230   4.462  11.045 -0.1147  0.2073  0.1533
 3955TIP3    H133356   4.170   4.527  11.082 -0.1124  0.2253  0.1244
 3955TIP3    H233357   4.173   4.401  10.999 -0.0977  0.3025  0.0079
 3956TIP3   OH233358   5.664   5.705   2.891 -0.9996 -0.1272 -0.2279
 3956TIP3    H133359   5.741   5.686   2.945 -0.5236 -2.3013 -1.5692
 3956TIP3    H233360   5.700   5.740   2.810 -1.5576  0.5081 -0.2136
 3957TIP3   OH233361   1.002   3.247  13.240 -0.2999 -0.0134 -0.2300
 3957TIP3    H133362   0.949   3.254  13.319 -0.7745 -0.9057 -0.4623
 3957TIP3    H233363   0.979   3.162  13.203  0.5683  0.0159 -0.8601
 3958TIP3   OH233364   5.031   3.337  15.153 -0.0621 -0.5672 -0.8497
 3958TIP3    H133365   5.028   3.271  15.223 -0.2280  0.0649 -0.2501
 3958TIP3    H233366   4.948   3.327  15.107 -1.6815  1.4903  1.3823
 3959TIP3   OH233367   0.985   4.453   4.877 -0.6761  0.4421  0.2518
 3959TIP3    H133368   0.972   4.360   4.899  1.4927  0.5772  2.6461
 3959TIP3    H233369   0.901   4.494   4.894 -0.7554 -0.5667  2.7972
 3960TIP3   OH233370   4.902   4.218   3.669 -0.1449  0.2077 -0.2564
 3960TIP3    H133371   4.962   4.269   3.723 -1.9021 -0.9151  3.0191
 3960TIP3    H233372   4.820   4.268   3.671 -1.0525 -1.2436  0.5986
 3961TIP3   OH233373   4.353   6.148  16.797  0.4932 -0.3258  0.4319
 3961TIP3    H133374   4.266   6.186  16.783  0.6611 -0.3786 -0.8852
 3961TIP3    H233375   4.380   6.118  16.710  2.7220  1.5819  0.3756
 3962TIP3   OH233376   2.121   3.408   4.405  0.1910  0.0964 -0.0923
 3962TIP3    H133377   2.201   3.358   4.396  0.2134  0.2053 -0.5240
 3962TIP3    H233378   2.145   3.498   4.380 -0.1712  0.0326 -0.6926
 3963TIP3   OH233379   2.301   0.377   5.259  0.0900 -0.7320 -0.0908
 3963TIP3    H133380   2.303   0.444   5.191  0.3617  0.3513  0.9551
 3963TIP3    H233381   2.385   0.385   5.303  0.2908 -2.0510 -0.2036
 3964TIP3   OH233382   0.833   6.303  13.581  0.0732 -0.2676 -0.1140
 3964TIP3    H133383   0.876   6.337  13.503  1.6694 -2.6018 -0.3491
 3964TIP3    H233384   0.780   6.229  13.549 -2.1973  0.9776  0.5479
 3965TIP3   OH233385   0.845   1.132  13.597  0.6605 -0.6195 -0.4754
 3965TIP3    H133386   0.915   1.068  13.610  0.7184 -0.6101 -0.7204
 3965TIP3    H233387   0.765   1.083  13.611  0.6679 -1.0073 -1.6317
 3966TIP3   OH233388   5.915   4.035  10.718  0.6562  0.1471 -0.0452
 3966TIP3    H133389   5.878   3.959  10.673 -1.7017 -0.1152  2.1153
 3966TIP3    H233390   5.999   4.003  10.753 -0.5774 -1.7650  1.3859
 3967TIP3   OH233391   1.736   0.910  16.709 -0.4146  0.0829 -0.3685
 3967TIP3    H133392   1.738   0.976  16.778 -1.0123 -0.1744 -0.0975
 3967TIP3    H233393   1.705   0.831  16.752  0.9938 -0.5883 -0.5220
 3968TIP3   OH233394   2.650   2.062   2.182  0.6676 -0.3978  0.2973
 3968TIP3    H133395   2.590   1.995   2.150  0.8021 -0.6897  0.6446
 3968TIP3    H233396   2.601   2.106   2.252  0.5929 -0.1539  0.0950
 3969TIP3   OH233397   5.897   1.428  13.638  0.3139 -0.1556 -0.6810
 3969TIP3    H133398   5.959   1.497  13.662 -0.1283  0.9300 -2.4860
 3969TIP3    H233399   5.951   1.355  13.610  0.7977  0.3972 -1.2151
 3970TIP3   OH233400   6.565   3.142  14.139 -0.2246 -0.3607  0.3078
 3970TIP3    H133401   6.487   3.093  14.111 -0.4333  0.4344 -0.5610
 3970TIP3    H233402   6.579   3.115  14.229 -2.0820  0.1672  0.7988
 3971TIP3   OH233403   2.116   0.062  13.496  0.6110 -0.2923 -0.7268
 3971TIP3    H133404   2.064   0.108  13.431 -1.7727  0.0956  1.2933
 3971TIP3    H233405   2.122   0.123  13.570 -0.4205 -2.1567  1.0190
 3972TIP3   OH233406   3.980   6.809  13.592 -0.0749 -0.1961  0.2964
 3972TIP3    H133407   3.957   6.811  13.499  0.5253  6.4610 -0.1517
 3972TIP3    H233408   4.071   6.777  13.593 -0.9065 -2.9251 -0.8594
 3973TIP3   OH233409   4.383   1.570   6.057  0.2534  0.1633  0.0165
 3973TIP3    H133410   4.362   1.488   6.012  1.7707 -0.2227 -0.0320
 3973TIP3    H233411   4.414   1.541   6.143 -3.4471  0.9009  1.8016
 3974TIP3   OH233412   4.456   4.789   0.103  0.5176  0.9811 -0.1857
 3974TIP3    H133413   4.541   4.825   0.127  0.4546  0.7383  0.4240
 3974TIP3    H233414   4.425   4.844   0.031  1.3627  0.8304 -0.6720
 3975TIP3   OH233415   4.161   5.888  16.119  0.5371  0.0848 -0.1955
 3975TIP3    H133416   4.164   5.924  16.208 -0.2763  1.4876 -0.7041
 3975TIP3    H233417   4.099   5.815  16.126 -1.3517  1.6203 -0.0506
 3976TIP3   OH233418   3.753   1.949  13.162 -0.4706  0.0736 -0.3250
 3976TIP3    H133419   3.784   1.876  13.110  1.7739  0.5691  0.2186
 3976TIP3    H233420   3.766   1.921  13.253 -0.2533  0.8543 -0.1068
 3977TIP3   OH233421   6.144   0.602  11.751 -0.0112 -0.3969 -0.3048
 3977TIP3    H133422   6.072   0.539  11.742 -0.2361  0.0001 -1.4180
 3977TIP3    H233423   6.196   0.590  11.672  0.1946  0.5141 -0.3090
 3978TIP3   OH233424   0.989   5.560  13.246  0.6748 -0.0399  0.1800
 3978TIP3    H133425   0.943   5.548  13.163  0.7755  0.6713  0.0198
 3978TIP3    H233426   1.028   5.474  13.264 -1.7173 -1.0369  0.9490
 3979TIP3   OH233427   1.419   6.453  15.027  0.0682 -0.2257 -0.1918
 3979TIP3    H133428   1.423   6.381  15.090  1.4241 -1.0262 -1.1282
 3979TIP3    H233429   1.331   6.490  15.037  0.3422 -0.1021  2.3599
 3980TIP3   OH233430   2.721   4.513  11.970  0.2171 -0.1266  0.3416
 3980TIP3    H133431   2.756   4.451  11.906 -1.0518 -1.0097  0.4669
 3980TIP3    H233432   2.728   4.468  12.054 -0.3132  0.0672  0.4954
 3981TIP3   OH233433   0.063   4.688   3.401  0.0522  0.7275 -0.3594
 3981TIP3    H133434   0.061   4.752   3.329 -2.4353  0.8202 -0.2961
 3981TIP3    H233435  -0.012   4.632   3.385  0.6886 -0.5820  1.0376
 3982TIP3   OH233436   3.652   6.590  15.026  0.1078 -0.4110 -0.2304
 3982TIP3    H133437   3.586   6.544  15.077  0.8453 -1.6024 -0.3181
 3982TIP3    H233438   3.729   6.593  15.082  0.0099  0.9471 -0.1390
 3983TIP3   OH233439   1.981   0.312   4.558 -0.6690  0.0012 -0.2991
 3983TIP3    H133440   1.928   0.235   4.533  0.1329 -1.0223  1.0366
 3983TIP3    H233441   2.067   0.295   4.519  0.3788 -1.2586  2.3242
 3984TIP3   OH233442   3.996   2.293   2.878 -0.0717 -0.2916 -0.2680
 3984TIP3    H133443   4.041   2.220   2.835  0.6159 -0.4831  0.7533
 3984TIP3    H233444   4.065   2.356   2.897 -0.4500  0.0168  0.0987
 3985TIP3   OH233445   3.777   5.206  11.141  0.3021 -0.3581 -0.0202
 3985TIP3    H133446   3.771   5.245  11.228 -0.3291 -3.4598  1.4363
 3985TIP3    H233447   3.687   5.200  11.110  0.5879  1.9125 -1.5822
 3986TIP3   OH233448   0.277   0.940  14.070  0.0663 -0.0181  0.1892
 3986TIP3    H133449   0.296   1.030  14.042 -0.1197  0.4115  1.3839
 3986TIP3    H233450   0.287   0.888  13.991  0.8942  0.9558 -0.3740
 3987TIP3   OH233451   3.906   3.401   5.781  0.9080 -0.1380  0.0872
 3987TIP3    H133452   3.953   3.442   5.853 -0.5882 -0.0167  1.0543
 3987TIP3    H233453   3.970   3.344   5.739  1.6842 -0.5973  1.8294
 3988TIP3   OH233454   3.012   1.495   5.448  0.4996  0.2088 -0.4084
 3988TIP3    H133455   2.921   1.523   5.434 -0.2169 -1.3188  0.8624
 3988TIP3    H233456   3.022   1.417   5.395  0.5020 -0.6082  0.7527
 3989TIP3   OH233457   0.516   6.303   2.399  0.3849  0.2990  0.1969
 3989TIP3    H133458   0.449   6.235   2.408 -4.3853  4.5202  0.9070
 3989TIP3    H233459   0.554   6.309   2.487 -0.3809 -0.2978  0.5889
 3990TIP3   OH233460   6.286   2.873   0.092 -0.0980 -1.0122  0.5104
 3990TIP3    H133461   6.356   2.940   0.094  0.3997 -1.5317  0.7499
 3990TIP3    H233462   6.220   2.910   0.033 -0.3510  0.1996  1.5039
 3991TIP3   OH233463   3.754   4.516   0.410 -0.3873 -0.0695  0.0986
 3991TIP3    H133464   3.814   4.470   0.352  0.4925  2.1679 -0.8828
 3991TIP3    H233465   3.807   4.583   0.452 -1.9506  1.3457 -0.0442
 3992TIP3   OH233466   4.760   4.850  13.251 -0.1153 -0.0613  0.1099
 3992TIP3    H133467   4.784   4.931  13.206  0.2193 -0.8324 -1.1618
 3992TIP3    H233468   4.668   4.862  13.275 -0.3315  0.3560 -0.8711
 3993TIP3   OH233469   2.636   1.355  13.958 -0.2398 -0.1547  0.5122
 3993TIP3    H133470   2.668   1.420  14.021  0.4116  1.1428 -1.0594
 3993TIP3    H233471   2.632   1.403  13.875 -1.4381 -1.6860 -0.3679
 3994TIP3   OH233472   6.763   5.261   1.306  0.1301  0.2009 -1.2083
 3994TIP3    H133473   6.678   5.257   1.264 -0.1538  1.0880 -0.7377
 3994TIP3    H233474   6.752   5.324   1.378  0.3067 -1.9554  0.8395
 3995TIP3   OH233475   5.565   5.801  10.655  0.9192  0.4745 -0.5460
 3995TIP3    H133476   5.558   5.718  10.607  1.4944  1.2307 -1.9886
 3995TIP3    H233477   5.576   5.867  10.587 -1.0739  1.9613  0.4782
 3996TIP3   OH233478   5.720   0.426  15.136 -0.1417  0.3422 -0.1986
 3996TIP3    H133479   5.732   0.375  15.216 -1.1510  0.9408  0.3521
 3996TIP3    H233480   5.808   0.435  15.100  0.2051 -0.7597  0.3214
 3997TIP3   OH233481   2.969   0.229  13.104 -0.2227 -0.6031 -0.1858
 3997TIP3    H133482   3.033   0.289  13.065 -1.2253  0.3250 -0.4889
 3997TIP3    H233483   2.957   0.261  13.193 -0.2231 -0.8076 -0.1124
 3998TIP3   OH233484   2.035   3.910  13.861  0.2069  0.0119 -0.1467
 3998TIP3    H133485   2.108   3.893  13.921 -0.4512 -1.8565  0.1712
 3998TIP3    H233486   1.968   3.950  13.917  0.0508 -0.6136  0.1260
 3999TIP3   OH233487   2.221   0.004   5.433 -0.0300  0.1656  0.1563
 3999TIP3    H133488   2.170   0.083   5.414 -0.9767 -0.1054  1.4065
 3999TIP3    H233489   2.155  -0.064   5.451  0.7594 -0.4974  0.6680
 4000TIP3   OH233490   4.272   1.268  11.470  0.1414 -0.5603 -0.2045
 4000TIP3    H133491   4.362   1.276  11.437  1.3254 -0.0075  2.7438
 4000TIP3    H233492   4.244   1.358  11.486 -1.2102 -0.6956 -1.6308
 4001TIP3   OH233493   2.315   5.633  15.889  0.0120 -0.3233  0.2060
 4001TIP3    H133494   2.292   5.561  15.947 -0.4616  2.0390  3.2518
 4001TIP3    H233495   2.381   5.682  15.938  1.4742  0.5515 -2.4099
 4002TIP3   OH233496   3.903   4.806   2.592  0.0017  0.5777  0.0941
 4002TIP3    H133497   3.961   4.740   2.630 -2.1855 -1.6525 -0.2071
 4002TIP3    H233498   3.937   4.820   2.504  0.4503 -0.2308  0.1259
 4003TIP3   OH233499   6.410   3.938   6.359 -0.5232  0.2655 -0.0041
 4003TIP3    H133500   6.407   4.001   6.431 -0.0233 -0.0406  0.2844
 4003TIP3    H233501   6.388   3.854   6.400  1.0698 -0.1509  0.0721
 4004TIP3   OH233502   1.070   1.545   3.130  0.0836 -0.7593  0.1924
 4004TIP3    H133503   1.079   1.608   3.203  0.6139  0.3810 -0.8180
 4004TIP3    H233504   1.140   1.569   3.070 -0.6423 -1.3839 -0.9219
 4005TIP3   OH233505   1.823   5.131   5.090 -0.1956 -0.2159 -0.6661
 4005TIP3    H133506   1.805   5.118   5.183  2.4633  0.0709 -0.0476
 4005TIP3    H233507   1.817   5.226   5.077 -0.7333 -0.2697 -0.8542
 4006TIP3   OH233508   4.043   5.828  11.798  0.0295 -0.3289  0.1694
 4006TIP3    H133509   4.110   5.841  11.865 -0.4942  1.6770  0.3703
 4006TIP3    H233510   3.969   5.883  11.826 -0.9083 -0.8930 -1.0903
 4007TIP3   OH233511   5.282   1.935  13.450  0.2615 -0.0898 -0.2149
 4007TIP3    H133512   5.212   1.999  13.436  0.5107  0.0816 -0.6955
 4007TIP3    H233513   5.363   1.986  13.447  0.3552 -0.0346  1.9035
 4008TIP3   OH233514   6.617   0.812  15.733  0.4877  0.0910 -0.0250
 4008TIP3    H133515   6.636   0.904  15.751  0.8455  0.1916 -0.8779
 4008TIP3    H233516   6.626   0.804  15.638  2.8240 -1.3420  0.2382
 4009TIP3   OH233517   3.425   1.949  12.030  0.4360  0.3374 -0.1965
 4009TIP3    H133518   3.371   1.957  12.109  2.2011 -0.8910  1.2312
 4009TIP3    H233519   3.404   2.027  11.978 -0.1592  1.6460  1.8894
 4010TIP3   OH233520   3.672   4.485  15.231  0.3201 -0.1942 -0.0120
 4010TIP3    H133521   3.758   4.459  15.264  0.3035 -0.5004 -0.2103
 4010TIP3    H233522   3.617   4.408  15.243  0.0691  0.0052  0.1242
 4011TIP3   OH233523   3.881   5.618  14.674 -0.2135  0.0759  0.1838
 4011TIP3    H133524   3.794   5.614  14.635 -1.1434  3.2595  1.5971
 4011TIP3    H233525   3.895   5.711  14.693  3.2957 -0.3706  0.5219
 4012TIP3   OH233526   2.466   0.739   4.502  0.3207 -0.3619  0.2835
 4012TIP3    H133527   2.451   0.644   4.502  0.6341 -0.4275 -0.9859
 4012TIP3    H233528   2.414   0.772   4.575  1.1640 -1.6572  1.5315
 4013TIP3   OH233529   1.077   4.785  11.599 -0.7126 -0.3113  0.0800
 4013TIP3    H133530   0.999   4.837  11.580 -1.0990 -0.5937  0.8088
 4013TIP3    H233531   1.044   4.712  11.652 -0.1408 -1.1313 -0.6557
 4014TIP3   OH233532   3.164   3.515   2.262  0.4473  0.1478 -0.3482
 4014TIP3    H133533   3.195   3.544   2.176 -0.2847  0.5768 -0.4723
 4014TIP3    H233534   3.145   3.422   2.251  0.3246  0.2093 -0.6584
 4015TIP3   OH233535   1.566   0.458  12.158  0.0324  0.1461  0.0532
 4015TIP3    H133536   1.617   0.397  12.212 -1.8909 -0.9450  0.7272
 4015TIP3    H233537   1.516   0.402  12.099 -0.9253  1.1423 -0.1067
 4016TIP3   OH233538   4.868   4.802  11.930  0.3678  1.3690 -0.1081
 4016TIP3    H133539   4.787   4.847  11.954  0.2396  1.3241 -0.4515
 4016TIP3    H233540   4.922   4.806  12.009 -0.5006  0.1920  0.5682
 4017TIP3   OH233541   0.308   4.480  12.810 -0.0578  1.0634  0.0013
 4017TIP3    H133542   0.294   4.425  12.733  1.5188  0.1133  0.3445
 4017TIP3    H233543   0.241   4.547  12.804 -1.1106 -0.0387 -1.2388
 4018TIP3   OH233544   5.617   3.363   0.382  0.1377 -0.1972  0.0352
 4018TIP3    H133545   5.702   3.368   0.425  0.7339 -1.7688 -0.8981
 4018TIP3    H233546   5.579   3.451   0.394  0.8547 -0.1384  2.4623
 4019TIP3   OH233547   2.986   5.823  11.703 -0.4315 -0.0752  0.3105
 4019TIP3    H133548   3.006   5.731  11.690  0.5635  0.0245  1.0569
 4019TIP3    H233549   3.039   5.849  11.778 -1.0449  0.9909  0.3883
 4020TIP3   OH233550   0.483   5.996   4.844 -0.2047  0.0863  0.2022
 4020TIP3    H133551   0.547   6.027   4.779 -1.3598  1.2889 -0.4070
 4020TIP3    H233552   0.398   6.013   4.804 -0.9353 -1.8605  0.8315
 4021TIP3   OH233553   0.373   5.999   0.932 -0.1174  0.9140 -0.5792
 4021TIP3    H133554   0.342   6.019   1.021  1.3245 -2.0377  0.7463
 4021TIP3    H233555   0.464   5.971   0.945 -0.0211 -0.0455 -2.9254
 4022TIP3   OH233556   6.417   5.625   2.626  0.0223  0.3556 -0.1069
 4022TIP3    H133557   6.379   5.622   2.538  0.3533  1.4567 -0.3057
 4022TIP3    H233558   6.411   5.718   2.651 -1.9566 -0.2051  1.8724
 4023TIP3   OH233559   4.753   5.881   4.799  0.1503 -0.1252 -0.4218
 4023TIP3    H133560   4.760   5.829   4.719 -0.7488 -0.0626 -0.5434
 4023TIP3    H233561   4.684   5.839   4.849  2.6409 -2.0128  1.7190
 4024TIP3   OH233562   1.656   0.901   0.274  0.3801 -0.1518 -0.4417
 4024TIP3    H133563   1.587   0.933   0.332 -0.0791 -1.1236 -0.4449
 4024TIP3    H233564   1.648   0.955   0.196  0.3582  0.4955 -0.0037
 4025TIP3   OH233565   1.674   2.232   4.654 -0.3770 -0.7058  0.4588
 4025TIP3    H133566   1.688   2.145   4.618  0.1771 -1.1424  1.6684
 4025TIP3    H233567   1.623   2.278   4.588  0.2622 -1.5881 -0.6832
 4026TIP3   OH233568   2.045   3.959  16.941  0.2304  0.6575  0.1425
 4026TIP3    H133569   2.103   4.006  16.882 -0.2430  0.0858 -0.8070
 4026TIP3    H233570   1.984   4.025  16.972  1.5132  1.3117  1.3431
 4027TIP3   OH233571   4.712   1.105   5.072 -0.1257 -0.3111 -0.6225
 4027TIP3    H133572   4.651   1.110   4.999 -0.7873  0.5605 -0.0284
 4027TIP3    H233573   4.676   1.165   5.138  0.0661 -1.6048  0.7150
 4028TIP3   OH233574   0.390   6.206   3.285  0.1779  0.0643 -0.0955
 4028TIP3    H133575   0.321   6.209   3.351 -0.1254 -2.0713 -0.2503
 4028TIP3    H233576   0.357   6.260   3.213 -0.2873  0.9111  0.7231
 4029TIP3   OH233577   2.347   3.215   0.456 -0.0026  0.3894  0.4732
 4029TIP3    H133578   2.414   3.243   0.393 -0.8467 -0.8362 -1.0451
 4029TIP3    H233579   2.347   3.120   0.450 -1.1730  0.3280  1.2097
 4030TIP3   OH233580   4.371   3.358  16.842 -0.1286  0.8671 -0.1186
 4030TIP3    H133581   4.454   3.370  16.797  0.1605  3.0326  0.8607
 4030TIP3    H233582   4.305   3.385  16.779  0.0223  0.7176 -0.3397
 4031TIP3   OH233583   1.516   0.156   0.789 -0.4567  0.7499  0.6761
 4031TIP3    H133584   1.459   0.217   0.836  0.1044  0.3583  1.9151
 4031TIP3    H233585   1.552   0.100   0.858  0.6206  0.3283 -0.2046
 4032TIP3   OH233586   2.405   1.699  15.537 -0.3049 -0.2873  0.2645
 4032TIP3    H133587   2.435   1.686  15.447  1.7857  0.7546  0.7387
 4032TIP3    H233588   2.330   1.757  15.530 -0.3042 -0.4021 -0.8300
 4033TIP3   OH233589   4.426   4.892  15.518 -0.4550 -0.3050 -0.4642
 4033TIP3    H133590   4.370   4.935  15.453 -2.6731 -1.8953  0.2599
 4033TIP3    H233591   4.399   4.930  15.601  0.1293 -0.5341 -0.1641
 4034TIP3   OH233592   5.748   5.304   2.940 -0.3249 -0.0354 -0.4072
 4034TIP3    H133593   5.757   5.211   2.918 -1.1632 -0.1825 -0.1626
 4034TIP3    H233594   5.836   5.339   2.931  0.1969 -1.0676  0.4748
 4035TIP3   OH233595   3.999   0.232  12.196  0.0313  0.1008  0.7804
 4035TIP3    H133596   4.067   0.251  12.131 -1.0746  0.3338 -0.3447
 4035TIP3    H233597   4.047   0.225  12.279  1.3979  0.4495  0.0576
 4036TIP3   OH233598   6.005   1.443  16.742 -0.1747  0.1106  0.1910
 4036TIP3    H133599   6.003   1.388  16.821  0.2456 -1.5173 -0.8910
 4036TIP3    H233600   6.029   1.383  16.672  2.1552  2.0341 -0.7784
 4037TIP3   OH233601   2.658   0.233   1.561 -0.2041 -0.2956 -0.1335
 4037TIP3    H133602   2.689   0.268   1.645 -0.1598  0.0456 -0.2922
 4037TIP3    H233603   2.617   0.150   1.584  1.9870 -1.4207 -0.0757
 4038TIP3   OH233604   5.648   5.362  12.771  0.4763  0.6954 -0.0693
 4038TIP3    H133605   5.630   5.445  12.728 -0.0327  0.3643 -0.4956
 4038TIP3    H233606   5.697   5.386  12.850  0.7621  1.3590 -0.4405
 4039TIP3   OH233607   6.013   3.746   3.080 -0.2431  0.6659  0.0231
 4039TIP3    H133608   5.953   3.678   3.111  0.3818  0.0977  0.0049
 4039TIP3    H233609   6.100   3.714   3.104  0.0425  1.6405  0.3650
 4040TIP3   OH233610   3.786   6.334   4.463 -0.5117 -0.4988  1.0500
 4040TIP3    H133611   3.696   6.365   4.457  0.2251  1.7362  0.3917
 4040TIP3    H233612   3.792   6.266   4.396 -0.3042  3.4324 -3.5140
 4041TIP3   OH233613   1.594   4.463   2.495  0.2882 -0.3483 -0.6191
 4041TIP3    H133614   1.622   4.547   2.533  2.2365  0.0803 -2.6911
 4041TIP3    H233615   1.505   4.479   2.465 -0.6846 -0.2006  2.0762
 4042TIP3   OH233616   5.438   0.607  16.631 -0.1623  0.4724 -0.3341
 4042TIP3    H133617   5.518   0.568  16.594  1.1515  2.0968  0.6715
 4042TIP3    H233618   5.369   0.546  16.606  1.5808 -1.8024  0.0111
 4043TIP3   OH233619   3.663   3.197  12.026  0.6676  0.2179 -0.3702
 4043TIP3    H133620   3.621   3.276  12.061  1.1956  0.8668 -1.1801
 4043TIP3    H233621   3.677   3.216  11.934  0.0995 -1.1377 -0.7596
 4044TIP3   OH233622   4.774   3.277   3.011  0.0091 -0.6958 -0.3975
 4044TIP3    H133623   4.821   3.356   2.984  2.2581 -1.7187  0.2883
 4044TIP3    H233624   4.788   3.272   3.106 -1.7461 -0.9217 -0.1199
 4045TIP3   OH233625   2.100   6.207  12.030  0.2233  0.1184  0.2346
 4045TIP3    H133626   2.049   6.280  12.065 -0.3605 -0.5372  0.7590
 4045TIP3    H233627   2.081   6.208  11.936  0.0644  0.5081  0.2665
 4046TIP3   OH233628   6.140   1.155  12.991 -0.1929  0.0479  0.5172
 4046TIP3    H133629   6.123   1.190  12.904 -0.1099  0.5266  0.6922
 4046TIP3    H233630   6.220   1.103  12.982 -0.5842 -0.5064  0.1497
 4047TIP3   OH233631   3.124   5.115  11.716 -0.9809 -0.8368  0.4395
 4047TIP3    H133632   3.167   5.163  11.646  1.8352  0.3095  2.7498
 4047TIP3    H233633   3.149   5.024  11.702 -0.8778 -0.6922 -0.3341
 4048TIP3   OH233634   3.603   2.197   3.040 -0.0485 -0.2326  0.2004
 4048TIP3    H133635   3.672   2.259   3.064 -1.2436  1.3844 -0.3922
 4048TIP3    H233636   3.551   2.187   3.119 -1.2318  1.4258 -0.3111
 4049TIP3   OH233637   1.423   2.943  12.713  0.0493 -0.1584  0.2506
 4049TIP3    H133638   1.384   2.892  12.641  0.6969  0.2234 -0.3834
 4049TIP3    H233639   1.435   2.879  12.784  0.8375 -0.9097 -0.5271
 4050TIP3   OH233640   4.707   4.991  12.071 -0.7783 -0.0065 -0.1551
 4050TIP3    H133641   4.622   4.990  12.115 -1.1856  2.1776 -0.7523
 4050TIP3    H233642   4.767   4.949  12.132 -1.6296  1.5526  1.8528
 4051TIP3   OH233643   4.061   6.327   0.658 -0.8450 -0.1582 -0.2496
 4051TIP3    H133644   4.042   6.235   0.675 -0.0414 -0.4546 -0.9024
 4051TIP3    H233645   4.015   6.374   0.728 -1.6689 -1.0121 -0.1894
 4052TIP3   OH233646   3.076   5.057  16.893 -0.0801 -0.5311 -0.1090
 4052TIP3    H133647   3.169   5.075  16.881 -0.2982 -0.3781 -1.8625
 4052TIP3    H233648   3.061   5.069  16.987  1.4956  0.2227  0.0849
 4053TIP3   OH233649   3.908   1.187   5.855 -0.0958 -0.5641  0.0865
 4053TIP3    H133650   3.936   1.278   5.870 -0.5461 -0.3230 -0.4902
 4053TIP3    H233651   3.889   1.153   5.942  1.3445 -0.5282  0.4401
 4054TIP3   OH233652   0.512   0.536  12.048  0.5593 -0.0893 -0.5266
 4054TIP3    H133653   0.559   0.504  12.126  0.5664  0.0761 -0.4623
 4054TIP3    H233654   0.479   0.622  12.074 -2.8302 -1.5985  0.6623
 4055TIP3   OH233655   4.916   5.497  16.161  0.1241  0.3212 -0.4061
 4055TIP3    H133656   4.912   5.492  16.256 -0.1949 -1.1312 -0.4700
 4055TIP3    H233657   5.008   5.513  16.141  0.2393  0.3209  0.1265
 4056TIP3   OH233658   6.502   1.787   3.995  0.1636  0.0997 -0.3432
 4056TIP3    H133659   6.580   1.818   4.041  0.6010  0.6062 -1.3786
 4056TIP3    H233660   6.431   1.840   4.030  0.0339 -1.1828  1.4827
 4057TIP3   OH233661   4.167   2.216   4.147  0.0594 -0.1809 -0.1401
 4057TIP3    H133662   4.255   2.203   4.111 -0.1553  0.0685 -0.7816
 4057TIP3    H233663   4.181   2.235   4.240  0.7456  0.6987 -0.4124
 4058TIP3   OH233664   3.839   0.538   6.068  1.0091 -0.1361 -0.1244
 4058TIP3    H133665   3.849   0.515   5.976  1.4632 -0.8619  0.1020
 4058TIP3    H233666   3.895   0.615   6.080  1.0169 -0.0928 -0.4284
 4059TIP3   OH233667   6.554   4.164   5.070  0.0039  0.5005 -0.3796
 4059TIP3    H133668   6.562   4.254   5.036 -0.9207  0.9721  0.5673
 4059TIP3    H233669   6.463   4.158   5.098 -0.2863 -1.1685 -1.5607
 4060TIP3   OH233670   6.042   5.551   5.814 -0.0802 -0.0349  0.0919
 4060TIP3    H133671   5.954   5.520   5.793 -0.5474  1.6755 -0.6288
 4060TIP3    H233672   6.041   5.561   5.910 -1.4313  2.0116 -0.0754
 4061TIP3   OH233673   1.026   2.540  15.629  0.1030 -0.5295 -0.1995
 4061TIP3    H133674   1.093   2.477  15.602 -0.0937 -0.7537 -0.1711
 4061TIP3    H233675   1.068   2.625  15.619  0.7847 -0.7127  0.9411
 4062TIP3   OH233676   2.635   5.642   1.224 -0.7809 -0.4214 -0.2609
 4062TIP3    H133677   2.546   5.660   1.255 -1.2142  0.0474 -1.6648
 4062TIP3    H233678   2.636   5.679   1.135  0.8239 -0.4165 -0.2566
 4063TIP3   OH233679   0.748   5.346  14.478  0.3933 -0.0640  0.6998
 4063TIP3    H133680   0.801   5.388  14.546  0.5534 -0.0161  0.5447
 4063TIP3    H233681   0.785   5.259  14.469  0.8039  0.1622  0.1933
 4064TIP3   OH233682   1.007   1.242  11.682  0.4501 -0.2489 -0.6075
 4064TIP3    H133683   0.978   1.265  11.771 -0.8335  1.3511 -1.3888
 4064TIP3    H233684   0.927   1.245  11.629  1.5543  1.3918 -2.3005
 4065TIP3   OH233685   4.147   1.580   3.432 -0.1195 -0.0796 -0.0319
 4065TIP3    H133686   4.108   1.547   3.352 -1.5489 -0.3438  0.7464
 4065TIP3    H233687   4.102   1.533   3.502  1.5778 -0.3752  0.9276
 4066TIP3   OH233688   1.672   0.818   0.772  0.1850  0.2792  0.6520
 4066TIP3    H133689   1.724   0.745   0.806  0.5869  0.9799  1.6041
 4066TIP3    H233690   1.583   0.783   0.763  0.3474 -0.2928  1.2159
 4067TIP3   OH233691   5.532   5.188  11.399 -0.4393  0.0598  0.0955
 4067TIP3    H133692   5.519   5.266  11.345 -0.2385 -1.3273 -2.0877
 4067TIP3    H233693   5.468   5.125  11.367  0.8096 -1.3915  0.3138
 4068TIP3   OH233694   1.363   4.667  13.102 -0.2410 -0.2058 -0.1773
 4068TIP3    H133695   1.340   4.691  13.192 -1.6993 -0.6675 -0.3930
 4068TIP3    H233696   1.372   4.751  13.057 -0.9152  0.0183  0.0871
 4069TIP3   OH233697   0.016   4.147  11.693  0.3272  0.1456 -0.3782
 4069TIP3    H133698  -0.049   4.207  11.729 -0.4756 -0.4467 -0.7968
 4069TIP3    H233699   0.070   4.122  11.769 -1.8376 -1.7322  0.6807
 4070TIP3   OH233700   4.290   4.293   4.475 -0.2104  0.1291  0.0823
 4070TIP3    H133701   4.352   4.235   4.432 -0.4411  1.1541 -1.7477
 4070TIP3    H233702   4.303   4.278   4.569  0.8954 -1.6058 -0.3081
 4071TIP3   OH233703   1.981   1.369   4.127 -0.0455  0.8543 -0.1220
 4071TIP3    H133704   1.898   1.410   4.101 -0.8818 -1.4939 -1.5136
 4071TIP3    H233705   2.022   1.345   4.044  1.9600  1.7547  0.5528
 4072TIP3   OH233706   0.283   0.964   5.711 -0.1920  0.0699 -0.3292
 4072TIP3    H133707   0.274   1.025   5.637  0.5797 -1.4352 -1.7437
 4072TIP3    H233708   0.194   0.952   5.744 -0.5443  0.8160 -0.9902
 4073TIP3   OH233709   4.867   5.469  11.434  0.1030 -0.2377  0.0482
 4073TIP3    H133710   4.820   5.545  11.468 -0.1433  1.0958 -2.9384
 4073TIP3    H233711   4.807   5.396  11.447 -1.4109  0.8282 -0.6237
 4074TIP3   OH233712   6.654   3.451  15.776 -0.3383  0.0732  0.2176
 4074TIP3    H133713   6.740   3.487  15.755  0.9363 -2.5468  0.5421
 4074TIP3    H233714   6.599   3.475  15.701  0.9694  0.7759 -0.5603
 4075TIP3   OH233715   1.140   3.811  12.484  0.4645  0.1723  0.7248
 4075TIP3    H133716   1.231   3.791  12.503  0.6030  1.7235  1.8781
 4075TIP3    H233717   1.099   3.820  12.570  0.1919  3.5415  0.3559
 4076TIP3   OH233718   2.444   2.534  13.713 -0.0903  0.2734 -0.1140
 4076TIP3    H133719   2.532   2.497  13.706  0.1601  0.1044  2.7473
 4076TIP3    H233720   2.386   2.458  13.723 -0.2198  0.4603  0.6100
 4077TIP3   OH233721   0.962   6.308   2.535  0.4490  0.2609 -0.0814
 4077TIP3    H133722   0.908   6.385   2.519  0.7047  0.4176 -0.1827
 4077TIP3    H233723   0.899   6.238   2.552  0.1942  0.2775 -0.9149
 4078TIP3   OH233724   3.021   6.741   1.110  0.5014 -0.0965  0.1817
 4078TIP3    H133725   2.992   6.751   1.201  1.6233  1.3128  0.4241
 4078TIP3    H233726   3.012   6.647   1.092  1.2872 -0.5928  2.1233
 4079TIP3   OH233727   6.408   6.410   3.926  0.0818  0.2706  0.2381
 4079TIP3    H133728   6.448   6.482   3.975 -0.5575  0.4301  0.5386
 4079TIP3    H233729   6.442   6.331   3.967  0.6013  0.4005  0.0608
 4080TIP3   OH233730   3.888   6.617  14.422 -0.0659  0.5659  0.4264
 4080TIP3    H133731   3.936   6.685  14.375 -0.9015 -0.4596 -2.0840
 4080TIP3    H233732   3.952   6.547  14.436 -0.1510  0.2781 -0.5574
 4081TIP3   OH233733   0.591   0.449  16.676 -0.3326  0.6981 -0.2545
 4081TIP3    H133734   0.601   0.502  16.597 -0.5166 -0.1266 -0.8347
 4081TIP3    H233735   0.534   0.377  16.650  1.0433 -0.5695  0.1439
 4082TIP3   OH233736   6.627   1.908   2.234 -0.3545  0.5648 -0.1243
 4082TIP3    H133737   6.659   1.821   2.214 -1.4247  0.0205  0.4195
 4082TIP3    H233738   6.623   1.953   2.150  0.9428  0.3648 -0.3049
 4083TIP3   OH233739   2.014   5.197   2.931  0.7181 -0.6020 -0.5176
 4083TIP3    H133740   2.084   5.133   2.915  0.8894 -0.2965 -0.9947
 4083TIP3    H233741   1.976   5.212   2.845 -0.2621 -1.1319 -0.1909
 4084TIP3   OH233742   1.465   6.348  14.543  0.0453  0.0736  0.2639
 4084TIP3    H133743   1.516   6.348  14.462  2.2466 -1.1922  1.5580
 4084TIP3    H233744   1.487   6.265  14.585  0.4865  1.4774  3.0404
 4085TIP3   OH233745   5.130   1.476   1.876  0.0053  0.4283 -0.2169
 4085TIP3    H133746   5.045   1.505   1.842 -0.7426 -0.6443  0.6498
 4085TIP3    H233747   5.136   1.384   1.851 -0.6160 -0.4422  2.4695
 4086TIP3   OH233748   1.054   3.205   5.108  0.5660  0.2402  0.0227
 4086TIP3    H133749   1.000   3.284   5.111  0.3529  0.1012 -0.0551
 4086TIP3    H233750   0.991   3.135   5.091  0.5045 -0.1771  1.7764
 4087TIP3   OH233751   1.808   4.067  10.619 -0.0872  0.0302 -0.1425
 4087TIP3    H133752   1.775   4.051  10.707 -2.7080  0.5134 -0.9664
 4087TIP3    H233753   1.734   4.051  10.561  2.1584 -2.7106 -2.5897
 4088TIP3   OH233754   2.016   1.378   2.609  0.1872  0.4606 -0.0684
 4088TIP3    H133755   2.090   1.343   2.559  0.6966 -0.4595  1.2664
 4088TIP3    H233756   1.939   1.352   2.558  0.6905 -0.3198 -0.4635
 4089TIP3   OH233757   6.362   1.698  16.188  0.4941  0.0376  0.0709
 4089TIP3    H133758   6.280   1.652  16.172 -0.1611  0.6231  1.4942
 4089TIP3    H233759   6.430   1.635  16.165 -0.3659 -1.1332  0.6095
 4090TIP3   OH233760   1.233   4.500   4.935 -0.3993  0.3863  0.1507
 4090TIP3    H133761   1.141   4.475   4.927 -0.0473 -0.5685 -1.3749
 4090TIP3    H233762   1.281   4.417   4.928  0.7009  1.1300 -2.4876
 4091TIP3   OH233763   1.403   6.029  15.692  0.6276 -0.3149 -0.5892
 4091TIP3    H133764   1.470   6.019  15.759  0.6715 -0.1142 -0.6009
 4091TIP3    H233765   1.363   6.114  15.711 -0.8866 -1.2326  0.5606
 4092TIP3   OH233766   1.513   2.447   0.702 -0.6258  0.1776 -0.3613
 4092TIP3    H133767   1.521   2.445   0.798 -0.9877  0.2478 -0.3302
 4092TIP3    H233768   1.498   2.356   0.677 -1.9288  0.3466 -0.2306
 4093TIP3   OH233769   5.764   5.847   5.424 -0.4401 -0.4393 -0.2210
 4093TIP3    H133770   5.793   5.757   5.437 -0.2377 -0.5596 -1.4244
 4093TIP3    H233771   5.835   5.888   5.375 -0.4524  0.4340  0.4533
 4094TIP3   OH233772   5.453   0.099  12.754 -0.2736 -0.3413 -0.4061
 4094TIP3    H133773   5.401   0.026  12.721 -0.7061  0.4953 -1.6430
 4094TIP3    H233774   5.485   0.069  12.839  0.3800 -2.3313 -1.3063
 4095TIP3   OH233775   2.075   1.678   5.485 -0.4291  0.6197 -0.4424
 4095TIP3    H133776   2.062   1.646   5.396  0.9209  0.1452 -0.4859
 4095TIP3    H233777   2.170   1.684   5.495 -0.4471 -1.1802  1.5929
 4096TIP3   OH233778   0.969   3.544  12.169 -0.1719  0.1722  0.1845
 4096TIP3    H133779   0.987   3.450  12.165 -1.0473  0.0271 -2.0388
 4096TIP3    H233780   0.889   3.551  12.221  0.1001 -0.2816  0.6665
 4097TIP3   OH233781   1.725   2.413   5.199  0.5290  0.6065  0.6383
 4097TIP3    H133782   1.800   2.405   5.139  0.1829 -1.8086  0.4263
 4097TIP3    H233783   1.649   2.395   5.144  0.1749 -1.2083  1.6443
 4098TIP3   OH233784   1.275   2.918   1.346 -0.0500 -0.4130 -0.8526
 4098TIP3    H133785   1.229   2.993   1.383 -0.3426 -1.4739  1.0599
 4098TIP3    H233786   1.242   2.912   1.256 -1.8353  0.3169 -0.2941
 4099TIP3   OH233787   2.596   6.561  14.743 -0.1579  0.0791 -0.0834
 4099TIP3    H133788   2.682   6.528  14.770 -0.9846 -2.5838 -0.4179
 4099TIP3    H233789   2.555   6.590  14.825 -0.0406 -1.4632  0.5566
 4100TIP3   OH233790   4.259   5.821   0.549 -0.3235 -0.2793 -0.4429
 4100TIP3    H133791   4.287   5.824   0.640 -0.3288  0.7658 -0.4615
 4100TIP3    H233792   4.338   5.841   0.499 -0.2551 -1.1368 -0.6922
 4101TIP3   OH233793   0.582   3.937   2.600  0.5228  0.7314  0.0967
 4101TIP3    H133794   0.652   3.929   2.664  0.6782  0.4287 -0.1087
 4101TIP3    H233795   0.507   3.893   2.639  0.8372 -0.1332 -0.2461
 4102TIP3   OH233796   1.229   4.859  12.572  0.4158 -0.4741 -0.8035
 4102TIP3    H133797   1.219   4.814  12.656  0.0000  0.5980 -0.2485
 4102TIP3    H233798   1.269   4.795  12.514 -0.1408 -1.5355 -0.0403
 4103TIP3   OH233799   6.514   0.061   0.808 -0.1460  0.7049 -0.4330
 4103TIP3    H133800   6.512   0.110   0.726 -0.3193  0.6494 -0.4630
 4103TIP3    H233801   6.605   0.035   0.819  0.1750  1.9513  0.1222
 4104TIP3   OH233802   5.495   5.848  16.749 -0.3181  0.1636 -0.0394
 4104TIP3    H133803   5.509   5.755  16.762  0.2361  0.0498 -1.3271
 4104TIP3    H233804   5.577   5.880  16.712 -0.1340  1.3660  1.3141
 4105TIP3   OH233805   3.925   0.946  14.605  0.0792  0.0332 -0.4604
 4105TIP3    H133806   3.979   1.017  14.640 -0.8226  1.0908 -1.1801
 4105TIP3    H233807   3.851   0.940  14.665  0.3970 -0.6709 -0.1137
 4106TIP3   OH233808   0.517   1.143  13.379 -0.0430 -0.3189  0.1399
 4106TIP3    H133809   0.424   1.123  13.383 -0.5209  1.8243  0.6394
 4106TIP3    H233810   0.538   1.140  13.285 -0.8035  0.0201 -0.0451
 4107TIP3   OH233811   0.728   0.016   6.407  0.0715  0.2691  0.4305
 4107TIP3    H133812   0.699  -0.075   6.412  0.4025  0.2240  1.9906
 4107TIP3    H233813   0.650   0.067   6.429 -0.3074  0.4294 -1.1463
 4108TIP3   OH233814   6.247   6.177  13.676  0.0884 -0.1718  0.3724
 4108TIP3    H133815   6.193   6.116  13.626 -1.9120  0.6718  1.3874
 4108TIP3    H233816   6.185   6.229  13.726  1.8306  1.3838  1.0518
 4109TIP3   OH233817   2.923   5.064  11.921  0.1774 -0.0379  0.4355
 4109TIP3    H133818   2.853   5.022  11.870  0.0515  2.7161 -1.9136
 4109TIP3    H233819   2.982   5.100  11.855  1.5930  1.2706  2.3254
 4110TIP3   OH233820   4.974   6.409   0.490  0.3406  0.0479  0.2956
 4110TIP3    H133821   5.021   6.490   0.510  0.4139 -0.0957  0.6982
 4110TIP3    H233822   5.005   6.384   0.403 -0.4953  1.0489 -0.3111
 4111TIP3   OH233823   1.295   5.967  14.123  0.4641  0.2150 -0.0244
 4111TIP3    H133824   1.290   5.982  14.217  0.5938  0.3909 -0.0454
 4111TIP3    H233825   1.340   5.883  14.114  0.3709  0.1547  0.0727
 4112TIP3   OH233826   0.288   1.919   2.858 -0.1564  0.0932 -0.7483
 4112TIP3    H133827   0.231   1.923   2.782 -0.6834 -2.3885 -0.5624
 4112TIP3    H233828   0.372   1.888   2.823  0.4466  1.5214 -0.6652
 4113TIP3   OH233829   4.116   3.355  11.107 -0.0565  0.3006 -0.3583
 4113TIP3    H133830   4.122   3.441  11.065 -0.4435  0.6125  0.1986
 4113TIP3    H233831   4.205   3.322  11.108 -0.0229  0.3367 -1.3098
 4114TIP3   OH233832   5.425   2.800  11.403  0.3298 -0.0564 -0.3299
 4114TIP3    H133833   5.489   2.870  11.415  0.5788  0.1379 -2.4186
 4114TIP3    H233834   5.341   2.840  11.423  0.0673  1.8868 -4.2770
 4115TIP3   OH233835   5.893   4.949   0.045  0.1350  0.2248 -0.0486
 4115TIP3    H133836   5.874   5.015   0.113  0.0120 -2.1287  2.3740
 4115TIP3    H233837   5.810   4.904   0.032  0.1124  0.7579 -1.9988
 4116TIP3   OH233838   5.164   6.331  17.085  0.0272 -0.0463 -0.3732
 4116TIP3    H133839   5.107   6.258  17.062  1.0041 -0.7312 -0.7241
 4116TIP3    H233840   5.114   6.409  17.062 -1.2049 -0.5732  0.3935
 4117TIP3   OH233841   6.321   3.858  14.997 -0.1807  0.2584  0.5496
 4117TIP3    H133842   6.235   3.817  14.989  0.2783 -0.2612 -3.1052
 4117TIP3    H233843   6.303   3.952  15.002 -1.0003  0.2109 -0.9835
 4118TIP3   OH233844   6.187   4.071  14.476 -0.1979  0.0658  0.8781
 4118TIP3    H133845   6.126   4.135  14.441 -1.1889 -1.4032 -0.2152
 4118TIP3    H233846   6.171   4.071  14.571 -2.0387 -0.4119  0.5978
 4119TIP3   OH233847   5.166   5.603  13.900  0.0781 -0.6434 -0.2254
 4119TIP3    H133848   5.125   5.549  13.966  1.2025 -2.3115 -0.8171
 4119TIP3    H233849   5.237   5.549  13.864  0.9131  1.0094 -1.2541
 4120TIP3   OH233850   1.793   6.457   0.808 -0.6906 -0.5827 -0.5330
 4120TIP3    H133851   1.796   6.385   0.871 -0.6321 -1.2060 -1.2313
 4120TIP3    H233852   1.876   6.451   0.760 -0.1202  0.7239  0.2188
 4121TIP3   OH233853   1.764   1.856  16.336  0.1899 -0.0322 -0.3360
 4121TIP3    H133854   1.725   1.823  16.255 -0.5625  0.5997 -0.2455
 4121TIP3    H233855   1.717   1.937  16.354  0.8707  0.2332  0.3312
 4122TIP3   OH233856   0.468   0.332  15.364  0.5926 -0.1975  0.4071
 4122TIP3    H133857   0.544   0.275  15.370  1.3389  0.8742  1.7113
 4122TIP3    H233858   0.504   0.418  15.341 -0.0738  0.5577  2.0344
 4123TIP3   OH233859   1.358   0.137  11.290  0.6083  0.6846  0.0996
 4123TIP3    H133860   1.375   0.099  11.377  0.7478  0.5270  0.0023
 4123TIP3    H233861   1.383   0.069  11.228  0.6497  0.8524 -0.0694
 4124TIP3   OH233862   5.417   6.017  15.576 -0.4949 -0.0948 -0.5070
 4124TIP3    H133863   5.496   5.997  15.526 -0.2376  1.3339 -0.7155
 4124TIP3    H233864   5.367   6.076  15.520 -1.7894 -1.0857 -0.4317
 4125TIP3   OH233865   5.519   5.115  16.583 -0.2963  0.7423 -0.0984
 4125TIP3    H133866   5.571   5.157  16.514 -1.2086 -0.1300 -1.3621
 4125TIP3    H233867   5.565   5.137  16.664  1.7720  0.4177 -1.1037
 4126TIP3   OH233868   5.884   5.705   6.638 -0.4257  0.1423  0.1285
 4126TIP3    H133869   5.840   5.691   6.554 -1.7791  1.2626  0.6098
 4126TIP3    H233870   5.929   5.622   6.655 -1.5545 -0.7196 -0.8763
 4127TIP3   OH233871   1.603   0.418   4.125 -0.7693 -0.0862 -0.1430
 4127TIP3    H133872   1.623   0.424   4.218 -1.3223  2.0317 -0.1212
 4127TIP3    H233873   1.687   0.427   4.081 -0.8685  3.1479  0.1002
 4128TIP3   OH233874   2.591   0.612  15.600 -0.1133  0.0770 -0.5344
 4128TIP3    H133875   2.611   0.518  15.600 -1.7940 -0.3160 -0.7215
 4128TIP3    H233876   2.676   0.654  15.589  0.8142 -1.3816  0.6307
 4129TIP3   OH233877   5.025   2.621   4.785  0.4239  0.1785 -0.0027
 4129TIP3    H133878   5.072   2.703   4.771 -1.6870  1.6290  0.8823
 4129TIP3    H233879   4.982   2.632   4.870 -0.9554 -1.2872 -0.4568
 4130TIP3   OH233880   1.218   4.255   0.663  0.3957 -0.3283 -0.2385
 4130TIP3    H133881   1.223   4.326   0.727 -0.5729  0.9119 -1.4671
 4130TIP3    H233882   1.283   4.278   0.596  1.2584 -1.5035  0.1554
 4131TIP3   OH233883   0.645   5.140   2.454 -0.4673 -0.5046  0.1510
 4131TIP3    H133884   0.666   5.151   2.547 -0.0084  0.2384 -0.0351
 4131TIP3    H233885   0.550   5.150   2.450 -0.4881 -0.5170  0.5358
 4132TIP3   OH233886   0.459   1.064   4.587 -0.7308 -0.1288  0.5965
 4132TIP3    H133887   0.469   0.969   4.580  1.0647  0.0306  0.7412
 4132TIP3    H233888   0.386   1.084   4.528 -0.5298 -1.4881 -0.1559
 4133TIP3   OH233889   6.669   6.683  14.525  0.0042 -0.2018  0.1589
 4133TIP3    H133890   6.658   6.697  14.619  0.3919  1.1211  0.0383
 4133TIP3    H233891   6.764   6.686  14.511 -0.0209 -0.9060 -0.2107
 4134TIP3   OH233892   1.001   4.294   2.352  0.2794 -0.4228 -0.1936
 4134TIP3    H133893   0.991   4.316   2.445  1.7312 -0.4837  0.0075
 4134TIP3    H233894   1.045   4.209   2.353  0.0526 -0.5548 -0.9442
 4135TIP3   OH233895   6.197   6.147   1.560  0.5495  0.0885 -0.6690
 4135TIP3    H133896   6.139   6.071   1.557 -0.3351  0.7431 -0.6764
 4135TIP3    H233897   6.278   6.117   1.520  0.2293 -0.8621 -0.6352
 4136TIP3   OH233898   3.487   6.558   2.466  0.4093  0.4830  0.0997
 4136TIP3    H133899   3.531   6.509   2.535 -1.6803 -1.4672  0.1534
 4136TIP3    H233900   3.514   6.515   2.385  0.8475  1.1392 -0.1108
 4137TIP3   OH233901   0.688   3.689   1.837  0.0704  0.1820  0.3229
 4137TIP3    H133902   0.664   3.720   1.924  1.2687  1.2711  0.2926
 4137TIP3    H233903   0.653   3.600   1.833 -1.1850  0.5867  1.3920
 4138TIP3   OH233904   0.817   4.360  14.606  0.4196 -0.4989 -0.6780
 4138TIP3    H133905   0.896   4.330  14.561  0.0380 -1.3104 -0.8184
 4138TIP3    H233906   0.745   4.316  14.560 -0.1708  0.6993 -0.9459
 4139TIP3   OH233907   6.419   5.277   0.886  0.0184  0.1651  0.0257
 4139TIP3    H133908   6.456   5.215   0.823 -1.9950 -1.3613  0.2420
 4139TIP3    H233909   6.429   5.233   0.971  0.6432  1.1848  0.4929
 4140TIP3   OH233910   5.533   5.925  13.350 -0.3053 -0.1007  0.0295
 4140TIP3    H133911   5.559   5.914  13.258 -0.4183 -2.6411  0.2348
 4140TIP3    H233912   5.615   5.916  13.399 -0.6854 -2.7957  0.3452
 4141TIP3   OH233913   4.398   6.179  12.140  0.1535  0.4216  0.7798
 4141TIP3    H133914   4.462   6.162  12.210  0.8552  0.1217  0.0827
 4141TIP3    H233915   4.443   6.152  12.060 -1.2872 -0.9638  0.3798
 4142TIP3   OH233916   5.424   3.256  13.923  0.1057  0.1021 -0.0572
 4142TIP3    H133917   5.454   3.183  13.978 -0.2671 -0.8751 -1.1211
 4142TIP3    H233918   5.501   3.313  13.916  0.1164  0.3491  1.5931
 4143TIP3   OH233919   0.734   3.806  11.133  0.4640 -0.3600 -0.0573
 4143TIP3    H133920   0.688   3.785  11.214  0.2726  1.9270  0.5032
 4143TIP3    H233921   0.705   3.740  11.070 -0.4082 -1.3835  1.3775
 4144TIP3   OH233922   3.021   3.679  14.613  0.0209  0.1950  0.5626
 4144TIP3    H133923   3.109   3.692  14.648  1.5106 -3.9619 -0.9473
 4144TIP3    H233924   2.977   3.627  14.680 -1.4967  2.3873  1.3844
 4145TIP3   OH233925   5.920   2.012  10.400  0.1352 -0.3811 -0.2869
 4145TIP3    H133926   5.881   1.931  10.433 -1.9968  0.1495 -1.2811
 4145TIP3    H233927   5.848   2.056  10.356  1.6614  1.2700 -1.2552
 4146TIP3   OH233928   6.063   5.762   5.481 -0.1713 -0.6343 -0.4786
 4146TIP3    H133929   6.101   5.844   5.449 -1.4519 -0.0198 -0.4775
 4146TIP3    H233930   6.013   5.788   5.558 -0.9505 -1.3450 -0.7370
 4147TIP3   OH233931   6.606   0.878  13.947 -0.3378 -0.6387  0.0560
 4147TIP3    H133932   6.575   0.968  13.958 -0.1712 -0.2354 -2.3813
 4147TIP3    H233933   6.545   0.838  13.886  2.7406 -0.3254 -3.5626
 4148TIP3   OH233934   6.540   6.307  14.613  0.2672 -0.2128 -0.3080
 4148TIP3    H133935   6.485   6.373  14.570  1.1317  0.3877 -0.5156
 4148TIP3    H233936   6.619   6.304  14.560  1.1856  0.2471  0.9882
 4149TIP3   OH233937   4.170   4.982   0.403  0.6574  0.3095  0.4389
 4149TIP3    H133938   4.256   4.941   0.412  0.3315 -0.5065 -0.0913
 4149TIP3    H233939   4.124   4.959   0.484  0.3440 -0.6946 -0.0200
 4150TIP3   OH233940   2.167   0.684   2.938  0.3416  0.0798  0.0028
 4150TIP3    H133941   2.091   0.735   2.910 -0.0295  0.0652  0.9470
 4150TIP3    H233942   2.135   0.594   2.944  0.9869 -0.2922 -1.6272
 4151TIP3   OH233943   3.166   6.825  16.285 -0.3436 -0.1088  0.1562
 4151TIP3    H133944   3.151   6.906  16.333 -0.9654 -0.9826  1.5204
 4151TIP3    H233945   3.120   6.758  16.337  1.3469 -1.5607 -0.1354
 4152TIP3   OH233946   3.649   3.420   6.547 -0.0071 -0.1183 -0.0923
 4152TIP3    H133947   3.608   3.427   6.633  0.2102 -1.1117  0.1046
 4152TIP3    H233948   3.741   3.403   6.566 -0.0740 -0.9941 -0.5110
 4153TIP3   OH233949   6.449   4.181   5.629  0.5268  0.0940 -0.0311
 4153TIP3    H133950   6.483   4.175   5.718  1.1368  0.6916 -0.2166
 4153TIP3    H233951   6.354   4.194   5.640  0.3487 -1.4624  0.4864
 4154TIP3   OH233952   1.027   1.862  11.851 -0.0760  0.1718 -0.5477
 4154TIP3    H133953   1.003   1.776  11.819 -0.7219  0.3964 -0.6808
 4154TIP3    H233954   0.945   1.912  11.851  0.1758  0.6059  0.0831
 4155TIP3   OH233955   2.680   6.648  12.949 -0.1647 -0.0543 -0.5387
 4155TIP3    H133956   2.616   6.718  12.942 -2.1463 -1.4857  1.6554
 4155TIP3    H233957   2.686   6.630  13.043  0.7328 -2.3828 -0.9663
 4156TIP3   OH233958   3.726   0.263  13.416  0.5881  0.4758  0.1376
 4156TIP3    H133959   3.744   0.354  13.392  0.1914 -0.1732 -3.2211
 4156TIP3    H233960   3.634   0.264  13.444  0.0841  0.9606 -1.3879
 4157TIP3   OH233961   0.050   2.003   4.417  0.2371  0.1461 -0.3655
 4157TIP3    H133962  -0.011   1.956   4.474 -1.0077  0.7743 -1.1609
 4157TIP3    H233963   0.093   1.934   4.366  1.6977 -0.4834  1.5539
 4158TIP3   OH233964   5.365   1.492   0.311 -0.3425  0.4554  0.2101
 4158TIP3    H133965   5.460   1.495   0.295 -0.4451  0.7527 -0.3832
 4158TIP3    H233966   5.332   1.573   0.272 -0.8465  0.3368  0.3868
 4159TIP3   OH233967   0.210   3.971  15.949 -0.1012 -0.1277  0.1669
 4159TIP3    H133968   0.153   3.904  15.988 -0.3500 -0.1197 -0.1731
 4159TIP3    H233969   0.263   4.003  16.022  0.5846 -1.2537  0.1975
 4160TIP3   OH233970   0.230   3.278   4.989 -0.6519  0.2368 -0.1753
 4160TIP3    H133971   0.301   3.246   4.933  0.8020  1.4206  0.9084
 4160TIP3    H233972   0.271   3.290   5.075 -2.8220 -1.6236  1.2386
 4161TIP3   OH233973   1.825   0.990   2.072  0.0180  0.5705 -0.1007
 4161TIP3    H133974   1.916   1.018   2.085 -0.3702  2.9476 -1.7501
 4161TIP3    H233975   1.795   0.963   2.159  1.5617  2.1979  1.0129
 4162TIP3   OH233976   4.934   4.613  13.291  0.5595  0.4799 -0.0854
 4162TIP3    H133977   4.867   4.681  13.288  0.1273  0.0464 -0.4948
 4162TIP3    H233978   5.000   4.642  13.226  0.5450  0.6731 -0.0158
 4163TIP3   OH233979   3.153   4.098  16.381  0.0763  0.1934  0.2331
 4163TIP3    H133980   3.139   4.114  16.288 -0.9033  1.5352  0.5695
 4163TIP3    H233981   3.236   4.141  16.401  0.4545 -0.3870 -0.0830
 4164TIP3   OH233982   3.820   0.791  12.807 -0.5017 -0.2670  0.0468
 4164TIP3    H133983   3.850   0.849  12.876 -0.5821 -1.7168  1.3455
 4164TIP3    H233984   3.853   0.705  12.831 -0.9959 -0.9161 -1.4437
 4165TIP3   OH233985   4.748   5.148  13.426 -0.0231 -0.2482  0.0307
 4165TIP3    H133986   4.693   5.072  13.444 -0.5786  0.2027  0.2751
 4165TIP3    H233987   4.693   5.205  13.372  0.9784 -0.7665 -1.6218
 4166TIP3   OH233988   5.839   2.395  13.891 -0.5221  0.0767 -0.0298
 4166TIP3    H133989   5.891   2.395  13.811  0.3019  1.1141  0.4776
 4166TIP3    H233990   5.859   2.312  13.933  1.4098  0.7955  0.5572
 4167TIP3   OH233991   3.620   2.144   2.664 -0.6995 -0.0256  0.6213
 4167TIP3    H133992   3.598   2.140   2.570 -1.9211  0.9473  0.8321
 4167TIP3    H233993   3.564   2.078   2.704 -0.6562  0.0087  0.7381
 4168TIP3   OH233994   0.034   6.578   5.335 -0.1842 -0.4751  0.8369
 4168TIP3    H133995   0.129   6.569   5.334 -0.2449 -1.1961  0.9226
 4168TIP3    H233996   0.011   6.609   5.247  0.3809  2.7935  1.7094
 4169TIP3   OH233997   0.465   3.641   0.894  0.6004  0.5016 -0.6173
 4169TIP3    H133998   0.540   3.581   0.903  1.2665  1.3605 -0.2762
 4169TIP3    H233999   0.403   3.612   0.961  1.5691  1.1053  0.5814
 4170TIP3   OH234000   1.066   6.219   3.959  0.2885 -0.5274  0.4084
 4170TIP3    H134001   1.153   6.188   3.934 -0.3177 -2.5442  0.6575
 4170TIP3    H234002   1.005   6.168   3.906 -0.7906 -0.0135  1.0953
 4171TIP3   OH234003   6.084   2.159  11.805  0.3079 -0.0411  0.0138
 4171TIP3    H134004   5.997   2.126  11.784  0.5091 -0.0072 -0.9428
 4171TIP3    H234005   6.079   2.186  11.897 -0.9243  0.7278 -0.2622
 4172TIP3   OH234006   3.498   4.275  15.283 -0.0233  0.1678 -0.2571
 4172TIP3    H134007   3.469   4.235  15.364  0.9029  2.8989  1.5569
 4172TIP3    H234008   3.418   4.299  15.237 -0.6316  1.4893  1.4273
 4173TIP3   OH234009   2.096   3.995  14.272 -0.9948 -0.4451 -0.4327
 4173TIP3    H134010   2.173   3.975  14.218 -0.1805  2.2272 -0.4302
 4173TIP3    H234011   2.026   3.940  14.236  0.7423 -2.5251 -0.8163
 4174TIP3   OH234012   0.624   5.047   6.431 -0.3002  0.1695 -0.6242
 4174TIP3    H134013   0.672   4.977   6.475  0.8955 -0.2423 -2.4375
 4174TIP3    H234014   0.629   5.122   6.491  0.5463 -0.5815  0.2725
 4175TIP3   OH234015   1.728   5.116   1.949 -0.3561 -0.1942  0.2049
 4175TIP3    H134016   1.646   5.128   1.900 -0.0763 -1.0442 -0.5073
 4175TIP3    H234017   1.778   5.054   1.896  0.5529 -0.0511  0.8789
 4176TIP3   OH234018   1.331   6.345   2.139  0.0682 -0.7286  0.1705
 4176TIP3    H134019   1.260   6.295   2.099 -0.9939 -0.0073  1.0930
 4176TIP3    H234020   1.386   6.280   2.182  0.6830 -1.4228 -1.5672
 4177TIP3   OH234021   4.614   1.825  12.361 -0.0000  0.1815 -0.3189
 4177TIP3    H134022   4.584   1.907  12.322 -0.8337 -0.0785 -0.2477
 4177TIP3    H234023   4.559   1.758  12.322 -0.9576 -0.0733  1.3562
 4178TIP3   OH234024   2.102   6.012  16.776 -0.3557 -0.3360  0.1286
 4178TIP3    H134025   2.182   5.962  16.794  0.2397  0.0727 -1.2146
 4178TIP3    H234026   2.064   5.969  16.699 -0.9849 -0.0304  0.2628
 4179TIP3   OH234027   1.124   1.133  17.077  0.1175  0.3111  0.2752
 4179TIP3    H134028   1.197   1.145  17.017  0.2352 -1.1787  0.0833
 4179TIP3    H234029   1.166   1.106  17.159 -0.2467 -2.3045 -0.3243
 4180TIP3   OH234030   2.454   2.436  11.046  0.2613  0.3330 -0.1439
 4180TIP3    H134031   2.505   2.452  11.125  0.1760  2.2238 -0.4112
 4180TIP3    H234032   2.363   2.436  11.076  0.2946 -0.6653 -0.0132
 4181TIP3   OH234033   4.488   3.816   4.499  0.0979  0.3352 -0.1555
 4181TIP3    H134034   4.564   3.763   4.473  0.3904  0.6416  0.0617
 4181TIP3    H234035   4.450   3.768   4.573 -0.6079 -0.4234 -0.9894
 4182TIP3   OH234036   1.086   0.793  11.194  0.0220  0.3183  0.1210
 4182TIP3    H134037   0.997   0.804  11.163  0.5067 -0.3579 -1.6087
 4182TIP3    H234038   1.139   0.854  11.142  0.5666  0.9123  1.3071
 4183TIP3   OH234039   5.187   3.262  16.883 -0.2288  0.2178 -0.3295
 4183TIP3    H134040   5.198   3.244  16.789  1.3839  1.8917 -0.5172
 4183TIP3    H234041   5.252   3.206  16.926 -0.6045 -0.1513 -0.2256
 4184TIP3   OH234042   3.655   5.413  13.555  0.3020  0.2375  0.2036
 4184TIP3    H134043   3.713   5.378  13.487 -0.3338 -0.7830  0.1621
 4184TIP3    H234044   3.618   5.335  13.597  0.7644  0.8556  1.8073
 4185TIP3   OH234045   4.490   2.469   6.112  0.1446  0.6057  0.0084
 4185TIP3    H134046   4.422   2.535   6.124 -0.8483 -0.2895 -0.5795
 4185TIP3    H234047   4.450   2.388   6.143  0.8902  0.0386 -0.4908
 4186TIP3   OH234048   5.887   3.429   6.521  0.3277  0.4552  0.2100
 4186TIP3    H134049   5.818   3.400   6.581  0.2441 -0.3367 -0.2585
 4186TIP3    H234050   5.960   3.368   6.536 -0.1156 -0.5122 -1.2989
 4187TIP3   OH234051   5.694   3.633  11.376  0.2751  0.0613  0.0979
 4187TIP3    H134052   5.679   3.703  11.313 -0.2081  0.0218  0.1673
 4187TIP3    H234053   5.655   3.556  11.336 -2.7193  0.5875  1.6710
 4188TIP3   OH234054   1.992   0.624  15.132  0.4355  0.2301 -0.6296
 4188TIP3    H134055   1.990   0.714  15.165 -0.7126 -0.4231  1.2242
 4188TIP3    H234056   1.912   0.585  15.165  0.5482 -1.2848 -2.0511
 4189TIP3   OH234057   2.399   0.755  12.529 -0.2246  0.1346  0.5930
 4189TIP3    H134058   2.435   0.694  12.594 -0.4275 -0.3419  0.2646
 4189TIP3    H234059   2.338   0.702  12.478  1.5154 -0.0700 -1.3922
 4190TIP3   OH234060   6.512   3.300   1.117 -0.2858 -0.9274  0.1975
 4190TIP3    H134061   6.470   3.217   1.139 -1.5899 -0.1945  0.6099
 4190TIP3    H234062   6.451   3.343   1.057  0.9893 -0.8079 -1.0841
 4191TIP3   OH234063   0.309   6.172  13.228 -0.2287  0.4867  0.4240
 4191TIP3    H134064   0.214   6.176  13.230 -0.2420  0.2495  2.6148
 4191TIP3    H234065   0.338   6.258  13.259  0.3208  1.0112 -1.4379
 4192TIP3   OH234066   4.138   5.394  11.549  0.1666 -0.5634 -0.1884
 4192TIP3    H134067   4.175   5.411  11.636 -0.1985  1.0798 -0.3175
 4192TIP3    H234068   4.060   5.342  11.566  0.4049 -0.7374  0.4138
 4193TIP3   OH234069   2.276   5.656  10.977 -0.0597 -0.0691  0.1119
 4193TIP3    H134070   2.222   5.692  10.907  1.0493  0.6606 -0.3941
 4193TIP3    H234071   2.364   5.650  10.940  0.6605  0.7728  1.5527
 4194TIP3   OH234072   3.333   0.854   0.240  0.1664  0.6876 -0.0127
 4194TIP3    H134073   3.376   0.833   0.323  0.0784 -0.9955 -0.3672
 4194TIP3    H234074   3.241   0.864   0.262  0.5077  3.6099  0.6244
 4195TIP3   OH234075   4.755   0.739  15.182 -0.0742  0.3996 -0.1050
 4195TIP3    H134076   4.842   0.745  15.144 -0.2148 -0.0442 -0.5066
 4195TIP3    H234077   4.706   0.682  15.122 -1.2089  2.1792 -0.9495
 4196TIP3   OH234078   1.753   6.661   4.085 -0.1942  0.5605  0.3492
 4196TIP3    H134079   1.811   6.612   4.144 -0.1509 -0.5230 -0.5772
 4196TIP3    H234080   1.796   6.656   4.000 -2.4817 -1.8292 -0.7897
 4197TIP3   OH234081   0.347   5.026  16.836  0.0565 -0.3418  0.2435
 4197TIP3    H134082   0.428   4.988  16.869  0.3498 -2.6698 -2.7497
 4197TIP3    H234083   0.359   5.031  16.741 -2.7644  0.6062 -0.1731
 4198TIP3   OH234084   0.663   5.174  16.731 -0.5254  0.4388 -0.1368
 4198TIP3    H134085   0.671   5.158  16.637 -1.3407 -1.9601  0.1563
 4198TIP3    H234086   0.574   5.207  16.743 -0.7579 -0.1947 -0.1023
 4199TIP3   OH234087   5.266   2.333   2.352  0.4050 -0.2696  0.4743
 4199TIP3    H134088   5.323   2.403   2.383  0.1245  0.0393  0.2941
 4199TIP3    H234089   5.311   2.299   2.274  0.5758 -0.3366  0.6016
 4200TIP3   OH234090   0.857   2.752   0.413 -0.1415 -0.3939  0.1426
 4200TIP3    H134091   0.915   2.717   0.481  3.5546  1.0017 -2.0011
 4200TIP3    H234092   0.877   2.700   0.335 -1.3282  0.5953 -0.8723
 4201TIP3   OH234093   2.814   2.048  11.766  0.6178  0.3659 -0.7080
 4201TIP3    H134094   2.879   2.010  11.825 -0.2541 -1.3453 -0.7780
 4201TIP3    H234095   2.863   2.076  11.689  1.3254 -0.5659 -0.6090
 4202TIP3   OH234096   5.962   0.394  16.960  0.1270 -0.1412 -0.2780
 4202TIP3    H134097   6.023   0.358  16.896 -1.6891 -0.2652 -2.0706
 4202TIP3    H234098   6.001   0.477  16.987  1.5744 -0.7117 -0.5101
 4203TIP3   OH234099   3.660   0.950   3.040  0.0600 -0.3113 -0.0378
 4203TIP3    H134100   3.687   0.877   3.095 -0.2895 -1.1252 -0.9071
 4203TIP3    H234101   3.582   0.985   3.083  1.6976  1.2898  1.8277
 4204TIP3   OH234102   5.947   2.974  11.651  0.1760 -0.3149 -0.7369
 4204TIP3    H134103   5.946   2.960  11.557  0.4413 -1.7352 -0.5449
 4204TIP3    H234104   6.030   2.936  11.680 -0.8313 -1.8085  0.3320
 4205TIP3   OH234105   6.222   4.776   4.526 -0.0413 -0.6600 -0.0626
 4205TIP3    H134106   6.169   4.698   4.546 -0.8127 -0.5843 -1.6843
 4205TIP3    H234107   6.161   4.849   4.531  0.5711 -0.1908  0.9320
 4206TIP3   OH234108   2.926   3.536  14.407 -0.1565  0.3960 -0.1884
 4206TIP3    H134109   2.843   3.583  14.411  0.4256  1.3824  0.5943
 4206TIP3    H234110   2.968   3.555  14.491  1.7824  1.6373 -1.3891
 4207TIP3   OH234111   0.109   6.387   1.052  0.3025  0.1057  0.1167
 4207TIP3    H134112   0.159   6.307   1.036  0.8734  0.3951  0.4227
 4207TIP3    H234113   0.026   6.372   1.007 -0.2336 -1.2938  1.4626
 4208TIP3   OH234114   2.884   1.130  11.585  0.1009  0.4046  0.0428
 4208TIP3    H134115   2.965   1.080  11.600 -0.3094 -0.1310  0.5180
 4208TIP3    H234116   2.911   1.222  11.591  0.4773  0.2346  1.3742
 4209TIP3   OH234117   3.570   2.193  12.706 -0.2157 -0.3521  0.1505
 4209TIP3    H134118   3.638   2.260  12.709 -0.8591  0.5284 -2.2574
 4209TIP3    H234119   3.570   2.154  12.794  0.8139  2.1574  1.3585
 4210TIP3   OH234120   0.713   4.631   3.429 -0.7784 -0.3520  0.3317
 4210TIP3    H134121   0.656   4.707   3.435  1.0144  1.1012 -0.2607
 4210TIP3    H234122   0.779   4.645   3.497 -0.0043 -1.0113 -0.2637
 4211TIP3   OH234123   4.573   2.276   1.078  0.0776 -0.2507 -0.2941
 4211TIP3    H134124   4.507   2.308   1.017  1.0045 -0.4260 -1.4237
 4211TIP3    H234125   4.581   2.346   1.143 -0.4309  0.2451 -0.7501
 4212TIP3   OH234126   2.064   3.984   2.753 -0.1606  0.4100  0.0915
 4212TIP3    H134127   2.103   3.908   2.708 -0.8699  0.4430 -0.5974
 4212TIP3    H234128   2.125   4.003   2.825 -0.2883 -1.1914  0.6599
 4213TIP3   OH234129   1.979   3.230   2.582  0.1292  0.5430  0.0290
 4213TIP3    H134130   1.942   3.188   2.505  1.4573  0.2582 -0.4801
 4213TIP3    H234131   2.054   3.175   2.605 -1.2895 -0.4848  2.6752
 4214TIP3   OH234132   5.261   3.403   5.537 -0.2278 -0.0575 -0.3475
 4214TIP3    H134133   5.292   3.493   5.549 -0.4828  0.0660 -0.6137
 4214TIP3    H234134   5.169   3.412   5.514 -0.2128 -0.3830 -0.5433
 4215TIP3   OH234135   2.559   1.568  15.330 -0.5867  0.0998  0.8966
 4215TIP3    H134136   2.496   1.499  15.352 -1.2621  0.6794  0.8233
 4215TIP3    H234137   2.544   1.585  15.237  0.9149 -0.9812  0.4067
 4216TIP3   OH234138   5.067   5.936  13.517 -0.2877 -0.0028 -0.4756
 4216TIP3    H134139   5.155   5.965  13.496  0.0245 -0.4294  0.2008
 4216TIP3    H234140   5.067   5.924  13.612 -1.5795  1.6810 -0.2152
 4217TIP3   OH234141   6.812   2.015  13.810  0.0108 -0.2331  0.9130
 4217TIP3    H134142   6.732   2.056  13.776  0.6453 -0.8084 -1.4285
 4217TIP3    H234143   6.871   2.089  13.826 -0.1967  0.0312  0.4801
 4218TIP3   OH234144   3.640   4.550  16.294  0.4172 -0.2449  0.6524
 4218TIP3    H134145   3.548   4.547  16.269  0.1560  0.4593  1.4880
 4218TIP3    H234146   3.679   4.472  16.254  0.1224  1.0015 -2.2625
 4219TIP3   OH234147   3.315   5.810  17.010 -0.0492  0.1845  0.5859
 4219TIP3    H134148   3.409   5.794  17.001  0.1153  1.5808 -0.5271
 4219TIP3    H234149   3.292   5.865  16.935 -1.9386 -0.8083  0.3499
 4220TIP3   OH234150   4.676   5.478   2.851  0.0285 -0.2249 -0.3831
 4220TIP3    H134151   4.662   5.393   2.891 -0.3120 -0.0948 -0.2227
 4220TIP3    H234152   4.615   5.537   2.897 -0.8882 -0.2126 -1.5713
 4221TIP3   OH234153   3.544   1.695  11.442  0.3413  0.0434 -0.1384
 4221TIP3    H134154   3.539   1.789  11.458  0.3333  0.1197 -0.5784
 4221TIP3    H234155   3.535   1.686  11.347  2.4568 -0.2433 -0.3651
 4222TIP3   OH234156   1.669   3.160  10.754 -0.1415  0.2547 -0.0743
 4222TIP3    H134157   1.757   3.128  10.732 -0.0679  0.4671 -0.0897
 4222TIP3    H234158   1.610   3.100  10.709 -0.0217 -0.3200  0.5085
 4223TIP3   OH234159   0.049   0.603   6.624  0.4857  0.0663  0.4396
 4223TIP3    H134160   0.142   0.588   6.640  0.2347  1.2197  3.6828
 4223TIP3    H234161   0.007   0.520   6.646  0.5761  0.1695  1.0034
 4224TIP3   OH234162   6.602   5.838  12.525  0.4634  0.1957 -0.1598
 4224TIP3    H134163   6.634   5.900  12.591  1.4725  1.3447 -1.6774
 4224TIP3    H234164   6.673   5.831  12.461 -0.5715 -0.7251 -1.2630
 4225TIP3   OH234165   4.805   3.466  16.397  0.3811  0.2419 -0.5966
 4225TIP3    H134166   4.853   3.517  16.332  0.9943  0.2964 -0.1063
 4225TIP3    H234167   4.869   3.404  16.430  0.0422  0.1515 -0.1091
 4226TIP3   OH234168   2.409   4.810  14.110 -0.1097  0.4366  0.2948
 4226TIP3    H134169   2.447   4.821  14.197  0.4286  1.6880 -0.0811
 4226TIP3    H234170   2.477   4.768  14.059  0.5345  1.9851 -0.1723
 4227TIP3   OH234171   4.252   3.228   3.327  0.7800  0.8994  0.5379
 4227TIP3    H134172   4.258   3.320   3.303 -2.5948  0.7652 -1.4994
 4227TIP3    H234173   4.200   3.228   3.407  1.2144  0.7735  0.8225
 4228TIP3   OH234174   4.520   5.219   3.654  0.1469  0.8137 -0.6318
 4228TIP3    H134175   4.510   5.309   3.621 -1.4155  0.5863 -0.8755
 4228TIP3    H234176   4.568   5.174   3.586  1.1470  1.5138 -0.4069
 4229TIP3   OH234177   5.552   0.728   0.329  0.4207 -0.3767  0.2700
 4229TIP3    H134178   5.588   0.729   0.241 -0.2589 -0.2062 -0.0167
 4229TIP3    H234179   5.507   0.812   0.337 -0.4812 -0.8543  0.3594
 4230TIP3   OH234180   4.266   6.788  12.405 -0.7894 -0.0704  0.0299
 4230TIP3    H134181   4.357   6.778  12.432 -0.8552  1.7189  1.0492
 4230TIP3    H234182   4.230   6.699  12.410  1.2580 -1.1070 -1.9577
 4231TIP3   OH234183   2.917   5.131   1.038 -0.3388 -0.2457 -0.1525
 4231TIP3    H134184   2.884   5.117   1.127 -1.4926 -0.6885 -0.6225
 4231TIP3    H234185   2.926   5.043   1.001 -1.1882 -0.0297 -0.9173
 4232TIP3   OH234186   3.809   2.276   0.204  0.4767  0.0564 -0.2383
 4232TIP3    H134187   3.800   2.343   0.137  0.2298  0.4151  0.1483
 4232TIP3    H234188   3.781   2.319   0.285 -2.0901 -1.1705 -0.3511
 4233TIP3   OH234189   6.240   4.757   5.978 -0.1740  0.8850 -0.3995
 4233TIP3    H134190   6.305   4.689   5.999  1.1086  1.9406 -0.8134
 4233TIP3    H234191   6.165   4.736   6.033  0.9637  0.3095  1.0096
 4234TIP3   OH234192   3.168   3.148  17.122  0.8003  0.0045 -0.2857
 4234TIP3    H134193   3.224   3.145  17.044  1.5353  2.0760  0.0976
 4234TIP3    H234194   3.085   3.184  17.091 -0.4147 -2.9571 -0.8310
 4235TIP3   OH234195   3.054   2.158  12.506  0.3223  0.3560 -0.1279
 4235TIP3    H134196   3.068   2.242  12.461  2.4943  0.8237  1.2513
 4235TIP3    H234197   3.130   2.150  12.565  0.4419 -2.8487 -0.5835
 4236TIP3   OH234198   1.823   5.798   0.314  0.1669 -0.3185  0.0172
 4236TIP3    H134199   1.877   5.831   0.386  0.6063 -0.5205 -0.2151
 4236TIP3    H234200   1.735   5.791   0.351  0.5271 -1.0881  0.7375
 4237TIP3   OH234201   4.419   0.056   6.430  0.2047  0.1233 -0.9609
 4237TIP3    H134202   4.363   0.054   6.352  0.8539  0.0301 -1.4368
 4237TIP3    H234203   4.365   0.096   6.498 -1.5090 -2.6349 -0.5461
 4238TIP3   OH234204   5.529   5.605   4.586  0.0171  0.1724 -0.4710
 4238TIP3    H134205   5.439   5.622   4.613  0.5469 -0.8984  2.1826
 4238TIP3    H234206   5.551   5.521   4.626  2.1099  0.2610 -1.3181
 4239TIP3   OH234207   0.123   3.051  12.334  0.0032  0.0102  0.2565
 4239TIP3    H134208   0.180   3.094  12.270 -0.8930 -0.5560 -0.9542
 4239TIP3    H234209   0.127   2.958  12.312 -0.6138 -0.1506  0.7912
 4240TIP3   OH234210   1.381   3.725  12.649 -0.0994  0.4798  0.1348
 4240TIP3    H134211   1.468   3.688  12.661 -0.4808 -0.3373  0.4860
 4240TIP3    H234212   1.324   3.649  12.635 -0.7458  1.0035 -0.1555
 4241TIP3   OH234213   0.380   5.192   2.428  0.0918 -0.1881  0.2789
 4241TIP3    H134214   0.306   5.210   2.370  0.1811 -2.4233 -0.6329
 4241TIP3    H234215   0.402   5.277   2.467 -1.3824  0.9632 -1.2830
 4242TIP3   OH234216   2.650   2.958  15.097 -0.0271 -0.2235 -0.3581
 4242TIP3    H134217   2.721   2.909  15.137  0.3744  0.1986 -0.5445
 4242TIP3    H234218   2.675   3.050  15.107 -1.5944  0.0572  1.5766
 4243TIP3   OH234219   4.622   4.269   3.588  0.3270 -0.0092  0.6328
 4243TIP3    H134220   4.645   4.353   3.628 -1.5109  0.3335  1.0510
 4243TIP3    H234221   4.531   4.280   3.560  0.0346 -1.8690  0.7307
 4244TIP3   OH234222   5.507   1.741  12.252 -0.1042 -0.2371  0.5030
 4244TIP3    H134223   5.603   1.739  12.257 -0.1114 -3.2573  1.2329
 4244TIP3    H234224   5.488   1.814  12.193  2.6991 -0.3791 -0.7421
 4245TIP3   OH234225   6.236   2.451  14.926  0.0509  0.5713 -0.2886
 4245TIP3    H134226   6.244   2.407  15.011 -1.1186  0.8246 -0.0239
 4245TIP3    H234227   6.211   2.540  14.947 -0.2064  0.6509 -0.9006
 4246TIP3   OH234228   6.103   4.897   1.065  0.0687 -0.0259  0.3728
 4246TIP3    H134229   6.047   4.963   1.106  1.1214  0.3379  1.2994
 4246TIP3    H234230   6.136   4.845   1.138  0.1433 -0.8712 -0.2467
 4247TIP3   OH234231   5.564   1.238  12.321 -0.0347 -0.3875 -0.1143
 4247TIP3    H134232   5.488   1.296  12.313  0.1514  0.1240  1.4580
 4247TIP3    H234233   5.596   1.228  12.231 -2.5061 -1.4115 -0.9849
 4248TIP3   OH234234   1.466   4.329   6.114 -0.5618 -0.5176 -0.1071
 4248TIP3    H134235   1.413   4.370   6.181  1.1144 -1.4195  1.8967
 4248TIP3    H234236   1.446   4.235   6.121  0.8307 -0.8076  0.3165
 4249TIP3   OH234237   0.232   3.452  12.269 -0.3700 -0.1457  0.2844
 4249TIP3    H134238   0.267   3.439  12.181  0.1289 -0.3692  0.5088
 4249TIP3    H234239   0.305   3.430  12.327 -0.8644 -0.5371  0.7658
 4250TIP3   OH234240   0.251   1.039   1.201  0.3329 -0.3323  0.2031
 4250TIP3    H134241   0.347   1.034   1.209  0.4417  1.0736 -0.0351
 4250TIP3    H234242   0.231   0.987   1.123  0.8917 -0.6893  0.2909
 4251TIP3   OH234243   1.375   4.532  12.715  0.2403 -0.8682 -0.9358
 4251TIP3    H134244   1.433   4.590  12.667 -0.1224  1.0770  0.8096
 4251TIP3    H234245   1.290   4.577  12.714  0.3820 -0.2792  2.0468
 4252TIP3   OH234246   4.811   2.155  14.956  0.7357 -0.3550 -0.2018
 4252TIP3    H134247   4.777   2.089  15.016 -0.4130 -0.6041 -1.0927
 4252TIP3    H234248   4.770   2.135  14.872  1.5335  0.5881 -0.8392
 4253TIP3   OH234249   0.313   5.378  17.025 -0.4620  0.9575  0.1040
 4253TIP3    H134250   0.311   5.325  17.104  0.3352 -1.4280 -1.3661
 4253TIP3    H234251   0.240   5.439  17.035 -2.8235 -1.7918  1.0507
 4254TIP3   OH234252   2.432   0.390  16.309  0.4015  0.3005 -1.2050
 4254TIP3    H134253   2.338   0.404  16.297  0.3214 -0.4677 -1.5883
 4254TIP3    H234254   2.455   0.325  16.242  1.1267  0.1885 -0.8578
 4255TIP3   OH234255   3.040   0.462   5.922 -0.4482 -0.1408  0.3046
 4255TIP3    H134256   2.985   0.437   5.996 -1.7752  0.1587 -0.5566
 4255TIP3    H234257   2.996   0.424   5.845  0.5129  0.1581 -0.4148
 4256TIP3   OH234258   6.201   6.006  14.253 -0.5797  0.3748  0.1818
 4256TIP3    H134259   6.147   6.085  14.251 -2.5820 -0.9110 -0.7642
 4256TIP3    H234260   6.156   5.945  14.195  1.5595 -1.0711 -0.0841
 4257TIP3   OH234261   3.032   5.771   5.629 -0.1206 -0.3628  0.0363
 4257TIP3    H134262   2.980   5.712   5.575 -0.1748 -1.4562  1.2129
 4257TIP3    H234263   2.969   5.836   5.661 -0.2151 -0.1004 -0.6736
 4258TIP3   OH234264   3.783   5.558  15.921  0.0584 -0.1865 -0.2978
 4258TIP3    H134265   3.844   5.539  15.850  0.4548  2.4534 -0.7675
 4258TIP3    H234266   3.703   5.586  15.877 -0.1283  0.2236  0.2913
 4259TIP3   OH234267   3.130   5.676   3.237 -0.2884 -0.1189  0.7405
 4259TIP3    H134268   3.210   5.625   3.220 -0.8934 -1.4850  1.7753
 4259TIP3    H234269   3.109   5.657   3.328 -0.9434  1.4821  0.9542
 4260TIP3   OH234270   3.218   6.717  13.214  0.1002 -0.2820  0.5498
 4260TIP3    H134271   3.199   6.640  13.267  1.4056 -0.6816  0.4587
 4260TIP3    H234272   3.212   6.686  13.123  0.3494 -0.2060  0.5072
 4261TIP3   OH234273   3.962   6.663  15.514 -0.1312 -0.1658 -0.4809
 4261TIP3    H134274   3.912   6.732  15.557 -0.7397 -1.4539  0.9924
 4261TIP3    H234275   3.939   6.670  15.422  0.0343  1.7310 -0.4076
 4262TIP3   OH234276   2.325   0.359  10.623 -0.1557  0.2639 -0.5159
 4262TIP3    H134277   2.318   0.392  10.533  1.7792 -0.0235 -0.8187
 4262TIP3    H234278   2.386   0.285  10.617  1.1067  1.0842  1.2154
 4263TIP3   OH234279   1.521   0.519   2.672 -0.0859  0.2761  0.1478
 4263TIP3    H134280   1.432   0.485   2.673 -0.2644  0.7198  1.4645
 4263TIP3    H234281   1.536   0.544   2.581 -0.7822 -1.1041 -0.3850
 4264TIP3   OH234282   5.044   4.768  15.800  0.1964 -0.4113 -0.1253
 4264TIP3    H134283   5.140   4.768  15.804  0.1773 -1.0921  0.4750
 4264TIP3    H234284   5.017   4.706  15.868 -0.6784 -0.0986 -0.1768
 4265TIP3   OH234285   5.701   2.469   1.592 -0.1847  0.3392 -0.2631
 4265TIP3    H134286   5.773   2.510   1.640 -1.6275  0.4676  1.9492
 4265TIP3    H234287   5.720   2.486   1.500  2.1362  1.1077  0.3014
 4266TIP3   OH234288   0.591   0.527   3.751 -0.3758  0.1479  0.4122
 4266TIP3    H134289   0.568   0.514   3.659 -0.4012  1.8207  0.1446
 4266TIP3    H234290   0.676   0.484   3.761 -0.6701 -0.6035 -0.2208
 4267TIP3   OH234291   2.550   2.979   3.336  0.1616  0.4420 -0.3311
 4267TIP3    H134292   2.553   2.974   3.241  1.5357  1.0193 -0.3295
 4267TIP3    H234293   2.581   3.067   3.357 -2.4045  1.2425  0.5768
 4268TIP3   OH234294   5.193   2.564  13.364 -0.4267  1.0819  0.2874
 4268TIP3    H134295   5.194   2.589  13.272 -2.1508  2.0801  0.4945
 4268TIP3    H234296   5.236   2.637  13.409 -0.1519  0.8889  0.3407
 4269TIP3   OH234297   2.566   3.712   4.905  0.1864  0.2081 -0.1064
 4269TIP3    H134298   2.640   3.731   4.847 -0.4375 -0.7802 -1.2789
 4269TIP3    H234299   2.604   3.665   4.979  0.8396  0.4752 -0.2693
 4270TIP3   OH234300   5.041   3.413   4.456 -0.1155 -0.0081  0.2430
 4270TIP3    H134301   5.088   3.465   4.390 -0.0120 -0.3457  0.0500
 4270TIP3    H234302   5.034   3.471   4.531  1.6047 -0.3299  0.6846
 4271TIP3   OH234303   5.564   5.423  11.276  0.6891  0.0711  0.4298
 4271TIP3    H134304   5.625   5.486  11.314  1.5808  1.0544 -2.4218
 4271TIP3    H234305   5.576   5.431  11.182  0.5802 -4.1062 -0.1428
 4272TIP3   OH234306   5.739   4.823  15.359 -0.4038 -0.2239 -0.1278
 4272TIP3    H134307   5.831   4.837  15.335 -0.8362  0.9748 -1.1691
 4272TIP3    H234308   5.710   4.751  15.302 -0.3479 -0.0281 -0.4018
 4273TIP3   OH234309   5.321   5.213   3.423  0.1848 -0.0909 -0.1798
 4273TIP3    H134310   5.349   5.302   3.444 -0.5129  0.3971 -1.2441
 4273TIP3    H234311   5.239   5.202   3.471  0.1013 -0.0398 -0.3107
 4274TIP3   OH234312   5.889   2.771   0.879  0.3321 -0.3608  0.4724
 4274TIP3    H134313   5.916   2.791   0.790  2.6388 -1.9841  0.7160
 4274TIP3    H234314   5.941   2.830   0.934  0.9694 -1.2249  0.8246
 4275TIP3   OH234315   3.739   3.528  16.079 -0.4234  0.5016  0.2466
 4275TIP3    H134316   3.691   3.591  16.026 -1.5696  0.1371  0.8287
 4275TIP3    H234317   3.689   3.447  16.072 -1.0936  0.6415  2.5128
 4276TIP3   OH234318   2.778   4.328  15.523  0.8969  0.3807 -0.3146
 4276TIP3    H134319   2.701   4.272  15.519 -1.5408  2.9980  3.3305
 4276TIP3    H234320   2.766   4.391  15.451 -1.2683  1.5854  0.9946
 4277TIP3   OH234321   4.153   1.995   0.852 -1.0039  0.6140 -0.0708
 4277TIP3    H134322   4.205   1.931   0.901  1.6269  2.1159 -0.6832
 4277TIP3    H234323   4.109   1.944   0.785 -0.7105 -0.8218  0.7952
 4278TIP3   OH234324   6.414   2.110  14.157 -0.1658 -0.0094  0.2733
 4278TIP3    H134325   6.333   2.128  14.207  0.8275 -0.9001  2.3273
 4278TIP3    H234326   6.449   2.197  14.138 -0.8890  0.3750  0.6108
 4279TIP3   OH234327   1.961   4.587   0.372  0.0775  0.4615 -0.2787
 4279TIP3    H134328   1.947   4.681   0.357  1.0865  0.2808 -2.7462
 4279TIP3    H234329   2.048   4.570   0.337  0.5406 -1.1553  1.4996
 4280TIP3   OH234330   1.060   5.724   3.370 -0.0320 -0.3835  0.0325
 4280TIP3    H134331   1.041   5.693   3.281  1.0195  0.3374 -0.4602
 4280TIP3    H234332   1.152   5.750   3.368 -0.1867  0.3445  1.1319
 4281TIP3   OH234333   0.874   6.483   2.818 -0.1238  0.3698 -0.6301
 4281TIP3    H134334   0.811   6.436   2.763  0.8710 -1.1206 -0.5668
 4281TIP3    H234335   0.925   6.414   2.860  0.8568  1.5235  0.1442
 4282TIP3   OH234336   1.139   3.941   3.629  0.5078 -0.2537  0.0041
 4282TIP3    H134337   1.145   3.917   3.537  0.0504 -0.4678  0.0236
 4282TIP3    H234338   1.083   4.019   3.630  1.1438  0.2086  0.0350
 4283TIP3   OH234339   4.896   0.819  15.772 -0.5864  0.2265  0.1843
 4283TIP3    H134340   4.919   0.830  15.864  2.5926  0.4269 -0.5038
 4283TIP3    H234341   4.892   0.724  15.759 -1.4615  0.2012  0.5869
 4284TIP3   OH234342   5.998   6.280  13.502  0.4992 -0.5050 -0.2518
 4284TIP3    H134343   5.950   6.283  13.419  2.0493  1.1030 -1.1763
 4284TIP3    H234344   6.058   6.206  13.492  0.3577 -0.6026 -0.3885
 4285TIP3   OH234345   5.094   1.285  16.468 -0.6641  0.4179  0.4477
 4285TIP3    H134346   5.005   1.264  16.494 -1.5424  2.0671 -0.9891
 4285TIP3    H234347   5.144   1.204  16.483 -2.3127 -0.4542  1.5164
 4286TIP3   OH234348   1.037   3.788   5.283 -0.3664  0.3476  0.6579
 4286TIP3    H134349   1.050   3.841   5.362  0.8899  2.7205 -1.0292
 4286TIP3    H234350   1.125   3.775   5.248 -0.9365 -0.1235 -0.6825
 4287TIP3   OH234351   2.625   1.108  12.101  0.5241 -0.0329 -0.4348
 4287TIP3    H134352   2.564   1.039  12.075 -1.4289  1.0007  1.1056
 4287TIP3    H234353   2.584   1.189  12.073  0.8673  0.7405  1.1737
 4288TIP3   OH234354   3.457   1.928   2.673 -0.3182 -0.6982 -0.0087
 4288TIP3    H134355   3.448   1.867   2.600 -1.6178 -0.8786  0.2894
 4288TIP3    H234356   3.388   1.903   2.734 -0.7756  0.9688  0.1992
 4289TIP3   OH234357   5.684   5.289  10.535  0.4892  0.0797 -0.8524
 4289TIP3    H134358   5.765   5.310  10.488  0.6864 -0.0564 -0.5731
 4289TIP3    H234359   5.633   5.237  10.473  1.0097 -0.6208 -0.7018
 4290TIP3   OH234360   5.091   3.725   3.115 -0.2903 -0.7414 -0.1279
 4290TIP3    H134361   5.174   3.701   3.074  0.4502 -1.5672  1.7301
 4290TIP3    H234362   5.103   3.705   3.208 -2.7294 -1.3689  0.1396
 4291TIP3   OH234363   4.226   2.913   0.098 -0.4522  0.1261  0.4611
 4291TIP3    H134364   4.313   2.941   0.126  0.0186 -0.0594 -0.7701
 4291TIP3    H234365   4.170   2.928   0.175  1.2087 -2.7531  2.4444
 4292TIP3   OH234366   2.784   0.193  15.134 -0.0377 -0.5117 -0.3801
 4292TIP3    H134367   2.715   0.236  15.085  0.4306  1.6992  0.7774
 4292TIP3    H234368   2.859   0.193  15.075  0.0665  0.6732 -0.2648
 4293TIP3   OH234369   2.624   2.826   1.996 -0.0543 -0.7781 -0.2981
 4293TIP3    H134370   2.607   2.896   1.933  0.3642 -0.9533 -0.6093
 4293TIP3    H234371   2.719   2.816   1.997  0.0275 -0.1056  1.1083
 4294TIP3   OH234372   0.410   5.731  15.893  0.3715 -0.4455 -0.1636
 4294TIP3    H134373   0.450   5.783  15.823  0.2079 -1.4363 -1.0137
 4294TIP3    H234374   0.347   5.674  15.848 -0.7806 -0.1108  0.9609
 4295TIP3   OH234375   3.880   0.950  11.747  0.9799  0.2566 -1.0357
 4295TIP3    H134376   3.951   0.984  11.692  2.5503 -1.0567  0.0600
 4295TIP3    H234377   3.921   0.937  11.832 -0.4836 -1.0222 -0.4871
 4296TIP3   OH234378   5.519   4.918   5.545  0.6037 -0.1316  0.2338
 4296TIP3    H134379   5.439   4.927   5.492  1.6622  1.1128 -1.2327
 4296TIP3    H234380   5.552   4.831   5.523 -1.1339 -1.3334  2.0706
 4297TIP3   OH234381   6.671   4.855  13.541  0.4169 -0.4355 -0.1686
 4297TIP3    H134382   6.729   4.830  13.614 -0.5476 -0.7460  0.5191
 4297TIP3    H234383   6.583   4.836  13.574 -0.1548  1.0355 -0.7896
 4298TIP3   OH234384   5.757   4.502  13.429  0.4105  0.5435 -0.1460
 4298TIP3    H134385   5.756   4.581  13.376  0.0978 -0.4360 -1.6462
 4298TIP3    H234386   5.665   4.479  13.441  0.4195  1.3649  1.8115
 4299TIP3   OH234387   2.889   6.343   1.716  0.1356 -0.2047 -0.2514
 4299TIP3    H134388   2.825   6.341   1.646  0.7822 -1.5339 -0.8406
 4299TIP3    H234389   2.907   6.251   1.736  1.0841  0.1382  0.6066
 4300TIP3   OH234390   2.705   3.228  10.683  0.2623  0.1899 -0.1543
 4300TIP3    H134391   2.636   3.292  10.701 -0.2793 -0.8451  1.8077
 4300TIP3    H234392   2.763   3.272  10.621 -0.8584  2.0048 -0.0051
 4301TIP3   OH234393   2.580   6.667   1.899 -0.3783 -0.6275 -0.6850
 4301TIP3    H134394   2.573   6.762   1.912 -0.6907 -0.9084  1.5770
 4301TIP3    H234395   2.669   6.654   1.867  0.8284  0.2288  2.0121
 4302TIP3   OH234396   1.818   0.678   3.580  0.2400  0.5510 -0.2849
 4302TIP3    H134397   1.815   0.649   3.489 -0.7673  0.7395 -0.3253
 4302TIP3    H234398   1.801   0.773   3.576  0.8327  0.6809  0.0562
 4303TIP3   OH234399   5.993   0.145  11.844 -0.1432  0.2301  0.6753
 4303TIP3    H134400   6.022   0.191  11.765 -1.0943  0.7291  0.6046
 4303TIP3    H234401   5.927   0.203  11.883  0.3397  0.0198  1.8669
 4304TIP3   OH234402   2.537   0.390   6.495 -0.0173 -0.3051  0.5825
 4304TIP3    H134403   2.452   0.409   6.455  0.4003  0.0745 -0.1529
 4304TIP3    H234404   2.563   0.306   6.457  0.3593  0.0339  0.0762
 4305TIP3   OH234405   0.102   6.275   6.743  0.5776 -0.1029 -0.0480
 4305TIP3    H134406   0.152   6.252   6.666  0.0869 -1.2682 -0.0405
 4305TIP3    H234407   0.012   6.248   6.723  0.0795  1.2133  0.2451
 4306TIP3   OH234408   6.804   3.460  14.295 -0.0429 -0.2892  0.0800
 4306TIP3    H134409   6.779   3.527  14.359  1.4145 -0.4850  0.9084
 4306TIP3    H234410   6.788   3.501  14.210 -1.2473  0.2817  0.5621
 4307TIP3   OH234411   0.061   2.556   3.673  0.3130 -0.1400  0.4339
 4307TIP3    H134412   0.015   2.575   3.755  0.1214 -1.7012  0.7101
 4307TIP3    H234413   0.113   2.478   3.692  1.5332  0.4245 -0.4726
 4308TIP3   OH234414   5.751   4.577   0.463  0.0596  0.2310  0.3569
 4308TIP3    H134415   5.810   4.560   0.537 -0.0151  1.0943  0.6323
 4308TIP3    H234416   5.669   4.534   0.487  0.4842 -0.7297  0.1067
 4309TIP3   OH234417   1.276   0.227   2.169 -0.2494  0.2115  0.0511
 4309TIP3    H134418   1.196   0.260   2.211 -1.2008  0.1871 -1.6636
 4309TIP3    H234419   1.263   0.244   2.076  1.5581 -0.2379 -0.3180
 4310TIP3   OH234420   2.393   3.908   5.358  0.3984  0.3451 -0.3678
 4310TIP3    H134421   2.474   3.922   5.309  1.7153 -1.2088  1.2491
 4310TIP3    H234422   2.422   3.879   5.445 -1.8883 -1.3929 -0.0926
 4311TIP3   OH234423   2.812   5.368   0.954 -0.2006  0.2941  0.3678
 4311TIP3    H134424   2.883   5.425   0.983 -0.5229  0.4063  0.9545
 4311TIP3    H234425   2.843   5.279   0.973 -1.0947  0.4138  2.7539
 4312TIP3   OH234426   4.952   2.122   0.335 -0.1855 -0.1071 -0.2058
 4312TIP3    H134427   5.030   2.141   0.284 -0.7582  0.2401 -0.9702
 4312TIP3    H234428   4.981   2.058   0.400  0.9981  0.8588  0.2609
 4313TIP3   OH234429   5.497   2.268  12.597  0.5385  0.3245 -0.0689
 4313TIP3    H134430   5.477   2.254  12.505 -1.7960 -0.8619  0.5451
 4313TIP3    H234431   5.541   2.188  12.625 -1.0196 -0.4243  0.3749
 4314TIP3   OH234432   0.646   4.634   4.285 -0.2291 -0.3864 -0.0694
 4314TIP3    H134433   0.578   4.694   4.254  0.6365  1.9350  2.1216
 4314TIP3    H234434   0.600   4.552   4.303 -2.2509  0.7416  0.2341
 4315TIP3   OH234435   6.607   1.102  15.773  0.0617  0.0523 -0.0856
 4315TIP3    H134436   6.541   1.147  15.721  0.8024  1.8473  0.4559
 4315TIP3    H234437   6.577   1.111  15.864  0.8010  0.5185  0.1284
 4316TIP3   OH234438   5.195   3.501  15.908 -0.1180  0.4767 -1.2914
 4316TIP3    H134439   5.231   3.557  15.977 -0.8953 -0.9562  0.3483
 4316TIP3    H234440   5.120   3.550  15.874 -1.1046  0.2737  0.4752
 4317TIP3   OH234441   4.616   2.525   0.498 -0.0387 -0.0080  0.3528
 4317TIP3    H134442   4.675   2.451   0.502  0.3702  0.3672  1.8308
 4317TIP3    H234443   4.663   2.590   0.446  1.8367  1.0474  3.1174
 4318TIP3   OH234444   4.014   1.894   2.383 -0.4281 -0.0872 -0.2357
 4318TIP3    H134445   4.082   1.958   2.405 -1.2540  1.1104 -1.0962
 4318TIP3    H234446   3.939   1.946   2.356 -1.3487 -1.4150 -0.3498
 4319TIP3   OH234447   1.131   3.821   0.196  0.1783  0.0665 -0.4559
 4319TIP3    H134448   1.066   3.802   0.265  0.7196 -1.1835 -0.2714
 4319TIP3    H234449   1.194   3.879   0.239  0.9983 -1.4022  0.4158
 4320TIP3   OH234450   5.399   0.009   5.436 -0.2542 -0.1167 -0.2194
 4320TIP3    H134451   5.371   0.077   5.375 -0.4275  0.4265  0.4526
 4320TIP3    H234452   5.495   0.009   5.429 -0.2123  0.6407  0.2293
 4321TIP3   OH234453   6.531   5.601   3.553  0.6253 -0.0145 -0.6552
 4321TIP3    H134454   6.488   5.599   3.638  2.3240  0.5478  0.2459
 4321TIP3    H234455   6.458   5.601   3.490 -0.6974  0.8019  0.7935
 4322TIP3   OH234456   1.539   5.093  15.770  0.1430  0.2863  0.1046
 4322TIP3    H134457   1.537   5.001  15.797 -0.3999  0.1373 -0.4413
 4322TIP3    H234458   1.626   5.105  15.732 -0.4764 -0.5430 -1.6686
 4323TIP3   OH234459   4.193   3.621   1.433 -0.1472 -0.2258  0.4086
 4323TIP3    H134460   4.258   3.670   1.383 -1.5235  1.3737  0.0948
 4323TIP3    H234461   4.183   3.538   1.386 -0.2286  0.5903 -1.0706
 4324TIP3   OH234462   1.326   0.148   0.172  0.3178  1.3829 -0.1224
 4324TIP3    H134463   1.389   0.089   0.215 -2.8838 -3.1598 -0.9775
 4324TIP3    H234464   1.373   0.180   0.095  2.1513 -0.4019  0.1576
 4325TIP3   OH234465   5.977   4.598  11.704  0.1676  0.1376 -0.3929
 4325TIP3    H134466   6.060   4.641  11.686 -0.8571  1.4887 -2.1624
 4325TIP3    H234467   5.945   4.639  11.784  1.0867 -0.2636  0.1934
 4326TIP3   OH234468   3.452   6.237  11.321 -0.1032 -0.5958  0.0166
 4326TIP3    H134469   3.434   6.328  11.345  1.4862 -0.5748  1.3707
 4326TIP3    H234470   3.499   6.243  11.237  1.0612 -0.0312  0.6765
 4327TIP3   OH234471   6.210   2.406  14.657  0.3016 -0.0207  0.3072
 4327TIP3    H134472   6.118   2.381  14.644  0.4968 -1.3969  1.4438
 4327TIP3    H234473   6.222   2.409  14.752  0.9602  2.0817  0.2209
 4328TIP3   OH234474   0.881   2.098   1.003 -0.9053 -0.2850  0.4927
 4328TIP3    H134475   0.888   2.034   1.073 -0.9640 -0.3319  0.4550
 4328TIP3    H234476   0.886   2.047   0.922  0.2503 -0.1376  0.4478
 4329TIP3   OH234477   0.298   6.115   5.517  0.5248  0.8602 -0.1844
 4329TIP3    H134478   0.263   6.055   5.583  1.5065 -0.0924 -0.4830
 4329TIP3    H234479   0.223   6.164   5.485 -0.5279 -0.9786 -0.6870
 4330TIP3   OH234480   4.320   6.813  11.369  0.7470 -0.5059  0.3029
 4330TIP3    H134481   4.324   6.749  11.439 -1.7370 -0.7893  0.2479
 4330TIP3    H234482   4.366   6.772  11.296  1.8476 -0.9058  1.1835
 4331TIP3   OH234483   0.549   0.394  17.013  0.2131 -0.1505 -0.3224
 4331TIP3    H134484   0.508   0.395  17.099  0.7756 -2.0518  0.0246
 4331TIP3    H234485   0.476   0.398  16.952 -0.3435 -0.8360  0.2731
 4332TIP3   OH234486   1.686   6.048  11.014  0.4970 -0.1895  0.1874
 4332TIP3    H134487   1.770   6.030  10.971  0.0083  0.2798 -0.9981
 4332TIP3    H234488   1.678   5.980  11.081  2.6174  0.7452  1.5031
 4333TIP3   OH234489   1.655   5.125  13.164 -0.3245 -0.0922  0.0511
 4333TIP3    H134490   1.566   5.090  13.157 -0.1845 -0.1803 -1.8513
 4333TIP3    H234491   1.659   5.193  13.097  0.0976  2.1569  2.2089
 4334TIP3   OH234492   1.781   3.061  12.160  0.3087 -0.2975 -0.5715
 4334TIP3    H134493   1.731   3.094  12.086  0.1816  2.2504  0.5529
 4334TIP3    H234494   1.850   3.126  12.174 -0.1080 -0.2992  1.9692
 4335TIP3   OH234495   4.046   5.851   5.890  0.0737 -0.4123 -0.0373
 4335TIP3    H134496   4.090   5.805   5.818  0.6019 -0.2626  0.1893
 4335TIP3    H234497   4.065   5.798   5.967  0.8493  0.2842  0.2601
 4336TIP3   OH234498   4.442   5.185  11.177  0.1545  0.5928  0.3009
 4336TIP3    H134499   4.518   5.143  11.217  0.3029  1.4456  0.9363
 4336TIP3    H234500   4.462   5.278  11.177 -0.9967  0.8670  0.7420
 4337TIP3   OH234501   2.752   3.514  12.743 -0.4975 -0.5942  0.8148
 4337TIP3    H134502   2.784   3.462  12.669 -0.0645 -1.6206  1.7089
 4337TIP3    H234503   2.828   3.527  12.799 -0.5761  1.1061  0.5775
 4338TIP3   OH234504   3.938   0.059   1.511  0.3514  0.0823  0.6846
 4338TIP3    H134505   4.003   0.127   1.531  1.9369 -0.5217 -1.8618
 4338TIP3    H234506   3.863   0.107   1.477  1.2584  0.6451 -0.6123
 4339TIP3   OH234507   1.368   6.572   1.148 -0.2714 -0.1047 -0.1547
 4339TIP3    H134508   1.353   6.609   1.235 -1.6023  0.4455 -0.6009
 4339TIP3    H234509   1.455   6.602   1.124  0.7125 -1.3991  1.5431
 4340TIP3   OH234510   4.222   5.630  13.344 -0.3015  0.3850  0.2561
 4340TIP3    H134511   4.147   5.597  13.393 -0.5729  1.6200  0.7040
 4340TIP3    H234512   4.282   5.555  13.340 -1.4722 -0.5717  0.0155
 4341TIP3   OH234513   4.473   3.928  15.807  0.5303  0.1195  0.4403
 4341TIP3    H134514   4.437   3.878  15.880 -0.1455  0.7980  0.5900
 4341TIP3    H234515   4.490   3.863  15.739  0.5012 -0.4259  0.9452
 4342TIP3   OH234516   4.238   6.589   0.309  0.4932 -0.2296 -0.1504
 4342TIP3    H134517   4.211   6.624   0.224  1.0806 -2.2127 -1.2259
 4342TIP3    H234518   4.175   6.519   0.328  1.0728 -0.6073  0.4353
 4343TIP3   OH234519   1.069   6.645  12.906  0.1836  0.8482 -0.4798
 4343TIP3    H134520   1.158   6.640  12.871  0.7403  0.2661  0.9370
 4343TIP3    H234521   1.068   6.583  12.979 -0.8173  2.2120  0.7326
 4344TIP3   OH234522   0.212   5.805  12.310  0.2504 -0.0222 -0.3525
 4344TIP3    H134523   0.253   5.720  12.294 -0.4337 -0.6056  0.8274
 4344TIP3    H234524   0.229   5.823  12.402  0.1245  0.9814 -0.5186
 4345TIP3   OH234525   4.415   5.886  12.334  0.3849  0.0090  0.0851
 4345TIP3    H134526   4.497   5.935  12.333 -0.3401  1.2693  0.4856
 4345TIP3    H234527   4.351   5.947  12.297 -0.5302 -0.6569  0.5470
 4346TIP3   OH234528   4.683   5.400   0.296  0.0256 -0.3905  0.0284
 4346TIP3    H134529   4.665   5.472   0.357 -1.2949  1.3782 -2.2944
 4346TIP3    H234530   4.761   5.358   0.331 -1.1577 -0.0884  3.4117
 4347TIP3   OH234531   5.158   1.889   4.007  0.3495 -0.0628  0.1559
 4347TIP3    H134532   5.220   1.816   4.006  0.5992  0.1502  0.1071
 4347TIP3    H234533   5.091   1.864   3.943  0.2870 -0.3733  0.3372
 4348TIP3   OH234534   2.863   6.397  12.878 -0.3682  0.2485  0.0567
 4348TIP3    H134535   2.814   6.474  12.908 -1.6713  0.4687 -2.3858
 4348TIP3    H234536   2.820   6.323  12.921 -0.2575  0.7287  1.0227
 4349TIP3   OH234537   3.053   0.261   3.463  0.4388  0.3508 -0.3649
 4349TIP3    H134538   3.142   0.261   3.429  0.5327  3.1166 -0.3074
 4349TIP3    H234539   3.030   0.168   3.470  3.0885 -0.4166 -0.8764
 4350TIP3   OH234540   3.965   3.557  15.795 -0.3736  0.0678 -0.8177
 4350TIP3    H134541   4.048   3.536  15.752 -0.0792  1.1909 -0.8304
 4350TIP3    H234542   3.991   3.595  15.879 -0.8811  0.2540 -0.7424
 4351TIP3   OH234543   5.862   2.998   1.385  0.0708  0.0692  0.3786
 4351TIP3    H134544   5.903   3.084   1.386  1.7790 -0.6945  0.3074
 4351TIP3    H234545   5.826   2.987   1.473 -1.4326  1.3957 -0.0341
 4352TIP3   OH234546   4.345   2.247  16.641  0.1932  0.0763 -0.2037
 4352TIP3    H134547   4.304   2.207  16.565  1.1743 -0.1580 -0.6271
 4352TIP3    H234548   4.424   2.195  16.656  0.2623  0.4176  0.6823
 4353TIP3   OH234549   6.531   3.371   3.612 -0.3346 -0.4541 -0.4304
 4353TIP3    H134550   6.488   3.329   3.686 -0.8271  0.4519 -0.1823
 4353TIP3    H234551   6.487   3.335   3.535 -1.1688  0.0459 -0.2003
 4354TIP3   OH234552   1.660   0.529  13.588 -0.0709  0.8221  0.1611
 4354TIP3    H134553   1.654   0.624  13.582  1.4613  1.0446  1.4471
 4354TIP3    H234554   1.588   0.504  13.645  1.2100  1.5786  2.2103
 4355TIP3   OH234555   1.651   3.446  11.780  0.1297 -0.1306  0.0694
 4355TIP3    H134556   1.697   3.500  11.844 -1.9804 -0.0902  1.6652
 4355TIP3    H234557   1.570   3.419  11.825 -0.7034 -1.4025 -2.0427
 4356TIP3   OH234558   6.315   6.240   3.242  0.1725 -0.2126  0.2051
 4356TIP3    H134559   6.406   6.237   3.271 -0.2617  0.4543  1.7351
 4356TIP3    H234560   6.279   6.319   3.282 -0.7303  0.3163 -1.5118
 4357TIP3   OH234561   5.029   2.020   1.304  0.5472 -0.4647 -0.2213
 4357TIP3    H134562   5.027   2.116   1.307  2.5014 -0.4052  0.8224
 4357TIP3    H234563   5.062   1.995   1.390  1.4510 -2.0167 -0.9877
 4358TIP3   OH234564   6.423   6.514   1.800  0.5977  0.5396  0.3679
 4358TIP3    H134565   6.370   6.522   1.879 -0.5027  0.2022 -0.3110
 4358TIP3    H234566   6.371   6.458   1.742  1.0323  1.3620 -0.8691
 4359TIP3   OH234567   2.178   4.142  16.762  0.6393 -0.1726 -0.2760
 4359TIP3    H134568   2.262   4.164  16.724  1.8368  0.8326  2.6507
 4359TIP3    H234569   2.149   4.223  16.804 -2.5263 -0.0812 -2.2864
 4360TIP3   OH234570   1.755   4.155  12.769 -0.0486  0.2472 -0.0656
 4360TIP3    H134571   1.758   4.092  12.841 -1.9055  0.8639  0.6228
 4360TIP3    H234572   1.730   4.237  12.811 -0.9518  0.6763 -1.3900
 4361TIP3   OH234573   0.339   0.078   3.441  0.7158  0.5231  0.3362
 4361TIP3    H134574   0.374   0.003   3.393  0.5654  0.9620 -0.4737
 4361TIP3    H234575   0.416   0.128   3.466  0.7949  0.2936  0.5584
 4362TIP3   OH234576   1.616   2.628  11.290  0.1813 -0.9277 -0.6970
 4362TIP3    H134577   1.678   2.654  11.222 -0.4135  1.8763 -0.2943
 4362TIP3    H234578   1.650   2.669  11.370 -0.7695 -1.6331  0.0950
 4363TIP3   OH234579   0.198   4.934   5.287 -0.3238 -0.1000 -0.0953
 4363TIP3    H134580   0.212   4.866   5.353  0.5855 -0.1445 -0.3256
 4363TIP3    H234581   0.239   5.012   5.324 -0.9679  0.2184 -0.0341
 4364TIP3   OH234582   3.905   3.699  12.013  0.4017  0.4343  0.1628
 4364TIP3    H134583   3.993   3.683  11.979  0.6491  1.4590  0.2930
 4364TIP3    H234584   3.883   3.620  12.062  0.9994 -0.0747 -0.3845
 4365TIP3   OH234585   6.443   3.382  12.459  0.1359  0.2406  0.3205
 4365TIP3    H134586   6.512   3.397  12.524  0.7013  1.0534 -0.4426
 4365TIP3    H234587   6.364   3.418  12.499  0.3315  0.1026  0.8420
 4366TIP3   OH234588   4.983   2.525   5.308 -0.2263 -0.0539 -0.0906
 4366TIP3    H134589   4.890   2.532   5.331 -0.2123 -0.2010  0.0102
 4366TIP3    H234590   5.004   2.432   5.321  0.4850  0.3408  1.9225
 4367TIP3   OH234591   0.109   4.030  11.460  0.2045 -0.3833  0.1673
 4367TIP3    H134592   0.073   4.079  11.534  0.0987  0.4587 -0.4192
 4367TIP3    H234593   0.045   4.042  11.390  0.3047 -1.1638 -0.0708
 4368TIP3   OH234594   0.526   5.925   0.630  0.1087 -0.1284  0.2706
 4368TIP3    H134595   0.556   6.014   0.651  0.1507  0.0053 -0.3328
 4368TIP3    H234596   0.441   5.938   0.587  0.2646 -0.3582 -0.1101
 4369TIP3   OH234597   2.967   5.937   4.415  0.1125 -0.2111  0.2752
 4369TIP3    H134598   3.032   6.007   4.415 -1.9163  1.8075 -0.6394
 4369TIP3    H234599   2.960   5.911   4.323  0.5365 -1.3369  0.5536
 4370TIP3   OH234600   0.507   5.830   3.438 -0.1779  0.3120 -0.0829
 4370TIP3    H134601   0.593   5.788   3.445 -0.5481 -0.1956  1.7297
 4370TIP3    H234602   0.519   5.897   3.370  1.5987  0.1379  0.0157
 4371TIP3   OH234603   1.321   0.907  17.114  0.4547 -0.3402 -0.3100
 4371TIP3    H134604   1.413   0.928  17.132 -0.0649 -0.8348  3.6900
 4371TIP3    H234605   1.272   0.948  17.185 -2.2981 -1.5177 -1.3872
 4372TIP3   OH234606   1.188   5.875   4.379  0.1772 -0.1739 -0.8457
 4372TIP3    H134607   1.266   5.833   4.416 -1.1576  0.0584  2.6582
 4372TIP3    H234608   1.132   5.803   4.351 -0.3825 -0.6607  1.3361
 4373TIP3   OH234609   2.858   3.391   4.656  0.1645  0.1209 -0.1855
 4373TIP3    H134610   2.850   3.315   4.714  1.9468 -0.3583 -0.5323
 4373TIP3    H234611   2.834   3.358   4.570 -3.3991  1.0451  0.2918
 4374TIP3   OH234612   5.742   0.936   2.665 -0.5714  0.4771 -0.2279
 4374TIP3    H134613   5.721   1.012   2.719  0.2164  1.1819 -0.8741
 4374TIP3    H234614   5.699   0.953   2.581  1.0300  1.0848 -0.9653
 4375TIP3   OH234615   5.831   1.745  13.257 -0.0447  0.3347  0.0452
 4375TIP3    H134616   5.877   1.663  13.272 -1.5410 -0.7819 -1.1080
 4375TIP3    H234617   5.765   1.749  13.327 -1.1381 -0.3858 -0.9005
 4376TIP3   OH234618   1.122   2.364   5.573 -0.0742 -0.2037  0.2866
 4376TIP3    H134619   1.196   2.401   5.620 -0.3257  0.8498 -0.1167
 4376TIP3    H234620   1.081   2.439   5.530 -1.8801 -0.6162  1.1736
 4377TIP3   OH234621   5.253   4.229   5.679  0.2173  0.1159  0.2824
 4377TIP3    H134622   5.279   4.205   5.590 -0.0224  0.7511  0.0383
 4377TIP3    H234623   5.201   4.155   5.710  0.8480 -0.3990  0.1418
 4378TIP3   OH234624   3.146   2.783  14.444  0.2722  0.2522  0.1820
 4378TIP3    H134625   3.164   2.720  14.514 -0.2452  0.5706  0.6126
 4378TIP3    H234626   3.092   2.736  14.382 -0.1488  0.2833  0.5247
 4379TIP3   OH234627   1.625   0.071  14.727 -0.0183 -0.0614  0.4031
 4379TIP3    H134628   1.653  -0.011  14.686  0.1087 -0.0119  0.3917
 4379TIP3    H234629   1.568   0.043  14.799 -2.4939 -0.1058 -1.4123
 4380TIP3   OH234630   2.428   0.299   3.860 -0.2345  0.0842  0.2328
 4380TIP3    H134631   2.469   0.374   3.905  0.5424  1.2619 -2.2468
 4380TIP3    H234632   2.464   0.222   3.905 -1.0908  1.1115  2.9034
 4381TIP3   OH234633   5.659   2.292   5.908  0.2698 -0.6097 -0.2401
 4381TIP3    H134634   5.703   2.264   5.988 -1.2824  1.3612  1.4039
 4381TIP3    H234635   5.666   2.387   5.908 -0.4244 -0.5072 -2.0701
 4382TIP3   OH234636   1.956   4.734  13.229  0.2887  0.5924  0.3155
 4382TIP3    H134637   1.866   4.745  13.198  0.1476  0.0866  0.5326
 4382TIP3    H234638   1.998   4.680  13.163 -0.0639 -0.6422  1.0643
 4383TIP3   OH234639   5.170   5.780  11.817  0.4765 -0.1230  0.3827
 4383TIP3    H134640   5.209   5.758  11.902  1.5141 -0.6055 -0.1897
 4383TIP3    H234641   5.126   5.864  11.831 -1.3170 -1.2677  1.9612
 4384TIP3   OH234642   4.675   5.440   4.053 -0.2337 -0.3381  0.5282
 4384TIP3    H134643   4.705   5.431   4.144  0.5660 -0.2981  0.2728
 4384TIP3    H234644   4.744   5.490   4.009 -0.3142 -0.8793 -0.2437
 4385TIP3   OH234645   3.458   0.308  12.651  0.1759 -0.0188 -0.6778
 4385TIP3    H134646   3.496   0.292  12.738 -1.7636 -0.7065  0.0973
 4385TIP3    H234647   3.373   0.265  12.654  0.0759 -0.0827 -2.9673
 4386TIP3   OH234648   6.458   1.172  14.695 -0.5846  0.0077 -0.0682
 4386TIP3    H134649   6.416   1.097  14.737  2.4221 -2.3041 -0.8376
 4386TIP3    H234650   6.433   1.165  14.603 -0.5169  0.1627 -0.0981
 4387TIP3   OH234651   4.497   1.466  12.713 -0.1799  0.6563  0.3281
 4387TIP3    H134652   4.534   1.501  12.795 -2.7475  2.7022  0.7226
 4387TIP3    H234653   4.491   1.542  12.655 -0.1658 -0.4062 -1.1150
 4388TIP3   OH234654   5.574   1.741   0.512  0.3811 -0.0140  0.2029
 4388TIP3    H134655   5.635   1.673   0.542  0.4329 -0.9285 -1.8336
 4388TIP3    H234656   5.493   1.724   0.560  0.6466 -1.0158  0.3122
 4389TIP3   OH234657   5.383   5.896   4.773 -0.1460  0.1330 -0.0637
 4389TIP3    H134658   5.398   5.850   4.856  0.6523 -1.8207 -1.2224
 4389TIP3    H234659   5.469   5.927   4.747 -0.4600  1.0908  0.0223
 4390TIP3   OH234660   4.124   6.680   6.163 -0.5290 -0.3455  0.5024
 4390TIP3    H134661   4.201   6.625   6.149 -0.6372 -0.6632  1.0912
 4390TIP3    H234662   4.051   6.630   6.127 -0.9667 -1.6345  2.8999
 4391TIP3   OH234663   2.067   6.725  15.061 -0.1221  0.2469  0.4737
 4391TIP3    H134664   2.002   6.657  15.048 -0.2506  0.2218  1.2321
 4391TIP3    H234665   2.054   6.785  14.987  0.5135 -0.9452 -0.6332
 4392TIP3   OH234666   5.254   0.456  16.075  0.0368  0.0512  0.0156
 4392TIP3    H134667   5.168   0.435  16.039 -0.7241 -1.1210  2.3357
 4392TIP3    H234668   5.265   0.396  16.148  1.3357  2.3985  1.9114
 4393TIP3   OH234669   0.869   1.967   1.271  0.6616 -0.0171 -0.0525
 4393TIP3    H134670   0.794   1.920   1.234  0.9773 -0.2981 -0.3433
 4393TIP3    H234671   0.847   1.978   1.364 -1.1979  2.6986 -0.6820
 4394TIP3   OH234672   3.320   2.659   3.168 -0.6552  0.3404  0.6883
 4394TIP3    H134673   3.411   2.651   3.139 -0.8259 -0.5930  0.3748
 4394TIP3    H234674   3.327   2.677   3.262 -0.1594 -0.7189  0.8674
 4395TIP3   OH234675   3.110   1.833  16.766  0.4431 -0.5064 -0.0902
 4395TIP3    H134676   3.107   1.896  16.694 -1.0999  0.5476  0.8378
 4395TIP3    H234677   3.060   1.758  16.735 -1.1642  0.3847  0.2141
 4396TIP3   OH234678   1.042   2.269  15.376  0.2345  0.4733 -0.4598
 4396TIP3    H134679   1.031   2.216  15.297  0.2059 -2.8809  1.5963
 4396TIP3    H234680   0.960   2.257  15.424 -0.2476  3.4720 -0.3893
 4397TIP3   OH234681   2.544   3.097  15.772 -0.1585 -0.3942  0.2675
 4397TIP3    H134682   2.549   3.007  15.741 -1.4159 -0.4436  0.1495
 4397TIP3    H234683   2.452   3.109  15.797 -0.1425  1.0319 -0.2723
 4398TIP3   OH234684   5.127   0.123  11.847 -0.1923 -0.1797 -0.3257
 4398TIP3    H134685   5.038   0.148  11.871  0.5450  2.4584 -0.0304
 4398TIP3    H234686   5.129   0.132  11.752 -0.1243  0.3172 -0.2840
 4399TIP3   OH234687   4.885   5.235   0.368 -0.6916 -0.0596  0.5218
 4399TIP3    H134688   4.911   5.210   0.280 -1.7967 -2.4022  0.7775
 4399TIP3    H234689   4.948   5.191   0.425 -0.3870  0.8832  0.9211
 4400TIP3   OH234690   3.396   5.847  16.600 -0.1676 -0.7882  0.4619
 4400TIP3    H134691   3.389   5.754  16.620  1.0823 -0.7384  1.2588
 4400TIP3    H234692   3.338   5.860  16.525 -0.6600 -2.1245  0.5877
 4401TIP3   OH234693   5.434   1.479  13.388 -0.0324  0.3807  0.6842
 4401TIP3    H134694   5.526   1.505  13.392  0.1826 -0.2450  0.0977
 4401TIP3    H234695   5.390   1.553  13.346  0.9622 -1.0018 -3.2116
 4402TIP3   OH234696   2.415   4.873   3.201 -0.1805  0.0909  0.1073
 4402TIP3    H134697   2.349   4.838   3.262 -0.4154  0.1191 -0.1284
 4402TIP3    H234698   2.399   4.825   3.120  1.0913 -1.0160  0.4810
 4403TIP3   OH234699   4.289   1.494  11.167 -0.4462 -0.2470 -0.2197
 4403TIP3    H134700   4.302   1.557  11.096 -0.8518  0.3114  0.1920
 4403TIP3    H234701   4.354   1.425  11.150 -0.3857 -0.0087 -0.9981
 4404TIP3   OH234702   3.584   1.886   3.237 -0.0209 -0.5360  0.3123
 4404TIP3    H134703   3.524   1.957   3.256  1.9974  0.8419  1.9524
 4404TIP3    H234704   3.575   1.871   3.143 -1.2854  1.1292  0.1336
 4405TIP3   OH234705   0.062   4.500  15.826 -0.2478  0.5670 -0.1606
 4405TIP3    H134706   0.145   4.494  15.780 -1.0623  2.4943 -2.0140
 4405TIP3    H234707   0.060   4.588  15.862 -0.8677  0.0366  1.1896
 4406TIP3   OH234708   1.596   6.670  15.641  0.1303 -0.3919  0.0636
 4406TIP3    H134709   1.686   6.695  15.618 -0.4672  1.3922 -0.4922
 4406TIP3    H234710   1.602   6.576  15.661  2.4035 -0.0061  1.6348
 4407TIP3   OH234711   0.262   5.896  12.569 -0.8304  0.2529  0.2215
 4407TIP3    H134712   0.278   5.839  12.645 -1.4741  0.7087  0.7087
 4407TIP3    H234713   0.349   5.923  12.541 -0.5039 -1.0432 -0.0825
 4408TIP3   OH234714   3.693   0.687  11.627 -0.1059 -0.0872 -0.0534
 4408TIP3    H134715   3.687   0.604  11.580 -2.1791 -0.2747  0.4742
 4408TIP3    H234716   3.737   0.746  11.565 -0.5905 -0.9813 -1.2848
 4409TIP3   OH234717   3.227   0.578  12.696 -0.5037 -0.2497 -0.1647
 4409TIP3    H134718   3.289   0.604  12.629 -2.1833 -0.5135 -1.9065
 4409TIP3    H234719   3.204   0.488  12.674 -3.1402  0.5209 -0.9726
 4410TIP3   OH234720   0.933   0.552  14.554  0.5131  0.0963 -0.5816
 4410TIP3    H134721   0.882   0.545  14.635 -0.1983  2.3624 -0.7666
 4410TIP3    H234722   0.895   0.487  14.496 -0.0611 -0.4185  0.3467
 4411TIP3   OH234723   5.634   6.223   0.859  0.2919 -0.4737 -0.4922
 4411TIP3    H134724   5.698   6.166   0.902 -0.3442 -0.6849  0.1850
 4411TIP3    H234725   5.672   6.311   0.866 -0.7653 -0.1460  2.4752
 4412TIP3   OH234726   4.505   2.418   3.537 -0.1435 -0.3884 -0.4993
 4412TIP3    H134727   4.540   2.401   3.449  0.1915 -2.0068 -0.0929
 4412TIP3    H234728   4.410   2.416   3.526 -0.1067 -1.0754 -0.7583
 4413TIP3   OH234729   6.335   3.539  12.160  0.0628 -0.6185  0.2370
 4413TIP3    H134730   6.314   3.533  12.067 -0.0577  1.3492  0.0963
 4413TIP3    H234731   6.392   3.464  12.177 -0.1621 -1.1784 -1.3443
 4414TIP3   OH234732   1.848   0.966   5.550 -0.0470 -0.5286 -0.1471
 4414TIP3    H134733   1.901   0.955   5.471  1.6355  0.0007  0.8565
 4414TIP3    H234734   1.757   0.959   5.519  0.5648 -0.5935 -2.0687
 4415TIP3   OH234735   0.576   4.444  13.531  0.0169 -0.2861 -0.4040
 4415TIP3    H134736   0.575   4.353  13.500  0.2748 -0.6463  0.5993
 4415TIP3    H234737   0.484   4.470  13.531 -0.1095 -0.7250 -0.2047
 4416TIP3   OH234738   5.056   6.728  15.602  0.1452  0.5172 -0.3572
 4416TIP3    H134739   5.062   6.818  15.636  0.6300  0.4042 -0.1313
 4416TIP3    H234740   4.962   6.715  15.587 -0.4565 -0.1746  3.0735
 4417TIP3   OH234741   2.900   1.510   0.641  0.4968 -0.2089  0.1443
 4417TIP3    H134742   2.845   1.499   0.563  1.9479  1.1650 -1.1548
 4417TIP3    H234743   2.925   1.603   0.640  2.1623 -0.5986  1.1202
 4418TIP3   OH234744   0.480   3.645  12.574  1.0553 -0.0077  0.2444
 4418TIP3    H134745   0.514   3.700  12.504 -0.5548 -0.4519 -0.9521
 4418TIP3    H234746   0.411   3.698  12.614  0.6627 -0.4902  0.2135
 4419TIP3   OH234747   0.991   0.102   3.806 -0.0771  0.1588 -0.2127
 4419TIP3    H134748   0.919   0.042   3.825 -0.7588  0.9703 -0.1405
 4419TIP3    H234749   0.999   0.102   3.711 -1.2264  1.2215 -0.3370
 4420TIP3   OH234750   1.319   2.497   2.737  0.1123 -0.4812 -0.0531
 4420TIP3    H134751   1.361   2.531   2.816  1.0984 -1.3770 -0.1840
 4420TIP3    H234752   1.328   2.567   2.673  2.0227 -0.9122 -0.2869
 4421TIP3   OH234753   1.096   6.117  16.373  0.3954 -0.0339  0.3284
 4421TIP3    H134754   1.022   6.084  16.425  0.8269 -0.5379  0.6395
 4421TIP3    H234755   1.078   6.210  16.362 -1.3227 -0.5073 -1.3392
 4422TIP3   OH234756   0.107   6.771  14.665 -0.3333  0.3709 -0.0273
 4422TIP3    H134757   0.179   6.774  14.728 -0.7661 -1.9823  0.6840
 4422TIP3    H234758   0.043   6.834  14.699 -0.5038 -0.7409  1.9014
 4423TIP3   OH234759   0.478   0.321   2.161  0.3339 -0.2403 -0.3677
 4423TIP3    H134760   0.510   0.306   2.250  2.4379 -0.4939 -1.1276
 4423TIP3    H234761   0.387   0.291   2.163 -0.4389  1.8640  2.2835
 4424TIP3   OH234762   6.779   0.124  16.699 -0.4565  0.1450  0.3171
 4424TIP3    H134763   6.759   0.212  16.666  1.2898  0.7094  0.6907
 4424TIP3    H234764   6.786   0.135  16.794  4.0300  0.6333  0.1386
 4425TIP3   OH234765   5.728   4.097   0.916  0.5051  0.0079 -0.2439
 4425TIP3    H134766   5.730   4.186   0.952  0.3723 -1.2035  3.1415
 4425TIP3    H234767   5.774   4.044   0.981  0.3561 -2.4752 -2.0247
 4426TIP3   OH234768   2.865   0.275  14.736 -0.0442 -0.4054  0.0227
 4426TIP3    H134769   2.834   0.198  14.783  0.0660 -0.5306 -0.1075
 4426TIP3    H234770   2.903   0.331  14.804  0.1167 -0.5870  0.0822
 4427TIP3   OH234771   6.271   5.555   5.437  0.4216  0.3226 -0.8514
 4427TIP3    H134772   6.272   5.512   5.352 -0.7913 -2.0585  0.2649
 4427TIP3    H234773   6.210   5.628   5.426 -0.5360 -0.5784 -1.7614
 4428TIP3   OH234774   2.264   1.924   5.195  0.2875  0.0869 -0.4787
 4428TIP3    H134775   2.329   1.921   5.265  0.3910  0.2737 -0.5689
 4428TIP3    H234776   2.297   1.863   5.129  0.0279 -0.3359 -0.2247
 4429TIP3   OH234777   2.077   3.397   4.672  0.4931 -0.0520 -0.2606
 4429TIP3    H134778   2.080   3.394   4.576  0.5623 -2.9101 -0.2637
 4429TIP3    H234779   2.146   3.337   4.700 -0.2434 -0.1296  1.5575
 4430TIP3   OH234780   1.344   4.225   5.064 -0.1323  1.0370  0.7131
 4430TIP3    H134781   1.288   4.153   5.092  0.6842  0.5257  1.0739
 4430TIP3    H234782   1.360   4.207   4.971  2.1614 -0.7420  1.3603
 4431TIP3   OH234783   2.808   3.918  11.150 -0.2553 -0.1618  0.1018
 4431TIP3    H134784   2.814   3.906  11.056 -0.8072 -0.1281  0.0611
 4431TIP3    H234785   2.896   3.897  11.182 -0.0445 -0.0973 -0.4234
 4432TIP3   OH234786   6.112   5.785   3.197 -0.1125 -0.3882 -0.4221
 4432TIP3    H134787   6.070   5.797   3.282 -0.4020 -0.2489 -0.5834
 4432TIP3    H234788   6.159   5.702   3.205 -1.9854 -1.5655 -0.8563
 4433TIP3   OH234789   1.583   1.371   0.281 -0.6360  0.1588 -0.6880
 4433TIP3    H134790   1.526   1.426   0.227  0.2020  0.8119 -0.9321
 4433TIP3    H234791   1.661   1.358   0.227 -0.4145 -0.4579 -0.2311
 4434TIP3   OH234792   1.830   4.263  11.203 -0.3856  0.4811  0.4330
 4434TIP3    H134793   1.868   4.175  11.195 -1.6879 -0.0638 -0.1314
 4434TIP3    H234794   1.743   4.248  11.241 -0.8068  1.4697 -0.1028
 4435TIP3   OH234795   2.463   5.053  15.516  1.0494 -0.1109 -0.1168
 4435TIP3    H134796   2.431   4.964  15.499  1.1435 -0.6536  2.1666
 4435TIP3    H234797   2.557   5.042  15.530  1.0127  0.2990  0.4709
 4436TIP3   OH234798   2.311   1.906  16.085 -0.3983  0.9013  0.4496
 4436TIP3    H134799   2.247   1.962  16.128 -1.1627  0.1419  0.3369
 4436TIP3    H234800   2.329   1.837  16.149 -0.2345  0.7166  0.2091
 4437TIP3   OH234801   0.879   4.883   6.374 -0.7345 -0.1993 -0.0605
 4437TIP3    H134802   0.832   4.828   6.436  1.9288 -1.7107  0.7732
 4437TIP3    H234803   0.912   4.956   6.427 -0.0006 -0.5328 -0.0354
 4438TIP3   OH234804   1.199   0.984   0.131 -0.2970 -0.2502  0.4657
 4438TIP3    H134805   1.147   0.923   0.185  0.1279 -0.9540  0.1010
 4438TIP3    H234806   1.200   1.065   0.182 -3.3043  0.4303 -0.3432
 4439TIP3   OH234807   0.506   2.487  16.984 -0.3716  0.6794  0.1846
 4439TIP3    H134808   0.439   2.428  16.949 -0.7866 -0.7419  3.0680
 4439TIP3    H234809   0.460   2.570  17.000 -1.1267  0.1457  0.8465
 4440TIP3   OH234810   5.540   1.699  14.395  0.1385  0.1399 -0.4957
 4440TIP3    H134811   5.497   1.628  14.443  2.0195 -0.0746  0.9747
 4440TIP3    H234812   5.475   1.727  14.331 -1.5824 -1.2140  0.5661
 4441TIP3   OH234813   2.194   0.625  11.777 -0.3308 -0.7466 -0.0037
 4441TIP3    H134814   2.255   0.643  11.849 -2.4372 -0.4011  1.7876
 4441TIP3    H234815   2.193   0.530  11.769  0.5326 -0.7529 -0.1718
 4442TIP3   OH234816   4.349   6.171   4.312  0.2056  0.2284  0.6554
 4442TIP3    H134817   4.322   6.247   4.261  0.5099  0.6148  1.0659
 4442TIP3    H234818   4.268   6.122   4.326  0.0434  0.3618  0.2094
 4443TIP3   OH234819   5.266   1.464   2.136  0.2774 -0.6818  0.1152
 4443TIP3    H134820   5.278   1.374   2.169  0.4651 -0.8114 -0.3041
 4443TIP3    H234821   5.216   1.454   2.056 -0.0431 -0.3734  0.2750
 4444TIP3   OH234822   0.070   4.403   4.482 -0.2691 -0.2408  0.7057
 4444TIP3    H134823   0.049   4.407   4.388  1.7193  0.0213  0.2327
 4444TIP3    H234824   0.165   4.388   4.485  0.0082  1.4860  2.6679
 4445TIP3   OH234825   5.952   4.669   1.938 -0.5629  0.5206  0.1616
 4445TIP3    H134826   6.014   4.618   1.886 -2.0112 -0.7817 -0.3643
 4445TIP3    H234827   5.882   4.691   1.877 -1.0477  1.2162  0.9471
 4446TIP3   OH234828   6.836   2.709   1.616 -0.4092 -0.0404  0.4566
 4446TIP3    H134829   6.830   2.667   1.530  2.6121 -1.8509  0.9366
 4446TIP3    H234830   6.812   2.640   1.678 -5.5413  2.0439  1.2339
 4447TIP3   OH234831   2.382   5.068   6.199  0.1732  0.2979  0.0872
 4447TIP3    H134832   2.357   5.100   6.285 -0.5247  2.1384 -0.7537
 4447TIP3    H234833   2.425   4.984   6.216  2.1045  1.6379  2.4444
 4448TIP3   OH234834   4.921   3.705  13.458  0.7680 -0.6332  0.4002
 4448TIP3    H134835   4.836   3.663  13.469  0.3336 -0.1256 -0.8445
 4448TIP3    H234836   4.932   3.712  13.364  1.8603 -0.0081  0.5586
 4449TIP3   OH234837   6.281   1.991  15.353 -0.0077 -0.2596  0.2437
 4449TIP3    H134838   6.299   2.017  15.262 -0.0779  0.5065  0.4377
 4449TIP3    H234839   6.335   2.050  15.405  0.4616 -1.0749  0.6858
 4450TIP3   OH234840   1.175   6.215   5.039  0.1204 -0.3741  0.3899
 4450TIP3    H134841   1.231   6.292   5.038 -0.5360  0.1311  1.0004
 4450TIP3    H234842   1.095   6.242   4.994 -0.3575 -0.4839  1.1427
 4451TIP3   OH234843   1.233   3.820   2.292 -0.0036  0.0246 -0.0641
 4451TIP3    H134844   1.172   3.747   2.300  0.2600 -0.7736 -3.6425
 4451TIP3    H234845   1.319   3.779   2.301  0.1421 -0.1742 -2.0109
 4452TIP3   OH234846   3.504   0.906   2.761  0.3096  0.3736 -0.3277
 4452TIP3    H134847   3.420   0.870   2.788 -0.0754  1.0007 -0.6768
 4452TIP3    H234848   3.557   0.907   2.841  0.4151 -1.1757 -0.3550
 4453TIP3   OH234849   5.027   6.419   3.670  0.0651 -0.0881 -0.7885
 4453TIP3    H134850   5.109   6.377   3.695  0.5728  1.2447 -0.1039
 4453TIP3    H234851   4.959   6.364   3.708  0.7513  1.2939  2.9461
 4454TIP3   OH234852   0.338   2.807   2.841 -0.5299  0.1243 -0.3895
 4454TIP3    H134853   0.283   2.868   2.790 -1.2665 -0.3679 -0.1944
 4454TIP3    H234854   0.378   2.751   2.775 -1.9751 -0.9223 -0.4373
 4455TIP3   OH234855   4.818   0.027   2.488 -0.2765 -0.7039 -0.3212
 4455TIP3    H134856   4.765  -0.027   2.430  0.1913  0.2515 -1.7153
 4455TIP3    H234857   4.756   0.066   2.549 -1.4144  1.1179 -2.4855
 4456TIP3   OH234858   1.953   1.591  11.922 -0.4432 -0.7023  0.5693
 4456TIP3    H134859   1.964   1.686  11.926 -1.0555 -0.6507  1.1764
 4456TIP3    H234860   1.858   1.577  11.918 -0.3303 -1.2381 -1.5283
 4457TIP3   OH234861   0.541   5.808   4.444  0.0872  0.2726  0.1858
 4457TIP3    H134862   0.618   5.863   4.461 -0.6909  0.5088  3.8002
 4457TIP3    H234863   0.573   5.719   4.452  0.1918  0.3448  0.5936
 4458TIP3   OH234864   1.514   2.721   2.728 -0.0852  0.3730  0.1517
 4458TIP3    H134865   1.451   2.785   2.696 -0.2258 -0.2644 -0.9071
 4458TIP3    H234866   1.485   2.701   2.817 -0.4560  1.2373  0.2358
 4459TIP3   OH234867   4.847   6.394  11.926  0.0709  0.3875  0.0841
 4459TIP3    H134868   4.789   6.470  11.929  0.6798  0.8223  0.9760
 4459TIP3    H234869   4.886   6.398  11.839 -2.1649 -0.6377 -1.0549
 4460TIP3   OH234870   0.560   3.135   1.785  0.0755  0.5616 -0.0065
 4460TIP3    H134871   0.604   3.169   1.708 -4.3164  0.4141 -2.9096
 4460TIP3    H234872   0.538   3.212   1.837  0.0279  1.0210 -0.7027
 4461TIP3   OH234873   4.913   4.785  14.068  0.6182 -0.5158  0.0296
 4461TIP3    H134874   4.853   4.766  13.996 -1.9282  2.7291  1.0529
 4461TIP3    H234875   4.975   4.849  14.032 -1.5415  2.2505  0.8543
 4462TIP3   OH234876   4.174   3.633   4.625  0.0018  0.2049 -0.0118
 4462TIP3    H134877   4.096   3.654   4.677  0.9517 -0.2946  1.6982
 4462TIP3    H234878   4.235   3.595   4.688  1.7524  0.8600 -1.2395
 4463TIP3   OH234879   5.785   2.295   4.447 -0.0769  0.3385 -0.2912
 4463TIP3    H134880   5.716   2.357   4.422 -0.1663  1.5821  2.6323
 4463TIP3    H234881   5.766   2.274   4.538  1.4328 -2.1067 -0.4561
 4464TIP3   OH234882   2.541   2.569   0.538  0.6013  0.5792  0.2133
 4464TIP3    H134883   2.553   2.482   0.578 -1.6078  0.6187  1.0840
 4464TIP3    H234884   2.507   2.550   0.451 -1.1027  0.5144  0.8460
 4465TIP3   OH234885   3.167   0.774   2.584 -0.2638  0.3001  0.3385
 4465TIP3    H134886   3.213   0.802   2.664 -1.5583 -0.4118  1.3769
 4465TIP3    H234887   3.221   0.704   2.548 -0.0946  0.0450  1.0721
 4466TIP3   OH234888   0.442   6.800   4.394  0.5351  0.2843  0.8842
 4466TIP3    H134889   0.500   6.727   4.372 -0.2969  0.0337 -0.5919
 4466TIP3    H234890   0.462   6.867   4.329 -1.8920 -0.4169 -0.7332
 4467TIP3   OH234891   2.713   4.892   3.265 -0.4005  0.0791 -0.5276
 4467TIP3    H134892   2.766   4.904   3.187 -1.0274 -0.5085 -1.0601
 4467TIP3    H234893   2.627   4.925   3.242 -1.0662 -1.6411 -0.7011
 4468TIP3   OH234894   4.060   0.582   2.093 -0.4751 -0.0326 -0.1191
 4468TIP3    H134895   4.112   0.662   2.088  0.5807 -0.6503  0.5237
 4468TIP3    H234896   4.089   0.539   2.174 -0.1426 -1.6544 -1.0419
 4469TIP3   OH234897   6.598   2.655  16.477 -0.4489 -0.2282 -0.8257
 4469TIP3    H134898   6.651   2.726  16.511  0.9441 -0.7066 -1.8811
 4469TIP3    H234899   6.635   2.636  16.391 -0.5780 -2.4060 -0.4762
 4470TIP3   OH234900   3.496   0.563   4.227 -0.3013  0.4441  0.1764
 4470TIP3    H134901   3.557   0.545   4.299 -0.0985  0.1110 -0.0776
 4470TIP3    H234902   3.458   0.478   4.207 -1.5251  0.7899  0.9369
 4471TIP3   OH234903   3.003   4.885  13.495  0.1067  0.0223  0.1353
 4471TIP3    H134904   2.983   4.932  13.415  0.4211  2.2802  1.3098
 4471TIP3    H234905   3.034   4.952  13.556  0.5832 -1.7119  1.9222
 4472TIP3   OH234906   0.738   4.437  11.317  0.0017 -0.3776  0.3235
 4472TIP3    H134907   0.736   4.342  11.326 -0.4693 -0.4536 -0.4849
 4472TIP3    H234908   0.831   4.459  11.325  0.0331 -0.8220  1.2534
 4473TIP3   OH234909   1.365   4.222   1.358  0.6470  0.2935 -0.0414
 4473TIP3    H134910   1.313   4.295   1.391  0.5005  0.1525  0.0404
 4473TIP3    H234911   1.316   4.144   1.383  0.9764  0.1540  0.1754
 4474TIP3   OH234912   2.726   4.784   0.895  0.5742  0.0612  0.7851
 4474TIP3    H134913   2.716   4.875   0.868  1.0289  0.7134  2.6531
 4474TIP3    H234914   2.724   4.734   0.813 -0.9859  1.6098 -0.1985
 4475TIP3   OH234915   0.918   6.763  15.085 -0.3455 -0.2566 -0.5943
 4475TIP3    H134916   0.860   6.687  15.087  1.3154 -1.5660 -0.4375
 4475TIP3    H234917   0.899   6.806  15.002 -0.5584 -1.4504 -1.1739
 4476TIP3   OH234918   3.099   6.629  13.812 -0.2040  0.2354  0.8413
 4476TIP3    H134919   3.191   6.650  13.828  0.0822  0.2629 -0.7490
 4476TIP3    H234920   3.056   6.643  13.897  1.3734 -0.4787  1.7883
 4477TIP3   OH234921   3.539   4.997  15.578 -0.2556  0.0993  0.2758
 4477TIP3    H134922   3.578   5.055  15.644  0.3309 -0.2225  0.2240
 4477TIP3    H234923   3.459   5.041  15.551 -0.9854 -0.2120  1.8612
 4478TIP3   OH234924   0.214   0.538  12.427 -0.3969 -0.5004 -0.0725
 4478TIP3    H134925   0.291   0.513  12.477  0.3659  1.6717 -0.0485
 4478TIP3    H234926   0.189   0.624  12.461 -1.2076  0.0435 -1.8731
 4479TIP3   OH234927   4.784   5.180  16.268 -0.3880 -0.4492 -0.5084
 4479TIP3    H134928   4.833   5.118  16.213 -1.2872 -2.1363  0.5007
 4479TIP3    H234929   4.842   5.197  16.342 -0.2398 -0.2744 -0.6636
 4480TIP3   OH234930   5.692   0.746  11.375  0.2504 -0.3342  0.1969
 4480TIP3    H134931   5.685   0.745  11.470  0.6914 -0.4434  0.2307
 4480TIP3    H234932   5.786   0.749  11.358  0.1637  0.2295 -0.2328
 4481TIP3   OH234933   5.676   2.608  16.698 -0.5070  0.0359  0.7129
 4481TIP3    H134934   5.717   2.583  16.781 -0.2144  0.5388  0.7223
 4481TIP3    H234935   5.737   2.671  16.659 -0.2931 -0.7390 -0.2234
 4482TIP3   OH234936   5.149   1.730  10.947  0.0999  0.3543 -0.2633
 4482TIP3    H134937   5.089   1.796  10.984 -0.3158  0.8216 -1.6941
 4482TIP3    H234938   5.197   1.777  10.879 -0.7666 -0.9631 -1.8786
 4483TIP3   OH234939   3.329   4.573   2.642  0.0592  0.4158  1.2021
 4483TIP3    H134940   3.238   4.544   2.636 -0.0366  0.8350  0.3093
 4483TIP3    H234941   3.381   4.496   2.619 -0.1451  0.5786  0.1143
 4484TIP3   OH234942   2.757   1.844   0.294  0.4946 -0.2251 -0.0525
 4484TIP3    H134943   2.672   1.887   0.304  0.4105 -0.7513  1.8783
 4484TIP3    H234944   2.819   1.916   0.286  0.1122  0.2232  0.8671
 4485TIP3   OH234945   0.701   3.796   6.030  0.1458 -0.8059  0.6914
 4485TIP3    H134946   0.626   3.748   6.066  0.1261 -0.6986  0.7928
 4485TIP3    H234947   0.748   3.828   6.106  0.5751 -1.3012  0.6386
 4486TIP3   OH234948   1.749   0.567  15.255 -0.0751  0.0378 -0.1155
 4486TIP3    H134949   1.696   0.494  15.286  0.2398 -0.5604 -0.9600
 4486TIP3    H234950   1.706   0.597  15.176  1.1105 -0.8100 -1.1251
 4487TIP3   OH234951   3.736   0.649  15.865 -0.8675  0.8680  0.1327
 4487TIP3    H134952   3.786   0.649  15.946 -0.2359 -4.2552  0.0928
 4487TIP3    H234953   3.646   0.627  15.892 -0.4338 -1.9680 -0.4481
 4488TIP3   OH234954   1.112   2.611  11.421 -0.6925 -0.2778  0.5125
 4488TIP3    H134955   1.177   2.573  11.480 -0.4546 -0.1047  0.3615
 4488TIP3    H234956   1.098   2.699  11.455 -2.1735 -0.8861  1.6251
 4489TIP3   OH234957   3.276   2.177  11.364 -0.7870 -0.4227 -0.1937
 4489TIP3    H134958   3.194   2.222  11.342  0.4998  1.4317 -1.5112
 4489TIP3    H234959   3.320   2.165  11.279  0.9295 -0.0732  0.6068
 4490TIP3   OH234960   2.591   6.496  12.335 -0.1549 -0.3632  0.7506
 4490TIP3    H134961   2.621   6.407  12.355  0.1127 -0.2258  0.9663
 4490TIP3    H234962   2.626   6.550  12.406  0.6147  0.0984  0.0297
 4491TIP3   OH234963   0.191   6.252  12.571 -0.0451 -0.9941  0.1252
 4491TIP3    H134964   0.244   6.262  12.651  1.7108  1.7713 -1.2192
 4491TIP3    H234965   0.118   6.312  12.583  1.5177  1.3046 -1.2141
 4492TIP3   OH234966   5.363   2.535  12.763 -0.6241  0.3593  0.1362
 4492TIP3    H134967   5.372   2.493  12.677 -0.4076  0.5804  0.0472
 4492TIP3    H234968   5.379   2.465  12.826  0.9895  0.5502 -0.0080
 4493TIP3   OH234969   5.583   3.767   5.288 -0.5567  0.4539 -0.1963
 4493TIP3    H134970   5.590   3.673   5.268  0.8624  0.1194  1.6257
 4493TIP3    H234971   5.601   3.810   5.205 -2.6336 -0.8636 -1.4217
 4494TIP3   OH234972   5.610   0.794  16.409 -0.2274  0.0987 -0.1556
 4494TIP3    H134973   5.661   0.794  16.490  1.3798 -0.5999 -1.1401
 4494TIP3    H234974   5.564   0.710  16.410 -1.3683  0.6964  0.6929
 4495TIP3   OH234975   2.423   1.062   3.787  0.4185 -0.2029 -0.5203
 4495TIP3    H134976   2.401   1.103   3.870 -0.7504  1.2186 -1.4824
 4495TIP3    H234977   2.509   1.022   3.801  0.4472  0.4259  1.2010
 4496TIP3   OH234978   2.578   1.277   3.076 -0.7332 -0.1609 -0.5640
 4496TIP3    H134979   2.647   1.342   3.063 -0.1468 -0.6439  0.0961
 4496TIP3    H234980   2.518   1.291   3.003 -0.5012  0.9817 -0.5533
 4497TIP3   OH234981   3.034   4.462   0.449  0.3208 -0.1954  0.4566
 4497TIP3    H134982   2.942   4.439   0.461 -0.5438  2.5752 -0.0728
 4497TIP3    H234983   3.072   4.388   0.401 -1.2506 -2.0026  1.8678
 4498TIP3   OH234984   5.792   5.614   0.866  0.0641 -0.8183 -0.1107
 4498TIP3    H134985   5.849   5.608   0.790 -0.1461 -2.1970 -0.1947
 4498TIP3    H234986   5.757   5.525   0.877 -1.2888 -0.2428  0.5344
 4499TIP3   OH234987   3.591   1.944  13.613 -0.2892  0.3012  0.4073
 4499TIP3    H134988   3.558   1.858  13.588 -0.4142  0.7771 -1.1801
 4499TIP3    H234989   3.545   2.005  13.555  0.7979  1.3033  0.5626
 4500TIP3   OH234990   4.159   5.886  14.113  0.5556 -0.3542  0.0449
 4500TIP3    H134991   4.213   5.807  14.111  1.5888  0.3384 -0.9761
 4500TIP3    H234992   4.099   5.876  14.039  0.3853 -0.3909  0.1891
 4501TIP3   OH234993   3.824   4.256   3.979  0.3458  0.2281 -0.2093
 4501TIP3    H134994   3.918   4.273   3.971  0.7834 -1.6043  0.5745
 4501TIP3    H234995   3.796   4.238   3.889  0.8012  0.4905 -0.4096
 4502TIP3   OH234996   4.437   2.143  11.754 -0.0111  0.2809  0.0748
 4502TIP3    H134997   4.435   2.080  11.826 -0.4883 -0.3958 -0.5130
 4502TIP3    H234998   4.441   2.088  11.675 -3.6204  0.7783 -0.6561
 4503TIP3   OH234999   2.368   3.940  11.846  0.2164 -0.2320 -0.9639
 4503TIP3    H135000   2.286   3.970  11.885  0.5767  2.1468 -1.8586
 4503TIP3    H235001   2.398   3.869  11.904 -1.7462 -0.2347  0.1446
 4504TIP3   OH235002   6.456   6.143   1.711  0.1783  0.1288  0.0760
 4504TIP3    H135003   6.453   6.062   1.763 -0.3308 -0.1741 -0.4113
 4504TIP3    H235004   6.425   6.116   1.625 -0.7173  1.0124  0.1139
 4505TIP3   OH235005   4.799   4.026   3.276  0.0461  0.4375 -0.1398
 4505TIP3    H135006   4.876   4.033   3.220 -0.0931  0.2784 -0.3517
 4505TIP3    H235007   4.831   3.986   3.356  0.1171  0.0454 -0.3630
 4506TIP3   OH235008   6.825   4.001   3.780  0.0364 -0.6390  0.2510
 4506TIP3    H135009   6.833   4.091   3.812  1.9627 -1.5319  2.5801
 4506TIP3    H235010   6.886   3.996   3.706 -1.6822  0.4700 -1.3153
 4507TIP3   OH235011   4.898   3.481   0.244  0.4941 -0.1829 -0.1544
 4507TIP3    H135012   4.950   3.466   0.165 -0.7746  1.2324 -1.3412
 4507TIP3    H235013   4.861   3.568   0.231 -0.5369 -0.3279  1.5687
 4508TIP3   OH235014   4.023   5.913   2.513  0.5943 -0.6317  0.5659
 4508TIP3    H135015   4.118   5.921   2.506  0.4736 -0.6616 -1.9221
 4508TIP3    H235016   3.991   6.003   2.514  0.6189 -0.6221  0.5290
 4509TIP3   OH235017   2.740   3.102   2.412 -0.5325 -0.1484 -0.1345
 4509TIP3    H135018   2.825   3.061   2.394 -0.0769  1.0704 -0.8434
 4509TIP3    H235019   2.757   3.196   2.407 -1.4365  0.1819  2.0014
 4510TIP3   OH235020   6.664   3.034   2.250 -0.0129 -0.2854  0.5402
 4510TIP3    H135021   6.601   2.973   2.213  1.5668 -1.9914  0.5325
 4510TIP3    H235022   6.662   3.017   2.344  0.3489 -0.2799  0.5521
 4511TIP3   OH235023   4.306   3.345   5.126 -0.3269  0.2623  0.0260
 4511TIP3    H135024   4.332   3.268   5.176 -0.6410  0.0501 -0.1361
 4511TIP3    H235025   4.350   3.335   5.041  1.7456  1.5546  0.8714
 4512TIP3   OH235026   1.860   5.091   2.197  0.1356  0.2005  0.4165
 4512TIP3    H135027   1.837   5.031   2.268 -1.3073  1.0471  0.7156
 4512TIP3    H235028   1.781   5.095   2.143  1.4768 -1.1140 -1.7947
 4513TIP3   OH235029   0.873   6.390  12.054 -0.3583 -0.0864  0.3521
 4513TIP3    H135030   0.804   6.328  12.077  0.4005 -0.6016  1.2888
 4513TIP3    H235031   0.902   6.362  11.967 -1.5939  0.3961 -0.2504
 4514TIP3   OH235032   2.040   3.969   0.991  0.0358 -0.9143 -0.0370
 4514TIP3    H135033   2.072   4.048   0.949 -0.1564 -1.1784 -0.6976
 4514TIP3    H235034   2.109   3.904   0.977 -0.2990 -1.1801 -0.5175
 4515TIP3   OH235035   5.653   6.201   2.894 -0.4699  0.5954 -0.1535
 4515TIP3    H135036   5.580   6.203   2.833 -0.4874 -6.5816 -1.2605
 4515TIP3    H235037   5.729   6.177   2.840  1.1716  1.0590  1.8133
 4516TIP3   OH235038   5.163   5.648   0.115  0.0133  0.3243  0.0302
 4516TIP3    H135039   5.174   5.639   0.209 -2.1555  0.2484  0.3320
 4516TIP3    H235040   5.142   5.741   0.102  0.3021  0.3344 -0.3705
 4517TIP3   OH235041   5.315   4.878   6.547 -0.4133 -0.4314 -0.4841
 4517TIP3    H135042   5.308   4.894   6.642  1.7114  2.0325 -0.6362
 4517TIP3    H235043   5.227   4.894   6.514 -0.8597  0.1659  0.9013
 4518TIP3   OH235044   4.919   2.498   4.433  0.0478 -0.4822 -0.3704
 4518TIP3    H135045   4.857   2.568   4.453  0.3629  0.3472 -2.1401
 4518TIP3    H235046   4.948   2.516   4.344  1.6839 -1.7269 -0.1390
 4519TIP3   OH235047   0.679   6.338  15.367  0.0217  0.5579  0.9224
 4519TIP3    H135048   0.654   6.268  15.427 -0.9767  2.1144  2.4202
 4519TIP3    H235049   0.690   6.415  15.423 -1.8355  2.3091 -0.9639
 4520TIP3   OH235050   4.656   4.805   0.687 -0.4581 -0.4365  0.1967
 4520TIP3    H135051   4.708   4.885   0.690 -1.5859  0.3505 -0.3140
 4520TIP3    H235052   4.616   4.800   0.775  1.4401 -1.7481  1.0377
 4521TIP3   OH235053   0.849   0.213   4.498 -0.2656 -0.1574 -0.0763
 4521TIP3    H135054   0.791   0.153   4.451  1.0420 -0.4995 -1.3678
 4521TIP3    H235055   0.901   0.156   4.555 -2.5026  0.3448  2.6972
 4522TIP3   OH235056   0.637   4.756  12.666  0.3159  0.1495 -0.2196
 4522TIP3    H135057   0.730   4.744  12.647  0.3643 -1.7581  0.9829
 4522TIP3    H235058   0.593   4.694  12.608  0.0280 -1.0637  1.2519
 4523TIP3   OH235059   0.761   5.510   5.554  0.0114 -0.2380 -0.0247
 4523TIP3    H135060   0.737   5.584   5.498  0.7699  0.5526  0.6561
 4523TIP3    H235061   0.849   5.487   5.526  1.2860  1.5449  2.1573
 4524TIP3   OH235062   6.041   2.935  11.396 -0.5936 -0.3111  0.1870
 4524TIP3    H135063   6.068   2.906  11.309 -1.2834  1.3580 -0.6339
 4524TIP3    H235064   6.123   2.955  11.441 -0.2688  1.0443 -0.9258
 4525TIP3   OH235065   5.325   4.942  14.510  0.0080 -0.3862 -0.2541
 4525TIP3    H135066   5.265   5.008  14.546  0.2611  0.4102 -1.2428
 4525TIP3    H235067   5.360   4.896  14.586 -0.0308  0.7526  0.4605
 4526TIP3   OH235068   1.749   4.427  14.321 -0.0732  0.4310  0.2310
 4526TIP3    H135069   1.830   4.405  14.276 -0.8537 -0.4620 -0.8116
 4526TIP3    H235070   1.767   4.408  14.413  1.6148  2.4676  0.4002
 4527TIP3   OH235071   3.055   2.875   3.144  0.2348 -0.1652  0.2412
 4527TIP3    H135072   2.988   2.940   3.120  0.2563 -0.7441 -1.5246
 4527TIP3    H235073   3.016   2.828   3.218  0.1157  1.6529  1.4230
 4528TIP3   OH235074   2.954   4.794   6.023 -0.3795 -0.3618 -0.2320
 4528TIP3    H135075   2.975   4.850   5.949 -0.1100 -0.1642 -0.0068
 4528TIP3    H235076   2.888   4.733   5.989 -0.2352 -0.2917 -0.6385
 4529TIP3   OH235077   2.088   0.304  12.935 -0.1234  0.3323  0.1361
 4529TIP3    H135078   2.153   0.277  12.871  0.3668  0.6778  0.4782
 4529TIP3    H235079   2.135   0.304  13.018 -1.1499 -1.8128  0.8191
 4530TIP3   OH235080   6.213   2.876  11.167 -0.1632 -0.5058  0.0894
 4530TIP3    H135081   6.294   2.832  11.141 -0.6295 -0.2293 -2.0083
 4530TIP3    H235082   6.158   2.874  11.089 -1.0638  1.8526  0.5698
 4531TIP3   OH235083   6.595   2.397  15.505 -0.0196 -0.0483  0.0302
 4531TIP3    H135084   6.507   2.419  15.535 -0.1860 -1.1862  0.4484
 4531TIP3    H235085   6.614   2.313  15.547  0.4871 -0.7790 -1.5911
 4532TIP3   OH235086   4.880   6.481  16.743 -0.3341  0.4178 -0.3079
 4532TIP3    H135087   4.874   6.396  16.699 -0.7292 -0.3692  1.1595
 4532TIP3    H235088   4.789   6.507  16.757 -0.3292 -0.5584  2.1301
 4533TIP3   OH235089   6.777   5.072  10.539 -0.6169  0.0690  0.1853
 4533TIP3    H135090   6.764   4.982  10.508 -0.6159  0.2444 -0.3305
 4533TIP3    H235091   6.690   5.111  10.535  0.0657  1.7121 -4.7235
 4534TIP3   OH235092   0.960   0.924  11.776 -0.5310 -0.1550  0.5997
 4534TIP3    H135093   1.000   0.987  11.835 -0.9048 -0.3988  1.1157
 4534TIP3    H235094   1.025   0.855  11.765  0.7257  1.2309 -1.5517
 4535TIP3   OH235095   2.941   3.108  10.815 -0.2336 -0.4690  0.1994
 4535TIP3    H135096   2.860   3.143  10.777 -0.4717 -1.3277 -0.1107
 4535TIP3    H235097   3.000   3.183  10.819 -1.1738  0.2617  0.8030
 4536TIP3   OH235098   4.645   5.397  16.025 -0.2356 -0.2436 -0.2734
 4536TIP3    H135099   4.711   5.422  16.090 -1.0141 -0.4668  0.6257
 4536TIP3    H235100   4.633   5.476  15.972  3.2027 -1.1130 -2.7305
 4537TIP3   OH235101   6.019   2.017  15.767 -0.2414  0.1944  0.3497
 4537TIP3    H135102   6.093   2.015  15.828 -1.0231  0.3420  1.3315
 4537TIP3    H235103   5.995   1.925  15.755  0.4206  0.1009 -0.4087
 4538TIP3   OH235104   1.728   2.036  15.218  0.1237  0.2990 -0.6148
 4538TIP3    H135105   1.722   2.079  15.303  0.5158  1.0512 -0.9585
 4538TIP3    H235106   1.821   2.042  15.195  0.1897 -0.7401 -0.6750
 4539TIP3   OH235107   5.428   6.402  12.000  0.1896 -0.3863 -0.3120
 4539TIP3    H135108   5.381   6.441  12.073  1.1475 -0.9838  0.6662
 4539TIP3    H235109   5.492   6.344  12.042  2.2501  0.8929 -1.5362
 4540TIP3   OH235110   4.523   1.335  11.330 -0.3196  0.1670 -0.7486
 4540TIP3    H135111   4.540   1.422  11.293  1.1463  0.5870  0.7890
 4540TIP3    H235112   4.470   1.291  11.263 -0.4473  1.9567 -1.9102
 4541TIP3   OH235113   1.840   2.118  14.313 -0.3376  0.3277 -0.2041
 4541TIP3    H135114   1.773   2.145  14.250 -0.0525  0.0051 -0.6486
 4541TIP3    H235115   1.799   2.047  14.363 -1.6494  2.4689  1.9808
 4542TIP3   OH235116   6.492   3.771   0.390 -0.3330 -0.1521  0.1605
 4542TIP3    H135117   6.514   3.702   0.328  0.1445  0.8777 -0.8599
 4542TIP3    H235118   6.466   3.845   0.335 -1.9058  0.1586  1.2373
 4543TIP3   OH235119   5.861   1.576  16.228  0.1210  0.5494  0.4424
 4543TIP3    H135120   5.872   1.513  16.298 -2.2612  0.2594  0.6498
 4543TIP3    H235121   5.901   1.656  16.261  2.9355 -0.7027  0.2865
 4544TIP3   OH235122   4.790   0.056   2.980  0.2918  0.6919 -0.1442
 4544TIP3    H135123   4.786   0.126   3.045  3.3398  1.0188 -0.1651
 4544TIP3    H235124   4.826   0.097   2.902  0.6686 -0.5824 -0.6728
 4545TIP3   OH235125   1.843   2.784  16.581  0.1631  0.0061 -0.5337
 4545TIP3    H135126   1.845   2.864  16.632  0.6604  0.2816 -0.9711
 4545TIP3    H235127   1.840   2.714  16.646  0.3141  0.3643 -0.1399
 4546TIP3   OH235128   0.479   6.211  15.154 -0.1812 -0.7532 -0.1335
 4546TIP3    H135129   0.445   6.143  15.098 -0.9563  0.4645 -1.1864
 4546TIP3    H235130   0.569   6.226  15.123 -0.4314 -0.4477 -0.7264
 4547TIP3   OH235131   1.720   0.060  13.676 -0.5161  0.0340  0.3054
 4547TIP3    H135132   1.747  -0.000  13.608 -1.9453 -0.6877  0.3415
 4547TIP3    H235133   1.753   0.022  13.757  1.5429  1.1056  0.0260
 4548TIP3   OH235134   0.482   4.883   5.566  0.0842  0.2285 -0.0768
 4548TIP3    H135135   0.500   4.848   5.654  0.1050 -0.1105 -0.2137
 4548TIP3    H235136   0.393   4.854   5.547 -0.1888  0.9152  0.1237
 4549TIP3   OH235137   0.832   5.438  11.746 -0.4831  0.2523  0.1579
 4549TIP3    H135138   0.758   5.410  11.799  1.3399 -1.3131  2.0547
 4549TIP3    H235139   0.794   5.458  11.661 -3.0292 -0.7351  0.9628
 4550TIP3   OH235140   1.741   3.841  13.280 -0.1898 -0.7582  0.6127
 4550TIP3    H135141   1.659   3.881  13.307 -0.0306 -0.3025  0.4383
 4550TIP3    H235142   1.761   3.777  13.348 -0.3306 -0.3741  1.0143
 4551TIP3   OH235143   6.153   1.161  13.881  0.1938  0.6767  0.0919
 4551TIP3    H135144   6.120   1.077  13.914 -1.3836  0.7232 -1.1907
 4551TIP3    H235145   6.230   1.180  13.935 -0.3866 -0.7669  1.5262
 4552TIP3   OH235146   0.621   3.374  14.247  0.0805  0.4190  0.2900
 4552TIP3    H135147   0.639   3.311  14.177  0.0569  1.5945 -0.8304
 4552TIP3    H235148   0.525   3.383  14.247 -0.2975 -2.2896  3.0167
 4553TIP3   OH235149   5.897   1.482   5.382 -0.2606 -0.5664  0.2353
 4553TIP3    H135150   5.984   1.523   5.382 -1.7476  2.9064 -0.0550
 4553TIP3    H235151   5.845   1.536   5.440 -2.5134 -1.9897 -0.3419
 4554TIP3   OH235152   1.753   3.682  13.492  0.3470  0.2073  0.6174
 4554TIP3    H135153   1.745   3.703  13.584 -0.5936  1.5684  0.2480
 4554TIP3    H235154   1.832   3.628  13.486  0.8760  0.7906  2.0873
 4555TIP3   OH235155   0.590   1.906  11.373 -0.1844  0.8145 -0.3237
 4555TIP3    H135156   0.565   1.998  11.367 -0.3693  0.7308 -0.8409
 4555TIP3    H235157   0.669   1.898  11.320  0.0062  0.7406 -0.0279
 4556TIP3   OH235158   3.194   1.309   3.314  0.3277  0.3930  0.1660
 4556TIP3    H135159   3.207   1.263   3.397 -1.2513  0.1902  0.3434
 4556TIP3    H235160   3.152   1.391   3.339  0.0210  0.4173 -0.4145
 4557TIP3   OH235161   2.575   1.300  15.465 -0.3828 -0.1882  0.4055
 4557TIP3    H135162   2.574   1.270  15.374 -0.6132  2.3702 -0.5196
 4557TIP3    H235163   2.647   1.252  15.505  0.3876 -0.6406 -1.4060
 4558TIP3   OH235164   5.878   2.931  14.811 -0.5142 -0.3242 -0.1389
 4558TIP3    H135165   5.920   2.868  14.752 -1.5744  0.1358 -1.4270
 4558TIP3    H235166   5.944   2.999  14.823 -0.2161 -0.5130 -0.6489
 4559TIP3   OH235167   0.260   3.479   2.796  0.2729  0.3488 -0.3115
 4559TIP3    H135168   0.244   3.446   2.708 -0.4151 -1.1013  0.3306
 4559TIP3    H235169   0.196   3.550   2.807 -0.7120 -0.4956 -0.4403
 4560TIP3   OH235170   6.039   5.577   6.072 -0.1806 -0.1145  0.0443
 4560TIP3    H135171   5.999   5.509   6.126  1.2250 -1.9747 -1.1279
 4560TIP3    H235172   5.997   5.659   6.100 -1.3089 -1.3330  2.1099
 4561TIP3   OH235173   4.235   1.564  16.761 -0.5979  0.4071 -0.0357
 4561TIP3    H135174   4.300   1.591  16.825 -1.3060  0.5479  0.6335
 4561TIP3    H235175   4.260   1.474  16.739 -0.9644 -0.0227  1.2430
 4562TIP3   OH235176   2.548   1.860   4.233 -1.2357 -0.5389  0.6976
 4562TIP3    H135177   2.505   1.921   4.173 -2.1590 -2.6939 -0.9709
 4562TIP3    H235178   2.521   1.889   4.320 -0.7767  2.0161  0.0639
 4563TIP3   OH235179   1.506   1.846  14.010  0.2378 -0.2982  0.3489
 4563TIP3    H135180   1.478   1.937  13.994 -1.4206 -0.6072  1.2578
 4563TIP3    H235181   1.516   1.809  13.922 -1.4092  0.1284 -0.0660
 4564TIP3   OH235182   4.565   1.175  13.607 -0.2611  0.2418  0.1922
 4564TIP3    H135183   4.657   1.197  13.598 -0.2752  0.5931  0.8738
 4564TIP3    H235184   4.559   1.085  13.576 -0.0766  0.8981 -1.9573
 4565TIP3   OH235185   6.602   5.238   6.535 -0.2649 -0.1040  0.6342
 4565TIP3    H135186   6.541   5.242   6.608  1.8843 -1.4040  2.6001
 4565TIP3    H235187   6.667   5.173   6.560  0.3046 -1.0247 -2.6980
 4566TIP3   OH235188   5.140   6.680   5.878 -0.1304  0.3711 -0.6072
 4566TIP3    H135189   5.179   6.717   5.957 -0.3441 -0.7749  0.0599
 4566TIP3    H235190   5.181   6.728   5.806  1.7582 -0.0883  0.0995
 4567TIP3   OH235191   0.447   0.702  15.133 -0.1050 -0.4402 -0.3706
 4567TIP3    H135192   0.362   0.725  15.171  0.5320  0.0093  0.8565
 4567TIP3    H235193   0.479   0.784  15.095 -0.6593 -0.8485 -1.7541
 4568TIP3   OH235194   5.249   5.158   4.156 -0.4963  0.1761 -0.2226
 4568TIP3    H135195   5.237   5.154   4.251 -1.2930  1.0647 -0.2667
 4568TIP3    H235196   5.331   5.205   4.144  0.5255 -1.4661  0.0290
 4569TIP3   OH235197   2.859   3.543   2.061  0.1398 -0.6074 -0.6224
 4569TIP3    H135198   2.814   3.533   1.978  2.8928 -2.5568 -2.0302
 4569TIP3    H235199   2.847   3.460   2.106  0.7634 -0.4740 -0.1943
 4570TIP3   OH235200   1.709   0.403   4.374  0.3774  0.2610  0.2632
 4570TIP3    H135201   1.783   0.442   4.328  1.1698 -1.1091  0.3568
 4570TIP3    H235202   1.689   0.465   4.444  0.3675  1.4353 -0.7291
 4571TIP3   OH235203   2.210   2.184   2.972  0.3815  0.3013  0.2116
 4571TIP3    H135204   2.251   2.249   2.914  0.9596 -0.7914 -0.6405
 4571TIP3    H235205   2.151   2.135   2.915 -0.3049  0.2971  0.9234
 4572TIP3   OH235206   6.369   6.796  13.887 -0.3397 -0.1310 -0.3580
 4572TIP3    H135207   6.279   6.809  13.857 -0.7658 -2.0270 -0.0578
 4572TIP3    H235208   6.371   6.839  13.973 -1.3123 -1.0038  0.1291
 4573TIP3   OH235209   2.118   1.545   3.350  0.1229  0.0215  0.0805
 4573TIP3    H135210   2.135   1.495   3.271 -0.2408 -0.4773  0.3124
 4573TIP3    H235211   2.102   1.479   3.418 -0.7066  0.4372  0.3117
 4574TIP3   OH235212   3.735   5.369  14.153  0.8921 -0.9314 -0.6258
 4574TIP3    H135213   3.705   5.370  14.244  2.0185  1.4729 -0.2058
 4574TIP3    H235214   3.830   5.363  14.159  1.0916  0.7317 -1.5419
 4575TIP3   OH235215   3.923   5.225  15.616  0.4144 -0.4107 -0.6511
 4575TIP3    H135216   3.998   5.199  15.669  0.5376  0.8583 -0.1834
 4575TIP3    H235217   3.847   5.214  15.673  0.1537 -2.0733 -1.2464
 4576TIP3   OH235218   2.844   2.830   3.365 -0.1174 -0.1718 -0.5053
 4576TIP3    H135219   2.782   2.782   3.419 -0.6525  1.0545  0.0056
 4576TIP3    H235220   2.800   2.838   3.280 -0.4986  0.3614 -0.2601
 4577TIP3   OH235221   0.339   2.105   5.446  0.0434  0.0760 -0.0934
 4577TIP3    H135222   0.268   2.130   5.387 -0.7657  0.9447  1.2164
 4577TIP3    H235223   0.330   2.163   5.521  0.5402 -1.5227  1.2712
 4578TIP3   OH235224   1.477   4.911   1.715  0.0724 -0.0583  0.3001
 4578TIP3    H135225   1.514   4.897   1.803  0.1161 -0.5356  0.2097
 4578TIP3    H235226   1.382   4.908   1.728  0.0388  1.6135  0.6041
 4579TIP3   OH235227   2.961   5.221  13.043 -0.5829 -0.5041 -0.1787
 4579TIP3    H135228   2.900   5.295  13.046 -0.3197 -0.3154  1.0844
 4579TIP3    H235229   2.998   5.224  12.955 -2.5173 -0.7385 -1.0485
 4580TIP3   OH235230   2.201   3.472  14.931 -0.4569 -0.1174 -0.0031
 4580TIP3    H135231   2.283   3.505  14.895 -0.3796 -0.7854 -0.4496
 4580TIP3    H235232   2.150   3.444  14.855 -1.2501  0.6023  0.2369
 4581TIP3   OH235233   2.491   5.909  11.720  0.4423 -0.4115  0.3915
 4581TIP3    H135234   2.489   5.818  11.693  0.7531  0.0004 -1.1038
 4581TIP3    H235235   2.486   5.959  11.638  0.4829  0.9121  1.1597
 4582TIP3   OH235236   6.258   3.910   1.857 -0.0152  0.0952  0.1055
 4582TIP3    H135237   6.246   3.921   1.952 -0.1014  0.5083  0.0467
 4582TIP3    H235238   6.323   3.840   1.849 -0.1989 -0.1220  0.4654
 4583TIP3   OH235239   5.099   1.704   6.038 -0.1782  0.3318 -0.1016
 4583TIP3    H135240   5.145   1.752   6.108 -0.7057 -0.9411  1.1748
 4583TIP3    H235241   5.156   1.714   5.962  0.4698  1.6978  0.5115
 4584TIP3   OH235242   3.214   2.474   1.137 -0.4443 -0.2017 -0.7842
 4584TIP3    H135243   3.231   2.472   1.232 -1.7263  0.6356 -0.5194
 4584TIP3    H235244   3.259   2.553   1.107  0.4231 -0.7594 -0.9829
 4585TIP3   OH235245   3.858   3.401   5.370  0.1797  0.3279  0.0535
 4585TIP3    H135246   3.793   3.452   5.420  0.9234 -0.0909  1.5107
 4585TIP3    H235247   3.830   3.310   5.382 -1.0374  0.3093 -2.3840
 4586TIP3   OH235248   1.138   4.207  15.023 -0.2388  0.2339  0.2108
 4586TIP3    H135249   1.133   4.288  15.075 -1.6191 -0.0375  0.5341
 4586TIP3    H235250   1.047   4.176  15.017  0.4260 -2.4466  1.9487
 4587TIP3   OH235251   0.456   6.484   2.128  0.4722 -0.6320 -0.5281
 4587TIP3    H135252   0.486   6.397   2.154  1.0063 -0.5735 -0.9213
 4587TIP3    H235253   0.511   6.506   2.052 -0.9861 -0.7796 -1.6674
 4588TIP3   OH235254   1.604   2.797   1.950  0.2306  0.1339 -0.1759
 4588TIP3    H135255   1.642   2.710   1.956  1.0903  0.3957 -1.3941
 4588TIP3    H235256   1.591   2.812   1.856 -0.2129  1.1912  0.0273
 4589TIP3   OH235257   4.947   1.055   0.509  0.8508 -0.2632 -0.0932
 4589TIP3    H135258   5.017   1.001   0.472  1.3447  0.2443  0.0938
 4589TIP3    H235259   4.871   0.997   0.510  1.5495 -1.2110  0.8097
 4590TIP3   OH235260   0.279   3.550  15.952 -0.0921 -0.2621  0.1121
 4590TIP3    H135261   0.191   3.543  15.990  0.3727 -0.5078  1.1978
 4590TIP3    H235262   0.296   3.462  15.917 -0.2866 -0.2078 -0.1206
 4591TIP3   OH235263   1.233   1.700  12.464 -0.4500  0.1422 -0.0367
 4591TIP3    H135264   1.252   1.643  12.389  0.7993 -0.4212  0.6866
 4591TIP3    H235265   1.257   1.788  12.433 -0.2295 -0.0421 -0.4024
 4592TIP3   OH235266   6.442   5.521   0.333 -0.5315 -0.0916 -0.0401
 4592TIP3    H135267   6.395   5.604   0.324  0.3948  0.4062 -0.4203
 4592TIP3    H235268   6.390   5.459   0.281 -1.6927  0.0317  0.9338
 4593TIP3   OH235269   5.239   0.080   4.272  0.3450  0.2778  0.6314
 4593TIP3    H135270   5.202   0.168   4.273 -0.5061 -0.0593 -0.1416
 4593TIP3    H235271   5.189   0.033   4.206  1.5472 -0.4641  0.2072
 4594TIP3   OH235272   5.252   6.570  12.148 -0.6022  0.1139 -0.2768
 4594TIP3    H135273   5.174   6.601  12.193 -0.3123  0.8625 -0.2742
 4594TIP3    H235274   5.310   6.646  12.146  0.7570 -0.8195  1.0968
 4595TIP3   OH235275   0.195   6.776  16.177  0.0201  0.8033 -0.0514
 4595TIP3    H135276   0.103   6.764  16.199 -0.5496  0.1821 -2.5149
 4595TIP3    H235277   0.203   6.743  16.087  2.5254  1.3599 -0.0984
 4596TIP3   OH235278   2.231   4.985  17.131  0.3448  0.0862 -0.0374
 4596TIP3    H135279   2.219   5.022  17.219 -1.0606 -0.1045 -0.1348
 4596TIP3    H235280   2.225   5.061  17.072 -0.1432  0.0274 -0.0661
 4597TIP3   OH235281   5.722   1.887   2.619 -0.4488  0.2763 -0.1740
 4597TIP3    H135282   5.791   1.952   2.608  0.8829 -1.1488 -0.6000
 4597TIP3    H235283   5.768   1.804   2.633 -2.0680 -0.2564  2.8301
 4598TIP3   OH235284   4.931   1.818  10.642  0.4570  0.5141 -0.6343
 4598TIP3    H135285   4.860   1.754  10.642 -0.2943  1.2858  1.3778
 4598TIP3    H235286   5.007   1.768  10.611 -0.6496 -0.6656 -1.5708
 4599TIP3   OH235287   1.622   3.832   2.562 -0.7650  0.6611 -0.0920
 4599TIP3    H135288   1.550   3.861   2.618 -0.9661  1.1116 -0.5726
 4599TIP3    H235289   1.693   3.810   2.622 -0.9879  1.1124  0.3390
 4600TIP3   OH235290   0.696   1.542  15.484  0.5055 -0.5369 -0.6871
 4600TIP3    H135291   0.702   1.450  15.508 -0.5568 -0.6288 -0.7302
 4600TIP3    H235292   0.787   1.571  15.477  0.8992 -0.9164  1.8255
 4601TIP3   OH235293   5.207   3.402  13.446  0.9335 -0.6276 -0.1368
 4601TIP3    H135294   5.256   3.475  13.408  0.6344 -0.5931 -0.4590
 4601TIP3    H235295   5.136   3.386  13.384 -1.5353  1.5138  1.8749
 4602TIP3   OH235296   3.965   4.591   1.836 -0.3008  0.0194 -0.1900
 4602TIP3    H135297   3.882   4.543   1.835 -0.1088 -0.3067 -1.5254
 4602TIP3    H235298   3.991   4.591   1.928 -2.4252  1.2436  0.5013
 4603TIP3   OH235299   2.600   3.029   1.444 -0.1562 -0.2359 -0.3809
 4603TIP3    H135300   2.630   2.988   1.525  0.2264 -1.3744 -1.0727
 4603TIP3    H235301   2.576   3.118   1.470 -0.8707 -0.8317  1.1469
 4604TIP3   OH235302   5.409   0.096   3.910  0.5283 -0.6343  0.2179
 4604TIP3    H135303   5.402   0.175   3.963  3.4940 -0.5283  0.6485
 4604TIP3    H235304   5.461   0.036   3.964 -1.2647 -2.7847 -0.2632
 4605TIP3   OH235305   1.406   2.055   5.147  0.2786 -0.5545 -0.0015
 4605TIP3    H135306   1.454   1.978   5.117  0.7432 -0.0162 -0.6452
 4605TIP3    H235307   1.465   2.097   5.209  1.0354  0.5988 -1.4629
 4606TIP3   OH235308   5.371   1.816  14.198  0.1966  0.3773 -0.3308
 4606TIP3    H135309   5.309   1.868  14.250 -0.4499 -0.9057  0.2338
 4606TIP3    H235310   5.315   1.763  14.141  0.7705 -0.6420  0.0354
 4607TIP3   OH235311   1.916   5.946  12.219 -0.0907  0.5001 -0.7367
 4607TIP3    H135312   1.829   5.950  12.256  0.3459  0.3537  0.3238
 4607TIP3    H235313   1.967   6.011  12.268  0.6927 -0.2593 -0.5179
 4608TIP3   OH235314   2.310   6.547   2.410 -0.3828  0.2230  0.8528
 4608TIP3    H135315   2.355   6.498   2.479 -0.1664 -2.9697 -1.3105
 4608TIP3    H235316   2.226   6.502   2.399 -0.6713  1.0349 -0.5320
 4609TIP3   OH235317   6.242   3.247  15.312  0.2589  0.2091 -0.4932
 4609TIP3    H135318   6.332   3.257  15.343  1.2576 -1.7191 -2.5037
 4609TIP3    H235319   6.212   3.166  15.351 -0.2689  0.3581 -0.5795
 4610TIP3   OH235320   3.166   6.476   1.411  0.1577  0.2385 -0.3999
 4610TIP3    H135321   3.243   6.532   1.396 -0.1203  0.7220 -0.0235
 4610TIP3    H235322   3.093   6.527   1.378  0.0040 -0.2706 -0.8634
 4611TIP3   OH235323   3.196   3.437  15.282 -0.1403 -0.4431 -0.1477
 4611TIP3    H135324   3.273   3.493  15.275  0.3366 -1.1026 -0.2298
 4611TIP3    H235325   3.149   3.470  15.359  0.9246 -0.8804  0.7170
 4612TIP3   OH235326   0.985   4.500  11.600 -0.3287  0.0163 -0.8432
 4612TIP3    H135327   0.892   4.519  11.584 -0.5754  0.4577  0.9004
 4612TIP3    H235328   1.030   4.535  11.523 -1.7452 -2.0970 -2.7752
 4613TIP3   OH235329   5.520   2.538   3.947 -0.0081  0.3853  0.1843
 4613TIP3    H135330   5.554   2.502   4.029  0.5075  1.1068  0.2973
 4613TIP3    H235331   5.595   2.537   3.887 -0.4684 -0.4702 -0.4019
 4614TIP3   OH235332   0.133   5.579   1.751 -0.3845 -0.1457  0.2278
 4614TIP3    H135333   0.080   5.511   1.793  0.0815  0.1836  1.4090
 4614TIP3    H235334   0.201   5.531   1.705 -1.4191 -0.5547 -0.9346
 4615TIP3   OH235335   4.063   5.144  13.806  0.1092  0.3803  0.1709
 4615TIP3    H135336   4.033   5.075  13.746  0.7539  0.2161  0.0348
 4615TIP3    H235337   4.105   5.096  13.878  1.9224  0.6718 -0.6616
 4616TIP3   OH235338   0.126   3.284   2.260  0.2633 -0.0180  0.0060
 4616TIP3    H135339   0.075   3.358   2.293  1.1756 -0.5571  2.9250
 4616TIP3    H235340   0.210   3.323   2.234  0.3214  0.1275  0.4127
 4617TIP3   OH235341   0.551   0.718   2.419 -0.4538 -0.5550  0.5508
 4617TIP3    H135342   0.562   0.638   2.472  0.5619  0.1518  1.4415
 4617TIP3    H235343   0.539   0.788   2.483 -3.0983 -0.1985 -0.2525
 4618TIP3   OH235344   3.598   4.168   1.337 -0.1036 -0.3660  0.8405
 4618TIP3    H135345   3.624   4.255   1.306  2.9824 -1.1385  0.8535
 4618TIP3    H235346   3.625   4.108   1.267 -0.6652 -1.4357  1.5158
 4619TIP3   OH235347   5.211   4.675   1.671  0.3506 -0.0022  0.3627
 4619TIP3    H135348   5.218   4.590   1.715 -3.1444 -0.3464  0.5536
 4619TIP3    H235349   5.252   4.737   1.732  4.5230 -1.5603 -0.5272
 4620TIP3   OH235350   6.179   4.902   4.791  0.0258 -0.1586 -0.0711
 4620TIP3    H135351   6.136   4.883   4.875  2.3139  0.0269  1.2105
 4620TIP3    H235352   6.136   4.982   4.760 -0.8396 -0.2067  0.9375
 4621TIP3   OH235353   2.875   6.639   4.029  0.1185 -0.2799  0.0799
 4621TIP3    H135354   2.872   6.652   3.934  0.3477 -1.3790 -0.0811
 4621TIP3    H235355   2.878   6.728   4.064  0.6647  0.1334 -0.9640
 4622TIP3   OH235356   4.856   2.129  12.429  0.4108  0.6599  0.6742
 4622TIP3    H135357   4.833   2.182  12.505 -0.3522 -0.1652  1.0321
 4622TIP3    H235358   4.930   2.076  12.457  1.6775  2.0550  0.0739
 4623TIP3   OH235359   0.925   1.325   1.223 -0.0072 -0.0279 -0.0470
 4623TIP3    H135360   0.881   1.408   1.205  1.7815  1.2592  1.2729
 4623TIP3    H235361   0.892   1.298   1.308 -0.8405 -0.9113 -0.6167
 4624TIP3   OH235362   6.162   0.701   2.083  0.4415 -0.3144  0.4961
 4624TIP3    H135363   6.178   0.625   2.139  2.9097  0.1012  0.4750
 4624TIP3    H235364   6.067   0.709   2.080  0.0869 -3.2452  0.6944
 4625TIP3   OH235365   4.273   1.272  15.242 -0.7202  0.2161  0.4148
 4625TIP3    H135366   4.189   1.314  15.259 -0.4318  1.4912 -1.0640
 4625TIP3    H235367   4.331   1.307  15.309 -1.1571  0.0290  0.8917
 4626TIP3   OH235368   5.786   1.599   5.143  0.1701  0.3856  0.0491
 4626TIP3    H135369   5.843   1.576   5.217  0.1786 -2.4916 -0.7268
 4626TIP3    H235370   5.758   1.515   5.107 -1.0521  1.6883 -2.3147
 4627TIP3   OH235371   1.770   4.978   4.344  0.2178  0.2488  0.0742
 4627TIP3    H135372   1.855   4.968   4.386 -0.2779 -0.5330  0.9226
 4627TIP3    H235373   1.775   5.062   4.297  2.0741 -0.6079 -1.3703
 4628TIP3   OH235374   1.273   5.421   3.588  0.0474  0.0622 -0.7115
 4628TIP3    H135375   1.197   5.428   3.646 -0.4496 -0.5735 -1.2725
 4628TIP3    H235376   1.237   5.403   3.502  0.8662 -1.7239 -0.7317
 4629TIP3   OH235377   2.857   2.442   3.948  0.0968  0.3015  0.2459
 4629TIP3    H135378   2.844   2.524   3.899  0.4490  1.0401  1.3419
 4629TIP3    H235379   2.769   2.405   3.956 -0.1994  1.0258  0.4673
 4630TIP3   OH235380   1.900   1.979  16.663 -0.4860 -0.2785 -0.2535
 4630TIP3    H135381   1.874   1.944  16.748 -0.7644  1.9531  0.6656
 4630TIP3    H235382   1.818   1.993  16.616 -0.4475  0.0285 -0.2304
 4631TIP3   OH235383   2.043   6.263  16.825 -0.3954  0.0127 -0.2154
 4631TIP3    H135384   2.088   6.179  16.826 -1.0955 -0.3699 -0.1379
 4631TIP3    H235385   1.981   6.256  16.752  0.7507  1.1229 -1.3540
 4632TIP3   OH235386   0.620   4.981  13.944  0.1848  0.0289  0.3200
 4632TIP3    H135387   0.619   5.069  13.981  0.6802 -0.2624  1.0390
 4632TIP3    H235388   0.712   4.955  13.944  0.0065 -0.6301  0.4640
 4633TIP3   OH235389   2.585   2.105   0.460  0.4637 -0.5629 -0.2923
 4633TIP3    H135390   2.583   2.069   0.372  1.0191 -0.3403 -0.4012
 4633TIP3    H235391   2.494   2.099   0.491 -0.0745  0.8312 -1.4745
 4634TIP3   OH235392   5.619   2.436  13.356  0.1975  0.3541  0.2245
 4634TIP3    H135393   5.618   2.473  13.444  1.0757  1.1588 -0.0871
 4634TIP3    H235394   5.570   2.499  13.303  2.1147  1.4083 -0.4048
 4635TIP3   OH235395   3.979   3.862  17.185 -0.1402  0.5579 -0.6302
 4635TIP3    H135396   4.048   3.815  17.138 -0.2346  0.1259 -0.3411
 4635TIP3    H235397   3.987   3.952  17.155  0.2582  0.4227 -0.9419
 4636TIP3   OH235398   5.636   1.940  14.502  0.0682 -0.0879 -0.2872
 4636TIP3    H135399   5.577   1.865  14.507 -0.6187  0.4164 -0.6770
 4636TIP3    H235400   5.690   1.934  14.580  0.1588 -1.1013 -0.4176
 4637TIP3   OH235401   1.567   5.229   3.993  0.0366  0.1022  0.1520
 4637TIP3    H135402   1.597   5.314   4.023 -1.4668  0.1843  1.5694
 4637TIP3    H235403   1.480   5.218   4.033  0.3042 -2.2040  0.2735
 4638TIP3   OH235404   0.237   4.589   6.127 -0.2308  0.4512  0.5279
 4638TIP3    H135405   0.315   4.539   6.153  0.8645  2.2795  0.9130
 4638TIP3    H235406   0.178   4.581   6.202 -1.2819 -2.4385 -0.4485
 4639TIP3   OH235407   1.899   2.746  16.980 -0.2301 -0.0987 -0.1564
 4639TIP3    H135408   1.806   2.767  16.968 -0.6788 -1.6737  0.2615
 4639TIP3    H235409   1.910   2.663  16.934  1.4230  0.9159 -1.7150
 4640TIP3   OH235410   2.075   2.552   1.376 -0.0501  0.0258  0.0512
 4640TIP3    H135411   2.167   2.574   1.389  0.4310 -0.9535 -1.4655
 4640TIP3    H235412   2.040   2.622   1.320  0.0646 -0.1768 -0.2766
 4641TIP3   OH235413   1.390   0.813  15.121 -0.0078 -0.1017  0.2038
 4641TIP3    H135414   1.400   0.906  15.103  2.0347 -0.3106  0.0194
 4641TIP3    H235415   1.315   0.786  15.067 -1.6426  1.7034  1.4532
 4642TIP3   OH235416   0.585   3.128   0.044  0.0776  0.2257 -0.0689
 4642TIP3    H135417   0.638   3.150  -0.033 -1.8815  1.5361 -1.1209
 4642TIP3    H235418   0.629   3.051   0.082 -0.0025 -1.8525 -3.7104
 4643TIP3   OH235419   4.294   5.452   0.907 -0.7732  0.2512  0.3569
 4643TIP3    H135420   4.350   5.497   0.844 -0.8590 -0.4199 -0.2188
 4643TIP3    H235421   4.216   5.428   0.856 -1.5428  1.0770  1.1157
 4644TIP3   OH235422   4.048   4.343   1.627  0.0570  0.3238  0.3739
 4644TIP3    H135423   3.982   4.385   1.571 -0.9023 -2.5773 -0.8681
 4644TIP3    H235424   4.131   4.358   1.582  0.0101  2.2722  0.8702
 4645TIP3   OH235425   0.244   6.399   2.286  0.5516  0.1642  0.1454
 4645TIP3    H135426   0.335   6.415   2.262  0.4131 -1.4042 -1.6241
 4645TIP3    H235427   0.193   6.438   2.214 -0.0971 -0.3094  0.3360
 4646TIP3   OH235428   6.430   5.139  12.009 -0.2210  0.3801  0.1291
 4646TIP3    H135429   6.467   5.160  11.923  1.7253 -1.3890  0.4420
 4646TIP3    H235430   6.336   5.153  11.999  0.2971  4.5971 -0.9007
 4647TIP3   OH235431   1.943   5.953   3.459 -0.3343  0.1504  0.1779
 4647TIP3    H135432   1.928   5.874   3.408 -0.8151  0.5279 -0.2773
 4647TIP3    H235433   2.008   5.928   3.524 -1.3881 -0.9755  0.8421
 4648TIP3   OH235434   1.196   3.158   4.418  0.2788 -0.2003 -0.2129
 4648TIP3    H135435   1.215   3.073   4.379  0.3734 -0.7319  0.9494
 4648TIP3    H235436   1.125   3.140   4.479 -1.8010  1.1319 -2.0949
 4649TIP3   OH235437   0.846   3.095   1.912  0.3624 -0.3063 -0.4367
 4649TIP3    H135438   0.865   3.100   2.005  0.9248  0.2207 -0.5695
 4649TIP3    H235439   0.759   3.056   1.906  0.8814 -1.6159  0.2590
 4650TIP3   OH235440   5.180   6.503   5.648 -0.1472  0.1746  0.0803
 4650TIP3    H135441   5.146   6.575   5.702  0.2520  0.6511 -0.2987
 4650TIP3    H235442   5.185   6.539   5.560 -2.6366 -1.1865 -0.7009
 4651TIP3   OH235443   0.920   1.084   2.802  0.2008 -0.1962  1.0203
 4651TIP3    H135444   0.868   1.093   2.882 -0.4968  1.0454  0.4697
 4651TIP3    H235445   0.950   1.173   2.784  0.5119 -0.4942  0.0178
 4652TIP3   OH235446   0.968   3.037   4.106  0.0461 -0.2788  0.5651
 4652TIP3    H135447   1.001   3.124   4.129 -0.8097  0.1526  0.1781
 4652TIP3    H235448   1.007   3.019   4.021 -0.2216 -0.0343  0.3898
 4653TIP3   OH235449   1.325   1.383  10.678 -0.2969  0.2915 -0.3093
 4653TIP3    H135450   1.414   1.419  10.673 -0.3819  0.3699 -1.4736
 4653TIP3    H235451   1.322   1.317  10.609 -1.6514  1.4298 -1.3798
 4654TIP3   OH235452   4.834   5.096   2.282  0.1293 -0.8813 -0.1828
 4654TIP3    H135453   4.829   5.003   2.302 -1.3870 -0.5678  1.0580
 4654TIP3    H235454   4.824   5.140   2.366  2.6642  0.4351 -0.4498
 4655TIP3   OH235455   6.436   6.589   3.338  0.3730  0.4242  0.5510
 4655TIP3    H135456   6.450   6.537   3.418  0.6029 -1.2980 -0.5630
 4655TIP3    H235457   6.523   6.599   3.300  0.1694  0.5717  0.1179
 4656TIP3   OH235458   1.656   3.153  16.071 -0.2427 -0.1445 -0.0127
 4656TIP3    H135459   1.731   3.120  16.120 -0.1933  0.9858  0.7104
 4656TIP3    H235460   1.613   3.213  16.131 -0.8781  0.3497 -0.9384
 4657TIP3   OH235461   0.554   5.221  14.306  0.3372  0.4044  0.1589
 4657TIP3    H135462   0.581   5.271  14.383  0.8668  1.3503 -0.6073
 4657TIP3    H235463   0.624   5.158  14.292  0.2169  0.2003  0.4768
 4658TIP3   OH235464   1.622   0.718  13.098  0.5832 -0.2973  0.3048
 4658TIP3    H135465   1.716   0.711  13.113  0.4872  0.4458  1.2922
 4658TIP3    H235466   1.592   0.787  13.156 -0.6342 -0.7263  0.2321
 4659TIP3   OH235467   6.067   6.651  16.952 -0.1674 -0.0602  0.1342
 4659TIP3    H135468   6.052   6.739  16.918  0.9915  0.0039 -0.2517
 4659TIP3    H235469   6.126   6.610  16.888 -0.1205 -0.8668  0.6794
 4660TIP3   OH235470   2.515   0.146   2.827  0.2052 -0.6318 -0.0908
 4660TIP3    H135471   2.570   0.073   2.797 -0.5229 -1.2361  0.0142
 4660TIP3    H235472   2.453   0.160   2.756  0.5983  0.1665 -0.2822
 4661TIP3   OH235473   5.235   4.092  13.652  0.3610  0.0137  0.4960
 4661TIP3    H135474   5.190   4.139  13.722 -0.8791  0.8140 -0.7601
 4661TIP3    H235475   5.170   4.029  13.621  1.7537 -2.0735  1.6652
 4662TIP3   OH235476   3.934   5.935   4.522 -0.0469  0.1974 -0.0069
 4662TIP3    H135477   3.857   5.894   4.484 -0.9369  0.9246  0.9665
 4662TIP3    H235478   3.919   5.934   4.617 -0.0744  2.5952  0.0942
 4663TIP3   OH235479   1.689   4.349  12.119 -0.5695  0.4355  0.1306
 4663TIP3    H135480   1.623   4.287  12.151  0.5160  0.8893  3.7583
 4663TIP3    H235481   1.736   4.301  12.051 -1.9039 -1.4659  0.4648
 4664TIP3   OH235482   6.015   6.212   2.495  0.3548 -0.5959  0.3406
 4664TIP3    H135483   5.955   6.186   2.425  1.6355  2.2097 -2.0103
 4664TIP3    H235484   6.086   6.147   2.490  1.0292  0.2215 -1.9076
 4665TIP3   OH235485   0.004   6.127   4.411 -0.2820  0.5158 -0.6326
 4665TIP3    H135486   0.038   6.046   4.373 -0.1564  0.6008 -0.7049
 4665TIP3    H235487  -0.055   6.099   4.481  0.0643  0.3667 -0.4000
 4666TIP3   OH235488   4.715   1.424  13.667 -0.4138 -0.3776  1.0134
 4666TIP3    H135489   4.803   1.411  13.703 -0.2614 -0.0600  0.7632
 4666TIP3    H235490   4.696   1.517  13.683 -0.3779 -0.2526  0.3615
 4667TIP3   OH235491   3.701   3.444   0.713  0.1101 -0.0530 -0.0513
 4667TIP3    H135492   3.692   3.376   0.780 -1.8600 -1.9841 -2.1569
 4667TIP3    H235493   3.656   3.520   0.751 -1.7019 -1.3516  0.5320
 4668TIP3   OH235494   3.642   0.961  14.422 -0.2593  0.2033 -0.6103
 4668TIP3    H135495   3.721   0.939  14.373 -1.1098 -2.3950 -0.9570
 4668TIP3    H235496   3.661   1.046  14.461  1.8463  0.6552 -2.4451
 4669TIP3   OH235497   2.413   3.682  14.841  0.0896 -0.2700  0.3571
 4669TIP3    H135498   2.507   3.671  14.855  0.0515 -1.2969 -0.1100
 4669TIP3    H235499   2.382   3.724  14.921  0.8414 -0.5348  0.7979
 4670TIP3   OH235500   6.376   6.464   0.951 -0.7370 -0.0115 -0.0653
 4670TIP3    H135501   6.340   6.380   0.982 -0.6155 -0.2846 -0.6458
 4670TIP3    H235502   6.303   6.525   0.956  0.0074  0.8171  3.8089
 4671TIP3   OH235503   3.973   6.172  10.667 -0.3781 -0.3338 -0.0855
 4671TIP3    H135504   3.894   6.123  10.690  0.3192 -0.8555  1.3022
 4671TIP3    H235505   4.021   6.114  10.609 -0.1430 -0.8087  0.5674
 4672TIP3   OH235506   1.221   6.400  12.882 -0.2869 -0.2700  0.4858
 4672TIP3    H135507   1.250   6.396  12.791 -0.9775 -0.8512  0.2797
 4672TIP3    H235508   1.126   6.409  12.877 -0.2261  0.9527  1.1521
 4673TIP3   OH235509   0.773   6.821   5.216  0.3105  0.0895 -0.4214
 4673TIP3    H135510   0.801   6.750   5.273 -0.3067 -0.6171 -0.9776
 4673TIP3    H235511   0.814   6.899   5.253  1.7076 -0.6693 -0.2963
 4674TIP3   OH235512   5.816   3.789  10.654  0.3033  0.0688 -0.0508
 4674TIP3    H135513   5.734   3.793  10.604 -0.3294  0.2940  0.9646
 4674TIP3    H235514   5.881   3.757  10.592 -0.3467  0.8051 -1.1354
 4675TIP3   OH235515   5.145   5.150  15.250  0.1081  0.3176 -0.0733
 4675TIP3    H135516   5.057   5.125  15.221  0.8701 -0.8760 -1.5152
 4675TIP3    H235517   5.165   5.090  15.322 -1.2768  2.4262  2.2249
 4676TIP3   OH235518   2.686   0.527   1.742 -0.3053  0.4910 -0.4478
 4676TIP3    H135519   2.613   0.561   1.792  0.3209 -0.6965  1.3920
 4676TIP3    H235520   2.729   0.604   1.705  0.1598  1.6451  2.2504
 4677TIP3   OH235521   4.121   5.618   1.128  0.3848  0.2210 -0.0608
 4677TIP3    H135522   4.167   5.612   1.212  0.9725 -1.3771 -0.4623
 4677TIP3    H235523   4.137   5.534   1.086 -2.1391 -0.0502 -0.6328
 4678TIP3   OH235524   3.403   2.500  15.344 -0.3555 -0.1180 -0.0688
 4678TIP3    H135525   3.439   2.565  15.405 -3.2181  0.7264  0.8634
 4678TIP3    H235526   3.395   2.548  15.261 -0.2124 -0.0222 -0.0276
 4679TIP3   OH235527   4.819   3.850   5.782  0.0616  0.4468 -0.3491
 4679TIP3    H135528   4.834   3.756   5.771 -0.1524  0.5088 -1.2262
 4679TIP3    H235529   4.752   3.856   5.851 -0.3302 -0.0648 -0.6770
 4680TIP3   OH235530   6.404   4.741   4.754 -0.3168 -0.3208  0.1776
 4680TIP3    H135531   6.328   4.793   4.727 -0.0739  0.1960  0.4696
 4680TIP3    H235532   6.370   4.652   4.763 -0.9797 -0.0270  0.6650
 4681TIP3   OH235533   5.109   1.982   1.567  0.3612  0.1329 -0.1891
 4681TIP3    H135534   5.162   2.025   1.634  2.4938 -0.5476 -1.3520
 4681TIP3    H235535   5.142   1.893   1.563 -0.5814 -0.1955 -1.2568
 4682TIP3   OH235536   4.142   0.284  14.194 -0.0749 -0.0360 -0.2176
 4682TIP3    H135537   4.171   0.209  14.246 -0.2190  1.0290  1.5156
 4682TIP3    H235538   4.178   0.360  14.240  0.4758  0.9633 -2.1854
 4683TIP3   OH235539   0.417   2.201  14.659  0.1494 -0.1843 -0.1878
 4683TIP3    H135540   0.381   2.276  14.706  1.4358  0.7312 -0.5959
 4683TIP3    H235541   0.344   2.168  14.607 -0.6560  0.2610  0.6324
 4684TIP3   OH235542   0.369   5.832  13.693 -0.1153  0.9957  0.3007
 4684TIP3    H135543   0.374   5.737  13.687  0.3360  1.1110 -2.7182
 4684TIP3    H235544   0.276   5.850  13.707 -0.2285  0.1257  0.7479
 4685TIP3   OH235545   0.097   0.033  15.673  0.0218  0.0457  0.0177
 4685TIP3    H135546   0.089   0.091  15.749  0.0544 -1.2046  1.0088
 4685TIP3    H235547   0.035   0.068  15.610  0.0360  1.1530  0.5861
 4686TIP3   OH235548   4.398   0.386   1.796 -0.3819  0.0586  0.1263
 4686TIP3    H135549   4.368   0.320   1.857 -1.2300 -0.7600 -1.1280
 4686TIP3    H235550   4.410   0.465   1.849 -1.3809 -0.5405  1.2791
 4687TIP3   OH235551   3.229   3.158   0.182  0.2469  0.4448 -0.0301
 4687TIP3    H135552   3.225   3.157   0.086 -1.7845 -0.8141  0.0128
 4687TIP3    H235553   3.139   3.140   0.210  1.0119 -0.3181  2.1084
 4688TIP3   OH235554   0.479   5.203  13.049 -0.1700 -0.0665 -0.1733
 4688TIP3    H135555   0.552   5.153  13.012 -0.4106 -0.2847 -0.3596
 4688TIP3    H235556   0.514   5.291  13.062 -0.2495  0.1707 -1.4731
 4689TIP3   OH235557   3.789   0.808   0.293  0.8872 -0.0072 -0.4229
 4689TIP3    H135558   3.854   0.875   0.271  1.3196  0.4676  2.0338
 4689TIP3    H235559   3.741   0.794   0.211  2.8702  0.9496 -1.8405
 4690TIP3   OH235560   2.675   0.222   5.214  0.0349  0.4516  0.1254
 4690TIP3    H135561   2.629   0.140   5.197  2.1844 -0.6360 -0.8317
 4690TIP3    H235562   2.608   0.289   5.204 -1.8987 -1.1763  1.4046
 4691TIP3   OH235563   1.881   4.585   2.387 -0.4032  0.2362 -0.0459
 4691TIP3    H135564   1.837   4.620   2.465 -0.6728  1.5129 -0.7477
 4691TIP3    H235565   1.954   4.535   2.422 -1.3966 -0.5010  1.0908
 4692TIP3   OH235566   5.451   0.747   2.590 -0.0127  0.2085  0.2636
 4692TIP3    H135567   5.510   0.808   2.546 -0.0781  0.3866  0.4198
 4692TIP3    H235568   5.482   0.745   2.681 -1.1755  1.4814  0.7141
 4693TIP3   OH235569   6.136   6.596  13.422 -0.2078 -0.5029  0.0715
 4693TIP3    H135570   6.080   6.538  13.371  0.4202 -0.3123 -0.8528
 4693TIP3    H235571   6.123   6.683  13.384 -0.8371 -0.0817  1.1841
 4694TIP3   OH235572   3.193   3.012   6.375  0.1235  0.4715  0.2333
 4694TIP3    H135573   3.289   3.013   6.371  0.5120  0.3611  4.3499
 4694TIP3    H235574   3.170   2.922   6.354  1.2352 -0.1451  1.4496
 4695TIP3   OH235575   5.499   0.086  11.648  0.2159 -0.7972  0.3781
 4695TIP3    H135576   5.531   0.063  11.560 -0.7784 -0.6127 -0.0491
 4695TIP3    H235577   5.488   0.181  11.645 -1.1071 -0.9310  0.2346
 4696TIP3   OH235578   1.170   0.299   0.336 -0.2275  0.2508  0.6947
 4696TIP3    H135579   1.086   0.321   0.296 -1.0198 -0.9069  1.6451
 4696TIP3    H235580   1.223   0.265   0.264 -0.3313  1.5625 -0.0343
 4697TIP3   OH235581   3.405   2.804   0.198  0.1451  0.3306 -0.0517
 4697TIP3    H135582   3.350   2.841   0.267 -2.0725 -0.3796 -1.3340
 4697TIP3    H235583   3.481   2.862   0.195  0.4054  0.3321  2.9978
 4698TIP3   OH235584   1.037   1.036  14.473 -0.1996  0.7712 -0.4873
 4698TIP3    H135585   0.949   1.020  14.441 -0.4407 -0.9378  0.8623
 4698TIP3    H235586   1.088   1.059  14.395 -1.6864  1.1416 -1.3724
 4699TIP3   OH235587   4.931   0.686  13.107 -0.1532  0.1442  0.1186
 4699TIP3    H135588   5.001   0.651  13.051 -0.0621  1.6022 -0.7217
 4699TIP3    H235589   4.850   0.655  13.067 -0.0361 -0.4023  0.2963
 4700TIP3   OH235590   4.462   0.228   4.244  0.2842  0.1947 -0.4412
 4700TIP3    H135591   4.377   0.187   4.256  0.2027  0.7398  0.9521
 4700TIP3    H235592   4.525   0.157   4.259  0.1341  0.4409  1.4916
 4701TIP3   OH235593   0.732   4.577  11.587 -0.1670  0.2221 -0.2985
 4701TIP3    H135594   0.682   4.555  11.508  0.2462 -0.5342 -0.3532
 4701TIP3    H235595   0.671   4.561  11.659 -0.2799  0.1196 -0.4158
 4702TIP3   OH235596   1.539   2.447   0.999  0.0468 -0.9318  0.4916
 4702TIP3    H135597   1.548   2.354   1.016  0.7946 -0.9617 -0.0059
 4702TIP3    H235598   1.617   2.486   1.040 -0.7523 -0.3996  1.5569
 4703TIP3   OH235599   0.931   1.961   4.061  0.5625  0.5655 -0.3688
 4703TIP3    H135600   0.835   1.956   4.060  0.5326  1.0670 -1.6477
 4703TIP3    H235601   0.956   1.921   4.144 -0.6076 -2.1807 -1.2229
 4704TIP3   OH235602   4.762   1.669  11.808 -0.0831  0.1129 -0.4643
 4704TIP3    H135603   4.740   1.612  11.882  1.5325  0.0703  0.0281
 4704TIP3    H235604   4.808   1.612  11.746  0.2977  0.5642 -0.6100
 4705TIP3   OH235605   2.521   2.034  16.787 -0.0969  0.3198  0.0713
 4705TIP3    H135606   2.615   2.019  16.798 -0.0604  1.6502  2.1026
 4705TIP3    H235607   2.491   1.962  16.732  2.0046 -0.4667 -0.1123
 4706TIP3   OH235608   4.219   6.077   0.457 -0.3754  0.7187  0.7205
 4706TIP3    H135609   4.199   5.989   0.490 -1.2743  1.2135  1.5043
 4706TIP3    H235610   4.162   6.087   0.381  1.8303 -0.4974 -1.2650
 4707TIP3   OH235611   5.957   2.447   2.226 -0.5515 -0.2574  0.0388
 4707TIP3    H135612   6.045   2.409   2.226 -0.1151  0.7052 -0.6664
 4707TIP3    H235613   5.904   2.383   2.179  0.2132  0.0345 -1.2932
 4708TIP3   OH235614   4.593   0.923  15.069 -0.4984  0.7948 -0.2177
 4708TIP3    H135615   4.524   0.944  15.131 -0.6116  0.3747 -0.1962
 4708TIP3    H235616   4.660   0.877  15.121 -0.6859  0.2608 -0.4404
 4709TIP3   OH235617   6.236   5.938   0.037  0.8834 -0.5118  0.4257
 4709TIP3    H135618   6.161   5.971  -0.012  0.3455 -1.2326  0.7417
 4709TIP3    H235619   6.307   5.936  -0.027  0.8267  0.8115  0.2921
 4710TIP3   OH235620   6.726   0.886   1.127 -0.3259 -0.1398  0.3724
 4710TIP3    H135621   6.706   0.929   1.044 -0.0045  1.4788  1.0810
 4710TIP3    H235622   6.817   0.856   1.117 -0.7332 -1.1650 -0.3268
 4711TIP3   OH235623   6.153   2.369   4.961 -0.3793  0.2543 -0.5836
 4711TIP3    H135624   6.182   2.430   4.893  0.2484  0.0485 -0.5081
 4711TIP3    H235625   6.175   2.413   5.043  0.5618 -0.2788 -0.5276
 4712TIP3   OH235626   4.027   5.903  11.515 -0.0379 -0.2099 -0.1512
 4712TIP3    H135627   4.041   5.908  11.610  0.2917  1.5205 -0.2668
 4712TIP3    H235628   4.113   5.886  11.478 -0.2158 -1.2171 -0.1577
 4713TIP3   OH235629   4.938   4.739   3.229 -0.8366 -0.1083  0.3973
 4713TIP3    H135630   4.967   4.829   3.220  2.0933 -0.8516  1.2928
 4713TIP3    H235631   4.933   4.706   3.139 -0.7536  0.6058  0.1279
 4714TIP3   OH235632   4.069   3.123  11.528 -0.1657  0.3158 -0.0408
 4714TIP3    H135633   4.159   3.128  11.494 -0.0989 -0.8044 -0.0500
 4714TIP3    H235634   4.015   3.113  11.449 -0.1665 -0.4504  0.0494
 4715TIP3   OH235635   0.951   3.844   0.384 -0.3850 -0.0167 -0.2127
 4715TIP3    H135636   0.931   3.933   0.411 -1.0864 -0.4907  0.9193
 4715TIP3    H235637   0.925   3.790   0.459 -0.6372 -1.2336 -1.1416
 4716TIP3   OH235638   4.378   3.540   0.657  0.5701 -0.1944  0.1338
 4716TIP3    H135639   4.361   3.610   0.594  2.3048 -1.6074 -2.0782
 4716TIP3    H235640   4.296   3.531   0.706 -0.6982  1.3369 -1.5659
 4717TIP3   OH235641   3.475   6.458  12.646 -0.4027 -0.0109  0.5140
 4717TIP3    H135642   3.416   6.415  12.584  1.1410 -2.1801  0.4502
 4717TIP3    H235643   3.481   6.548  12.614 -2.5418 -0.0780 -0.2771
 4718TIP3   OH235644   3.999   0.910   3.080 -0.3446 -0.1750 -0.1707
 4718TIP3    H135645   4.084   0.910   3.036  0.9800  0.2296  2.1964
 4718TIP3    H235646   3.990   0.821   3.115 -0.0224  0.2900  1.1210
 4719TIP3   OH235647   5.383   5.700   4.977 -0.1181 -0.4837 -0.3289
 4719TIP3    H135648   5.473   5.668   4.983 -0.0036 -0.2559 -0.7760
 4719TIP3    H235649   5.344   5.679   5.062  0.4131 -0.4023 -0.0631
 4720TIP3   OH235650   2.700   0.743   3.186 -0.3331 -0.1593  0.0435
 4720TIP3    H135651   2.743   0.777   3.107 -0.2130 -0.1642  0.1073
 4720TIP3    H235652   2.606   0.759   3.170 -0.4171 -1.1599 -0.5912
 4721TIP3   OH235653   1.680   4.458  12.363  0.1203 -0.5530  0.6479
 4721TIP3    H135654   1.667   4.377  12.412 -1.6574 -0.0275  1.1176
 4721TIP3    H235655   1.692   4.430  12.273  0.8974 -1.3943  0.9955
 4722TIP3   OH235656   2.580   0.328  15.922 -0.3807  0.4885  0.2299
 4722TIP3    H135657   2.597   0.298  15.833 -0.9339 -0.1665  0.3371
 4722TIP3    H235658   2.556   0.249  15.970  1.3077  0.5982  1.3185
 4723TIP3   OH235659   0.395   3.563   5.841  0.1944  0.2167  0.3961
 4723TIP3    H135660   0.323   3.626   5.838 -0.1025 -0.1418 -0.3848
 4723TIP3    H235661   0.392   3.527   5.929  1.0933  2.1073  1.2449
 4724TIP3   OH235662   4.601   1.633  13.871  0.1077 -0.3383 -0.2036
 4724TIP3    H135663   4.639   1.698  13.812 -0.1020  2.4634  2.4701
 4724TIP3    H235664   4.677   1.594  13.916  0.1528  0.4492  0.4378
 4725TIP3   OH235665   0.164   6.152  15.200 -0.1696 -0.1433 -0.4256
 4725TIP3    H135666   0.124   6.106  15.274  0.5353  0.7235  0.5151
 4725TIP3    H235667   0.099   6.217  15.174 -0.1913 -0.0742 -0.1992
 4726TIP3   OH235668   4.531   3.709  16.950  0.3596 -0.4285 -0.0290
 4726TIP3    H135669   4.462   3.646  16.934  0.0335 -0.2065  0.4823
 4726TIP3    H235670   4.574   3.720  16.865  0.0866 -0.9369 -0.2368
 4727TIP3   OH235671   0.970   3.174   3.730 -0.0537 -0.8806  0.1192
 4727TIP3    H135672   0.981   3.197   3.638 -1.9040 -1.7301 -0.3529
 4727TIP3    H235673   0.877   3.153   3.739 -0.3283  0.9376  2.5871
 4728TIP3   OH235674   4.920   4.026   0.787 -0.3219 -0.4586 -0.4179
 4728TIP3    H135675   4.852   4.057   0.847  0.2564  2.1065 -0.9774
 4728TIP3    H235676   5.002   4.058   0.825  0.5371 -2.7176 -0.2401
 4729TIP3   OH235677   1.683   2.137  16.358 -0.3247 -0.4929  0.0397
 4729TIP3    H135678   1.776   2.154  16.340  0.0893 -2.6059 -0.1379
 4729TIP3    H235679   1.651   2.217  16.398  1.3806  0.5749 -0.6016
 4730TIP3   OH235680   2.437   0.201  15.112  0.1286  0.1160  0.5371
 4730TIP3    H135681   2.344   0.221  15.121  0.2362  0.7410  0.3273
 4730TIP3    H235682   2.456   0.213  15.018  0.0307 -1.7861  0.2264
 4731TIP3   OH235683   4.292   0.170   1.905  0.3588  0.2572 -0.1095
 4731TIP3    H135684   4.222   0.140   1.964 -0.1796  1.0438 -0.3231
 4731TIP3    H235685   4.269   0.132   1.820  0.4487  0.1388 -0.0812
 4732TIP3   OH235686   3.746   2.235   2.243  0.0932  0.0947 -0.1309
 4732TIP3    H135687   3.709   2.219   2.156  1.1683 -1.4907 -0.3293
 4732TIP3    H235688   3.813   2.302   2.228 -0.2210  0.3630 -0.3803
 4733TIP3   OH235689   6.357   5.892   5.120 -0.1331  0.2286 -0.1159
 4733TIP3    H135690   6.409   5.834   5.175 -0.6848 -0.1997 -0.0428
 4733TIP3    H235691   6.417   5.963   5.097  0.8402 -0.8046 -0.9398
 4734TIP3   OH235692   5.236   4.714  11.302 -0.2286 -0.0395 -0.2780
 4734TIP3    H135693   5.270   4.741  11.216  1.1895  0.0041  0.2788
 4734TIP3    H235694   5.240   4.619  11.300  2.4448 -0.0129  0.7202
 4735TIP3   OH235695   2.758   3.248  13.335  0.1099  0.7194  0.2562
 4735TIP3    H135696   2.794   3.160  13.334 -1.2918  0.1005  1.2015
 4735TIP3    H235697   2.706   3.254  13.255  0.5869  0.8623 -0.0445
 4736TIP3   OH235698   0.061   3.344  11.442 -0.3684 -0.6331 -0.1454
 4736TIP3    H135699   0.117   3.368  11.515 -0.0031  0.3265 -0.7301
 4736TIP3    H235700  -0.007   3.411  11.440 -0.1075 -0.3727 -0.9610
 4737TIP3   OH235701   3.755   4.117   0.146  0.1228  0.4254  0.1954
 4737TIP3    H135702   3.756   4.116   0.050  0.2212 -2.3239  0.1276
 4737TIP3    H235703   3.848   4.115   0.170  0.1048  1.4355  0.3773
 4738TIP3   OH235704   0.907   0.550  15.972 -0.2534  0.4214  0.8254
 4738TIP3    H135705   0.844   0.537  15.901  0.5774 -2.6532  0.5244
 4738TIP3    H235706   0.980   0.596  15.930  0.5864 -2.0539 -0.6627
 4739TIP3   OH235707   1.859   0.905  16.039 -0.3639 -0.3375 -0.2820
 4739TIP3    H135708   1.935   0.898  15.980 -0.2342  0.1958 -0.1787
 4739TIP3    H235709   1.806   0.975  16.001  0.3773  0.9630  0.9571
 4740TIP3   OH235710   2.233   1.304  17.176  0.6494  0.0794 -0.3152
 4740TIP3    H135711   2.201   1.380  17.128  0.4918  0.6478  0.6558
 4740TIP3    H235712   2.325   1.297  17.153  0.5011  0.1630 -0.9288
 4741TIP3   OH235713   3.517   1.576  17.000 -0.6492 -0.0192 -0.5931
 4741TIP3    H135714   3.467   1.577  16.919 -2.5235  0.3386  0.5051
 4741TIP3    H235715   3.496   1.659  17.043 -2.3344 -1.5036  1.7210
 4742TIP3   OH235716   1.100   2.402   3.164  0.1148  0.3572  0.0911
 4742TIP3    H135717   1.152   2.415   3.243  3.3532 -4.7494 -0.7373
 4742TIP3    H235718   1.028   2.344   3.192  0.7522 -0.7191 -0.4127
 4743TIP3   OH235719   3.179   1.749   4.854 -0.0240  0.5902  0.1784
 4743TIP3    H135720   3.125   1.715   4.783  1.5174 -3.3935  0.6585
 4743TIP3    H235721   3.269   1.741   4.821  0.5911  3.7146  0.7281
 4744TIP3   OH235722   6.621   5.901   1.022 -0.1255  0.0786 -0.0280
 4744TIP3    H135723   6.629   5.812   0.987  0.9654  0.0778  0.1764
 4744TIP3    H235724   6.662   5.956   0.955 -0.2319  0.3554  0.1323
 4745TIP3   OH235725   5.977   1.332   2.509 -0.4575  0.4278 -0.8084
 4745TIP3    H135726   5.889   1.320   2.475  0.1602  0.3129 -2.4275
 4745TIP3    H235727   6.034   1.327   2.432  0.9322  0.8694  0.1510
 4746TIP3   OH235728   3.510   4.057  10.663 -0.2942 -0.0160 -0.0537
 4746TIP3    H135729   3.581   3.999  10.690 -1.9700 -1.5225  1.3306
 4746TIP3    H235730   3.430   4.006  10.676 -1.8560  2.5308  1.1031
 4747TIP3   OH235731   6.678   6.207   1.243  0.7156  0.5715  0.0872
 4747TIP3    H135732   6.691   6.273   1.311 -0.7025 -0.8356  1.8071
 4747TIP3    H235733   6.748   6.143   1.257 -0.1901 -0.2606  0.9398
 4748TIP3   OH235734   3.376   6.048  13.371  0.6836  0.3904  0.1916
 4748TIP3    H135735   3.288   6.062  13.405  0.5146  1.0540 -0.4973
 4748TIP3    H235736   3.363   6.024  13.279  1.1335 -1.2994  0.5320
 4749TIP3   OH235737   3.080   2.493  10.217 -0.1701  0.0576 -0.5047
 4749TIP3    H135738   3.008   2.538  10.174 -0.5210 -0.9149 -0.9754
 4749TIP3    H235739   3.151   2.493  10.153  0.5362  1.6267  0.2070
 4750TIP3   OH235740   2.765   6.490   3.650 -0.4189  0.3848 -0.1374
 4750TIP3    H135741   2.676   6.459   3.665 -0.4478  0.6166  0.1840
 4750TIP3    H235742   2.811   6.414   3.614 -0.6082  0.1074  0.2003
 4751TIP3   OH235743   0.445   1.331  15.988  0.2079 -0.2400  0.0914
 4751TIP3    H135744   0.499   1.294  16.058  0.1519 -0.9020 -0.2117
 4751TIP3    H235745   0.389   1.395  16.032 -1.1101 -1.9247  0.9735
 4752TIP3   OH235746   1.311   6.204   5.442 -0.4947 -0.1457  0.7385
 4752TIP3    H135747   1.268   6.272   5.391 -0.0121  0.2157  0.8104
 4752TIP3    H235748   1.240   6.147   5.472 -0.7675 -0.5059 -0.5434
 4753TIP3   OH235749   3.804   0.344   0.282 -0.1896 -0.5994 -0.5861
 4753TIP3    H135750   3.884   0.385   0.314 -1.6088 -0.0228  2.5219
 4753TIP3    H235751   3.733   0.391   0.325 -2.1926 -2.0082 -2.1374
 4754TIP3   OH235752   5.774   0.299  15.385 -0.1094  0.5763 -0.0045
 4754TIP3    H135753   5.703   0.243  15.416  1.0431 -0.1882  1.4416
 4754TIP3    H235754   5.822   0.322  15.465  2.2329 -0.3605 -1.0362
 4755TIP3   OH235755   2.374   5.565   4.169 -0.5303  0.3657  0.1058
 4755TIP3    H135756   2.396   5.642   4.118 -0.3297  0.4109  0.2584
 4755TIP3    H235757   2.430   5.496   4.134 -0.4789  0.3673  0.1855
 4756TIP3   OH235758   0.148   3.511  12.524 -0.2610  0.1781  0.3255
 4756TIP3    H135759   0.157   3.602  12.497 -0.3811 -0.5187 -2.3114
 4756TIP3    H235760   0.163   3.460  12.444 -0.5912 -2.1153  1.6259
 4757TIP3   OH235761   0.322   6.124  12.373 -0.3451 -0.0107 -0.8736
 4757TIP3    H135762   0.370   6.047  12.404 -1.0606 -0.8847 -1.8707
 4757TIP3    H235763   0.268   6.150  12.447 -0.6317 -0.9226 -0.7491
 4758TIP3   OH235764   1.322   1.218  11.932 -0.4563 -0.1805  0.1368
 4758TIP3    H135765   1.410   1.204  11.896 -0.2417  1.3956 -0.0607
 4758TIP3    H235766   1.263   1.181  11.868 -0.0287  1.5504 -1.3479
 4759TIP3   OH235767   4.141   5.891   1.008 -0.2509  0.1343  0.4640
 4759TIP3    H135768   4.142   5.961   1.074 -0.3745 -0.9874  1.6900
 4759TIP3    H235769   4.126   5.811   1.058 -0.6236 -0.7255 -0.9716
 4760TIP3   OH235770   1.984   5.360  13.739  0.0958 -0.0868  0.4053
 4760TIP3    H135771   2.075   5.354  13.769  0.5036  0.9263 -0.5443
 4760TIP3    H235772   1.984   5.316  13.654 -0.5416 -0.9778  0.8555
 4761TIP3   OH235773   6.547   1.707   4.756 -0.1606 -0.5664  0.5122
 4761TIP3    H135774   6.475   1.700   4.819  0.7464  1.5503  1.9071
 4761TIP3    H235775   6.545   1.799   4.729  1.2197 -0.7929 -0.4346
 4762TIP3   OH235776   1.156   0.500  10.733  0.6666  0.0389 -0.4292
 4762TIP3    H135777   1.083   0.535  10.682  0.4613 -1.5450 -1.2811
 4762TIP3    H235778   1.230   0.555  10.710 -0.0993  1.2608 -0.0523
 4763TIP3   OH235779   2.401   6.602  13.201  0.2214 -0.1558  0.0963
 4763TIP3    H135780   2.446   6.518  13.189 -1.4957 -0.8730 -1.8959
 4763TIP3    H235781   2.469   6.667  13.183  1.2165 -1.1204  0.1959
 4764TIP3   OH235782   5.037   0.636  13.610 -0.3260 -0.1325 -0.0307
 4764TIP3    H135783   5.070   0.715  13.653 -0.6469  0.6892 -1.2495
 4764TIP3    H235784   4.988   0.668  13.534 -1.0544 -1.4770 -0.1587
 4765TIP3   OH235785   1.811   3.975   4.894 -0.6816 -0.7429 -0.5206
 4765TIP3    H135786   1.857   3.892   4.906 -0.0005 -0.1862  1.0380
 4765TIP3    H235787   1.877   4.042   4.912 -1.3460  0.1373 -1.2500
 4766TIP3   OH235788   4.447   4.596  16.281 -0.2357 -0.3253 -0.0925
 4766TIP3    H135789   4.528   4.565  16.241  0.9350  0.5153  1.5099
 4766TIP3    H235790   4.379   4.542  16.241  1.3383 -2.6670  0.1706
 4767TIP3   OH235791   0.619   1.174   0.432 -0.0350 -0.9376  0.5994
 4767TIP3    H135792   0.604   1.249   0.488 -0.6030 -1.6414  1.4079
 4767TIP3    H235793   0.709   1.185   0.400  0.3612 -0.6227  1.7926
 4768TIP3   OH235794   2.397   5.617  12.670 -0.6990  0.1225  0.2715
 4768TIP3    H135795   2.383   5.522  12.670  2.5300 -0.4692  0.9630
 4768TIP3    H235796   2.432   5.636  12.584 -1.8207  0.8240 -0.0489
 4769TIP3   OH235797   5.315   2.971   5.175  0.1542 -0.2427 -0.2840
 4769TIP3    H135798   5.397   2.932   5.205 -0.1013  0.0380  0.8436
 4769TIP3    H235799   5.315   3.059   5.214 -1.2527 -0.6915  0.8141
 4770TIP3   OH235800   3.185   2.316   0.900  0.6900  0.1712  0.6194
 4770TIP3    H135801   3.130   2.362   0.836  0.4381  0.4209  1.0052
 4770TIP3    H235802   3.212   2.385   0.961 -1.9412 -0.5622  2.8173
 4771TIP3   OH235803   5.987   2.907  12.319 -0.5811  0.1058  0.8843
 4771TIP3    H135804   6.029   2.857  12.249 -0.5475 -1.4282  1.9596
 4771TIP3    H235805   5.922   2.961  12.273  0.3927  0.1952 -0.4596
 4772TIP3   OH235806   0.227   2.165   0.208  0.1998 -0.6786  0.5070
 4772TIP3    H135807   0.204   2.246   0.254 -1.5223 -0.2772 -0.9493
 4772TIP3    H235808   0.181   2.096   0.255 -0.4495 -0.4517  0.2144
 4773TIP3   OH235809   4.073   2.055   0.302  0.0768  0.3817  0.1880
 4773TIP3    H135810   4.095   2.104   0.381  0.8001  1.4508 -0.6441
 4773TIP3    H235811   3.981   2.075   0.286  0.3049  1.3104 -0.0178
 4774TIP3   OH235812   5.372   1.647   0.640  0.1799  0.1063 -0.4484
 4774TIP3    H135813   5.296   1.640   0.582  1.1051  1.6208 -1.9294
 4774TIP3    H235814   5.390   1.557   0.666 -0.1295 -0.6960 -2.7664
 4775TIP3   OH235815   6.296   2.557   3.827  0.0801  0.0352  0.3738
 4775TIP3    H135816   6.326   2.473   3.791  1.8631  1.4443 -1.7345
 4775TIP3    H235817   6.374   2.595   3.866 -0.6444  0.8493  1.0530
 4776TIP3   OH235818   1.063   3.871  15.974 -0.1863  0.0871 -0.0157
 4776TIP3    H135819   1.020   3.859  15.889  0.0314  0.6205 -0.2085
 4776TIP3    H235820   1.091   3.784  16.000 -1.1743 -0.2284 -0.0027
 4777TIP3   OH235821   4.022   0.751  14.774  0.3123  0.3568  0.3487
 4777TIP3    H135822   4.111   0.779  14.795  0.3687 -1.0336  2.2204
 4777TIP3    H235823   3.998   0.804  14.698  2.3223  1.5395  0.4533
 4778TIP3   OH235824   1.660   4.689  15.887 -0.1147  0.2056  0.1216
 4778TIP3    H135825   1.579   4.644  15.909 -0.6802  0.8572 -0.5587
 4778TIP3    H235826   1.651   4.711  15.794  0.8548  0.2627  0.0331
 4779TIP3   OH235827   1.253   2.240   1.897  0.0151 -0.0536 -0.0423
 4779TIP3    H135828   1.202   2.237   1.978  0.5215  1.3271  0.3486
 4779TIP3    H235829   1.224   2.320   1.853  0.4165 -0.2997 -0.7779
 4780TIP3   OH235830   3.214   4.361   1.846 -0.3084  0.4033 -0.1727
 4780TIP3    H135831   3.180   4.293   1.787  1.4603 -0.6999 -0.0177
 4780TIP3    H235832   3.279   4.407   1.793 -1.0657  1.6090 -0.0777
 4781TIP3   OH235833   5.149   2.724  12.800  0.1531  0.3411  0.1321
 4781TIP3    H135834   5.086   2.695  12.734 -0.2004 -1.5095  1.2073
 4781TIP3    H235835   5.230   2.678  12.778 -0.3058 -1.2975  1.6409
 4782TIP3   OH235836   2.323   2.134  15.213  0.0822  0.4104 -0.6567
 4782TIP3    H135837   2.299   2.092  15.130 -1.3221  1.7372 -0.9808
 4782TIP3    H235838   2.281   2.080  15.280 -0.5523  0.4962 -0.9706
 4783TIP3   OH235839   0.650   0.284  12.783  0.5845 -0.1188  0.2327
 4783TIP3    H135840   0.723   0.260  12.725  0.8949 -2.4947  1.4863
 4783TIP3    H235841   0.674   0.370  12.817  1.5490  0.2638 -1.2835
 4784TIP3   OH235842   4.825   3.718   5.509 -0.7360 -0.1477 -0.3108
 4784TIP3    H135843   4.857   3.807   5.495 -1.9655  0.3061 -0.2700
 4784TIP3    H235844   4.736   3.728   5.542 -0.7871 -1.3887  0.0085
 4785TIP3   OH235845   6.814   2.887   4.081 -0.3897  0.3739  0.4514
 4785TIP3    H135846   6.893   2.931   4.050 -0.6172  1.8484  1.8585
 4785TIP3    H235847   6.747   2.912   4.017  0.2214 -0.7907 -0.6845
 4786TIP3   OH235848   5.841   4.030  15.887  0.0620 -0.1211 -0.0519
 4786TIP3    H135849   5.931   4.057  15.870 -0.8373  2.0296 -1.9163
 4786TIP3    H235850   5.814   3.984  15.808 -1.2537  1.5705 -0.6373
 4787TIP3   OH235851   0.621   1.900   4.460 -0.3750  0.0525  0.4966
 4787TIP3    H135852   0.557   1.970   4.453 -1.4641 -0.8536  1.1045
 4787TIP3    H235853   0.681   1.929   4.529 -1.7711 -0.3119  1.9240
 4788TIP3   OH235854   2.081   6.296   0.943 -0.6736 -0.2337  1.2513
 4788TIP3    H135855   2.080   6.391   0.930  1.8290  0.1616  3.1988
 4788TIP3    H235856   2.089   6.260   0.854 -1.9249  1.3038  0.4566
 4789TIP3   OH235857   2.540   0.230  14.238 -0.5291  0.3491  0.0669
 4789TIP3    H135858   2.613   0.237  14.299 -0.0742 -1.1387 -0.2715
 4789TIP3    H235859   2.502   0.318  14.236  0.6958  0.9244  0.9186
 4790TIP3   OH235860   6.464   1.054   5.148 -0.8279 -0.0700 -0.2114
 4790TIP3    H135861   6.478   1.060   5.242 -0.6968 -1.4866 -0.1232
 4790TIP3    H235862   6.410   1.130   5.127 -0.5781  0.4395  0.9478
 4791TIP3   OH235863   1.082   2.759  10.951  0.6085  0.6048  0.0424
 4791TIP3    H135864   1.093   2.667  10.976 -0.7232  0.6139  0.7476
 4791TIP3    H235865   1.157   2.777  10.894  0.1073 -1.3345 -1.3422
 4792TIP3   OH235866   6.217   1.518  12.059 -0.1829  0.0667  0.0698
 4792TIP3    H135867   6.189   1.451  12.122  0.4266  0.0196  0.2928
 4792TIP3    H235868   6.236   1.468  11.979 -1.1819  0.1521 -0.2428
 4793TIP3   OH235869   3.751   1.104   2.166 -0.2517 -0.1297  0.5950
 4793TIP3    H135870   3.740   1.181   2.221  2.9210 -0.2506  1.5614
 4793TIP3    H235871   3.732   1.030   2.225 -0.1674 -0.1637  0.5801
 4794TIP3   OH235872   6.623   0.993   1.464 -0.2875 -0.4996 -0.0483
 4794TIP3    H135873   6.598   0.970   1.553  2.0416 -0.7024  0.6172
 4794TIP3    H235874   6.631   1.089   1.465 -0.4168 -0.4881 -0.0898
 4795TIP3   OH235875   5.883   4.684   2.475  0.4351  0.2627 -0.1940
 4795TIP3    H135876   5.914   4.751   2.414 -2.3045 -1.5218 -3.9363
 4795TIP3    H235877   5.945   4.612   2.465  1.4436  0.8521  1.2814
 4796TIP3   OH235878   5.670   3.698  14.283  0.3249 -0.2503  0.2260
 4796TIP3    H135879   5.651   3.701  14.189 -2.1445 -0.8515  0.6354
 4796TIP3    H235880   5.599   3.749  14.323  1.3267 -0.0182  1.7857
 4797TIP3   OH235881   5.306   4.476   1.870  0.1512  0.0345  0.1794
 4797TIP3    H135882   5.343   4.392   1.842  0.9934  0.6907 -0.7699
 4797TIP3    H235883   5.378   4.518   1.918 -0.2853  0.1970  0.7004
 4798TIP3   OH235884   0.255   4.500  11.000 -0.0822 -0.4156  0.2677
 4798TIP3    H135885   0.207   4.504  11.082 -0.7172 -0.1832 -0.1126
 4798TIP3    H235886   0.187   4.495  10.932  0.4352 -1.2734 -0.2050
 4799TIP3   OH235887   2.681   3.616  14.346  0.4447 -0.5495  0.4476
 4799TIP3    H135888   2.643   3.616  14.433  0.9549 -2.3210  0.7055
 4799TIP3    H235889   2.607   3.632  14.287 -0.2212 -1.1780  1.0986
 4800TIP3   OH235890   0.921   5.416   3.528  0.3013 -1.2171 -0.3376
 4800TIP3    H135891   0.910   5.322   3.515  1.8399 -1.6045  0.8384
 4800TIP3    H235892   0.996   5.439   3.474  2.0350 -1.3806  1.8749
 4801TIP3   OH235893   0.190   0.359   0.411 -0.2144  0.4093  0.9448
 4801TIP3    H135894   0.213   0.362   0.504  1.5251 -1.9807  0.6895
 4801TIP3    H235895   0.243   0.429   0.371 -0.4506  0.9939  1.6254
 4802TIP3   OH235896   6.399   6.564   5.976 -0.3568 -0.0037  0.0848
 4802TIP3    H135897   6.416   6.562   5.882  1.9254 -0.5878  0.4609
 4802TIP3    H235898   6.317   6.613   5.984 -1.8510 -1.8771 -2.3321
 4803TIP3   OH235899   5.872   0.942  16.361 -0.1733 -0.5448  0.4068
 4803TIP3    H135900   5.788   0.927  16.405  0.1438 -1.0842  0.8466
 4803TIP3    H235901   5.924   0.865  16.384  0.5136 -0.1097  0.3070
 4804TIP3   OH235902   0.465   1.381   0.708 -0.4242  0.2054 -0.7139
 4804TIP3    H135903   0.497   1.463   0.671  0.4667 -0.7394 -2.1089
 4804TIP3    H235904   0.497   1.383   0.799  1.1410  0.6088 -1.2340
 4805TIP3   OH235905   4.468   2.853  15.559 -0.0295 -0.1972  0.0664
 4805TIP3    H135906   4.517   2.777  15.588 -1.3324 -0.0961  2.8524
 4805TIP3    H235907   4.388   2.816  15.521 -0.7062 -0.2832  1.5055
 4806TIP3   OH235908   1.279   2.091  10.469  0.1246  0.0246  0.4983
 4806TIP3    H135909   1.371   2.099  10.443  0.4886 -2.7391  0.6197
 4806TIP3    H235910   1.280   2.096  10.564  0.0693  0.4932  0.4763
 4807TIP3   OH235911   5.520   1.502  14.096  0.3252 -0.0438 -0.7522
 4807TIP3    H135912   5.447   1.451  14.059  0.7930 -1.2169 -0.1108
 4807TIP3    H235913   5.486   1.592  14.101 -1.2918 -0.6515  0.0226
 4808TIP3   OH235914   4.971   1.225   2.120 -0.5555  0.0725  0.1597
 4808TIP3    H135915   4.964   1.246   2.213 -0.0864  0.2990  0.1447
 4808TIP3    H235916   5.056   1.182   2.111 -0.1845  0.8798 -0.3107
 4809TIP3   OH235917   1.989   5.982   5.150  0.1073 -0.2257 -0.8783
 4809TIP3    H135918   1.971   5.894   5.116  2.1470 -0.1769 -2.2412
 4809TIP3    H235919   2.022   6.031   5.075  0.1360  1.3570  0.1240
 4810TIP3   OH235920   1.866   2.155  11.344  0.4155 -0.6364  0.0885
 4810TIP3    H135921   1.866   2.197  11.258 -1.4275 -0.5806  0.0914
 4810TIP3    H235922   1.956   2.168  11.376  0.7734  0.5010 -1.2503
 4811TIP3   OH235923   3.865   3.796   1.919 -0.5579 -0.4281 -0.6687
 4811TIP3    H135924   3.898   3.871   1.870 -0.5192  0.3755  0.5477
 4811TIP3    H235925   3.944   3.751   1.949 -0.5781 -0.2373 -0.3305
 4812TIP3   OH235926   4.740   4.941  10.973 -0.5093 -0.1691  0.0286
 4812TIP3    H135927   4.758   4.945  11.067  0.0122  2.8464 -0.1074
 4812TIP3    H235928   4.801   4.875  10.939  0.0024 -0.5720  1.6603
 4813TIP3   OH235929   5.050   2.233  16.256  0.3624  0.2857  0.2909
 4813TIP3    H135930   4.987   2.163  16.237  1.8403 -0.6095 -1.6306
 4813TIP3    H235931   5.067   2.225  16.350  1.7636 -3.1303 -0.1083
 4814TIP3   OH235932   4.864   4.238   2.604 -0.2480 -0.1585 -0.3921
 4814TIP3    H135933   4.894   4.319   2.646  0.2596 -0.6980  0.3034
 4814TIP3    H235934   4.901   4.168   2.657 -0.7777 -0.8565 -0.9202
 4815TIP3   OH235935   4.707   0.038   3.549 -0.2749 -0.2815 -0.0505
 4815TIP3    H135936   4.802   0.037   3.536  0.4899 -2.5931  3.9553
 4815TIP3    H235937   4.695   0.080   3.634 -2.8304 -0.4151 -0.2635
 4816TIP3   OH235938   5.088   6.708   2.362  0.5246  0.0416 -0.1308
 4816TIP3    H135939   5.107   6.679   2.451  0.2900  1.1379  0.2965
 4816TIP3    H235940   5.075   6.802   2.370 -0.6747 -0.0200 -1.1401
 4817TIP3   OH235941   5.074   3.016  11.600  0.8325  0.5080  0.2940
 4817TIP3    H135942   5.037   3.027  11.688 -1.0332  0.2378 -0.4058
 4817TIP3    H235943   5.061   3.101  11.558  2.6589  0.9617  0.5721
 4818TIP3   OH235944   4.049   4.828   4.546 -0.1990  0.2465  0.6566
 4818TIP3    H135945   4.112   4.876   4.601  1.3436  0.1867 -0.9676
 4818TIP3    H235946   4.041   4.742   4.588 -0.1065  0.6474  1.5249
 4819TIP3   OH235947   3.267   5.558   4.558 -0.5030  0.0160  0.4466
 4819TIP3    H135948   3.339   5.506   4.523  0.4287 -0.4829  2.9149
 4819TIP3    H235949   3.191   5.500   4.556 -0.3895 -0.1212 -0.2946
 4820TIP3   OH235950   6.725   0.727   0.061 -0.0795  0.2687  0.3308
 4820TIP3    H135951   6.672   0.801   0.029  0.4288  0.5365  0.1033
 4820TIP3    H235952   6.662   0.655   0.068 -0.9407  1.1372  2.1665
 4821TIP3   OH235953   2.542   0.851  12.783 -1.0486 -0.0451 -0.0264
 4821TIP3    H135954   2.595   0.787  12.831  1.3026  2.1679  0.5452
 4821TIP3    H235955   2.454   0.840  12.818 -0.6250 -2.5290  0.4473
 4822TIP3   OH235956   5.124   2.793   5.403  0.3371  0.1100 -0.1073
 4822TIP3    H135957   5.149   2.852   5.332  0.2294  0.1011 -0.1534
 4822TIP3    H235958   5.068   2.728   5.361  0.3532  0.0486 -0.0331
 4823TIP3   OH235959   6.353   2.837  12.074  0.0354  0.9080  0.6343
 4823TIP3    H135960   6.347   2.847  12.169  1.5088 -0.4739  0.9182
 4823TIP3    H235961   6.404   2.757  12.061  1.8302  2.2565 -1.3009
 4824TIP3   OH235962   2.757   1.212  11.173  0.0983  0.1667 -0.5910
 4824TIP3    H135963   2.804   1.280  11.223 -0.1285 -0.0391 -0.0856
 4824TIP3    H235964   2.732   1.148  11.239 -0.4461  0.0208 -0.9351
 4825TIP3   OH235965   3.713   3.996   1.107 -0.2845  0.0360  0.6426
 4825TIP3    H135966   3.654   3.923   1.087  0.0411  0.0695 -0.5030
 4825TIP3    H235967   3.719   4.045   1.026  0.1208  0.9093  1.1887
 4826TIP3   OH235968   2.179   4.822  15.289 -0.7577 -0.3939  0.3039
 4826TIP3    H135969   2.145   4.905  15.254  1.1299  0.9606  1.5425
 4826TIP3    H235970   2.127   4.755  15.245 -0.2982  1.2884 -3.1238
 4827TIP3   OH235971   4.114   3.446   5.510  0.5227  0.0633  0.4938
 4827TIP3    H135972   4.119   3.361   5.553  1.2980  0.8679  2.1137
 4827TIP3    H235973   4.027   3.449   5.471  0.2425 -1.1927  0.9718
 4828TIP3   OH235974   4.076   0.292  12.881  0.0050  0.1783  0.2576
 4828TIP3    H135975   4.120   0.207  12.873  0.6502  0.3735  1.5059
 4828TIP3    H235976   4.028   0.286  12.963 -2.4500 -0.0538 -1.1031
 4829TIP3   OH235977   1.223   3.588   4.352  0.1033  0.4460  0.1734
 4829TIP3    H135978   1.165   3.591   4.275  0.1488  0.4041  0.1376
 4829TIP3    H235979   1.283   3.661   4.340  2.0204 -1.2630 -1.3289
 4830TIP3   OH235980   2.415   4.267  12.040 -1.1099 -0.8707 -0.5262
 4830TIP3    H135981   2.462   4.317  11.973 -0.3496 -1.9723 -0.8569
 4830TIP3    H235982   2.463   4.284  12.121 -2.7968  1.5077  0.0791
 4831TIP3   OH235983   1.832   6.024   2.350  0.4535 -0.6225  0.1023
 4831TIP3    H135984   1.847   5.934   2.379  0.6865 -0.9234 -0.9390
 4831TIP3    H235985   1.776   6.016   2.273  0.2558  0.1443  0.1546
 4832TIP3   OH235986   2.456   6.037  11.481 -0.4305  0.0391  0.8098
 4832TIP3    H135987   2.541   6.064  11.446  0.7406 -2.1096  1.7918
 4832TIP3    H235988   2.392   6.077  11.422  1.3324 -0.3622 -1.5320
 4833TIP3   OH235989   0.247   3.435  11.658  0.1478  0.0775 -0.2176
 4833TIP3    H135990   0.318   3.383  11.620  1.3515  1.4137  0.1241
 4833TIP3    H235991   0.283   3.524  11.665 -1.7160  0.9014 -0.4502
 4834TIP3   OH235992   5.493   3.222  15.768 -0.1420 -0.0103  0.4856
 4834TIP3    H135993   5.564   3.208  15.705  0.4105 -1.6878  1.4089
 4834TIP3    H235994   5.413   3.216  15.715  0.3494  1.1985 -0.4479
 4835TIP3   OH235995   3.859   1.578  13.178 -0.3273  0.3835 -0.0326
 4835TIP3    H135996   3.820   1.499  13.216 -0.9181  1.7332  2.3797
 4835TIP3    H235997   3.953   1.558  13.174 -0.4382 -0.3903  0.7701
 4836TIP3   OH235998   6.709   2.836  12.830  0.1851 -0.7830  0.5770
 4836TIP3    H135999   6.722   2.913  12.885  0.6952  0.1127 -0.7474
 4836TIP3    H236000   6.614   2.829  12.821  0.1501  0.5082 -0.3588
 4837TIP3   OH236001   1.730   2.057   0.563  0.2764  0.5014  0.2333
 4837TIP3    H136002   1.725   2.152   0.554  0.3315  0.5355  0.5665
 4837TIP3    H236003   1.819   2.040   0.594  0.3744  0.3146 -0.1386
 4838TIP3   OH236004   1.147   2.731  14.020 -0.0532  0.4826  0.7001
 4838TIP3    H136005   1.226   2.676  14.013 -0.6268 -0.4907  1.5717
 4838TIP3    H236006   1.076   2.673  13.991 -0.5374  1.1292  0.5862
 4839TIP3   OH236007   5.072   1.632  17.147 -0.7468 -0.1783 -0.2099
 4839TIP3    H136008   5.158   1.614  17.108  1.2704 -1.0031  4.0841
 4839TIP3    H236009   5.067   1.727  17.150  0.5443 -0.1102  0.4459
 4840TIP3   OH236010   4.571   1.541   2.495  0.3597 -0.6224  0.2684
 4840TIP3    H136011   4.648   1.594   2.516 -0.1504 -0.2033  1.1522
 4840TIP3    H236012   4.548   1.500   2.578 -1.4743  0.7391  0.4816
 4841TIP3   OH236013   5.218   6.455   6.412  0.1068  0.2223  0.0980
 4841TIP3    H136014   5.286   6.461   6.479  1.0027  2.0730 -0.8899
 4841TIP3    H236015   5.155   6.393   6.447  1.3343 -0.0729  1.9283
 4842TIP3   OH236016   6.295   6.098  16.887 -0.6306 -0.0106 -0.1667
 4842TIP3    H136017   6.287   6.152  16.808 -2.3189  0.9975  0.6292
 4842TIP3    H236018   6.252   6.016  16.864  0.2994 -0.3419 -0.7862
 4843TIP3   OH236019   0.215   2.520   0.295 -0.3177 -0.8700  0.2612
 4843TIP3    H136020   0.212   2.482   0.207 -0.4192  1.6679 -0.9341
 4843TIP3    H236021   0.127   2.554   0.310 -0.0558 -0.4504  0.9223
 4844TIP3   OH236022   1.013   1.409  16.854  0.4068  0.0608  0.6688
 4844TIP3    H136023   0.920   1.406  16.834  0.6410 -0.6776 -0.4247
 4844TIP3    H236024   1.056   1.388  16.771  1.6066  2.0519  0.7283
 4845TIP3   OH236025   5.009   3.065   4.984  0.1712  0.3808 -0.7180
 4845TIP3    H136026   4.969   2.987   4.945  0.5605  0.2910 -0.9426
 4845TIP3    H236027   5.091   3.076   4.936 -0.6191  1.8611 -1.7882
 4846TIP3   OH236028   1.399   6.733  11.444 -0.3758 -0.1203 -1.0371
 4846TIP3    H136029   1.360   6.734  11.356 -1.0470  2.2361 -0.7670
 4846TIP3    H236030   1.324   6.742  11.503  0.2530  0.6117 -0.3378
 4847TIP3   OH236031   1.002   5.032  16.051 -0.2010 -0.2550 -0.1536
 4847TIP3    H136032   1.089   5.072  16.047 -0.4832  0.4657  0.5703
 4847TIP3    H236033   0.975   5.023  15.960  0.1210  0.6692 -0.3504
 4848TIP3   OH236034   5.457   4.699   5.220 -0.0535 -0.5202 -0.3896
 4848TIP3    H136035   5.376   4.749   5.232  0.0515 -0.3321 -0.4701
 4848TIP3    H236036   5.490   4.685   5.308 -0.0956 -0.4717 -0.3666
 4849TIP3   OH236037   3.569   2.750  12.565  0.5090 -0.1794 -0.2175
 4849TIP3    H136038   3.554   2.837  12.601 -2.5463 -0.9432  0.6359
 4849TIP3    H236039   3.580   2.764  12.471 -0.5151  1.0928 -0.1725
 4850TIP3   OH236040   1.936   6.458   3.916  0.2283 -0.4614 -0.2991
 4850TIP3    H136041   1.999   6.434   3.847 -1.9118 -2.6273 -1.6889
 4850TIP3    H236042   1.864   6.500   3.869 -1.7344 -2.8545  0.3327
 4851TIP3   OH236043   2.395   5.964   4.735  0.3042  0.5150 -0.4815
 4851TIP3    H136044   2.461   6.029   4.710 -0.8267  1.2629 -1.7177
 4851TIP3    H236045   2.441   5.902   4.791  1.7698  1.6140 -0.4123
 4852TIP3   OH236046   1.318   3.220  12.709  0.3932 -0.2055 -0.5989
 4852TIP3    H136047   1.327   3.125  12.710 -1.1830 -0.3761 -0.2845
 4852TIP3    H236048   1.407   3.252  12.722  1.0518 -1.6200 -1.3374
 4853TIP3   OH236049   1.359   0.601   3.568  0.0653 -0.2772 -0.6875
 4853TIP3    H136050   1.382   0.691   3.547  0.8402 -0.2471  0.2482
 4853TIP3    H236051   1.366   0.595   3.663 -0.2218 -1.2598 -0.7105
 4854TIP3   OH236052   2.872   4.623  13.511  0.4492 -0.5347  0.3174
 4854TIP3    H136053   2.918   4.584  13.437 -1.7273  3.0142 -3.3443
 4854TIP3    H236054   2.911   4.710  13.520 -3.3815  1.5949 -1.2337
 4855TIP3   OH236055   3.785   2.404   4.076  0.0688  0.1075  0.1937
 4855TIP3    H136056   3.838   2.381   4.152  1.6292 -1.0783 -1.1771
 4855TIP3    H236057   3.746   2.321   4.049 -1.9474  0.8265  0.7122
 4856TIP3   OH236058   0.965   5.937   4.817  0.3715  0.2347 -0.9788
 4856TIP3    H136059   1.054   5.969   4.807 -0.4871  2.6344 -1.8369
 4856TIP3    H236060   0.914   6.015   4.842 -1.7711 -0.6507 -2.2835
 4857TIP3   OH236061   3.258   3.702  13.180 -0.4964 -0.4853 -0.2338
 4857TIP3    H136062   3.268   3.611  13.152 -0.3299 -1.0006  1.3629
 4857TIP3    H236063   3.209   3.696  13.262 -1.9003  1.0010 -0.8990
 4858TIP3   OH236064   0.223   2.476  12.839  0.2034  0.4058  0.9205
 4858TIP3    H136065   0.178   2.445  12.760  0.4138  1.1524  0.4939
 4858TIP3    H236066   0.210   2.406  12.903  0.3246 -0.3767  0.1194
 4859TIP3   OH236067   4.818   4.707  16.445  0.1659 -0.1720  0.1042
 4859TIP3    H136068   4.773   4.754  16.515 -0.6226 -0.7135 -0.0235
 4859TIP3    H236069   4.810   4.615  16.470  2.1990 -0.2511  0.6588
 4860TIP3   OH236070   5.900   5.505   2.311  0.6235 -0.4583 -0.3487
 4860TIP3    H136071   5.955   5.475   2.383  1.6513  1.8211 -0.1113
 4860TIP3    H236072   5.901   5.432   2.248 -0.0212 -2.3786  1.7056
 4861TIP3   OH236073   3.672   0.545  16.725 -0.1816 -0.0309 -0.3107
 4861TIP3    H136074   3.736   0.493  16.677 -0.1234  0.9925 -1.4065
 4861TIP3    H236075   3.591   0.538  16.674 -0.8245 -0.9249  0.8038
 4862TIP3   OH236076   6.788   0.674  15.143  0.3052 -0.3010 -0.0674
 4862TIP3    H136077   6.810   0.612  15.074 -0.5375  1.0185 -1.5941
 4862TIP3    H236078   6.794   0.760  15.101 -0.6950  0.5226  1.3726
 4863TIP3   OH236079   0.212   5.782   2.840  0.8052  0.3554 -0.3201
 4863TIP3    H136080   0.119   5.780   2.815  1.1220 -0.9837 -1.4713
 4863TIP3    H236081   0.220   5.713   2.906  1.2850 -0.6222 -1.3837
 4864TIP3   OH236082   3.060   4.522   1.508 -0.1256 -0.3102 -0.4019
 4864TIP3    H136083   2.983   4.544   1.560  0.4153  0.6033  0.0525
 4864TIP3    H236084   3.061   4.426   1.505 -1.4358 -0.3340 -0.6853
 4865TIP3   OH236085   2.283   6.660  13.455  0.6771  0.1276 -0.1675
 4865TIP3    H136086   2.322   6.637  13.370 -1.3404 -3.0299 -0.4024
 4865TIP3    H236087   2.240   6.744  13.440  0.1653 -0.4668 -2.3662
 4866TIP3   OH236088   1.181   3.692  17.065  0.3894 -0.3042  0.5519
 4866TIP3    H136089   1.247   3.667  17.000  0.3138  0.0021  0.3579
 4866TIP3    H236090   1.218   3.769  17.108 -0.2334  0.3994 -0.1607
 4867TIP3   OH236091   2.691   2.629   3.494  0.7590 -0.3598  0.6215
 4867TIP3    H136092   2.644   2.554   3.458  0.9345 -1.9369  3.4122
 4867TIP3    H236093   2.624   2.679   3.540  1.4125 -2.2144  3.9643
 4868TIP3   OH236094   2.915   0.895  11.770  0.4960 -0.4297  0.0037
 4868TIP3    H136095   2.942   0.948  11.845  1.4619  2.5385 -2.2170
 4868TIP3    H236096   2.820   0.891  11.777  0.6720 -2.4781  2.6570
 4869TIP3   OH236097   2.730   4.070  14.062  0.0467 -0.0660 -0.4956
 4869TIP3    H136098   2.798   4.124  14.021  0.3098 -0.9985 -1.3153
 4869TIP3    H236099   2.773   4.033  14.140  0.0360  0.4445 -0.2415
 4870TIP3   OH236100   1.472   6.622  17.204  0.2283  0.6281 -0.0599
 4870TIP3    H136101   1.407   6.596  17.268 -1.4022 -0.2966 -1.9879
 4870TIP3    H236102   1.541   6.555  17.211 -1.2608 -1.0856 -1.1274
 4871TIP3   OH236103   4.005   6.738   1.852  0.4573 -0.2849 -0.4657
 4871TIP3    H136104   3.966   6.654   1.830  0.1157  0.1490 -1.6053
 4871TIP3    H236105   4.067   6.756   1.781  1.8361 -0.3730  0.6751
 4872TIP3   OH236106   0.170   2.714  15.230  1.1941 -0.2323  0.3262
 4872TIP3    H136107   0.189   2.628  15.267  0.4568 -0.5332  0.0254
 4872TIP3    H236108   0.128   2.696  15.146  0.5245  0.4133  0.5123
 4873TIP3   OH236109   3.199   6.196   2.454 -0.0158 -0.0059 -0.3502
 4873TIP3    H136110   3.203   6.291   2.456  0.5970 -0.0209 -0.7314
 4873TIP3    H236111   3.240   6.169   2.537  0.8388  0.0434 -0.7423
 4874TIP3   OH236112   2.579   4.113  15.530  0.2631  0.3196 -0.4020
 4874TIP3    H136113   2.647   4.052  15.503  0.9660  0.0426  1.7928
 4874TIP3    H236114   2.497   4.065  15.517  0.5579  0.1596 -1.7901
 4875TIP3   OH236115   5.928   0.577   3.296 -0.0517 -0.1320  0.1620
 4875TIP3    H136116   5.969   0.494   3.318 -1.5582 -1.4575 -1.7227
 4875TIP3    H236117   5.861   0.555   3.232 -0.8602  2.4842 -0.0222
 4876TIP3   OH236118   3.521   5.073   0.275  0.0707 -0.6452 -0.1372
 4876TIP3    H136119   3.462   5.106   0.207  0.2016  0.6250  0.3336
 4876TIP3    H236120   3.476   5.094   0.357 -0.1102 -2.2120  0.1845
 4877TIP3   OH236121   0.873   5.310   2.818 -0.3667 -0.1853  0.4983
 4877TIP3    H136122   0.901   5.309   2.726  0.0357  0.3625  0.6121
 4877TIP3    H236123   0.792   5.360   2.819  0.8877  1.9765  0.7724
 4878TIP3   OH236124   0.938   2.894   2.725 -0.0018  0.2935  0.2972
 4878TIP3    H136125   0.872   2.896   2.794 -0.4495 -0.8842 -0.0645
 4878TIP3    H236126   0.968   2.984   2.717 -1.2352  0.7624  0.7899
 4879TIP3   OH236127   5.024   0.598   0.530 -0.4007  0.5696  0.3395
 4879TIP3    H136128   5.089   0.590   0.460 -0.5293  0.2237  0.2572
 4879TIP3    H236129   5.076   0.609   0.610 -0.2546  1.1050  0.1759
 4880TIP3   OH236130   6.447   5.174   4.429  0.2155  0.6085  0.0611
 4880TIP3    H136131   6.356   5.196   4.406 -0.2260  0.6647  1.7329
 4880TIP3    H236132   6.452   5.079   4.419 -0.6907  0.3131  2.0102
 4881TIP3   OH236133   4.268   5.063   0.730  0.7539  0.1167 -0.5290
 4881TIP3    H136134   4.256   5.100   0.817  2.6148  0.0945 -0.2142
 4881TIP3    H236135   4.262   5.138   0.670 -1.9680 -0.0636 -0.5806
 4882TIP3   OH236136   5.335   0.390  15.727 -0.0862  0.0742  0.0317
 4882TIP3    H136137   5.373   0.407  15.813 -0.8043  0.3523  0.3006
 4882TIP3    H236138   5.291   0.472  15.704 -2.1445 -0.8180  0.5902
 4883TIP3   OH236139   6.702   3.725   2.637  0.1637  0.0709 -0.7779
 4883TIP3    H136140   6.613   3.702   2.611 -0.0301  0.7565 -0.7364
 4883TIP3    H236141   6.725   3.799   2.581  0.5665  0.1411 -0.5215
 4884TIP3   OH236142   0.412   5.944   1.332 -0.2137 -0.3654  0.4386
 4884TIP3    H136143   0.499   5.910   1.312 -0.0566 -0.6519  1.5224
 4884TIP3    H236144   0.418   6.038   1.317  0.0393 -0.4939 -0.2922
 4885TIP3   OH236145   0.594   4.940  16.869  0.4566  0.1156  0.1326
 4885TIP3    H136146   0.663   4.904  16.925  1.3355  1.8555  0.2388
 4885TIP3    H236147   0.629   5.024  16.838 -1.9329  1.4748  0.8409
 4886TIP3   OH236148   1.860   1.944   5.739 -0.4018  0.4577  1.1239
 4886TIP3    H136149   1.886   1.988   5.658 -0.5899  1.5858  1.6576
 4886TIP3    H236150   1.874   1.851   5.722 -0.5009  0.6762 -0.2255
 4887TIP3   OH236151   2.721   1.569  11.707 -0.8792  0.1997  0.5217
 4887TIP3    H136152   2.703   1.505  11.638 -1.4099  1.0174 -0.1258
 4887TIP3    H236153   2.671   1.646  11.681  1.8822  1.8832 -0.2137
 4888TIP3   OH236154   2.411   0.682  10.561 -0.0282  0.1790 -0.1545
 4888TIP3    H136155   2.338   0.733  10.596 -0.1646 -0.1840  0.0891
 4888TIP3    H236156   2.371   0.614  10.508  0.0844 -0.5970  0.7365
 4889TIP3   OH236157   6.698   4.085   4.683  0.2703 -0.2025  0.3518
 4889TIP3    H136158   6.670   4.176   4.681  1.5441  0.2113  0.3678
 4889TIP3    H236159   6.667   4.048   4.601 -0.2477  0.2515  0.3407
 4890TIP3   OH236160   4.735   2.050  12.826 -0.1200  0.1605 -0.5005
 4890TIP3    H136161   4.758   1.959  12.808 -1.1232 -0.5473  1.4585
 4890TIP3    H236162   4.764   2.064  12.916 -0.1524  1.7208 -0.7149
 4891TIP3   OH236163   3.914   6.570  16.201  0.3689  0.6098 -0.3789
 4891TIP3    H136164   3.888   6.639  16.263 -0.8589  0.1167 -0.3063
 4891TIP3    H236165   4.006   6.587  16.183 -0.0431  2.6291 -0.8155
 4892TIP3   OH236166   3.481   2.098   2.385  0.3548 -0.0746 -0.3838
 4892TIP3    H136167   3.494   2.192   2.389 -0.8437  0.1671 -1.4799
 4892TIP3    H236168   3.387   2.086   2.399  0.6336 -1.1975  0.7421
 4893TIP3   OH236169   6.230   6.035  12.602 -0.3435 -0.0423  0.4418
 4893TIP3    H136170   6.298   6.028  12.535  0.4698 -1.6180  1.3788
 4893TIP3    H236171   6.152   5.995  12.561 -0.1704  0.0117  0.0513
 4894TIP3   OH236172   0.592   6.040  16.309  0.0984  0.2236  0.5995
 4894TIP3    H136173   0.562   6.031  16.219  0.7764  2.4295  0.1011
 4894TIP3    H236174   0.526   6.095  16.351 -0.0788 -0.5775  1.4186
 4895TIP3   OH236175   2.297   3.255  16.579  0.8084  0.3808 -0.3122
 4895TIP3    H136176   2.296   3.304  16.661 -1.6767 -1.0189  0.6116
 4895TIP3    H236177   2.374   3.287  16.532  1.4791  2.2709  1.9166
 4896TIP3   OH236178   6.801   5.977  14.385  0.0329  0.2499 -0.8874
 4896TIP3    H136179   6.724   5.981  14.328 -0.9438  1.1309  0.4274
 4896TIP3    H236180   6.868   6.028  14.339 -0.5651  0.5146 -1.4824
 4897TIP3   OH236181   5.051   3.821  14.673 -0.1930 -0.2754 -0.3810
 4897TIP3    H136182   5.074   3.899  14.723  1.6260  0.3893 -2.1132
 4897TIP3    H236183   5.026   3.756  14.739  1.4509  0.7629  1.3468
 4898TIP3   OH236184   5.719   0.576   5.716 -0.0927 -0.3379 -0.1186
 4898TIP3    H136185   5.625   0.569   5.701 -0.3997  3.8534 -1.5065
 4898TIP3    H236186   5.727   0.621   5.800  0.3960  1.8922 -1.2623
 4899TIP3   OH236187   2.666   6.366   0.188 -0.5712  0.1599 -0.0648
 4899TIP3    H136188   2.624   6.410   0.261 -0.4378 -1.1389  0.8326
 4899TIP3    H236189   2.693   6.281   0.223 -0.2684 -0.3988 -1.5509
 4900TIP3   OH236190   6.457   1.753  13.207 -0.5982  0.2035 -0.3546
 4900TIP3    H136191   6.388   1.747  13.273 -0.4131  1.4465 -0.0196
 4900TIP3    H236192   6.519   1.684  13.230 -0.0729  1.1882  1.3386
 4901TIP3   OH236193   6.143   6.597  11.579  0.0106  0.3900 -0.2499
 4901TIP3    H136194   6.081   6.664  11.550  2.3466  2.1593 -1.4377
 4901TIP3    H236195   6.116   6.518  11.533 -2.5415  0.5295  0.8308
 4902TIP3   OH236196   5.215   3.720   2.212 -0.3458  0.2137  0.5716
 4902TIP3    H136197   5.270   3.643   2.198 -0.1955  0.2016  1.2070
 4902TIP3    H236198   5.277   3.792   2.225 -0.4859  0.3219  0.6467
 4903TIP3   OH236199   4.981   2.364   0.649  0.5614 -0.2933  0.0262
 4903TIP3    H136200   4.967   2.363   0.554  0.0830 -1.2152  0.1001
 4903TIP3    H236201   5.051   2.429   0.662  1.2606 -0.8012 -1.0491
 4904TIP3   OH236202   2.669   0.711  12.409 -0.2739 -0.2060  0.4205
 4904TIP3    H136203   2.727   0.651  12.363 -0.4916 -0.0603 -0.0430
 4904TIP3    H236204   2.581   0.681  12.389 -0.3910  0.4015  0.0027
 4905TIP3   OH236205   0.876   4.527   4.174  0.7424 -0.1204 -0.1042
 4905TIP3    H136206   0.782   4.532   4.190  0.9299  1.4437  0.6257
 4905TIP3    H236207   0.911   4.478   4.248  0.7123  0.8891  0.5952
 4906TIP3   OH236208   6.173   1.206   2.241 -0.0374  0.2867  0.2793
 4906TIP3    H136209   6.120   1.129   2.222 -0.1498  0.6464 -1.0076
 4906TIP3    H236210   6.113   1.280   2.228 -0.1280  0.5965  2.1865
 4907TIP3   OH236211   0.057   2.509   6.007  0.6502  0.3268 -0.3109
 4907TIP3    H136212   0.028   2.495   6.097  0.4394 -0.4952 -0.4943
 4907TIP3    H236213   0.102   2.428   5.984  0.8533  0.5997 -0.8861
 4908TIP3   OH236214   1.979   4.312  16.425 -0.3001 -0.7220 -0.3377
 4908TIP3    H136215   1.991   4.369  16.501 -0.0484 -1.0434 -0.1342
 4908TIP3    H236216   1.944   4.370  16.357  2.9239  0.4688 -1.1823
 4909TIP3   OH236217   4.866   3.083   0.650 -0.2953  0.2587  0.7193
 4909TIP3    H136218   4.941   3.094   0.591 -0.6604 -0.4649  0.1103
 4909TIP3    H236219   4.887   3.139   0.725  0.6096  0.4759  0.3226
 4910TIP3   OH236220   3.975   0.822   1.843 -0.3845 -0.3611 -0.8197
 4910TIP3    H136221   3.939   0.886   1.782  0.5018  0.2292 -0.7464
 4910TIP3    H236222   3.996   0.746   1.789 -1.8244 -0.7732 -0.8394
 4911TIP3   OH236223   3.527   2.917   5.858 -0.0117  0.2487  0.4439
 4911TIP3    H136224   3.447   2.869   5.881  0.8935 -1.1249  0.8883
 4911TIP3    H236225   3.561   2.948   5.942  0.8433 -0.7378  0.4844
 4912TIP3   OH236226   6.570   1.310   2.109  0.3406 -0.3048 -0.2275
 4912TIP3    H136227   6.614   1.344   2.030 -0.3102 -0.8116 -0.8197
 4912TIP3    H236228   6.512   1.381   2.136 -0.4606 -0.6295 -1.0283
 4913TIP3   OH236229   1.292   0.496   1.823 -0.0231  0.1505 -0.5921
 4913TIP3    H136230   1.376   0.542   1.826 -0.4172  0.8489  0.4780
 4913TIP3    H236231   1.243   0.540   1.754  0.5454 -0.4057 -1.3778
 4914TIP3   OH236232   3.661   1.010  15.546  0.2379 -0.1499 -0.0561
 4914TIP3    H136233   3.589   0.953  15.574  1.0440 -0.9010  0.5952
 4914TIP3    H236234   3.697   1.045  15.628  0.6669  0.1392 -0.3611
 4915TIP3   OH236235   4.695   4.366  11.836  0.2696 -0.2125  0.6017
 4915TIP3    H136236   4.654   4.366  11.750 -1.0232 -1.3320  1.1886
 4915TIP3    H236237   4.729   4.277  11.847  0.5795 -0.0307  1.1791
 4916TIP3   OH236238   2.728   6.220  15.064 -0.7481  0.2340  0.2163
 4916TIP3    H136239   2.745   6.185  15.152  0.3161 -0.9279 -0.4197
 4916TIP3    H236240   2.746   6.314  15.073 -0.2184  0.0685  1.1460
 4917TIP3   OH236241   4.263   2.135  17.005  0.1000  0.2411 -0.3359
 4917TIP3    H136242   4.272   2.106  16.914 -0.8971 -0.2776 -0.2820
 4917TIP3    H236243   4.199   2.075  17.044  1.0325  0.0049  0.9157
 4918TIP3   OH236244   3.719   0.180  15.874 -0.3113 -0.0096 -0.4979
 4918TIP3    H136245   3.626   0.196  15.891 -0.4414 -0.0830 -1.1097
 4918TIP3    H236246   3.748   0.128  15.949 -0.4406  1.0984  0.3495
 4919TIP3   OH236247   4.600   6.699  13.574  0.1312 -0.0623  0.6431
 4919TIP3    H136248   4.657   6.713  13.650  1.3760 -0.8351 -0.0967
 4919TIP3    H236249   4.586   6.786  13.537  1.1243  0.1096  0.6522
 4920TIP3   OH236250   1.560   0.946  13.772 -0.3255 -0.2139  0.5200
 4920TIP3    H136251   1.633   0.934  13.833  0.7963 -0.4581 -0.8018
 4920TIP3    H236252   1.536   0.856  13.747 -0.0880 -0.0954 -0.1542
 4921TIP3   OH236253   0.790   0.925   3.858  0.0425  0.4801 -0.5086
 4921TIP3    H136254   0.697   0.945   3.857 -0.6013 -1.9675  1.4012
 4921TIP3    H236255   0.817   0.944   3.948  1.6667  1.9585 -1.2307
 4922TIP3   OH236256   6.151   1.484  16.288 -0.2586  0.2213 -0.1893
 4922TIP3    H136257   6.092   1.423  16.332 -1.9727  1.3197 -0.8837
 4922TIP3    H236258   6.223   1.497  16.351 -1.4641 -0.0400  1.3034
 4923TIP3   OH236259   1.464   5.904  16.107 -0.2978  0.3933 -0.5415
 4923TIP3    H136260   1.500   5.895  16.195 -2.1268  0.8574  0.3113
 4923TIP3    H236261   1.389   5.962  16.118  0.1808  1.5072 -2.6535
 4924TIP3   OH236262   0.708   3.589  12.947  0.2555  0.1138  0.9027
 4924TIP3    H136263   0.757   3.509  12.965 -0.0562 -0.2008  0.3641
 4924TIP3    H236264   0.774   3.653  12.919  0.3800 -0.2455  0.3800
 4925TIP3   OH236265   3.157   2.935  15.996  0.4643  0.0172  0.1280
 4925TIP3    H136266   3.129   2.866  16.056  1.1293 -1.2965 -1.0243
 4925TIP3    H236267   3.211   2.993  16.050  0.3924 -0.6894  0.9855
 4926TIP3   OH236268   2.127   2.588  11.619  0.4315  0.4123  0.2889
 4926TIP3    H136269   2.074   2.560  11.544  0.2459  1.0252  0.1888
 4926TIP3    H236270   2.066   2.585  11.693  0.4757  0.3255  0.3217
 4927TIP3   OH236271   2.440   0.676  14.410  0.2177  0.1861 -0.3820
 4927TIP3    H136272   2.421   0.753  14.358  1.8572  0.5029 -0.5651
 4927TIP3    H236273   2.478   0.710  14.491 -1.9616 -0.3115  0.9394
 4928TIP3   OH236274   5.818   3.321   3.828  0.3637 -0.1878  0.3729
 4928TIP3    H136275   5.807   3.413   3.805 -0.0587 -0.0172  1.2178
 4928TIP3    H236276   5.905   3.298   3.794  1.5149  1.1974  2.2381
 4929TIP3   OH236277   1.841   4.214  15.215  0.0711  0.5352  0.1434
 4929TIP3    H136278   1.899   4.199  15.289 -1.4750  1.5409  1.6335
 4929TIP3    H236279   1.849   4.308  15.196  0.1440  0.3688 -0.7236
 4930TIP3   OH236280   6.408   2.113   3.615  0.1979  0.4574  0.8596
 4930TIP3    H136281   6.358   2.190   3.590  0.1609  0.6811  1.6035
 4930TIP3    H236282   6.450   2.137   3.698  0.7617 -0.0655  0.7356
 4931TIP3   OH236283   5.654   1.052   6.144 -0.2708  0.3692  0.5174
 4931TIP3    H136284   5.688   1.064   6.055 -1.1287 -0.1628  0.1046
 4931TIP3    H236285   5.603   1.132   6.160  0.1423  0.6061  0.6534
 4932TIP3   OH236286   4.660   3.870  14.755 -0.1065 -0.1565  0.1529
 4932TIP3    H136287   4.663   3.780  14.721 -1.8684 -0.1296 -0.1777
 4932TIP3    H236288   4.657   3.860  14.850  0.8752 -0.3858  0.1706
 4933TIP3   OH236289   1.822   3.475  15.392  0.4221  0.4449  0.0701
 4933TIP3    H136290   1.853   3.565  15.392  0.8494  0.2998  0.5839
 4933TIP3    H236291   1.778   3.465  15.307  1.6438  0.6904 -0.6150
 4934TIP3   OH236292   4.882   4.872  13.563 -0.4506  0.6116 -0.4012
 4934TIP3    H136293   4.798   4.891  13.521  0.3269  2.2820 -1.2879
 4934TIP3    H236294   4.948   4.907  13.504  0.8480  0.1881  0.7271
 4935TIP3   OH236295   2.955   2.303   4.196 -0.0671 -0.2806  0.3535
 4935TIP3    H136296   2.907   2.220   4.199 -2.1595  0.8237 -0.4887
 4935TIP3    H236297   2.932   2.341   4.111  1.3023  0.8989  0.4800
 4936TIP3   OH236298   3.343   2.551  14.882  0.1552  0.3405 -0.8020
 4936TIP3    H136299   3.333   2.566  14.976 -3.0056 -0.4144 -0.9054
 4936TIP3    H236300   3.429   2.509  14.873  1.0174  1.4359  1.5639
 4937TIP3   OH236301   4.637   5.378   1.343 -0.1880 -0.1476  0.1740
 4937TIP3    H136302   4.558   5.394   1.292 -0.8268  0.7128  1.3771
 4937TIP3    H236303   4.611   5.393   1.434  1.7996  2.0998  0.4797
 4938TIP3   OH236304   6.685   0.904   5.083  0.0349 -0.2583 -0.0057
 4938TIP3    H136305   6.707   0.862   5.166  1.1015 -1.1764 -0.7227
 4938TIP3    H236306   6.612   0.962   5.104 -0.9329 -1.8403  1.2088
 4939TIP3   OH236307   0.674   5.681   2.402  0.1814  0.1633 -0.2664
 4939TIP3    H136308   0.720   5.611   2.357  2.7105 -0.7357  3.2463
 4939TIP3    H236309   0.744   5.737   2.437 -1.6348  2.0906  0.5265
 4940TIP3   OH236310   0.653   5.765  13.545  0.1082  0.1677  0.2770
 4940TIP3    H136311   0.567   5.725  13.559  0.5166 -0.5206  0.9408
 4940TIP3    H236312   0.677   5.800  13.631 -0.3383  2.0935 -0.3527
 4941TIP3   OH236313   5.755   5.685   6.399  0.0730  0.0805 -0.8611
 4941TIP3    H136314   5.770   5.612   6.339 -0.9889 -0.9557  0.0603
 4941TIP3    H236315   5.660   5.699   6.396 -0.1024 -0.3932  0.9515
 4942TIP3   OH236316   4.076   1.366  14.462 -0.5723  0.0360 -0.1806
 4942TIP3    H136317   4.047   1.296  14.404  0.8339 -1.5525  0.9310
 4942TIP3    H236318   4.136   1.418  14.408  1.9003 -2.2927  0.1508
 4943TIP3   OH236319   6.178   1.101  15.090  0.6722  0.3634 -0.3393
 4943TIP3    H136320   6.212   1.077  15.004  1.0231  1.4726 -0.5243
 4943TIP3    H236321   6.083   1.100  15.080  0.7186  0.8602 -0.8500
 4944TIP3   OH236322   6.275   6.430   5.326  0.5162  0.2125 -0.4465
 4944TIP3    H136323   6.254   6.388   5.409  1.7085 -1.7005 -1.0610
 4944TIP3    H236324   6.255   6.364   5.259  1.2152  1.0842 -1.5530
 4945TIP3   OH236325   0.932   1.056  16.256 -0.2551 -0.0982 -0.0451
 4945TIP3    H136326   0.987   1.074  16.180  0.1295 -0.5936  0.1118
 4945TIP3    H236327   0.938   0.962  16.268 -0.2691 -0.0158  0.6356
 4946TIP3   OH236328   3.491   3.555  15.369  0.2612  0.2046 -0.1426
 4946TIP3    H136329   3.479   3.622  15.436 -1.0362  1.0031 -1.1155
 4946TIP3    H236330   3.543   3.487  15.411  0.1832  1.0654  1.3976
 4947TIP3   OH236331   4.456   3.175   2.064  0.0337  0.6186 -0.3878
 4947TIP3    H136332   4.421   3.210   1.982 -2.0963  3.2855  1.4786
 4947TIP3    H236333   4.379   3.168   2.121  1.4617 -1.0153  1.4864
 4948TIP3   OH236334   5.253   6.632   1.313  0.5017  0.0788  0.1915
 4948TIP3    H136335   5.348   6.635   1.298  0.7655  0.8088  1.7967
 4948TIP3    H236336   5.224   6.723   1.304  0.3077  0.1829  1.6644
 4949TIP3   OH236337   2.668   6.080  16.111  0.5570  0.2877 -0.0493
 4949TIP3    H136338   2.602   6.130  16.063 -0.3885 -0.6367  0.2415
 4949TIP3    H236339   2.707   6.023  16.045 -0.2724 -0.5034  0.1216
 4950TIP3   OH236340   1.189   3.030   3.555  0.0535  0.0433 -0.2120
 4950TIP3    H136341   1.139   3.021   3.475  0.7164  0.7007 -0.7196
 4950TIP3    H236342   1.281   3.026   3.527  0.3385  2.2861  0.1967
 4951TIP3   OH236343   3.703   0.729   3.225 -0.2634 -0.3305 -0.7673
 4951TIP3    H136344   3.701   0.658   3.161 -0.2876 -1.3518  0.3336
 4951TIP3    H236345   3.613   0.736   3.256  0.2488 -1.8464  1.2472
 4952TIP3   OH236346   2.743   5.431  13.018 -0.1173 -0.4349 -0.3800
 4952TIP3    H136347   2.729   5.473  13.103  1.7082  0.1922 -0.3525
 4952TIP3    H236348   2.690   5.482  12.957 -0.0020  0.2681  0.0960
 4953TIP3   OH236349   0.841   1.137   2.263  0.7523 -0.3606  0.2549
 4953TIP3    H136350   0.754   1.115   2.230  0.7312 -1.3178  0.9117
 4953TIP3    H236351   0.834   1.228   2.292 -0.3323 -0.7469  1.2706
 4954TIP3   OH236352   4.470   6.714  16.940  0.4056  0.1902  0.0480
 4954TIP3    H136353   4.479   6.809  16.948  0.8572  0.1072  0.6471
 4954TIP3    H236354   4.532   6.679  17.004  0.8074 -0.5177 -0.7156
 4955TIP3   OH236355   2.731   5.207   3.046 -0.6054 -0.0188 -0.3984
 4955TIP3    H136356   2.712   5.274   2.980  0.5887 -2.4249 -3.4257
 4955TIP3    H236357   2.777   5.254   3.115 -1.3633  2.5515 -1.5022
 4956TIP3   OH236358   5.214   3.467   6.300 -0.0800 -0.1040 -0.6393
 4956TIP3    H136359   5.230   3.421   6.218  0.1045 -0.4777 -0.4007
 4956TIP3    H236360   5.120   3.460   6.314 -0.2261  0.6020 -1.1836
 4957TIP3   OH236361   1.865   2.409   3.805  0.0438  0.5247 -0.1824
 4957TIP3    H136362   1.903   2.456   3.730 -1.4695 -1.1928 -2.1664
 4957TIP3    H236363   1.885   2.317   3.786 -1.6538 -0.0634  0.7592
 4958TIP3   OH236364   3.484   0.836   4.109  0.1479  0.0628  0.3773
 4958TIP3    H136365   3.487   0.747   4.143 -0.4387 -0.7606 -1.5442
 4958TIP3    H236366   3.425   0.830   4.034 -0.3782  2.2136  0.5589
 4959TIP3   OH236367   5.299   0.073   5.120 -0.7817 -0.2218 -0.7105
 4959TIP3    H136368   5.265   0.086   5.032 -0.0693  0.3213 -0.9077
 4959TIP3    H236369   5.223   0.089   5.177 -0.9740  0.5423 -1.1688
 4960TIP3   OH236370   5.711   1.058  13.818  0.0905 -0.1286  0.3560
 4960TIP3    H136371   5.732   1.131  13.876 -2.4329  0.6431  0.4110
 4960TIP3    H236372   5.709   1.096  13.730 -0.2877 -0.3549  0.2646
 4961TIP3   OH236373   0.411   0.276  11.443  0.0074 -0.1395  0.1553
 4961TIP3    H136374   0.413   0.333  11.366 -1.2621 -1.4129 -0.8925
 4961TIP3    H236375   0.398   0.336  11.517 -0.2294  1.0136 -0.7838
 4962TIP3   OH236376   4.091   3.673  12.854 -0.3315 -0.1278  0.4067
 4962TIP3    H136377   4.081   3.606  12.922 -3.8999 -0.6001 -0.3956
 4962TIP3    H236378   4.107   3.624  12.774  1.1130  0.2834  0.4138
 4963TIP3   OH236379   4.451   5.328   2.538 -0.3874 -0.2447  0.9155
 4963TIP3    H136380   4.389   5.399   2.522 -1.8924 -1.6961 -0.1741
 4963TIP3    H236381   4.414   5.282   2.614  0.0317 -0.4210  1.0137
 4964TIP3   OH236382   2.782   2.834   0.392 -0.1987  0.0878  0.0755
 4964TIP3    H136383   2.859   2.873   0.350 -0.6127 -0.0332 -0.8122
 4964TIP3    H236384   2.804   2.833   0.485  0.9370 -0.0791 -0.1767
 4965TIP3   OH236385   4.222   4.571   3.869  0.1634  0.3064 -0.3536
 4965TIP3    H136386   4.285   4.603   3.805 -0.5849  1.3016 -0.6093
 4965TIP3    H236387   4.238   4.624   3.947  0.1755  0.0095 -0.1516
 4966TIP3   OH236388   4.359   3.524   1.645  0.2333 -0.2201 -0.4748
 4966TIP3    H136389   4.384   3.608   1.685  1.2647  0.3221 -2.1606
 4966TIP3    H236390   4.279   3.544   1.596  1.7410  0.4350 -2.8084
 4967TIP3   OH236391   4.801   3.576   5.806  0.4765 -0.2116  0.2870
 4967TIP3    H136392   4.822   3.500   5.753  0.8542  1.4829 -2.1584
 4967TIP3    H236393   4.706   3.574   5.815  0.5574 -1.5065  1.2248
 4968TIP3   OH236394   6.341   2.873   1.502  0.4479 -0.0732  0.9437
 4968TIP3    H136395   6.426   2.832   1.485  0.2056 -0.0216 -0.4525
 4968TIP3    H236396   6.363   2.964   1.523  0.8684 -0.5151  2.5911
 4969TIP3   OH236397   4.031   0.245   3.738 -0.0608  1.2265  0.0465
 4969TIP3    H136398   3.964   0.183   3.706  1.5124 -0.7858  0.4468
 4969TIP3    H236399   4.031   0.233   3.833 -0.6692  2.8926  0.2803
 4970TIP3   OH236400   4.298   5.321   5.620  0.3753  0.1085 -0.2556
 4970TIP3    H136401   4.301   5.417   5.617 -0.0703  0.1019 -1.7734
 4970TIP3    H236402   4.375   5.293   5.570 -1.0417 -0.2808 -2.3148
 4971TIP3   OH236403   0.371   5.590  12.992  0.2835 -0.2345  0.4370
 4971TIP3    H136404   0.342   5.658  12.931 -0.2829 -1.0395 -0.2257
 4971TIP3    H236405   0.460   5.616  13.017 -0.1687  1.0732  0.7093
 4972TIP3   OH236406   3.138   6.490  12.660 -0.4832 -0.0114 -0.1892
 4972TIP3    H136407   3.156   6.580  12.686 -0.7647 -0.1878  0.6711
 4972TIP3    H236408   3.194   6.474  12.584 -1.6841  1.4419 -1.4515
 4973TIP3   OH236409   0.813   1.350   4.235 -0.3971  0.5821 -0.1839
 4973TIP3    H136410   0.890   1.301   4.206  0.4997  1.3474  0.8273
 4973TIP3    H236411   0.805   1.422   4.172  2.0452  2.7323  1.7554
 4974TIP3   OH236412   5.996   0.169   1.248  0.3845 -0.2989 -0.3895
 4974TIP3    H136413   6.001   0.134   1.337 -1.7763  0.3803  0.0695
 4974TIP3    H236414   6.018   0.095   1.191 -0.5929 -1.4243  0.6516
 4975TIP3   OH236415   2.642   1.822  12.530 -0.0479 -0.3867  0.0394
 4975TIP3    H136416   2.594   1.806  12.612 -1.2355  0.9132 -0.3618
 4975TIP3    H236417   2.634   1.916  12.516  2.3300 -0.1756 -0.2699
 4976TIP3   OH236418   5.180   4.609   0.389  0.4161  0.0358  0.2859
 4976TIP3    H136419   5.258   4.568   0.351  0.7726  1.1577 -0.2625
 4976TIP3    H236420   5.209   4.697   0.413  0.0531 -0.4590  2.7312
 4977TIP3   OH236421   6.715   1.286   4.672  0.4414  0.1520 -0.5208
 4977TIP3    H136422   6.639   1.228   4.664 -0.3370  0.9644  0.5725
 4977TIP3    H236423   6.791   1.230   4.656 -0.3760 -0.7421 -1.3409
 4978TIP3   OH236424   4.845   0.554  16.357 -0.1335  0.0258  0.3005
 4978TIP3    H136425   4.752   0.578  16.366  0.1284  0.9663  0.6000
 4978TIP3    H236426   4.852   0.470  16.403 -1.0131 -0.4990 -0.4865
 4979TIP3   OH236427   2.461   6.310   1.669  0.2512  0.1025  0.2143
 4979TIP3    H136428   2.477   6.349   1.755  1.0094 -2.1587  1.1538
 4979TIP3    H236429   2.395   6.243   1.684 -0.0795  0.0900 -1.1159
 4980TIP3   OH236430   5.772   2.700  11.462  0.0800  0.2463 -0.5469
 4980TIP3    H136431   5.740   2.654  11.539 -0.3286 -0.9592 -1.4010
 4980TIP3    H236432   5.728   2.784  11.463  1.1780  0.8450  1.2931
 4981TIP3   OH236433   4.565   0.277   5.169  0.3144  0.3550 -0.1779
 4981TIP3    H136434   4.597   0.278   5.078 -2.7060  0.7662 -1.3564
 4981TIP3    H236435   4.572   0.368   5.197 -0.3062  0.5607 -0.6516
 4982TIP3   OH236436   1.019   5.729   5.782 -0.0713 -0.9862 -0.0353
 4982TIP3    H136437   1.049   5.679   5.706 -0.6481  0.2170 -1.0995
 4982TIP3    H236438   1.014   5.665   5.853 -0.1057 -2.2746 -1.1567
 4983TIP3   OH236439   1.979   3.950  13.576  0.0795  0.0269 -0.3055
 4983TIP3    H136440   1.970   3.867  13.529 -0.2214 -0.4331  0.5590
 4983TIP3    H236441   1.994   3.925  13.667  0.1722  0.9189 -0.0690
 4984TIP3   OH236442   0.285   1.619  12.934  0.0226  0.0578  0.5143
 4984TIP3    H136443   0.256   1.684  12.870 -0.6745 -0.9552 -0.2239
 4984TIP3    H236444   0.350   1.567  12.888 -0.1656 -0.4054  0.7621
 4985TIP3   OH236445   2.164   5.137  11.272  0.8828 -0.4785 -0.3549
 4985TIP3    H136446   2.249   5.180  11.283  0.4712 -0.1580  2.1977
 4985TIP3    H236447   2.100   5.206  11.290  0.0302 -0.7799 -2.0093
 4986TIP3   OH236448   1.254   5.674  15.508  0.3912  0.0922 -0.2654
 4986TIP3    H136449   1.233   5.752  15.457  0.9233  0.7527  0.4894
 4986TIP3    H236450   1.348   5.683  15.526  0.8845 -1.6159 -1.6445
 4987TIP3   OH236451   5.840   5.229   1.714 -0.0675 -0.0973  0.1782
 4987TIP3    H136452   5.784   5.192   1.646 -0.7101 -0.3947  0.8536
 4987TIP3    H236453   5.885   5.153   1.753 -0.5663 -0.0598  0.8412
 4988TIP3   OH236454   2.031   5.477   1.669 -0.0356 -0.3586 -0.5217
 4988TIP3    H136455   2.125   5.461   1.656  0.3753 -0.5323  2.1277
 4988TIP3    H236456   1.994   5.389   1.681 -0.2842 -0.2078 -0.1745
 4989TIP3   OH236457   0.231   0.170  11.674 -0.5421 -1.1717  0.2464
 4989TIP3    H136458   0.284   0.167  11.594 -1.4251 -0.6951 -0.3641
 4989TIP3    H236459   0.253   0.088  11.719  1.4588 -0.5588  0.5060
 4990TIP3   OH236460   5.486   2.740  14.375  0.4726  0.4891  0.4134
 4990TIP3    H136461   5.402   2.784  14.359  0.6203  0.5855 -0.1341
 4990TIP3    H236462   5.491   2.674  14.306  1.7388  1.7707 -0.7903
 4991TIP3   OH236463   1.749   1.095   5.134 -0.5605  0.1820  0.3653
 4991TIP3    H136464   1.655   1.078   5.136 -0.5330  0.0684  1.3407
 4991TIP3    H236465   1.767   1.138   5.218  0.3168 -0.1722  0.3678
 4992TIP3   OH236466   2.443   4.441   3.101 -0.3309  0.4043 -0.7259
 4992TIP3    H136467   2.532   4.443   3.135 -0.3660 -1.6410 -0.3575
 4992TIP3    H236468   2.439   4.361   3.048 -2.1166  0.1097 -0.2192
 4993TIP3   OH236469   0.183   5.582  16.478  0.3964 -0.2113 -0.3738
 4993TIP3    H136470   0.236   5.514  16.519  0.3701 -0.8369 -1.3458
 4993TIP3    H236471   0.095   5.544  16.475  0.3846 -0.1492 -0.9227
 4994TIP3   OH236472   0.143   5.273   4.253 -0.0159  0.0925 -0.2778
 4994TIP3    H136473   0.144   5.350   4.197  1.7726 -0.1524 -0.6569
 4994TIP3    H236474   0.050   5.253   4.265 -0.4967  1.7457 -0.9152
 4995TIP3   OH236475   4.293   1.699   0.888 -0.0519  0.5252 -0.2058
 4995TIP3    H136476   4.241   1.621   0.867  0.2263  0.7027 -1.6507
 4995TIP3    H236477   4.375   1.665   0.923  0.6749  0.0825 -2.2327
 4996TIP3   OH236478   5.100   3.795   1.217 -0.7945 -0.4474 -0.1187
 4996TIP3    H136479   5.168   3.853   1.182 -1.1908  0.6503  0.8426
 4996TIP3    H236480   5.146   3.713   1.236  0.2591  0.2301  0.4085
 4997TIP3   OH236481   6.311   4.967   3.394  0.0517  0.5763 -0.1395
 4997TIP3    H136482   6.353   5.039   3.443 -0.4991  0.6735  0.1937
 4997TIP3    H236483   6.291   4.902   3.460  0.3077  0.2234 -0.4061
 4998TIP3   OH236484   0.719   4.263   3.093  0.1501  0.4122 -0.4080
 4998TIP3    H136485   0.807   4.278   3.128 -0.9287  1.6309  1.9982
 4998TIP3    H236486   0.666   4.245   3.170 -1.3995 -2.2798 -1.9788
 4999TIP3   OH236487   4.581   3.902  11.717 -0.2049 -0.0686  1.2573
 4999TIP3    H136488   4.528   3.822  11.715  0.9373 -0.8611  1.5544
 4999TIP3    H236489   4.640   3.893  11.642 -0.1895  0.5854  1.1875
 5000TIP3   OH236490   3.553   1.813  14.252  0.1403  0.0281 -0.0538
 5000TIP3    H136491   3.506   1.742  14.296  0.2484 -0.3888 -0.6055
 5000TIP3    H236492   3.593   1.863  14.323  0.4184 -0.7169  0.3215
 5001TIP3   OH236493   3.274   1.788   5.151 -0.6124  0.0986  0.0254
 5001TIP3    H136494   3.366   1.763   5.163 -1.1233 -1.0382  2.0546
 5001TIP3    H236495   3.258   1.776   5.058  1.5985  1.4888 -0.6216
 5002TIP3   OH236496   2.068   3.645  12.693 -0.1541 -0.2774  0.0364
 5002TIP3    H136497   1.984   3.608  12.665 -0.0312 -1.6192  1.3408
 5002TIP3    H236498   2.045   3.726  12.739 -0.5532  0.4079 -1.2997
 5003TIP3   OH236499   6.602   2.068   4.452 -0.5667 -0.2026  0.3916
 5003TIP3    H136500   6.593   2.001   4.519 -2.1701 -1.5663 -1.1044
 5003TIP3    H236501   6.512   2.092   4.430 -0.0751  0.4339 -1.0436
 5004TIP3   OH236502   6.228   0.606   1.330  0.9024 -0.0961 -0.0334
 5004TIP3    H136503   6.189   0.547   1.395  0.2340  1.0646  0.6573
 5004TIP3    H236504   6.321   0.583   1.330  1.6563  2.1114  3.9651
 5005TIP3   OH236505   2.779   4.467   4.220 -0.6666 -0.5623 -0.5945
 5005TIP3    H136506   2.856   4.471   4.163 -0.3107  1.8147 -0.0639
 5005TIP3    H236507   2.793   4.390   4.274  2.0000  0.4709  0.3174
 5006TIP3   OH236508   3.324   3.701   1.739  0.3958  0.3921  0.0416
 5006TIP3    H136509   3.389   3.768   1.717 -1.0379  1.4392 -1.1929
 5006TIP3    H236510   3.348   3.626   1.684 -0.3521  1.3415 -1.6480
 5007TIP3   OH236511   1.449   6.049   4.289 -0.4258  0.3938  0.8305
 5007TIP3    H136512   1.437   5.958   4.316  0.8377  0.1974  0.7827
 5007TIP3    H236513   1.387   6.098   4.343  0.3138 -0.2636  2.3219
 5008TIP3   OH236514   3.649   3.294  11.390  0.2268 -0.0080 -0.5638
 5008TIP3    H136515   3.681   3.272  11.477 -0.7208 -0.1824 -0.2520
 5008TIP3    H236516   3.576   3.234  11.376 -0.6902  1.1443 -0.7971
 5009TIP3   OH236517   2.196   0.832  16.826 -0.6435 -0.3369  0.0773
 5009TIP3    H136518   2.252   0.890  16.774  0.1778 -0.1344  1.1559
 5009TIP3    H236519   2.231   0.745  16.811 -0.8643 -0.3657 -0.2755
 5010TIP3   OH236520   4.993   1.239  14.080  0.6072 -0.2759  0.0155
 5010TIP3    H136521   4.958   1.168  14.133 -0.6182  0.3837  0.1219
 5010TIP3    H236522   5.000   1.202  13.992  0.1698 -0.5797  0.1069
 5011TIP3   OH236523   4.101   3.687  16.030 -0.2701  0.3537 -0.3118
 5011TIP3    H136524   4.071   3.679  16.121 -1.7844 -1.0392 -0.8735
 5011TIP3    H236525   4.181   3.635  16.026  0.0834  0.8417  0.3326
 5012TIP3   OH236526   2.883   6.542   5.398  0.4633 -0.2444 -0.2254
 5012TIP3    H136527   2.968   6.510   5.368  1.1790  0.1591  1.3287
 5012TIP3    H236528   2.849   6.593   5.324  2.1869  0.7568 -0.3622
 5013TIP3   OH236529   4.169   3.077  15.305  0.0867 -0.3219  0.4437
 5013TIP3    H136530   4.264   3.069  15.292 -0.2147 -0.7347 -2.0878
 5013TIP3    H236531   4.132   3.006  15.253 -1.6675  0.9045 -0.0652
 5014TIP3   OH236532   3.129   0.173   0.905 -1.0847 -0.0658 -0.1921
 5014TIP3    H136533   3.147   0.179   0.999 -0.6159  0.3042 -0.3045
 5014TIP3    H236534   3.178   0.095   0.877 -1.3972 -0.3003 -0.0910
 5015TIP3   OH236535   2.679   0.873   6.109  0.4050  0.0638 -0.0903
 5015TIP3    H136536   2.631   0.922   6.042  2.4105  1.9160 -0.2767
 5015TIP3    H236537   2.711   0.795   6.063 -1.2434 -0.5237 -0.2950
 5016TIP3   OH236538   6.767   2.815  14.860  0.6043 -0.1253 -0.0790
 5016TIP3    H136539   6.820   2.737  14.870  1.6512  0.5041 -0.5607
 5016TIP3    H236540   6.820   2.886  14.896 -0.0372  0.4711 -0.2715
 5017TIP3   OH236541   0.421   2.049   1.047  0.1518  0.4254  0.3221
 5017TIP3    H136542   0.425   2.133   0.999  0.4607  1.1777  1.6201
 5017TIP3    H236543   0.429   1.983   0.978  0.6316  1.4687 -0.6770
 5018TIP3   OH236544   1.602   1.667   0.154  0.2694  0.2747  0.3072
 5018TIP3    H136545   1.544   1.724   0.104 -1.0775 -0.1293  1.3490
 5018TIP3    H236546   1.623   1.717   0.233  1.1792  0.3246  0.0487
 5019TIP3   OH236547   1.036   3.136  15.241 -0.3085  0.1071 -0.0070
 5019TIP3    H136548   1.125   3.132  15.275 -0.1064  0.8034 -0.4180
 5019TIP3    H236549   0.980   3.140  15.318 -0.1122 -2.0075  0.2985
 5020TIP3   OH236550   5.776   1.398   0.345  0.4128  0.4090 -0.1002
 5020TIP3    H136551   5.819   1.450   0.413  1.1949 -0.7138  0.2956
 5020TIP3    H236552   5.690   1.438   0.335  0.4170  0.8279  1.2986
 5021TIP3   OH236553   1.158   5.759  16.054 -0.1293 -0.5678 -0.4934
 5021TIP3    H136554   1.204   5.711  15.985  1.9157 -1.0104  1.0627
 5021TIP3    H236555   1.225   5.817  16.090 -1.1564 -0.2842  1.0387
 5022TIP3   OH236556   2.757   5.037   1.953 -0.7804  0.1366 -0.2359
 5022TIP3    H136557   2.710   5.073   1.877  0.3603  0.6157 -0.7497
 5022TIP3    H236558   2.822   4.978   1.914  0.7589  1.4470  0.2305
 5023TIP3   OH236559   6.301   1.749  12.955  0.9739 -0.4675 -0.0674
 5023TIP3    H136560   6.328   1.831  12.913 -2.0518  1.2671  1.0513
 5023TIP3    H236561   6.322   1.761  13.047  0.5274 -0.9686  0.1037
 5024TIP3   OH236562   6.638   0.476  10.858 -0.1957  0.0176 -0.5356
 5024TIP3    H136563   6.720   0.490  10.905 -0.1944  0.8043 -0.7500
 5024TIP3    H236564   6.573   0.525  10.909 -1.0899 -2.6715  1.1038
 5025TIP3   OH236565   5.237   2.249   1.251  0.1931 -0.5015 -0.2151
 5025TIP3    H136566   5.301   2.182   1.277 -0.4867 -1.3862 -0.7671
 5025TIP3    H236567   5.276   2.332   1.280  1.1188 -1.1163  0.3556
 5026TIP3   OH236568   4.114   3.998   2.301 -0.3458  0.1859 -0.5089
 5026TIP3    H136569   4.171   3.957   2.236 -0.4255 -0.5141 -0.1441
 5026TIP3    H236570   4.097   3.929   2.365 -0.3645  0.8312  0.1942
 5027TIP3   OH236571   3.932   4.619  16.304  0.4276  0.1992 -0.1123
 5027TIP3    H136572   3.933   4.618  16.399  2.6283  2.2216 -0.0148
 5027TIP3    H236573   3.840   4.614  16.281 -0.1367 -0.6850  2.0760
 5028TIP3   OH236574   3.087   3.571  15.479 -0.1801 -0.3130  0.2077
 5028TIP3    H136575   3.086   3.649  15.424 -1.8267 -0.8383 -0.5883
 5028TIP3    H236576   3.069   3.603  15.567 -0.8224  0.2286 -0.1106
 5029TIP3   OH236577   2.934   2.201  14.771 -0.0976  0.6835 -0.0903
 5029TIP3    H136578   3.008   2.247  14.731 -0.2173  1.4596  0.5441
 5029TIP3    H236579   2.952   2.204  14.865 -1.0810  1.1719  0.1047
 5030TIP3   OH236580   3.453   1.543   3.294  0.6285 -0.0657  0.5800
 5030TIP3    H136581   3.402   1.596   3.232 -2.1513 -2.3429  0.7087
 5030TIP3    H236582   3.420   1.570   3.381  1.7502  0.4375  0.8595
 5031TIP3   OH236583   1.562   1.166  14.357 -0.0714  0.2509  0.2069
 5031TIP3    H136584   1.489   1.226  14.339 -0.8626 -0.0614  2.1127
 5031TIP3    H236585   1.530   1.081  14.326  0.5037  0.5246 -1.2223
 5032TIP3   OH236586   6.759   0.584  14.363 -0.4988  0.3425 -0.0999
 5032TIP3    H136587   6.758   0.624  14.276 -1.3032  0.7191  0.0737
 5032TIP3    H236588   6.723   0.497  14.351  1.2474 -0.3597 -0.4795
 5033TIP3   OH236589   6.731   0.955   4.227  0.1323  0.0639  0.0408
 5033TIP3    H136590   6.651   1.004   4.244  0.3046  0.1724  0.5464
 5033TIP3    H236591   6.788   0.974   4.301  0.3176 -0.6568  0.0974
 5034TIP3   OH236592   2.965   2.382  12.801 -0.1669 -0.2479  0.9382
 5034TIP3    H136593   2.949   2.418  12.714  1.4362 -0.4319  0.5378
 5034TIP3    H236594   3.051   2.416  12.826  0.1338 -1.5256  1.7375
 5035TIP3   OH236595   2.471   0.817  15.458  0.0101 -0.4094  0.2085
 5035TIP3    H136596   2.498   0.750  15.521 -0.0530 -0.6558 -0.0245
 5035TIP3    H236597   2.473   0.899  15.507  0.1068 -0.5807  0.4896
 5036TIP3   OH236598   3.132   1.033   2.200  0.1129  0.1703  0.8730
 5036TIP3    H136599   3.100   0.978   2.272  0.4909 -0.9677  0.2110
 5036TIP3    H236600   3.092   0.995   2.122  1.5461 -0.0974  0.2368
 5037TIP3   OH236601   5.354   1.346  14.727  0.5892 -0.3263  0.2777
 5037TIP3    H136602   5.292   1.379  14.791 -0.0846  0.7496 -0.8857
 5037TIP3    H236603   5.338   1.252  14.725 -0.0572 -0.2411  0.9761
 5038TIP3   OH236604   0.290   6.732  15.539 -0.4749  0.5961  0.7059
 5038TIP3    H136605   0.277   6.786  15.461 -1.0185 -1.8168 -1.0226
 5038TIP3    H236606   0.240   6.775  15.608 -0.5257  2.4731 -0.4468
 5039TIP3   OH236607   3.976   6.361  12.378 -0.4190  0.4451  0.3507
 5039TIP3    H136608   4.002   6.345  12.469 -0.4767  1.6707  0.5947
 5039TIP3    H236609   4.041   6.315  12.326 -1.4265 -1.8603  0.9906
 5040TIP3   OH236610   3.500   0.939  16.501 -0.3122  0.6566 -0.7284
 5040TIP3    H136611   3.592   0.949  16.528 -0.7302  0.7139  0.7735
 5040TIP3    H236612   3.455   1.009  16.548 -1.2382  0.1715 -0.8881
 5041TIP3   OH236613   5.154   3.051  12.535 -0.1672 -0.2568 -0.2552
 5041TIP3    H136614   5.195   2.965  12.526  0.1674 -0.2527  1.0931
 5041TIP3    H236615   5.148   3.065  12.629 -2.2775  0.2187 -0.4106
 5042TIP3   OH236616   6.279   1.840  16.429  0.0799  0.4634 -0.3918
 5042TIP3    H136617   6.307   1.794  16.350 -0.1675 -1.0056  0.3325
 5042TIP3    H236618   6.295   1.777  16.500 -1.0211  1.1968  0.5419
 5043TIP3   OH236619   5.182   1.711  12.074  0.6340 -0.2700 -0.6036
 5043TIP3    H136620   5.121   1.784  12.083  1.3163  0.0668  1.7876
 5043TIP3    H236621   5.265   1.752  12.049  0.6778 -0.3775 -0.6358
 5044TIP3   OH236622   2.790   0.776   2.178 -0.1627 -0.0953 -0.4811
 5044TIP3    H136623   2.809   0.710   2.245  0.8412  0.5980 -0.0546
 5044TIP3    H236624   2.827   0.739   2.097 -1.4077 -0.9495 -0.6825
 5045TIP3   OH236625   3.537   4.047   6.092  0.5981  0.2142 -0.0989
 5045TIP3    H136626   3.592   3.969   6.079 -0.9442 -0.8546 -0.5351
 5045TIP3    H236627   3.557   4.076   6.181 -0.6575 -2.2822  1.1000
 5046TIP3   OH236628   3.167   4.260   6.534  0.2692 -0.2894 -0.6356
 5046TIP3    H136629   3.125   4.346   6.524  2.1402  0.7359 -0.0932
 5046TIP3    H236630   3.239   4.275   6.595  1.1837 -2.0547 -1.2093
 5047TIP3   OH236631   2.547   1.693   3.700 -0.2840  0.0425  0.1144
 5047TIP3    H136632   2.515   1.711   3.788  1.8173  0.4381  0.8526
 5047TIP3    H236633   2.517   1.604   3.682 -0.9194  0.0335  1.1333
 5048TIP3   OH236634   6.271   3.271  16.530 -0.0683 -0.2551  0.1778
 5048TIP3    H136635   6.332   3.198  16.522  0.7028  0.3654  0.2949
 5048TIP3    H236636   6.246   3.292  16.439  0.3020 -0.1744  0.0924
 5049TIP3   OH236637   0.690   1.547   4.706  0.0545 -0.4163  0.3554
 5049TIP3    H136638   0.617   1.608   4.693 -0.6654 -1.0520  1.2452
 5049TIP3    H236639   0.677   1.513   4.794  2.1898  0.4157  1.0572
 5050TIP3   OH236640   4.908   0.584  12.806 -0.3770 -0.8632  0.4486
 5050TIP3    H136641   4.867   0.502  12.832 -2.3598  0.4063  1.6193
 5050TIP3    H236642   4.987   0.589  12.860 -0.2151 -1.9803  0.3449
 5051TIP3   OH236643   0.913   3.811  10.858 -0.4967 -0.7184 -0.3238
 5051TIP3    H136644   0.936   3.818  10.951 -1.7091 -0.2914 -0.0322
 5051TIP3    H236645   0.919   3.717  10.839  0.6133 -0.7117 -0.0565
 5052TIP3   OH236646   2.544   3.687   3.512  0.1369  0.5638  0.2678
 5052TIP3    H136647   2.449   3.698   3.507 -0.1597 -1.6760  0.1668
 5052TIP3    H236648   2.578   3.775   3.497 -1.9176  1.5250  0.7967
 5053TIP3   OH236649   6.173   5.564  14.489  0.0930 -0.2895 -0.3098
 5053TIP3    H136650   6.142   5.484  14.447 -0.5719  0.8451 -2.0842
 5053TIP3    H236651   6.268   5.558  14.484  0.1297 -1.6876  1.0709
 5054TIP3   OH236652   3.400   4.161   6.396 -0.2645 -0.1533 -0.7811
 5054TIP3    H136653   3.344   4.186   6.470  0.0667  1.1219 -0.9273
 5054TIP3    H236654   3.385   4.067   6.385 -1.8908  0.0297 -0.4232
 5055TIP3   OH236655   3.875   2.991   3.978 -0.0235  0.1484  0.1597
 5055TIP3    H136656   3.968   2.993   3.954 -0.0855  4.2698 -0.4336
 5055TIP3    H236657   3.875   2.982   4.073  0.8711 -1.0711  0.0736
 5056TIP3   OH236658   2.356   2.012  12.703  0.1375 -0.8415  0.1810
 5056TIP3    H136659   2.355   1.918  12.684  2.1306 -1.2227  1.7128
 5056TIP3    H236660   2.309   2.021  12.786 -0.4656 -0.3772 -0.1926
 5057TIP3   OH236661   3.298   4.256  11.433 -0.3069 -0.7294 -0.3690
 5057TIP3    H136662   3.231   4.284  11.371 -0.6119 -1.3734 -0.3388
 5057TIP3    H236663   3.328   4.172  11.399  1.1812  0.0011 -0.9195
 5058TIP3   OH236664   2.971   2.689   1.706  0.4575 -0.0109  0.2961
 5058TIP3    H136665   2.964   2.722   1.616 -0.8584 -0.3008  0.2698
 5058TIP3    H236666   3.064   2.669   1.717  0.3646 -1.9346 -1.7240
 5059TIP3   OH236667   1.568   2.127  14.309  0.5746  0.2546 -0.0567
 5059TIP3    H136668   1.515   2.111  14.387 -0.1330  2.1726 -0.1055
 5059TIP3    H236669   1.588   2.039  14.276 -0.1417 -0.5689  1.5733
 5060TIP3   OH236670   1.235   6.538   1.829 -0.2490 -0.7336 -0.7302
 5060TIP3    H136671   1.196   6.589   1.900  1.6969 -0.6633  0.3451
 5060TIP3    H236672   1.172   6.467   1.815 -0.9223 -0.4819  0.7266
 5061TIP3   OH236673   4.959   5.858   5.776 -0.1472 -0.1263  0.5175
 5061TIP3    H136674   5.014   5.936   5.785 -1.1433  0.8021 -1.0173
 5061TIP3    H236675   5.008   5.802   5.715  0.0480 -0.2230  0.7600
 5062TIP3   OH236676   3.917   2.648  15.327 -0.7123  0.6362  0.3925
 5062TIP3    H136677   3.939   2.556  15.311  2.4542  1.4628 -0.6511
 5062TIP3    H236678   3.826   2.645  15.357 -0.8781 -2.7750  0.0143
 5063TIP3   OH236679   2.664   2.115  10.429 -0.0410 -0.1018 -0.1149
 5063TIP3    H136680   2.700   2.098  10.517 -3.6526 -1.1322  1.3593
 5063TIP3    H236681   2.629   2.030  10.401 -1.2265  0.7674 -1.3702
 5064TIP3   OH236682   0.614   4.416  12.018 -0.3014 -0.4364 -0.0919
 5064TIP3    H136683   0.633   4.448  12.107 -0.9897 -1.8169  0.5869
 5064TIP3    H236684   0.533   4.366  12.028 -0.4793 -0.4612 -1.5471
 5065TIP3   OH236685   3.010   2.056  16.054  0.2032  0.1356 -0.3314
 5065TIP3    H136686   3.064   2.103  16.118 -0.4570 -0.8799  1.0176
 5065TIP3    H236687   3.062   1.979  16.031  0.3648  0.4111 -0.9188
 5066TIP3   OH236688   3.468   1.397   2.268  0.1995 -0.2172  0.5439
 5066TIP3    H136689   3.479   1.339   2.344 -0.1901 -0.5870  0.3235
 5066TIP3    H236690   3.523   1.472   2.288 -1.1072  0.4254  1.9433
 5067TIP3   OH236691   0.862   4.717   1.197  0.1524  0.0848 -0.1881
 5067TIP3    H136692   0.833   4.630   1.171  0.3831 -0.3083  0.8293
 5067TIP3    H236693   0.942   4.732   1.147  0.2991 -0.4378 -0.1137
 5068TIP3   OH236694   3.274   1.273   0.877  0.0159  0.1392 -0.1379
 5068TIP3    H136695   3.357   1.318   0.863  0.5389 -0.1824  1.6026
 5068TIP3    H236696   3.207   1.338   0.855  0.7474  1.0070  0.1399
 5069TIP3   OH236697   1.088   4.205  11.944  0.7995 -0.1541 -0.2617
 5069TIP3    H136698   1.115   4.191  12.034  2.2635 -1.8241 -0.9068
 5069TIP3    H236699   1.149   4.271  11.911  0.8276 -0.1947 -0.2905
 5070TIP3   OH236700   2.771   1.225  11.836 -0.5427 -0.3265 -0.7584
 5070TIP3    H136701   2.775   1.178  11.753 -0.8494 -0.8055 -0.5116
 5070TIP3    H236702   2.680   1.257  11.840 -0.5342 -0.3242 -0.5982
 5071TIP3   OH236703   0.248   2.833   2.567  0.1741 -0.2689  0.4386
 5071TIP3    H136704   0.339   2.838   2.540  0.2729 -0.1637  0.7814
 5071TIP3    H236705   0.207   2.910   2.529  0.0434 -0.7292 -0.3855
 5072TIP3   OH236706   4.928   4.350   3.173  0.2905 -0.7481 -0.1389
 5072TIP3    H136707   4.971   4.344   3.087 -1.0165  0.2862 -0.8848
 5072TIP3    H236708   4.967   4.278   3.223  1.2435 -1.2388 -1.5138
 5073TIP3   OH236709   4.344   1.747  10.580  0.1265 -0.1088  0.3340
 5073TIP3    H136710   4.265   1.792  10.608  0.8401  1.8071 -0.5511
 5073TIP3    H236711   4.414   1.788  10.632  0.5028 -2.4225  1.8076
 5074TIP3   OH236712   1.751   2.867   2.728 -0.5054  0.1418 -0.0833
 5074TIP3    H136713   1.704   2.935   2.776  1.0994 -0.2676  2.2551
 5074TIP3    H236714   1.686   2.798   2.714 -1.0005  0.1913  1.7648
 5075TIP3   OH236715   3.167   2.340   3.867  0.4706  0.1640  0.4645
 5075TIP3    H136716   3.096   2.392   3.905  1.8228  0.0131  3.4381
 5075TIP3    H236717   3.244   2.397   3.873  1.0035 -0.3441 -1.0423
 5076TIP3   OH236718   6.368   3.885   5.793  0.5164 -0.4257 -0.2611
 5076TIP3    H136719   6.289   3.853   5.836  0.3152  0.4167  0.0168
 5076TIP3    H236720   6.338   3.961   5.743  1.1954  0.0355  0.0308
 5077TIP3   OH236721   6.354   4.964  11.089  0.4474 -0.3887  0.1608
 5077TIP3    H136722   6.305   5.000  11.015  1.2797  0.7095  0.1073
 5077TIP3    H236723   6.290   4.913  11.138  0.4111 -3.4394 -2.7113
 5078TIP3   OH236724   0.630   5.410  13.151  0.2966  0.1928 -0.2534
 5078TIP3    H136725   0.590   5.445  13.231  0.2980  0.2413 -0.2734
 5078TIP3    H236726   0.720   5.391  13.177  0.3565  0.4086 -0.2984
 5079TIP3   OH236727   2.407   4.742   5.940  0.0670 -0.1928 -0.0976
 5079TIP3    H136728   2.456   4.694   5.874  0.1192 -0.0998 -0.1269
 5079TIP3    H236729   2.436   4.833   5.931  0.5289 -0.2779  0.4543
 5080TIP3   OH236730   5.155   0.478  12.112 -0.1949  0.5201 -0.3313
 5080TIP3    H136731   5.086   0.425  12.151  1.1784  0.5365  2.3125
 5080TIP3    H236732   5.134   0.568  12.138 -0.1324  0.7396 -1.0274
 5081TIP3   OH236733   6.603   5.454   3.219 -0.2937  0.5867  0.2957
 5081TIP3    H136734   6.521   5.499   3.240 -2.1216 -1.6264 -1.6833
 5081TIP3    H236735   6.617   5.395   3.294 -0.6445  0.7871  0.5250
 5082TIP3   OH236736   3.053   5.335  12.378  0.4933 -0.8104  0.2178
 5082TIP3    H136737   3.120   5.322  12.445  2.6254  0.4431 -1.5599
 5082TIP3    H236738   3.017   5.422  12.396  0.2194 -0.9531  0.3870
 5083TIP3   OH236739   5.845   3.749   4.683 -0.4257  0.1757  0.3889
 5083TIP3    H136740   5.864   3.789   4.599  0.8661 -1.5807 -0.2150
 5083TIP3    H236741   5.751   3.729   4.680 -0.0009 -1.9014 -1.6158
 5084TIP3   OH236742   3.663   5.610  16.468 -0.2096 -0.4839  0.2302
 5084TIP3    H136743   3.710   5.633  16.388 -0.3040 -0.3706  0.2069
 5084TIP3    H236744   3.676   5.515  16.477 -1.0448 -0.6721 -0.4663
 5085TIP3   OH236745   3.933   2.787  15.607 -0.0833  0.3007 -0.9457
 5085TIP3    H136746   3.911   2.800  15.699  0.9518  0.1511 -0.6592
 5085TIP3    H236747   3.857   2.819  15.559 -0.1635  1.4835 -0.0755
 5086TIP3   OH236748   5.887   0.219  14.808  0.3490  0.4122 -0.2644
 5086TIP3    H136749   5.967   0.249  14.766  0.7348 -0.6665 -0.3178
 5086TIP3    H236750   5.912   0.201  14.899  0.5242 -1.2751 -0.6246
 5087TIP3   OH236751   5.507   0.032   4.172  0.3623  0.3524 -0.1890
 5087TIP3    H136752   5.561   0.111   4.164 -0.6340  0.9614 -1.1068
 5087TIP3    H236753   5.421   0.064   4.199  0.2537 -0.5434  0.5656
 5088TIP3   OH236754   5.958   6.471   1.726  0.4535  0.0472  0.6326
 5088TIP3    H136755   5.920   6.385   1.711  0.9534  0.0798 -0.9862
 5088TIP3    H236756   5.912   6.505   1.803 -0.8817 -0.9999  0.3184
 5089TIP3   OH236757   3.474   1.239  13.317  0.1506 -0.2264  0.2614
 5089TIP3    H136758   3.531   1.253  13.242  0.1456 -1.9446 -0.1130
 5089TIP3    H236759   3.492   1.312  13.376  0.5131  0.8793 -1.1768
 5090TIP3   OH236760   5.458   4.238   1.834 -0.0446 -0.4122 -0.2501
 5090TIP3    H136761   5.440   4.264   1.744 -1.0984 -2.2184 -0.5998
 5090TIP3    H236762   5.507   4.157   1.827  1.4871  0.3662  0.8192
 5091TIP3   OH236763   0.746   4.498  16.413  0.0516  0.1415 -0.3312
 5091TIP3    H136764   0.730   4.519  16.321 -0.0502  0.3756 -0.2602
 5091TIP3    H236765   0.679   4.433  16.435 -1.3087  1.6509  0.1730
 5092TIP3   OH236766   0.179   4.397   3.446  0.6556  0.0616 -0.6543
 5092TIP3    H136767   0.226   4.480   3.438  1.3322 -0.0872  1.3436
 5092TIP3    H236768   0.091   4.422   3.474  0.4245  0.1481 -1.4085
 5093TIP3   OH236769   4.560   0.228  15.325  0.4388  0.0428  0.3848
 5093TIP3    H136770   4.510   0.175  15.264  0.5301  1.3458 -0.8634
 5093TIP3    H236771   4.541   0.319  15.301  0.3282  0.6248  2.4153
 5094TIP3   OH236772   0.898   4.088  12.846 -0.2513 -0.0750 -0.5280
 5094TIP3    H136773   0.907   4.176  12.884  0.2690  0.0115 -0.8420
 5094TIP3    H236774   0.807   4.063  12.864  0.0865 -0.2009  1.1055
 5095TIP3   OH236775   1.687   2.800  12.859 -0.1218  0.1679 -0.8424
 5095TIP3    H136776   1.697   2.867  12.928  1.3843  0.2731 -1.1139
 5095TIP3    H236777   1.760   2.817  12.800  0.1195 -1.5408 -1.0763
 5096TIP3   OH236778   5.892   4.997   1.362  0.1574  0.0593 -0.6434
 5096TIP3    H136779   5.833   5.055   1.314 -0.8963 -0.4173  0.0548
 5096TIP3    H236780   5.862   4.908   1.341 -3.1612 -0.2724  4.0664
 5097TIP3   OH236781   1.358   4.201  11.731 -0.5866  0.1858 -0.1681
 5097TIP3    H136782   1.451   4.217  11.750 -0.9096  0.4423  1.2630
 5097TIP3    H236783   1.315   4.285  11.746 -1.2149 -0.2016  0.2448
 5098TIP3   OH236784   2.241   3.205   4.740 -0.2998  0.6466 -0.5671
 5098TIP3    H136785   2.329   3.239   4.719  0.7488 -1.5577 -0.0624
 5098TIP3    H236786   2.228   3.134   4.677 -0.7822 -0.4444  0.7147
 5099TIP3   OH236787   1.305   4.177  15.875  0.0375 -1.1204  0.2183
 5099TIP3    H136788   1.274   4.209  15.959 -1.9044  1.1331 -1.2229
 5099TIP3    H236789   1.387   4.225  15.860  0.3044 -1.4096  0.7187
 5100TIP3   OH236790   3.312   1.920   1.019  0.3907  0.6548 -0.0136
 5100TIP3    H136791   3.350   1.987   0.962  3.1715 -0.3424  0.5244
 5100TIP3    H236792   3.362   1.841   1.000 -0.3271 -0.3439  1.9762
 5101TIP3   OH236793   0.761   5.272  13.520 -0.1387  0.2612 -0.9959
 5101TIP3    H136794   0.786   5.342  13.581  1.2840 -0.0955 -1.1187
 5101TIP3    H236795   0.692   5.224  13.566 -0.8502  1.4834 -0.7374
 5102TIP3   OH236796   2.970   6.277  11.932 -0.1113 -0.3392 -0.1898
 5102TIP3    H136797   3.007   6.224  11.863 -3.5466 -2.3168 -0.7683
 5102TIP3    H236798   2.977   6.223  12.011  0.9678  0.5924  0.3851
 5103TIP3   OH236799   2.796   5.345  13.686  0.0040 -0.3981  0.5298
 5103TIP3    H136800   2.713   5.338  13.639 -0.1129  1.4753  0.3783
 5103TIP3    H236801   2.776   5.317  13.775 -0.8309  0.1458  0.5195
 5104TIP3   OH236802   3.592   2.253  13.752  0.1587 -0.3996 -0.0506
 5104TIP3    H136803   3.553   2.214  13.673  0.9231 -0.1590 -0.5624
 5104TIP3    H236804   3.675   2.208  13.762 -0.2457 -0.9328  1.0501
 5105TIP3   OH236805   1.788   2.936  15.694 -0.3847 -0.0446  0.1577
 5105TIP3    H136806   1.747   2.906  15.775 -0.5072 -0.5229 -0.0794
 5105TIP3    H236807   1.881   2.940  15.714 -0.3969 -0.3224  0.2729
 5106TIP3   OH236808   1.306   0.178   2.601 -0.0926 -0.2001 -0.1255
 5106TIP3    H136809   1.248   0.229   2.545 -1.6419 -1.9568 -0.2177
 5106TIP3    H236810   1.253   0.156   2.678  1.3226  0.3881  1.0819
 5107TIP3   OH236811   0.919   1.463   6.029 -0.0830 -0.0337 -0.2438
 5107TIP3    H136812   1.008   1.485   6.056  0.5717 -0.9228 -1.5409
 5107TIP3    H236813   0.893   1.390   6.085  0.0047  0.2202  0.1266
 5108TIP3   OH236814   0.381   4.912  14.881 -0.2819 -0.6733 -0.4507
 5108TIP3    H136815   0.400   4.946  14.794 -1.3282 -0.4487 -0.6036
 5108TIP3    H236816   0.358   4.820  14.867 -0.2923 -0.6800 -0.3916
 5109TIP3   OH236817   3.746   5.193  13.333  0.1448 -0.1917  0.3212
 5109TIP3    H136818   3.840   5.201  13.315 -0.6337  4.8300 -3.4491
 5109TIP3    H236819   3.711   5.148  13.256 -0.8750  0.6735  0.2716
 5110TIP3   OH236820   3.444   3.565  12.355  0.3348  0.9465 -0.5701
 5110TIP3    H136821   3.352   3.554  12.331 -0.1799  0.7674  1.2951
 5110TIP3    H236822   3.481   3.620  12.287 -0.4836 -1.0840 -2.7804
 5111TIP3   OH236823   1.025   2.069   2.856 -0.4427 -0.7630  0.0994
 5111TIP3    H136824   1.075   2.151   2.848 -0.0801 -0.3620  4.0974
 5111TIP3    H236825   1.077   2.004   2.808  2.2136  0.3396  1.2994
 5112TIP3   OH236826   4.776   4.636   4.036  0.3511  0.1356 -0.2891
 5112TIP3    H136827   4.720   4.625   4.112 -1.8992  0.3648 -1.8219
 5112TIP3    H236828   4.839   4.564   4.042 -0.3866 -0.4237  1.2446
 5113TIP3   OH236829   0.171   1.841  16.856 -0.3474  0.3974  0.0564
 5113TIP3    H136830   0.227   1.788  16.913  0.7487  1.6625  0.2142
 5113TIP3    H236831   0.190   1.808  16.768 -0.5998 -0.2792  0.2487
 5114TIP3   OH236832   1.630   2.992  12.390 -0.0267  0.2204 -0.3146
 5114TIP3    H136833   1.705   2.944  12.424 -0.0554  0.7252  0.4903
 5114TIP3    H236834   1.662   3.032  12.309  0.3562 -0.1669 -0.3567
 5115TIP3   OH236835   6.476   3.658   6.582  0.1201  0.4380 -0.3748
 5115TIP3    H136836   6.538   3.718   6.542 -1.2924  4.6163  2.9831
 5115TIP3    H236837   6.394   3.673   6.536 -0.5880  2.3996  1.3852
 5116TIP3   OH236838   4.762   1.591   0.814  0.4886 -0.4304  0.0606
 5116TIP3    H136839   4.767   1.619   0.906 -1.7923 -0.4872  0.2652
 5116TIP3    H236840   4.746   1.671   0.765 -0.3693 -0.6493 -0.0279
 5117TIP3   OH236841   1.130   0.638  12.601  0.3044  0.2381 -0.0703
 5117TIP3    H136842   1.148   0.722  12.560  1.2922 -1.7818 -4.2674
 5117TIP3    H236843   1.202   0.628  12.665  0.6577  2.1259 -0.0976
 5118TIP3   OH236844   1.668   0.876  14.023 -0.5061 -0.2089 -0.3773
 5118TIP3    H136845   1.673   0.843  14.113 -0.1408  2.3360  0.6056
 5118TIP3    H236846   1.756   0.866  13.989 -0.0442  0.9654  0.4075
 5119TIP3   OH236847   1.025   0.670   4.893  0.3796  0.4076 -0.7823
 5119TIP3    H136848   1.082   0.721   4.951  2.2734 -0.7360 -1.5497
 5119TIP3    H236849   1.083   0.643   4.821 -0.9871 -1.3678 -1.2592
 5120TIP3   OH236850   6.009   1.765   4.837  0.4354  0.1893  0.2279
 5120TIP3    H136851   5.998   1.818   4.758  0.7890  1.9370  1.2944
 5120TIP3    H236852   5.947   1.693   4.827 -0.2552  0.9498 -1.1709
 5121TIP3   OH236853   5.107   5.136  15.699  0.0658 -0.9013  0.0785
 5121TIP3    H136854   5.133   5.044  15.694  1.6985 -0.5580  1.3485
 5121TIP3    H236855   5.094   5.153  15.792 -1.3818 -0.1188 -0.2386
 5122TIP3   OH236856   0.266   3.478  13.955 -0.6679  0.3234 -0.2345
 5122TIP3    H136857   0.264   3.415  14.027  1.6217  0.5792  0.1151
 5122TIP3    H236858   0.264   3.425  13.876  0.3631 -0.1806  0.0566
 5123TIP3   OH236859   4.575   5.157   3.389  0.2013 -0.9543  0.1442
 5123TIP3    H136860   4.551   5.064   3.387 -0.8936 -0.7230  1.2341
 5123TIP3    H236861   4.552   5.190   3.302 -2.1265 -1.1052  0.6342
 5124TIP3   OH236862   6.330   2.971  14.784  0.2981  0.2117  0.2440
 5124TIP3    H136863   6.362   3.034  14.849 -0.6065  0.2984  0.6211
 5124TIP3    H236864   6.240   2.997  14.767  0.0497 -0.7115  0.0727
 5125TIP3   OH236865   1.367   0.270  14.539 -0.0157  0.2397  0.1563
 5125TIP3    H136866   1.436   0.218  14.498  0.4141  0.4801  0.5550
 5125TIP3    H236867   1.287   0.219  14.527  0.2381 -0.0506 -0.2978
 5126TIP3   OH236868   6.230   6.018   3.906  0.9000 -0.7827 -0.2118
 5126TIP3    H136869   6.177   6.075   3.962  1.6351  0.6085 -0.8893
 5126TIP3    H236870   6.242   5.938   3.957 -1.3420 -0.9195  0.1982
 5127TIP3   OH236871   6.654   6.556   4.503  0.6270  0.0197 -0.5122
 5127TIP3    H136872   6.560   6.567   4.510  0.2899 -1.6158 -1.8583
 5127TIP3    H236873   6.691   6.625   4.558 -1.3564 -0.4147  1.4911
 5128TIP3   OH236874   0.432   6.766  12.254 -0.3054 -0.2523 -0.0484
 5128TIP3    H136875   0.494   6.810  12.313  0.4709  1.0313 -1.7259
 5128TIP3    H236876   0.348   6.806  12.274 -0.2183 -0.4629  0.7790
 5129TIP3   OH236877   2.523   0.781   1.501  0.2924  0.1417 -0.3843
 5129TIP3    H136878   2.452   0.749   1.445  0.6641  0.3310 -0.9764
 5129TIP3    H236879   2.578   0.833   1.442 -0.1947  1.7253  0.5160
 5130TIP3   OH236880   1.260   1.191   5.113  0.0033 -0.0948  0.4056
 5130TIP3    H136881   1.209   1.222   5.188 -0.8017 -0.8260  0.1853
 5130TIP3    H236882   1.275   1.269   5.060  1.1820  0.5668  1.6422
 5131TIP3   OH236883   5.106   5.122   3.617  0.2671  0.2451 -0.5832
 5131TIP3    H136884   5.020   5.158   3.597  1.3485  2.6515 -1.2419
 5131TIP3    H236885   5.126   5.155   3.704  0.1551 -1.1106 -0.0260
 5132TIP3   OH236886   6.664   4.039  15.144 -0.4179 -0.3158 -0.0678
 5132TIP3    H136887   6.628   3.951  15.158 -0.4619 -0.3399 -0.3182
 5132TIP3    H236888   6.740   4.043  15.202 -0.6300 -0.3850  0.2167
 5133TIP3   OH236889   0.347   2.298  13.957 -0.4155  0.2171 -0.1554
 5133TIP3    H136890   0.325   2.204  13.958  1.0828 -0.1620  1.0535
 5133TIP3    H236891   0.316   2.331  14.041 -1.2291  0.9257 -0.7056
 5134TIP3   OH236892   3.999   3.553  14.460  0.0120 -0.3159  0.0528
 5134TIP3    H136893   3.951   3.478  14.426  1.8969 -1.0644 -1.1364
 5134TIP3    H236894   3.932   3.618  14.480 -1.4994 -1.4527 -1.1073
 5135TIP3   OH236895   0.855   6.231   4.402  0.7637  0.7126 -0.0064
 5135TIP3    H136896   0.882   6.258   4.315 -0.3959  3.2168  0.3362
 5135TIP3    H236897   0.777   6.284   4.421  1.1204  0.4272  2.6406
 5136TIP3   OH236898   2.484   5.881  16.249  0.9716  0.6223 -0.0218
 5136TIP3    H136899   2.448   5.964  16.217 -0.2603 -0.2710 -1.0282
 5136TIP3    H236900   2.566   5.871  16.201  0.3747  0.5328 -1.0435
 5137TIP3   OH236901   3.864   2.170   1.571  0.3871 -0.2096 -0.5634
 5137TIP3    H136902   3.785   2.160   1.624  1.0111 -0.1464  0.4224
 5137TIP3    H236903   3.875   2.085   1.528 -0.1713 -0.2411 -0.6494
 5138TIP3   OH236904   6.476   4.754  13.351 -0.3082  1.0801  0.0026
 5138TIP3    H136905   6.559   4.790  13.384  0.6352  0.6413 -1.7832
 5138TIP3    H236906   6.502   4.684  13.292 -2.0213  0.0377  0.4093
 5139TIP3   OH236907   3.965   0.899   2.202  0.4430 -0.9321 -0.5917
 5139TIP3    H136908   3.893   0.870   2.147  1.7245  0.4719 -3.1721
 5139TIP3    H236909   3.960   0.995   2.199  1.6373 -0.8230  0.2717
 5140TIP3   OH236910   1.906   2.236   1.859 -0.5461  0.1808 -0.3209
 5140TIP3    H136911   1.929   2.324   1.890 -3.9530  1.0758  0.0408
 5140TIP3    H236912   1.866   2.193   1.934  0.7669 -1.6361 -0.5966
 5141TIP3   OH236913   5.058   2.537   4.204  0.0520 -0.1782 -0.0943
 5141TIP3    H136914   5.050   2.517   4.110  0.5675  0.1802 -0.2232
 5141TIP3    H236915   5.152   2.541   4.219 -0.0277 -0.5473  0.5168
 5142TIP3   OH236916   6.752   5.099  14.086  0.5702  0.1803 -0.9955
 5142TIP3    H136917   6.696   5.174  14.067 -2.7312 -1.7311  0.3611
 5142TIP3    H236918   6.765   5.102  14.180 -1.8980 -2.2212 -0.4511
 5143TIP3   OH236919   0.370   5.714  17.105 -0.4166 -0.0219  0.0729
 5143TIP3    H136920   0.459   5.749  17.106 -0.6878  0.6907  0.6564
 5143TIP3    H236921   0.363   5.663  17.185  0.1361 -1.8887 -1.0236
 5144TIP3   OH236922   5.806   6.788   2.319  0.0435 -0.2737  0.1273
 5144TIP3    H136923   5.766   6.855   2.264  0.5731 -1.1893 -1.4312
 5144TIP3    H236924   5.818   6.831   2.404 -1.0996  1.0764 -0.3481
 5145TIP3   OH236925   5.286   4.794  15.880  0.2423 -0.3685 -0.2654
 5145TIP3    H136926   5.337   4.719  15.847  0.7141 -0.3808  0.4663
 5145TIP3    H236927   5.327   4.870  15.841  3.2352 -0.0230  3.0155
 5146TIP3   OH236928   5.099   0.599  14.390  0.3085  0.0115  0.2420
 5146TIP3    H136929   5.010   0.636  14.387  0.2434 -0.1762 -0.1879
 5146TIP3    H236930   5.122   0.601  14.482 -1.4211 -2.9691  0.8713
 5147TIP3   OH236931   2.589   0.081   3.438 -0.1116  0.2106  0.3807
 5147TIP3    H136932   2.529   0.145   3.477 -0.0259 -0.2746  1.3520
 5147TIP3    H236933   2.593   0.010   3.503 -1.6894 -1.7127 -1.4634
 5148TIP3   OH236934   0.223   1.414   3.558 -0.6732 -0.0825  0.7117
 5148TIP3    H136935   0.178   1.341   3.601 -0.5875  0.2802  1.4335
 5148TIP3    H236936   0.316   1.393   3.566 -0.6154  0.5309  1.7007
 5149TIP3   OH236937   5.886   2.491   5.973 -0.1614 -0.2828  0.8254
 5149TIP3    H136938   5.797   2.526   5.973 -0.7283 -1.6264  1.8807
 5149TIP3    H236939   5.903   2.467   6.064  0.3820 -2.1692  0.2905
 5150TIP3   OH236940   4.940   4.326  14.168  0.1075  0.6010 -0.0083
 5150TIP3    H136941   4.889   4.377  14.106 -3.2259 -2.6101 -0.2421
 5150TIP3    H236942   4.882   4.313  14.243  2.8084  1.5778  2.4513
 5151TIP3   OH236943   1.662   5.171   4.547 -0.1563 -0.4863  0.3218
 5151TIP3    H136944   1.715   5.095   4.526 -0.6015 -0.8435  0.4821
 5151TIP3    H236945   1.623   5.151   4.633 -0.9911 -0.4752 -0.0457
 5152TIP3   OH236946   6.571   3.246  11.119  0.6272 -0.3280  0.0843
 5152TIP3    H136947   6.520   3.179  11.074  1.6462 -0.7446 -0.4791
 5152TIP3    H236948   6.535   3.247  11.208  0.2454 -1.2431 -0.0490
 5153TIP3   OH236949   1.993   1.223   4.760 -0.0981 -0.0050 -0.1304
 5153TIP3    H136950   1.943   1.185   4.688  0.5330 -0.2372 -0.4627
 5153TIP3    H236951   2.070   1.262   4.718 -0.5214  1.2732  0.2585
 5154TIP3   OH236952   4.624   1.655  17.167  0.1227  0.5788  0.1874
 5154TIP3    H136953   4.541   1.610  17.182 -0.6467  1.7785 -0.3370
 5154TIP3    H236954   4.689   1.584  17.163 -1.1580 -0.5897 -1.5556
 5155TIP3   OH236955   4.205   1.545  11.418 -0.7750 -0.1227  0.0097
 5155TIP3    H136956   4.229   1.538  11.325 -0.5025  0.5715  0.0172
 5155TIP3    H236957   4.111   1.563  11.417 -0.5082  1.4368 -0.2180
 5156TIP3   OH236958   2.224   4.535   3.219  0.8561 -0.0636 -0.1853
 5156TIP3    H136959   2.248   4.540   3.311  1.7295  2.5590 -0.4504
 5156TIP3    H236960   2.304   4.509   3.174  0.5571 -0.8760 -0.2601
 5157TIP3   OH236961   5.545   4.144   5.882  0.2935 -0.3074 -0.3907
 5157TIP3    H136962   5.517   4.205   5.814 -2.1001 -0.2063  0.5940
 5157TIP3    H236963   5.624   4.184   5.919 -0.2659  1.3375 -0.8846
 5158TIP3   OH236964   3.662   1.866  12.126 -0.7042 -0.1279 -0.2927
 5158TIP3    H136965   3.682   1.800  12.060  0.1944 -0.5845  0.4048
 5158TIP3    H236966   3.570   1.889  12.111 -0.6598 -0.5929 -1.3553
 5159TIP3   OH236967   3.966   6.670  14.985 -0.1162 -0.4379  0.1323
 5159TIP3    H136968   4.020   6.613  14.931  2.8193  0.3080  1.9944
 5159TIP3    H236969   3.933   6.613  15.055 -0.6818 -0.6489 -0.3048
 5160TIP3   OH236970   0.521   1.525   2.266 -0.6794 -0.2138 -0.3798
 5160TIP3    H136971   0.576   1.508   2.190  0.4519 -0.4678  0.4668
 5160TIP3    H236972   0.446   1.467   2.255 -1.4046  0.9986 -2.1516
 5161TIP3   OH236973   4.459   1.592  14.954 -0.1974  1.0427  0.3694
 5161TIP3    H136974   4.536   1.537  14.971 -0.1952  1.4897  1.9632
 5161TIP3    H236975   4.492   1.682  14.954 -0.2777  1.1406 -1.7944
 5162TIP3   OH236976   3.776   6.064  13.953  0.2817  0.0521  0.0943
 5162TIP3    H136977   3.698   6.108  13.921 -0.0999 -0.9073 -0.3116
 5162TIP3    H236978   3.762   5.971  13.933  2.8761  0.1280 -3.0116
 5163TIP3   OH236979   1.307   5.824   0.660 -0.1303  0.3458  0.1147
 5163TIP3    H136980   1.234   5.762   0.659 -2.0961  2.5113 -0.2764
 5163TIP3    H236981   1.340   5.821   0.750 -1.1685 -0.1945  0.4938
 5164TIP3   OH236982   1.398   5.739  14.646  0.2701  0.3585 -0.2578
 5164TIP3    H136983   1.414   5.708  14.735  0.0965  1.0869  0.0369
 5164TIP3    H236984   1.325   5.801  14.655  0.9298  1.2275 -0.7325
 5165TIP3   OH236985   0.474   3.256   0.723 -0.5990  0.0931 -0.2718
 5165TIP3    H136986   0.390   3.210   0.722  0.3287 -1.7458  0.6210
 5165TIP3    H236987   0.462   3.329   0.662 -2.9142  0.0676  0.0585
 5166TIP3   OH236988   0.597   3.276   3.233 -0.3544 -0.5397 -0.5160
 5166TIP3    H136989   0.559   3.363   3.245  0.2736  0.0727 -2.5382
 5166TIP3    H236990   0.593   3.235   3.319  0.3388  1.9043  0.7586
 5167TIP3   OH236991   3.683   4.140  11.985 -0.6661 -0.4327  0.0746
 5167TIP3    H136992   3.603   4.087  11.980 -0.8227 -0.3560  1.2781
 5167TIP3    H236993   3.702   4.143  12.079  0.6268 -0.2581 -0.1820
 5168TIP3   OH236994   6.749   5.022  16.981  0.3423 -0.1078  0.2450
 5168TIP3    H136995   6.688   4.952  16.956 -1.2859  1.1234  0.6190
 5168TIP3    H236996   6.836   4.985  16.965 -0.4841 -2.0285 -0.0364
 5169TIP3   OH236997   1.344   5.721  13.520 -0.0231 -0.4276  0.1584
 5169TIP3    H136998   1.357   5.629  13.546 -0.3436 -0.2314  1.0388
 5169TIP3    H236999   1.349   5.770  13.602 -1.6844  0.1563 -0.0564
 5170TIP3   OH237000   3.715   3.298  12.339  0.1277  0.2167 -0.2417
 5170TIP3    H137001   3.732   3.213  12.381  1.8669  0.7828  0.3093
 5170TIP3    H237002   3.666   3.348  12.405 -1.4494 -0.5286 -0.8013
 5171TIP3   OH237003   5.229   2.569   4.514  0.6999  0.4976  0.0538
 5171TIP3    H137004   5.270   2.636   4.569 -0.2335  1.2617 -0.1575
 5171TIP3    H237005   5.136   2.587   4.520  0.5648  0.5392 -1.6687
 5172TIP3   OH237006   2.468   5.682  12.092  1.0347  0.3013  0.1989
 5172TIP3    H137007   2.455   5.629  12.171  0.3714 -1.7021 -1.1601
 5172TIP3    H237008   2.560   5.669  12.070  1.2148  0.8438  0.5958
 5173TIP3   OH237009   5.996   0.664  11.453 -0.0474 -0.4566  0.4703
 5173TIP3    H137010   6.028   0.621  11.374  2.2475 -0.4657  1.3183
 5173TIP3    H237011   6.005   0.598  11.522  0.1732  0.2476  1.1380
 5174TIP3   OH237012   2.970   3.824  12.826 -0.0029  0.5849  0.2275
 5174TIP3    H137013   2.953   3.916  12.806  0.6856  0.3707 -1.5574
 5174TIP3    H237014   3.035   3.825  12.896  2.2885  1.5604 -1.7572
 5175TIP3   OH237015   1.280   1.600  14.401 -0.4448 -0.1761 -0.7019
 5175TIP3    H137016   1.283   1.655  14.323  0.0570  0.7183 -0.0809
 5175TIP3    H237017   1.190   1.610  14.434 -0.8603 -1.1037 -1.5302
 5176TIP3   OH237018   5.097   5.926   0.873 -0.2393 -0.4067 -0.4500
 5176TIP3    H137019   5.112   6.009   0.829 -2.5385 -0.5320 -1.6068
 5176TIP3    H237020   5.184   5.897   0.900  0.6130  2.4190  0.1475
 5177TIP3   OH237021   4.262   1.052  12.342 -0.4363  0.0933  0.4995
 5177TIP3    H137022   4.297   1.075  12.428  0.2078 -2.2927  0.9510
 5177TIP3    H237023   4.184   1.107  12.333 -2.7840 -2.1374  4.3479
 5178TIP3   OH237024   3.386   6.150  14.346 -0.1798  0.3126 -0.0523
 5178TIP3    H137025   3.344   6.217  14.291  1.1538  0.3303 -1.1003
 5178TIP3    H237026   3.432   6.094  14.284  0.7681 -0.1112  1.0116
 5179TIP3   OH237027   0.815   0.748   3.607 -0.2035  0.5162  0.5868
 5179TIP3    H137028   0.748   0.781   3.548  2.2384  1.3945 -1.9570
 5179TIP3    H237029   0.800   0.654   3.610 -1.9877  0.7728  0.7729
 5180TIP3   OH237030   5.826   3.730  15.192 -0.1256 -1.0437  0.0270
 5180TIP3    H137031   5.794   3.641  15.208 -2.7809 -0.5568 -2.0360
 5180TIP3    H237032   5.769   3.765  15.124  1.0025  2.1795  0.5569
 5181TIP3   OH237033   6.382   1.881   3.001 -0.1527  0.5106 -0.4880
 5181TIP3    H137034   6.417   1.792   3.007 -1.3310  0.0776  0.1704
 5181TIP3    H237035   6.353   1.901   3.090 -0.4426  1.3314 -0.7601
 5182TIP3   OH237036   6.523   6.191  16.994 -0.2372 -0.2086  0.5663
 5182TIP3    H137037   6.601   6.157  16.950  0.2208 -0.3195  1.4551
 5182TIP3    H237038   6.450   6.152  16.946  0.2065  0.8022 -1.0230
 5183TIP3   OH237039   0.474   1.195  15.260 -0.1150  0.5657 -0.4631
 5183TIP3    H137040   0.559   1.165  15.294  0.4568  2.6631  0.1183
 5183TIP3    H237041   0.451   1.130  15.194  1.2775 -0.8006  0.3164
 5184TIP3   OH237042   0.365   3.524  17.070  0.7964 -0.2985  0.4762
 5184TIP3    H137043   0.293   3.583  17.047  0.9602 -0.0684  0.5481
 5184TIP3    H237044   0.376   3.469  16.993  0.1200 -0.7660  0.7028
 5185TIP3   OH237045   5.252   0.431  16.488  0.5353 -0.1164  0.1764
 5185TIP3    H137046   5.218   0.429  16.399  1.3191  1.1850 -0.1685
 5185TIP3    H237047   5.196   0.370  16.536 -1.7394  1.2892 -0.5357
 5186TIP3   OH237048   0.871   4.107   3.913  0.3382 -0.0688  0.1852
 5186TIP3    H137049   0.876   4.201   3.893  0.0343 -0.1383 -0.2331
 5186TIP3    H237050   0.962   4.079   3.917  0.4217 -0.1558 -1.6352
 5187TIP3   OH237051   4.727   1.776  11.352  0.4416  0.0428  0.2014
 5187TIP3    H137052   4.673   1.836  11.301 -0.4730 -1.4811 -0.6881
 5187TIP3    H237053   4.704   1.794  11.443 -0.9572 -0.0198 -0.1248
 5188TIP3   OH237054   2.686   0.484  16.876 -0.2476  0.7535 -0.4742
 5188TIP3    H137055   2.608   0.429  16.886 -0.2059  0.9158  0.9035
 5188TIP3    H237056   2.756   0.423  16.852 -0.0804  0.0867  1.5528
 5189TIP3   OH237057   1.858   5.662   3.803 -0.1770  0.5290  0.0021
 5189TIP3    H137058   1.949   5.683   3.824 -0.4797  0.5881  1.3603
 5189TIP3    H237059   1.863   5.590   3.739  0.8175  0.1901  0.4511
 5190TIP3   OH237060   5.523   2.292  17.105  0.3897  0.0272  0.0674
 5190TIP3    H137061   5.523   2.265  17.196  0.8456  0.0117  0.0608
 5190TIP3    H237062   5.615   2.296  17.080  0.3466  1.6185  0.0780
 5191TIP3   OH237063   4.535   2.622   5.227  0.3730 -0.0318  0.2845
 5191TIP3    H137064   4.565   2.532   5.240 -1.3377 -0.5318  1.0287
 5191TIP3    H237065   4.517   2.654   5.315 -1.6186  0.0815 -0.1208
 5192TIP3   OH237066   2.560   1.092  13.557 -0.2525  0.3179 -0.2031
 5192TIP3    H137067   2.562   1.171  13.504 -0.5505 -0.1999 -1.0103
 5192TIP3    H237068   2.548   1.021  13.494  0.5374 -0.4243  0.4602
 5193TIP3   OH237069   1.454   0.657  11.054 -0.2431 -0.2608 -0.3879
 5193TIP3    H137070   1.426   0.712  10.981 -0.9310  1.4543  1.0877
 5193TIP3    H237071   1.523   0.602  11.017  0.4431  1.5396 -1.9855
 5194TIP3   OH237072   2.796   3.927   1.959 -0.0894  0.9594  0.2188
 5194TIP3    H137073   2.728   3.991   1.979 -1.6069  0.2076 -2.1575
 5194TIP3    H237074   2.763   3.879   1.883  2.2263 -0.7983  0.2042
 5195TIP3   OH237075   3.341   2.708   5.602 -0.2826  0.1778 -0.4359
 5195TIP3    H137076   3.430   2.729   5.574 -0.1469  1.9956  1.0792
 5195TIP3    H237077   3.344   2.616   5.626  0.7169 -0.2363 -2.0181
 5196TIP3   OH237078   0.820   3.707  11.942 -0.3756 -0.1178 -0.1504
 5196TIP3    H137079   0.852   3.738  11.857 -0.7249  2.2307  0.4814
 5196TIP3    H237080   0.760   3.636  11.921 -0.1605  0.1543 -1.8439
 5197TIP3   OH237081   6.227   3.723  12.649  0.1868 -0.3988 -0.4911
 5197TIP3    H137082   6.227   3.629  12.633  0.6591 -1.1413  3.0164
 5197TIP3    H237083   6.161   3.736  12.717  2.2962  1.2485  1.3838
 5198TIP3   OH237084   3.479   3.469  13.891 -0.0260  0.0580  0.1507
 5198TIP3    H137085   3.447   3.560  13.896 -0.5833 -0.1835  1.4739
 5198TIP3    H237086   3.402   3.416  13.911  0.7532 -0.6178  1.4927
 5199TIP3   OH237087   4.459   6.556  16.208  0.4898  0.3950  0.4321
 5199TIP3    H137088   4.527   6.583  16.270  0.6823 -0.3176  0.5425
 5199TIP3    H237089   4.501   6.486  16.157  0.3849  1.0643 -0.5906
 5200TIP3   OH237090   4.298   2.104   4.828 -0.1280  0.0241  0.1984
 5200TIP3    H137091   4.284   2.195   4.801 -1.9725  0.2821  1.7837
 5200TIP3    H237092   4.388   2.085   4.804  0.4537  2.4349  0.2480
 5201TIP3   OH237093   6.142   3.619  16.149 -0.5207 -0.3517 -0.1993
 5201TIP3    H137094   6.111   3.649  16.063 -2.2492  0.9158  0.8014
 5201TIP3    H237095   6.087   3.542  16.168 -0.4764 -0.3362 -0.0144
 5202TIP3   OH237096   2.489   4.255   5.152  0.0473  0.0769  0.4954
 5202TIP3    H137097   2.434   4.224   5.081  1.4913 -1.3707 -0.0563
 5202TIP3    H237098   2.545   4.321   5.112 -0.7135  0.9642  0.8660
 5203TIP3   OH237099   4.104   3.527  12.275 -0.4415  0.1306  0.3784
 5203TIP3    H137100   4.176   3.497  12.220  0.5356 -0.1451  1.7704
 5203TIP3    H237101   4.026   3.484  12.238 -0.3146  1.9800 -2.4015
 5204TIP3   OH237102   2.494   3.095   6.013  0.3748  0.1446 -0.4403
 5204TIP3    H137103   2.575   3.136   6.043  1.4367 -2.3897  0.4426
 5204TIP3    H237104   2.515   3.065   5.924 -0.4876  1.6558 -1.1915
 5205TIP3   OH237105   5.065   3.499  13.916  0.1121  0.5915  0.4515
 5205TIP3    H137106   5.058   3.460  13.829  0.3276 -1.0284  1.1329
 5205TIP3    H237107   4.984   3.549  13.926 -0.9323 -0.9692  0.1451
 5206TIP3   OH237108   0.491   4.846   3.405  0.0782 -0.5684 -0.2961
 5206TIP3    H137109   0.450   4.910   3.463 -1.8380 -0.5368 -1.5769
 5206TIP3    H237110   0.532   4.899   3.336  0.7168 -0.6539  0.0168
 5207TIP3   OH237111   4.963   5.928  16.949 -0.1286 -0.0137 -0.0818
 5207TIP3    H137112   4.906   5.953  17.021 -0.0194 -0.1969  0.0664
 5207TIP3    H237113   4.988   6.011  16.908 -2.2339 -0.0043 -1.5046
 5208TIP3   OH237114   3.402   5.592  16.548 -0.7614 -0.7464 -0.3172
 5208TIP3    H137115   3.463   5.638  16.489  0.8363  0.9672  2.4580
 5208TIP3    H237116   3.430   5.501  16.546  2.6127  0.0922  1.4659
 5209TIP3   OH237117   3.598   5.225   5.223 -0.4089  0.6247 -0.3610
 5209TIP3    H137118   3.668   5.258   5.167 -0.1317  0.7776  0.0697
 5209TIP3    H237119   3.610   5.270   5.306  0.8576 -1.5621  0.7337
 5210TIP3   OH237120   4.152   4.079  16.543 -0.8392  0.0331  0.2838
 5210TIP3    H137121   4.063   4.049  16.563 -0.1529 -1.5947  1.0178
 5210TIP3    H237122   4.189   4.009  16.490  0.4723  0.0297  1.1682
 5211TIP3   OH237123   0.629   5.546   4.374  0.0013 -0.6338  0.1212
 5211TIP3    H137124   0.607   5.580   4.288 -0.4325 -1.0044  0.0819
 5211TIP3    H237125   0.721   5.520   4.366  0.1357 -0.1198 -0.0473
 5212TIP3   OH237126   6.088   1.308  11.298 -0.0162  0.0082  0.4323
 5212TIP3    H137127   6.089   1.254  11.377  0.2758  0.6990  0.9066
 5212TIP3    H237128   6.066   1.247  11.228 -1.9995 -0.3144  1.2651
 5213TIP3   OH237129   5.529   3.467  13.468 -0.1779  0.0762 -0.2470
 5213TIP3    H137130   5.603   3.508  13.424  0.2522 -0.3720  0.0393
 5213TIP3    H237131   5.569   3.407  13.531 -0.7838 -0.2839 -0.1920
 5214TIP3   OH237132   6.119   0.835   0.032 -0.2602 -0.2857  0.2362
 5214TIP3    H137133   6.101   0.784   0.110 -3.2278 -0.6985 -0.6097
 5214TIP3    H237134   6.076   0.919   0.047 -0.3822 -0.1627 -0.6943
 5215TIP3   OH237135   6.315   1.909  14.897  0.2961 -0.5059 -0.0141
 5215TIP3    H137136   6.265   1.831  14.874 -0.7785  0.9312 -3.0792
 5215TIP3    H237137   6.273   1.980  14.849  0.3950  2.3094  3.6125
 5216TIP3   OH237138   4.599   1.274   0.272  0.5478  0.1475 -0.0214
 5216TIP3    H137139   4.608   1.235   0.186  0.7956 -0.9969  0.5073
 5216TIP3    H237140   4.516   1.322   0.268  0.1786 -0.5230 -0.6517
 5217TIP3   OH237141   6.045   5.129   2.258  0.4194 -0.2298 -0.3701
 5217TIP3    H137142   6.096   5.054   2.287  0.7269 -0.2182 -0.8758
 5217TIP3    H237143   5.954   5.104   2.275  0.1813 -2.1526 -3.5598
 5218TIP3   OH237144   4.603   6.238  11.790 -0.6763 -0.1401  0.4072
 5218TIP3    H137145   4.659   6.291  11.733  0.2797 -0.6412  0.8388
 5218TIP3    H237146   4.648   6.241  11.875  0.1472 -2.6897  0.1352
 5219TIP3   OH237147   3.923   6.199  13.423 -0.2103  0.2155 -0.5495
 5219TIP3    H137148   3.841   6.211  13.375  0.2307 -2.6629 -2.2797
 5219TIP3    H237149   3.984   6.164  13.358  1.9240  0.6654  1.0784
 5220TIP3   OH237150   5.801   3.063  15.338  0.4094  0.4961  0.2142
 5220TIP3    H137151   5.862   3.010  15.287  0.2780  1.1312 -0.6223
 5220TIP3    H237152   5.768   3.004  15.405 -0.3103 -0.7218 -1.1551
 5221TIP3   OH237153   2.737   5.245  13.941 -0.3542 -0.2496 -0.0485
 5221TIP3    H137154   2.682   5.182  13.988 -0.1411  0.9280  1.8678
 5221TIP3    H237155   2.825   5.208  13.946 -0.4467 -0.4942 -0.1930
 5222TIP3   OH237156   5.789   5.933  12.499  0.0786  0.2876  0.1454
 5222TIP3    H137157   5.723   5.902  12.562 -1.3692  1.1286 -0.8962
 5222TIP3    H237158   5.767   6.025  12.485  0.4957  0.1719 -1.4148
 5223TIP3   OH237159   0.089   1.272  13.925 -0.3136 -0.6515 -0.0249
 5223TIP3    H137160   0.083   1.245  14.017  2.5042 -0.0441  0.4231
 5223TIP3    H237161   0.176   1.312  13.917 -1.7361  2.3763 -2.1918
 5224TIP3   OH237162   5.357   1.124  15.888 -0.1212  0.3210 -0.0363
 5224TIP3    H137163   5.358   1.214  15.921  2.0542  0.4709 -0.3342
 5224TIP3    H237164   5.340   1.133  15.794  2.9523  0.7875 -0.6706
 5225TIP3   OH237165   1.581   1.754  12.200  0.0624 -0.1097  0.0656
 5225TIP3    H137166   1.593   1.830  12.256 -1.1107  0.3544 -0.2821
 5225TIP3    H237167   1.530   1.786  12.126  0.7131 -0.9379 -0.7678
 5226TIP3   OH237168   6.120   2.785   1.634  0.6358 -0.5199 -0.2376
 5226TIP3    H137169   6.180   2.816   1.566  0.3683 -0.5205 -0.4713
 5226TIP3    H237170   6.061   2.859   1.649  1.4590 -0.0517  0.8787
 5227TIP3   OH237171   3.223   3.353   5.223  0.4976  0.3203 -0.0337
 5227TIP3    H137172   3.230   3.430   5.167  0.8739 -0.1740 -0.6715
 5227TIP3    H237173   3.232   3.279   5.164  2.2566 -0.2158  0.8356
 5228TIP3   OH237174   4.081   3.049   5.033  0.0325  0.3659 -0.3154
 5228TIP3    H137175   4.176   3.043   5.019  0.1843 -2.1304  1.2454
 5228TIP3    H237176   4.049   2.960   5.018 -1.4675  0.2385  2.8999
 5229TIP3   OH237177   5.127   0.915  11.657  0.1635 -0.1679  0.1185
 5229TIP3    H137178   5.097   0.889  11.744 -1.7639 -1.3870 -0.8446
 5229TIP3    H237179   5.078   0.859  11.597  0.5176  1.4771 -1.8131
 5230TIP3   OH237180   3.929   1.874   1.495 -0.7436  0.0112 -0.1537
 5230TIP3    H137181   3.947   1.851   1.404  1.0872 -0.1597  0.2190
 5230TIP3    H237182   3.855   1.819   1.519 -0.5152 -0.7827 -1.1921
 5231TIP3   OH237183   5.317   0.027   4.541 -0.0160  0.3857  0.4590
 5231TIP3    H137184   5.307   0.028   4.446 -1.0357 -0.3100  0.5317
 5231TIP3    H237185   5.252  -0.037   4.570  2.1417 -1.4751  1.4208
 5232TIP3   OH237186   2.087   5.825  12.918  0.5517 -0.6836  0.0214
 5232TIP3    H137187   2.079   5.779  12.834  0.2457  0.5905 -0.6744
 5232TIP3    H237188   2.016   5.888  12.918  2.7939  2.0472 -0.5341
 5233TIP3   OH237189   4.831   6.653   2.268 -0.3814 -0.4130 -0.3334
 5233TIP3    H137190   4.791   6.576   2.309  0.9432  0.0497  2.0371
 5233TIP3    H237191   4.919   6.656   2.304 -0.3847  2.1949 -0.3568
 5234TIP3   OH237192   2.230   2.530   5.596  0.3009  0.0067 -1.0122
 5234TIP3    H137193   2.300   2.472   5.625 -0.8775 -1.6027 -1.2223
 5234TIP3    H237194   2.273   2.593   5.539  1.8389  0.1151  0.1983
 5235TIP3   OH237195   2.940   1.990   4.852  0.1209 -0.3948  0.0860
 5235TIP3    H137196   2.966   1.937   4.928 -0.1198  0.3692  0.7147
 5235TIP3    H237197   3.020   2.000   4.801  0.3349 -0.7251  0.3493
 5236TIP3   OH237198   5.395   2.803  16.798 -0.5399 -0.2498  0.5931
 5236TIP3    H137199   5.367   2.877  16.853 -0.2591  1.2024 -1.1297
 5236TIP3    H237200   5.428   2.738  16.860 -2.8085  0.1358  2.3344
 5237TIP3   OH237201   4.557   6.492   5.080  0.5536  0.0075 -0.1934
 5237TIP3    H137202   4.472   6.482   5.038  0.7514  0.8311 -0.8227
 5237TIP3    H237203   4.613   6.429   5.036  0.7760  0.9035 -1.2485
 5238TIP3   OH237204   5.165   6.743  13.229  0.6587 -0.6789 -0.5127
 5238TIP3    H137205   5.210   6.818  13.268  0.4034 -0.8578  0.1325
 5238TIP3    H237206   5.230   6.705  13.169  0.8676 -0.0825 -0.6676
 5239TIP3   OH237207   4.354   2.721   3.826 -0.1057  0.3091 -0.3731
 5239TIP3    H137208   4.417   2.792   3.823  1.2359 -0.8175 -0.0956
 5239TIP3    H237209   4.377   2.671   3.904 -0.6892 -0.6910 -0.8129
 5240TIP3   OH237210   5.516   5.975  12.199  0.0078  0.1978  0.4045
 5240TIP3    H137211   5.570   6.045  12.164  0.6758 -0.4821  0.0691
 5240TIP3    H237212   5.511   5.994  12.293  2.1292 -0.5803  0.7168
 5241TIP3   OH237213   4.248   3.835   4.103 -0.4794  0.3945  0.7627
 5241TIP3    H137214   4.332   3.802   4.135  0.0783 -0.2300 -1.1633
 5241TIP3    H237215   4.260   3.929   4.095  0.6934  0.1304 -1.1336
 5242TIP3   OH237216   5.849   4.074  12.336 -0.2031  0.3258  0.0739
 5242TIP3    H137217   5.903   4.064  12.415 -0.3158  1.1126  0.2547
 5242TIP3    H237218   5.876   4.158  12.299 -0.2238  0.0110 -0.6739
 5243TIP3   OH237219   3.130   0.307   4.578 -0.5464  0.1338 -0.0258
 5243TIP3    H137220   3.119   0.212   4.570  0.3661 -0.2055  2.1489
 5243TIP3    H237221   3.165   0.334   4.493  0.3774 -1.6680 -0.2689
 5244TIP3   OH237222   0.806   0.665  14.179 -0.4400 -0.0790 -0.8858
 5244TIP3    H137223   0.745   0.732  14.211  1.1349  0.6243  0.8640
 5244TIP3    H237224   0.802   0.596  14.246 -0.3026 -0.6541 -1.4607
 5245TIP3   OH237225   3.103   5.938  12.215  0.1336 -0.1242 -0.0519
 5245TIP3    H137226   3.143   5.856  12.244  0.8514  0.3036  0.1897
 5245TIP3    H237227   3.015   5.936  12.251  0.8229  0.1447  1.7287
 5246TIP3   OH237228   1.168   3.085  11.512  0.5897 -0.1202  0.6127
 5246TIP3    H137229   1.224   3.024  11.560 -0.5072 -0.1074  1.9911
 5246TIP3    H237230   1.198   3.080  11.422  4.0516  1.2310  1.5222
 5247TIP3   OH237231   3.653   4.063  15.086  0.0747  0.4242  0.7521
 5247TIP3    H137232   3.721   4.015  15.038  0.7215  0.6318  1.4296
 5247TIP3    H237233   3.619   3.999  15.148  1.1694  0.8969  1.8846
 5248TIP3   OH237234   1.371   6.131  16.405 -0.3957  0.0434  0.4552
 5248TIP3    H137235   1.280   6.114  16.380  0.2494 -1.8556 -0.8559
 5248TIP3    H237236   1.407   6.181  16.332 -0.2431  0.3667  0.7494
 5249TIP3   OH237237   0.507   4.023   3.560 -0.4250  0.0007  0.3360
 5249TIP3    H137238   0.501   3.961   3.488 -0.6658  0.2108  0.1750
 5249TIP3    H237239   0.564   3.980   3.624  1.2326  0.5423 -0.7173
 5250TIP3   OH237240   2.414   2.280   1.814  0.2625  0.1100  0.1098
 5250TIP3    H137241   2.405   2.375   1.816 -0.6825  0.0191  0.3863
 5250TIP3    H237242   2.344   2.250   1.756  0.1065 -0.4670  0.5870
 5251TIP3   OH237243   6.057   6.065  16.663 -0.6521  0.1293  0.4551
 5251TIP3    H137244   5.978   6.080  16.715 -0.4987 -1.3040  1.1522
 5251TIP3    H237245   6.024   6.040  16.577 -0.9471  0.3679  0.4987
 5252TIP3   OH237246   1.672   4.400   2.977  0.4184  0.1110 -0.6176
 5252TIP3    H137247   1.709   4.391   3.065  1.1880  0.8265 -0.8510
 5252TIP3    H237248   1.619   4.322   2.965 -0.0903  0.2257  0.6668
 5253TIP3   OH237249   1.911   2.775   1.285  0.6280  0.1783 -0.0085
 5253TIP3    H137250   1.979   2.831   1.248 -0.2514  0.9694 -0.4919
 5253TIP3    H237251   1.857   2.834   1.338  0.3029 -0.4254  0.3553
 5254TIP3   OH237252   0.499   1.038   3.880 -0.2232  0.1362  0.2861
 5254TIP3    H137253   0.429   1.063   3.820 -0.8871  0.1728  1.0575
 5254TIP3    H237254   0.488   0.943   3.892  0.0161  0.0983  0.2152
 5255TIP3   OH237255   2.487   1.046  10.774 -0.7120  0.2947 -0.1870
 5255TIP3    H137256   2.527   1.110  10.833  1.0623  0.8419 -1.8575
 5255TIP3    H237257   2.393   1.057  10.785 -0.4270  2.1504  0.6678
 5256TIP3   OH237258   0.850   1.831   0.195 -0.1934  0.5314 -0.5632
 5256TIP3    H137259   0.898   1.769   0.249 -0.1264  0.0475 -1.1601
 5256TIP3    H237260   0.842   1.787   0.110 -1.1002  0.8875 -0.6746
 5257TIP3   OH237261   1.270   4.342   3.931  0.1539  0.0599 -0.0356
 5257TIP3    H137262   1.229   4.402   3.994 -1.4618  0.1167 -1.0815
 5257TIP3    H237263   1.361   4.337   3.959 -0.6847 -0.7376  2.9277
 5258TIP3   OH237264   4.501   5.660   1.618  0.4366  0.9779  0.4345
 5258TIP3    H137265   4.545   5.660   1.532 -0.5945  0.2649 -0.1157
 5258TIP3    H237266   4.569   5.688   1.679  2.4591 -2.4500 -0.0013
 5259TIP3   OH237267   2.750   3.821  13.641  0.6948  0.0013 -0.0431
 5259TIP3    H137268   2.818   3.757  13.621  0.9002  0.7272 -1.8892
 5259TIP3    H237269   2.672   3.788  13.596 -0.4034 -1.1471  2.5633
 5260TIP3   OH237270   4.108   1.974   5.820 -0.1880  0.2090  0.1024
 5260TIP3    H137271   4.186   1.929   5.851 -0.7424 -1.2384 -0.4955
 5260TIP3    H237272   4.056   1.990   5.899 -0.0632 -0.3836  0.3057
 5261TIP3   OH237273   1.777   2.776   3.168  0.6700  0.5374  0.1012
 5261TIP3    H137274   1.792   2.719   3.093  0.5798 -0.9265  1.1517
 5261TIP3    H237275   1.789   2.864   3.134  0.4758 -0.0782 -1.6602
 5262TIP3   OH237276   1.387   5.090   1.159  0.2689 -0.3577 -0.5090
 5262TIP3    H137277   1.362   5.096   1.067  0.7190 -0.1841 -0.6183
 5262TIP3    H237278   1.449   5.017   1.163 -1.0264 -1.5003 -0.0649
 5263TIP3   OH237279   2.838   1.143   0.372 -0.0638  0.3710  0.1380
 5263TIP3    H137280   2.815   1.232   0.398 -0.6382 -0.0213  1.0023
 5263TIP3    H237281   2.913   1.120   0.427 -0.7775 -0.1641  0.9227
 5264TIP3   OH237282   5.025   4.621  16.051  0.1785 -0.6950 -0.1042
 5264TIP3    H137283   4.999   4.645  16.141  3.0010  1.9055  0.1757
 5264TIP3    H237284   5.101   4.565  16.062 -1.1897 -2.8350 -0.9500
 5265TIP3   OH237285   5.754   1.736   4.480  0.6308 -0.3974 -0.1567
 5265TIP3    H137286   5.841   1.714   4.516  0.7387  1.6014  0.9575
 5265TIP3    H237287   5.737   1.825   4.512 -1.6922 -0.6112 -0.6462
 5266TIP3   OH237288   5.173   6.161  13.152  0.1241 -0.3584  0.2658
 5266TIP3    H137289   5.082   6.135  13.144  0.2834 -0.4659 -2.1446
 5266TIP3    H237290   5.219   6.083  13.181 -0.3345 -0.8336 -0.2658
 5267TIP3   OH237291   6.379   2.022  14.590  0.9051 -0.5954 -0.6414
 5267TIP3    H137292   6.460   1.972  14.581  1.5617  0.2702  0.2118
 5267TIP3    H237293   6.398   2.087  14.658 -0.7216 -0.7930  0.0713
 5268TIP3   OH237294   1.475   0.677  12.289  0.4951 -0.3058  0.0131
 5268TIP3    H137295   1.471   0.764  12.250  1.9108 -0.1183  0.2387
 5268TIP3    H237296   1.540   0.630  12.237 -0.7609 -1.4820 -0.5530
 5269TIP3   OH237297   2.002   2.892   0.197 -0.0945  0.3324 -0.5224
 5269TIP3    H137298   1.958   2.976   0.188 -1.2081 -0.2878 -1.0725
 5269TIP3    H237299   1.948   2.842   0.258  0.8047  0.1624  0.1619
 5270TIP3   OH237300   2.880   2.511  15.051 -0.2754  0.2323 -0.5238
 5270TIP3    H137301   2.908   2.592  15.094 -0.9526  0.7530 -1.0379
 5270TIP3    H237302   2.900   2.442  15.114 -2.2254  1.0574  1.0967
 5271TIP3   OH237303   3.389   4.980  15.285 -0.1032  0.4832  0.0068
 5271TIP3    H137304   3.400   5.067  15.324 -0.4898  0.4040  0.2964
 5271TIP3    H237305   3.402   4.994  15.191 -0.4751  0.9086  0.0136
 5272TIP3   OH237306   3.103   0.744  13.948 -0.3014 -0.1497  0.1064
 5272TIP3    H137307   3.091   0.651  13.967  0.9669 -0.9460 -2.4788
 5272TIP3    H237308   3.178   0.770  14.002 -0.0422 -0.9097  0.1295
 5273TIP3   OH237309   3.773   1.155  16.329  0.4287 -0.0251 -0.2932
 5273TIP3    H137310   3.745   1.103  16.405  1.0413 -0.0299 -0.0640
 5273TIP3    H237311   3.765   1.245  16.359  0.8540 -0.0322 -0.1554
 5274TIP3   OH237312   6.817   2.267   4.337  0.2411 -0.0135  0.3499
 5274TIP3    H137313   6.810   2.174   4.359 -2.5894  0.2626  0.9797
 5274TIP3    H237314   6.800   2.271   4.243 -0.8530 -0.0469  0.5393
 5275TIP3   OH237315   5.798   1.526   3.850 -0.2138  0.7887 -0.3079
 5275TIP3    H137316   5.722   1.477   3.819 -0.5270 -0.5943  2.3471
 5275TIP3    H237317   5.873   1.485   3.807 -0.7587  0.6228 -1.1358
 5276TIP3   OH237318   0.976   6.661   3.548 -0.1111 -0.0529 -0.2693
 5276TIP3    H137319   1.054   6.706   3.581 -0.0747  1.2178 -1.9535
 5276TIP3    H237320   1.010   6.584   3.503 -0.0612 -0.9571  1.2243
 5277TIP3   OH237321   1.747   3.747  12.817 -0.0717  0.2127  0.2099
 5277TIP3    H137322   1.819   3.779  12.763  0.5148 -1.3009  0.0389
 5277TIP3    H237323   1.718   3.823  12.867  0.6096  1.2038 -0.8658
 5278TIP3   OH237324   0.872   5.495  10.294  0.0886  0.5105 -0.6844
 5278TIP3    H137325   0.845   5.428  10.233  0.8661  0.1025 -0.5989
 5278TIP3    H237326   0.842   5.464  10.380  0.0416  0.4927 -0.7072
 5279TIP3   OH237327   2.995   5.260   1.981  0.2338 -0.3117  0.0782
 5279TIP3    H137328   2.909   5.254   2.024  0.9722 -0.9693  1.5399
 5279TIP3    H237329   3.006   5.353   1.963 -1.2385 -0.3230 -1.1599
 5280TIP3   OH237330   4.407   0.004   1.159  0.4450  0.2912  0.4688
 5280TIP3    H137331   4.428  -0.018   1.068 -0.8785  1.3744 -0.1427
 5280TIP3    H237332   4.492   0.011   1.202  1.2200  1.5181 -1.1355
 5281TIP3   OH237333   6.527   5.083  14.680  0.0231  0.9052 -0.0415
 5281TIP3    H137334   6.573   5.152  14.632  1.8663  0.0223  0.3840
 5281TIP3    H237335   6.555   5.002  14.638 -3.0014  0.3574 -1.3072
 5282TIP3   OH237336   1.008   1.878  10.694 -0.1850  0.9562 -0.1437
 5282TIP3    H137337   0.998   1.905  10.603  1.4963  2.3593  0.0345
 5282TIP3    H237338   1.097   1.844  10.699 -0.2240  1.0010  1.0016
 5283TIP3   OH237339   0.880   3.641   2.558 -1.0544 -0.1561  0.9685
 5283TIP3    H137340   0.929   3.692   2.623  1.0100 -1.9670  0.9213
 5283TIP3    H237341   0.853   3.706   2.492  2.4280  0.8198  0.3406
 5284TIP3   OH237342   2.002   2.294  12.568 -0.1235  0.2819 -0.3272
 5284TIP3    H137343   1.953   2.331  12.641  1.3779  2.2485 -0.2471
 5284TIP3    H237344   2.094   2.305  12.592  0.4061 -1.5486 -1.3230
 5285TIP3   OH237345   2.669   6.267   1.472  0.2164 -0.1766  0.4333
 5285TIP3    H137346   2.649   6.199   1.407  1.5752 -1.1414  0.9547
 5285TIP3    H237347   2.596   6.264   1.534 -1.0267  0.6655 -0.9420
 5286TIP3   OH237348   3.655   5.369   3.881 -0.2066  0.0516 -0.0081
 5286TIP3    H137349   3.691   5.313   3.950 -0.7212 -1.0135 -0.5735
 5286TIP3    H237350   3.560   5.368   3.896 -0.3949 -0.7437 -1.0968
 5287TIP3   OH237351   0.632   6.384  10.956  0.2410  0.1224 -0.2840
 5287TIP3    H137352   0.646   6.405  11.048 -0.5620  1.1486 -0.3817
 5287TIP3    H237353   0.550   6.427  10.933  0.7730  0.4654 -1.6590
 5288TIP3   OH237354   3.384   2.567   0.072 -0.5576  0.7637  0.4593
 5288TIP3    H137355   3.413   2.636   0.131  0.6166  0.5095  0.1949
 5288TIP3    H237356   3.360   2.613  -0.009  0.2552  0.8723  0.2700
 5289TIP3   OH237357   0.612   6.480   3.706  0.0233 -0.3203  0.3597
 5289TIP3    H137358   0.695   6.458   3.749  0.3536 -2.7097 -1.3290
 5289TIP3    H237359   0.632   6.476   3.613 -2.3696 -2.9093 -0.1524
 5290TIP3   OH237360   2.406   1.025  11.176  0.7161  0.2958 -0.5984
 5290TIP3    H137361   2.337   0.971  11.138 -0.7759  0.0903  2.1968
 5290TIP3    H237362   2.363   1.106  11.200  1.5916  0.4459  0.5338
 5291TIP3   OH237363   6.019   6.535  13.976  0.0749  0.0114 -0.6904
 5291TIP3    H137364   6.095   6.510  14.030  0.2514  0.4332 -0.7361
 5291TIP3    H237365   6.058   6.574  13.898 -0.1913  0.0768 -0.7905
 5292TIP3   OH237366   6.545   1.324  14.197  0.1286 -0.5876 -0.1069
 5292TIP3    H137367   6.604   1.320  14.272 -0.4264 -0.9401  0.3146
 5292TIP3    H237368   6.458   1.318  14.234 -0.1336 -1.5892 -0.8254
 5293TIP3   OH237369   3.769   5.669  15.391  0.0099 -0.3765 -0.2695
 5293TIP3    H137370   3.839   5.635  15.336 -1.7339 -1.1331 -2.1786
 5293TIP3    H237371   3.732   5.591  15.433 -0.2455 -0.0898  0.0459
 5294TIP3   OH237372   3.304   1.837  13.604  0.4775  0.3907  0.1851
 5294TIP3    H137373   3.384   1.805  13.562 -0.1756 -0.6887 -0.2765
 5294TIP3    H237374   3.321   1.827  13.698  0.8096 -0.0301  0.0851
 5295TIP3   OH237375   0.326   2.394  12.311  0.3243 -0.1025  0.0770
 5295TIP3    H137376   0.379   2.403  12.232 -0.3542  0.2436 -0.3412
 5295TIP3    H237377   0.257   2.459  12.302  0.2218 -0.0803  0.9432
 5296TIP3   OH237378   2.462   3.821  16.519 -0.0674  0.3912 -0.2594
 5296TIP3    H137379   2.499   3.824  16.607 -1.0098 -0.1206  0.1610
 5296TIP3    H237380   2.408   3.899  16.513 -2.9929 -1.3625  1.0037
 5297TIP3   OH237381   5.853   6.482  15.377 -0.1613 -0.6783 -0.0162
 5297TIP3    H137382   5.782   6.430  15.413 -2.2824  1.3475 -1.0249
 5297TIP3    H237383   5.824   6.572  15.385  1.4910  0.1357 -2.1062
 5298TIP3   OH237384   2.874   4.576  16.931 -0.4312  0.7872  0.1109
 5298TIP3    H137385   2.854   4.570  16.837  0.9787  0.0482 -0.1733
 5298TIP3    H237386   2.945   4.640  16.937  0.0725  0.2016  0.5597
 5299TIP3   OH237387   2.011   1.349   1.927  0.5487  0.5009 -0.1855
 5299TIP3    H137388   2.074   1.282   1.898 -0.1317  0.0569 -0.6547
 5299TIP3    H237389   2.024   1.422   1.866 -0.4116 -0.1698 -1.2323
 5300TIP3   OH237390   1.921   6.246   5.584  0.5341 -0.4872  0.0822
 5300TIP3    H137391   1.926   6.193   5.505 -1.5136  1.2497 -1.3507
 5300TIP3    H237392   1.894   6.186   5.653  3.0883 -2.1913 -0.2849
 5301TIP3   OH237393   3.399   0.675  13.116 -0.2150  0.5248  0.0985
 5301TIP3    H137394   3.306   0.689  13.096 -0.2906  2.7626  1.6471
 5301TIP3    H237395   3.414   0.727  13.195  2.8422  1.9126 -1.2445
 5302TIP3   OH237396   3.887   0.913   6.503  0.1083 -0.3349  0.0454
 5302TIP3    H137397   3.873   0.972   6.577  2.5710 -0.8523  1.0442
 5302TIP3    H237398   3.944   0.962   6.444  1.1029 -1.1968  0.2613
 5303TIP3   OH237399   6.548   3.092   2.000  0.0403 -0.2953 -0.2688
 5303TIP3    H137400   6.523   3.020   2.059 -0.5313 -0.2295 -0.4219
 5303TIP3    H237401   6.643   3.099   2.010 -0.2807  1.6168  2.8796
 5304TIP3   OH237402   5.390   5.875  10.868 -0.1139  0.5343  0.3981
 5304TIP3    H137403   5.418   5.832  10.787 -2.2799 -2.4771  1.0510
 5304TIP3    H237404   5.441   5.831  10.936 -2.1610 -1.0217  1.0551
 5305TIP3   OH237405   0.601   3.841   0.279  0.2509 -0.0696  0.3963
 5305TIP3    H137406   0.540   3.803   0.216 -1.5644 -2.8209  3.5213
 5305TIP3    H237407   0.544   3.881   0.345  2.0331  1.2717  1.1810
 5306TIP3   OH237408   3.524   5.040  14.589  0.3437  0.1172 -0.4536
 5306TIP3    H137409   3.588   5.035  14.518  1.4172  0.0986  0.4927
 5306TIP3    H237410   3.486   5.128  14.581  1.7334  0.7819  0.0081
 5307TIP3   OH237411   2.828   1.541   2.753  0.0388  0.0152  0.0637
 5307TIP3    H137412   2.769   1.471   2.727  0.2270 -0.5443  1.1140
 5307TIP3    H237413   2.857   1.580   2.670  0.3530 -1.4815 -0.5539
 5308TIP3   OH237414   5.698   1.266   0.868 -0.6360 -0.0081  0.5325
 5308TIP3    H137415   5.605   1.248   0.883 -1.0583  0.4409 -1.2878
 5308TIP3    H237416   5.729   1.191   0.819 -0.2694  0.2728  0.3295
 5309TIP3   OH237417   6.831   6.732   0.992 -0.1494  0.3833 -0.2820
 5309TIP3    H137418   6.891   6.798   1.026 -0.7817  0.5171  0.6047
 5309TIP3    H237419   6.803   6.768   0.907  2.4579 -0.5847 -1.6586
 5310TIP3   OH237420   0.206   5.773   3.846 -0.5271 -0.1478  0.1005
 5310TIP3    H137421   0.222   5.812   3.761 -0.0521  3.3409  1.6063
 5310TIP3    H237422   0.112   5.752   3.846 -0.1988 -1.9270 -1.7998
 5311TIP3   OH237423   2.495   4.227  12.308  0.6102  0.2994 -0.3729
 5311TIP3    H137424   2.583   4.198  12.333  0.2125 -0.3630  0.3069
 5311TIP3    H237425   2.466   4.282  12.381  0.5667  0.7453 -0.7246
 5312TIP3   OH237426   3.007   0.986  16.587  0.0534 -0.2256 -0.4518
 5312TIP3    H137427   2.915   0.960  16.592 -0.0632  0.1658 -0.5375
 5312TIP3    H237428   3.055   0.910  16.622 -0.4519  0.6060  2.3161
 5313TIP3   OH237429   3.004   1.136  14.343  0.0513 -0.1464  0.3761
 5313TIP3    H137430   3.064   1.138  14.268 -3.4692  1.6553 -2.6527
 5313TIP3    H237431   3.001   1.043  14.367 -0.9821 -1.4573 -3.8918
 5314TIP3   OH237432   5.846   3.508   0.532 -0.6464  0.1958  0.1344
 5314TIP3    H137433   5.833   3.600   0.555 -0.7576  0.7005 -1.7223
 5314TIP3    H237434   5.909   3.475   0.597 -2.4973  0.8396  2.3677
 5315TIP3   OH237435   3.604   5.404   2.530 -0.1501 -0.0123  0.4858
 5315TIP3    H137436   3.633   5.347   2.458 -0.5616  0.0680  0.2559
 5315TIP3    H237437   3.558   5.475   2.486 -1.0698 -0.3558  0.8739
 5316TIP3   OH237438   2.679   4.140   6.032 -0.2969  0.3138 -0.3734
 5316TIP3    H137439   2.665   4.234   6.022  1.1282  0.9945  2.7531
 5316TIP3    H237440   2.613   4.113   6.096  0.5856 -0.3307  0.2967
 5317TIP3   OH237441   2.348   4.837  16.591  0.2491  0.1995  0.3760
 5317TIP3    H137442   2.434   4.801  16.611  0.2062 -1.0934 -1.4777
 5317TIP3    H237443   2.363   4.893  16.514 -0.5337 -0.0337  0.0425
 5318TIP3   OH237444   0.081   5.890   6.037  0.0846 -0.4932 -0.3487
 5318TIP3    H137445   0.011   5.919   6.097  0.5011  1.7621 -0.8646
 5318TIP3    H237446   0.138   5.836   6.091 -0.0339  0.7575  1.0871
 5319TIP3   OH237447   6.830   0.092   5.780  0.4865 -0.7883 -0.2259
 5319TIP3    H137448   6.907   0.042   5.751  0.3206 -1.2486  0.1107
 5319TIP3    H237449   6.764   0.025   5.800  0.6337 -0.5179  1.3219
 5320TIP3   OH237450   6.605   0.383  16.508 -0.8316  0.1420  0.0685
 5320TIP3    H137451   6.641   0.407  16.593  1.7591  1.4371 -1.2605
 5320TIP3    H237452   6.676   0.403  16.446 -2.5160 -0.9801 -2.3641
 5321TIP3   OH237453   2.640   6.048   1.271 -0.0725 -0.4183  0.0295
 5321TIP3    H137454   2.640   6.038   1.176  0.4621 -1.5803  0.1375
 5321TIP3    H237455   2.574   5.986   1.301  0.3435 -0.6423  0.4774
 5322TIP3   OH237456   2.015   0.965   2.639  0.2966  0.2427  0.1974
 5322TIP3    H137457   1.953   0.940   2.708  3.2034 -0.2809  2.8519
 5322TIP3    H237458   2.091   0.909   2.654  1.9733  1.7809 -2.0060
 5323TIP3   OH237459   5.589   4.863  12.874 -0.5354  0.1004  0.1547
 5323TIP3    H137460   5.654   4.867  12.803  0.3922 -0.9464  0.9284
 5323TIP3    H237461   5.637   4.891  12.952 -1.4141  0.7301  0.4806
 5324TIP3   OH237462   5.434   1.036  13.974  0.0236  0.1468  0.7752
 5324TIP3    H137463   5.388   1.116  13.999  0.7652 -0.7432  6.2203
 5324TIP3    H237464   5.520   1.044  14.015  2.3259 -1.2906 -3.1732
 5325TIP3   OH237465   6.242   1.077  14.184  0.3647 -0.0879  0.6313
 5325TIP3    H137466   6.169   1.138  14.197  0.1485 -0.6029  1.8930
 5325TIP3    H237467   6.204   0.991  14.197  1.3462 -0.3302  2.0583
 5326TIP3   OH237468   6.175   5.714   1.946  0.2520 -0.1686 -0.1886
 5326TIP3    H137469   6.161   5.769   2.024  0.4183 -0.9269  0.3884
 5326TIP3    H237470   6.123   5.636   1.963  0.4187 -0.4054 -0.7749
 5327TIP3   OH237471   0.693   0.754   6.796  0.5490 -0.3928 -0.3952
 5327TIP3    H137472   0.765   0.722   6.742  0.4765 -1.5971  0.1936
 5327TIP3    H237473   0.692   0.696   6.872 -2.0761 -1.5090 -1.1575
 5328TIP3   OH237474   3.233   5.190   0.223  0.6831 -0.2674 -0.1081
 5328TIP3    H137475   3.214   5.262   0.284 -1.7002  0.9299 -2.1295
 5328TIP3    H237476   3.195   5.113   0.265 -0.4428  0.4353  0.2161
 5329TIP3   OH237477   3.063   2.307  11.313  0.4395  0.2900  1.0697
 5329TIP3    H137478   2.982   2.261  11.291  0.7563  1.0777 -2.2335
 5329TIP3    H237479   3.035   2.396  11.335  0.3800  0.5801 -0.1364
 5330TIP3   OH237480   6.699   3.103  13.520 -0.0037 -0.4685  0.1141
 5330TIP3    H137481   6.776   3.082  13.573 -0.6247  0.2534  1.3494
 5330TIP3    H237482   6.645   3.157  13.577 -2.1073 -2.1224 -0.1793
 5331TIP3   OH237483   6.700   1.997   3.188  0.0067  0.2924 -0.0004
 5331TIP3    H137484   6.653   1.972   3.268  0.9715 -0.4691  0.3517
 5331TIP3    H237485   6.782   2.035   3.220 -0.0527  0.9631 -0.6236
 5332TIP3   OH237486   3.820   3.989   6.372 -0.4453 -0.1032 -0.1734
 5332TIP3    H137487   3.887   4.049   6.406 -0.4123 -0.3675  0.2331
 5332TIP3    H237488   3.869   3.927   6.317 -0.4401  0.0688 -0.3630
 5333TIP3   OH237489   0.756   5.999  14.011  0.2092  0.0493  0.1963
 5333TIP3    H137490   0.759   6.063  13.940  3.7521  0.1607  0.2933
 5333TIP3    H237491   0.766   5.914  13.967  0.9083  0.0039  0.4356
 5334TIP3   OH237492   0.057   2.498   3.217 -0.0319 -0.4770  0.1556
 5334TIP3    H137493   0.098   2.413   3.210 -0.3843 -0.7668  1.4253
 5334TIP3    H237494  -0.036   2.482   3.197  0.2470  0.0110 -1.7628
 5335TIP3   OH237495   6.297   0.669  11.968  0.2936 -0.2859 -0.5704
 5335TIP3    H137496   6.246   0.634  11.895 -1.3377  0.2821  0.2318
 5335TIP3    H237497   6.387   0.668  11.938 -0.2956 -0.4319 -2.4342
 5336TIP3   OH237498   0.340   6.810   1.959  0.1198 -0.0333 -0.4795
 5336TIP3    H137499   0.436   6.817   1.957  0.1339 -0.4681 -1.5220
 5336TIP3    H237500   0.310   6.865   1.886 -0.4231 -0.0227 -0.2550
 5337TIP3   OH237501   3.060   0.922  12.280  0.7610 -0.0672 -0.0495
 5337TIP3    H137502   3.003   0.963  12.214  0.9015  1.3358  0.6499
 5337TIP3    H237503   3.065   0.830  12.254 -0.9333  0.0029 -0.7468
 5338TIP3   OH237504   1.886   3.298   4.155 -0.0150 -0.3407 -0.0201
 5338TIP3    H137505   1.806   3.278   4.205  0.1476 -0.2567  0.2796
 5338TIP3    H237506   1.862   3.373   4.101 -0.2811 -0.6136 -0.2887
 5339TIP3   OH237507   0.546   0.350  15.741  0.5828 -0.2232  0.6333
 5339TIP3    H137508   0.566   0.270  15.691  2.3155  0.1026  0.7199
 5339TIP3    H237509   0.523   0.319  15.828 -4.2887 -0.9385 -0.6191
 5340TIP3   OH237510   2.514   5.324  12.071  0.0210  0.4101 -0.0545
 5340TIP3    H137511   2.605   5.342  12.046  0.1901 -1.8692 -1.3822
 5340TIP3    H237512   2.521   5.274  12.152 -0.1246  1.0562  0.3650
 5341TIP3   OH237513   4.324   5.105   1.800 -0.3674 -0.2261 -0.4086
 5341TIP3    H137514   4.416   5.108   1.772 -0.0028  0.3023  0.7612
 5341TIP3    H237515   4.321   5.032   1.862 -0.5281  0.2872  0.1992
 5342TIP3   OH237516   3.826   6.201  16.254 -0.1113 -0.1705  0.1479
 5342TIP3    H137517   3.775   6.266  16.206  1.1810 -0.3352 -1.5428
 5342TIP3    H237518   3.818   6.121  16.202 -0.0238 -0.8276  1.1175
 5343TIP3   OH237519   2.247   6.765  14.368 -0.2790 -0.2311  0.3657
 5343TIP3    H137520   2.261   6.846  14.417  1.2137 -1.3149  1.9018
 5343TIP3    H237521   2.334   6.744  14.333 -0.6413 -1.1742  0.0096
 5344TIP3   OH237522   0.984   0.404  12.771  0.2737 -0.6139  0.0449
 5344TIP3    H137523   1.032   0.469  12.720 -0.6121  0.2094  0.2462
 5344TIP3    H237524   0.944   0.347  12.705  0.5556 -0.6046 -0.1373
 5345TIP3   OH237525   4.110   4.372  14.970 -0.5002 -0.1362  0.2725
 5345TIP3    H137526   4.127   4.395  15.061 -0.2169 -0.0853  0.2100
 5345TIP3    H237527   4.016   4.383  14.959 -0.6958 -1.0905  0.8234
 5346TIP3   OH237528   6.502   3.772   4.634 -0.4383  0.3594 -0.5463
 5346TIP3    H137529   6.590   3.741   4.611 -0.7058 -0.1954 -0.8376
 5346TIP3    H237530   6.467   3.805   4.551  0.2383  2.4764 -0.0457
 5347TIP3   OH237531   5.362   6.000   1.834 -0.1198  0.2885 -0.1688
 5347TIP3    H137532   5.278   6.042   1.852 -0.2468 -0.1303  0.2168
 5347TIP3    H237533   5.413   6.012   1.914  0.5982  1.4934 -0.7682
 5348TIP3   OH237534   2.394   3.236   2.537 -0.6119 -0.7013  0.1390
 5348TIP3    H137535   2.480   3.274   2.551 -0.4113 -0.9068 -0.5006
 5348TIP3    H237536   2.347   3.301   2.486 -0.6368 -0.8398 -0.0160
 5349TIP3   OH237537   2.282   0.257  15.696 -0.3388 -0.1291  0.1248
 5349TIP3    H137538   2.287   0.349  15.670 -0.5562  0.8084  3.0188
 5349TIP3    H237539   2.189   0.236  15.694 -0.4642  0.2850  1.1228
 5350TIP3   OH237540   2.186   5.562  15.646 -0.6717 -0.4609  0.1675
 5350TIP3    H137541   2.121   5.629  15.666 -0.4520 -0.4267  0.7764
 5350TIP3    H237542   2.240   5.556  15.724 -1.9763 -2.8503  1.0020
 5351TIP3   OH237543   4.634   3.145  16.463  0.1925 -0.3592 -0.5492
 5351TIP3    H137544   4.553   3.108  16.498  0.3821 -2.0606 -1.7608
 5351TIP3    H237545   4.617   3.154  16.369  1.3457 -0.6219 -0.7929
 5352TIP3   OH237546   1.049   0.140  16.430 -0.5637 -0.3180 -0.3039
 5352TIP3    H137547   1.000   0.058  16.427  0.5405 -0.9744 -1.1979
 5352TIP3    H237548   1.140   0.114  16.414  0.4782  0.5696  3.2583
 5353TIP3   OH237549   0.367   3.196   5.729 -0.1416 -0.3486 -0.1992
 5353TIP3    H137550   0.325   3.118   5.693  0.4102  0.9696 -4.2303
 5353TIP3    H237551   0.300   3.236   5.785 -1.5807 -1.9934 -0.6424
 5354TIP3   OH237552   2.710   2.475  12.052 -0.2357  0.1864 -0.7746
 5354TIP3    H137553   2.719   2.381  12.039 -1.6323  0.1487 -1.6470
 5354TIP3    H237554   2.652   2.504  11.981 -2.0648  1.2384  1.0341
 5355TIP3   OH237555   0.345   3.571   4.684 -0.0440  0.1155 -0.4261
 5355TIP3    H137556   0.439   3.583   4.671  0.4336 -0.3614  2.0222
 5355TIP3    H237557   0.317   3.516   4.611  1.7254 -0.3175 -0.8241
 5356TIP3   OH237558   2.465   6.460  15.783  0.2768 -0.2055 -0.0989
 5356TIP3    H137559   2.381   6.434  15.746  0.0685  0.1439  0.1196
 5356TIP3    H237560   2.453   6.553  15.806  0.4422 -0.3778  0.7080
 5357TIP3   OH237561   6.085   5.148   6.181  0.0669 -0.0222 -0.4273
 5357TIP3    H137562   6.039   5.081   6.230 -0.4069  0.6370  0.0462
 5357TIP3    H237563   6.042   5.230   6.206 -0.5863  0.2812 -2.3841
 5358TIP3   OH237564   3.439   6.122   1.798  0.4180  0.1963 -0.1619
 5358TIP3    H137565   3.424   6.028   1.807 -0.6544  0.4081  0.4303
 5358TIP3    H237566   3.401   6.144   1.713 -1.5854  0.4975  0.7590
 5359TIP3   OH237567   6.054   1.510   3.039  0.4882  0.1709 -0.6295
 5359TIP3    H137568   6.142   1.498   3.004  0.8421 -0.0685  0.3212
 5359TIP3    H237569   6.038   1.431   3.090  0.5856  1.1652  1.0042
 5360TIP3   OH237570   0.440   6.180   5.965  0.0817 -0.5820  0.0416
 5360TIP3    H137571   0.366   6.132   5.927 -0.6841  1.1261 -0.7456
 5360TIP3    H237572   0.412   6.201   6.054 -0.5227  0.2805 -0.3357
 5361TIP3   OH237573   2.484   2.819   2.245  0.0742 -0.0938 -0.0165
 5361TIP3    H137574   2.531   2.818   2.162 -2.6634 -0.7803 -1.6750
 5361TIP3    H237575   2.480   2.912   2.269 -0.1840  0.2529 -1.3319
 5362TIP3   OH237576   0.899   1.328  11.052 -0.2695  0.2520  0.1029
 5362TIP3    H137577   0.902   1.405  10.996 -2.4735  0.2964 -0.0312
 5362TIP3    H237578   0.906   1.254  10.993 -3.0647  0.2841 -0.4003
 5363TIP3   OH237579   6.107   5.536   5.002 -0.3857  0.3853  0.1960
 5363TIP3    H137580   6.170   5.537   5.073 -1.3638 -1.5010  1.1758
 5363TIP3    H237581   6.048   5.608   5.021 -1.0698 -0.5311  1.7780
 5364TIP3   OH237582   6.823   3.918   5.927  0.2023  0.2316 -0.1678
 5364TIP3    H137583   6.900   3.974   5.918 -0.8531  1.5600 -1.4316
 5364TIP3    H237584   6.762   3.969   5.978  0.0045 -0.6680  0.5109
 5365TIP3   OH237585   5.579   1.638  15.919  0.0337  0.0406 -0.0841
 5365TIP3    H137586   5.618   1.562  15.961 -0.8664 -0.7662 -0.6752
 5365TIP3    H237587   5.526   1.602  15.848 -0.8968  1.1737  0.0022
 5366TIP3   OH237588   5.747   3.074   6.225 -0.0299 -0.5458  0.2600
 5366TIP3    H137589   5.820   3.124   6.261 -1.0797  2.6370 -1.5596
 5366TIP3    H237590   5.670   3.130   6.239 -1.0556 -0.7796 -3.2991
 5367TIP3   OH237591   2.924   1.061  15.005 -0.0862 -0.3481 -0.0323
 5367TIP3    H137592   2.868   1.139  15.002  0.7349  0.2622 -2.9845
 5367TIP3    H237593   2.952   1.055  15.096  0.5153  3.3681  0.1791
 5368TIP3   OH237594   3.725   3.528  14.891 -0.1507  0.7145 -0.1140
 5368TIP3    H137595   3.754   3.616  14.868  1.0272  0.1419 -0.8960
 5368TIP3    H237596   3.777   3.504  14.967  0.1820  0.3532 -0.4516
 5369TIP3   OH237597   2.481   0.470  14.649  0.0272 -0.0327 -0.1795
 5369TIP3    H137598   2.461   0.564  14.644 -0.5861 -0.2185 -1.9989
 5369TIP3    H237599   2.558   0.459  14.594 -0.5101 -0.7240 -0.8171
 5370TIP3   OH237600   6.376   1.042  13.272 -0.0743 -0.3941  0.0195
 5370TIP3    H137601   6.415   1.013  13.355 -0.4585 -0.4274  0.1917
 5370TIP3    H237602   6.407   1.132  13.262  2.5334 -1.3537 -1.3818
 5371TIP3   OH237603   0.342   5.029   4.228  0.5952  0.3935 -0.7024
 5371TIP3    H137604   0.300   5.114   4.216  0.0784  0.1937 -0.3506
 5371TIP3    H237605   0.408   5.045   4.296 -0.8088  0.0930  0.7734
 5372TIP3   OH237606   6.294   0.738  15.068  0.9323  0.4006 -0.8410
 5372TIP3    H137607   6.249   0.739  15.152  0.0825 -1.8051 -1.1912
 5372TIP3    H237608   6.386   0.753  15.089  0.7526 -0.2403  0.4892
 5373TIP3   OH237609   0.301   0.292   5.678 -0.0486 -0.1031 -0.2659
 5373TIP3    H137610   0.285   0.385   5.662 -0.1304  0.0597  0.7028
 5373TIP3    H237611   0.244   0.247   5.616 -1.9536  0.4868  0.9673
 5374TIP3   OH237612   6.282   0.131   0.603 -0.3012 -0.2245  0.4977
 5374TIP3    H137613   6.358   0.184   0.625  0.0912 -0.5199 -0.1356
 5374TIP3    H237614   6.286   0.120   0.508 -2.1914  1.3705  0.1635
 5375TIP3   OH237615   1.178   0.512   6.099  0.3019 -0.2611 -0.1792
 5375TIP3    H137616   1.190   0.447   6.168  0.2224 -1.8669 -1.6077
 5375TIP3    H237617   1.189   0.596   6.143  1.8221 -1.2568  1.4716
 5376TIP3   OH237618   5.318   0.756  11.936  0.3261 -0.3689  0.5798
 5376TIP3    H137619   5.354   0.833  11.893  0.2191 -1.2827 -1.2082
 5376TIP3    H237620   5.309   0.782  12.028 -0.8044  2.1483 -0.1674
 5377TIP3   OH237621   1.535   3.764  15.866 -0.0333  0.2500  0.0894
 5377TIP3    H137622   1.444   3.792  15.875 -0.1739 -0.1348 -0.1115
 5377TIP3    H237623   1.582   3.843  15.837 -0.3942  0.3136 -0.3224
 5378TIP3   OH237624   6.326   1.393   0.047 -0.0757 -0.1406  0.2372
 5378TIP3    H137625   6.408   1.343   0.053  0.6561  0.3660 -3.1481
 5378TIP3    H237626   6.340   1.470   0.102  1.3874 -0.4982  0.4040
 5379TIP3   OH237627   5.791   3.880  11.728 -0.5689  0.0450  0.1074
 5379TIP3    H137628   5.865   3.868  11.668 -0.4312  0.2682  0.2315
 5379TIP3    H237629   5.714   3.871  11.672 -0.4324  2.0624 -0.4849
 5380TIP3   OH237630   6.644   5.718  14.577  0.1215  0.4410  0.1309
 5380TIP3    H137631   6.651   5.811  14.601 -1.7936  0.0990  2.4697
 5380TIP3    H237632   6.582   5.682  14.641  0.7116 -2.4405 -0.7843
 5381TIP3   OH237633   4.593   1.130   4.045 -0.0687  0.8048  0.3163
 5381TIP3    H137634   4.646   1.086   4.111 -0.2859  1.5698  1.0216
 5381TIP3    H237635   4.528   1.064   4.019  0.0165  0.4996  0.8635
 5382TIP3   OH237636   2.432   5.426   5.486  0.0943 -0.4676 -0.4772
 5382TIP3    H137637   2.489   5.451   5.414  0.2467  0.2169 -0.1295
 5382TIP3    H237638   2.359   5.379   5.445  0.2317 -0.1710 -1.0554
 5383TIP3   OH237639   4.679   6.043  15.116  0.1006 -0.0291  0.5295
 5383TIP3    H137640   4.680   6.128  15.160 -0.4244  0.2952 -0.0733
 5383TIP3    H237641   4.596   6.004  15.141  0.0862 -0.1178  0.3407
 5384TIP3   OH237642   4.480   2.481   3.175  0.1286  0.5493 -0.7831
 5384TIP3    H137643   4.423   2.517   3.243 -1.9163 -2.1104 -0.9457
 5384TIP3    H237644   4.479   2.547   3.105 -1.6947  1.1700 -0.2252
 5385TIP3   OH237645   4.275   5.334   6.992  0.8120 -0.2827  0.0327
 5385TIP3    H137646   4.354   5.316   7.044  0.8612 -2.8840 -0.7753
 5385TIP3    H237647   4.308   5.362   6.907  0.8019  0.2878  0.2105
 5386TIP3   OH237648   4.226   3.572  16.321 -0.4010 -0.3252  0.2108
 5386TIP3    H137649   4.300   3.513  16.308  0.2026  0.5746 -0.5904
 5386TIP3    H237650   4.153   3.514  16.344  0.9555 -1.0721  3.0639
 5387TIP3   OH237651   5.440   2.461   1.301 -0.2133 -0.1188 -0.0240
 5387TIP3    H137652   5.506   2.398   1.271  0.1117  1.2071 -2.3223
 5387TIP3    H237653   5.483   2.511   1.370  0.7646 -0.1197 -0.6208
 5388TIP3   OH237654   1.084   5.742   4.982  0.0285 -0.0532 -0.0929
 5388TIP3    H137655   1.025   5.805   4.942 -0.2041 -0.4245 -0.3411
 5388TIP3    H237656   1.171   5.782   4.975 -0.4238  1.6079  2.4167
 5389TIP3   OH237657   5.811   0.727   0.795 -0.0872  0.2694 -0.8060
 5389TIP3    H137658   5.822   0.632   0.784 -0.0474  0.4169 -2.2334
 5389TIP3    H237659   5.839   0.764   0.711 -0.1531  1.5471 -0.2838
 5390TIP3   OH237660   5.234   1.991  12.505 -0.2755 -0.3399  0.0181
 5390TIP3    H137661   5.144   1.991  12.536  0.1982  0.3715  1.4803
 5390TIP3    H237662   5.254   1.899  12.490 -1.6304 -0.4130 -1.6003
 5391TIP3   OH237663   0.981   3.922   1.358  0.0667  0.7708  0.7775
 5391TIP3    H137664   1.032   3.982   1.413  0.3947 -1.1655  2.7516
 5391TIP3    H237665   1.004   3.835   1.390 -2.9432 -0.3004  0.3747
 5392TIP3   OH237666   3.496   4.209   2.802 -0.0058 -0.2259 -0.0511
 5392TIP3    H137667   3.464   4.152   2.873 -0.2576  0.1940  0.1760
 5392TIP3    H237668   3.447   4.180   2.725 -0.6831  0.1731  0.2199
 5393TIP3   OH237669   0.749   0.893   0.322  0.3470  0.3392  0.4276
 5393TIP3    H137670   0.673   0.917   0.270 -0.5991  1.1841  2.0998
 5393TIP3    H237671   0.714   0.877   0.410  2.1122  1.1359  1.3337
 5394TIP3   OH237672   4.509   4.727  13.675 -0.0430  0.1603  0.7937
 5394TIP3    H137673   4.525   4.636  13.650 -2.2440  0.3309 -1.6264
 5394TIP3    H237674   4.416   4.731  13.694 -0.9219  2.5887 -2.9929
 5395TIP3   OH237675   2.426   3.018   4.593  0.3318 -0.1242  0.0476
 5395TIP3    H137676   2.475   2.957   4.537 -0.2606 -2.0189  1.4668
 5395TIP3    H237677   2.371   3.068   4.532 -0.1444 -1.9657 -1.1355
 5396TIP3   OH237678   0.635   4.741   1.358  0.0800  0.5239 -0.1062
 5396TIP3    H137679   0.557   4.755   1.304 -0.8734  0.5867  1.2554
 5396TIP3    H237680   0.706   4.777   1.306 -0.6366 -0.3833 -1.7979
 5397TIP3   OH237681   4.441   1.638   0.493  0.5099  0.2713 -0.4992
 5397TIP3    H137682   4.448   1.688   0.411 -0.5233 -0.1843 -0.8896
 5397TIP3    H237683   4.397   1.698   0.554  2.2970  1.0192  0.1029
 5398TIP3   OH237684   1.771   0.893   3.211  0.3019  0.0642  0.2943
 5398TIP3    H137685   1.785   0.974   3.162 -0.8558  0.0904 -0.0254
 5398TIP3    H237686   1.807   0.911   3.298  0.6325  0.7003  0.0345
 5399TIP3   OH237687   4.433   0.861  14.120 -0.3613  0.2144  0.1180
 5399TIP3    H137688   4.372   0.847  14.193 -0.3795 -0.2515  0.0184
 5399TIP3    H237689   4.497   0.924  14.153 -1.3369  1.3243 -0.0370
 5400TIP3   OH237690   6.565   5.306   5.199 -0.1086  0.6097 -0.3430
 5400TIP3    H137691   6.543   5.340   5.112 -0.5019  0.8038 -0.1696
 5400TIP3    H237692   6.549   5.212   5.193  2.4690  0.1506 -1.2999
 5401TIP3   OH237693   0.978   4.169   4.341  0.4473  1.0302 -0.2046
 5401TIP3    H137694   0.924   4.094   4.316  0.2904  0.2494  2.2059
 5401TIP3    H237695   0.941   4.199   4.424  0.9052  3.4184 -0.7963
 5402TIP3   OH237696   4.522   6.361   2.555  0.3347 -0.6154 -0.0084
 5402TIP3    H137697   4.479   6.337   2.472  0.6468  0.8087 -0.6106
 5402TIP3    H237698   4.472   6.436   2.587  0.9848 -0.3781  0.4604
 5403TIP3   OH237699   0.563   0.255  13.213 -0.1098 -0.4414 -0.0843
 5403TIP3    H137700   0.490   0.285  13.159  0.5462  0.1494 -0.6507
 5403TIP3    H237701   0.635   0.240  13.151  0.4100 -0.5175  0.5288
 5404TIP3   OH237702   3.692   6.234  11.853 -0.0011 -0.3195  0.2144
 5404TIP3    H137703   3.760   6.263  11.914 -1.5335  1.9957  0.9642
 5404TIP3    H237704   3.615   6.220  11.908 -0.9863  0.2618 -0.9638
 5405TIP3   OH237705   1.051   1.515   4.105 -0.3429  0.3615 -0.4779
 5405TIP3    H137706   1.063   1.428   4.144  0.1277  0.8708  0.5302
 5405TIP3    H237707   1.125   1.566   4.137 -0.4737  1.0747 -1.2752
 5406TIP3   OH237708   6.269   1.816  17.174 -0.3071  0.1704  0.2303
 5406TIP3    H137709   6.177   1.793  17.192 -0.6882 -1.0860 -2.7136
 5406TIP3    H237710   6.266   1.908  17.151 -0.8685  0.1275  0.1019
 5407TIP3   OH237711   4.245   3.246  15.886  0.4496 -0.4831  0.4640
 5407TIP3    H137712   4.230   3.179  15.952 -3.6222 -0.7555 -0.4259
 5407TIP3    H237713   4.286   3.200  15.813  1.1795 -1.1123  1.2677
 5408TIP3   OH237714   0.900   2.048  11.618  0.7998  0.0839 -0.3621
 5408TIP3    H137715   0.853   2.130  11.600  0.5978 -0.3588 -2.0439
 5408TIP3    H237716   0.845   2.001  11.680 -0.6698 -0.1259 -1.7770
 5409TIP3   OH237717   5.693   5.329   3.943  0.6595  0.2776  0.0437
 5409TIP3    H137718   5.625   5.289   3.997 -0.5000  0.5913 -1.1313
 5409TIP3    H237719   5.645   5.388   3.884  2.0168  0.9906 -0.3858
 5410TIP3   OH237720   1.562   4.283  15.870 -0.0398 -0.9490 -0.2463
 5410TIP3    H137721   1.607   4.203  15.900  0.3113 -0.5513  0.3048
 5410TIP3    H237722   1.576   4.284  15.776 -2.1852 -2.8703 -0.6750
 5411TIP3   OH237723   3.540   6.307   5.348  0.1082 -0.0460 -0.2379
 5411TIP3    H137724   3.570   6.394   5.323  1.1024 -0.1998  0.3302
 5411TIP3    H237725   3.551   6.253   5.269 -1.9192  0.6416 -1.0426
 5412TIP3   OH237726   4.002   3.838  13.676  0.5876 -0.2800 -0.3376
 5412TIP3    H137727   4.017   3.752  13.636  1.0030  0.0885 -0.9959
 5412TIP3    H237728   4.087   3.861  13.714  0.5222 -0.0900 -0.3096
 5413TIP3   OH237729   5.991   5.058  14.761  0.2992  0.0570 -0.6504
 5413TIP3    H137730   5.949   4.972  14.766 -0.2460  0.3710  0.8813
 5413TIP3    H237731   6.085   5.039  14.764  0.2667 -0.5641 -2.4042
 5414TIP3   OH237732   6.816   0.803  13.119 -0.0513  0.2698 -0.2586
 5414TIP3    H137733   6.746   0.784  13.181 -0.3365 -1.8593 -1.1429
 5414TIP3    H237734   6.882   0.736  13.138  0.9624  1.1381 -0.6331
 5415TIP3   OH237735   0.074   5.969   3.471  0.3875 -0.0171  0.4504
 5415TIP3    H137736   0.089   6.062   3.451  1.3688 -0.1111  0.6906
 5415TIP3    H237737  -0.021   5.958   3.465  0.1578  1.2286  1.3364
 5416TIP3   OH237738   5.886   3.525   2.219  0.4127  0.1552 -0.2376
 5416TIP3    H137739   5.888   3.588   2.291  0.2033  0.9009 -0.8623
 5416TIP3    H237740   5.893   3.440   2.261  1.1490  0.6132  0.5989
 5417TIP3   OH237741   5.178   3.135   3.811  0.2462 -0.6479  0.0662
 5417TIP3    H137742   5.114   3.065   3.827  0.3822 -0.4994  1.3600
 5417TIP3    H237743   5.227   3.105   3.734 -0.5001 -1.4005 -0.1289
 5418TIP3   OH237744   6.606   3.729  12.162  0.6704 -0.3625 -0.9019
 5418TIP3    H137745   6.526   3.762  12.120  0.6993  1.3441  0.2831
 5418TIP3    H237746   6.577   3.697  12.247  1.0443 -1.1473 -1.0596
 5419TIP3   OH237747   5.144   0.197   3.074  0.3883  0.5751  0.0647
 5419TIP3    H137748   5.148   0.131   3.006  0.8977  0.9910 -0.3212
 5419TIP3    H237749   5.128   0.279   3.027  4.1676  1.4562  0.0004
 5420TIP3   OH237750   3.857   2.581  13.982  0.5422 -0.0647  0.3485
 5420TIP3    H137751   3.905   2.661  14.004  0.4934  0.1130 -0.1621
 5420TIP3    H237752   3.785   2.612  13.926  0.5217 -0.4646  0.1518
 5421TIP3   OH237753   0.103   0.669  17.083  0.1503 -0.1407 -0.0515
 5421TIP3    H137754   0.106   0.576  17.061  1.1102 -0.1425  0.0275
 5421TIP3    H237755   0.020   0.680  17.128  0.0925 -0.9949  0.0760
 5422TIP3   OH237756   2.140   4.930  14.211  0.2956 -0.2189  0.3301
 5422TIP3    H137757   2.202   4.869  14.172  0.4216 -0.3193  0.6859
 5422TIP3    H237758   2.100   4.881  14.283  0.8728  0.3376  1.0358
 5423TIP3   OH237759   2.859   3.787  15.198  0.3353  0.3301  0.2464
 5423TIP3    H137760   2.820   3.843  15.130 -1.1964 -1.1198 -0.1476
 5423TIP3    H237761   2.943   3.760  15.162 -0.5973 -0.6861 -1.2916
 5424TIP3   OH237762   1.183   2.918   0.870 -0.2402 -0.1211 -0.0504
 5424TIP3    H137763   1.182   2.824   0.887 -0.0782 -0.4564 -1.7325
 5424TIP3    H237764   1.264   2.933   0.820 -0.1765  0.9453  0.3316
 5425TIP3   OH237765   3.653   4.736  12.683  0.6299  0.2032  0.1817
 5425TIP3    H137766   3.670   4.690  12.601 -1.6131 -1.6397  0.6522
 5425TIP3    H237767   3.597   4.810  12.657 -1.1983 -1.1423  0.1447
 5426TIP3   OH237768   0.759   6.831   3.615  0.0522  0.6196  0.1119
 5426TIP3    H137769   0.717   6.875   3.542  0.7023 -0.1885 -0.7668
 5426TIP3    H237770   0.834   6.786   3.577 -0.7989 -1.6230  0.8775
 5427TIP3   OH237771   1.724   4.118   6.149  0.1780 -0.1287 -0.4861
 5427TIP3    H137772   1.704   4.181   6.218  1.1845 -0.1311 -0.1893
 5427TIP3    H237773   1.715   4.167   6.068  0.4438  0.2572 -0.2817
 5428TIP3   OH237774   2.612   3.619   2.179  0.2748  0.1354  0.0335
 5428TIP3    H137775   2.593   3.711   2.165  0.9596  0.1963 -0.6254
 5428TIP3    H237776   2.705   3.610   2.155  0.2323 -0.7056  0.1395
 5429TIP3   OH237777   6.759   2.117  10.752  0.2210 -0.6134  0.5695
 5429TIP3    H137778   6.813   2.160  10.686 -0.4829  0.3501  0.5948
 5429TIP3    H237779   6.821   2.068  10.805  0.9214 -0.5264 -0.1502
 5430TIP3   OH237780   4.468   5.131  16.660  0.1222 -0.0302 -0.1247
 5430TIP3    H137781   4.405   5.121  16.589 -0.0756  1.9908 -0.2778
 5430TIP3    H237782   4.516   5.210  16.639  2.4275 -1.2430  0.2512
 5431TIP3   OH237783   0.225   6.139  16.006 -0.7415  0.0247  0.2496
 5431TIP3    H137784   0.271   6.120  16.087  1.4412 -1.4742 -1.2244
 5431TIP3    H237785   0.248   6.229  15.985  1.0103 -0.4741 -0.0917
 5432TIP3   OH237786   2.957   1.461   5.014  0.2471  0.0703  0.5436
 5432TIP3    H137787   3.016   1.388   4.992 -0.5019 -0.6732  0.9316
 5432TIP3    H237788   2.922   1.437   5.100  0.4898  1.2247  0.9737
 5433TIP3   OH237789   4.605   4.089   2.560  0.2085 -0.1064  0.3255
 5433TIP3    H137790   4.578   4.140   2.484 -0.1700 -1.5061 -0.5238
 5433TIP3    H237791   4.674   4.141   2.601  1.6390 -0.0408 -1.9458
 5434TIP3   OH237792   1.337   6.006   0.946 -0.1128 -0.1925  0.4722
 5434TIP3    H137793   1.272   6.076   0.942 -1.4089 -1.4012 -2.2448
 5434TIP3    H237794   1.416   6.044   0.908 -0.7629 -0.1099 -0.8586
 5435TIP3   OH237795   6.349   5.963  13.149  0.5392 -0.0731 -0.4333
 5435TIP3    H137796   6.351   5.934  13.057  2.8110 -1.5511 -0.0113
 5435TIP3    H237797   6.389   5.890  13.197  1.2503  1.4997  1.4726
 5436TIP3   OH237798   0.023   5.023  16.193 -0.0684  0.1450 -0.3499
 5436TIP3    H137799   0.116   5.001  16.184 -0.3378 -1.8863  1.1960
 5436TIP3    H237800   0.023   5.112  16.228  1.3603 -0.2922  0.8772
 5437TIP3   OH237801   0.111   6.806   2.995  0.0564  0.4344 -0.3524
 5437TIP3    H137802   0.055   6.807   3.072  0.1912  4.2465 -0.1077
 5437TIP3    H237803   0.051   6.823   2.922  0.3899  0.4694 -0.6200
 5438TIP3   OH237804   6.605   3.245  14.896 -0.6357 -0.2413  0.2332
 5438TIP3    H137805   6.616   3.220  14.805 -1.0504 -1.2662  0.4401
 5438TIP3    H237806   6.517   3.213  14.919 -0.5659  0.0681  0.9669
 5439TIP3   OH237807   3.425   2.641   3.634  0.2720 -1.0081  0.1305
 5439TIP3    H137808   3.494   2.689   3.678  0.2533  0.0746 -0.9592
 5439TIP3    H237809   3.454   2.635   3.543 -1.6629  0.7299 -0.6807
 5440TIP3   OH237810   6.813   4.044  11.998  0.8354  0.7506  0.5376
 5440TIP3    H137811   6.766   4.015  11.919  2.5645  1.7148 -0.9257
 5440TIP3    H237812   6.758   4.114  12.034 -0.2934 -0.1281  0.5803
 5441TIP3   OH237813   0.706   0.807  14.859  0.4056  0.6679  0.5905
 5441TIP3    H137814   0.718   0.902  14.847 -0.6298  0.7930  0.4699
 5441TIP3    H237815   0.612   0.796  14.874  0.1782 -0.5330 -1.3478
 5442TIP3   OH237816   4.559   3.757   5.625 -0.0825 -0.7022  0.0018
 5442TIP3    H137817   4.504   3.679   5.616  1.6263 -2.1768  1.6533
 5442TIP3    H237818   4.547   3.786   5.715  1.4076 -0.7421  0.2403
 5443TIP3   OH237819   5.346   4.157   0.499  1.3593  0.1164  0.2665
 5443TIP3    H137820   5.336   4.066   0.527  0.1796 -0.3024 -1.3624
 5443TIP3    H237821   5.277   4.204   0.546  1.3846  0.0051  0.4154
 5444TIP3   OH237822   2.595   5.875  12.512 -0.4296 -0.5616  0.3079
 5444TIP3    H137823   2.632   5.788  12.528 -1.1026 -0.7146  1.0918
 5444TIP3    H237824   2.643   5.932  12.572 -0.5259 -0.5333  0.3589
 5445TIP3   OH237825   6.809   5.994   5.144 -0.3230 -0.3239 -0.1747
 5445TIP3    H137826   6.897   6.007   5.107 -1.2646  1.3225 -2.0260
 5445TIP3    H237827   6.812   5.906   5.183  2.3203 -0.0501  0.4073
 5446TIP3   OH237828   4.502   4.299  15.323  0.5994  0.3156 -0.1907
 5446TIP3    H137829   4.495   4.378  15.269 -0.1017  0.2440 -0.2151
 5446TIP3    H237830   4.547   4.236  15.267 -2.1501 -0.5450 -1.6504
 5447TIP3   OH237831   5.906   0.585   2.819 -0.3884  0.2833  0.3977
 5447TIP3    H137832   5.951   0.663   2.788 -0.9255  0.1975 -0.6482
 5447TIP3    H237833   5.976   0.526   2.846 -0.0008  1.9390  3.3791
 5448TIP3   OH237834   1.175   4.026   5.186 -0.5022 -0.0637 -0.2197
 5448TIP3    H137835   1.080   4.022   5.174 -0.9188  1.0755  2.1126
 5448TIP3    H237836   1.190   3.991   5.273  1.3217 -0.7000 -0.7391
 5449TIP3   OH237837   5.967   3.873  13.043  0.9895 -0.3928  0.5534
 5449TIP3    H137838   5.926   3.910  12.965  0.5763 -0.0592  0.9262
 5449TIP3    H237839   6.034   3.937  13.068  2.2329 -1.2474 -0.4428
 5450TIP3   OH237840   5.212   3.701  12.506 -0.3142  0.2478  0.1814
 5450TIP3    H137841   5.278   3.654  12.455 -0.1001  0.1629  0.5346
 5450TIP3    H237842   5.243   3.791  12.509 -0.5545  0.3456 -0.2131
 5451TIP3   OH237843   6.411   0.147   0.161  0.6112 -0.5691  0.8966
 5451TIP3    H137844   6.455   0.121   0.243  1.3411  1.3133  1.1482
 5451TIP3    H237845   6.357   0.222   0.186  0.3453 -0.3758 -0.2311
 5452TIP3   OH237846   2.609   5.636   3.923 -0.7383  0.7595 -0.4758
 5452TIP3    H137847   2.696   5.645   3.963 -1.1564 -3.0897  1.8474
 5452TIP3    H237848   2.627   5.604   3.835  0.2586  0.0185 -0.0272
 5453TIP3   OH237849   0.080   0.995   2.093 -0.3069 -0.1097  0.0226
 5453TIP3    H137850   0.045   1.076   2.056 -0.1094 -1.0873 -2.4699
 5453TIP3    H237851   0.016   0.969   2.159 -1.8845  0.6006 -1.1568
 5454TIP3   OH237852   1.005   4.995  14.095 -0.1811  0.3391 -0.2037
 5454TIP3    H137853   1.097   4.980  14.117 -0.5373  1.3190  2.3422
 5454TIP3    H237854   0.988   4.936  14.022  2.0937 -0.9015  0.1701
 5455TIP3   OH237855   0.725   3.396  11.565 -0.0590  0.1100 -0.6403
 5455TIP3    H137856   0.664   3.386  11.492  0.0869  0.0627 -0.7544
 5455TIP3    H237857   0.761   3.484  11.555 -1.5886  0.9229  0.5541
 5456TIP3   OH237858   6.204   0.911   5.319 -0.3146 -0.1874  0.9404
 5456TIP3    H137859   6.187   0.932   5.227  1.7177  1.2896  0.8431
 5456TIP3    H237860   6.209   0.996   5.362  0.4452 -0.7903  2.0954
 5457TIP3   OH237861   2.370   3.417   3.992 -0.0097 -0.1634 -0.2276
 5457TIP3    H137862   2.438   3.398   3.928 -0.7208  1.6825 -1.5878
 5457TIP3    H237863   2.418   3.453   4.067  0.5093  2.7874 -1.8135
 5458TIP3   OH237864   0.553   2.856  14.191  0.2868 -0.3763  0.2880
 5458TIP3    H137865   0.480   2.916  14.176 -0.5841 -1.4114  0.2232
 5458TIP3    H237866   0.604   2.897  14.261  0.0532  0.7181 -0.1612
 5459TIP3   OH237867   4.996   4.474  15.605  0.1512 -0.1155  0.1937
 5459TIP3    H137868   4.962   4.509  15.523  1.2912  3.0929  0.9268
 5459TIP3    H237869   5.084   4.444  15.584 -0.4550 -1.6620 -0.2261
 5460TIP3   OH237870   1.230   5.113   3.895 -0.0414 -0.0341  0.5880
 5460TIP3    H137871   1.134   5.117   3.895 -0.0176  0.9534  1.8672
 5460TIP3    H237872   1.251   5.036   3.948 -0.1229  0.2494  1.0367
 5461TIP3   OH237873   1.062   3.897  12.730 -0.2319 -0.2293 -0.7618
 5461TIP3    H137874   1.005   3.974  12.732 -0.1852 -0.1997 -0.4436
 5461TIP3    H237875   1.146   3.929  12.766 -0.2250 -0.4362 -0.5923
 5462TIP3   OH237876   4.634   1.831  11.590 -0.0905  0.3123 -0.5101
 5462TIP3    H137877   4.649   1.814  11.683  0.8103  2.2975 -0.2395
 5462TIP3    H237878   4.548   1.794  11.572  0.4094 -1.5806  0.6743
 5463TIP3   OH237879   6.697   2.976   3.845  0.0006  0.3131  0.0805
 5463TIP3    H137880   6.620   2.930   3.813 -0.7283  2.7243 -1.8954
 5463TIP3    H237881   6.771   2.930   3.805 -0.4327 -1.1574  0.8824
 5464TIP3   OH237882   6.089   3.565   0.366 -0.3640 -0.3944  0.0388
 5464TIP3    H137883   6.095   3.610   0.451 -0.1817 -0.0865 -0.1341
 5464TIP3    H237884   5.999   3.535   0.361 -0.2261 -0.9198  0.5964
 5465TIP3   OH237885   0.120   0.575   5.490  1.0336 -0.2488 -0.1509
 5465TIP3    H137886   0.036   0.619   5.506  1.2803 -0.2427  1.2767
 5465TIP3    H237887   0.172   0.593   5.568  1.9068 -1.3181 -0.4546
 5466TIP3   OH237888   0.946   5.121   1.398  0.3769  0.1775  0.1180
 5466TIP3    H137889   0.932   5.160   1.311 -0.1551  0.7857  0.4715
 5466TIP3    H237890   1.034   5.083   1.393  1.1870  1.9943 -0.0434
 5467TIP3   OH237891   0.963   1.258   3.516 -0.6000 -0.2075  0.7946
 5467TIP3    H137892   0.910   1.196   3.465 -0.7935  0.5516  0.0451
 5467TIP3    H237893   0.949   1.232   3.607 -1.5337 -0.5956  0.5540
 5468TIP3   OH237894   5.212   4.480  11.610 -0.2624 -0.2513 -0.0385
 5468TIP3    H137895   5.204   4.466  11.515  1.4666  1.8330 -0.5737
 5468TIP3    H237896   5.290   4.431  11.635 -0.8169 -0.9432  0.3644
 5469TIP3   OH237897   6.401   1.389   1.761  0.4956 -0.1540  0.0185
 5469TIP3    H137898   6.331   1.453   1.745  0.1306 -0.3737  0.6948
 5469TIP3    H237899   6.381   1.353   1.847  1.4668 -0.2016  0.2330
 5470TIP3   OH237900   5.777   1.828   0.972 -0.4950 -0.1958 -0.5463
 5470TIP3    H137901   5.682   1.812   0.964 -0.7503  0.3544  1.0462
 5470TIP3    H237902   5.799   1.797   1.060  0.0750  2.8582  0.5147
 5471TIP3   OH237903   0.135   4.429   2.315 -0.1886 -0.1755  0.1934
 5471TIP3    H137904   0.202   4.405   2.379 -1.1896  1.9978  2.2152
 5471TIP3    H237905   0.149   4.522   2.299  0.0173 -0.6116 -2.8894
 5472TIP3   OH237906   2.200   3.586  11.489 -0.2335 -0.1551  0.1281
 5472TIP3    H137907   2.261   3.578  11.563  0.7333  0.5624 -0.5604
 5472TIP3    H237908   2.256   3.609  11.414 -1.1525 -1.1244 -0.8905
 5473TIP3   OH237909   1.148   0.409   3.477  0.1306  0.0316  0.8402
 5473TIP3    H137910   1.195   0.488   3.504  1.0228 -0.7181  1.5798
 5473TIP3    H237911   1.216   0.350   3.446 -0.6357 -0.0726 -0.7612
 5474TIP3   OH237912   3.361   5.472  16.142 -0.5177 -0.0290 -0.7883
 5474TIP3    H137913   3.379   5.556  16.100  2.3154 -0.8756 -1.4430
 5474TIP3    H237914   3.437   5.418  16.122  0.7262 -0.8482  4.5904
 5475TIP3   OH237915   2.476   1.340  14.912 -0.2701 -0.4326  0.1580
 5475TIP3    H137916   2.537   1.354  14.839 -0.3344 -0.4476  0.1015
 5475TIP3    H237917   2.420   1.268  14.882  1.5940 -2.5223  1.3771
 5476TIP3   OH237918   4.855   0.498  13.842 -0.3127  0.2092  0.2586
 5476TIP3    H137919   4.905   0.422  13.870 -1.9660 -1.3189 -0.6878
 5476TIP3    H237920   4.887   0.517  13.754  0.0867  0.5964  0.4871
 5477TIP3   OH237921   1.757   1.172  16.587 -0.0782  0.1263  0.0985
 5477TIP3    H137922   1.732   1.208  16.672 -1.7278 -0.6149 -0.0390
 5477TIP3    H237923   1.706   1.221  16.523  0.6937  0.2624 -0.4255
 5478TIP3   OH237924   1.653   6.493  14.326  0.0519  0.3440  0.1648
 5478TIP3    H137925   1.735   6.445  14.341 -0.8438 -1.9134 -1.5396
 5478TIP3    H237926   1.674   6.555  14.257  0.0406 -1.2718 -1.3603
 5479TIP3   OH237927   1.233   1.644   4.244 -0.1957  0.1178 -0.0906
 5479TIP3    H137928   1.273   1.729   4.225 -2.0088  1.2075  0.6737
 5479TIP3    H237929   1.271   1.617   4.328 -0.0169  0.4462 -0.0656
 5480TIP3   OH237930   3.457   1.756   3.679 -0.0853 -0.4358  0.3895
 5480TIP3    H137931   3.552   1.745   3.678  0.0502  0.5481 -0.6664
 5480TIP3    H237932   3.434   1.759   3.771  0.7235 -1.9785  0.6766
 5481TIP3   OH237933   6.013   6.694   4.585 -0.3723 -0.0983  0.3335
 5481TIP3    H137934   6.062   6.612   4.578  1.6328  1.1377 -0.9699
 5481TIP3    H237935   6.000   6.706   4.679  1.2813 -0.8158  0.6907
 5482TIP3   OH237936   6.234   0.959   5.042  0.5507 -0.0339  0.0223
 5482TIP3    H137937   6.234   0.886   4.980 -0.5100  0.0989 -0.1486
 5482TIP3    H237938   6.326   0.985   5.049  0.7950 -0.6606 -0.7669
 5483TIP3   OH237939   4.550   5.022   1.673  0.0175 -1.0789 -0.1916
 5483TIP3    H137940   4.552   4.936   1.715 -0.0797  0.4613  3.2588
 5483TIP3    H237941   4.632   5.064   1.700 -0.6190  0.4533 -0.5141
 5484TIP3   OH237942   1.439   2.984  14.739  0.4917  0.2708  0.3133
 5484TIP3    H137943   1.522   2.998  14.693  0.1160  0.4553 -0.3197
 5484TIP3    H237944   1.442   3.046  14.813  0.6004  0.8015 -0.1313
 5485TIP3   OH237945   1.161   6.025   1.711  0.4165 -0.1113  0.3937
 5485TIP3    H137946   1.224   5.954   1.722  0.1917 -0.7814 -1.9986
 5485TIP3    H237947   1.210   6.104   1.734  2.0882 -0.6344 -1.1240
 5486TIP3   OH237948   5.200   4.334  15.839  0.2178  0.0208 -0.5808
 5486TIP3    H137949   5.258   4.394  15.886 -1.2776  0.3913  0.8841
 5486TIP3    H237950   5.190   4.373  15.753 -0.5947  1.8515  0.2798
 5487TIP3   OH237951   3.122   5.084  13.659  0.6245 -0.2209  0.3277
 5487TIP3    H137952   3.132   5.167  13.705 -3.0695  0.0330  1.0031
 5487TIP3    H237953   3.211   5.053  13.645  2.0820  2.9030  1.7522
 5488TIP3   OH237954   2.819   4.264   4.379  0.1093 -0.1028  0.2872
 5488TIP3    H137955   2.782   4.201   4.316  0.6358 -0.8562  0.7099
 5488TIP3    H237956   2.882   4.212   4.429 -2.1396 -0.2238  3.2263
 5489TIP3   OH237957   4.558   1.617   6.381 -0.5266  0.1946  0.7428
 5489TIP3    H137958   4.544   1.686   6.316 -0.8680 -0.0700  0.5350
 5489TIP3    H237959   4.507   1.543   6.349  0.7075 -0.5250  0.4000
 5490TIP3   OH237960   5.549   0.983  16.030  0.2083  0.0114 -0.1501
 5490TIP3    H137961   5.469   1.023  15.996 -0.5187 -0.0170  1.4407
 5490TIP3    H237962   5.566   0.911  15.970 -1.3317 -0.3799 -0.1750
 5491TIP3   OH237963   5.597   1.921  16.862 -0.3842 -0.2145  0.3357
 5491TIP3    H137964   5.543   1.950  16.789 -0.5296 -0.6564  0.2707
 5491TIP3    H237965   5.686   1.921  16.827 -0.3428  0.4168  0.4146
 5492TIP3   OH237966   0.912   3.289  16.529  0.2350 -0.5027 -0.0085
 5492TIP3    H137967   0.919   3.342  16.608 -0.3566  0.2441 -0.4356
 5492TIP3    H237968   0.818   3.270  16.521  0.1901  0.0497 -0.9168
 5493TIP3   OH237969   1.493   2.269  12.632 -0.2434 -0.2573  0.0623
 5493TIP3    H137970   1.554   2.214  12.581  0.9215  1.7967 -0.8816
 5493TIP3    H237971   1.439   2.312  12.566 -1.0215 -0.1268  0.7754
 5494TIP3   OH237972   3.950   4.943  13.644  0.0896  0.0860  0.8229
 5494TIP3    H137973   3.909   4.887  13.710 -1.8626 -0.8080 -1.0320
 5494TIP3    H237974   4.014   4.886  13.601  1.2973  0.6436  1.8039
 5495TIP3   OH237975   0.744   0.018  11.992  0.0785 -0.2713 -0.0347
 5495TIP3    H137976   0.767  -0.028  12.073  2.2311 -0.9618 -0.9708
 5495TIP3    H237977   0.790   0.102  12.000 -2.2884  1.0255  0.8132
 5496TIP3   OH237978   5.251   3.303  13.725  0.2875  0.3483  0.0460
 5496TIP3    H137979   5.305   3.295  13.803 -1.0436 -0.3350  0.9426
 5496TIP3    H237980   5.297   3.366  13.670  2.0756 -0.3553  0.6665
 5497TIP3   OH237981   3.391   2.221  16.186  0.5660  0.1057  0.9544
 5497TIP3    H137982   3.435   2.218  16.270  1.4280 -1.0636  0.5016
 5497TIP3    H237983   3.297   2.214  16.207  0.5723  2.1206  1.9019
 5498TIP3   OH237984   6.621   6.372   5.638  0.0045 -0.0331  0.0849
 5498TIP3    H137985   6.654   6.360   5.727 -0.6036 -0.6197  0.2367
 5498TIP3    H237986   6.682   6.434   5.598 -0.4618  1.2589  1.3113
 5499TIP3   OH237987   3.948   4.511   0.837  0.3933  0.1705  0.2243
 5499TIP3    H137988   3.886   4.495   0.909  1.3579 -2.1734  0.6020
 5499TIP3    H237989   4.033   4.520   0.880  0.4875  2.7626 -0.3489
 5500TIP3   OH237990   2.958   6.503  16.967  0.0195 -0.3497 -0.0506
 5500TIP3    H137991   2.873   6.547  16.975  0.6081  1.4150 -2.3677
 5500TIP3    H237992   3.008   6.534  17.042 -0.7223  0.1783  0.2414
 5501TIP3   OH237993   4.238   6.212   3.144  0.1788  0.4303  0.1287
 5501TIP3    H137994   4.319   6.251   3.177 -0.0934  1.5630 -0.5058
 5501TIP3    H237995   4.168   6.260   3.188 -0.1588  0.7581 -0.7492
 5502TIP3   OH237996   5.096   2.834  10.892  0.5679 -0.4641 -0.4339
 5502TIP3    H137997   5.103   2.740  10.908 -0.2112 -1.0801 -3.1776
 5502TIP3    H237998   5.185   2.863  10.872  0.5706 -0.9781 -1.1906
 5503TIP3   OH237999   4.666   6.424   3.300 -0.8329  0.0714  0.4596
 5503TIP3    H138000   4.665   6.519   3.315  3.0116  0.1667  1.1710
 5503TIP3    H238001   4.715   6.413   3.219 -1.8199 -1.3419  0.0117
 5504TIP3   OH238002   3.686   5.409   5.493  0.0618 -0.1081  0.3728
 5504TIP3    H138003   3.672   5.444   5.581  0.8380  4.0325 -0.9342
 5504TIP3    H238004   3.766   5.357   5.500  1.0766  1.5384  1.8647
 5505TIP3   OH238005   6.634   3.352   5.591 -0.5632 -0.2890 -0.0223
 5505TIP3    H138006   6.551   3.348   5.543  0.8489  1.8781 -2.9790
 5505TIP3    H238007   6.672   3.264   5.580 -1.1885 -0.4343 -1.2269
 5506TIP3   OH238008   2.573   5.984   2.882  0.3193 -0.4412  0.1205
 5506TIP3    H138009   2.582   5.889   2.883  1.2229 -0.3689  1.6579
 5506TIP3    H238010   2.661   6.017   2.867  0.0338  0.1784 -0.2882
 5507TIP3   OH238011   0.818   0.080   2.112 -0.2257  0.2640 -0.1746
 5507TIP3    H138012   0.734   0.074   2.068 -0.6215  0.9054  0.4680
 5507TIP3    H238013   0.822   0.170   2.145  0.1995 -0.0875  0.7979
 5508TIP3   OH238014   5.722   4.701  13.228  0.2772  0.2818 -0.0823
 5508TIP3    H138015   5.705   4.794  13.244  2.9694  0.7523  0.6217
 5508TIP3    H238016   5.718   4.691  13.133 -0.0404  1.1220 -0.1619
 5509TIP3   OH238017   5.446   1.141   1.470  0.8391  0.5996 -0.4985
 5509TIP3    H138018   5.405   1.225   1.488 -0.7606 -0.3452  0.5323
 5509TIP3    H238019   5.523   1.162   1.417  1.9222  2.9357  1.8167
 5510TIP3   OH238020   5.876   2.829  17.138  0.2456  0.2416 -0.1925
 5510TIP3    H138021   5.840   2.909  17.177  0.6432 -0.1705  1.0675
 5510TIP3    H238022   5.926   2.788  17.209  1.7800 -0.0702 -1.3902
 5511TIP3   OH238023   2.755   5.213  12.466 -0.4017  0.3387 -0.2490
 5511TIP3    H138024   2.783   5.290  12.416  0.2360  0.4959  0.3311
 5511TIP3    H238025   2.694   5.168  12.408 -2.3599  2.3096  0.1198
 5512TIP3   OH238026   3.977   0.625   3.924  0.4782 -0.3543 -0.6226
 5512TIP3    H138027   4.017   0.686   3.986  1.3788  0.5698 -2.0452
 5512TIP3    H238028   3.887   0.656   3.913  1.1550  1.3110 -1.9603
 5513TIP3   OH238029   0.501   5.337   5.147 -0.3474 -0.0810 -0.4172
 5513TIP3    H138030   0.512   5.432   5.154 -1.1274  0.0287 -0.5654
 5513TIP3    H238031   0.587   5.302   5.167 -0.9610  0.4191  4.2374
 5514TIP3   OH238032   1.021   5.956   0.134  0.3913 -0.4834  1.0990
 5514TIP3    H138033   1.087   5.962   0.203  2.1236 -0.4767 -0.4799
 5514TIP3    H238034   1.019   6.043   0.095  2.2514 -1.3765 -1.2480
 5515TIP3   OH238035   3.538   5.794   1.420  0.3108  0.1570 -0.5618
 5515TIP3    H138036   3.481   5.868   1.397 -0.6111  0.0617  1.1895
 5515TIP3    H238037   3.623   5.816   1.382 -0.3216  1.3900 -1.3425
 5516TIP3   OH238038   0.096   3.799  14.183  0.0153  0.1149  0.5001
 5516TIP3    H138039   0.081   3.892  14.169  0.3928 -0.2070 -2.6331
 5516TIP3    H238040   0.157   3.773  14.113 -2.2458 -3.0245 -0.5262
 5517TIP3   OH238041   3.429   2.743  13.580  0.2972 -0.3374 -0.8978
 5517TIP3    H138042   3.408   2.656  13.614 -0.1036 -0.8389 -2.3756
 5517TIP3    H238043   3.456   2.728  13.490  0.0896  1.0883 -1.2239
 5518TIP3   OH238044   4.028   0.475  14.039  0.1579  0.1432 -0.1168
 5518TIP3    H138045   3.949   0.485  14.092 -0.1323  1.1190 -0.7137
 5518TIP3    H238046   4.072   0.398  14.076 -2.1943 -1.8494 -1.2224
 5519TIP3   OH238047   0.377   0.779   2.840 -0.1701  0.6835 -0.2483
 5519TIP3    H138048   0.359   0.705   2.898  0.1767  0.9290  0.1744
 5519TIP3    H238049   0.467   0.804   2.860 -0.7245  2.0952  0.5871
 5520TIP3   OH238050   3.587   0.828  16.790 -0.2345 -0.1811 -0.3290
 5520TIP3    H138051   3.614   0.736  16.789  0.9589  0.1086  0.9392
 5520TIP3    H238052   3.626   0.865  16.711 -0.5645 -0.7128 -0.7533
 5521TIP3   OH238053   6.265   5.273   2.923  0.7528  0.0703  0.0209
 5521TIP3    H138054   6.305   5.357   2.899  1.4581  0.0925  1.2021
 5521TIP3    H238055   6.248   5.280   3.017 -0.4802 -0.5965 -0.1203
 5522TIP3   OH238056   6.548   4.698   0.519 -1.2928  0.1430 -0.0188
 5522TIP3    H138057   6.591   4.779   0.493 -1.4564  0.2019 -0.1086
 5522TIP3    H238058   6.499   4.721   0.598 -1.1925  0.0880  0.0579
 5523TIP3   OH238059   2.075   1.043   2.255 -0.2601 -0.3288  0.3800
 5523TIP3    H138060   2.120   1.124   2.233 -0.6499 -0.6490 -1.7622
 5523TIP3    H238061   2.145   0.978   2.264  0.0544  0.1987  2.1323
 5524TIP3   OH238062   2.276   2.842   0.286 -0.3181  0.7925 -1.0534
 5524TIP3    H138063   2.238   2.794   0.360  1.2223  0.8048 -0.2339
 5524TIP3    H238064   2.201   2.861   0.230 -1.7088  1.7000  0.9959
 5525TIP3   OH238065   0.588   3.641  13.628  0.5481  0.0038 -0.2544
 5525TIP3    H138066   0.670   3.655  13.675  0.8314  2.3175 -1.3128
 5525TIP3    H238067   0.608   3.665  13.538 -1.1161 -0.1045 -0.6790
 5526TIP3   OH238068   2.354   6.618   4.685 -0.3366 -0.3493  0.5114
 5526TIP3    H138069   2.307   6.615   4.602  0.1549  0.9726  0.1578
 5526TIP3    H238070   2.437   6.572   4.667 -0.5583 -0.7476  0.5019
 5527TIP3   OH238071   3.112   2.592  15.972  0.1074  0.1029  0.4443
 5527TIP3    H138072   3.060   2.657  16.019 -0.6268 -0.0571 -0.1129
 5527TIP3    H238073   3.071   2.508  15.996  0.4389 -0.0693  0.4059
 5528TIP3   OH238074   1.516   4.033  16.066 -0.1988 -0.0941  0.0624
 5528TIP3    H138075   1.457   4.003  15.997  0.4433  0.2581 -0.6487
 5528TIP3    H238076   1.489   3.984  16.144 -0.7817 -0.6636 -0.4930
 5529TIP3   OH238077   0.589   6.246  15.868 -0.3198 -0.3792 -0.2773
 5529TIP3    H138078   0.575   6.257  15.962 -1.7140 -1.0492 -0.3789
 5529TIP3    H238079   0.534   6.314  15.828 -1.8740 -1.7783 -0.6410
 5530TIP3   OH238080   2.614   6.665   0.938 -0.6620 -0.1749  0.5365
 5530TIP3    H138081   2.556   6.662   1.014 -0.8104 -0.5814  0.4106
 5530TIP3    H238082   2.635   6.573   0.920 -2.2461 -0.2654 -1.1279
 5531TIP3   OH238083   3.233   6.751   4.736  0.0604  0.4663 -0.6968
 5531TIP3    H138084   3.187   6.794   4.663  0.8770  2.9314  0.1438
 5531TIP3    H238085   3.164   6.702   4.781 -0.7065 -0.0786 -2.3719
 5532TIP3   OH238086   1.342   5.787   0.191 -0.2605  0.4882 -0.0212
 5532TIP3    H138087   1.305   5.875   0.179  1.5691  1.2224 -0.6423
 5532TIP3    H238088   1.327   5.744   0.107 -0.0018  0.6762 -0.1666
 5533TIP3   OH238089   6.637   1.781   1.353 -0.3962 -0.1517 -0.3202
 5533TIP3    H138090   6.688   1.856   1.385 -0.7825  1.0218 -2.2492
 5533TIP3    H238091   6.703   1.723   1.315 -0.3090  1.1096 -2.3140
 5534TIP3   OH238092   5.312   2.637   5.751 -0.3809  0.5075  0.1359
 5534TIP3    H138093   5.270   2.570   5.697  0.9834  0.4118 -0.8693
 5534TIP3    H238094   5.290   2.612   5.841  0.2788 -1.4550 -0.1964
 5535TIP3   OH238095   5.735   4.915  15.783 -0.4615 -0.0980  0.3313
 5535TIP3    H138096   5.689   4.855  15.841  0.4088  2.0697  3.5692
 5535TIP3    H238097   5.793   4.965  15.841  2.9126  0.2163 -2.8731
 5536TIP3   OH238098   1.905   1.616   4.594  0.2373 -0.9318 -0.0733
 5536TIP3    H138099   1.861   1.682   4.540  2.3080  0.8284  0.2559
 5536TIP3    H238100   1.907   1.538   4.539 -1.6966 -0.5602 -0.7454
 5537TIP3   OH238101   5.661   4.784   0.293 -0.5838  0.0837 -0.8985
 5537TIP3    H138102   5.665   4.725   0.218  2.9170 -0.5812 -0.3191
 5537TIP3    H238103   5.719   4.745   0.358 -1.1223  2.2433  1.0017
 5538TIP3   OH238104   3.553   5.922  11.741  0.1896 -0.2874  0.1631
 5538TIP3    H138105   3.480   5.978  11.767  1.5530  0.8740  1.6786
 5538TIP3    H238106   3.577   5.953  11.654 -2.1452 -1.8270 -1.1341
 5539TIP3   OH238107   2.195   5.100   1.317 -0.2080  0.0548 -0.0151
 5539TIP3    H138108   2.208   5.007   1.295 -1.6478 -0.0503 -0.5399
 5539TIP3    H238109   2.149   5.136   1.241 -0.7032  0.9277  0.6856
 5540TIP3   OH238110   3.406   1.171  14.194 -0.3224 -0.3845 -0.3878
 5540TIP3    H138111   3.313   1.163  14.172 -0.7173 -1.3583  1.4452
 5540TIP3    H238112   3.426   1.264  14.178 -1.5212 -0.2169 -1.0751
 5541TIP3   OH238113   0.434   5.034  16.564  0.1884  0.2499  0.1785
 5541TIP3    H138114   0.416   5.031  16.470  1.0786 -2.1741  0.0095
 5541TIP3    H238115   0.523   5.069  16.571 -0.0378  0.8410  0.1703
 5542TIP3   OH238116   6.282   3.587   6.211 -0.2255  0.0378 -0.1469
 5542TIP3    H138117   6.340   3.595   6.135 -0.5547  1.1473 -0.2994
 5542TIP3    H238118   6.200   3.554   6.175 -0.1593 -0.1297 -0.1495
 5543TIP3   OH238119   1.192   4.436  11.781 -0.6592  0.0401 -0.0978
 5543TIP3    H138120   1.126   4.466  11.718 -0.3519  1.6225  0.2985
 5543TIP3    H238121   1.266   4.494  11.767 -0.9020  1.0201  2.2946
 5544TIP3   OH238122   6.074   4.475   2.441 -0.0425  0.0246  0.5488
 5544TIP3    H138123   6.092   4.512   2.355 -1.1849 -0.3176  0.1562
 5544TIP3    H238124   6.160   4.449   2.474  0.3359 -0.4578 -0.7701
 5545TIP3   OH238125   1.018   3.035  16.935 -0.4038 -0.1307 -0.4921
 5545TIP3    H138126   0.989   2.948  16.907  0.1159 -0.4680  0.0042
 5545TIP3    H238127   0.947   3.094  16.907 -1.6773 -0.9550  0.8584
 5546TIP3   OH238128   0.070   2.698  13.024 -0.2298  0.2916  0.0258
 5546TIP3    H138129   0.007   2.735  12.962 -0.8103 -1.4419 -0.4678
 5546TIP3    H238130   0.128   2.771  13.045  1.0738  0.5802 -3.8782
 5547TIP3   OH238131   3.844   0.632  10.801  0.2815 -0.2988  0.1751
 5547TIP3    H138132   3.936   0.657  10.808  0.5879 -0.9935 -1.0569
 5547TIP3    H238133   3.829   0.573  10.875 -0.1475  2.4478  2.4467
 5548TIP3   OH238134   0.478   6.525   5.911 -0.7300  0.5391  0.0576
 5548TIP3    H138135   0.534   6.451   5.936 -0.8149 -0.1411 -1.5758
 5548TIP3    H238136   0.390   6.497   5.936 -0.4831  1.2538  1.8639
 5549TIP3   OH238137   1.295   1.944   4.119 -0.5272 -0.3967 -0.5262
 5549TIP3    H138138   1.247   2.025   4.103  0.1587  0.1372  0.0540
 5549TIP3    H238139   1.379   1.973   4.155 -0.5474 -1.3937  0.3451
 5550TIP3   OH238140   0.926   5.413  10.589 -0.5167 -0.3994 -0.7753
 5550TIP3    H138141   0.859   5.478  10.610 -2.3105 -2.0686 -1.0149
 5550TIP3    H238142   1.008   5.454  10.614 -1.7519  1.1549  1.0472
 5551TIP3   OH238143   1.223   2.136   5.808  0.5863 -0.3040  0.4188
 5551TIP3    H138144   1.204   2.163   5.898  1.4583  2.1512 -0.0578
 5551TIP3    H238145   1.209   2.041   5.808 -0.5620 -0.2078  2.8282
 5552TIP3   OH238146   5.194   0.288  15.501  0.6593  0.2405 -0.4913
 5552TIP3    H138147   5.261   0.296  15.569 -1.0826  0.9033  1.2308
 5552TIP3    H238148   5.113   0.315  15.544 -0.5168  0.7468 -2.8720
 5553TIP3   OH238149   4.834   5.508   5.255  0.3412  0.2422  0.1100
 5553TIP3    H138150   4.809   5.465   5.337 -0.3398  0.1727 -0.1252
 5553TIP3    H238151   4.757   5.560   5.231  0.1473 -0.5152 -0.9913
 5554TIP3   OH238152   4.894   5.051  13.855 -0.1369 -0.1303  0.8386
 5554TIP3    H138153   4.987   5.041  13.838  0.0487  2.9112 -0.6120
 5554TIP3    H238154   4.859   4.962  13.850  2.6502 -1.3689  1.5009
 5555TIP3   OH238155   2.521   5.769  11.279  0.1450  0.4595  0.2480
 5555TIP3    H138156   2.576   5.847  11.274 -0.2213  0.6295 -2.4319
 5555TIP3    H238157   2.582   5.699  11.304  1.2685  0.9418 -1.0356
 5556TIP3   OH238158   6.358   0.790  13.827  0.0621 -0.4690 -0.1962
 5556TIP3    H138159   6.301   0.713  13.828 -1.7784  0.8113  0.3738
 5556TIP3    H238160   6.365   0.815  13.919 -0.4849  0.7801 -0.4705
 5557TIP3   OH238161   5.017   5.993  12.431  0.2453  0.2324 -0.0071
 5557TIP3    H138162   5.025   5.912  12.380  1.0726 -1.0288  2.0242
 5557TIP3    H238163   4.995   5.964  12.519 -2.5287  2.4030  0.1771
 5558TIP3   OH238164   5.179   6.002   4.608  0.1019  0.2260  0.5400
 5558TIP3    H138165   5.124   6.037   4.679 -0.3935  1.6346 -0.4922
 5558TIP3    H238166   5.255   5.966   4.653 -0.9598 -0.4123  1.8980
 5559TIP3   OH238167   2.646   5.905  14.101 -0.5495  0.6666  0.4036
 5559TIP3    H138168   2.707   5.956  14.154 -0.1563 -0.4512  1.0812
 5559TIP3    H238169   2.590   5.860  14.164 -0.7297  0.0843 -0.1532
 5560TIP3   OH238170   4.744   4.040  14.540 -0.4601  0.2961 -0.4501
 5560TIP3    H138171   4.700   4.022  14.457  1.9139 -1.9325 -1.3510
 5560TIP3    H238172   4.709   3.974  14.601  0.4777 -0.5101 -0.7596
 5561TIP3   OH238173   0.784   1.321  14.572  0.1857  0.2272  0.2968
 5561TIP3    H138174   0.737   1.376  14.635 -0.0431  1.0953 -0.6183
 5561TIP3    H238175   0.719   1.256  14.545 -0.2807  0.9417 -0.3662
 5562TIP3   OH238176   3.077   2.303  14.148 -0.3191 -0.3031 -0.0163
 5562TIP3    H138177   3.049   2.277  14.236 -1.4087  0.6039 -0.0724
 5562TIP3    H238178   2.997   2.336  14.107  0.9523  3.3244  0.1245
 5563TIP3   OH238179   6.082   3.485  12.258 -0.0268 -0.5305  0.6774
 5563TIP3    H138180   6.072   3.390  12.250 -0.9512 -0.5171  1.4583
 5563TIP3    H238181   6.172   3.502  12.230  0.3128 -1.6920  0.9877
 5564TIP3   OH238182   0.409   2.340   0.435 -0.6924  0.2104 -0.0328
 5564TIP3    H138183   0.318   2.327   0.461 -0.7952 -1.9863 -1.2221
 5564TIP3    H238184   0.409   2.425   0.391 -1.8355  0.9199  1.2645
 5565TIP3   OH238185   1.811   6.311   2.878 -0.7585  0.2120  0.2044
 5565TIP3    H138186   1.847   6.395   2.909  1.4425 -0.8870  0.8846
 5565TIP3    H238187   1.740   6.292   2.939  1.3725 -0.3109  2.7215
 5566TIP3   OH238188   3.526   0.287   5.285 -0.2349 -0.7304  0.1253
 5566TIP3    H138189   3.521   0.284   5.189 -1.4956 -1.9740  0.1899
 5566TIP3    H238190   3.610   0.329   5.304  0.2491 -0.8927 -1.5219
 5567TIP3   OH238191   4.571   5.501  14.657 -0.2012 -0.6295  0.4943
 5567TIP3    H138192   4.666   5.506  14.661 -0.2894  1.6840  0.8541
 5567TIP3    H238193   4.552   5.484  14.565  0.5339  2.7968 -0.4216
 5568TIP3   OH238194   5.379   1.019  11.025  0.2451 -0.1316 -0.0137
 5568TIP3    H138195   5.470   0.999  11.006 -0.1346 -2.3255  0.2242
 5568TIP3    H238196   5.375   1.027  11.120 -0.0668 -1.7682  0.1448
 5569TIP3   OH238197   1.435   4.398  17.127  0.1397  0.2745  0.2049
 5569TIP3    H138198   1.378   4.417  17.052  0.1646  0.7716  0.3032
 5569TIP3    H238199   1.477   4.315  17.106  0.2583  0.4842 -0.4087
 5570TIP3   OH238200   2.153   4.194  13.608 -0.0281 -0.1347  0.3574
 5570TIP3    H138201   2.096   4.119  13.595  0.1483 -0.0206 -1.2033
 5570TIP3    H238202   2.240   4.156  13.619 -0.1881 -0.2347  1.3880
 5571TIP3   OH238203   3.075   3.931   1.246 -0.4015  0.3133  0.3910
 5571TIP3    H138204   3.108   3.983   1.320  0.3948  0.3330  0.0249
 5571TIP3    H238205   3.010   3.987   1.205 -0.4002  0.5495  0.7034
 5572TIP3   OH238206   1.128   0.122  15.131  0.3611 -0.7657  0.4362
 5572TIP3    H138207   1.069   0.051  15.104 -0.9325  0.6907 -0.7030
 5572TIP3    H238208   1.097   0.147  15.218 -0.8270  0.0484 -0.1869
 5573TIP3   OH238209   6.314   4.426   5.988 -0.1333 -0.9559  0.4651
 5573TIP3    H138210   6.232   4.408   6.032 -1.8314  2.1223 -1.1067
 5573TIP3    H238211   6.302   4.391   5.899  0.6938 -1.3688  0.4999
 5574TIP3   OH238212   3.660   3.604   1.828 -0.0550 -0.3832  0.0531
 5574TIP3    H138213   3.616   3.646   1.754  0.1587  1.5126  0.9422
 5574TIP3    H238214   3.734   3.661   1.848 -0.1309 -0.8132  1.7420
 5575TIP3   OH238215   5.587   3.888  11.511 -0.2335  0.2686 -0.2263
 5575TIP3    H138216   5.586   3.794  11.530 -1.5097  0.5351  1.2292
 5575TIP3    H238217   5.603   3.893  11.417 -0.7092 -1.4276 -0.4380
 5576TIP3   OH238218   1.563   1.701   2.013  1.1033 -0.7959  0.0242
 5576TIP3    H138219   1.488   1.667   1.965  1.8339 -1.0007 -1.0083
 5576TIP3    H238220   1.633   1.639   1.994  1.7850 -0.0832  0.1825
 5577TIP3   OH238221   0.826   6.563   1.624 -0.0134 -0.0282 -0.0554
 5577TIP3    H138222   0.855   6.472   1.635 -0.1377 -0.4273 -2.5500
 5577TIP3    H238223   0.732   6.560   1.641 -0.3133 -0.7331 -1.6540
 5578TIP3   OH238224   0.366   4.683  15.503 -0.5996 -0.3958 -0.1878
 5578TIP3    H138225   0.442   4.632  15.475  0.0436  0.0903  0.6382
 5578TIP3    H238226   0.299   4.664  15.437 -0.3184 -2.1604 -0.0092
 5579TIP3   OH238227   2.619   1.634  11.177  0.1570  0.3095  0.6570
 5579TIP3    H138228   2.711   1.611  11.168  0.4819  1.6510  0.3107
 5579TIP3    H238229   2.617   1.729  11.170 -1.7910  0.2327 -4.9718
 5580TIP3   OH238230   1.655   4.268   1.461 -0.0447 -0.0477  0.3348
 5580TIP3    H138231   1.634   4.208   1.532 -1.0477 -1.4461 -1.1009
 5580TIP3    H238232   1.571   4.304   1.434  0.2445 -0.0425 -0.5899
 5581TIP3   OH238233   1.891   6.258  12.586  0.3413  0.8594 -0.2516
 5581TIP3    H138234   1.899   6.292  12.675 -2.5386  1.1060 -0.0122
 5581TIP3    H238235   1.880   6.164  12.597  0.3088  0.8471 -0.3880
 5582TIP3   OH238236   2.902   1.949  15.683  0.1956 -0.0744  0.0535
 5582TIP3    H138237   2.914   1.981  15.772 -1.1040  1.2208 -0.1947
 5582TIP3    H238238   2.977   1.892  15.668 -0.6123 -2.0060  2.6759
 5583TIP3   OH238239   6.447   3.908  11.314  0.2952  0.4035 -0.1531
 5583TIP3    H138240   6.436   3.814  11.322 -2.4411  0.3227 -3.0203
 5583TIP3    H238241   6.403   3.945  11.391  0.0001 -0.6178  0.1790
 5584TIP3   OH238242   0.696   3.160   3.798  0.0296 -0.0891  0.1220
 5584TIP3    H138243   0.710   3.253   3.818 -2.2851  0.2881  0.2491
 5584TIP3    H238244   0.601   3.152   3.789  0.1912 -2.4659  0.1159
 5585TIP3   OH238245   5.788   5.566  15.428  0.2149  0.3479 -0.0984
 5585TIP3    H138246   5.740   5.572  15.510 -0.9067  2.1618 -0.8237
 5585TIP3    H238247   5.878   5.590  15.451  0.6093 -2.0017  1.0731
 5586TIP3   OH238248   3.794   4.615  12.127  0.1643 -0.3727 -0.3351
 5586TIP3    H138249   3.809   4.708  12.142  0.1178  0.0586 -2.6001
 5586TIP3    H238250   3.755   4.610  12.040 -0.5514 -2.4696  0.0306
 5587TIP3   OH238251   6.705   2.773  14.092  0.2056  0.2771 -0.3444
 5587TIP3    H138252   6.665   2.831  14.156  1.2882  0.4279  0.2270
 5587TIP3    H238253   6.774   2.727  14.141 -0.1539 -0.9589 -0.9605
 5588TIP3   OH238254   2.796   2.052  12.829 -0.1852 -0.0728 -0.1568
 5588TIP3    H138255   2.786   2.117  12.759  0.4801 -1.3301 -1.4693
 5588TIP3    H238256   2.881   2.073  12.868 -0.5083  0.5666  0.2213
 5589TIP3   OH238257   3.809   2.649   5.990  0.2574  0.0099 -0.4107
 5589TIP3    H138258   3.791   2.725   6.045 -0.3974 -1.3148  1.2616
 5589TIP3    H238259   3.834   2.687   5.905 -0.7055  2.0652  0.1663
 5590TIP3   OH238260   2.151   0.611   1.231 -0.2447 -0.2466  0.3420
 5590TIP3    H138261   2.091   0.567   1.170  0.2012 -1.8526  0.9859
 5590TIP3    H238262   2.189   0.682   1.180  1.2870 -2.4549 -1.8246
 5591TIP3   OH238263   3.465   1.353  12.676 -0.2692 -0.4862 -0.1230
 5591TIP3    H138264   3.553   1.387  12.696 -0.2738 -0.4642 -0.1395
 5591TIP3    H238265   3.408   1.429  12.689 -0.1431 -0.1550 -1.3323
 5592TIP3   OH238266   6.498   0.934  15.438 -0.2317 -0.2166 -0.6545
 5592TIP3    H138267   6.425   0.941  15.499  0.6861 -0.5278  0.4988
 5592TIP3    H238268   6.524   1.025  15.421  1.0120 -0.1498  1.3019
 5593TIP3   OH238269   0.567   4.552  11.139 -0.0160  0.1675  0.3560
 5593TIP3    H138270   0.613   4.509  11.212  0.5392 -0.8702 -0.5854
 5593TIP3    H238271   0.560   4.484  11.072  1.3005  1.6616 -1.3683
 5594TIP3   OH238272   1.499   5.721  14.402 -0.6638  0.2007  0.5778
 5594TIP3    H138273   1.517   5.634  14.366 -0.4242 -0.2714  1.7957
 5594TIP3    H238274   1.455   5.704  14.485 -2.0326  1.2781  0.1132
 5595TIP3   OH238275   6.576   0.216  11.391 -0.0061  0.7375 -0.4635
 5595TIP3    H138276   6.647   0.213  11.326 -0.4572 -0.4528 -0.9244
 5595TIP3    H238277   6.620   0.240  11.472  1.3071 -1.7776 -0.3152
 5596TIP3   OH238278   4.003   0.672  11.377 -0.2312  0.1785  0.5995
 5596TIP3    H138279   3.957   0.691  11.295  1.9415 -1.2863 -1.0780
 5596TIP3    H238280   3.950   0.606  11.420 -0.4096 -0.5320 -0.6629
 5597TIP3   OH238281   1.439   0.619   3.890  0.2657  0.0439 -0.1724
 5597TIP3    H138282   1.485   0.694   3.930 -1.3996  0.7106  0.6210
 5597TIP3    H238283   1.407   0.568   3.965 -0.4721 -0.2575 -0.6729
 5598TIP3   OH238284   4.192   4.772   4.307 -0.3514  0.2637 -0.1164
 5598TIP3    H138285   4.246   4.694   4.316  0.7763  0.8388 -1.4258
 5598TIP3    H238286   4.161   4.791   4.395  2.1580  0.2970  0.8127
 5599TIP3   OH238287   2.983   1.796  11.685 -0.6707  0.5012 -0.2003
 5599TIP3    H138288   3.056   1.734  11.680 -1.5341 -0.5400 -0.4002
 5599TIP3    H238289   2.979   1.821  11.777 -0.0824  0.5388 -0.1832
 5600TIP3   OH238290   5.582   1.614   3.047  0.4672 -0.3271  0.6958
 5600TIP3    H138291   5.492   1.620   3.081  0.3520 -0.7735  0.4771
 5600TIP3    H238292   5.622   1.543   3.097  0.2071 -1.1791 -0.2826
 5601TIP3   OH238293   0.050   3.691  11.220 -0.3906 -0.3450  0.0668
 5601TIP3    H138294   0.059   3.623  11.154  2.7423 -0.1456  0.1468
 5601TIP3    H238295   0.109   3.761  11.191 -2.7856  2.0407  0.4572
 5602TIP3   OH238296   4.336   6.377   0.626  0.4968  0.0697 -0.0132
 5602TIP3    H138297   4.250   6.348   0.656 -0.0230  2.0047  0.4836
 5602TIP3    H238298   4.330   6.472   0.622  1.7892  0.1261 -2.5639
 5603TIP3   OH238299   0.847   0.437   4.913  0.0309  0.4980 -0.2065
 5603TIP3    H138300   0.898   0.516   4.896 -2.8735  2.2414 -1.7596
 5603TIP3    H238301   0.757   0.469   4.923 -0.9050 -2.3506  2.1316
 5604TIP3   OH238302   3.579   5.625   4.014 -0.3961 -0.3281  0.1257
 5604TIP3    H138303   3.549   5.645   4.103  3.5736 -0.6260  1.7434
 5604TIP3    H238304   3.530   5.547   3.989 -1.6461 -0.2105  2.0359
 5605TIP3   OH238305   0.898   2.277  12.464 -0.5529 -0.2475 -0.2582
 5605TIP3    H138306   0.855   2.285  12.379 -1.3600 -0.5569  0.1140
 5605TIP3    H238307   0.888   2.363  12.504  0.3519  0.0779 -0.7121
 5606TIP3   OH238308   1.177   0.178  13.504  0.1110  0.0130 -0.0126
 5606TIP3    H138309   1.103   0.223  13.463  0.6679 -0.7259 -1.9735
 5606TIP3    H238310   1.218   0.245  13.559  0.9504  2.0608 -2.8573
 5607TIP3   OH238311   0.289   5.692  12.008  0.6771 -0.5046 -0.4293
 5607TIP3    H138312   0.330   5.632  11.946 -0.3153 -0.4581 -1.1433
 5607TIP3    H238313   0.334   5.674  12.091  2.1836 -0.3899 -1.1992
 5608TIP3   OH238314   3.120   6.664   2.637 -0.2002 -0.5353  0.2016
 5608TIP3    H138315   3.167   6.747   2.632  1.5252 -1.1706  3.3620
 5608TIP3    H238316   3.028   6.689   2.646  0.3777  1.1269  2.1261
 5609TIP3   OH238317   5.505   6.622   2.382 -0.1743  0.2379 -0.6686
 5609TIP3    H138318   5.563   6.547   2.398  1.3570  1.5707  0.3632
 5609TIP3    H238319   5.524   6.648   2.292 -1.5457 -1.2591 -1.4301
 5610TIP3   OH238320   5.758   2.137   1.553  0.2704  0.4417 -0.9259
 5610TIP3    H138321   5.726   2.059   1.598  0.7023  1.0136  0.4293
 5610TIP3    H238322   5.808   2.103   1.478 -1.3213 -0.5065 -1.6116
 5611TIP3   OH238323   5.427   1.460   1.503 -0.2076 -0.1346 -0.2107
 5611TIP3    H138324   5.502   1.436   1.557  0.8624 -0.8141 -1.9087
 5611TIP3    H238325   5.464   1.515   1.433 -1.7069  1.5934  0.2702
 5612TIP3   OH238326   0.944   3.444   0.394  0.3718  0.0364 -0.3075
 5612TIP3    H138327   0.956   3.513   0.459  0.9887  1.1652 -1.5493
 5612TIP3    H238328   0.935   3.492   0.311 -0.8419 -1.3195 -1.0039
 5613TIP3   OH238329   0.812   5.639  14.698  0.5562 -0.3698  0.5112
 5613TIP3    H138330   0.728   5.598  14.720 -0.1920  0.5056 -0.6000
 5613TIP3    H238331   0.872   5.565  14.687 -0.2351 -1.0485  0.6585
 5614TIP3   OH238332   1.903   6.671   2.711 -0.3404  0.8820 -0.2372
 5614TIP3    H138333   1.948   6.594   2.745 -0.1337  0.5651 -1.2094
 5614TIP3    H238334   1.857   6.640   2.634 -0.1149  1.7684 -0.7378
 5615TIP3   OH238335   1.082   5.238  15.496 -0.0856  0.9000 -0.5196
 5615TIP3    H138336   1.113   5.172  15.558 -0.2541  0.9912 -0.3357
 5615TIP3    H238337   1.011   5.194  15.448 -0.2300  0.9646 -0.3642
 5616TIP3   OH238338   2.567   5.679   4.435  0.1839 -0.5964  0.5002
 5616TIP3    H138339   2.620   5.720   4.504 -1.0000  0.4951  0.8032
 5616TIP3    H238340   2.630   5.652   4.369  1.1190  0.7079  0.8215
 5617TIP3   OH238341   1.281   3.700   5.101 -0.0524  0.1219 -0.0286
 5617TIP3    H138342   1.349   3.766   5.085  1.0311 -1.3600 -1.8606
 5617TIP3    H238343   1.266   3.659   5.016 -2.0803 -0.7284  0.6770
 5618TIP3   OH238344   5.473   6.097   6.084  0.3752 -0.0650 -0.3807
 5618TIP3    H138345   5.568   6.102   6.072  0.3327  1.1920 -0.3903
 5618TIP3    H238346   5.452   6.173   6.138 -0.6914  0.0046 -0.8642
 5619TIP3   OH238347   4.943   5.827   0.461  0.7117  0.2649 -0.3097
 5619TIP3    H138348   5.016   5.887   0.448  1.1535  0.2858  1.9334
 5619TIP3    H238349   4.865   5.883   0.458  1.0221  0.7473  0.3624
 5620TIP3   OH238350   5.540   0.931  12.812  0.3359 -0.3270  0.0999
 5620TIP3    H138351   5.619   0.978  12.788  1.8936 -2.5729  0.5251
 5620TIP3    H238352   5.567   0.874  12.884 -2.0225 -0.2092  1.1805
 5621TIP3   OH238353   2.502   3.662  17.063  0.3114 -0.0988  0.2499
 5621TIP3    H138354   2.538   3.736  17.112  0.7441 -0.3250  0.2731
 5621TIP3    H238355   2.429   3.700  17.013  0.8293  0.4412 -0.1048
 5622TIP3   OH238356   2.447   6.069  14.011 -0.2628  0.1342  0.3296
 5622TIP3    H138357   2.523   6.012  14.025 -0.2713  0.3651  1.3910
 5622TIP3    H238358   2.462   6.108  13.925  1.2972  0.8723  0.8919
 5623TIP3   OH238359   5.780   3.317   6.021 -0.4590 -0.6553  0.0501
 5623TIP3    H138360   5.714   3.347   5.958  0.1822 -1.5620 -1.0987
 5623TIP3    H238361   5.746   3.234   6.054 -1.4827  0.5037  2.0341
 5624TIP3   OH238362   3.264   3.992  14.548  0.3859 -0.0149 -0.2376
 5624TIP3    H138363   3.242   3.922  14.487 -3.1752  1.5062 -0.9891
 5624TIP3    H238364   3.317   4.053  14.497  3.9439 -2.2068  0.5711
 5625TIP3   OH238365   4.169   6.099  11.866  0.3840 -0.1461 -0.0628
 5625TIP3    H138366   4.163   6.011  11.905 -1.7732 -0.1282 -0.2492
 5625TIP3    H238367   4.078   6.125  11.852  1.0285  1.5302 -1.3925
 5626TIP3   OH238368   4.244   4.184  14.234 -0.1055 -0.3908  0.1869
 5626TIP3    H138369   4.219   4.197  14.142 -2.3838 -0.5050  0.7514
 5626TIP3    H238370   4.264   4.272  14.265  0.8706 -0.3700 -0.4330
 5627TIP3   OH238371   3.487   4.552   1.947  0.4579  0.5492  0.1393
 5627TIP3    H138372   3.410   4.606   1.929 -0.3572 -1.0524 -1.6395
 5627TIP3    H238373   3.472   4.516   2.034 -0.2485  1.1501  0.2737
 5628TIP3   OH238374   4.892   2.123   1.760  0.1952 -0.7816 -0.6741
 5628TIP3    H138375   4.846   2.183   1.701  0.6853  0.0368 -0.2535
 5628TIP3    H238376   4.966   2.091   1.709 -0.0779 -1.0285 -0.9087
 5629TIP3   OH238377   0.443   2.907   5.741  0.3273  0.1324  0.3275
 5629TIP3    H138378   0.424   2.862   5.658  0.3468  0.1763  0.2985
 5629TIP3    H238379   0.523   2.956   5.723 -0.8219  1.8865 -0.3209
 5630TIP3   OH238380   6.574   4.051  17.021  0.3777 -0.4517  0.1808
 5630TIP3    H138381   6.549   4.125  17.077  0.5989 -0.5858  0.4604
 5630TIP3    H238382   6.490   4.009  16.998  0.2076  0.2338 -0.4740
 5631TIP3   OH238383   0.890   2.135  14.837 -0.3778  0.1300  0.0885
 5631TIP3    H138384   0.970   2.083  14.832 -1.5127 -1.6812 -0.3831
 5631TIP3    H238385   0.902   2.205  14.773  0.4361 -0.6919 -0.6752
 5632TIP3   OH238386   3.470   4.997  15.950  0.0964  0.0285 -0.0095
 5632TIP3    H138387   3.523   5.050  15.890  0.3174 -0.1008  0.0712
 5632TIP3    H238388   3.534   4.958  16.009 -0.1784  0.7449  0.7775
 5633TIP3   OH238389   0.450   5.319  16.769  0.2397 -0.1494  0.8831
 5633TIP3    H138390   0.406   5.308  16.685  1.6906 -0.2590  0.1112
 5633TIP3    H238391   0.380   5.310  16.834 -0.8826 -0.1981 -0.2927
 5634TIP3   OH238392   3.106   2.573   0.384  0.7176  0.1256  0.2667
 5634TIP3    H138393   3.056   2.567   0.465  1.3540 -1.8329  0.5889
 5634TIP3    H238394   3.163   2.495   0.386  2.6929  1.4614 -0.7780
 5635TIP3   OH238395   0.280   4.155   4.994  0.4730  0.1102  0.0864
 5635TIP3    H138396   0.319   4.071   4.969 -0.5115 -0.0418 -1.0683
 5635TIP3    H238397   0.190   4.133   5.019  0.4081  0.7377  0.4165
 5636TIP3   OH238398   0.581   4.827   5.824  0.4283 -0.1880  0.1859
 5636TIP3    H138399   0.579   4.734   5.802  1.0163  0.1578 -1.4257
 5636TIP3    H238400   0.581   4.828   5.920  0.9800 -1.8616  0.2458
 5637TIP3   OH238401   3.849   1.660   2.315  0.2186 -0.1661 -0.8363
 5637TIP3    H138402   3.908   1.586   2.325 -0.0767 -0.2550  0.4015
 5637TIP3    H238403   3.906   1.736   2.311  0.5380 -0.4523 -2.3573
 5638TIP3   OH238404   2.687   0.676  10.510 -0.1381 -0.2265  0.0269
 5638TIP3    H138405   2.699   0.643  10.422 -0.4256 -1.3238  0.3821
 5638TIP3    H238406   2.592   0.677  10.523 -0.0818 -0.4748  0.4714
 5639TIP3   OH238407   3.818   2.582  12.411 -0.4720  0.5029  0.4170
 5639TIP3    H138408   3.734   2.599  12.370 -0.6384  1.4550  1.1338
 5639TIP3    H238409   3.801   2.510  12.472 -0.4267 -0.2928 -0.4819
 5640TIP3   OH238410   5.072   5.930   0.151  0.3663  0.8384  0.7048
 5640TIP3    H138411   5.039   5.907   0.238 -0.2451  1.8858  0.7753
 5640TIP3    H238412   4.999   5.976   0.109 -0.2960 -1.8536 -1.3656
 5641TIP3   OH238413   5.577   3.690   4.572 -0.0225 -0.3241 -0.2354
 5641TIP3    H138414   5.485   3.669   4.587  0.1340 -0.9674 -0.1738
 5641TIP3    H238415   5.579   3.786   4.571 -0.6673 -0.3023 -0.0892
 5642TIP3   OH238416   2.213   4.914  12.326  0.2065  0.4146  0.1621
 5642TIP3    H138417   2.143   4.854  12.351  0.1786  0.7213  0.8481
 5642TIP3    H238418   2.293   4.864  12.341  0.1443  0.1433 -0.4021
 5643TIP3   OH238419   6.562   0.026   4.318 -0.5159 -0.1626 -0.3791
 5643TIP3    H138420   6.593   0.034   4.409  1.0262 -0.4624 -0.8500
 5643TIP3    H238421   6.528   0.113   4.297  2.5024  1.0815 -0.6573
 5644TIP3   OH238422   5.699   3.315  13.155 -0.4581 -0.2759  0.0768
 5644TIP3    H138423   5.769   3.300  13.219  0.0128  1.0550 -0.1099
 5644TIP3    H238424   5.722   3.397  13.113 -1.6374 -0.3138 -0.6729
 5645TIP3   OH238425   2.975   6.090   1.732  0.2115 -0.0145  0.0746
 5645TIP3    H138426   2.985   6.085   1.827 -1.6067 -0.4956  0.2817
 5645TIP3    H238427   3.062   6.071   1.698  0.6251 -1.1245  1.6301
 5646TIP3   OH238428   2.384   5.503  12.976 -0.4482  0.0055 -0.1469
 5646TIP3    H138429   2.326   5.564  13.022 -0.2696 -1.2950  1.8991
 5646TIP3    H238430   2.393   5.428  13.035  2.1982 -0.4507 -0.9876
 5647TIP3   OH238431   1.206   6.634  16.134  0.5714 -0.4636 -0.0951
 5647TIP3    H138432   1.237   6.724  16.123  0.5101 -0.3584  0.5751
 5647TIP3    H238433   1.123   6.642  16.181 -0.2413 -0.7781 -1.4159
 5648TIP3   OH238434   4.957   2.786  15.658  0.4431  0.0279  0.4350
 5648TIP3    H138435   5.001   2.702  15.669 -0.2079 -0.5268 -0.9173
 5648TIP3    H238436   4.880   2.766  15.604 -0.3396  1.3086  1.0142
 5649TIP3   OH238437   0.394   5.727  12.749  0.4947 -0.1560  0.3311
 5649TIP3    H138438   0.477   5.690  12.721  0.4594 -0.6819  0.9233
 5649TIP3    H238439   0.417   5.811  12.789  0.7723 -0.4554  0.7991
 5650TIP3   OH238440   1.266   5.281  13.220 -0.1562  0.2309 -0.2395
 5650TIP3    H138441   1.198   5.280  13.153 -0.2204  1.9341 -0.2407
 5650TIP3    H238442   1.300   5.192  13.221 -0.6463 -0.0125 -2.0324
 5651TIP3   OH238443   1.366   0.380   6.275 -0.0825 -0.0823 -0.0339
 5651TIP3    H138444   1.340   0.307   6.331  0.5461 -0.8988 -0.7701
 5651TIP3    H238445   1.452   0.355   6.241  0.5433  1.4046  0.3755
 5652TIP3   OH238446   5.584   3.814  13.131  0.3952 -0.0887 -0.1049
 5652TIP3    H138447   5.504   3.846  13.089  0.0008 -0.4570  0.3522
 5652TIP3    H238448   5.651   3.879  13.109  0.3171 -0.5017 -1.6744
 5653TIP3   OH238449   4.533   5.089   2.385  0.1858 -0.0114 -0.3455
 5653TIP3    H138450   4.535   5.031   2.462  0.2776  0.5562  0.0805
 5653TIP3    H238451   4.519   5.176   2.421 -0.4302  0.1774 -1.0236
 5654TIP3   OH238452   3.782   2.109   4.317  0.3014 -0.1207  0.4965
 5654TIP3    H138453   3.851   2.165   4.352  0.6205 -0.0153 -0.2789
 5654TIP3    H238454   3.746   2.064   4.393  0.9717  0.1100  0.9539
 5655TIP3   OH238455   6.657   0.906   3.945  0.1204 -0.1090 -0.1250
 5655TIP3    H138456   6.685   0.939   4.030  1.3616 -0.0978 -0.5209
 5655TIP3    H238457   6.736   0.868   3.907 -0.3126  0.2891 -1.4627
 5656TIP3   OH238458   0.080   0.990   4.403 -0.3218 -0.4373  0.0550
 5656TIP3    H138459   0.089   1.049   4.477  1.1331 -2.0956  1.2894
 5656TIP3    H238460   0.167   0.987   4.363 -1.0032  0.1834 -1.5587
 5657TIP3   OH238461   1.810   1.815  15.400  0.0419  0.0835  0.0758
 5657TIP3    H138462   1.867   1.888  15.376  1.6754 -1.0649  0.3601
 5657TIP3    H238463   1.779   1.837  15.488 -1.1331  1.3899 -0.6246
 5658TIP3   OH238464   1.204   1.409   5.765  0.3134 -0.0926 -0.1532
 5658TIP3    H138465   1.111   1.435   5.766  0.8463  2.4557  3.4016
 5658TIP3    H238466   1.208   1.332   5.822  0.5079  0.7911  1.0733
 5659TIP3   OH238467   6.628   6.332   5.276 -0.6008 -0.4171 -0.2637
 5659TIP3    H138468   6.599   6.423   5.270  0.6921  0.0123 -0.2536
 5659TIP3    H238469   6.702   6.326   5.215  0.5106 -0.9674  1.0738
 5660TIP3   OH238470   3.310   1.177  16.085 -0.3467  0.3257 -0.3255
 5660TIP3    H138471   3.240   1.141  16.139  1.2448  1.0409  2.4168
 5660TIP3    H238472   3.380   1.199  16.147  1.6861  1.1673 -2.7108
 5661TIP3   OH238473   6.563   4.857   2.028 -0.1617  0.2819 -0.3013
 5661TIP3    H138474   6.567   4.794   2.100 -1.1033 -0.6651 -1.0348
 5661TIP3    H238475   6.644   4.907   2.035  1.9385 -2.7093 -1.1859
 5662TIP3   OH238476   1.182   6.732  11.254  0.3146 -0.0568  0.3327
 5662TIP3    H138477   1.226   6.755  11.172  0.2797  1.0987  0.6169
 5662TIP3    H238478   1.101   6.689  11.227  1.2278 -1.5071 -0.2022
 5663TIP3   OH238479   3.600   1.893   1.476  0.9430 -1.0253 -0.2073
 5663TIP3    H138480   3.627   1.976   1.514  1.2299 -0.3649 -1.8150
 5663TIP3    H238481   3.518   1.872   1.521  1.2987 -0.3112  0.8000
 5664TIP3   OH238482   0.065   6.722   1.759  0.7132 -1.2350  0.4741
 5664TIP3    H138483   0.029   6.758   1.840  0.0944  0.2712 -0.4306
 5664TIP3    H238484  -0.003   6.664   1.727 -0.2623  0.2941 -0.3494
 5665TIP3   OH238485   3.711   6.486  16.543 -0.1471  0.1305 -0.5458
 5665TIP3    H138486   3.618   6.492  16.565  0.2056  0.1740  0.9984
 5665TIP3    H238487   3.733   6.394  16.554  0.3163  0.3531  0.5673
 5666TIP3   OH238488   0.471   0.649  15.621  0.2042  0.5224 -0.1672
 5666TIP3    H138489   0.460   0.572  15.675  1.9554 -1.5580 -2.5052
 5666TIP3    H238490   0.397   0.647  15.560  0.5205  0.3608 -0.5539
 5667TIP3   OH238491   1.346   0.506  14.236  0.3159  0.3686 -0.0646
 5667TIP3    H138492   1.410   0.492  14.166  1.9165 -0.4664  1.4889
 5667TIP3    H238493   1.341   0.422  14.282 -2.8884  0.0084 -0.8535
 5668TIP3   OH238494   0.310   0.861  15.897  0.1907 -0.2631  0.5802
 5668TIP3    H138495   0.348   0.819  15.975  2.5811 -1.0881 -0.9324
 5668TIP3    H238496   0.377   0.852  15.830 -1.3068  1.5124 -1.2740
 5669TIP3   OH238497   5.062   4.168  16.013  0.1411 -0.1735  0.7335
 5669TIP3    H138498   5.127   4.218  15.963  0.7234 -1.4428  0.1758
 5669TIP3    H238499   5.047   4.089  15.961  0.4043 -1.3037  2.3011
 5670TIP3   OH238500   4.981   3.685   0.729  0.1745 -0.4063  0.0352
 5670TIP3    H138501   4.910   3.711   0.670 -1.3776 -3.2147  0.4439
 5670TIP3    H238502   4.956   3.720   0.814  1.3637  1.9065 -0.4997
 5671TIP3   OH238503   6.748   2.958   5.363 -0.9294 -0.8031  0.4424
 5671TIP3    H138504   6.796   3.033   5.328 -0.3877 -1.2462  0.2090
 5671TIP3    H238505   6.712   2.914   5.286 -1.3147 -0.7359  0.5841
 5672TIP3   OH238506   0.537   4.668  14.121  0.7423  0.1985 -0.2503
 5672TIP3    H138507   0.521   4.677  14.027 -0.8512  0.0534 -0.0287
 5672TIP3    H238508   0.471   4.725  14.161  0.1790 -1.1620  0.8165
 5673TIP3   OH238509   6.498   1.316  13.404 -0.5476 -0.0391  0.4953
 5673TIP3    H138510   6.579   1.335  13.356 -1.2837 -0.5824 -1.0403
 5673TIP3    H238511   6.516   1.344  13.494  0.8286  1.2083 -0.1244
 5674TIP3   OH238512   1.584   5.267  11.152 -0.2596 -0.5494  0.0450
 5674TIP3    H138513   1.595   5.175  11.127  0.3361 -0.5646  0.3560
 5674TIP3    H238514   1.658   5.286  11.209  0.7246  0.6608 -1.5607
 5675TIP3   OH238515   1.848   5.829   4.906 -0.1965  0.0309  0.1160
 5675TIP3    H138516   1.911   5.839   4.835  0.9494  0.1671  1.1017
 5675TIP3    H238517   1.764   5.857   4.870  0.5259  0.9001 -0.9178
 5676TIP3   OH238518   2.831   2.096   0.997 -0.4508 -0.2612  0.1658
 5676TIP3    H138519   2.878   2.177   0.977  0.5957 -1.0573 -0.7567
 5676TIP3    H238520   2.769   2.086   0.925  0.1742 -0.8111 -0.3130
 5677TIP3   OH238521   5.655   3.921  15.679 -0.5411  0.5857  0.3123
 5677TIP3    H138522   5.618   3.879  15.601 -1.0295  1.1533  0.2317
 5677TIP3    H238523   5.588   3.983  15.706  0.9542  2.7561 -0.7038
 5678TIP3   OH238524   4.923   5.720  16.647 -0.2956  0.2943 -0.3898
 5678TIP3    H138525   5.008   5.722  16.691 -0.2129  0.7052 -0.5582
 5678TIP3    H238526   4.859   5.710  16.717 -0.2519  2.1053 -0.0335
 5679TIP3   OH238527   3.081   6.410   5.250 -0.5104 -0.0435  0.0968
 5679TIP3    H138528   3.133   6.465   5.309 -2.2753  1.6190  0.1694
 5679TIP3    H238529   3.138   6.396   5.174  0.7683  0.0688  1.0000
 5680TIP3   OH238530   4.054   0.571  13.347  0.8445  0.2945  0.3119
 5680TIP3    H138531   4.127   0.509  13.341  0.9397  0.5034 -1.7538
 5680TIP3    H238532   4.070   0.632  13.274 -0.2178  1.6738  1.1856
 5681TIP3   OH238533   3.898   5.448   4.532  0.1424  0.3724  0.1209
 5681TIP3    H138534   3.831   5.401   4.581  0.9294  0.0571  0.9175
 5681TIP3    H238535   3.871   5.440   4.441 -0.5964 -0.2380  0.3833
 5682TIP3   OH238536   1.049   0.839  12.172  0.2598  0.1652  0.1837
 5682TIP3    H138537   0.962   0.860  12.139  0.1491  0.4744  0.6677
 5682TIP3    H238538   1.074   0.760  12.125 -0.2431  0.1282 -0.0247
 5683TIP3   OH238539   2.925   2.933  15.852 -0.1430  0.1102 -0.7748
 5683TIP3    H138540   3.008   2.930  15.899 -0.4526  0.6256 -0.1798
 5683TIP3    H238541   2.921   3.022  15.817 -1.1712  0.6405  0.5807
 5684TIP3   OH238542   3.393   1.388   1.580  0.1513  0.3462  0.3569
 5684TIP3    H138543   3.304   1.399   1.547 -0.4727  0.2268  1.9305
 5684TIP3    H238544   3.397   1.297   1.610  0.8513  0.3095  0.1862
 5685TIP3   OH238545   2.494   1.803   1.326  0.3528 -0.0063 -0.0680
 5685TIP3    H138546   2.452   1.718   1.312  0.1094 -0.0237  0.7295
 5685TIP3    H238547   2.551   1.814   1.249 -0.6881 -0.2282 -0.9008
 5686TIP3   OH238548   5.952   2.141   1.767  0.4296 -0.5213 -0.3200
 5686TIP3    H138549   5.905   2.171   1.845 -0.3513  0.1442 -1.0346
 5686TIP3    H238550   5.884   2.112   1.707  1.0807 -2.2958 -0.2699
 5687TIP3   OH238551   1.551   1.561  14.215  0.0513  0.0923  0.0677
 5687TIP3    H138552   1.608   1.513  14.157  0.2708 -0.2079  0.5278
 5687TIP3    H238553   1.473   1.581  14.162 -0.3081 -1.2931  0.0484
 5688TIP3   OH238554   1.647   1.810   4.182 -0.2030 -0.6504  0.2453
 5688TIP3    H138555   1.573   1.819   4.243  1.0829  0.4529  1.7218
 5688TIP3    H238556   1.633   1.879   4.117 -1.8247 -2.1190 -1.0370
 5689TIP3   OH238557   3.740   5.344  16.384  0.5093 -0.0917 -0.0128
 5689TIP3    H138558   3.650   5.329  16.354  0.7468 -1.2381 -0.2010
 5689TIP3    H238559   3.790   5.356  16.304  0.8295 -1.3138 -0.0136
 5690TIP3   OH238560   4.815   5.994   5.562  0.0213 -0.1778 -0.0254
 5690TIP3    H138561   4.730   6.001   5.606 -0.1521 -1.7944 -0.0469
 5690TIP3    H238562   4.796   6.014   5.470 -0.7394 -2.3654 -0.3909
 5691TIP3   OH238563   2.920   5.161   4.871  0.1514  0.4421 -0.4006
 5691TIP3    H138564   2.827   5.139   4.866  0.0929  0.7633 -0.8172
 5691TIP3    H238565   2.930   5.237   4.813  0.5724  0.7450  0.0611
 5692TIP3   OH238566   3.325   0.984   0.496  0.2121  0.1524  0.2921
 5692TIP3    H138567   3.387   1.035   0.548 -0.5523  0.6359  0.7344
 5692TIP3    H238568   3.252   1.043   0.480 -0.0895 -0.3741 -0.3343
 5693TIP3   OH238569   2.468   4.795   4.268  0.5640  0.3950 -0.0988
 5693TIP3    H138570   2.473   4.760   4.179  0.2598 -2.1560  0.8209
 5693TIP3    H238571   2.377   4.823   4.277  0.4973  0.3015 -0.4418
 5694TIP3   OH238572   0.988   4.172  14.466 -0.0532  0.1783 -0.0112
 5694TIP3    H138573   1.072   4.204  14.434  0.1814 -0.5075 -0.0992
 5694TIP3    H238574   0.934   4.163  14.388 -0.0144  0.0719 -0.0270
 5695TIP3   OH238575   1.039   1.222   4.165 -0.0786  0.2537  0.4640
 5695TIP3    H138576   1.049   1.140   4.214  1.4970 -0.1330 -0.4663
 5695TIP3    H238577   1.091   1.210   4.086 -1.8116  1.2316 -0.9049
 5696TIP3   OH238578   2.197   5.627   4.607  0.3759 -0.3083  0.9520
 5696TIP3    H138579   2.226   5.667   4.525  0.5233 -1.0839  0.6146
 5696TIP3    H238580   2.148   5.696   4.652  0.1944  0.0928  0.1576
 5697TIP3   OH238581   5.853   6.627   6.642 -0.0487  0.8453 -1.0179
 5697TIP3    H138582   5.831   6.575   6.719  0.8892  1.1381 -0.5379
 5697TIP3    H238583   5.887   6.710   6.676  1.5238  0.5263 -1.6762
 5698TIP3   OH238584   5.344   5.920  14.415 -0.2646 -0.6562 -0.1321
 5698TIP3    H138585   5.268   5.904  14.471 -1.2092 -3.9955 -2.0727
 5698TIP3    H238586   5.312   5.979  14.347 -0.8094 -1.1173 -0.2830
 5699TIP3   OH238587   1.413   6.501   4.337  0.1118  0.1038  0.2677
 5699TIP3    H138588   1.469   6.423   4.333 -0.3811 -0.2430  0.1085
 5699TIP3    H238589   1.387   6.507   4.428  0.7323  0.4989  0.4246
 5700TIP3   OH238590   5.383   6.142  12.405  0.1020 -0.3397  0.4432
 5700TIP3    H138591   5.297   6.180  12.386 -0.6136 -2.6118 -1.3287
 5700TIP3    H238592   5.375   6.109  12.494 -0.3567  0.7211  0.8155
 5701TIP3   OH238593   3.364   1.612  15.557  0.1913  0.3741  0.3484
 5701TIP3    H138594   3.312   1.686  15.526 -0.8718 -0.7652 -0.6367
 5701TIP3    H238595   3.412   1.582  15.480 -0.1875 -0.6206  0.4890
 5702TIP3   OH238596   6.664   1.929   4.164  1.0327  0.5182 -0.0617
 5702TIP3    H138597   6.656   1.956   4.256 -0.0247  0.2754 -0.0723
 5702TIP3    H238598   6.737   1.981   4.131  1.3868  0.6597  0.8949
 5703TIP3   OH238599   3.409   6.783  16.462  0.5940  0.1229  0.3336
 5703TIP3    H138600   3.346   6.808  16.395  1.0121 -0.8253 -0.4313
 5703TIP3    H238601   3.487   6.834  16.441  0.2975  0.8419  0.9222
 5704TIP3   OH238602   3.502   2.193   3.719  0.2054 -0.0476  0.2482
 5704TIP3    H138603   3.586   2.203   3.674  0.6806  1.6628  1.4073
 5704TIP3    H238604   3.501   2.102   3.748  1.2866 -0.3217 -0.4984
 5705TIP3   OH238605   2.022   1.389  11.584  0.6352  0.3159 -0.4919
 5705TIP3    H138606   1.945   1.411  11.636  0.1874  0.7629 -1.3285
 5705TIP3    H238607   2.010   1.296  11.562  1.4484 -0.2293  1.2184
 5706TIP3   OH238608   4.545   3.496   5.904  0.1005  0.4331 -0.2337
 5706TIP3    H138609   4.466   3.466   5.859  0.1516 -3.2548  1.7303
 5706TIP3    H238610   4.513   3.538   5.984 -0.0610 -2.3478  1.2956
 5707TIP3   OH238611   1.254   1.655  13.796 -0.4687  0.4624 -0.0557
 5707TIP3    H138612   1.178   1.649  13.854 -0.4912 -1.1188 -0.1970
 5707TIP3    H238613   1.265   1.749  13.779 -0.1846  1.0325  2.8369
 5708TIP3   OH238614   2.072   5.998   0.079 -0.0757 -0.5624  0.2795
 5708TIP3    H138615   2.056   5.994  -0.015 -2.4695 -2.2192  0.6498
 5708TIP3    H238616   2.137   5.930   0.095 -0.6938 -1.2471 -0.0526
 5709TIP3   OH238617   0.385   3.585  11.166 -0.1287  0.4294  0.0659
 5709TIP3    H138618   0.394   3.654  11.100 -0.7809  1.0248  0.5962
 5709TIP3    H238619   0.291   3.579  11.182 -0.0527 -0.4080  0.2121
 5710TIP3   OH238620   5.411   1.499   4.504 -0.1245  0.4298  0.0660
 5710TIP3    H138621   5.399   1.506   4.599 -0.8303  0.8194 -0.0379
 5710TIP3    H238622   5.372   1.580   4.470 -0.9100 -0.2298 -0.6325
 5711TIP3   OH238623   3.225   2.960  16.663 -0.5086  0.1449  0.0497
 5711TIP3    H138624   3.215   3.054  16.651  1.2193  0.2017 -1.4053
 5711TIP3    H238625   3.167   2.921  16.598 -1.2399  0.1820  0.6659
 5712TIP3   OH238626   3.687   1.192  12.462 -0.6371  0.3955 -0.0060
 5712TIP3    H138627   3.654   1.167  12.376 -0.5046 -0.3840  0.1628
 5712TIP3    H238628   3.776   1.224  12.445 -0.2458 -0.6619 -0.0609
 5713TIP3   OH238629   1.034   3.965   1.099  1.0383 -0.7237 -0.3324
 5713TIP3    H138630   1.009   3.969   1.191 -1.0777 -3.2191 -0.6686
 5713TIP3    H238631   0.977   4.027   1.055 -1.2057 -2.7208 -0.4278
 5714TIP3   OH238632   5.706   2.442   0.997 -0.0871  0.2271  0.1013
 5714TIP3    H138633   5.716   2.536   1.009 -0.2475  0.3797 -0.8652
 5714TIP3    H238634   5.788   2.405   1.031 -0.4166  0.6181  1.3646
 5715TIP3   OH238635   5.221   6.644   3.514  0.7825 -0.9523  0.4980
 5715TIP3    H138636   5.311   6.658   3.485  0.5343 -0.5796 -0.1171
 5715TIP3    H238637   5.185   6.732   3.525  1.1540 -1.0326  2.9390
 5716TIP3   OH238638   2.246   3.082   0.843  0.0338 -0.3062  0.6124
 5716TIP3    H138639   2.188   3.016   0.805 -0.1954  0.9888 -1.4098
 5716TIP3    H238640   2.329   3.036   0.855  0.0110 -0.8839 -1.1887
 5717TIP3   OH238641   5.732   4.980  13.302  0.1028 -0.5341  0.1550
 5717TIP3    H138642   5.816   4.942  13.327  0.0555 -0.2735  0.7157
 5717TIP3    H238643   5.694   5.012  13.384 -0.2437 -0.0467 -0.1902
 5718TIP3   OH238644   6.133   4.106  16.419 -0.6351  0.1450  0.0844
 5718TIP3    H138645   6.111   4.183  16.472  1.0992 -0.5102  1.8742
 5718TIP3    H238646   6.056   4.049  16.427 -1.3267  1.0249 -0.0342
 5719TIP3   OH238647   3.410   1.315   5.629  0.8786 -0.6790 -0.0010
 5719TIP3    H138648   3.395   1.329   5.535 -0.8154 -1.2121  0.1666
 5719TIP3    H238649   3.416   1.221   5.639  2.4357 -0.5757  0.2640
 5720TIP3   OH238650   0.011   0.239  15.079 -0.0289  0.1260 -0.2754
 5720TIP3    H138651   0.015   0.146  15.101  1.6762  0.3105  0.2996
 5720TIP3    H238652   0.019   0.284  15.163  2.0894  0.7963 -0.7787
 5721TIP3   OH238653   2.028   5.497   2.573 -0.1682 -0.0142  0.0881
 5721TIP3    H138654   2.106   5.505   2.627  0.2680  1.0050 -0.6546
 5721TIP3    H238655   1.964   5.555   2.614 -0.5524 -0.8676  0.7099
 5722TIP3   OH238656   5.896   6.485   3.154  0.5206 -0.8114 -0.3067
 5722TIP3    H138657   5.961   6.457   3.219  0.7516 -0.0953 -0.2167
 5722TIP3    H238658   5.927   6.447   3.071  3.1730  2.4538 -1.0143
 5723TIP3   OH238659   2.636   5.022  12.710 -0.1675 -0.7181 -0.6073
 5723TIP3    H138660   2.586   5.076  12.771 -0.6271 -0.3653 -1.2859
 5723TIP3    H238661   2.676   4.954  12.765  0.6241  0.4467  0.2925
 5724TIP3   OH238662   3.555   6.248  15.936 -0.4777  0.3593  0.1658
 5724TIP3    H138663   3.538   6.162  15.975  0.2899  0.8900  1.7603
 5724TIP3    H238664   3.608   6.294  16.001 -1.2736  2.2239 -0.4221
 5725TIP3   OH238665   4.081   1.287  10.893 -0.0203 -0.2449  0.2741
 5725TIP3    H138666   4.168   1.308  10.861 -0.0335  0.1450  0.4964
 5725TIP3    H238667   4.072   1.337  10.974  0.1173 -1.4149  1.0373
 5726TIP3   OH238668   6.116   3.168   1.354 -0.6528 -0.1108 -0.1988
 5726TIP3    H138669   6.107   3.262   1.369  3.5185  0.4283  0.1514
 5726TIP3    H238670   6.131   3.131   1.441  2.7117 -0.1717 -0.6610
 5727TIP3   OH238671   1.869   6.599  12.269 -0.1170  0.0882  0.2844
 5727TIP3    H138672   1.948   6.612  12.216 -0.1698  0.1490  0.2202
 5727TIP3    H238673   1.799   6.594  12.204 -0.2133  0.3998  0.3628
 5728TIP3   OH238674   5.008   2.161  12.798  0.2500 -0.6440  0.2911
 5728TIP3    H138675   4.980   2.169  12.889 -4.0596  1.9439 -0.9490
 5728TIP3    H238676   4.985   2.072  12.773  0.2858 -0.9731  1.4110
 5729TIP3   OH238677   2.606   4.720   1.286  0.1451  0.2970  0.2808
 5729TIP3    H138678   2.562   4.675   1.213 -0.4801  0.0728  0.7925
 5729TIP3    H238679   2.540   4.725   1.355  1.3226 -1.3139  1.5970
 5730TIP3   OH238680   2.761   0.207   3.788 -0.3490 -0.4154 -0.0645
 5730TIP3    H138681   2.833   0.222   3.849 -2.2075 -1.2510  2.5377
 5730TIP3    H238682   2.798   0.225   3.702  3.2746 -1.8481  0.9817
 5731TIP3   OH238683   4.105   3.705   1.057  0.0657 -0.0290 -0.0437
 5731TIP3    H138684   4.102   3.758   1.137 -2.3531 -0.4420  0.2069
 5731TIP3    H238685   4.116   3.770   0.986  2.1860  0.3389  0.5295
 5732TIP3   OH238686   5.037   1.420   1.335  0.4073  0.6168 -0.3259
 5732TIP3    H138687   5.071   1.487   1.274  0.0806  0.6852 -0.4371
 5732TIP3    H238688   4.966   1.379   1.286  2.1151 -1.4683 -1.2155
 5733TIP3   OH238689   0.427   4.830   1.191 -0.4107  0.1210  0.7352
 5733TIP3    H138690   0.395   4.886   1.261 -0.9996 -0.0507  0.6049
 5733TIP3    H238691   0.505   4.876   1.158  0.4505 -0.2662  2.1216
 5734TIP3   OH238692   1.180   3.630  16.044 -0.1327  0.3734 -0.0293
 5734TIP3    H138693   1.260   3.628  16.097 -0.6976 -0.4766  0.8139
 5734TIP3    H238694   1.164   3.539  16.021 -0.0445  0.7066 -1.4728
 5735TIP3   OH238695   2.594   5.904  12.963  0.4463 -0.4508  0.1513
 5735TIP3    H138696   2.513   5.925  13.008  1.0239 -0.6828  1.3425
 5735TIP3    H238697   2.589   5.809  12.947 -0.1337 -0.2347 -1.0875
 5736TIP3   OH238698   4.740   0.120   1.895  0.1060 -0.0468 -0.6862
 5736TIP3    H138699   4.724   0.213   1.883 -1.6082 -0.1321  0.5593
 5736TIP3    H238700   4.657   0.078   1.869  0.3039 -1.0724  0.2516
 5737TIP3   OH238701   5.556   2.941  12.851 -0.7612 -0.7768  0.1559
 5737TIP3    H138702   5.462   2.953  12.839 -0.7453 -1.5570 -0.9609
 5737TIP3    H238703   5.591   2.934  12.762  0.8919  2.9110  0.3190
 5738TIP3   OH238704   1.187   5.409  16.565  0.6014  0.0006  0.1392
 5738TIP3    H138705   1.141   5.337  16.523  1.1159  0.1776 -0.7486
 5738TIP3    H238706   1.119   5.472  16.586 -0.1692 -1.5110  2.6911
 5739TIP3   OH238707   2.194   3.018   2.223  0.3916 -0.3416 -0.0146
 5739TIP3    H138708   2.193   3.063   2.138 -0.4961 -1.3947 -0.5987
 5739TIP3    H238709   2.284   3.027   2.254  1.7907 -2.9283 -2.7649
 5740TIP3   OH238710   6.237   2.034   2.764  0.0830 -0.2483  0.9280
 5740TIP3    H138711   6.233   2.094   2.838 -0.9444  1.4888 -0.4524
 5740TIP3    H238712   6.306   1.971   2.787  0.7449  1.0644  2.7268
 5741TIP3   OH238713   6.629   1.803   0.200 -0.6607 -0.0428  0.1082
 5741TIP3    H138714   6.625   1.811   0.104 -0.1255 -1.5488 -0.0597
 5741TIP3    H238715   6.565   1.868   0.231 -0.8948  0.4331 -1.2611
 5742TIP3   OH238716   4.686   6.442  14.160  0.2098 -0.3275 -0.2313
 5742TIP3    H138717   4.624   6.455  14.088 -0.2369  0.2854  0.2581
 5742TIP3    H238718   4.702   6.347  14.160 -1.4189 -0.6265  0.1956
 5743TIP3   OH238719   0.527   4.824  11.420 -0.0716  0.0082 -0.5176
 5743TIP3    H138720   0.470   4.900  11.435 -0.7030 -0.9552  3.0590
 5743TIP3    H238721   0.473   4.763  11.371 -0.8583  0.5139 -0.3013
 5744TIP3   OH238722   3.919   5.667  11.970 -0.4204  0.0738 -0.9188
 5744TIP3    H138723   3.986   5.700  11.911 -0.6677  0.9213 -0.7335
 5744TIP3    H238724   3.850   5.635  11.912 -0.0904 -0.3231 -1.0992
 5745TIP3   OH238725   5.213   2.263   4.424  0.3495 -0.4612  0.4617
 5745TIP3    H138726   5.213   2.358   4.438 -0.5806 -0.3924  0.0953
 5745TIP3    H238727   5.226   2.253   4.329 -0.1458 -0.6778  0.4152
 5746TIP3   OH238728   3.448   6.498  15.817  0.8340 -1.1824 -0.2470
 5746TIP3    H138729   3.485   6.423  15.862  2.0031 -0.6972 -0.3463
 5746TIP3    H238730   3.506   6.571  15.840 -1.1286  0.0447  1.0734
 5747TIP3   OH238731   3.240   1.616   1.814 -0.6350 -0.0887 -0.1265
 5747TIP3    H138732   3.192   1.686   1.859 -1.2421 -0.3980 -0.2836
 5747TIP3    H238733   3.221   1.538   1.865  0.9020  0.0182  0.6831
 5748TIP3   OH238734   0.822   4.201  11.919 -0.3949  0.2245 -0.3731
 5748TIP3    H138735   0.914   4.224  11.932 -0.4430  0.2760 -0.1234
 5748TIP3    H238736   0.773   4.266  11.969 -0.5002 -1.2557  1.5943
 5749TIP3   OH238737   5.762   0.727  17.040 -0.5288 -0.0399  0.6727
 5749TIP3    H138738   5.843   0.723  16.989 -0.1582 -1.3494  1.3180
 5749TIP3    H238739   5.706   0.660  17.000 -0.3621 -0.8430  1.7351
 5750TIP3   OH238740   1.961   5.970  11.617  0.4818 -0.2264  0.0051
 5750TIP3    H138741   2.032   5.989  11.678  0.4987 -0.5013  0.0747
 5750TIP3    H238742   2.000   5.911  11.552 -0.0435 -1.5763  0.8667
 5751TIP3   OH238743   5.134   1.143  16.942  0.7418 -0.3315  0.4090
 5751TIP3    H138744   5.095   1.218  16.896  0.0392  1.0314  3.0176
 5751TIP3    H238745   5.220   1.131  16.901  1.3307  2.6264  0.5860
 5752TIP3   OH238746   2.569   1.230  10.975  0.2532 -0.1094 -0.0404
 5752TIP3    H138747   2.501   1.286  11.013  0.5365  0.9525 -1.0219
 5752TIP3    H238748   2.640   1.232  11.040 -0.4836 -0.9200  0.8115
 5753TIP3   OH238749   3.755   4.884   4.941  0.2618 -0.1607  0.2189
 5753TIP3    H138750   3.756   4.862   5.034 -0.0358  1.8583  0.7486
 5753TIP3    H238751   3.721   4.806   4.898 -1.2050 -0.5640  1.9891
 5754TIP3   OH238752   6.394   0.795   3.339  0.5613 -0.1331 -0.0363
 5754TIP3    H138753   6.316   0.754   3.301  1.5242 -2.9742  0.7769
 5754TIP3    H238754   6.360   0.862   3.397 -1.3911 -1.7912  0.8754
 5755TIP3   OH238755   6.249   4.338   1.974 -0.4077  0.4203  0.3552
 5755TIP3    H138756   6.332   4.293   1.953 -0.1568  0.0543  1.9984
 5755TIP3    H238757   6.186   4.267   1.983 -0.3942  0.5082  1.2571
 5756TIP3   OH238758   1.936   2.160   3.766  0.1797  0.2031 -0.3284
 5756TIP3    H138759   1.858   2.115   3.798 -0.1462  1.1084  0.1888
 5756TIP3    H238760   2.006   2.095   3.774  0.3575  0.6260  3.2522
 5757TIP3   OH238761   4.165   1.581   0.244  0.2782 -0.1802 -0.6958
 5757TIP3    H138762   4.160   1.636   0.322  0.0649  0.0475 -0.8706
 5757TIP3    H238763   4.085   1.528   0.247  1.0092 -1.2995  0.0776
 5758TIP3   OH238764   3.301   0.835   4.305 -0.0868  0.5817 -0.2567
 5758TIP3    H138765   3.381   0.869   4.265  0.3832  0.3011  0.4311
 5758TIP3    H238766   3.332   0.777   4.375 -0.8893  0.8335  0.3180
 5759TIP3   OH238767   2.429   0.791   0.670  0.2150 -0.3182  0.4102
 5759TIP3    H138768   2.391   0.707   0.645 -1.7215  0.7323 -0.4307
 5759TIP3    H238769   2.522   0.772   0.685  0.0053 -2.4279 -0.5466
 5760TIP3   OH238770   3.297   6.080   3.244 -0.4880 -0.0719  0.0101
 5760TIP3    H138771   3.298   6.072   3.148 -0.0402 -3.2229  0.1585
 5760TIP3    H238772   3.387   6.063   3.270 -0.4821  1.3834  1.0022
 5761TIP3   OH238773   2.478   3.334   0.239 -0.5622 -0.1914 -0.0358
 5761TIP3    H138774   2.547   3.271   0.219  1.4253  1.8985 -0.1176
 5761TIP3    H238775   2.465   3.381   0.156  0.4061  1.6868  0.8183
 5762TIP3   OH238776   1.029   3.737   2.970 -0.8779 -0.0211 -0.6711
 5762TIP3    H138777   1.074   3.757   2.887 -1.3812 -0.3742 -1.0389
 5762TIP3    H238778   1.011   3.822   3.009  0.1828  0.1216 -0.4756
 5763TIP3   OH238779   5.540   5.744   6.815  0.2575 -0.5986 -0.0351
 5763TIP3    H138780   5.561   5.833   6.842 -0.3431 -1.0177  1.9964
 5763TIP3    H238781   5.464   5.753   6.758  1.1653  0.2878 -1.1524
 5764TIP3   OH238782   4.241   5.386  14.494 -0.2101 -0.3236 -0.0953
 5764TIP3    H138783   4.234   5.471  14.537  1.3470  0.0391 -0.4968
 5764TIP3    H238784   4.316   5.395  14.436 -0.2840 -1.8488 -0.4639
 5765TIP3   OH238785   2.778   6.158   6.570 -0.2824  0.1678  0.0443
 5765TIP3    H138786   2.739   6.072   6.556 -1.9739  0.6795  1.2706
 5765TIP3    H238787   2.871   6.146   6.548 -0.6808 -1.6743 -0.8247
 5766TIP3   OH238788   2.540   1.554   5.219  0.1870 -0.3036  0.2411
 5766TIP3    H138789   2.474   1.616   5.250  1.0609  1.2343 -0.8651
 5766TIP3    H238790   2.489   1.483   5.180 -0.8444  0.7768 -0.4466
 5767TIP3   OH238791   1.761   4.817   3.332  0.4008 -0.1254  0.1455
 5767TIP3    H138792   1.773   4.853   3.245 -1.0702 -2.3901 -1.1072
 5767TIP3    H238793   1.675   4.849   3.360  0.6871  0.2610  0.5931
 5768TIP3   OH238794   6.024   3.163   6.044  0.6089 -0.2324 -0.2585
 5768TIP3    H138795   6.049   3.137   6.133 -0.3631 -2.4888 -0.5733
 5768TIP3    H238796   5.930   3.184   6.052  0.5898 -0.1542 -0.6944
 5769TIP3   OH238797   4.551   5.358   1.860  0.6326 -0.4257  0.7508
 5769TIP3    H138798   4.571   5.293   1.927 -0.0130  1.4237  2.8461
 5769TIP3    H238799   4.635   5.401   1.842  1.0181 -1.6232 -0.4845
 5770TIP3   OH238800   5.958   1.972  12.030  0.1362 -0.0262  0.7517
 5770TIP3    H138801   6.049   1.946  12.023  0.1232 -0.3702  1.7140
 5770TIP3    H238802   5.911   1.891  12.051 -0.5551 -0.0620 -0.7769
 5771TIP3   OH238803   0.174   4.973   2.273 -0.0011  0.0579 -0.0134
 5771TIP3    H138804   0.267   4.983   2.252  0.3794  0.6883  1.8458
 5771TIP3    H238805   0.144   5.061   2.295 -1.3086  0.0289 -1.4415
 5772TIP3   OH238806   0.169   2.622   5.245 -0.0751 -0.0281  0.1178
 5772TIP3    H138807   0.223   2.697   5.224  3.1290 -2.4197 -0.9906
 5772TIP3    H238808   0.223   2.568   5.302 -1.1908 -2.6278 -1.1035
 5773TIP3   OH238809   4.094   1.188  11.266 -0.3781 -0.0924  0.0095
 5773TIP3    H138810   4.089   1.099  11.301  0.5392 -0.6622 -1.2370
 5773TIP3    H238811   4.144   1.237  11.331 -0.9020 -0.4764  0.7117
 5774TIP3   OH238812   3.551   1.700  15.379 -0.0438  0.3290 -0.4704
 5774TIP3    H138813   3.581   1.791  15.378  1.4187 -0.0469  1.8632
 5774TIP3    H238814   3.617   1.653  15.429  0.7999 -2.6660 -3.9365
 5775TIP3   OH238815   1.127   0.598   5.805 -0.1956 -0.3228 -0.1775
 5775TIP3    H138816   1.199   0.548   5.768 -0.3181 -1.8401  1.5256
 5775TIP3    H238817   1.105   0.553   5.887 -0.7627  2.1180  1.1137
 5776TIP3   OH238818   2.735   3.773  17.166  0.1054  0.2411 -0.4110
 5776TIP3    H138819   2.704   3.738  17.249  1.6170 -0.2462 -0.0183
 5776TIP3    H238820   2.764   3.862  17.186  1.7097 -0.3180 -0.0717
 5777TIP3   OH238821   0.143   4.801  13.044 -0.3261  0.7270 -0.0200
 5777TIP3    H138822   0.210   4.742  13.080 -1.1218  0.3029  0.8269
 5777TIP3    H238823   0.117   4.855  13.119 -0.4339  1.3639 -0.5157
 5778TIP3   OH238824   0.145   2.111   4.835  0.6605  0.7777 -0.4886
 5778TIP3    H138825   0.205   2.186   4.832  0.3961  0.9619 -1.6060
 5778TIP3    H238826   0.084   2.132   4.906  1.5271  0.8765  0.2543
 5779TIP3   OH238827   1.379   3.543  15.716  0.2511 -0.1046 -0.2361
 5779TIP3    H138828   1.289   3.511  15.709  0.3910 -0.5523 -0.0316
 5779TIP3    H238829   1.381   3.622  15.661 -0.7784  1.0780  1.3439
 5780TIP3   OH238830   2.760   3.027  12.666 -0.1932  0.5068  0.3531
 5780TIP3    H138831   2.771   3.112  12.709 -1.2367  0.3097  1.0364
 5780TIP3    H238832   2.682   2.989  12.707  0.6259 -1.0736  0.5067
 5781TIP3   OH238833   2.244   1.989   1.316 -0.1959  0.1222  0.0610
 5781TIP3    H138834   2.158   1.958   1.287  0.7265 -0.3710 -2.4271
 5781TIP3    H238835   2.286   1.911   1.354  0.1997 -0.4653 -1.4743
 5782TIP3   OH238836   5.003   4.018  11.353  0.3301  1.1115  0.1262
 5782TIP3    H138837   5.029   4.110  11.349 -0.9244  1.4544 -0.8871
 5782TIP3    H238838   5.082   3.969  11.330  0.8822  1.9468  0.1973
 5783TIP3   OH238839   6.614   4.735   4.256 -0.4738  1.0143  0.2713
 5783TIP3    H138840   6.627   4.791   4.181  0.1538 -1.2302 -1.4128
 5783TIP3    H238841   6.560   4.663   4.224 -1.7541  0.8709  2.4726
 5784TIP3   OH238842   2.166   1.965   2.507  0.2875 -0.5241 -0.0601
 5784TIP3    H138843   2.194   1.889   2.455 -0.9840 -1.9682  1.2533
 5784TIP3    H238844   2.076   1.980   2.481  0.5205  0.5565 -0.2859
 5785TIP3   OH238845   5.146   2.866  14.017  1.1079 -0.3572  0.4011
 5785TIP3    H138846   5.238   2.869  13.991  0.6762 -0.7096 -1.2806
 5785TIP3    H238847   5.101   2.829  13.941 -0.5417  0.5974  0.8713
 5786TIP3   OH238848   3.989   0.922  13.575  0.0121 -0.6259 -0.0462
 5786TIP3    H138849   3.948   0.856  13.631  1.8192 -1.7785  0.0185
 5786TIP3    H238850   3.938   1.001  13.589  0.3804 -0.8448  3.2934
 5787TIP3   OH238851   0.662   2.522  11.166  0.3742 -0.4970 -0.1661
 5787TIP3    H138852   0.618   2.549  11.086 -0.5079 -1.0083  0.1212
 5787TIP3    H238853   0.705   2.601  11.199  0.9480 -0.3424 -1.2555
 5788TIP3   OH238854   3.947   5.657  15.681 -0.2070 -0.2950  0.0844
 5788TIP3    H138855   3.856   5.685  15.679  0.1305  0.9493  0.9962
 5788TIP3    H238856   3.989   5.707  15.611 -0.2039 -0.8589 -0.3271
 5789TIP3   OH238857   6.112   3.028  17.126  0.7040  0.0161 -0.0791
 5789TIP3    H138858   6.125   3.029  17.031 -0.0765  0.8474 -0.1998
 5789TIP3    H238859   6.016   3.024  17.136  0.8040 -0.7589  0.6844
 5790TIP3   OH238860   6.069   1.395  17.140 -0.2869  0.1495 -0.2919
 5790TIP3    H138861   6.161   1.400  17.168 -0.2559 -0.0114 -0.3643
 5790TIP3    H238862   6.021   1.437  17.211 -0.2630 -0.8274  0.3230
 5791TIP3   OH238863   2.356   1.523  15.104 -0.1925  0.0374 -0.0335
 5791TIP3    H138864   2.349   1.601  15.050  0.8562 -0.1742 -0.4953
 5791TIP3    H238865   2.386   1.455  15.043 -0.5918 -0.6002  0.4715
 5792TIP3   OH238866   3.900   4.578  17.133  0.2039  0.5427  0.0176
 5792TIP3    H138867   3.962   4.507  17.145  1.3442  1.3951 -0.6958
 5792TIP3    H238868   3.816   4.534  17.119  0.5780 -0.6188  1.1906
 5793TIP3   OH238869   0.105   0.401   3.176 -0.4429  0.2206  0.0141
 5793TIP3    H138870   0.147   0.318   3.200 -0.1833  0.1347 -0.7027
 5793TIP3    H238871   0.016   0.377   3.152 -0.8037  0.3492  1.1514
 5794TIP3   OH238872   6.022   2.189   2.507  0.4959 -0.4837 -0.5396
 5794TIP3    H138873   6.093   2.248   2.529  0.5518  0.0584 -2.0310
 5794TIP3    H238874   6.002   2.142   2.588  0.5957  1.4117  0.6305
 5795TIP3   OH238875   5.698   3.313   2.178  0.3065 -0.0460  0.5207
 5795TIP3    H138876   5.662   3.277   2.097 -0.2508  0.3822  0.5704
 5795TIP3    H238877   5.729   3.400   2.154  2.7128 -0.9320  0.1289
 5796TIP3   OH238878   0.515   0.358   5.822  0.3765 -0.0938  0.1652
 5796TIP3    H138879   0.433   0.340   5.777  0.7965 -0.1149 -0.6214
 5796TIP3    H238880   0.490   0.391   5.908 -0.4758  1.7442 -0.7455
 5797TIP3   OH238881   3.555   3.480  10.985 -0.3740 -0.7063 -0.1705
 5797TIP3    H138882   3.502   3.462  10.908  0.1319  1.0388 -0.9931
 5797TIP3    H238883   3.566   3.576  10.984 -0.7176 -0.5890  2.3117
 5798TIP3   OH238884   0.331   1.103   2.172 -0.1022  0.3287  0.3793
 5798TIP3    H138885   0.253   1.051   2.153  0.0125  0.0267  0.7228
 5798TIP3    H238886   0.357   1.139   2.087 -0.1592 -0.2104  0.1282
 5799TIP3   OH238887   4.728   4.958   3.026 -0.1143  0.7365  0.4750
 5799TIP3    H138888   4.686   4.878   3.058 -0.6984  0.3691 -1.1432
 5799TIP3    H238889   4.800   4.973   3.088  0.7715 -1.7204  0.1559
 5800TIP3   OH238890   1.904   3.076  10.681  0.0706  0.3433  0.0804
 5800TIP3    H138891   1.891   2.982  10.670 -1.0024  0.5385 -0.4439
 5800TIP3    H238892   1.968   3.099  10.613 -1.1046  0.3023 -1.0713
 5801TIP3   OH238893   2.016   1.692   5.830  0.6894  0.2808  0.3718
 5801TIP3    H138894   2.008   1.623   5.895 -2.1146  0.7480  0.6556
 5801TIP3    H238895   1.954   1.668   5.761  0.6002  1.8606 -0.1417
 5802TIP3   OH238896   4.067   3.250  16.617 -0.0338 -0.1679 -0.4135
 5802TIP3    H138897   4.048   3.159  16.593 -3.2947  0.6593 -1.4263
 5802TIP3    H238898   4.032   3.260  16.705  1.4828 -0.1340  0.2317
 5803TIP3   OH238899   5.179   5.553   0.378 -0.5116  0.4358  0.1822
 5803TIP3    H138900   5.213   5.593   0.458 -0.4932  0.4868  0.1490
 5803TIP3    H238901   5.090   5.527   0.400 -1.3505  2.5227 -0.4374
 5804TIP3   OH238902   2.420   0.451   4.530 -0.2378 -0.3420  0.2575
 5804TIP3    H138903   2.447   0.361   4.512  0.3456  0.1177 -1.3658
 5804TIP3    H238904   2.327   0.454   4.506 -0.1923 -0.4530  0.0675
 5805TIP3   OH238905   3.211   0.512  15.965  0.3925 -1.1803  0.1258
 5805TIP3    H138906   3.175   0.594  15.999 -0.1050 -1.1276 -0.5155
 5805TIP3    H238907   3.180   0.507  15.875 -0.4736 -2.5893  0.4749
 5806TIP3   OH238908   3.497   5.155  12.055 -0.6784 -0.4218  0.6580
 5806TIP3    H138909   3.476   5.074  12.009  0.8092 -0.1538 -0.5981
 5806TIP3    H238910   3.519   5.127  12.144  0.4251 -1.5014  0.0726
 5807TIP3   OH238911   5.848   2.566  15.799  0.5092  0.2719  0.1990
 5807TIP3    H138912   5.913   2.601  15.859 -0.0320 -0.0681  0.9943
 5807TIP3    H238913   5.818   2.485  15.840  1.2283 -0.7741 -1.2657
 5808TIP3   OH238914   5.062   5.378  15.044  0.2162  0.2632 -0.2618
 5808TIP3    H138915   4.988   5.368  14.984  0.2356  1.1520 -0.4359
 5808TIP3    H238916   5.094   5.288  15.057 -0.5357 -0.0650 -0.6291
 5809TIP3   OH238917   1.789   6.371   3.338 -0.3413  0.5315 -0.3065
 5809TIP3    H138918   1.813   6.463   3.336  0.4415  0.3204 -1.1393
 5809TIP3    H238919   1.693   6.371   3.336 -0.3795  1.3162 -3.5208
 5810TIP3   OH238920   6.303   3.533   2.757 -0.3097  0.1579  0.1493
 5810TIP3    H138921   6.217   3.570   2.779  0.0681  1.9085 -1.1590
 5810TIP3    H238922   6.303   3.448   2.801 -1.3500  1.5058  3.0483
 5811TIP3   OH238923   6.725   5.240   6.272 -0.1203 -0.3134  0.1814
 5811TIP3    H138924   6.708   5.240   6.366 -2.0789  0.6926 -0.1111
 5811TIP3    H238925   6.806   5.290   6.262  0.3429 -0.7920  1.3445
 5812TIP3   OH238926   1.360   4.668   2.735 -0.3930 -0.1069 -0.1970
 5812TIP3    H138927   1.403   4.666   2.820  0.4405  0.5192 -0.5891
 5812TIP3    H238928   1.335   4.760   2.722 -1.0407 -0.2989 -0.3842
 5813TIP3   OH238929   3.208   1.826  13.356 -0.3192 -0.1493 -0.0888
 5813TIP3    H138930   3.215   1.835  13.451 -1.2188 -0.5393  0.0258
 5813TIP3    H238931   3.204   1.732  13.340 -3.0108 -0.1086 -0.2307
 5814TIP3   OH238932   3.901   3.446   2.814  0.3196  0.6268  0.6731
 5814TIP3    H138933   3.818   3.475   2.776  0.7120  1.7128  0.6080
 5814TIP3    H238934   3.895   3.471   2.906  0.4243  0.3566  0.7540
 5815TIP3   OH238935   4.317   3.650   2.578  0.6204  0.0707  0.7804
 5815TIP3    H138936   4.392   3.685   2.627  1.2256 -1.9897  1.4307
 5815TIP3    H238937   4.356   3.617   2.497  0.2358  0.0259  0.6147
 5816TIP3   OH238938   3.231   4.530  11.665  0.0505 -0.3480 -0.7486
 5816TIP3    H138939   3.195   4.474  11.597  0.0471 -0.7863 -0.3899
 5816TIP3    H238940   3.159   4.590  11.687 -0.4328 -1.1445 -0.1169
 5817TIP3   OH238941   3.960   1.919   0.584  0.1261  0.2136  0.1277
 5817TIP3    H138942   3.870   1.934   0.554 -0.0683  1.6238  1.3283
 5817TIP3    H238943   3.952   1.847   0.647  0.0665 -0.6240 -0.8197
 5818TIP3   OH238944   0.176   1.372  13.255 -0.1081 -0.0460 -0.2274
 5818TIP3    H138945   0.251   1.332  13.213 -1.7392 -1.6504 -1.7875
 5818TIP3    H238946   0.134   1.424  13.186 -1.3037 -0.4943  0.1320
 5819TIP3   OH238947   4.954   1.046   2.467 -0.2335  0.0435  0.4158
 5819TIP3    H138948   5.045   1.054   2.496  0.3600  0.5639 -1.4165
 5819TIP3    H238949   4.918   1.134   2.480 -0.1123  0.1472  0.0711
 5820TIP3   OH238950   5.197   3.716   6.069  0.3065 -0.2537 -0.0270
 5820TIP3    H138951   5.217   3.770   5.993 -0.9578  1.0651  0.5160
 5820TIP3    H238952   5.225   3.628   6.045  0.5288  0.2604 -1.7495
 5821TIP3   OH238953   3.333   6.421  14.200  0.1512 -0.0760 -0.3963
 5821TIP3    H138954   3.371   6.495  14.248  1.6623 -1.2538  0.3303
 5821TIP3    H238955   3.253   6.399  14.249  1.9640 -1.6339  2.1379
 5822TIP3   OH238956   0.330   5.055  15.968  0.2563  0.3920 -0.7747
 5822TIP3    H138957   0.254   5.110  15.985 -0.6872 -1.2596  0.7050
 5822TIP3    H238958   0.401   5.116  15.950 -1.2192  1.9968 -1.3772
 5823TIP3   OH238959   1.698   0.862   1.832 -0.4927 -0.3864  0.1006
 5823TIP3    H138960   1.762   0.836   1.766 -0.3604  1.2950 -0.4901
 5823TIP3    H238961   1.750   0.903   1.902 -0.7393 -1.0611  0.6907
 5824TIP3   OH238962   5.986   5.011  15.902  0.4068  0.7463  0.6328
 5824TIP3    H138963   6.038   4.932  15.919  0.9009  0.6923 -0.9595
 5824TIP3    H238964   6.049   5.077  15.875 -0.3109  0.5530 -1.7631
 5825TIP3   OH238965   2.230   4.657  13.766  0.4998 -0.2367 -0.0070
 5825TIP3    H138966   2.155   4.675  13.708  0.6484  1.1952  0.2191
 5825TIP3    H238967   2.193   4.605  13.837 -0.1435 -0.1228 -0.2506
 5826TIP3   OH238968   6.476   0.549   5.122 -0.0199  0.3171  0.3268
 5826TIP3    H138969   6.384   0.525   5.111  0.1303 -0.4169  0.6391
 5826TIP3    H238970   6.479   0.594   5.207 -0.2990  1.4497 -0.2512
 5827TIP3   OH238971   3.440   1.828  12.837 -0.0925  0.0103  0.4946
 5827TIP3    H138972   3.348   1.822  12.810 -0.0087 -0.1792  0.2424
 5827TIP3    H238973   3.482   1.753  12.795  0.2816  0.3863  0.1807
 5828TIP3   OH238974   1.903   0.790   2.919 -0.0643  0.3427  0.2681
 5828TIP3    H138975   1.862   0.735   2.985  0.1962  0.7663  0.7915
 5828TIP3    H238976   1.843   0.864   2.907  0.1221  0.5192  0.4000
 5829TIP3   OH238977   2.105   4.206   2.209  0.2613  0.4347  0.2750
 5829TIP3    H138978   2.013   4.199   2.183  0.2179 -0.9587  0.7095
 5829TIP3    H238979   2.140   4.118   2.194  1.4687  0.8943  0.3282
 5830TIP3   OH238980   4.166   2.572   4.403 -0.6994  0.5627 -0.3452
 5830TIP3    H138981   4.255   2.599   4.425 -0.9704  0.7369  0.5894
 5830TIP3    H238982   4.157   2.486   4.443 -0.8310  0.3821 -0.7603
 5831TIP3   OH238983   3.224   1.188   4.688  0.1929 -0.4153 -0.0544
 5831TIP3    H138984   3.249   1.150   4.604 -1.4424 -2.3623  0.2594
 5831TIP3    H238985   3.173   1.266   4.665  2.4478  0.9392 -0.7411
 5832TIP3   OH238986   0.115   0.542   1.975  0.2945  0.0171 -0.2044
 5832TIP3    H138987   0.127   0.498   2.059  0.2837 -0.9989 -0.7175
 5832TIP3    H238988   0.175   0.617   1.977 -0.7271  0.8468  1.2700
 5833TIP3   OH238989   5.543   5.438   4.215 -0.1946  0.4704 -0.3739
 5833TIP3    H138990   5.543   5.356   4.166 -1.1016  0.3578 -0.2036
 5833TIP3    H238991   5.515   5.413   4.303 -0.3804  0.9467 -0.2943
 5834TIP3   OH238992   1.260   3.790   1.340 -0.5827  0.0448  0.2099
 5834TIP3    H138993   1.321   3.742   1.284 -0.4027 -2.0985  2.0899
 5834TIP3    H238994   1.186   3.731   1.352 -1.7257  1.4334  0.2973
 5835TIP3   OH238995   6.260   0.176   4.322  0.0343 -0.2491 -0.3727
 5835TIP3    H138996   6.196   0.246   4.306  0.1360  0.0664  0.5371
 5835TIP3    H238997   6.261   0.166   4.417  2.0546  0.4483 -0.2692
 5836TIP3   OH238998   2.754   6.023  11.610 -1.1075  0.1971  1.2993
 5836TIP3    H138999   2.772   5.939  11.652 -2.9095 -0.2957  1.1677
 5836TIP3    H239000   2.721   6.000  11.523 -0.9248  1.0725  0.9803
 5837TIP3   OH239001   5.085   4.249  14.688 -0.1647 -0.0713  0.1651
 5837TIP3    H139002   5.000   4.227  14.652  0.5318 -1.1675 -0.8934
 5837TIP3    H239003   5.135   4.167  14.684  0.0669 -0.2144  3.3861
 5838TIP3   OH239004   2.944   4.772   3.967 -0.3203 -0.6506 -0.8998
 5838TIP3    H139005   2.852   4.798   3.976 -0.5921 -1.1185 -2.0662
 5838TIP3    H239006   2.975   4.823   3.891  1.2533  1.6929  1.1690
 5839TIP3   OH239007   2.144   4.544   0.173  0.0655  0.8544 -0.0827
 5839TIP3    H139008   2.069   4.518   0.118 -0.6589 -0.7297  1.5421
 5839TIP3    H239009   2.221   4.515   0.124 -0.6041 -1.5155  0.1289
 5840TIP3   OH239010   1.986   0.536   0.989 -0.0942 -0.2574 -0.1673
 5840TIP3    H139011   2.047   0.601   0.952 -0.5064 -0.1555 -0.6858
 5840TIP3    H239012   1.915   0.532   0.925 -2.0139  1.6645  1.6901
 5841TIP3   OH239013   6.715   5.116  13.347 -0.0534  0.3702  0.0097
 5841TIP3    H139014   6.729   5.179  13.418  0.5041  0.0830  0.1627
 5841TIP3    H239015   6.738   5.032  13.386  0.8585  0.2856 -0.6883
 5842TIP3   OH239016   1.398   2.568  14.034 -0.2013 -0.0382  0.1834
 5842TIP3    H139017   1.377   2.561  14.127  2.8487  1.2724  1.0816
 5842TIP3    H239018   1.422   2.479  14.007 -2.2962 -0.6792  0.2204
 5843TIP3   OH239019   4.454   3.166  13.003 -0.8169 -0.7451  0.1543
 5843TIP3    H139020   4.483   3.075  13.002  1.2353 -0.1892  1.5607
 5843TIP3    H239021   4.407   3.175  13.086  1.4246  0.0708  1.4200
 5844TIP3   OH239022   0.448   5.875   2.733  0.1668 -0.0380 -0.0117
 5844TIP3    H139023   0.363   5.863   2.776  0.1764 -0.2642 -0.0589
 5844TIP3    H239024   0.443   5.962   2.694  0.5064  0.5982  1.2737
 5845TIP3   OH239025   2.408   3.658  13.001  0.1448  0.0253 -0.3036
 5845TIP3    H139026   2.321   3.643  12.965  0.6995 -0.9757 -1.2823
 5845TIP3    H239027   2.468   3.620  12.936  1.3323  0.9869  0.1819
 5846TIP3   OH239028   5.821   3.857   0.273 -0.5177  0.3366  0.7977
 5846TIP3    H139029   5.734   3.895   0.285 -0.1229  0.5811  3.4401
 5846TIP3    H239030   5.804   3.765   0.250 -1.4564  0.5933  0.4255
 5847TIP3   OH239031   3.640   1.062  13.831 -0.1259 -0.5948 -0.2204
 5847TIP3    H139032   3.580   0.991  13.809 -0.5375 -0.0511 -0.9165
 5847TIP3    H239033   3.632   1.073  13.925 -0.7051 -0.9035 -0.2280
 5848TIP3   OH239034   2.514   0.387  12.598 -0.0277 -0.2214 -0.1044
 5848TIP3    H139035   2.551   0.303  12.627  0.9375 -0.2838 -1.4417
 5848TIP3    H239036   2.450   0.363  12.531 -0.4327  0.0717  0.1712
 5849TIP3   OH239037   0.846   0.723   0.694 -0.9819  0.1787 -0.2215
 5849TIP3    H139038   0.941   0.730   0.705 -0.8560 -1.0795 -0.4040
 5849TIP3    H239039   0.813   0.706   0.782 -0.8052 -1.4513 -0.4292
 5850TIP3   OH239040   1.181   2.517   1.446  0.0139  0.1607  0.2629
 5850TIP3    H139041   1.259   2.567   1.469  0.4658 -1.4167  2.4960
 5850TIP3    H239042   1.208   2.459   1.375  0.4133  0.7049 -0.0357
 5851TIP3   OH239043   3.499   4.357   4.817 -0.2197 -0.5891 -0.3754
 5851TIP3    H139044   3.433   4.388   4.754 -1.5634 -2.0824  0.2443
 5851TIP3    H239045   3.452   4.349   4.900  0.6205 -2.0841 -0.0049
 5852TIP3   OH239046   3.277   4.891   4.390  0.1228 -0.6627  0.1108
 5852TIP3    H139047   3.227   4.959   4.344  2.5790  1.5118  0.4243
 5852TIP3    H239048   3.342   4.861   4.326  1.9879  0.6245  1.3133
 5853TIP3   OH239049   1.418   2.139  14.524  0.4412  0.0584  0.2464
 5853TIP3    H139050   1.360   2.069  14.551  1.1966 -0.2641  1.0843
 5853TIP3    H239051   1.476   2.154  14.599  0.7319  1.1169 -0.1542
 5854TIP3   OH239052   4.441   5.021   1.427  0.6096  0.6978 -0.7634
 5854TIP3    H139053   4.353   5.052   1.450 -0.2691 -1.4573 -0.9633
 5854TIP3    H239054   4.491   5.028   1.508 -0.5687 -0.6610  0.1285
 5855TIP3   OH239055   1.840   0.721   0.182  0.1515 -0.1031 -0.3509
 5855TIP3    H139056   1.787   0.793   0.219 -0.0022 -0.8337  0.9189
 5855TIP3    H239057   1.926   0.760   0.168  0.1866  0.2488  0.7188
 5856TIP3   OH239058   2.268   4.718  12.674 -0.4841  0.2349 -0.4704
 5856TIP3    H139059   2.222   4.802  12.671  1.4059  1.9739  5.4160
 5856TIP3    H239060   2.231   4.673  12.751  1.2019 -2.6597 -1.1839
 5857TIP3   OH239061   3.220   3.606  13.769 -0.0284 -0.5791 -0.3971
 5857TIP3    H139062   3.166   3.536  13.806 -1.8862  0.6631 -0.6453
 5857TIP3    H239063   3.176   3.687  13.795  2.3061  0.5691  0.2677
 5858TIP3   OH239064   5.970   4.739  11.956 -0.0113 -0.3847 -0.3286
 5858TIP3    H139065   6.043   4.699  12.003 -1.4040  0.1962  2.5798
 5858TIP3    H239066   5.892   4.708  12.002 -1.4091  1.5020 -1.2763
 5859TIP3   OH239067   5.880   1.727   2.756  0.6322  0.0670 -0.0742
 5859TIP3    H139068   5.925   1.709   2.673  1.9954  2.0740  0.1700
 5859TIP3    H239069   5.948   1.722   2.822 -0.3523 -1.0162  0.9024
 5860TIP3   OH239070   4.368   5.914  17.123 -0.1688 -0.0087 -0.2039
 5860TIP3    H139071   4.379   5.826  17.161 -1.2895  0.4729  1.3697
 5860TIP3    H239072   4.273   5.926  17.119 -0.0480  0.7111 -1.4941
 5861TIP3   OH239073   0.312   4.390   1.107  0.6643  0.0931  0.5615
 5861TIP3    H139074   0.223   4.403   1.139 -0.1829 -2.4200 -0.5214
 5861TIP3    H239075   0.353   4.476   1.114 -1.4682  1.0701  2.1620
 5862TIP3   OH239076   5.422   5.103  15.402  0.3143 -0.0033  0.5779
 5862TIP3    H139077   5.358   5.059  15.345 -0.9580  1.6586  0.6397
 5862TIP3    H239078   5.480   5.150  15.342 -0.9155  1.5995  0.5697
 5863TIP3   OH239079   5.915   5.630  13.849  0.3006  0.2826 -0.3446
 5863TIP3    H139080   5.846   5.576  13.811  0.5076 -0.2320  0.0017
 5863TIP3    H239081   5.928   5.701  13.785 -0.9631  0.7391 -0.1303
 5864TIP3   OH239082   3.279   5.044  16.134 -0.4411 -0.1543 -0.4255
 5864TIP3    H139083   3.337   5.044  16.058 -0.2255  1.4343 -0.2902
 5864TIP3    H239084   3.194   5.072  16.099 -0.9142 -1.5209 -0.4461
 5865TIP3   OH239085   2.775   5.946  16.592 -0.1030 -0.4119  0.0907
 5865TIP3    H139086   2.768   5.962  16.498  1.2346 -1.0256 -0.1290
 5865TIP3    H239087   2.699   5.991  16.629 -1.2351 -1.0372 -1.3679
 5866TIP3   OH239088   1.347   3.344  14.248 -0.3289 -0.5936  0.5812
 5866TIP3    H139089   1.353   3.423  14.194 -0.2195 -1.3902 -0.5962
 5866TIP3    H239090   1.287   3.369  14.319 -1.4309  0.1203 -0.5502
 5867TIP3   OH239091   2.215   6.247   2.124 -0.4883  0.4782 -0.9286
 5867TIP3    H139092   2.285   6.197   2.165 -0.3930  0.6814 -0.8429
 5867TIP3    H239093   2.173   6.294   2.196 -0.0379  1.1807 -1.1198
 5868TIP3   OH239094   3.956   1.120   1.410  0.0989  0.8189 -0.3893
 5868TIP3    H139095   3.954   1.025   1.404  1.7522  0.4787  2.6647
 5868TIP3    H239096   4.009   1.148   1.335 -0.5694 -0.5932 -1.4257
 5869TIP3   OH239097   4.601   2.081   3.305  0.3140  0.0852  0.2469
 5869TIP3    H139098   4.577   2.033   3.384  1.6203 -1.0644 -0.0217
 5869TIP3    H239099   4.606   2.014   3.237  1.1369  0.7565 -0.3750
 5870TIP3   OH239100   3.337   3.346  11.203 -0.0232 -0.4714 -0.4307
 5870TIP3    H139101   3.275   3.303  11.144 -0.9844 -3.1302  2.2495
 5870TIP3    H239102   3.421   3.338  11.159 -0.6407 -2.6133 -1.3813
 5871TIP3   OH239103   4.031   4.505  16.843 -0.3263  0.2240 -0.1138
 5871TIP3    H139104   3.995   4.438  16.900  0.9843 -0.2705  0.1648
 5871TIP3    H239105   4.037   4.583  16.898 -2.0106  0.6489 -0.4858
 5872TIP3   OH239106   5.705   3.894  13.989 -0.3989  0.3062  0.1526
 5872TIP3    H139107   5.668   3.963  14.044 -1.1443  1.5841 -1.8173
 5872TIP3    H239108   5.798   3.892  14.012 -0.9139 -0.1555  2.3488
 5873TIP3   OH239109   5.441   4.219  13.501 -0.6105 -0.0821 -0.6109
 5873TIP3    H139110   5.363   4.177  13.537 -1.1103  0.4660 -1.0316
 5873TIP3    H239111   5.459   4.292  13.562 -1.8352  1.2414 -1.7663
 5874TIP3   OH239112   4.185   6.216   5.122 -0.1302 -0.8543  0.3384
 5874TIP3    H139113   4.185   6.301   5.078  1.3936 -0.9831  0.0597
 5874TIP3    H239114   4.092   6.199   5.140 -0.4859  0.7484  0.1946
 5875TIP3   OH239115   6.030   2.316  16.458  0.5000  0.6025  0.3860
 5875TIP3    H139116   6.084   2.246  16.495 -0.7777  0.3469  1.8831
 5875TIP3    H239117   6.014   2.288  16.367  1.0627 -0.4107  0.5810
 5876TIP3   OH239118   6.762   4.337  13.400  0.0779  0.2575 -0.5236
 5876TIP3    H139119   6.796   4.402  13.339 -0.8580 -0.3605 -1.7431
 5876TIP3    H239120   6.697   4.289  13.350  0.6309 -1.5310  0.3806
 5877TIP3   OH239121   6.166   4.730  14.941  0.4013  0.4075 -0.3541
 5877TIP3    H139122   6.152   4.682  15.023 -0.5008 -0.5048 -1.0194
 5877TIP3    H239123   6.078   4.741  14.905  0.9441 -1.5433 -2.4964
 5878TIP3   OH239124   4.606   0.266  14.425 -0.3548  0.1589 -0.0985
 5878TIP3    H139125   4.575   0.268  14.335  2.3952 -0.4813 -1.1586
 5878TIP3    H239126   4.581   0.351  14.461 -0.0978  1.1006 -2.0156
 5879TIP3   OH239127   1.023   3.356  11.407  0.2098 -0.9389  0.5617
 5879TIP3    H139128   1.077   3.282  11.431  0.5730 -0.6359  0.6876
 5879TIP3    H239129   1.008   3.403  11.489  0.2152 -0.7213  0.4393
 5880TIP3   OH239130   1.251   3.865  15.042 -0.2293 -0.7024 -0.2093
 5880TIP3    H139131   1.284   3.943  15.086  0.4026 -1.4443  0.6696
 5880TIP3    H239132   1.168   3.893  15.003  0.5261  0.7055 -0.8949
 5881TIP3   OH239133   5.248   4.237   2.615  0.6856  0.1137  0.0559
 5881TIP3    H139134   5.243   4.181   2.693  0.0336  0.0102 -0.0559
 5881TIP3    H239135   5.239   4.176   2.541 -0.3508  0.3912 -0.0608
 5882TIP3   OH239136   5.468   0.579   2.963  0.2179  0.0699 -0.2584
 5882TIP3    H139137   5.508   0.492   2.958  1.1870  0.5231 -0.8659
 5882TIP3    H239138   5.495   0.622   2.881  0.1468  1.0996  0.2387
 5883TIP3   OH239139   1.322   6.488  13.286 -0.3405 -0.1418  0.0860
 5883TIP3    H139140   1.261   6.447  13.225  2.0651 -0.7758 -2.0807
 5883TIP3    H239141   1.303   6.581  13.280 -0.0354 -0.1795 -1.8341
 5884TIP3   OH239142   2.951   5.886  13.228 -0.4689 -0.0943 -0.1638
 5884TIP3    H139143   2.856   5.881  13.238 -0.4445  0.0534  0.1686
 5884TIP3    H239144   2.986   5.864  13.314 -0.1939 -0.3593 -0.3405
 5885TIP3   OH239145   2.432   3.067   2.333  0.3070  0.3420  0.0524
 5885TIP3    H139146   2.520   3.103   2.321 -0.2271  1.3813 -0.9409
 5885TIP3    H239147   2.403   3.103   2.417  1.1060 -0.6448  0.7777
 5886TIP3   OH239148   2.779   1.017  12.851  0.0819  0.6167 -0.0549
 5886TIP3    H139149   2.735   0.977  12.775  0.0601 -0.8198  0.6939
 5886TIP3    H239150   2.750   1.108  12.849  1.6987  1.1968 -2.9743
 5887TIP3   OH239151   6.549   3.298  13.686 -0.1946  0.1468  0.3154
 5887TIP3    H139152   6.568   3.320  13.777 -1.4018 -0.0284  0.6405
 5887TIP3    H239153   6.459   3.264  13.689  0.2675 -1.2595 -0.7217
 5888TIP3   OH239154   1.640   4.980  14.157  0.2285 -0.2221  0.1436
 5888TIP3    H139155   1.610   5.043  14.091  1.9252  2.5954  1.8503
 5888TIP3    H239156   1.565   4.968  14.215  0.3444  1.6191  0.7252
 5889TIP3   OH239157   4.808   5.021   3.731  0.4434 -0.5076 -1.0150
 5889TIP3    H139158   4.767   5.076   3.798  2.8481 -1.2589  1.2779
 5889TIP3    H239159   4.846   5.082   3.669  0.1555  0.3017 -0.4055
 5890TIP3   OH239160   4.318   5.741  16.457 -0.1679 -0.6061 -0.6690
 5890TIP3    H139161   4.311   5.836  16.467 -0.5296 -0.7930  1.2410
 5890TIP3    H239162   4.408   5.721  16.482 -0.1304 -0.7946 -0.9421
 5891TIP3   OH239163   2.733   4.603   2.631  0.1836  0.2810  0.2157
 5891TIP3    H139164   2.760   4.516   2.600 -0.3139 -0.0341  0.6555
 5891TIP3    H239165   2.638   4.597   2.640  0.2021  0.7136  0.7391
 5892TIP3   OH239166   1.193   4.789  14.393 -0.1948 -0.1679  0.6746
 5892TIP3    H139167   1.099   4.782  14.409 -0.0264 -1.6078  1.1463
 5892TIP3    H239168   1.206   4.750  14.307 -0.0374  0.1454  0.5548
 5893TIP3   OH239169   6.667   2.479   3.535  0.3192 -0.3489  0.6174
 5893TIP3    H139170   6.611   2.551   3.506 -0.0901 -0.6448  0.6661
 5893TIP3    H239171   6.752   2.520   3.552 -0.1360  0.2649  1.4342
 5894TIP3   OH239172   4.125   1.045   4.547  0.0445 -0.0953  0.3294
 5894TIP3    H139173   4.216   1.023   4.567  0.3734 -0.5486 -1.4727
 5894TIP3    H239174   4.113   1.017   4.456 -1.4386  1.3944  0.0153
 5895TIP3   OH239175   5.140   2.370  15.515  0.5016 -0.3587 -0.3947
 5895TIP3    H139176   5.063   2.386  15.461 -1.7370  1.9494  3.1100
 5895TIP3    H239177   5.194   2.448  15.505  0.2547 -0.0812  0.3385
 5896TIP3   OH239178   0.174   5.307   5.867  0.4752  0.5057 -1.3609
 5896TIP3    H139179   0.219   5.381   5.908  0.8208 -0.5018  0.1266
 5896TIP3    H239180   0.185   5.234   5.928 -1.5452 -0.2873 -1.8553
 5897TIP3   OH239181   5.249   4.299   0.183  0.1728 -0.3820  0.3359
 5897TIP3    H139182   5.274   4.348   0.261 -0.7833 -3.4116  2.7804
 5897TIP3    H239183   5.161   4.265   0.203  0.3300 -2.1338 -1.5741
 5898TIP3   OH239184   1.427   5.651  11.526 -0.4678 -0.3196 -0.0958
 5898TIP3    H139185   1.488   5.583  11.501 -1.2629 -1.4722  0.9656
 5898TIP3    H239186   1.352   5.604  11.563  0.4117  1.0916  4.0278
 5899TIP3   OH239187   6.281   5.333   0.246 -0.7768 -0.1292  0.3995
 5899TIP3    H139188   6.192   5.304   0.224  0.0394 -1.6320 -1.2101
 5899TIP3    H239189   6.335   5.298   0.175  0.9488  1.8116  0.6658
 5900TIP3   OH239190   4.201   4.079  11.011  0.6872 -0.0486  0.4550
 5900TIP3    H139191   4.277   4.105  10.958 -1.1490  0.9078 -1.9199
 5900TIP3    H239192   4.197   3.984  11.000  0.4327  0.1048 -1.1527
 5901TIP3   OH239193   4.387   2.161   0.680  0.3059 -0.4824 -0.3101
 5901TIP3    H139194   4.404   2.251   0.653 -0.0669 -0.2203  0.2938
 5901TIP3    H239195   4.365   2.168   0.773 -3.0205 -0.7436 -0.9449
 5902TIP3   OH239196   5.128   4.283   2.985 -0.3313  0.2216 -0.4321
 5902TIP3    H139197   5.195   4.344   3.016 -1.7854  2.1605 -0.8945
 5902TIP3    H239198   5.108   4.312   2.896  1.2973 -3.1064 -2.0657
 5903TIP3   OH239199   1.933   6.451  15.646  0.3415 -0.5181  0.2380
 5903TIP3    H139200   1.903   6.492  15.564 -0.9486 -2.9463 -0.6278
 5903TIP3    H239201   1.855   6.448  15.701  1.2147  1.1398  1.6404
 5904TIP3   OH239202   3.899   1.751   3.137 -0.0539 -0.2685 -0.4577
 5904TIP3    H139203   3.825   1.690   3.140  0.0636 -0.4105 -0.4380
 5904TIP3    H239204   3.883   1.805   3.059  0.4049 -1.0427 -1.1030
 5905TIP3   OH239205   2.609   2.102   1.736  0.1539  0.0558 -0.3939
 5905TIP3    H139206   2.554   2.174   1.766  0.6294  0.8891 -1.4821
 5905TIP3    H239207   2.548   2.030   1.722 -0.4306  0.4639 -0.0068
 5906TIP3   OH239208   6.236   4.600  12.064 -0.0159 -0.3706 -0.4659
 5906TIP3    H139209   6.285   4.668  12.017  0.0005  0.0516  0.1481
 5906TIP3    H239210   6.288   4.583  12.143 -0.4494 -0.4964 -0.2058
 5907TIP3   OH239211   0.055   1.024  16.377  0.0235  0.5745 -0.1026
 5907TIP3    H139212   0.128   1.078  16.350 -0.9273  2.7465  1.3688
 5907TIP3    H239213   0.091   0.935  16.382  1.8255  1.1288 -1.9163
 5908TIP3   OH239214   5.650   2.019   0.608  0.5936  0.5660  0.1665
 5908TIP3    H139215   5.679   2.096   0.656  0.9120  0.7041 -0.2456
 5908TIP3    H239216   5.731   1.976   0.580  0.4223 -0.0823  0.6593
 5909TIP3   OH239217   3.929   3.115   0.146 -0.0812  0.3611 -0.2332
 5909TIP3    H139218   3.970   3.104   0.232  1.3609  0.0070 -0.9381
 5909TIP3    H239219   3.845   3.071   0.153  1.0190 -1.7517  0.2927
 5910TIP3   OH239220   0.216   3.606   5.434  0.4059  0.1243 -0.3199
 5910TIP3    H139221   0.162   3.674   5.475 -1.4918  0.1124 -2.6070
 5910TIP3    H239222   0.206   3.530   5.492 -1.4056  0.3771 -0.2464
 5911TIP3   OH239223   5.933   0.600  12.353  0.1439 -0.4119 -0.7117
 5911TIP3    H139224   5.891   0.668  12.405  0.4530 -0.2766 -0.6378
 5911TIP3    H239225   5.949   0.641  12.268  1.9704  0.2041 -0.1104
 5912TIP3   OH239226   0.567   0.056   5.078  0.1063 -0.5243  0.0837
 5912TIP3    H139227   0.630   0.035   5.147 -0.6780  0.1299  1.0049
 5912TIP3    H239228   0.619   0.103   5.012  0.9043 -1.3586  0.0957
 5913TIP3   OH239229   6.612   4.360   2.558  0.1609 -0.0737  0.1950
 5913TIP3    H139230   6.561   4.441   2.557  1.9992  1.1569  1.0680
 5913TIP3    H239231   6.617   4.334   2.466  2.3081  2.6967 -0.6038
 5914TIP3   OH239232   2.332   2.745   5.474  0.2238  0.2432 -0.2089
 5914TIP3    H139233   2.345   2.838   5.456 -1.8017  0.4500 -0.9133
 5914TIP3    H239234   2.396   2.701   5.418  1.2625  1.2022  0.1899
 5915TIP3   OH239235   6.333   6.508   3.094  0.4410  0.6669 -0.0243
 5915TIP3    H139236   6.308   6.425   3.134  0.7120  0.9008  0.6599
 5915TIP3    H239237   6.329   6.571   3.167 -1.5806  1.6390 -0.8880
 5916TIP3   OH239238   5.922   3.927  11.103 -0.1059 -0.2678 -0.0019
 5916TIP3    H139239   6.002   3.886  11.069  0.2019  1.1755 -1.0900
 5916TIP3    H239240   5.855   3.904  11.039 -0.0532  0.4417 -0.3155
 5917TIP3   OH239241   5.860   1.469  14.679 -0.1439 -0.2924  0.6072
 5917TIP3    H139242   5.828   1.559  14.685 -1.1365 -0.6422  0.6819
 5917TIP3    H239243   5.860   1.438  14.770 -0.9435 -0.7436  0.4656
 5918TIP3   OH239244   1.149   6.494  14.299 -0.2198 -0.1989  0.2634
 5918TIP3    H139245   1.102   6.443  14.233  1.5159 -0.4190 -0.8902
 5918TIP3    H239246   1.147   6.441  14.378  2.2453 -2.5844 -1.1090
 5919TIP3   OH239247   6.062   5.134   0.542  0.1250 -0.0852  0.8212
 5919TIP3    H139248   6.070   5.064   0.477 -3.8555 -0.6521  0.6740
 5919TIP3    H239249   6.105   5.100   0.620  1.2014 -1.2469 -0.2445
 5920TIP3   OH239250   4.073   4.670  11.310 -0.2168  0.6042 -0.7068
 5920TIP3    H139251   4.081   4.698  11.218  1.1151 -1.2304 -1.1983
 5920TIP3    H239252   3.980   4.653  11.322 -0.4412  1.1072 -1.6332
 5921TIP3   OH239253   3.755   2.884   2.244  0.0931 -0.1161 -0.2634
 5921TIP3    H139254   3.672   2.839   2.225  0.6037 -1.2699  0.1603
 5921TIP3    H239255   3.740   2.927   2.328 -0.1939  0.0182 -0.3786
 5922TIP3   OH239256   6.606   5.915   3.954  0.0091 -0.2790 -0.0736
 5922TIP3    H139257   6.585   6.003   3.924  0.3518 -0.7218 -1.6847
 5922TIP3    H239258   6.555   5.904   4.034 -0.0520  1.3636  0.1467
 5923TIP3   OH239259   4.900   2.263   4.239 -0.1772 -0.1821  0.6755
 5923TIP3    H139260   4.934   2.329   4.299  2.1394  0.6039 -1.3415
 5923TIP3    H239261   4.974   2.203   4.225 -0.6451 -0.3913 -1.2425
 5924TIP3   OH239262   3.724   0.138   0.975 -0.6203  0.5248 -0.0083
 5924TIP3    H139263   3.792   0.172   0.916 -1.5284  0.9335 -0.8457
 5924TIP3    H239264   3.643   0.178   0.943 -1.0424  1.4137  2.0256
 5925TIP3   OH239265   3.952   6.725   0.439  0.3176 -0.3889  0.2429
 5925TIP3    H139266   3.999   6.778   0.504 -0.5922 -0.3238  0.8651
 5925TIP3    H239267   3.908   6.789   0.383  1.5677 -0.4197 -0.8478
 5926TIP3   OH239268   4.173   0.799  13.191 -0.4481 -0.1248  0.6084
 5926TIP3    H139269   4.233   0.775  13.262 -0.4691 -0.6875  0.4417
 5926TIP3    H239270   4.163   0.893  13.200  1.4201  0.1900 -0.0934
 5927TIP3   OH239271   4.889   1.070  16.359  0.3823  0.0029  0.6171
 5927TIP3    H139272   4.924   0.988  16.322 -1.5687 -0.0359 -1.2863
 5927TIP3    H239273   4.859   1.120  16.284 -0.9018  1.3279  1.9427
 5928TIP3   OH239274   4.862   5.298  11.716  0.0097  0.0891  0.5276
 5928TIP3    H139275   4.774   5.323  11.746 -0.7746 -1.2216 -0.5951
 5928TIP3    H239276   4.885   5.222  11.770  0.7640  0.8435  1.2932
 5929TIP3   OH239277   6.796   6.267   5.079 -0.6832 -0.1394 -0.3911
 5929TIP3    H139278   6.811   6.173   5.095 -0.2102  0.1829  1.1431
 5929TIP3    H239279   6.846   6.285   4.999  1.0567 -0.7470  0.5049
 5930TIP3   OH239280   2.831   4.515  11.055  0.1380  0.4815  0.4245
 5930TIP3    H139281   2.906   4.457  11.048 -0.9342 -1.1506  1.5843
 5930TIP3    H239282   2.769   4.481  10.990 -0.3412  0.5656  0.8315
 5931TIP3   OH239283   2.524   5.442  16.805  0.2733  0.0482 -0.3996
 5931TIP3    H139284   2.513   5.375  16.872  3.4716  0.6078  0.8473
 5931TIP3    H239285   2.521   5.525  16.853  4.7842  0.4120 -0.3335
 5932TIP3   OH239286   5.693   0.461  16.934 -0.2004  0.1739 -0.3249
 5932TIP3    H139287   5.780   0.422  16.920 -0.2108 -0.2808  0.7871
 5932TIP3    H239288   5.632   0.389  16.917 -0.4145  0.6361 -1.6583
 5933TIP3   OH239289   6.524   1.033  15.035 -0.2808 -0.4473  0.4053
 5933TIP3    H139290   6.455   1.096  15.059  0.3837 -0.0462  1.3124
 5933TIP3    H239291   6.504   0.955  15.086 -0.4823 -0.5916  0.1071
 5934TIP3   OH239292   4.674   3.916  16.537 -0.3444  0.4744 -0.0922
 5934TIP3    H139293   4.701   3.893  16.448 -0.7522 -0.0366 -0.0886
 5934TIP3    H239294   4.678   4.012  16.540  2.0503  0.4106  0.1101
 5935TIP3   OH239295   3.244   0.174   1.151  0.2775  0.0101 -0.3196
 5935TIP3    H139296   3.301   0.135   1.085  0.6779 -0.3319  0.2270
 5935TIP3    H239297   3.297   0.177   1.231  0.4334  2.0985 -0.4496
 5936TIP3   OH239298   1.011   0.179   3.526  0.6075 -0.1536 -0.1129
 5936TIP3    H139299   1.022   0.130   3.445 -0.7777  0.2583 -0.5938
 5936TIP3    H239300   1.065   0.258   3.514 -0.5881  0.5462 -1.2350
 5937TIP3   OH239301   2.412   1.772  14.955 -0.1793 -0.5046 -0.3515
 5937TIP3    H139302   2.496   1.811  14.978 -0.2705 -0.6417  0.2274
 5937TIP3    H239303   2.411   1.774  14.859 -0.3242  1.2105 -0.3548
 5938TIP3   OH239304   6.151   2.185  10.783 -0.0103 -0.0905 -0.4969
 5938TIP3    H139305   6.142   2.102  10.736  0.4106  0.3971 -1.4645
 5938TIP3    H239306   6.202   2.164  10.861  1.3100 -0.5114 -1.4353
 5939TIP3   OH239307   3.376   3.469   0.073 -0.1263 -0.2749  0.7094
 5939TIP3    H139308   3.369   3.525   0.150  2.4353  1.0207  0.1325
 5939TIP3    H239309   3.444   3.405   0.095  1.1597  0.5522 -0.6271
 5940TIP3   OH239310   2.968   0.252  12.767 -0.7833  0.4306 -0.2298
 5940TIP3    H139311   3.008   0.253  12.854 -0.4292  0.7208 -0.3925
 5940TIP3    H239312   2.877   0.277  12.782 -0.5053  1.3597 -0.0465
 5941TIP3   OH239313   2.911   0.322  15.701  0.4365  0.2302  0.0203
 5941TIP3    H139314   2.868   0.374  15.769  0.3591  0.1053  0.0667
 5941TIP3    H239315   2.914   0.234  15.736 -0.8798 -0.1311 -0.7268
 5942TIP3   OH239316   5.750   2.096  12.667 -0.3793  0.1921  0.3354
 5942TIP3    H139317   5.800   2.158  12.613  0.6676  0.2230  1.3032
 5942TIP3    H239318   5.744   2.017  12.613  1.2890 -0.0382  0.4237
 5943TIP3   OH239319   0.390   2.567  14.664  0.1306  0.6880  0.5175
 5943TIP3    H139320   0.377   2.504  14.736  0.6463  0.0139  0.0301
 5943TIP3    H239321   0.304   2.573  14.622  0.5775 -1.5461 -0.9078
 5944TIP3   OH239322   2.056   0.877  15.858 -0.0883 -0.1928 -0.1302
 5944TIP3    H139323   2.111   0.820  15.805  1.4686 -1.5451  2.7026
 5944TIP3    H239324   2.053   0.959  15.809  0.6381 -1.5131 -2.5817
 5945TIP3   OH239325   3.406   6.093   0.415 -0.5438  0.1330 -0.0205
 5945TIP3    H139326   3.458   6.150   0.358 -1.2844  0.9725  0.1260
 5945TIP3    H239327   3.390   6.015   0.362  1.0729 -0.2627  0.0269
 5946TIP3   OH239328   4.708   1.137  15.656  0.0573 -0.1386  0.3028
 5946TIP3    H139329   4.703   1.200  15.584  1.9026  0.1348  0.3647
 5946TIP3    H239330   4.702   1.051  15.614 -3.4078 -0.0456  0.2921
 5947TIP3   OH239331   6.814   2.417  14.239 -0.8757 -0.0739  0.5193
 5947TIP3    H139332   6.783   2.357  14.170  0.8804 -1.5479  0.9466
 5947TIP3    H239333   6.835   2.360  14.312  1.3170  1.0033  0.7927
 5948TIP3   OH239334   5.675   5.238   5.038  0.1177 -0.2566  0.0234
 5948TIP3    H139335   5.729   5.298   4.987  1.8530 -0.2271  1.7451
 5948TIP3    H239336   5.737   5.170   5.067 -1.2059 -1.3125  0.4648
 5949TIP3   OH239337   1.478   1.803  13.633  0.5580  0.3389  0.3934
 5949TIP3    H139338   1.400   1.808  13.578 -1.0070  0.4923  2.5143
 5949TIP3    H239339   1.501   1.710  13.635  2.5756  0.6132 -2.9431
 5950TIP3   OH239340   4.642   2.109   0.424 -0.6863 -0.7463 -0.3453
 5950TIP3    H139341   4.553   2.074   0.429 -0.4890 -1.2489 -0.2229
 5950TIP3    H239342   4.665   2.103   0.332 -1.4242  1.0639 -0.6795
 5951TIP3   OH239343   0.930   2.959  14.831  0.2684 -0.1636  0.7080
 5951TIP3    H139344   0.890   2.944  14.917 -0.5324 -1.4346  0.1536
 5951TIP3    H239345   1.014   2.914  14.836 -0.5763 -1.8992  0.2575
 5952TIP3   OH239346   0.205   2.918  13.130 -1.0111  0.0397 -0.3053
 5952TIP3    H139347   0.281   2.960  13.089 -0.8154 -0.5694 -0.5843
 5952TIP3    H239348   0.180   2.977  13.201 -1.0567  0.8692 -0.9978
 5953TIP3   OH239349   3.854   5.375   3.673 -0.0675  0.0859  0.6099
 5953TIP3    H139350   3.900   5.293   3.690  1.8799  0.7817 -0.9173
 5953TIP3    H239351   3.810   5.395   3.755  1.6906 -1.0963  1.9263
 5954TIP3   OH239352   2.821   4.882   4.948 -0.1964  0.7262  0.1593
 5954TIP3    H139353   2.826   4.794   4.912 -3.0765 -0.2092  1.7551
 5954TIP3    H239354   2.798   4.938   4.874  0.9533  0.0678 -0.7304
 5955TIP3   OH239355   4.531   3.105  14.720  0.5142  0.0556  0.0410
 5955TIP3    H139356   4.560   3.189  14.685  2.7497 -0.5207  0.3360
 5955TIP3    H239357   4.611   3.052  14.727 -0.7847 -2.0543  0.0298
 5956TIP3   OH239358   2.421   1.028   3.195  0.1742 -0.3386 -0.0662
 5956TIP3    H139359   2.431   1.114   3.154  1.4980 -0.3991  0.0889
 5956TIP3    H239360   2.408   0.968   3.121  2.0622 -0.3794 -0.3975
 5957TIP3   OH239361   5.088   2.134   4.792 -0.2871 -0.2437 -0.1134
 5957TIP3    H139362   5.077   2.227   4.812 -0.8053 -0.3377  0.0533
 5957TIP3    H239363   5.176   2.113   4.824 -0.2456  0.1413  0.0302
 5958TIP3   OH239364   6.794   2.012   1.415 -0.1088 -0.3326 -0.6913
 5958TIP3    H139365   6.868   2.050   1.368  1.9657 -1.7363  1.2435
 5958TIP3    H239366   6.758   2.085   1.465  1.6386 -0.1166  0.3234
 5959TIP3   OH239367   4.365   2.610   6.480 -0.2934 -0.1778  0.5042
 5959TIP3    H139368   4.383   2.534   6.535 -1.2844 -1.1802 -0.5224
 5959TIP3    H239369   4.270   2.616   6.477 -0.3321 -1.0821 -2.2844
 5960TIP3   OH239370   4.296   0.323  14.787  0.0342 -0.1807  0.0678
 5960TIP3    H139371   4.270   0.234  14.813  1.4660 -1.0694 -1.3415
 5960TIP3    H239372   4.215   0.366  14.762 -0.6970 -1.0698  0.8419
 5961TIP3   OH239373   1.016   0.961  16.008 -0.1008 -0.3714  0.2063
 5961TIP3    H139374   1.093   0.998  15.966  0.9383 -2.0662  0.5114
 5961TIP3    H239375   0.942   0.992  15.956  0.6687  2.0058  0.4236
 5962TIP3   OH239376   1.796   0.292   1.985 -0.3892 -0.7809  0.5306
 5962TIP3    H139377   1.706   0.261   1.992  0.3032 -2.8971  0.7935
 5962TIP3    H239378   1.823   0.309   2.076 -0.9290  1.2251  0.3523
 5963TIP3   OH239379   0.167   6.232   3.450  0.1725 -0.7423  0.0149
 5963TIP3    H139380   0.136   6.288   3.378  0.5491 -0.4588  0.0700
 5963TIP3    H239381   0.158   6.286   3.528 -0.3334 -1.0876  0.2031
 5964TIP3   OH239382   6.724   1.611  16.084  0.6242 -0.3483 -0.1139
 5964TIP3    H139383   6.762   1.598  15.997 -0.4006 -1.5098 -0.4195
 5964TIP3    H239384   6.788   1.573  16.145  1.5550  0.8707 -0.3007
 5965TIP3   OH239385   1.378   5.039   3.157  0.0484  0.7146 -0.0806
 5965TIP3    H139386   1.283   5.050   3.171 -0.1418 -0.5905 -0.2236
 5965TIP3    H239387   1.407   4.988   3.232  0.2012 -0.8783 -1.1830
 5966TIP3   OH239388   6.718   2.895   0.277  0.2479 -0.3413  0.2842
 5966TIP3    H139389   6.692   2.807   0.251  1.1903 -0.6205  0.2772
 5966TIP3    H239390   6.812   2.899   0.261  0.4228  0.2949  1.3236
 5967TIP3   OH239391   5.056   2.173   3.371  0.4265  0.3389  0.4317
 5967TIP3    H139392   5.091   2.085   3.381 -1.4186 -0.7025 -1.4397
 5967TIP3    H239393   4.995   2.183   3.444  1.1069  0.3128  1.0052
 5968TIP3   OH239394   3.354   5.466  11.683  0.0753  0.0119 -0.0671
 5968TIP3    H139395   3.384   5.414  11.758  0.6883 -0.5311 -0.6908
 5968TIP3    H239396   3.413   5.541  11.681 -0.3059  0.3276  0.3426
 5969TIP3   OH239397   2.034   3.860  10.981  0.2409 -0.1700  0.2788
 5969TIP3    H139398   1.967   3.796  10.957  0.3009 -0.2355  0.2847
 5969TIP3    H239399   2.107   3.841  10.921 -0.3427  0.9361 -0.8323
 5970TIP3   OH239400   5.817   6.218  13.313  0.3025  0.5186 -0.0489
 5970TIP3    H139401   5.841   6.174  13.231 -1.1998  0.3323 -0.4226
 5970TIP3    H239402   5.725   6.241  13.301  0.3739  1.5083  1.1540
 5971TIP3   OH239403   0.799   6.431  16.233 -0.3306  0.4523 -0.3521
 5971TIP3    H139404   0.784   6.491  16.307  0.3911  0.8464 -0.5136
 5971TIP3    H239405   0.712   6.405  16.205 -0.6127 -0.4564  1.2460
 5972TIP3   OH239406   1.234   6.525   0.127 -0.2708 -0.0354 -0.6307
 5972TIP3    H139407   1.188   6.609   0.124 -0.2646 -0.0356 -0.7483
 5972TIP3    H239408   1.201   6.482   0.206  0.9192  0.7600  0.3230
 5973TIP3   OH239409   0.419   1.821  13.926 -0.2626  0.4640  0.1787
 5973TIP3    H139410   0.381   1.782  13.847  0.3556  1.8871 -0.8622
 5973TIP3    H239411   0.483   1.884  13.893  0.1158  0.9802  1.8302
 5974TIP3   OH239412   4.081   2.357  11.154  0.1919  0.6339 -0.1319
 5974TIP3    H139413   4.040   2.416  11.090 -0.6990  0.9530  0.6987
 5974TIP3    H239414   4.039   2.273  11.140  3.3984 -0.7214 -3.2267
 5975TIP3   OH239415   1.724   5.788   3.602 -0.1003  0.1488 -0.0236
 5975TIP3    H139416   1.709   5.698   3.574  1.9935  0.1249 -1.2582
 5975TIP3    H239417   1.774   5.780   3.683 -0.5298  0.2129  0.2509
 5976TIP3   OH239418   3.756   4.082  14.187  0.0016 -0.3826  0.0155
 5976TIP3    H139419   3.812   4.048  14.257 -0.4339 -2.4293 -0.5799
 5976TIP3    H239420   3.803   4.158  14.153  1.0685 -0.4200  1.3324
 5977TIP3   OH239421   5.263   2.405  16.151 -0.2322 -0.0031 -0.7107
 5977TIP3    H139422   5.198   2.340  16.122 -1.2054  1.1791 -1.2629
 5977TIP3    H239423   5.266   2.394  16.246 -0.9504 -0.3565 -0.7185
 5978TIP3   OH239424   4.929   2.499  11.005  0.5379 -0.5816 -0.2479
 5978TIP3    H139425   4.843   2.458  10.993 -0.2130  1.2318 -1.5704
 5978TIP3    H239426   4.968   2.454  11.080 -1.8602 -0.9864  0.8308
 5979TIP3   OH239427   1.472   5.574  16.300  0.2851  0.1158 -1.0535
 5979TIP3    H139428   1.388   5.586  16.345  0.7238 -0.4157 -0.0584
 5979TIP3    H239429   1.511   5.661  16.300  0.3999  0.0742 -0.1381
 5980TIP3   OH239430   0.989   0.030  11.787  0.0375  0.1794 -0.5368
 5980TIP3    H139431   0.988   0.089  11.862  0.1076 -1.7076  1.0146
 5980TIP3    H239432   0.898   0.026  11.758 -0.0478  0.6310 -0.3514
 5981TIP3   OH239433   6.553   5.982  15.760 -0.6153 -0.2275 -0.2823
 5981TIP3    H139434   6.540   6.037  15.683 -0.9826 -1.2622 -0.9719
 5981TIP3    H239435   6.582   5.898  15.725 -1.9923 -1.1059  0.6297
 5982TIP3   OH239436   0.742   1.903  14.265 -0.1454 -0.0771  0.5033
 5982TIP3    H139437   0.809   1.953  14.219  0.8639  0.3556  2.3629
 5982TIP3    H239438   0.790   1.833  14.308 -1.3416 -1.7359 -0.7378
 5983TIP3   OH239439   3.555   6.710  12.526 -0.7222 -0.2832  0.0270
 5983TIP3    H139440   3.646   6.706  12.496 -0.6950 -2.1793  0.2474
 5983TIP3    H239441   3.523   6.794  12.493  0.5190 -0.4346 -1.7298
 5984TIP3   OH239442   0.079   4.248   1.301  0.2417 -0.3558  0.1155
 5984TIP3    H139443   0.126   4.229   1.220  1.0021  1.6577  0.0369
 5984TIP3    H239444  -0.011   4.267   1.272  0.2588 -0.6584 -0.1383
 5985TIP3   OH239445   5.505   4.923  12.504  0.1904 -0.3712 -0.2347
 5985TIP3    H139446   5.421   4.892  12.539 -0.9586  1.0512 -1.5781
 5985TIP3    H239447   5.569   4.857  12.532 -1.3355 -1.3939  0.9849
 5986TIP3   OH239448   5.345   5.992  16.995  0.0482 -0.5531 -0.2151
 5986TIP3    H139449   5.407   6.007  16.924 -0.8931 -0.3457 -1.0246
 5986TIP3    H239450   5.360   5.901  17.021  0.1246 -0.7686 -0.9742
 5987TIP3   OH239451   6.075   5.495  14.756 -0.1932  0.2783 -0.2951
 5987TIP3    H139452   5.993   5.463  14.718 -0.0809 -1.2185  0.6428
 5987TIP3    H239453   6.114   5.549  14.686 -0.5629 -1.3718 -1.8522
 5988TIP3   OH239454   5.597   1.438  11.486 -0.9012 -0.3055 -0.2070
 5988TIP3    H139455   5.619   1.502  11.418  1.0747 -0.4392  0.2509
 5988TIP3    H239456   5.630   1.355  11.451  0.4887 -0.3123  1.0459
 5989TIP3   OH239457   4.934   3.763  13.175 -0.3309  0.2172 -0.1609
 5989TIP3    H139458   4.964   3.719  13.096 -1.8022  0.5919 -0.9644
 5989TIP3    H239459   4.962   3.854  13.164 -1.2565  0.4562 -0.6763
 5990TIP3   OH239460   5.944   5.030  16.522 -0.2808  0.0751  0.3621
 5990TIP3    H139461   6.037   5.010  16.535 -0.9316 -1.8104  2.7754
 5990TIP3    H239462   5.920   5.086  16.596 -1.2168  0.0028  0.1315
 5991TIP3   OH239463   1.164   3.031   5.332 -0.5156  0.4691  0.1192
 5991TIP3    H139464   1.113   2.950   5.335  0.8438 -0.5008 -1.1364
 5991TIP3    H239465   1.107   3.094   5.288 -1.9691  0.5297  1.9885
 5992TIP3   OH239466   1.201   1.780   1.531 -0.5083 -0.3177 -0.6546
 5992TIP3    H139467   1.154   1.832   1.597  1.5345  0.8204 -0.0352
 5992TIP3    H239468   1.202   1.836   1.453  1.2199  0.4115 -0.1514
 5993TIP3   OH239469   1.003   5.251  12.345 -0.1456  0.5319 -0.1713
 5993TIP3    H139470   0.970   5.326  12.296 -0.2884  0.1471 -0.6738
 5993TIP3    H239471   1.077   5.285  12.395 -1.0493  1.3249  0.6808
 5994TIP3   OH239472   0.576   6.440   2.759  0.8194 -0.4650 -0.6359
 5994TIP3    H139473   0.571   6.441   2.855  0.1857  0.3796 -0.6650
 5994TIP3    H239474   0.593   6.531   2.735 -0.6003 -0.3627 -1.3808
 5995TIP3   OH239475   5.240   2.256   3.170 -0.5705 -0.4714 -0.6655
 5995TIP3    H139476   5.233   2.352   3.165 -2.3041 -0.6217 -3.1596
 5995TIP3    H239477   5.182   2.232   3.242 -1.3654  0.2956 -1.0272
 5996TIP3   OH239478   6.637   5.889   4.265  0.6460  0.1954  0.2259
 5996TIP3    H139479   6.629   5.798   4.237  0.4895  0.1170  0.5205
 5996TIP3    H239480   6.728   5.898   4.295  0.1647 -0.3802  1.9738
 5997TIP3   OH239481   4.544   3.348  14.907 -0.5416 -0.7908 -0.5869
 5997TIP3    H139482   4.474   3.386  14.855 -1.4251  1.3372  1.9040
 5997TIP3    H239483   4.500   3.315  14.986  1.1187  0.1184  0.7943
 5998TIP3   OH239484   0.359   6.200   0.049 -0.6207 -0.3019  0.1027
 5998TIP3    H139485   0.420   6.269   0.025 -1.1774  0.5994  1.2012
 5998TIP3    H239486   0.373   6.131  -0.016  0.6911  0.3965 -0.3716
 5999TIP3   OH239487   4.574   6.517   0.243  0.0861 -0.2164 -0.1600
 5999TIP3    H139488   4.520   6.586   0.283  0.6843 -0.5102  1.1960
 5999TIP3    H239489   4.538   6.435   0.277 -0.2647 -0.5705 -1.3268
 6000TIP3   OH239490   4.375   4.738   4.635 -0.0493 -0.6572  0.4275
 6000TIP3    H139491   4.424   4.656   4.641  1.2492 -0.0983 -1.4823
 6000TIP3    H239492   4.442   4.806   4.646 -1.0228  0.1559  1.4605
 6001TIP3   OH239493   0.350   3.681  11.608  0.5540 -0.2083 -0.4844
 6001TIP3    H139494   0.316   3.719  11.527 -0.3122 -0.6848 -0.3519
 6001TIP3    H239495   0.413   3.746  11.640 -0.3951  0.8061 -0.6117
 6002TIP3   OH239496   6.052   2.945  12.577 -0.2180 -0.2949 -0.5070
 6002TIP3    H139497   6.128   3.003  12.571  1.3094 -1.9313  1.3832
 6002TIP3    H239498   6.034   2.919  12.487  1.1408  0.5344 -1.0514
 6003TIP3   OH239499   0.904   2.636  11.769  0.1616 -0.4141 -0.0894
 6003TIP3    H139500   0.897   2.723  11.729  2.7916 -0.7278 -1.4205
 6003TIP3    H239501   0.845   2.582  11.716  0.2029  0.1086 -0.6915
 6004TIP3   OH239502   2.887   0.745   3.373  0.4468 -0.2734 -0.8582
 6004TIP3    H139503   2.923   0.830   3.347 -1.0503  0.4934 -0.5824
 6004TIP3    H239504   2.806   0.737   3.322  0.9472 -1.9053 -1.4444
 6005TIP3   OH239505   5.072   5.253  14.232  0.0077  0.1709 -0.4035
 6005TIP3    H139506   5.005   5.201  14.189 -0.2762  2.0960 -2.4541
 6005TIP3    H239507   5.152   5.200  14.227 -1.0254 -1.6179  0.9938
 6006TIP3   OH239508   4.428   3.813   0.247 -0.0206 -0.2263 -0.4904
 6006TIP3    H139509   4.373   3.754   0.194  0.4008 -0.0847 -1.1035
 6006TIP3    H239510   4.497   3.841   0.186  0.3820  0.0693  0.1003
 6007TIP3   OH239511   2.245   5.821   3.644  0.5110  0.1721  0.9730
 6007TIP3    H139512   2.193   5.819   3.724  0.7321  1.9382  1.1933
 6007TIP3    H239513   2.301   5.898   3.654  2.3461 -1.0040  0.2322
 6008TIP3   OH239514   1.675   3.819  15.306 -0.7903  0.4105  0.4834
 6008TIP3    H139515   1.583   3.799  15.322 -1.0346  1.2385  0.1719
 6008TIP3    H239516   1.704   3.753  15.243 -1.0672 -0.0733  0.8607
 6009TIP3   OH239517   4.728   1.892   1.694  0.1674 -0.0909 -0.2285
 6009TIP3    H139518   4.713   1.857   1.782 -1.0394 -0.5724 -0.6123
 6009TIP3    H239519   4.770   1.977   1.710 -0.0728 -0.1455  0.8145
 6010TIP3   OH239520   1.378   5.111   5.476  0.6116  0.6598  0.0020
 6010TIP3    H139521   1.344   5.117   5.565  0.1144 -0.8393 -0.0658
 6010TIP3    H239522   1.473   5.125   5.485  0.7473 -0.7068  0.9416
 6011TIP3   OH239523   6.790   3.943   3.398  0.7502  0.0068  0.2618
 6011TIP3    H139524   6.721   3.970   3.337 -0.4793  0.4706  1.7981
 6011TIP3    H239525   6.744   3.924   3.480  2.5065  1.0711  1.5836
 6012TIP3   OH239526   2.654   4.149   3.294  0.2242  0.0073 -0.6761
 6012TIP3    H139527   2.704   4.147   3.213 -0.7084 -1.5313 -1.2623
 6012TIP3    H239528   2.667   4.237   3.328  2.7870 -0.1424 -1.1012
 6013TIP3   OH239529   6.566   0.156  17.161 -0.0731  0.3917  0.3018
 6013TIP3    H139530   6.522   0.156  17.246  0.3416  0.9929  0.5323
 6013TIP3    H239531   6.497   0.136  17.098 -0.9163  2.2745  0.5507
 6014TIP3   OH239532   2.199   4.964   2.303 -0.6240 -0.1994  0.3420
 6014TIP3    H139533   2.152   5.027   2.357  0.0885  0.4526  0.2139
 6014TIP3    H239534   2.286   4.957   2.343 -0.6821 -1.0785  0.3359
 6015TIP3   OH239535   2.016   2.910  14.300 -0.0659  0.4676  0.2164
 6015TIP3    H139536   1.971   2.857  14.366  1.4476 -0.9232  0.1960
 6015TIP3    H239537   2.103   2.925  14.336  0.8409 -0.4495 -1.4869
 6016TIP3   OH239538   3.283   6.687   1.126 -0.0517 -0.0203  0.0667
 6016TIP3    H139539   3.194   6.721   1.118  0.0328  0.1236 -0.2823
 6016TIP3    H239540   3.308   6.706   1.217 -0.6648 -0.7850  0.3982
 6017TIP3   OH239541   3.774   0.363  13.820  0.6795 -0.4279 -0.2451
 6017TIP3    H139542   3.804   0.453  13.812 -0.9590  0.1162 -0.7601
 6017TIP3    H239543   3.851   0.310  13.801  1.4625  0.8634 -0.8174
 6018TIP3   OH239544   0.665   5.684  12.707 -0.3353  0.0053  0.3416
 6018TIP3    H139545   0.730   5.750  12.730 -0.7766  0.1595  1.1708
 6018TIP3    H239546   0.716   5.605  12.689  0.1599  0.4316 -0.1590
 6019TIP3   OH239547   6.646   6.180  12.510 -0.3368  0.6610 -1.0355
 6019TIP3    H139548   6.681   6.263  12.478 -0.3776  1.1517  0.1370
 6019TIP3    H239549   6.615   6.199  12.598  0.4832 -0.8042 -0.3817
 6020TIP3   OH239550   0.924   1.075   1.701  0.0791 -0.8642 -0.3245
 6020TIP3    H139551   0.850   1.051   1.645  0.0843 -2.7972  0.4054
 6020TIP3    H239552   0.885   1.090   1.787  0.3053  0.1179 -0.3874
 6021TIP3   OH239553   5.445   5.943  15.137 -0.4361  0.3092 -0.5483
 6021TIP3    H139554   5.384   6.012  15.165 -0.4330 -0.0895  0.4772
 6021TIP3    H239555   5.503   5.987  15.075 -1.9598  0.6227 -1.8310
 6022TIP3   OH239556   2.986   5.552   3.000 -0.1428  1.0477  0.3909
 6022TIP3    H139557   2.935   5.558   3.081 -1.6349 -1.7219 -0.2090
 6022TIP3    H239558   3.059   5.494   3.022 -0.3571  0.5698 -0.1363
 6023TIP3   OH239559   4.139   0.809  11.729  0.4099 -0.3804 -0.2834
 6023TIP3    H139560   4.174   0.801  11.818 -0.4195 -2.4045 -0.0856
 6023TIP3    H239561   4.080   0.734  11.720  0.7667 -0.4443 -2.6670
 6024TIP3   OH239562   3.245   1.069   0.085  0.0595  0.0837 -0.4608
 6024TIP3    H139563   3.303   1.143   0.069  1.3948 -1.2796 -2.3521
 6024TIP3    H239564   3.302   1.002   0.123 -0.7110 -0.6241 -0.5214
 6025TIP3   OH239565   5.128   4.225   3.998  0.3973  0.2781 -0.1179
 6025TIP3    H139566   5.117   4.182   4.082 -1.4042  0.7108 -0.0867
 6025TIP3    H239567   5.193   4.173   3.952 -0.2294 -1.2809  0.7000
 6026TIP3   OH239568   2.025   3.789   4.540  0.1348 -0.1536  0.4048
 6026TIP3    H139569   1.932   3.766   4.531 -0.0223  0.2341  0.9921
 6026TIP3    H239570   2.024   3.879   4.572  0.7213  0.7347 -1.8561
 6027TIP3   OH239571   5.111   1.031   1.464 -0.1738 -0.3473  0.2974
 6027TIP3    H139572   5.165   1.108   1.480 -1.7515  0.4919  1.8834
 6027TIP3    H239573   5.023   1.065   1.451 -0.9785 -1.8818  1.4013
 6028TIP3   OH239574   0.614   4.717  13.494  0.2976  0.7103  0.0291
 6028TIP3    H139575   0.641   4.631  13.524  0.6579 -0.1600 -2.4985
 6028TIP3    H239576   0.532   4.702  13.447  0.0685  1.8361  0.0361
 6029TIP3   OH239577   4.434   5.760   3.422 -0.5261  0.7287 -0.1702
 6029TIP3    H139578   4.517   5.754   3.376 -0.8917  1.8756 -1.0413
 6029TIP3    H239579   4.368   5.741   3.355 -0.9854  0.0984  0.4443
 6030TIP3   OH239580   5.601   6.535  11.737  0.3399  0.4790  0.4424
 6030TIP3    H139581   5.575   6.588  11.813 -2.6796 -1.1093  0.6941
 6030TIP3    H239582   5.554   6.575  11.663  0.9840  0.3239 -0.0585
 6031TIP3   OH239583   6.407   3.254   2.684  0.3790  0.5411  0.8078
 6031TIP3    H139584   6.411   3.349   2.679 -0.0163  0.4892 -1.6994
 6031TIP3    H239585   6.401   3.225   2.593 -1.3941 -1.7996  1.5568
 6032TIP3   OH239586   2.561   4.214   5.423 -0.1272  0.3625  0.0680
 6032TIP3    H139587   2.538   4.247   5.336 -0.1965 -0.8166 -0.3881
 6032TIP3    H239588   2.641   4.261   5.446 -0.5325  1.2518 -0.2833
 6033TIP3   OH239589   2.625   1.495  12.302  0.0189  0.7116 -0.2441
 6033TIP3    H139590   2.552   1.498  12.364 -1.4838  0.8481 -1.9175
 6033TIP3    H239591   2.653   1.403  12.302  0.9013  0.9386  1.5133
 6034TIP3   OH239592   5.382   0.732   1.724  0.3125 -0.0635 -0.2293
 6034TIP3    H139593   5.449   0.791   1.689  2.6203 -1.3010  1.7265
 6034TIP3    H239594   5.312   0.790   1.753  1.4863  1.5290 -0.4191
 6035TIP3   OH239595   2.536   2.763  11.576 -0.0784  0.4591 -0.3665
 6035TIP3    H139596   2.482   2.690  11.547  1.8184 -1.3464  0.3847
 6035TIP3    H239597   2.626   2.732  11.564  0.7797  2.1587  1.2310
 6036TIP3   OH239598   0.889   0.469   2.961 -0.3596  0.4144 -0.1825
 6036TIP3    H139599   0.814   0.454   3.018  0.4922 -1.0875  0.6082
 6036TIP3    H239600   0.854   0.460   2.872 -1.1658  0.0089  0.1696
 6037TIP3   OH239601   5.845   5.787  13.592  0.5079  0.5263 -0.0459
 6037TIP3    H139602   5.756   5.765  13.622  0.0140 -3.2080 -3.4982
 6037TIP3    H239603   5.839   5.879  13.567 -2.4600  0.3664 -0.3078
 6038TIP3   OH239604   2.191   1.980   5.662 -0.5363 -0.1816  0.9857
 6038TIP3    H139605   2.167   2.070   5.686 -0.4919  0.0605  0.1533
 6038TIP3    H239606   2.157   1.969   5.573  1.4868 -0.1861  0.1710
 6039TIP3   OH239607   3.866   4.434  10.492 -0.8819  0.3183  0.2263
 6039TIP3    H139608   3.793   4.374  10.507 -0.8637  0.0392 -0.7623
 6039TIP3    H239609   3.833   4.497  10.428  0.5423 -1.4346 -2.4407
 6040TIP3   OH239610   4.739   3.579   2.902  0.2989  0.0005 -0.1531
 6040TIP3    H139611   4.663   3.521   2.895  1.3465 -1.3973 -0.3198
 6040TIP3    H239612   4.759   3.604   2.812 -1.0558  1.9028  0.0138
 6041TIP3   OH239613   3.244   6.048   1.576  0.1528  0.3355 -0.5192
 6041TIP3    H139614   3.226   5.956   1.595  1.1794  0.3591  0.6816
 6041TIP3    H239615   3.268   6.048   1.483  1.4681 -0.8479 -0.2166
 6042TIP3   OH239616   3.889   4.474  15.827 -0.0018 -0.2359  0.0285
 6042TIP3    H139617   3.977   4.510  15.814  0.0288 -0.2127  0.3001
 6042TIP3    H239618   3.899   4.380  15.810  0.1622 -0.2980  0.4641
 6043TIP3   OH239619   4.690   2.879  16.919  0.3854  0.5201 -0.0510
 6043TIP3    H139620   4.610   2.879  16.971  0.9289  1.7431  0.8417
 6043TIP3    H239621   4.665   2.921  16.837 -0.2775 -0.6647 -0.4804
 6044TIP3   OH239622   0.751   0.359   0.079 -0.6451 -0.5111  0.3598
 6044TIP3    H139623   0.792   0.344   0.165 -1.3901  0.9856  1.0163
 6044TIP3    H239624   0.759   0.275   0.034  1.8788 -0.6983  0.9729
 6045TIP3   OH239625   0.517   3.743  15.513 -0.0684  0.3220 -0.3284
 6045TIP3    H139626   0.545   3.769  15.425 -0.4536  1.1085 -0.2312
 6045TIP3    H239627   0.424   3.764  15.515 -0.2617 -0.5189 -0.0210
 6046TIP3   OH239628   4.016   2.453  16.299  0.0912  0.2280 -0.1529
 6046TIP3    H139629   4.012   2.547  16.281 -0.7986  0.2131 -0.0925
 6046TIP3    H239630   3.988   2.444  16.390  2.0912  0.0691  0.4838
 6047TIP3   OH239631   0.649   5.764  11.399 -0.3087  0.3464  0.1765
 6047TIP3    H139632   0.566   5.735  11.361 -0.5763 -1.5282  2.0537
 6047TIP3    H239633   0.624   5.827  11.467 -0.0398  1.0674 -0.3686
 6048TIP3   OH239634   0.597   2.160   5.350  0.6561  0.0584 -0.0605
 6048TIP3    H139635   0.553   2.182   5.268 -0.3582 -0.3898  0.3435
 6048TIP3    H239636   0.527   2.159   5.415  1.6246  1.7061  1.0859
 6049TIP3   OH239637   5.315   1.638   4.759  0.2570  0.4240 -0.3336
 6049TIP3    H139638   5.269   1.557   4.781  1.1079 -0.2410 -0.9460
 6049TIP3    H239639   5.406   1.622   4.784  0.2368  1.6122  0.5944
 6050TIP3   OH239640   2.563   1.363   3.907  0.6301 -0.4328  0.3597
 6050TIP3    H139641   2.553   1.354   3.812  2.4851 -1.0755  0.2007
 6050TIP3    H239642   2.570   1.457   3.921  0.8650 -0.3639 -0.1892
 6051TIP3   OH239643   6.474   3.568   2.123  0.0326 -0.0698  0.5184
 6051TIP3    H139644   6.486   3.633   2.192 -0.0373  1.1536 -0.5791
 6051TIP3    H239645   6.562   3.545   2.095  0.0701  1.5192 -0.8282
 6052TIP3   OH239646   1.570   6.085  16.746 -0.0511  0.6497  0.5883
 6052TIP3    H139647   1.476   6.069  16.738  0.1873 -0.7427  0.2590
 6052TIP3    H239648   1.610   5.998  16.737  1.3366  1.3416 -0.3352
 6053TIP3   OH239649   6.499   0.711   4.908 -0.2257 -0.1299 -0.1114
 6053TIP3    H139650   6.543   0.787   4.948  0.3653 -0.8191  0.5712
 6053TIP3    H239651   6.486   0.650   4.980  1.1541 -1.5483 -1.0146
 6054TIP3   OH239652   4.661   1.006  14.291 -0.0632 -0.5118  0.7098
 6054TIP3    H139653   4.629   0.988  14.379  0.6392  0.6207  1.2259
 6054TIP3    H239654   4.620   1.089  14.267 -2.2587 -1.9693 -1.1010
 6055TIP3   OH239655   1.085   5.865   2.997  0.3447  0.5208  0.1186
 6055TIP3    H139656   1.010   5.868   3.057 -1.1137  0.7719 -1.6626
 6055TIP3    H239657   1.073   5.785   2.947  1.8198  0.0686  0.4251
 6056TIP3   OH239658   4.089   2.896  12.553  0.3741 -0.4286 -0.5290
 6056TIP3    H139659   4.094   2.941  12.637  0.8031  1.0684 -1.3047
 6056TIP3    H239660   4.162   2.834  12.553 -0.3490 -1.3083  0.6497
 6057TIP3   OH239661   4.531   6.186   0.503  0.5337 -0.3294 -0.6755
 6057TIP3    H139662   4.443   6.222   0.505  1.1758  1.3319 -1.0653
 6057TIP3    H239663   4.589   6.262   0.508  1.9623 -1.2601 -2.0864
 6058TIP3   OH239664   2.628   1.222  12.372  0.0891  0.4799 -0.4379
 6058TIP3    H139665   2.656   1.174  12.293  2.1577  2.5021 -1.0752
 6058TIP3    H239666   2.689   1.194  12.440 -0.7715 -0.1800  0.0776
 6059TIP3   OH239667   0.120   3.500  11.020  0.2684  0.3770 -0.0977
 6059TIP3    H139668   0.050   3.451  10.978 -0.1683  0.5894  0.3674
 6059TIP3    H239669   0.200   3.464  10.984  0.1375 -2.7281  2.2756
 6060TIP3   OH239670   1.308   1.237   0.236 -0.3725 -0.5659 -0.0214
 6060TIP3    H139671   1.380   1.242   0.300 -0.8897 -1.9200  0.6943
 6060TIP3    H239672   1.306   1.324   0.197 -1.0217  0.8867  2.9175
 6061TIP3   OH239673   0.982   5.488   1.540  0.1128 -0.6770 -0.1364
 6061TIP3    H139674   1.020   5.544   1.473  0.9117  2.4516  2.6425
 6061TIP3    H239675   1.057   5.438   1.574 -0.4630 -3.0238 -2.0799
 6062TIP3   OH239676   5.070   3.892  16.518 -0.4163 -0.4378  0.4081
 6062TIP3    H139677   5.088   3.801  16.498 -2.1825 -0.7081 -0.1493
 6062TIP3    H239678   5.028   3.926  16.439 -1.2386  0.3902  1.1710
 6063TIP3   OH239679   1.603   3.233  11.205 -0.4983 -0.4671 -0.0231
 6063TIP3    H139680   1.648   3.276  11.278 -1.6639  0.4277  0.1931
 6063TIP3    H239681   1.674   3.204  11.147  0.3996 -0.2360  0.9222
 6064TIP3   OH239682   5.303   2.249   4.172  0.0304 -0.3696 -0.1763
 6064TIP3    H139683   5.262   2.166   4.148  1.7778 -1.6570  1.0519
 6064TIP3    H239684   5.256   2.315   4.120 -2.8377 -1.8179  0.3597
 6065TIP3   OH239685   3.245   2.079   5.029  0.2058 -0.4074 -0.1580
 6065TIP3    H139686   3.177   2.012   5.030  0.4452 -0.6773  1.7385
 6065TIP3    H239687   3.244   2.116   5.117  0.8961  1.2674 -0.8156
 6066TIP3   OH239688   5.983   4.366  14.749  0.4393  0.1498 -0.4670
 6066TIP3    H139689   5.961   4.448  14.706 -3.8689 -0.8951 -0.6812
 6066TIP3    H239690   5.952   4.298  14.689 -0.9165 -1.4578  1.8775
 6067TIP3   OH239691   2.032   1.525   1.076  0.3708  0.0589  0.5221
 6067TIP3    H139692   2.079   1.544   1.157 -2.8809 -0.0238  2.6389
 6067TIP3    H239693   2.073   1.445   1.043  2.5242  0.7203  1.4019
 6068TIP3   OH239694   1.840   2.411  15.123 -0.4509 -0.1176 -0.3711
 6068TIP3    H139695   1.785   2.338  15.095 -0.9911  0.5735 -1.1503
 6068TIP3    H239696   1.779   2.473  15.163 -0.3433  0.8859 -1.7080
 6069TIP3   OH239697   3.936   4.476   2.850  0.3073  0.3529 -0.0687
 6069TIP3    H139698   3.870   4.545   2.863 -0.4617  0.0394 -2.0058
 6069TIP3    H239699   3.890   4.408   2.801  1.5626 -0.7426  0.2399
 6070TIP3   OH239700   5.009   5.062  13.347 -0.2950 -0.0742 -0.2724
 6070TIP3    H139701   5.003   5.097  13.258  1.0070 -0.6651 -0.6245
 6070TIP3    H239702   4.942   5.109  13.396 -1.2967  0.0026 -1.6465
 6071TIP3   OH239703   5.944   2.506   4.137 -0.7539 -0.3978  0.2640
 6071TIP3    H139704   5.849   2.502   4.141 -0.6944 -1.5264  1.1914
 6071TIP3    H239705   5.965   2.598   4.155 -1.7093  0.3835 -2.2026
 6072TIP3   OH239706   2.128   1.290  15.993  0.2679  0.4525  0.5825
 6072TIP3    H139707   2.065   1.304  15.922  0.3622  0.3612  0.4804
 6072TIP3    H239708   2.154   1.378  16.020  1.9669  0.4902 -1.0343
 6073TIP3   OH239709   4.844   6.763  14.760 -0.5841  0.4666  0.5162
 6073TIP3    H139710   4.906   6.791  14.692 -0.3830  0.4627  0.6966
 6073TIP3    H239711   4.758   6.782  14.722 -0.4827  0.2468  0.1656
 6074TIP3   OH239712   3.786   3.407  11.818  0.1778  0.2994  0.0663
 6074TIP3    H139713   3.857   3.464  11.788  0.2360 -0.4084 -1.2328
 6074TIP3    H239714   3.807   3.387  11.909  0.5684  1.6974  0.3071
 6075TIP3   OH239715   2.968   4.497   4.028  0.2579 -0.4753  0.6823
 6075TIP3    H139716   3.037   4.459   3.974  0.2374  0.2539  0.1182
 6075TIP3    H239717   2.973   4.591   4.010 -0.0994 -0.2830  1.5575
 6076TIP3   OH239718   1.989   4.510   5.153 -0.0331 -0.2457 -0.1604
 6076TIP3    H139719   1.954   4.484   5.068  0.0355  1.0506 -0.6011
 6076TIP3    H239720   1.984   4.606   5.154 -0.1930 -0.2325  1.3676
 6077TIP3   OH239721   4.899   5.525   5.858 -0.0500 -0.7306 -0.0781
 6077TIP3    H139722   4.909   5.566   5.943 -1.9812  0.2010 -0.2354
 6077TIP3    H239723   4.897   5.431   5.876  2.0974 -0.6962  0.5623
 6078TIP3   OH239724   4.653   4.285  14.851  0.1117 -0.1570 -0.2951
 6078TIP3    H139725   4.619   4.227  14.782  0.2639 -1.6296  0.8078
 6078TIP3    H239726   4.575   4.324  14.890 -0.0791 -0.5808 -0.2445
 6079TIP3   OH239727   1.248   3.995  13.459 -0.1630 -0.3366 -0.4284
 6079TIP3    H139728   1.231   4.030  13.546 -1.9464  0.4791 -1.0421
 6079TIP3    H239729   1.276   4.071  13.408  2.1496 -1.0426 -0.3083
 6080TIP3   OH239730   4.140   0.924   2.582  0.0118  0.0226  0.1780
 6080TIP3    H139731   4.070   0.900   2.521  0.7416  1.4734 -1.3109
 6080TIP3    H239732   4.195   0.986   2.533  1.0510  0.6940  2.0706
 6081TIP3   OH239733   5.537   6.173   3.787  0.0681  0.5161  0.1061
 6081TIP3    H139734   5.549   6.268   3.791 -1.8370  0.9093 -1.9798
 6081TIP3    H239735   5.577   6.148   3.704  1.1010 -0.6492  0.9226
 6082TIP3   OH239736   2.714   2.602  10.265  0.3071 -0.3752 -0.1440
 6082TIP3    H139737   2.668   2.518  10.265  0.2930 -0.4032  1.7687
 6082TIP3    H239738   2.654   2.662  10.308 -0.4987  1.1587 -3.1540
 6083TIP3   OH239739   2.078   4.058  13.093 -0.0859 -0.3208  0.3235
 6083TIP3    H139740   1.999   4.112  13.093  0.1466  0.0348  0.9402
 6083TIP3    H239741   2.047   3.970  13.115 -0.2926 -0.1496  0.7244
 6084TIP3   OH239742   2.565   1.614   1.727 -0.6150 -0.0377 -0.4272
 6084TIP3    H139743   2.530   1.694   1.689 -0.8192  0.2789  0.4016
 6084TIP3    H239744   2.616   1.574   1.657  0.6878  1.5548 -0.4421
 6085TIP3   OH239745   2.052   1.251   3.891  0.0369  0.5907  0.3158
 6085TIP3    H139746   2.118   1.190   3.924 -2.4221 -1.0292  2.6853
 6085TIP3    H239747   2.003   1.200   3.825  0.5123  1.4562 -0.7420
 6086TIP3   OH239748   2.206   5.903   0.866  0.0235 -0.0480 -0.0078
 6086TIP3    H139749   2.298   5.885   0.845  0.2470  1.9134 -0.9639
 6086TIP3    H239750   2.157   5.864   0.793  0.0935 -0.9240  0.4018
 6087TIP3   OH239751   2.098   1.365   4.970 -0.2741  0.0160  0.0090
 6087TIP3    H139752   2.066   1.309   4.899  0.0270 -1.0399  0.6857
 6087TIP3    H239753   2.067   1.452   4.947 -0.9674 -0.4623 -0.9506
 6088TIP3   OH239754   2.575   3.736  12.765 -0.1000 -0.8557  1.0849
 6088TIP3    H139755   2.486   3.740  12.728  0.3344 -0.7646  0.0101
 6088TIP3    H239756   2.612   3.655  12.729  0.8374 -0.0292  0.1343
 6089TIP3   OH239757   3.909   0.077   4.941  0.0188  0.1422  0.1363
 6089TIP3    H139758   3.825   0.093   4.983 -0.1377 -1.7304  0.6397
 6089TIP3    H239759   3.973   0.119   4.998 -0.2286 -1.9138  2.0700
 6090TIP3   OH239760   6.189   5.664  12.638 -0.1727  0.2456 -0.1558
 6090TIP3    H139761   6.283   5.678  12.648 -0.4196  1.7707  0.2435
 6090TIP3    H239762   6.173   5.577  12.675  1.4323 -1.1754 -2.4972
 6091TIP3   OH239763   5.845   1.939  15.363 -0.0219 -0.4687 -0.1717
 6091TIP3    H139764   5.914   1.985  15.315 -0.3434  0.0374 -0.1640
 6091TIP3    H239765   5.768   1.995  15.353 -0.0565 -0.2625  1.0712
 6092TIP3   OH239766   3.854   2.278   3.124 -0.6155  0.2741 -0.8241
 6092TIP3    H139767   3.876   2.369   3.105 -2.2959  0.6676 -0.9647
 6092TIP3    H239768   3.922   2.227   3.080  0.3372  1.4418 -0.7457
 6093TIP3   OH239769   4.567   4.232  15.609  0.1501  0.9746  0.5339
 6093TIP3    H139770   4.560   4.242  15.514 -3.1922  1.9313  0.7328
 6093TIP3    H239771   4.589   4.320  15.640  1.1380  0.6857  0.6564
 6094TIP3   OH239772   1.376   2.372   1.308  0.5927 -0.4400 -0.0031
 6094TIP3    H139773   1.434   2.446   1.292  2.6596 -1.5287  1.8612
 6094TIP3    H239774   1.422   2.297   1.271 -0.5784 -1.0955 -0.1985
 6095TIP3   OH239775   4.226   5.443   4.366  0.0387  0.3625  0.2867
 6095TIP3    H139776   4.200   5.489   4.287 -0.1437 -0.2645 -0.0237
 6095TIP3    H239777   4.209   5.506   4.437  2.1485  1.7114 -0.3249
 6096TIP3   OH239778   1.958   4.202  12.291 -0.0639  0.7310 -0.4803
 6096TIP3    H139779   1.932   4.252  12.368 -2.3056  0.7972 -1.2126
 6096TIP3    H239780   2.031   4.252  12.253  1.0719  0.6954  1.5240
 6097TIP3   OH239781   1.987   4.042   1.237  0.7385 -0.7196  0.0314
 6097TIP3    H139782   1.910   4.098   1.230  0.5688 -0.9383  0.1372
 6097TIP3    H239783   1.999   4.007   1.149  0.9820 -0.3412 -0.0905
 6098TIP3   OH239784   3.030   4.370   4.798 -0.1056  0.2724  0.3499
 6098TIP3    H139785   3.002   4.460   4.778  1.1502  0.9824  1.5688
 6098TIP3    H239786   2.977   4.345   4.874 -0.1786  0.1460  0.2555
 6099TIP3   OH239787   4.494   3.303   0.843  0.2952  0.0842 -0.4579
 6099TIP3    H139788   4.443   3.331   0.920  2.2942  1.7120  0.3916
 6099TIP3    H239789   4.485   3.375   0.781 -1.0313 -1.0774 -1.6773
 6100TIP3   OH239790   3.559   0.075   4.158 -0.8609  0.1604 -0.4403
 6100TIP3    H139791   3.479   0.054   4.207 -0.6808 -0.3859 -0.3704
 6100TIP3    H239792   3.629   0.032   4.207 -0.4490  1.0919 -0.2073
 6101TIP3   OH239793   5.413   4.259  14.849  0.2929  0.2154 -0.6883
 6101TIP3    H139794   5.414   4.185  14.788 -0.6796  0.0672 -0.5476
 6101TIP3    H239795   5.355   4.230  14.920  1.6205  0.2665  0.4663
 6102TIP3   OH239796   5.432   2.167   5.190 -0.6973 -0.4969 -0.0654
 6102TIP3    H139797   5.425   2.072   5.184 -1.6946 -0.4604  0.2496
 6102TIP3    H239798   5.521   2.183   5.220 -0.5487 -1.3388 -0.0327
 6103TIP3   OH239799   5.748   2.460  13.077 -0.7826  0.1169 -0.3361
 6103TIP3    H139800   5.670   2.404  13.085 -0.5304 -0.5274 -1.9690
 6103TIP3    H239801   5.719   2.534  13.024 -1.1021  1.5976  1.7884
 6104TIP3   OH239802   6.626   4.921  12.128 -0.1830 -0.0930  0.6670
 6104TIP3    H139803   6.655   4.937  12.038  0.1816 -1.9150  0.4242
 6104TIP3    H239804   6.585   5.003  12.155  0.8189  0.9022 -0.7139
 6105TIP3   OH239805   1.815   6.575   4.386  0.0112  0.2482  0.1585
 6105TIP3    H139806   1.836   6.492   4.428  1.6728 -0.2066 -1.4528
 6105TIP3    H239807   1.722   6.589   4.404 -0.1782 -1.7191  0.8549
 6106TIP3   OH239808   0.256   2.683   1.265  0.3515 -0.5095 -0.1021
 6106TIP3    H139809   0.274   2.635   1.346  0.3415 -0.6113 -0.1604
 6106TIP3    H239810   0.294   2.770   1.280  0.3555 -0.5299  0.0094
 6107TIP3   OH239811   1.786   3.880   6.233  0.0583 -0.2285 -0.2439
 6107TIP3    H139812   1.719   3.858   6.298  2.6745  2.0939  3.6543
 6107TIP3    H239813   1.740   3.934   6.169 -2.5939 -2.3298 -0.3365
 6108TIP3   OH239814   4.686   0.517   5.049 -0.5266 -0.3620  0.3978
 6108TIP3    H139815   4.709   0.599   5.006  0.4605 -0.5736  0.5077
 6108TIP3    H239816   4.704   0.532   5.142 -3.2669  0.3224  0.9207
 6109TIP3   OH239817   1.568   3.573  11.511  0.6055  0.4412 -0.3800
 6109TIP3    H139818   1.608   3.539  11.591  1.1068 -1.5375 -1.4107
 6109TIP3    H239819   1.475   3.582  11.532  1.0576  2.3376  1.1461
 6110TIP3   OH239820   0.779   5.720   3.736  0.4012  0.3481 -0.1554
 6110TIP3    H139821   0.723   5.648   3.706  1.5614 -0.5108 -0.3340
 6110TIP3    H239822   0.760   5.792   3.677 -1.6423  0.6054  0.7412
 6111TIP3   OH239823   6.496   3.533  15.540 -0.2206  0.8798 -0.5804
 6111TIP3    H139824   6.573   3.523  15.485 -0.4351 -0.2864 -0.6922
 6111TIP3    H239825   6.423   3.508  15.483 -0.7284  2.2527 -0.5675
 6112TIP3   OH239826   0.272   4.091   2.031 -0.1477  0.0965 -0.8240
 6112TIP3    H139827   0.345   4.152   2.024 -0.4110  0.4035 -0.9574
 6112TIP3    H239828   0.293   4.020   1.970  1.1802 -1.0409  0.8757
 6113TIP3   OH239829   4.762   2.707   0.331  0.1058 -0.5720 -0.0213
 6113TIP3    H139830   4.828   2.639   0.322  1.3480  0.6106 -0.1568
 6113TIP3    H239831   4.764   2.754   0.247  0.8180  0.9511  0.8024
 6114TIP3   OH239832   0.746   4.063   1.399  0.5328  0.2038 -0.2720
 6114TIP3    H139833   0.707   3.977   1.414  0.8212  0.0039 -0.6652
 6114TIP3    H239834   0.840   4.049   1.408  0.5476  0.6139  0.3258
 6115TIP3   OH239835   1.775   0.345   3.605  0.2196 -0.5515 -0.1470
 6115TIP3    H139836   1.823   0.426   3.589 -0.2822 -0.2694 -0.2498
 6115TIP3    H239837   1.692   0.374   3.643  0.6105 -1.0976  1.1687
 6116TIP3   OH239838   0.470   6.239  16.829  0.3443 -0.3748 -0.1668
 6116TIP3    H139839   0.496   6.192  16.908 -1.9509  1.4629  1.8801
 6116TIP3    H239840   0.469   6.173  16.760  0.5935 -2.5077  1.7623
 6117TIP3   OH239841   0.735   3.933   3.356  0.9019 -0.6639 -0.4414
 6117TIP3    H139842   0.690   3.941   3.271  0.7061  2.3411 -0.1649
 6117TIP3    H239843   0.698   3.854   3.395  0.0343 -1.4051 -2.5942
 6118TIP3   OH239844   0.933   5.943   5.651 -1.0253 -0.3174 -0.4255
 6118TIP3    H139845   0.844   5.954   5.685 -2.0895 -1.9305 -2.4704
 6118TIP3    H239846   0.966   5.865   5.697 -1.3672 -0.7739 -0.9382
 6119TIP3   OH239847   4.378   3.641  15.182  0.4823  0.0585 -0.3330
 6119TIP3    H139848   4.416   3.654  15.096  1.9386 -0.7872  0.1527
 6119TIP3    H239849   4.443   3.590  15.230  0.0809  1.1908  1.5338
 6120TIP3   OH239850   0.166   0.750  16.359 -0.4529 -0.4271 -0.2150
 6120TIP3    H139851   0.248   0.785  16.324 -1.4502 -0.1935 -2.4563
 6120TIP3    H239852   0.193   0.672  16.409  1.0674 -0.7574 -1.4680
 6121TIP3   OH239853   4.334   6.811   3.612 -0.1138 -0.1759 -0.4972
 6121TIP3    H139854   4.351   6.878   3.546 -1.0390  1.6512  0.9878
 6121TIP3    H239855   4.404   6.822   3.676  0.8178 -1.9703 -1.1673
 6122TIP3   OH239856   1.176   4.263  13.317  0.3552  0.4540  0.3773
 6122TIP3    H139857   1.197   4.351  13.348  1.0474  0.6498 -0.5848
 6122TIP3    H239858   1.090   4.271  13.277 -0.7018  0.1244  2.4653
 6123TIP3   OH239859   5.726   4.705  16.909  0.0493  0.2417  0.2930
 6123TIP3    H139860   5.819   4.688  16.889  0.3349  1.4498  0.4864
 6123TIP3    H239861   5.680   4.677  16.830  0.6786  0.4709 -0.1705
 6124TIP3   OH239862   4.275   3.698  16.739  0.4731 -0.2689 -0.1325
 6124TIP3    H139863   4.281   3.750  16.658  0.0044 -2.0795 -1.3866
 6124TIP3    H239864   4.273   3.607  16.709 -1.7400 -0.9497  1.7943
 6125TIP3   OH239865   6.227   6.314  17.100  0.6155 -0.1450 -0.3008
 6125TIP3    H139866   6.154   6.294  17.158  2.1723  0.0340  1.8380
 6125TIP3    H239867   6.218   6.253  17.027 -1.8471  0.1381 -0.2997
 6126TIP3   OH239868   3.428   4.929  15.002 -0.2511 -0.4928  0.4797
 6126TIP3    H139869   3.341   4.956  14.973 -0.3787 -1.1601  0.2189
 6126TIP3    H239870   3.441   4.842  14.962 -0.5059 -1.5583  2.5677
 6127TIP3   OH239871   4.703   4.526   3.711 -0.3262  0.4295  0.1985
 6127TIP3    H139872   4.652   4.602   3.737 -0.4556 -0.4366  2.7260
 6127TIP3    H239873   4.794   4.558   3.706 -0.6690  1.2752 -1.3235
 6128TIP3   OH239874   2.842   4.588  12.449  0.2009 -0.2650  0.6844
 6128TIP3    H139875   2.864   4.543  12.531  1.4149 -1.9230 -0.4923
 6128TIP3    H239876   2.911   4.563  12.388 -0.3174  1.4573 -0.6918
 6129TIP3   OH239877   3.717   2.719  13.771 -0.0970 -0.0306  0.1410
 6129TIP3    H139878   3.682   2.807  13.761 -0.8376 -0.1809  1.2594
 6129TIP3    H239879   3.661   2.665  13.715  2.8188  0.6879 -3.8636
 6130TIP3   OH239880   2.565   0.068   3.922  0.1747 -0.5701  0.0951
 6130TIP3    H139881   2.643   0.086   3.870  0.5009 -2.5424 -0.1768
 6130TIP3    H239882   2.531  -0.014   3.887 -1.5286 -0.2148  0.8098
 6131TIP3   OH239883   6.085   2.024   1.163  0.1440 -0.0747  0.3991
 6131TIP3    H139884   6.177   2.005   1.146 -0.1611 -0.5759 -0.7841
 6131TIP3    H239885   6.037   1.977   1.094 -0.9538  0.7254  0.5820
 6132TIP3   OH239886   3.906   2.614  11.472 -0.0710  0.3100 -0.2647
 6132TIP3    H139887   3.896   2.611  11.377 -0.4147 -0.3009 -0.2137
 6132TIP3    H239888   3.946   2.530  11.495  0.0295  0.4608  0.1269
 6133TIP3   OH239889   1.515   0.485  16.004  0.2433  0.0747  0.3598
 6133TIP3    H139890   1.581   0.549  15.979 -0.5840  0.9551  0.3496
 6133TIP3    H239891   1.561   0.422  16.059  1.0963  0.6337  0.2955
 6134TIP3   OH239892   0.188   5.812   0.872  0.1248 -0.2145 -0.2327
 6134TIP3    H139893   0.157   5.758   0.944 -1.2697  0.3385 -0.3848
 6134TIP3    H239894   0.244   5.878   0.913  0.0759 -0.4544  0.2219
 6135TIP3   OH239895   1.486   6.250  10.638  0.3887  0.8947  0.5219
 6135TIP3    H139896   1.574   6.285  10.653  0.8730 -1.0860  2.9327
 6135TIP3    H239897   1.468   6.195  10.714 -1.0265 -2.6224 -2.0470
 6136TIP3   OH239898   0.987   0.240   1.638  0.8528 -0.5896  0.1049
 6136TIP3    H139899   0.959   0.232   1.729 -2.2744 -0.6672 -0.7523
 6136TIP3    H239900   0.957   0.159   1.596  0.8888  0.0940 -1.3044
 6137TIP3   OH239901   6.071   4.795   4.111 -0.5131  0.5760 -0.1842
 6137TIP3    H139902   6.025   4.740   4.048  1.2221 -0.7033 -0.4059
 6137TIP3    H239903   6.025   4.879   4.107 -1.3262  0.1011 -2.1156
 6138TIP3   OH239904   3.304   3.101   4.696  0.1705  0.0662 -0.1840
 6138TIP3    H139905   3.240   3.093   4.625 -0.4704  3.4854 -0.1393
 6138TIP3    H239906   3.384   3.061   4.660 -0.0750  1.7955 -2.9679
 6139TIP3   OH239907   1.077   4.621   6.545  0.2211  0.5148 -0.2071
 6139TIP3    H139908   1.000   4.572   6.517  0.5648  0.1372 -0.5041
 6139TIP3    H239909   1.123   4.641   6.463 -0.4799  2.3106 -0.2040
 6140TIP3   OH239910   6.036   1.796  16.219 -0.1556 -0.0198 -0.1653
 6140TIP3    H139911   5.971   1.844  16.271 -0.2315 -1.8248  1.5225
 6140TIP3    H239912   6.112   1.854  16.217 -0.4027  0.4226  1.4126
 6141TIP3   OH239913   5.487   6.287   4.676  0.3290 -0.6059  0.7400
 6141TIP3    H139914   5.417   6.298   4.612  1.2218 -5.1667 -1.4896
 6141TIP3    H239915   5.552   6.353   4.653 -1.6859  1.4882  0.6817
 6142TIP3   OH239916   2.196   0.355   3.297  0.2246 -0.2087 -0.1385
 6142TIP3    H139917   2.225   0.403   3.220  1.0117 -1.2551 -0.5268
 6142TIP3    H239918   2.259   0.377   3.365 -0.1004  0.2150  0.0321
 6143TIP3   OH239919   5.979   1.453   5.712  0.0126  0.2478 -0.2372
 6143TIP3    H139920   5.964   1.396   5.787 -0.1986  0.1517 -0.3514
 6143TIP3    H239921   5.904   1.512   5.712 -0.3499 -0.1987 -0.7817
 6144TIP3   OH239922   4.656   3.308  11.279  0.1453 -0.0835  0.2298
 6144TIP3    H139923   4.652   3.213  11.288  1.6822 -0.1805  0.2653
 6144TIP3    H239924   4.722   3.335  11.343 -1.4709  1.2225  1.4220
 6145TIP3   OH239925   0.055   5.225   3.204 -0.0542 -0.0262 -0.0731
 6145TIP3    H139926   0.025   5.139   3.172 -0.9756  0.3306 -0.1875
 6145TIP3    H239927  -0.023   5.266   3.240  0.0177  1.4050 -1.4425
 6146TIP3   OH239928   5.716   4.259  12.774 -0.2825 -0.3222  0.5094
 6146TIP3    H139929   5.763   4.234  12.854  2.4302  1.1047 -0.5035
 6146TIP3    H239930   5.743   4.195  12.709 -0.0849  0.2636  0.0081
 6147TIP3   OH239931   6.512   3.216  12.868  0.5658 -0.9217 -0.2119
 6147TIP3    H139932   6.428   3.173  12.884  0.8664 -1.3907  0.1444
 6147TIP3    H239933   6.545   3.176  12.787  0.4350 -0.7166 -0.3679
 6148TIP3   OH239934   5.058   1.779  13.796  0.4688 -0.3061 -0.4815
 6148TIP3    H139935   5.002   1.802  13.870 -0.1857  1.6281 -1.4929
 6148TIP3    H239936   5.024   1.832  13.723  3.0495  0.3133 -1.3477
 6149TIP3   OH239937   3.900   2.699  13.242 -0.6193 -0.3994 -0.4082
 6149TIP3    H139938   3.891   2.779  13.293  0.3006 -1.4121  1.4002
 6149TIP3    H239939   3.812   2.684  13.207 -0.8690  1.2277 -0.5898
 6150TIP3   OH239940   4.461   1.859  16.189 -0.7918 -0.6924  0.0945
 6150TIP3    H139941   4.459   1.794  16.119  0.8231  2.1519 -2.8307
 6150TIP3    H239942   4.525   1.824  16.252  1.5113 -1.1465 -2.3369
 6151TIP3   OH239943   6.479   1.178   4.595 -0.3619  0.2010  0.5009
 6151TIP3    H139944   6.470   1.269   4.622 -3.2358 -0.2797  1.4323
 6151TIP3    H239945   6.390   1.145   4.587  0.5482 -2.1752 -1.2093
 6152TIP3   OH239946   1.323   1.221  15.363 -0.3433  0.0377 -0.4983
 6152TIP3    H139947   1.313   1.148  15.424 -2.6006  0.3452 -0.4106
 6152TIP3    H239948   1.417   1.227  15.348  0.2112 -0.6841  2.1820
 6153TIP3   OH239949   2.045   1.193   5.175  0.0104 -0.4656  0.0807
 6153TIP3    H139950   1.977   1.151   5.122 -0.7726 -0.0421  0.7233
 6153TIP3    H239951   2.082   1.260   5.117 -2.1909  1.3538  0.6310
 6154TIP3   OH239952   1.835   5.155  15.458  0.1220  0.3211 -0.1193
 6154TIP3    H139953   1.796   5.172  15.544 -0.3515  2.0034 -0.6195
 6154TIP3    H239954   1.929   5.168  15.472  0.4703 -2.4591  0.7921
 6155TIP3   OH239955   0.171   4.172   3.317 -0.4909 -0.0055  0.1772
 6155TIP3    H139956   0.100   4.119   3.351 -1.1181  0.5846 -0.1912
 6155TIP3    H239957   0.161   4.257   3.360 -0.8103  0.4927 -0.8595
 6156TIP3   OH239958   5.211   6.532   4.040 -0.3132 -0.4268  0.1452
 6156TIP3    H139959   5.291   6.501   4.082 -0.9966 -2.5817 -0.0410
 6156TIP3    H239960   5.241   6.582   3.964  0.8610  0.0736  0.9236
 6157TIP3   OH239961   0.744   5.471   2.226  0.0083  0.4068  0.0499
 6157TIP3    H139962   0.661   5.446   2.266  0.7439 -3.4449 -0.5094
 6157TIP3    H239963   0.737   5.444   2.134  1.9196 -0.2296  0.0369
 6158TIP3   OH239964   3.240   1.467   4.141 -0.0487 -0.1036  0.6991
 6158TIP3    H139965   3.303   1.497   4.206  0.5580 -0.3339  0.2204
 6158TIP3    H239966   3.232   1.373   4.155 -1.8476  0.2091  2.1042
 6159TIP3   OH239967   2.194   2.623   3.712 -0.4770 -0.0088 -0.0106
 6159TIP3    H139968   2.120   2.670   3.751  0.4983  0.4090  1.3913
 6159TIP3    H239969   2.167   2.609   3.621 -1.2109  2.3954 -0.2399
 6160TIP3   OH239970   0.710   2.298   1.833  0.3122 -0.7501 -0.1878
 6160TIP3    H139971   0.687   2.305   1.926  0.5533  0.0406 -0.1816
 6160TIP3    H239972   0.678   2.380   1.794 -0.0078 -1.1809 -0.8530
 6161TIP3   OH239973   1.647   3.441   5.543 -0.1455  0.3843 -0.8014
 6161TIP3    H139974   1.693   3.471   5.465  1.8222 -0.8647 -0.1845
 6161TIP3    H239975   1.582   3.379   5.511  0.8313 -0.3332 -1.4471
 6162TIP3   OH239976   1.758   2.530  13.479 -0.0672  0.7214  0.5125
 6162TIP3    H139977   1.706   2.450  13.480  0.1091  0.5957  0.0494
 6162TIP3    H239978   1.796   2.535  13.567 -0.5841  0.6374  0.7461
 6163TIP3   OH239979   1.388   3.011   2.235  0.5806  0.1425  0.5130
 6163TIP3    H139980   1.459   2.964   2.279  0.6566 -0.8293 -0.5940
 6163TIP3    H239981   1.352   2.947   2.174  0.8076  1.5782 -1.1985
 6164TIP3   OH239982   1.254   1.163   2.608  0.3610 -0.0094 -0.6726
 6164TIP3    H139983   1.321   1.223   2.640  0.7273 -0.3397 -0.8069
 6164TIP3    H239984   1.186   1.220   2.571  0.0060  0.3730  0.5287
 6165TIP3   OH239985   3.684   4.709  12.944  0.3988 -0.2162 -0.4557
 6165TIP3    H139986   3.665   4.731  12.852  2.1989 -0.3099 -0.8863
 6165TIP3    H239987   3.762   4.760  12.965 -0.3362  0.2587  1.2374
 6166TIP3   OH239988   0.570   1.866   1.788  0.5158  0.6623  0.2372
 6166TIP3    H139989   0.534   1.894   1.873  0.1428  0.2057  0.2402
 6166TIP3    H239990   0.659   1.839   1.807  0.6747  1.2574  0.3460
 6167TIP3   OH239991   5.637   2.977   4.279 -0.5058 -0.0104  0.2129
 6167TIP3    H139992   5.588   2.979   4.197 -0.9186 -0.0902  0.4589
 6167TIP3    H239993   5.639   3.068   4.308  0.0602  0.0948 -0.1295
 6168TIP3   OH239994   1.462   6.136  10.377 -0.0004 -0.5286 -0.2165
 6168TIP3    H139995   1.473   6.194  10.452  0.5970 -0.0637 -0.6473
 6168TIP3    H239996   1.369   6.113  10.376 -1.1423  3.3914 -2.1494
 6169TIP3   OH239997   4.810   3.034  15.551  0.3485 -0.3955  0.7489
 6169TIP3    H139998   4.760   2.991  15.620 -0.2461 -0.7409  0.1220
 6169TIP3    H239999   4.766   3.118  15.539 -0.0608 -0.6807  0.2273
 6170TIP3   OH240000   4.654   1.455   4.135 -0.0164  0.2273  0.1590
 6170TIP3    H140001   4.562   1.456   4.109  0.4026  1.6347 -1.4057
 6170TIP3    H240002   4.698   1.402   4.069  0.1082 -1.8609  1.8213
 6171TIP3   OH240003   6.056   3.703  13.628  0.1682  0.1115  0.2231
 6171TIP3    H140004   6.111   3.767  13.672 -2.2382  2.1728  0.4602
 6171TIP3    H240005   6.113   3.661  13.564  1.4593  4.0238 -1.4853
 6172TIP3   OH240006   2.686   3.443  11.517 -0.0312  0.2417  0.4766
 6172TIP3    H140007   2.696   3.415  11.608  0.9793  0.1684  0.3564
 6172TIP3    H240008   2.764   3.409  11.472  0.4862  1.9061  0.0099
 6173TIP3   OH240009   1.546   5.127   0.777 -0.3717  0.4759  0.2313
 6173TIP3    H140010   1.484   5.183   0.731  0.3654  0.6854 -0.5272
 6173TIP3    H240011   1.524   5.038   0.749 -0.4574  0.5353  0.1110
 6174TIP3   OH240012   3.479   4.588   4.490 -0.2882  0.3401  0.1708
 6174TIP3    H140013   3.544   4.573   4.422 -2.0071  2.0091 -2.0019
 6174TIP3    H240014   3.515   4.660   4.542  1.3018 -1.3265  1.5030
 6175TIP3   OH240015   4.124   0.731   1.442 -0.1850  0.1586  0.8090
 6175TIP3    H140016   4.184   0.795   1.480 -0.3387  1.7565 -1.4299
 6175TIP3    H240017   4.039   0.775   1.444 -0.7594 -0.9435  1.3525
 6176TIP3   OH240018   2.819   5.887   0.392 -0.3193  0.4973 -0.0193
 6176TIP3    H140019   2.809   5.932   0.475 -0.6728  0.7442 -0.1911
 6176TIP3    H240020   2.886   5.937   0.345 -0.2680  0.4770  0.0313
 6177TIP3   OH240021   0.220   2.788  14.786  0.3529  0.0269  0.1626
 6177TIP3    H140022   0.219   2.816  14.695  0.1799 -0.0345  0.1454
 6177TIP3    H240023   0.300   2.736  14.794 -0.3695 -1.2061 -0.3346
 6178TIP3   OH240024   6.131   2.681  11.474 -0.0763 -0.4730  0.0447
 6178TIP3    H140025   6.182   2.703  11.552 -0.8710 -1.6268  0.9122
 6178TIP3    H240026   6.066   2.752  11.467  1.1180  0.6075 -0.6487
 6179TIP3   OH240027   4.740   6.546   3.703 -0.0753 -0.3365  0.2139
 6179TIP3    H140028   4.774   6.576   3.787  0.3584  0.7076 -0.3040
 6179TIP3    H240029   4.808   6.572   3.640 -2.0181  2.3274 -0.9368
 6180TIP3   OH240030   0.247   0.092  16.828  0.1999  0.3023  0.1526
 6180TIP3    H140031   0.299   0.017  16.800  0.1776  0.9240 -1.6918
 6180TIP3    H240032   0.169   0.054  16.868 -0.6433 -0.7425 -2.2982
 6181TIP3   OH240033   2.082   4.291  13.366 -0.5248  0.1421 -0.2710
 6181TIP3    H140034   2.103   4.262  13.455 -0.6659  0.0820 -0.2581
 6181TIP3    H240035   2.158   4.264  13.314 -0.6319 -0.2003 -0.2498
 6182TIP3   OH240036   5.026   2.643  10.631  0.5731 -0.1330  0.0819
 6182TIP3    H140037   5.030   2.681  10.719  1.0970 -0.0610  0.0296
 6182TIP3    H240038   4.993   2.554  10.645 -0.3757  0.2241  0.2354
 6183TIP3   OH240039   1.700   6.237  12.177 -0.5872 -0.2624 -0.4124
 6183TIP3    H140040   1.780   6.209  12.221 -0.9998 -0.5295  0.1954
 6183TIP3    H240041   1.651   6.285  12.244 -1.0330 -0.2967 -0.7059
 6184TIP3   OH240042   4.290   1.549  13.665  0.4568  0.2149 -0.1529
 6184TIP3    H140043   4.281   1.473  13.609  1.3663 -0.6238  0.8014
 6184TIP3    H240044   4.284   1.515  13.754  0.6122  1.2911  0.2932
 6185TIP3   OH240045   5.971   5.290   3.649  0.0705 -0.1886  0.2548
 6185TIP3    H140046   5.910   5.350   3.605 -0.0654 -0.1293  0.5193
 6185TIP3    H240047   5.994   5.225   3.582  0.5112  0.3706 -0.1494
 6186TIP3   OH240048   0.245   4.161  13.107 -0.1218 -0.3263 -0.1141
 6186TIP3    H140049   0.321   4.167  13.049 -0.7627  3.3114 -0.8297
 6186TIP3    H240050   0.272   4.205  13.188 -1.4494  1.2139 -0.4570
 6187TIP3   OH240051   5.145   3.070   1.769 -0.0953 -0.2139  0.0191
 6187TIP3    H140052   5.094   3.045   1.845  0.5534 -1.0963  0.1752
 6187TIP3    H240053   5.139   3.166   1.767 -2.0320 -0.3012 -0.1870
 6188TIP3   OH240054   6.542   4.652   1.819 -0.3389  0.1570 -0.4043
 6188TIP3    H140055   6.594   4.672   1.742 -0.5569  1.8711 -0.1414
 6188TIP3    H240056   6.560   4.723   1.881 -1.0279 -0.5727  0.6894
 6189TIP3   OH240057   4.593   5.692   1.363 -0.2374  0.2656 -0.7490
 6189TIP3    H140058   4.654   5.648   1.303 -0.7699  0.6858 -1.6072
 6189TIP3    H240059   4.637   5.774   1.386 -0.0110  0.0812 -0.5104
 6190TIP3   OH240060   3.205   4.542  15.877  0.3888 -0.2441 -0.0735
 6190TIP3    H140061   3.232   4.624  15.836  0.7327 -0.3863 -0.1372
 6190TIP3    H240062   3.118   4.560  15.913  0.5945  0.2391  0.1839
 6191TIP3   OH240063   1.664   4.195  12.425  0.5712  0.3414 -0.1133
 6191TIP3    H140064   1.696   4.143  12.499 -0.6634  1.3442  1.1918
 6191TIP3    H240065   1.569   4.187  12.430  0.2862  3.2026  0.5641
 6192TIP3   OH240066   3.654   6.338   2.899  0.1497  0.0020 -0.2959
 6192TIP3    H140067   3.682   6.426   2.925 -2.6237  0.6122  0.9199
 6192TIP3    H240068   3.689   6.281   2.968 -0.8208  0.6191  0.7287
 6193TIP3   OH240069   5.642   2.286   0.728  0.2937  0.1990 -0.4128
 6193TIP3    H140070   5.687   2.310   0.809 -1.6819  0.4564  0.6653
 6193TIP3    H240071   5.550   2.279   0.753 -0.1463 -1.5207 -2.2505
 6194TIP3   OH240072   4.276   0.241  14.468 -0.6810 -0.1833  0.2323
 6194TIP3    H140073   4.192   0.216  14.506 -1.5365 -1.2433 -2.1460
 6194TIP3    H240074   4.300   0.167  14.412 -0.4099  1.8922 -2.6036
 6195TIP3   OH240075   5.982   3.075  14.026  0.2547  0.5806  0.4504
 6195TIP3    H140076   6.061   3.120  14.056  0.5328  0.2732  0.1826
 6195TIP3    H240077   5.947   3.035  14.105  0.7403  0.1498  0.4534
 6196TIP3   OH240078   5.707   5.962  16.167 -0.2374 -0.4163  0.1565
 6196TIP3    H140079   5.794   6.000  16.152  0.6736 -2.0626  1.0144
 6196TIP3    H240080   5.653   6.036  16.195  1.7166  0.1719  2.7078
 6197TIP3   OH240081   4.793   1.709  13.169 -0.3362  0.2591  0.3895
 6197TIP3    H140082   4.793   1.801  13.145  1.7809  0.2035  0.0143
 6197TIP3    H240083   4.881   1.678  13.149 -0.6902 -1.6146  1.4129
 6198TIP3   OH240084   1.774   6.303  15.855  0.0513  0.4415  0.5092
 6198TIP3    H140085   1.722   6.283  15.933  0.0283 -0.5016  0.2712
 6198TIP3    H240086   1.852   6.249  15.865 -0.7792 -1.1502 -0.9832
 6199TIP3   OH240087   5.257   1.849  15.899  0.0631 -0.1099 -0.4093
 6199TIP3    H140088   5.269   1.773  15.956  0.2543 -0.0001 -0.3006
 6199TIP3    H240089   5.224   1.917  15.956  2.2172  0.6412  0.0460
 6200TIP3   OH240090   6.711   0.075  13.436 -0.0174 -0.3161  0.1115
 6200TIP3    H140091   6.703   0.133  13.513  1.9398  0.3976 -0.1629
 6200TIP3    H240092   6.697   0.133  13.361  0.0029 -0.6008 -0.1123
 6201TIP3   OH240093   4.368   0.197  15.744  0.0865 -0.4709  0.7225
 6201TIP3    H140094   4.341   0.156  15.826  1.1925 -2.0407  0.3493
 6201TIP3    H240095   4.287   0.223  15.701 -0.5161  0.2196  2.2164
 6202TIP3   OH240096   4.749   0.559   6.204 -0.0868  0.0022  0.5639
 6202TIP3    H140097   4.820   0.537   6.144  0.5561  1.9120  0.5722
 6202TIP3    H240098   4.790   0.616   6.269 -1.4860  0.6008  0.9445
 6203TIP3   OH240099   3.974   0.002   4.644 -0.2885 -0.0260  0.4032
 6203TIP3    H140100   4.046   0.064   4.635 -0.4206  0.2986  1.5046
 6203TIP3    H240101   3.936   0.021   4.730 -0.5216 -1.4270  0.6298
 6204TIP3   OH240102   5.771   1.761  14.767  0.1216 -0.1847 -0.6690
 6204TIP3    H140103   5.789   1.750  14.860  1.0981 -0.6805 -0.8958
 6204TIP3    H240104   5.771   1.855  14.753  1.4610 -0.1270 -0.4179
 6205TIP3   OH240105   1.314   2.365  16.958 -0.4350  0.1537  0.4673
 6205TIP3    H140106   1.239   2.324  17.002 -2.9845  2.3588 -1.4357
 6205TIP3    H240107   1.289   2.366  16.866  0.3855  3.8200  0.1351
 6206TIP3   OH240108   5.111   5.024   1.914 -0.2429  0.4344 -0.1411
 6206TIP3    H140109   5.170   5.062   1.848  0.3526  0.5924  0.4706
 6206TIP3    H240110   5.112   4.930   1.895  0.1116  0.4512 -0.2161
 6207TIP3   OH240111   1.480   1.851   4.395 -0.1368 -0.1542 -0.7795
 6207TIP3    H140112   1.464   1.943   4.371  0.3671  0.3557  0.6769
 6207TIP3    H240113   1.532   1.857   4.475  0.9196 -1.7294 -1.3105
 6208TIP3   OH240114   1.406   0.991  12.998 -0.0485 -0.4469  0.1885
 6208TIP3    H140115   1.357   0.911  13.017 -0.5348 -0.1383  0.2635
 6208TIP3    H240116   1.412   0.994  12.902  1.1423 -1.2564  0.2177
 6209TIP3   OH240117   1.208   5.560  15.034 -0.1558 -0.6735 -0.7788
 6209TIP3    H140118   1.139   5.529  14.976 -2.6442  0.0980  1.5544
 6209TIP3    H240119   1.244   5.480  15.074 -0.7180 -1.0281 -0.9667
 6210TIP3   OH240120   2.430   1.292  14.505 -0.0289  0.1745  0.2103
 6210TIP3    H140121   2.464   1.343  14.578 -0.1767 -0.3162  0.6343
 6210TIP3    H240122   2.336   1.309  14.505 -0.0150  0.2538  0.0675
 6211TIP3   OH240123   4.298   4.137   4.081  0.5038 -0.0796 -0.2343
 6211TIP3    H140124   4.311   4.134   4.175 -1.2666  1.0191  0.1104
 6211TIP3    H240125   4.351   4.211   4.051 -1.5882  1.8826  0.5334
 6212TIP3   OH240126   5.894   3.930   2.941  0.4993 -0.4947 -0.0028
 6212TIP3    H140127   5.929   3.904   3.027  1.0148  2.1450  0.6608
 6212TIP3    H240128   5.820   3.986   2.961 -1.1792 -2.0862 -1.3885
 6213TIP3   OH240129   0.877   4.743   4.579  0.0975 -0.2221 -0.1104
 6213TIP3    H140130   0.791   4.701   4.578 -0.3452  0.6413 -1.1641
 6213TIP3    H240131   0.938   4.674   4.603 -0.7511 -1.1691 -0.6202
 6214TIP3   OH240132   0.308   3.286   1.016 -0.8307 -0.7306  0.3365
 6214TIP3    H140133   0.280   3.341   0.943  0.2956 -0.6760 -0.0801
 6214TIP3    H240134   0.256   3.315   1.091 -0.6649  0.5055 -0.0135
 6215TIP3   OH240135   2.742   5.276   1.570  0.1780 -0.0668 -0.1572
 6215TIP3    H140136   2.721   5.285   1.477 -0.9962  1.1064  0.1977
 6215TIP3    H240137   2.793   5.353   1.591  0.5711 -0.4050  0.1419
 6216TIP3   OH240138   4.829   2.985  12.183  0.2827  0.0948 -0.2297
 6216TIP3    H140139   4.875   3.066  12.203  0.2507 -0.3825  2.0644
 6216TIP3    H240140   4.792   2.957  12.267 -2.4492 -0.6412 -1.5720
 6217TIP3   OH240141   1.945   5.635  15.223  0.2500 -0.4487  0.0343
 6217TIP3    H140142   1.899   5.601  15.300  1.1277  0.9743  1.2398
 6217TIP3    H240143   1.961   5.727  15.243  0.0688  0.0971 -2.0857
 6218TIP3   OH240144   3.813   0.622   1.616  0.1533 -0.0107  0.1582
 6218TIP3    H140145   3.741   0.559   1.608  0.1944 -0.1457  0.7711
 6218TIP3    H240146   3.883   0.573   1.660  0.5193  0.2009 -0.1866
 6219TIP3   OH240147   6.603   5.664  12.973  0.2564  0.0313  0.0441
 6219TIP3    H140148   6.645   5.749  12.960  0.6330  0.0199  1.0836
 6219TIP3    H240149   6.668   5.600  12.943  1.0758  0.0090  1.7300
 6220TIP3   OH240150   1.674   5.558   1.827 -0.9359 -0.1150 -0.0489
 6220TIP3    H140151   1.608   5.578   1.893 -0.9990  0.5139 -0.2912
 6220TIP3    H240152   1.632   5.580   1.744 -0.7316 -0.5563 -0.2731
 6221TIP3   OH240153   5.500   1.432   5.377 -0.0482  0.3107 -0.2308
 6221TIP3    H140154   5.587   1.400   5.354  0.2120  0.9186 -0.1093
 6221TIP3    H240155   5.441   1.364   5.346  0.5963 -1.3570  2.0238
 6222TIP3   OH240156   0.941   6.018   3.833  0.1979 -0.0120  0.1934
 6222TIP3    H140157   0.993   5.948   3.873 -0.6813 -0.0880  1.2871
 6222TIP3    H240158   0.934   5.994   3.741  1.3706 -0.4314  0.1953
 6223TIP3   OH240159   6.311   6.552   2.766 -0.4692  0.0482 -0.5316
 6223TIP3    H140160   6.322   6.503   2.847 -0.8935  0.2542 -0.3463
 6223TIP3    H240161   6.389   6.607   2.760 -1.1759  1.2015  0.5542
 6224TIP3   OH240162   1.024   5.299   3.035  0.4590 -0.1055 -0.1266
 6224TIP3    H140163   1.014   5.276   2.942 -0.6288 -1.2324  0.2314
 6224TIP3    H240164   1.025   5.394   3.036  0.1586 -0.0712 -1.2741
 6225TIP3   OH240165   1.486   5.512   3.779  0.4581 -0.0995  0.2348
 6225TIP3    H140166   1.417   5.492   3.716  1.3152  1.9784 -1.4703
 6225TIP3    H240167   1.563   5.469   3.744  0.4546 -0.9446  1.2043
 6226TIP3   OH240168   4.559   5.032  16.009  0.1703 -0.3880 -0.4394
 6226TIP3    H140169   4.527   4.946  15.984  0.4815 -0.4744 -0.5432
 6226TIP3    H240170   4.624   5.055  15.942 -0.0342  0.0009 -0.5069
 6227TIP3   OH240171   0.944   0.903  16.960 -0.2330  0.1096 -0.6453
 6227TIP3    H140172   0.946   0.846  17.037 -0.4451  1.3223  0.2970
 6227TIP3    H240173   1.020   0.961  16.971 -0.1071  0.1246 -1.4972
 6228TIP3   OH240174   3.562   4.186  16.368 -0.7272 -0.7372 -0.3290
 6228TIP3    H140175   3.528   4.140  16.445 -0.3183  1.4650  1.2432
 6228TIP3    H240176   3.523   4.273  16.372  2.6674  0.9392 -0.0915
 6229TIP3   OH240177   2.805   1.486  15.203  0.1563 -0.0704 -0.1588
 6229TIP3    H140178   2.728   1.493  15.259 -1.1390  1.3292 -1.9958
 6229TIP3    H240179   2.877   1.517  15.258 -0.9395  0.6279  0.9543
 6230TIP3   OH240180   6.127   3.480  11.477  0.2035  0.1343 -0.7283
 6230TIP3    H140181   6.200   3.523  11.522  0.2683  0.1689 -0.8630
 6230TIP3    H240182   6.136   3.388  11.500 -1.2496  0.4647  1.3718
 6231TIP3   OH240183   3.182   4.555   2.051  0.2495  0.0228  0.0081
 6231TIP3    H140184   3.200   4.488   1.985 -0.7787 -0.3701  0.1150
 6231TIP3    H240185   3.178   4.637   2.002  1.0822 -0.0346 -0.1814
 6232TIP3   OH240186   3.478   0.229  11.193  0.0801  0.0539 -0.7327
 6232TIP3    H140187   3.509   0.292  11.128 -0.0363  0.2780 -0.5752
 6232TIP3    H240188   3.400   0.271  11.230  1.1795  0.7789  0.8608
 6233TIP3   OH240189   0.257   3.088  12.084 -0.0460 -0.0028 -0.5046
 6233TIP3    H140190   0.228   3.021  12.022  1.4275 -0.3146 -0.8882
 6233TIP3    H240191   0.345   3.061  12.109  0.2111  1.2871  0.0641
 6234TIP3   OH240192   6.394   4.566  11.354  0.1205  0.1829  0.3321
 6234TIP3    H140193   6.454   4.609  11.294  1.4364 -2.2278 -0.1876
 6234TIP3    H240194   6.307   4.585  11.319  0.7616  0.6555 -1.0644
 6235TIP3   OH240195   5.294   2.311   1.815  0.3050 -0.2943 -0.0441
 6235TIP3    H140196   5.241   2.328   1.738 -1.3594 -2.9516  0.3873
 6235TIP3    H240197   5.384   2.312   1.783 -0.0814  2.0994 -1.2542
 6236TIP3   OH240198   0.399   6.805  11.750 -0.3571  0.1372  0.4163
 6236TIP3    H140199   0.414   6.802  11.845 -0.0824 -1.5123  0.3412
 6236TIP3    H240200   0.365   6.718  11.728  1.4363 -0.2077 -1.2972
 6237TIP3   OH240201   3.176   0.562  10.822 -0.1329  0.1957  0.6322
 6237TIP3    H140202   3.219   0.490  10.776  2.1878  1.6666  0.3675
 6237TIP3    H240203   3.139   0.616  10.751 -1.6038 -0.5258  0.8166
 6238TIP3   OH240204   1.664   4.969  10.762  0.1435  0.5333 -0.6836
 6238TIP3    H140205   1.588   4.911  10.765  0.0290  0.6375 -1.2534
 6238TIP3    H240206   1.739   4.912  10.779  0.0758  0.1155 -1.6898
 6239TIP3   OH240207   5.253   1.079   4.171 -0.7650  0.0425 -0.3013
 6239TIP3    H140208   5.297   1.021   4.233 -1.3033  0.9526  0.9945
 6239TIP3    H240209   5.222   1.021   4.102  3.1819 -0.5610 -1.8354
 6240TIP3   OH240210   3.910   4.256   4.699  0.3709  0.4727 -0.2883
 6240TIP3    H140211   4.003   4.262   4.721  0.1609 -1.3889  1.3732
 6240TIP3    H240212   3.891   4.162   4.697 -1.1832  0.7695 -2.0047
 6241TIP3   OH240213   2.675   6.814   3.214  0.1211  0.1979  0.1821
 6241TIP3    H140214   2.629   6.839   3.294  0.0091  0.9779 -0.1240
 6241TIP3    H240215   2.656   6.883   3.151  1.8462  0.6477  0.0962
 6242TIP3   OH240216   6.375   6.306  16.055  0.0820 -0.4109 -0.0309
 6242TIP3    H140217   6.433   6.236  16.023  0.3660 -0.3169  0.2711
 6242TIP3    H240218   6.425   6.349  16.124 -1.1881 -1.7492  1.8180
 6243TIP3   OH240219   4.428   0.939   5.329  0.2342  0.2703  0.3515
 6243TIP3    H140220   4.398   1.029   5.319 -0.4925 -0.0466 -0.4237
 6243TIP3    H240221   4.348   0.887   5.325  0.6381 -0.4026  0.9305
 6244TIP3   OH240222   4.503   1.084  10.867 -0.2340  0.0697  0.3161
 6244TIP3    H140223   4.478   1.045  10.783 -2.9927  1.4093  0.3895
 6244TIP3    H240224   4.555   1.017  10.911 -1.5118 -1.9546 -1.1227
 6245TIP3   OH240225   5.190   5.263  17.107 -0.0235 -0.6174  0.1935
 6245TIP3    H140226   5.195   5.167  17.114  0.6560 -0.4749  2.7342
 6245TIP3    H240227   5.251   5.285  17.037 -0.0019 -2.0373 -0.2701
 6246TIP3   OH240228   2.252   2.681  13.372 -0.0113  0.6163 -0.3965
 6246TIP3    H140229   2.210   2.764  13.391 -0.8679  0.5980 -2.0479
 6246TIP3    H240230   2.260   2.679  13.277  1.4367 -0.5061 -0.2862
 6247TIP3   OH240231   1.090   4.145   2.697  0.3992 -0.1607 -0.1366
 6247TIP3    H140232   1.170   4.196   2.679 -0.1919  0.9576  0.3062
 6247TIP3    H240233   1.038   4.202   2.754 -0.9765 -0.6307 -0.8777
 6248TIP3   OH240234   3.912   1.520   4.886  0.2179  0.5852  0.3007
 6248TIP3    H140235   3.883   1.590   4.828 -0.8253  1.3807  1.7282
 6248TIP3    H240236   3.992   1.486   4.845 -0.2336  1.4027 -1.3414
 6249TIP3   OH240237   0.638   1.617  12.180 -0.1156  0.2174  0.8271
 6249TIP3    H140238   0.696   1.675  12.227  0.6277 -0.2695  0.5281
 6249TIP3    H240239   0.550   1.644  12.206  0.2202  1.4085  0.7540
 6250TIP3   OH240240   3.051   3.594  11.427  0.7159 -0.2836  0.3486
 6250TIP3    H140241   3.126   3.536  11.440  0.9668  0.5088  2.8519
 6250TIP3    H240242   3.079   3.679  11.461  0.6360  1.7029 -3.9087
 6251TIP3   OH240243   0.355   4.303   2.795  0.0420 -0.4352 -0.5781
 6251TIP3    H140244   0.447   4.326   2.805  0.2916 -0.4213 -2.4424
 6251TIP3    H240245   0.346   4.218   2.839  0.6787  0.0573  0.5286
 6252TIP3   OH240246   1.406   6.632   1.408  0.0947 -0.6876  0.0008
 6252TIP3    H140247   1.353   6.613   1.485  0.4036 -2.0337 -0.0901
 6252TIP3    H240248   1.491   6.660   1.444 -0.0112 -0.5576  0.1493
 6253TIP3   OH240249   6.099   0.775   3.778 -0.1409 -0.8580 -0.0541
 6253TIP3    H140250   6.189   0.774   3.746  0.6604 -0.6930  2.0520
 6253TIP3    H240251   6.088   0.690   3.820  0.0291  0.1509  2.1550
 6254TIP3   OH240252   1.961   4.879  15.542  0.4244 -0.3177  0.0804
 6254TIP3    H140253   2.013   4.956  15.521  0.9302 -0.4625  0.7403
 6254TIP3    H240254   1.971   4.869  15.637 -0.7280 -0.4163  0.2000
 6255TIP3   OH240255   6.485   6.419  14.302 -0.1826  0.8172 -0.1860
 6255TIP3    H140256   6.500   6.405  14.209 -1.9116  2.1612 -0.6977
 6255TIP3    H240257   6.553   6.365  14.345  2.0816  1.8771 -2.2062
 6256TIP3   OH240258   1.111   3.924  16.455  0.0463 -0.1994 -0.4065
 6256TIP3    H140259   1.060   3.986  16.402 -0.4984  1.6097  2.0636
 6256TIP3    H240260   1.046   3.862  16.488  0.3000 -0.9800 -1.3177
 6257TIP3   OH240261   2.975   6.258   4.271 -0.3442 -0.3931  0.0251
 6257TIP3    H140262   2.999   6.295   4.355 -1.9425 -1.6263  1.0816
 6257TIP3    H240263   3.015   6.316   4.206  2.4604 -0.4267  1.5964
 6258TIP3   OH240264   3.629   3.647   2.212 -0.1379  0.4338 -0.2214
 6258TIP3    H140265   3.614   3.695   2.131 -0.0337  0.4068 -0.2566
 6258TIP3    H240266   3.719   3.617   2.206 -0.1487  0.3802 -0.1221
 6259TIP3   OH240267   2.452   5.487  13.435 -0.1590 -0.0229  0.2352
 6259TIP3    H140268   2.359   5.466  13.435  0.5026 -3.6400 -0.2226
 6259TIP3    H240269   2.493   5.413  13.479  2.5323  1.4150  0.3351
 6260TIP3   OH240270   0.264   3.186  11.254 -0.1236  0.7632  0.3835
 6260TIP3    H140271   0.174   3.201  11.226  0.0327  1.2926  0.1371
 6260TIP3    H240272   0.313   3.176  11.172 -0.1296 -0.6498  0.5320
 6261TIP3   OH240273   6.641   3.895   4.158  0.2443 -0.1671 -0.3962
 6261TIP3    H140274   6.703   3.949   4.207  1.1755 -2.6893  1.4021
 6261TIP3    H240275   6.693   3.823   4.125 -1.4685 -1.6407 -0.0213
 6262TIP3   OH240276   2.813   0.285   1.777  0.3822  0.1807 -0.5292
 6262TIP3    H140277   2.774   0.372   1.773 -0.1694 -0.0490 -0.2480
 6262TIP3    H240278   2.908   0.301   1.772  0.2457  0.6907 -2.0442
 6263TIP3   OH240279   5.490   6.343   1.936 -0.5036 -0.6174  0.1885
 6263TIP3    H140280   5.548   6.380   1.870 -1.2961  2.0017  0.8487
 6263TIP3    H240281   5.545   6.278   1.981  0.9838 -0.2983 -1.0582
 6264TIP3   OH240282   2.658   1.525  13.742  0.3357 -0.0461  0.6055
 6264TIP3    H140283   2.634   1.524  13.649 -0.3205 -2.3357  0.7308
 6264TIP3    H240284   2.596   1.587  13.782  1.2444  1.6975 -0.5700
 6265TIP3   OH240285   5.586   4.563  16.116 -0.0594 -0.4786 -0.0084
 6265TIP3    H140286   5.663   4.604  16.077  0.5338 -1.4602  0.0923
 6265TIP3    H240287   5.590   4.585  16.209 -0.9126  0.9956 -0.2867
 6266TIP3   OH240288   3.455   4.960  16.597  0.1541 -0.2845  0.8302
 6266TIP3    H140289   3.518   5.003  16.654  0.5907 -0.6803  0.6490
 6266TIP3    H240290   3.461   4.867  16.620 -1.5542 -0.1508  1.9926
 6267TIP3   OH240291   5.748   1.467   6.115  0.0893 -0.5654  0.4018
 6267TIP3    H140292   5.732   1.528   6.186  2.2598  0.1417  0.3683
 6267TIP3    H240293   5.806   1.401   6.153 -0.5416 -1.4468 -0.1270
 6268TIP3   OH240294   1.816   3.409   2.267 -0.1664 -0.3549  0.2853
 6268TIP3    H140295   1.773   3.333   2.228 -0.5094  0.8332 -1.8203
 6268TIP3    H240296   1.891   3.426   2.210 -1.2120  2.0112 -0.5274
 6269TIP3   OH240297   0.848   5.929  13.704  0.3031  0.0363  0.3581
 6269TIP3    H140298   0.809   5.985  13.637  1.0064  0.5121  0.3278
 6269TIP3    H240299   0.929   5.897  13.664 -0.3665 -1.4828  0.1634
 6270TIP3   OH240300   3.574   1.364   4.727  0.4688 -0.0259  0.0051
 6270TIP3    H140301   3.629   1.395   4.799  0.8765  0.0151 -0.3209
 6270TIP3    H240302   3.634   1.357   4.652 -0.0681  0.5340 -0.4973
 6271TIP3   OH240303   5.010   1.884   0.736 -0.2156 -0.2518  0.4267
 6271TIP3    H140304   5.087   1.940   0.739 -0.4376  0.2647 -1.7290
 6271TIP3    H240305   4.967   1.897   0.820  1.8627 -0.3435  1.5851
 6272TIP3   OH240306   2.501   1.357  12.035 -0.6487 -0.3391 -0.0822
 6272TIP3    H140307   2.573   1.420  12.042  0.4100 -1.4562 -0.5336
 6272TIP3    H240308   2.440   1.383  12.104 -0.0853  0.9684 -0.0485
 6273TIP3   OH240309   1.117   3.116   6.429  0.4413  0.2453 -0.3393
 6273TIP3    H140310   1.100   3.122   6.335 -0.5858  1.2441 -0.1078
 6273TIP3    H240311   1.104   3.023   6.450 -0.9900  0.2944 -0.9043
 6274TIP3   OH240312   0.498   6.589  11.516  0.2655  0.0549 -0.1907
 6274TIP3    H140313   0.518   6.590  11.610  0.9905  0.2461 -0.3426
 6274TIP3    H240314   0.423   6.530  11.509  0.0357  0.2437  0.5434
 6275TIP3   OH240315   0.849   3.559  13.253  0.3864  0.1937 -0.0736
 6275TIP3    H140316   0.871   3.523  13.167 -0.3406  1.6269 -0.9011
 6275TIP3    H240317   0.902   3.639  13.260 -0.1615  0.5245  0.4365
 6276TIP3   OH240318   1.961   4.401  16.867 -0.1104  0.2727 -0.1124
 6276TIP3    H140319   1.924   4.448  16.942 -0.5875 -0.7411  0.3141
 6276TIP3    H240320   1.885   4.356  16.829 -0.2747  2.2958 -2.4098
 6277TIP3   OH240321   3.903   1.463   1.313 -0.0456 -0.6108  0.0470
 6277TIP3    H140322   3.841   1.516   1.263 -0.6536  0.4124  1.8167
 6277TIP3    H240323   3.988   1.505   1.298 -0.2394 -0.2441 -0.0328
 6278TIP3   OH240324   4.957   0.919   1.680  0.4062  0.1541 -0.2986
 6278TIP3    H140325   4.933   0.857   1.611  0.3436  0.4639 -0.5631
 6278TIP3    H240326   5.025   0.973   1.640 -1.1483  1.7512 -0.9038
 6279TIP3   OH240327   3.517   6.651   5.419  0.1270  0.1423 -0.4141
 6279TIP3    H140328   3.464   6.673   5.342  2.4043  0.4973 -1.9908
 6279TIP3    H240329   3.564   6.732   5.440  0.8577 -0.4335  0.2322
 6280TIP3   OH240330   5.898   4.050  14.139 -0.1258 -0.4492 -0.0358
 6280TIP3    H140331   5.851   4.102  14.205 -1.7808 -1.0388 -0.6871
 6280TIP3    H240332   5.915   4.112  14.067 -3.0568 -0.9107 -1.2851
 6281TIP3   OH240333   4.372   1.967  14.639 -0.3021 -0.0462  0.5414
 6281TIP3    H140334   4.445   2.028  14.645 -0.9039  0.8155 -0.6012
 6281TIP3    H240335   4.400   1.902  14.574 -0.2265 -0.2135  0.7362
 6282TIP3   OH240336   5.712   0.441   6.490 -0.6848  0.3336 -0.4576
 6282TIP3    H140337   5.702   0.532   6.518  1.6509  0.3384  0.5473
 6282TIP3    H240338   5.747   0.447   6.401 -0.0690  0.4557 -0.2150
 6283TIP3   OH240339   6.439   2.359  14.054  0.5032  0.1970 -0.2311
 6283TIP3    H140340   6.478   2.375  13.969  0.6109 -1.1424 -0.4644
 6283TIP3    H240341   6.423   2.446  14.091 -1.4715  0.8906 -2.4726
 6284TIP3   OH240342   1.610   1.698   5.459 -0.6238  0.5272  0.2131
 6284TIP3    H140343   1.655   1.621   5.424 -1.1765  0.5027 -0.4548
 6284TIP3    H240344   1.662   1.772   5.429 -0.7023  0.4692 -0.0688
 6285TIP3   OH240345   1.953   0.460   0.495  0.3450  0.3909 -0.1199
 6285TIP3    H140346   2.015   0.464   0.568  0.4770 -1.2282 -0.1166
 6285TIP3    H240347   2.007   0.466   0.417  0.3793  0.1937 -0.1097
 6286TIP3   OH240348   1.659   4.892  12.234 -0.4442 -0.2261 -0.2855
 6286TIP3    H140349   1.600   4.826  12.199  1.2050 -2.3230  0.6907
 6286TIP3    H240350   1.746   4.864  12.207  0.4091  0.9892  1.0380
 6287TIP3   OH240351   4.953   2.807  11.783  0.0590  0.7823 -0.3559
 6287TIP3    H140352   4.998   2.881  11.823 -1.3457  1.0017  0.9421
 6287TIP3    H240353   4.883   2.786  11.845 -0.8243 -0.3361 -1.6682
 6288TIP3   OH240354   3.349   0.079   4.951  0.5060  0.2419 -0.4970
 6288TIP3    H140355   3.390   0.157   4.913  1.2757 -0.0044 -0.1974
 6288TIP3    H240356   3.319   0.028   4.876  0.6751  0.4716 -0.7200
 6289TIP3   OH240357   0.208   2.847   1.721  0.2481 -0.0746 -0.4227
 6289TIP3    H140358   0.196   2.820   1.812  1.4526 -0.6868 -0.4345
 6289TIP3    H240359   0.139   2.801   1.673  1.2852 -1.9298 -0.2115
 6290TIP3   OH240360   5.524   0.806   3.570  0.0921 -0.0010  0.1985
 6290TIP3    H140361   5.585   0.751   3.618 -1.1953 -1.2658  0.4259
 6290TIP3    H240362   5.494   0.751   3.497  0.1205  1.0182 -0.6085
 6291TIP3   OH240363   3.944   2.331  16.060 -0.0445 -0.6637 -0.7409
 6291TIP3    H140364   3.917   2.405  16.006 -0.3040  1.1309  1.6894
 6291TIP3    H240365   3.977   2.370  16.141 -0.7033 -3.2094  0.8884
 6292TIP3   OH240366   0.128   1.766  12.107  0.3002 -0.7804 -0.0965
 6292TIP3    H140367   0.126   1.689  12.050 -0.7423 -1.0598  0.2905
 6292TIP3    H240368   0.171   1.736  12.187 -1.1490 -1.3168  0.5125
 6293TIP3   OH240369   4.412   1.917  11.171  0.8598 -0.8905  0.9223
 6293TIP3    H140370   4.362   1.995  11.192  1.1961 -1.0244  2.2834
 6293TIP3    H240371   4.502   1.948  11.159  1.0016 -1.0564  1.5033
 6294TIP3   OH240372   5.657   6.680   3.812  0.0724  0.2460  0.4189
 6294TIP3    H140373   5.723   6.615   3.836  0.1312  0.0759 -0.1844
 6294TIP3    H240374   5.585   6.666   3.874 -0.0122 -0.5473  0.1420
 6295TIP3   OH240375   3.043   6.665  14.983 -0.0031  0.2084  0.2781
 6295TIP3    H140376   3.128   6.648  14.942 -0.0562  1.0661 -0.2034
 6295TIP3    H240377   2.979   6.639  14.918 -0.1248 -0.7706  0.7764
 6296TIP3   OH240378   1.024   5.238  15.044 -0.1592  0.2265  0.0475
 6296TIP3    H140379   0.970   5.191  14.981 -0.8635  1.4113 -0.2732
 6296TIP3    H240380   1.110   5.195  15.041 -0.5713 -0.5466 -0.7501
 6297TIP3   OH240381   2.181   4.213  11.761 -0.1075  0.0685  0.0255
 6297TIP3    H140382   2.220   4.299  11.746 -1.0722  0.9001  1.9319
 6297TIP3    H240383   2.221   4.182  11.842 -1.5096 -0.1822  0.6532
 6298TIP3   OH240384   0.094   3.058  11.494  0.3735 -0.4409  0.1236
 6298TIP3    H140385   0.080   3.102  11.578 -2.2159 -0.1902 -0.3362
 6298TIP3    H240386   0.095   3.128  11.429 -1.3083 -0.8273 -0.3714
 6299TIP3   OH240387   3.446   2.049  15.298  0.3371  0.3705  0.5484
 6299TIP3    H140388   3.532   2.009  15.308 -0.2948 -1.1459  0.2317
 6299TIP3    H240389   3.433   2.099  15.379  1.9998  1.6559  0.0690
 6300TIP3   OH240390   2.912   5.759  17.196  0.6071  0.2093 -0.0278
 6300TIP3    H140391   3.005   5.742  17.179  0.6791 -0.3020  0.8068
 6300TIP3    H240392   2.867   5.681  17.164  0.6756 -0.4444  1.4030
 6301TIP3   OH240393   6.071   0.915  13.972 -0.5027  0.0897  0.0854
 6301TIP3    H140394   6.026   0.870  13.900  1.7157 -1.3402 -0.5163
 6301TIP3    H240395   6.048   0.864  14.050 -1.4948  0.5943  0.1475
 6302TIP3   OH240396   3.698   4.837  11.553 -0.0110  0.3063 -0.1357
 6302TIP3    H140397   3.613   4.800  11.577  0.0501 -0.1272 -0.5641
 6302TIP3    H240398   3.723   4.890  11.628 -0.0963 -0.5420  0.5054
 6303TIP3   OH240399   4.299   5.186  11.463 -0.3148 -0.4470  0.5695
 6303TIP3    H140400   4.247   5.264  11.481  0.3127  0.4399 -1.2210
 6303TIP3    H240401   4.307   5.142  11.548 -0.6883  1.4324  1.6294
 6304TIP3   OH240402   1.502   2.185   0.263  0.2877 -0.4971 -0.3658
 6304TIP3    H140403   1.486   2.116   0.327 -1.0955  0.5528  0.4927
 6304TIP3    H240404   1.414   2.213   0.236  0.8352 -0.0863 -1.8252
 6305TIP3   OH240405   5.147   0.534   3.294  0.6145  0.1541 -0.3325
 6305TIP3    H140406   5.110   0.621   3.282  1.0082  0.1468 -1.7204
 6305TIP3    H240407   5.105   0.480   3.227  1.5939 -0.3323 -0.5746
 6306TIP3   OH240408   4.826   1.083  13.835 -0.0319 -0.0375 -0.7266
 6306TIP3    H140409   4.872   1.112  13.756 -1.2582 -0.3698 -1.5898
 6306TIP3    H240410   4.838   0.988  13.836 -0.9333 -0.1687 -1.1385
 6307TIP3   OH240411   6.150   5.782  15.291  0.1037  0.6325  0.3056
 6307TIP3    H140412   6.186   5.854  15.343 -1.9986  2.7466 -0.9483
 6307TIP3    H240413   6.206   5.778  15.214 -0.2908  1.5990 -0.0475
 6308TIP3   OH240414   2.242   3.795   2.652 -0.1367  0.1435 -0.4891
 6308TIP3    H140415   2.258   3.792   2.557 -0.7759 -1.3546 -0.5752
 6308TIP3    H240416   2.329   3.790   2.691  0.0287 -3.2956 -1.0025
 6309TIP3   OH240417   5.890   2.324  12.605  0.1688  0.1734  0.2534
 6309TIP3    H140418   5.980   2.345  12.582  0.5808  0.1796  1.7911
 6309TIP3    H240419   5.893   2.303  12.698 -1.5619  0.9534  0.5155
 6310TIP3   OH240420   0.013   4.427  14.800 -0.3679 -0.2191 -0.0764
 6310TIP3    H140421  -0.061   4.439  14.741 -0.0149  0.4469 -0.3932
 6310TIP3    H240422  -0.014   4.356  14.858  0.2551 -2.6597 -2.5648
 6311TIP3   OH240423   5.190   4.741  14.745 -0.0307  0.5280  0.0476
 6311TIP3    H140424   5.246   4.664  14.738  1.2852  1.4690 -0.0868
 6311TIP3    H240425   5.183   4.757  14.839 -3.3289 -1.8280  0.3895
 6312TIP3   OH240426   2.611   4.699  13.619 -0.0364  0.5245  0.5542
 6312TIP3    H140427   2.699   4.662  13.613  0.3478  1.5965 -2.5413
 6312TIP3    H240428   2.554   4.623  13.630  1.0770 -0.5367 -0.6341
 6313TIP3   OH240429   3.805   3.229   2.957  0.2555 -0.3805  0.0377
 6313TIP3    H140430   3.821   3.267   2.871  0.2551 -1.4399 -0.4469
 6313TIP3    H240431   3.890   3.192   2.983  0.7300  1.4586  1.2993
 6314TIP3   OH240432   4.464   1.296  13.827  0.1426  0.0468 -0.9217
 6314TIP3    H140433   4.436   1.380  13.791  0.4319 -0.0621 -1.4026
 6314TIP3    H240434   4.510   1.253  13.755  0.2411 -0.4041 -0.5914
 6315TIP3   OH240435   0.471   4.231  14.566 -0.0023  0.3767 -0.0553
 6315TIP3    H140436   0.420   4.236  14.647 -2.1540  0.4658 -1.3397
 6315TIP3    H240437   0.430   4.295  14.508  2.4657  1.4412 -0.7645
 6316TIP3   OH240438   5.885   1.535   6.454 -0.4940  0.5926  0.1053
 6316TIP3    H140439   5.795   1.550   6.424 -0.1441  0.5837 -0.9858
 6316TIP3    H240440   5.921   1.622   6.467  0.1261  0.6771 -1.9192
 6317TIP3   OH240441   0.742   3.170   2.426 -0.1770 -0.0543 -0.7586
 6317TIP3    H140442   0.657   3.173   2.471 -0.9282 -1.2287 -2.0249
 6317TIP3    H240443   0.762   3.261   2.406 -0.0396  0.4675  1.4873
 6318TIP3   OH240444   4.111   3.885  13.117 -0.0149 -0.9300  0.5010
 6318TIP3    H140445   4.105   3.820  13.047  1.2594  1.1112 -1.7042
 6318TIP3    H240446   4.195   3.866  13.160 -0.8646 -2.2762  1.6382
 6319TIP3   OH240447   3.453   3.682   5.225  0.5558 -0.5473 -0.1819
 6319TIP3    H140448   3.535   3.633   5.211  0.8501  0.0111 -0.4685
 6319TIP3    H240449   3.405   3.672   5.143  0.5605 -0.4713 -0.1947
 6320TIP3   OH240450   4.396   1.759  13.348  0.1371  0.0200  0.4112
 6320TIP3    H140451   4.416   1.760  13.441 -0.2980  1.4107  0.5169
 6320TIP3    H240452   4.434   1.677  13.316  0.6340 -0.2906  1.7258
 6321TIP3   OH240453   2.890   3.008  13.102  0.6658 -0.1588  0.4035
 6321TIP3    H140454   2.828   2.936  13.095  1.6545 -0.9394 -0.8128
 6321TIP3    H240455   2.847   3.082  13.058  0.8213 -0.8702 -0.9875
 6322TIP3   OH240456   1.093   0.290  12.226  0.3602 -0.1971 -0.8061
 6322TIP3    H140457   1.142   0.280  12.308  0.5987 -0.8384 -1.0232
 6322TIP3    H240458   1.126   0.371  12.189  0.9309 -0.3881 -0.7226
 6323TIP3   OH240459   3.212   4.225   2.073 -0.2379 -0.8210  0.2938
 6323TIP3    H140460   3.123   4.192   2.085 -0.2358 -1.0440 -0.2723
 6323TIP3    H240461   3.206   4.283   1.997 -0.3144  0.7729  1.4529
 6324TIP3   OH240462   0.642   6.271  12.473 -0.2238 -0.4775  0.2175
 6324TIP3    H140463   0.597   6.355  12.474  0.5276 -0.0496 -0.4167
 6324TIP3    H240464   0.609   6.227  12.394 -0.7777 -0.8723  0.6668
 6325TIP3   OH240465   1.677   4.359  10.547 -0.6784  0.3370 -0.3590
 6325TIP3    H140466   1.648   4.446  10.520  0.0909  0.9849  0.8262
 6325TIP3    H240467   1.598   4.306  10.545 -1.1676  1.0704 -1.0500
 6326TIP3   OH240468   4.671   2.754   3.054  0.1862 -0.2923  0.2038
 6326TIP3    H140469   4.647   2.680   2.998  0.2652  0.0120 -0.2376
 6326TIP3    H240470   4.714   2.816   2.995  1.1027 -0.3614  0.7718
 6327TIP3   OH240471   2.883   0.728   4.690  0.0756  0.1381 -0.4458
 6327TIP3    H140472   2.845   0.659   4.745 -0.2343  1.3821  0.9818
 6327TIP3    H240473   2.966   0.691   4.659  1.3474  0.0870  2.6372
 6328TIP3   OH240474   4.931   6.281  12.182  0.0792  0.6147  0.6006
 6328TIP3    H140475   4.943   6.287  12.087 -1.9539 -0.8653  0.1807
 6328TIP3    H240476   4.881   6.360  12.204 -0.5509  0.3345  0.2073
 6329TIP3   OH240477   0.347   3.230   5.266 -0.3403  0.1762  0.3584
 6329TIP3    H140478   0.411   3.301   5.267 -1.1297  1.0315 -2.4154
 6329TIP3    H240479   0.399   3.150   5.263  0.5536  0.7086  1.2691
 6330TIP3   OH240480   3.018   0.724  12.521 -0.3847  0.2348 -0.0329
 6330TIP3    H140481   3.022   0.790  12.451 -0.8952  1.4673  1.0535
 6330TIP3    H240482   3.090   0.747  12.580 -2.6385  2.1217  2.2273
 6331TIP3   OH240483   5.163   6.547  13.451  0.0890  0.0362 -0.6979
 6331TIP3    H140484   5.209   6.472  13.415 -0.1973  0.2950 -1.6299
 6331TIP3    H240485   5.179   6.617  13.388  1.3110  1.0991  0.7103
 6332TIP3   OH240486   3.796   0.873   1.137 -0.4624  0.4504  0.0259
 6332TIP3    H140487   3.758   0.928   1.068 -0.3358  0.4037 -0.0828
 6332TIP3    H240488   3.747   0.791   1.132 -0.2120  0.3112 -0.2570
 6333TIP3   OH240489   2.296   3.182   4.394  0.1104  0.8631  0.2661
 6333TIP3    H140490   2.221   3.169   4.335 -0.4600 -1.7813  1.4461
 6333TIP3    H240491   2.372   3.159   4.341  0.0507  2.3833 -0.5667
 6334TIP3   OH240492   3.444   3.662   5.708  0.4154  0.1414 -0.5748
 6334TIP3    H140493   3.366   3.614   5.735  0.3974 -0.1745 -1.1877
 6334TIP3    H240494   3.517   3.607   5.734  0.4034 -0.0737 -0.9966
 6335TIP3   OH240495   5.189   1.686  10.596 -0.6279 -0.3675 -0.6298
 6335TIP3    H140496   5.265   1.739  10.620 -0.3946  0.5399 -3.0523
 6335TIP3    H240497   5.225   1.598  10.581 -0.4721 -0.4861  0.3793
 6336TIP3   OH240498   4.296   4.949  15.760  0.4197  0.9879  0.3680
 6336TIP3    H140499   4.338   4.881  15.811 -0.2087 -0.9619 -1.5707
 6336TIP3    H240500   4.244   4.999  15.823 -0.4894 -1.4327  1.6467
 6337TIP3   OH240501   5.107   0.360  13.863 -0.3571  0.3226  0.0676
 6337TIP3    H140502   5.139   0.336  13.950 -0.3681 -0.1451 -0.0551
 6337TIP3    H240503   5.175   0.416  13.827  1.2800 -2.1702 -0.9520
 6338TIP3   OH240504   1.110   0.528   4.247 -0.0293  0.3101  0.0155
 6338TIP3    H140505   1.077   0.440   4.231 -2.2401  0.7743  1.5280
 6338TIP3    H240506   1.196   0.514   4.287  0.8662 -1.0269 -2.2010
 6339TIP3   OH240507   4.925   4.879   1.674 -0.0835 -0.3913 -0.0187
 6339TIP3    H140508   4.880   4.892   1.590  1.2681  1.1246 -0.5524
 6339TIP3    H240509   5.015   4.855   1.650  0.6981  1.4227  0.9561
 6340TIP3   OH240510   3.413   1.697  16.761  0.0572  0.2384 -0.1969
 6340TIP3    H140511   3.426   1.791  16.751 -0.8023  0.3138 -0.7358
 6340TIP3    H240512   3.398   1.665  16.672  0.5481 -0.4458 -0.0387
 6341TIP3   OH240513   6.825   5.976   4.675  0.1702  0.4586 -0.1593
 6341TIP3    H140514   6.753   6.021   4.720  1.1685  1.1514  0.7794
 6341TIP3    H240515   6.784   5.898   4.636 -0.8043  0.0018  1.6741
 6342TIP3   OH240516   1.739   3.224   1.540 -0.1019  0.0129 -0.3445
 6342TIP3    H140517   1.812   3.162   1.549 -0.5190 -0.4241  0.0653
 6342TIP3    H240518   1.768   3.285   1.472  0.5881 -0.2405 -0.2862
 6343TIP3   OH240519   6.705   5.821  13.724  0.2480 -0.0130  0.1625
 6343TIP3    H140520   6.624   5.769  13.724 -1.0141  1.7207 -2.5038
 6343TIP3    H240521   6.689   5.889  13.791  0.5934 -1.1064  1.4000
 6344TIP3   OH240522   3.170   3.464  11.888  0.0129 -0.2257  0.1886
 6344TIP3    H140523   3.160   3.380  11.843 -0.9812 -0.1509  0.2429
 6344TIP3    H240524   3.236   3.510  11.837 -0.6779 -0.3732 -0.8699
 6345TIP3   OH240525   4.908   2.993  17.060 -0.6624 -0.1705 -0.0078
 6345TIP3    H140526   4.863   3.067  17.100 -0.7061 -0.3725  0.3237
 6345TIP3    H240527   4.838   2.944  17.016 -0.6035  0.0881 -0.3900
 6346TIP3   OH240528   3.149   2.260  16.497 -0.1587  0.0189 -0.1785
 6346TIP3    H140529   3.083   2.272  16.565  0.9869  2.0521  0.6636
 6346TIP3    H240530   3.216   2.205  16.537 -0.7738 -1.0874 -0.6400
 6347TIP3   OH240531   0.950   4.470  15.214 -0.6593 -0.3669 -0.4524
 6347TIP3    H140532   0.985   4.541  15.160 -0.9509 -1.1863 -1.7675
 6347TIP3    H240533   0.856   4.489  15.219 -0.3217  1.1123  1.9842
 6348TIP3   OH240534   4.423   4.378   4.018  0.1117 -0.3953  0.7262
 6348TIP3    H140535   4.392   4.467   4.035 -1.1384 -0.5421 -0.6449
 6348TIP3    H240536   4.517   4.389   4.005 -0.0491  0.7702  0.3606
 6349TIP3   OH240537   5.322   0.938   3.692  0.2506  0.0584  0.3634
 6349TIP3    H140538   5.397   0.892   3.653 -0.1999  0.2779 -0.8168
 6349TIP3    H240539   5.246   0.905   3.644 -0.5814 -1.0019  2.3114
 6350TIP3   OH240540   1.065   1.799  15.082  0.8229  0.1171 -0.0226
 6350TIP3    H140541   1.072   1.746  15.003  0.4953  1.4952 -1.0070
 6350TIP3    H240542   1.152   1.793  15.122 -0.0027 -3.7757  1.7364
 6351TIP3   OH240543   4.771   1.784  12.774 -0.3945  0.5205 -0.4461
 6351TIP3    H140544   4.726   1.703  12.798  0.8645 -0.3119 -0.7652
 6351TIP3    H240545   4.853   1.755  12.735  0.7372  1.9570  0.7001
 6352TIP3   OH240546   1.770   4.464  13.933  0.5889  0.3637  0.0310
 6352TIP3    H140547   1.786   4.542  13.986  1.3627  0.1652  0.0926
 6352TIP3    H240548   1.753   4.395  13.997  1.9207  0.0321  0.0616
 6353TIP3   OH240549   0.409   5.465  15.003  0.1287  0.1332 -0.2286
 6353TIP3    H140550   0.362   5.382  15.006  0.8782 -0.3257 -0.7777
 6353TIP3    H240551   0.374   5.516  15.076 -0.5429 -0.5555 -0.0673
 6354TIP3   OH240552   3.772   6.422  16.914 -0.3633 -0.1850  0.1028
 6354TIP3    H140553   3.859   6.384  16.929  0.1960 -0.4539 -3.1105
 6354TIP3    H240554   3.788   6.516  16.909 -0.6715 -0.0247  1.5745
 6355TIP3   OH240555   1.539   4.489   2.000  0.5474  0.1213  0.0030
 6355TIP3    H140556   1.555   4.397   2.020  0.2743 -0.1753 -1.0509
 6355TIP3    H240557   1.550   4.535   2.083 -0.7309 -1.0373  0.8338
 6356TIP3   OH240558   3.348   5.663   1.593 -0.5306  0.2901 -0.3482
 6356TIP3    H140559   3.340   5.574   1.560 -1.0422  0.8200 -1.7040
 6356TIP3    H240560   3.428   5.697   1.552  0.9783 -0.2562  1.9442
 6357TIP3   OH240561   2.117   2.907   5.570  0.3527 -0.2369 -0.3129
 6357TIP3    H140562   2.189   2.857   5.533  0.0429  0.0172 -1.2991
 6357TIP3    H240563   2.054   2.915   5.498 -0.4394 -0.0391  0.3857
 6358TIP3   OH240564   4.659   1.887  14.444 -0.0428  0.1148  0.4341
 6358TIP3    H140565   4.669   1.929  14.359  1.8028  0.6979  0.8886
 6358TIP3    H240566   4.582   1.830  14.434 -0.7992  1.3322 -1.1112
 6359TIP3   OH240567   2.141   0.221  15.125 -0.2025 -0.1422 -0.2784
 6359TIP3    H140568   2.145   0.305  15.171 -0.5057 -1.0943  1.5981
 6359TIP3    H240569   2.093   0.239  15.045 -3.7990  0.7837  1.8833
 6360TIP3   OH240570   4.461   4.654  11.467  0.5744 -0.0280  0.3570
 6360TIP3    H140571   4.399   4.582  11.453 -0.2481  0.6578  0.4299
 6360TIP3    H240572   4.541   4.625  11.423 -0.0609 -0.5563 -0.4882
 6361TIP3   OH240573   0.548   3.409   3.721  0.3279 -0.4953  0.5758
 6361TIP3    H140574   0.625   3.419   3.665 -0.0178 -2.1103 -0.2548
 6361TIP3    H240575   0.493   3.484   3.699  1.0858 -0.0303  0.2250
 6362TIP3   OH240576   3.412   3.204  11.542 -0.6727 -0.1206  0.1851
 6362TIP3    H140577   3.383   3.148  11.470 -0.1781 -2.6771  1.8571
 6362TIP3    H240578   3.405   3.149  11.620 -0.7463  2.3709  2.0784
 6363TIP3   OH240579   2.383   2.408  14.194 -0.2489  0.3786 -0.5281
 6363TIP3    H140580   2.345   2.398  14.106  0.0032  0.3174 -0.6308
 6363TIP3    H240581   2.367   2.324  14.236 -1.6579  0.8876 -0.0048
 6364TIP3   OH240582   3.219   6.629  11.835 -0.0110  0.1466  0.4802
 6364TIP3    H140583   3.260   6.691  11.775  0.3384  0.6870  1.2645
 6364TIP3    H240584   3.147   6.678  11.875 -0.8538 -0.5061 -0.1903
 6365TIP3   OH240585   1.723   2.382  12.083 -0.2822 -0.0946  0.6513
 6365TIP3    H140586   1.636   2.398  12.046  0.2273  1.5827  0.1242
 6365TIP3    H240587   1.778   2.361  12.008  0.6050  2.6853  0.4135
 6366TIP3   OH240588   2.173   4.796   3.935  0.4674  0.1037  0.1934
 6366TIP3    H140589   2.119   4.728   3.975  1.6433 -0.3189  1.1135
 6366TIP3    H240590   2.110   4.861   3.904 -0.6349 -0.9772  0.0685
 6367TIP3   OH240591   6.599   5.919  12.203 -0.4544 -0.1964 -0.4663
 6367TIP3    H140592   6.527   5.877  12.156 -1.8020 -0.0877  1.3882
 6367TIP3    H240593   6.608   6.004  12.162 -1.5737 -0.1178 -0.5811
 6368TIP3   OH240594   2.757   2.704  12.950  0.0047 -0.3969 -0.1231
 6368TIP3    H140595   2.828   2.742  12.898 -1.1867  0.8257 -0.9084
 6368TIP3    H240596   2.760   2.610  12.929 -1.6461  0.2344 -4.0941
 6369TIP3   OH240597   5.310   2.775   2.043 -0.6070  0.1184 -0.0677
 6369TIP3    H140598   5.257   2.777   2.122  0.2504 -0.1649  0.5367
 6369TIP3    H240599   5.325   2.682   2.027  0.2441  0.2053  0.1586
 6370TIP3   OH240600   0.656   4.370  16.980  0.4617  0.6687  0.0968
 6370TIP3    H140601   0.600   4.296  17.003  0.7818 -0.1865 -1.7109
 6370TIP3    H240602   0.599   4.447  16.988 -0.1490  0.1349  1.0459
 6371TIP3   OH240603   0.505   0.179  13.952  0.2356  0.2159  0.4810
 6371TIP3    H140604   0.509   0.247  13.885  2.4543  0.1635  0.5010
 6371TIP3    H240605   0.434   0.122  13.923 -1.1415  2.0397  0.0281
 6372TIP3   OH240606   2.973   3.727   0.379  0.2620  0.0009  0.6090
 6372TIP3    H140607   2.878   3.731   0.363  0.4120  1.8119 -0.0278
 6372TIP3    H240608   2.998   3.639   0.350 -1.1332 -0.3274  0.3024
 6373TIP3   OH240609   6.558   2.118  13.755  0.3897  0.0578 -0.3681
 6373TIP3    H140610   6.521   2.206  13.764 -0.5338 -0.2238 -1.2215
 6373TIP3    H240611   6.498   2.061  13.804 -0.3993 -0.4101 -1.8003
 6374TIP3   OH240612   3.391   3.905  14.068  0.2596 -0.7823 -0.4053
 6374TIP3    H140613   3.453   3.879  13.999  1.6969  0.1904  0.4584
 6374TIP3    H240614   3.344   3.824  14.089  2.2059 -1.9178 -0.1708
 6375TIP3   OH240615   5.131   2.137  15.990 -0.2330 -0.3381  0.2787
 6375TIP3    H140616   5.086   2.111  15.909 -0.4052  1.9044 -0.4141
 6375TIP3    H240617   5.063   2.179  16.043 -0.0186 -1.3920  1.4362
 6376TIP3   OH240618   1.230   2.654   5.391 -0.0238 -0.0618  0.2361
 6376TIP3    H140619   1.165   2.698   5.446  1.7326  1.9796  0.8122
 6376TIP3    H240620   1.308   2.708   5.399  0.3403  0.4977 -4.3969
 6377TIP3   OH240621   2.591   1.211  14.260  0.1782  0.1625  0.2833
 6377TIP3    H140622   2.587   1.211  14.164 -1.1720  1.5042  0.2918
 6377TIP3    H240623   2.503   1.238  14.287  0.4242 -0.5620  1.9252
 6378TIP3   OH240624   1.038   2.910   4.347  0.1210 -0.1388  0.7025
 6378TIP3    H140625   1.007   2.822   4.325 -0.3378  0.0754  0.4842
 6378TIP3    H240626   1.036   2.957   4.264 -0.1644  0.2388  0.9242
 6379TIP3   OH240627   6.475   3.177  10.696  0.2262 -0.3632  0.6606
 6379TIP3    H140628   6.433   3.175  10.609 -1.4314 -1.6511  1.4365
 6379TIP3    H240629   6.562   3.214  10.679 -0.7551  1.3392 -1.2245
 6380TIP3   OH240630   1.056   2.494  11.040 -0.6412 -0.2441  0.1756
 6380TIP3    H140631   1.048   2.417  11.097 -0.8220  0.9948  1.9049
 6380TIP3    H240632   1.116   2.466  10.971 -0.6657 -1.9223  0.7771
 6381TIP3   OH240633   2.396   5.072  11.614 -0.5131  0.3590 -0.2512
 6381TIP3    H140634   2.479   5.047  11.655 -0.1843 -1.4879 -1.8910
 6381TIP3    H240635   2.331   5.015  11.654 -0.6768  0.5501 -0.2467
 6382TIP3   OH240636   2.986   3.740   2.257 -0.9950 -0.0229  0.5389
 6382TIP3    H140637   3.042   3.664   2.269 -1.9287 -0.8206 -0.0542
 6382TIP3    H240638   3.004   3.770   2.168 -0.6265  0.4613  0.7711
 6383TIP3   OH240639   0.802   5.668   1.845  0.2907 -0.4524  0.1476
 6383TIP3    H140640   0.785   5.706   1.759 -0.4766  3.3974  1.8076
 6383TIP3    H240641   0.715   5.643   1.877  0.3534 -0.2389  0.4834
 6384TIP3   OH240642   0.671   5.486  16.713 -0.9360 -0.1223 -0.2450
 6384TIP3    H140643   0.746   5.428  16.726 -0.8690  0.0267  0.0443
 6384TIP3    H240644   0.595   5.427  16.715 -0.9408 -0.1018  0.9874
 6385TIP3   OH240645   0.069   0.916  16.691 -0.4332  0.4117  0.3307
 6385TIP3    H140646   0.032   0.943  16.775  3.4924  0.0303  2.4251
 6385TIP3    H240647   0.108   0.996  16.655  0.3126  0.0233  0.2634
 6386TIP3   OH240648   6.121   1.410  10.710  0.6450 -0.3097  0.6274
 6386TIP3    H140649   6.126   1.496  10.750 -0.1165 -0.1282  0.3575
 6386TIP3    H240650   6.110   1.427  10.616  2.2901 -0.7241  0.3364
 6387TIP3   OH240651   5.381   2.288   0.979 -0.0376  0.3434 -0.0062
 6387TIP3    H140652   5.444   2.354   1.010  0.3440  0.2104 -0.4923
 6387TIP3    H240653   5.317   2.281   1.050  0.9782 -0.1464  0.8928
 6388TIP3   OH240654   0.475   3.042  13.414  0.1291  0.3812 -0.5255
 6388TIP3    H140655   0.477   3.112  13.479  1.7485  1.4552 -1.6587
 6388TIP3    H240656   0.562   3.044  13.374  0.1080 -2.0868 -0.8247
 6389TIP3   OH240657   3.651   0.733   6.503 -0.8532 -0.2874 -0.1048
 6389TIP3    H140658   3.609   0.805   6.549  0.7655 -0.7166  2.2006
 6389TIP3    H240659   3.581   0.668   6.489 -2.2270  1.4506 -1.8338
 6390TIP3   OH240660   0.826   6.650   2.254  0.7306 -0.0959  0.4431
 6390TIP3    H140661   0.828   6.628   2.161  0.6068  3.1344 -0.4167
 6390TIP3    H240662   0.851   6.742   2.258 -2.1578  0.7310  3.3119
 6391TIP3   OH240663   1.678   0.754   2.592 -0.1542 -0.1032  0.1161
 6391TIP3    H140664   1.702   0.842   2.621  1.2882 -0.5509  0.3576
 6391TIP3    H240665   1.664   0.763   2.498 -0.9864  0.5620  0.2876
 6392TIP3   OH240666   6.572   0.712  16.123  0.3730 -0.1390 -0.7239
 6392TIP3    H140667   6.658   0.729  16.084  0.9229  0.1246  0.5474
 6392TIP3    H240668   6.511   0.721  16.051  1.2967  0.8882 -1.4076
 6393TIP3   OH240669   5.911   1.930   4.639  0.1031  0.7062  0.2760
 6393TIP3    H140670   5.823   1.967   4.644  0.6590  2.0247  1.0692
 6393TIP3    H240671   5.968   2.007   4.631  1.1995 -0.1114 -0.0112
 6394TIP3   OH240672   1.653   6.079   2.673  0.2752  0.5433  0.6629
 6394TIP3    H140673   1.584   6.089   2.608 -0.6152 -0.3243  1.4340
 6394TIP3    H240674   1.721   6.142   2.647 -0.6099  1.1028 -0.3588
 6395TIP3   OH240675   2.154   0.873   3.205  0.1559  0.0823 -0.6902
 6395TIP3    H140676   2.073   0.833   3.173  1.1297 -1.7415 -0.9842
 6395TIP3    H240677   2.209   0.881   3.127  1.5076 -1.8602 -0.0176
 6396TIP3   OH240678   3.984   1.226  10.165 -0.3692  0.2520 -0.4076
 6396TIP3    H140679   3.998   1.165  10.093 -0.1746 -0.6179  0.3355
 6396TIP3    H240680   3.903   1.196  10.207  0.6835 -0.7140  1.0870
 6397TIP3   OH240681   0.176   5.574  10.920  0.2064  0.1214 -0.2634
 6397TIP3    H140682   0.136   5.661  10.925  0.6258  0.3407 -0.5944
 6397TIP3    H240683   0.127   5.529  10.852 -0.8710 -0.3729  0.8063
 6398TIP3   OH240684   6.783   6.009  15.927 -0.0683 -0.4473 -0.2571
 6398TIP3    H140685   6.808   5.922  15.893 -1.4119 -0.1769 -2.1177
 6398TIP3    H240686   6.767   6.061  15.848 -3.0405  0.3515  0.7470
 6399TIP3   OH240687   5.813   3.238   5.392  0.3216  0.4608  0.5921
 6399TIP3    H140688   5.821   3.309   5.328  0.3023  2.1930  2.4069
 6399TIP3    H240689   5.890   3.184   5.379  0.8680  1.4058 -0.1724
 6400TIP3   OH240690   5.533   0.224   2.013 -0.4599 -0.2646 -0.2689
 6400TIP3    H140691   5.602   0.199   2.074 -2.3357 -1.5929  1.4394
 6400TIP3    H240692   5.496   0.303   2.051 -1.6081 -1.0748  0.3553
 6401TIP3   OH240693   4.557   3.643  12.153 -0.0434 -0.3260  0.2213
 6401TIP3    H140694   4.468   3.670  12.132  0.3131 -0.0271 -1.0019
 6401TIP3    H240695   4.550   3.552  12.180 -0.7789 -0.1440  0.6718
 6402TIP3   OH240696   2.284   6.028   4.501  0.4471 -0.5809  0.1556
 6402TIP3    H140697   2.189   6.020   4.505  0.3346  0.6676  0.5199
 6402TIP3    H240698   2.314   5.995   4.586  0.3154 -0.6916  0.1588
 6403TIP3   OH240699   4.377   4.591   3.475 -0.1661 -0.2345 -0.0591
 6403TIP3    H140700   4.402   4.631   3.558 -0.4021  0.0605 -0.1247
 6403TIP3    H240701   4.454   4.599   3.420 -0.1061 -0.1550  0.0352
 6404TIP3   OH240702   3.628   2.019  16.128  0.5719 -0.2099  0.1327
 6404TIP3    H140703   3.543   2.063  16.121  0.6665 -0.0824 -0.2198
 6404TIP3    H240704   3.669   2.058  16.205 -1.1368 -2.7266  2.5227
 6405TIP3   OH240705   2.820   3.130  16.224 -0.1656 -0.3211  0.5619
 6405TIP3    H140706   2.787   3.172  16.145  1.5314 -1.5884 -0.8923
 6405TIP3    H240707   2.746   3.130  16.284 -1.3927  1.0028 -0.8687
 6406TIP3   OH240708   2.958   5.597   1.033  0.5761  0.1258 -0.1144
 6406TIP3    H140709   2.945   5.668   1.096  1.7963 -0.1713  0.4927
 6406TIP3    H240710   2.924   5.631   0.950 -0.1720  0.8699  0.4854
 6407TIP3   OH240711   6.557   6.066   4.460  0.2392  0.2225 -1.0804
 6407TIP3    H140712   6.502   6.007   4.512 -1.0052  1.5304 -0.8648
 6407TIP3    H240713   6.575   6.016   4.380  0.5585 -1.0536 -0.2464
 6408TIP3   OH240714   1.974   6.772   0.674  0.1981  0.6060  0.2039
 6408TIP3    H140715   1.880   6.784   0.661  0.2977  0.9241 -0.2529
 6408TIP3    H240716   2.015   6.844   0.626  0.6877  0.2928  0.1337
 6409TIP3   OH240717   5.770   1.719   3.440  0.6166  0.1495  0.0621
 6409TIP3    H140718   5.825   1.646   3.413  0.8440  0.0558  0.7620
 6409TIP3    H240719   5.774   1.719   3.535 -1.5797 -0.6439  0.2229
 6410TIP3   OH240720   0.598   2.249   2.080 -0.1922  0.1253 -0.3334
 6410TIP3    H140721   0.536   2.194   2.128 -0.0422  0.8689  0.7265
 6410TIP3    H240722   0.659   2.280   2.146 -0.5577  1.9818 -0.8301
 6411TIP3   OH240723   2.067   0.165   3.978 -0.0004 -0.1844  0.1693
 6411TIP3    H140724   2.100   0.247   3.943  0.1071 -0.3758 -0.1785
 6411TIP3    H240725   1.977   0.158   3.945 -0.0280 -0.1819  0.2423
 6412TIP3   OH240726   0.354   3.341  14.410 -0.6849  0.0898 -0.2895
 6412TIP3    H140727   0.398   3.259  14.434  0.4790  1.1092  1.2162
 6412TIP3    H240728   0.271   3.313  14.373 -0.9943 -1.7641  1.6133
 6413TIP3   OH240729   4.397   4.138  11.709  0.2140  0.1363 -0.3207
 6413TIP3    H140730   4.437   4.213  11.665 -0.3764  1.6016  1.5005
 6413TIP3    H240731   4.457   4.065  11.692  2.0793  1.5644 -0.1526
 6414TIP3   OH240732   2.157   0.242  11.837 -0.1076 -0.2726 -0.2870
 6414TIP3    H140733   2.063   0.229  11.841 -0.1578  0.2358  0.3568
 6414TIP3    H240734   2.185   0.245  11.929  0.5378 -0.4626 -0.4719
 6415TIP3   OH240735   6.531   2.687   6.129 -0.0267  0.0271 -0.2093
 6415TIP3    H140736   6.474   2.764   6.123 -0.0715 -0.0387 -0.7446
 6415TIP3    H240737   6.472   2.616   6.155 -0.4957 -0.3323 -2.0911
 6416TIP3   OH240738   5.281   3.526   6.829 -0.3219 -0.2166 -1.0343
 6416TIP3    H140739   5.347   3.469   6.869  1.9230  0.5147 -3.4283
 6416TIP3    H240740   5.306   3.531   6.737 -1.1309  3.5387 -1.2242
 6417TIP3   OH240741   0.630   4.065   0.079 -0.2010  0.0462  0.3127
 6417TIP3    H140742   0.695   3.996   0.076  0.2274  0.3816  1.4296
 6417TIP3    H240743   0.621   4.086   0.172 -2.4596 -0.5163  0.2787
 6418TIP3   OH240744   3.830   0.185   4.428 -0.3040  0.3762  0.4858
 6418TIP3    H140745   3.858   0.160   4.516  0.6826 -0.4981 -0.0553
 6418TIP3    H240746   3.846   0.279   4.424 -0.3733  0.4287  1.2417
 6419TIP3   OH240747   6.245   0.216   3.043  0.2476 -0.3233 -0.1180
 6419TIP3    H140748   6.296   0.171   2.976 -0.2564  0.0039 -0.7445
 6419TIP3    H240749   6.206   0.290   2.997 -0.6311 -0.4549  0.3756
 6420TIP3   OH240750   5.004   2.949   1.994  0.2421 -0.1426 -0.2779
 6420TIP3    H140751   4.996   2.883   2.063 -1.3373 -0.3575 -0.6204
 6420TIP3    H240752   5.052   3.021   2.035  0.2938 -0.7141  0.6973
 6421TIP3   OH240753   6.558   5.375  12.137 -0.3527 -0.2675 -0.7564
 6421TIP3    H140754   6.483   5.417  12.181 -1.1267  0.2638 -2.5007
 6421TIP3    H240755   6.534   5.282  12.132  0.4721 -0.6474  1.3208
 6422TIP3   OH240756   0.095   6.407  16.326 -0.0746  0.3278 -0.1044
 6422TIP3    H140757   0.075   6.350  16.252  0.1779  0.3044 -0.1548
 6422TIP3    H240758   0.027   6.475  16.324  0.1594  0.5504 -0.5882
 6423TIP3   OH240759   4.263   4.916   5.530  0.0156  0.0749  0.3688
 6423TIP3    H140760   4.354   4.897   5.509 -0.3584  0.2286 -1.5497
 6423TIP3    H240761   4.227   4.832   5.558  0.1493 -0.5442 -1.2328
 6424TIP3   OH240762   5.397   4.835   1.885  0.1236  0.7098 -0.2050
 6424TIP3    H140763   5.389   4.920   1.928  0.9216 -0.2365  1.9336
 6424TIP3    H240764   5.360   4.773   1.948 -0.1109 -0.5950 -1.5742
 6425TIP3   OH240765   5.598   2.603   0.002  0.5747  0.7435  0.5135
 6425TIP3    H140766   5.538   2.579   0.074 -0.1247  1.1456  0.0724
 6425TIP3    H240767   5.685   2.594   0.040  0.2491 -0.0440  1.1147
 6426TIP3   OH240768   0.595   0.354   5.283  0.3854 -0.1964  0.1060
 6426TIP3    H140769   0.594   0.448   5.299  0.5632 -0.2997  0.7373
 6426TIP3    H240770   0.507   0.333   5.252 -0.2077 -0.1123  1.6654
 6427TIP3   OH240771   2.880   0.752  13.061 -0.1782 -0.5527 -0.1300
 6427TIP3    H140772   2.807   0.705  13.021  0.1972 -1.4083  0.1801
 6427TIP3    H240773   2.944   0.762  12.991 -0.8981  0.9015 -0.6233
 6428TIP3   OH240774   1.814   4.301   5.831 -0.6214  0.2516  0.3188
 6428TIP3    H140775   1.878   4.239   5.796 -0.1130  1.2924 -0.6745
 6428TIP3    H240776   1.866   4.363   5.883 -1.2528 -0.7273  2.2340
 6429TIP3   OH240777   1.759   0.334  13.857 -0.1877 -0.5747  0.0078
 6429TIP3    H140778   1.820   0.407  13.846 -0.8703 -0.0089 -0.0740
 6429TIP3    H240779   1.815   0.258  13.868  0.5365 -0.0828 -0.2047
 6430TIP3   OH240780   3.724   3.985  14.666 -0.2061  0.1773 -0.0691
 6430TIP3    H140781   3.647   3.982  14.722  0.1093 -0.8613  0.3309
 6430TIP3    H240782   3.742   4.078  14.656 -0.5159  0.4004  1.2214
 6431TIP3   OH240783   6.705   1.490   4.848  0.1043  0.5056  0.2775
 6431TIP3    H140784   6.689   1.570   4.798  0.2530  0.4705  0.1729
 6431TIP3    H240785   6.710   1.421   4.782 -1.5872  0.1583  0.4766
 6432TIP3   OH240786   4.330   3.385   3.684  0.4542 -0.4017 -0.0206
 6432TIP3    H140787   4.257   3.324   3.682  0.6465 -0.6251 -0.3397
 6432TIP3    H240788   4.405   3.333   3.656  0.4140  0.2625 -1.4151
 6433TIP3   OH240789   4.233   2.295   3.623 -0.0737  0.4987 -0.5137
 6433TIP3    H140790   4.172   2.322   3.555 -0.1177  2.0852  0.1104
 6433TIP3    H240791   4.210   2.204   3.642 -1.8290  0.8742 -0.7270
 6434TIP3   OH240792   5.128   2.334   2.893 -1.2157  0.2058  0.5139
 6434TIP3    H140793   5.092   2.292   2.970 -0.0912 -0.3364  0.7623
 6434TIP3    H240794   5.194   2.272   2.860  1.0277  2.0002  1.3207
 6435TIP3   OH240795   1.925   4.711  16.608 -0.1604  0.4646 -0.2365
 6435TIP3    H140796   1.995   4.729  16.670 -1.7714  1.8029  1.3199
 6435TIP3    H240797   1.877   4.638  16.646  1.1044 -1.3734 -1.9870
 6436TIP3   OH240798   6.083   6.444   3.332  0.0585 -0.0518 -0.5092
 6436TIP3    H140799   6.130   6.426   3.414 -0.5128 -1.0905 -0.3890
 6436TIP3    H240800   6.077   6.539   3.328 -0.6055  0.0003  1.0728
 6437TIP3   OH240801   4.183   6.120   1.965 -0.3860 -0.0773 -0.1348
 6437TIP3    H140802   4.117   6.180   1.928 -0.2192  0.4446  0.3942
 6437TIP3    H240803   4.224   6.080   1.888  1.9644  3.0913 -0.7600
 6438TIP3   OH240804   0.767   2.912  13.643  0.5191  0.5133 -0.0068
 6438TIP3    H140805   0.756   2.817  13.651 -1.5344  0.6812 -0.3319
 6438TIP3    H240806   0.801   2.939  13.728  2.4397 -0.6240 -0.3403
 6439TIP3   OH240807   4.991   4.778  17.135 -0.6705  0.3424  0.5677
 6439TIP3    H140808   5.051   4.842  17.173  1.7871 -1.8794  0.7014
 6439TIP3    H240809   4.977   4.714  17.205 -1.1133 -0.5404 -0.2961
 6440TIP3   OH240810   4.999   5.519  13.538  0.3805  0.3851 -0.0651
 6440TIP3    H140811   5.080   5.558  13.570 -1.0557  0.5091  3.9884
 6440TIP3    H240812   5.008   5.426  13.556 -1.0768  0.6570  2.5183
 6441TIP3   OH240813   1.424   2.543  13.198 -0.2003  0.4219 -0.1246
 6441TIP3    H140814   1.421   2.459  13.243 -0.5100  0.8440  0.6654
 6441TIP3    H240815   1.335   2.557  13.166 -0.3435  0.7922  0.4132
 6442TIP3   OH240816   0.039   5.451   6.382  0.3657  0.1375 -0.1219
 6442TIP3    H140817   0.048   5.513   6.309 -2.9540  0.7735 -0.1427
 6442TIP3    H240818  -0.026   5.492   6.440 -1.9141 -3.1906 -0.0599
 6443TIP3   OH240819   5.220   0.917   1.884  0.0126  0.6582 -0.3766
 6443TIP3    H140820   5.163   0.986   1.849 -1.6836 -0.7242 -0.4606
 6443TIP3    H240821   5.269   0.960   1.955  0.2582  2.3503 -1.4958
 6444TIP3   OH240822   6.615   4.542   5.457  0.1105 -0.3687 -0.8310
 6444TIP3    H140823   6.543   4.580   5.406 -1.0891 -0.6950  0.5548
 6444TIP3    H240824   6.694   4.565   5.408 -0.6849  2.4005 -0.9947
 6445TIP3   OH240825   1.890   4.524  12.546  0.8608 -0.5920  0.0039
 6445TIP3    H140826   1.815   4.496  12.493  1.3894  0.7090 -1.5154
 6445TIP3    H240827   1.853   4.585  12.610  0.6852  0.7863 -1.3399
 6446TIP3   OH240828   2.107   6.421  17.083 -0.2249  0.2451 -0.1904
 6446TIP3    H140829   2.053   6.370  17.022  0.0734  1.1651 -1.2519
 6446TIP3    H240830   2.137   6.496  17.032  0.6568  0.6524  0.8847
 6447TIP3   OH240831   3.587   1.426  14.474  0.5109 -0.0606 -0.0842
 6447TIP3    H140832   3.524   1.498  14.476  2.1773  1.5048 -0.9702
 6447TIP3    H240833   3.672   1.469  14.484  1.4943 -2.0425  0.4872
 6448TIP3   OH240834   0.534   6.097  14.121 -0.0730  0.7503 -0.6988
 6448TIP3    H140835   0.487   6.063  14.045  0.4659 -0.7713 -0.3977
 6448TIP3    H240836   0.625   6.073  14.105 -0.2258 -1.5948  1.4063
 6449TIP3   OH240837   1.750   0.181  13.310  0.1104 -0.1921  0.1890
 6449TIP3    H140838   1.724   0.272  13.298 -3.8710 -1.4344 -2.7164
 6449TIP3    H240839   1.701   0.151  13.386  1.2682 -0.0403  1.0271
 6450TIP3   OH240840   0.108   0.535  11.393  0.4541  0.1242  0.0777
 6450TIP3    H140841   0.132   0.446  11.421  3.3864  1.3580  1.9340
 6450TIP3    H240842   0.115   0.532  11.297  1.7648 -1.3473  0.1695
 6451TIP3   OH240843   4.676   5.959  11.638 -0.0646  0.1983 -0.2749
 6451TIP3    H140844   4.586   5.936  11.663 -0.3481  1.3969 -0.1264
 6451TIP3    H240845   4.666   6.037  11.583  0.8242 -0.2379 -1.0779
 6452TIP3   OH240846   3.274   4.418   5.646  0.1205 -0.3781  0.7688
 6452TIP3    H140847   3.198   4.444   5.698 -0.4831 -0.4148 -0.0710
 6452TIP3    H240848   3.340   4.394   5.711 -0.4959 -0.0999  1.5184
 6453TIP3   OH240849   5.104   5.932  10.763  0.3780 -0.9518 -0.3290
 6453TIP3    H140850   5.196   5.951  10.741 -0.0815 -0.7890 -2.2559
 6453TIP3    H240851   5.090   5.843  10.730 -0.3445 -0.7216 -0.6396
 6454TIP3   OH240852   0.690   0.342  11.946  0.3056  0.5223  0.8956
 6454TIP3    H140853   0.753   0.396  11.899  0.7591  0.0814  0.9914
 6454TIP3    H240854   0.625   0.404  11.979  0.7548  0.9889  0.9064
 6455TIP3   OH240855   0.306   2.286   1.279  0.7773  0.3570  0.0961
 6455TIP3    H140856   0.353   2.323   1.204  1.0004  0.3903  0.2521
 6455TIP3    H240857   0.373   2.275   1.346  0.8447 -0.9147 -0.1600
 6456TIP3   OH240858   2.121   6.620   0.077  0.0893  0.2128  0.3571
 6456TIP3    H140859   2.091   6.570   0.001 -0.4106 -0.2456  0.8445
 6456TIP3    H240860   2.167   6.557   0.131  1.4499  0.7780 -0.0795
 6457TIP3   OH240861   4.741   6.448   4.526  0.2329 -0.0003  0.2628
 6457TIP3    H140862   4.656   6.492   4.533  0.8535  0.9939  1.9493
 6457TIP3    H240863   4.793   6.484   4.597  2.6321  0.5954 -1.6594
 6458TIP3   OH240864   0.140   0.156   5.479  0.2969 -0.1796 -0.0061
 6458TIP3    H140865   0.145   0.133   5.387 -2.2417 -0.2593 -0.2145
 6458TIP3    H240866   0.061   0.211   5.485  1.4903  1.4600  1.8164
 6459TIP3   OH240867   5.177   1.714  15.685 -0.2224 -0.5502  0.4451
 6459TIP3    H140868   5.144   1.783  15.627 -0.2264  0.3284  1.4653
 6459TIP3    H240869   5.202   1.760  15.765  0.0785 -1.7019  1.0326
 6460TIP3   OH240870   4.280   1.717   5.490  0.0871 -0.2149  0.5053
 6460TIP3    H140871   4.269   1.632   5.446  0.8869  0.2387 -0.6157
 6460TIP3    H240872   4.308   1.695   5.579  4.4355 -1.1829 -0.8648
 6461TIP3   OH240873   0.623   1.989  10.700 -0.9417 -0.1366 -0.1626
 6461TIP3    H140874   0.623   1.964  10.607 -1.8763 -1.8543  0.2684
 6461TIP3    H240875   0.532   2.014  10.718 -0.3073  2.6093 -0.2494
 6462TIP3   OH240876   4.893   3.244   3.629  0.0908 -0.2224 -0.4846
 6462TIP3    H140877   4.982   3.208   3.635  1.0018  1.4638 -2.5224
 6462TIP3    H240878   4.838   3.168   3.611  0.6062 -1.7234  3.3535
 6463TIP3   OH240879   6.182   5.889   2.923 -0.5578  0.6171  0.2153
 6463TIP3    H140880   6.091   5.913   2.942 -0.9064 -1.1392  0.8827
 6463TIP3    H240881   6.233   5.936   2.989 -1.2628 -0.7348  1.7824
 6464TIP3   OH240882   6.400   6.280  11.672  0.7113  0.5219  0.2004
 6464TIP3    H140883   6.338   6.232  11.727  0.6668 -0.7703 -0.9305
 6464TIP3    H240884   6.345   6.338  11.620  0.6239  0.6755  0.4589
 6465TIP3   OH240885   6.116   5.911   1.478 -0.2039 -0.1854  0.3488
 6465TIP3    H140886   6.054   5.908   1.405  0.5003  2.0708 -0.4071
 6465TIP3    H240887   6.062   5.893   1.555 -1.3229 -0.6797 -0.5035
 6466TIP3   OH240888   3.661   0.052   5.081 -0.1250 -0.1076  0.3145
 6466TIP3    H140889   3.611   0.126   5.047  0.0413 -0.0023  0.2964
 6466TIP3    H240890   3.667   0.069   5.175 -1.6049 -1.0092  0.5862
 6467TIP3   OH240891   3.895   6.192  15.073 -0.3654 -0.5723 -0.0423
 6467TIP3    H140892   3.919   6.155  15.159  0.1506 -1.7847 -0.6866
 6467TIP3    H240893   3.979   6.202  15.028 -0.3855  2.2419  0.3996
 6468TIP3   OH240894   2.684   1.570  15.893 -0.2214  0.2252  0.1982
 6468TIP3    H140895   2.733   1.490  15.874 -0.4750  0.6018 -2.3945
 6468TIP3    H240896   2.623   1.545  15.962  1.9251 -0.8902  1.8375
 6469TIP3   OH240897   3.940   4.096   5.169  0.5931 -0.3521  0.0520
 6469TIP3    H140898   3.890   4.158   5.115  2.0885 -0.7221 -1.8466
 6469TIP3    H240899   3.948   4.018   5.114 -0.1542 -1.8097  1.9147
 6470TIP3   OH240900   0.227   5.190   6.616  0.0198 -0.0856  0.6551
 6470TIP3    H140901   0.241   5.113   6.670  1.2375  0.8371  1.7349
 6470TIP3    H240902   0.201   5.259   6.678  1.7491  1.0784  0.1781
 6471TIP3   OH240903   4.843   6.032   4.475  0.3620  0.2753 -0.0435
 6471TIP3    H140904   4.905   6.025   4.547  0.3542  0.2244 -0.0422
 6471TIP3    H240905   4.820   5.942   4.454 -0.1263  0.3072  0.3180
 6472TIP3   OH240906   3.308   4.484  11.195  0.0338  0.4820 -0.0499
 6472TIP3    H140907   3.335   4.401  11.155 -1.5266  0.4848 -1.2361
 6472TIP3    H240908   3.329   4.550  11.128  1.6471  1.1397  1.0485
 6473TIP3   OH240909   1.444   2.968  10.916  0.2648 -0.1006  0.1981
 6473TIP3    H140910   1.539   2.977  10.908  0.1022  0.9136 -0.9199
 6473TIP3    H240911   1.427   2.877  10.891  0.9865 -0.5153  1.1257
 6474TIP3   OH240912   5.765   2.896   6.022 -0.1541  0.0385  0.4512
 6474TIP3    H140913   5.685   2.875   5.975  0.6084 -2.1288 -0.0279
 6474TIP3    H240914   5.739   2.960   6.088 -2.1373 -0.1776 -0.0655
 6475TIP3   OH240915   3.962   0.517   0.652 -0.1100 -0.4213 -0.3975
 6475TIP3    H140916   3.993   0.478   0.571  1.4936  1.0028 -0.5240
 6475TIP3    H240917   3.883   0.565   0.628  0.3588 -0.0083 -1.1403
 6476TIP3   OH240918   5.873   5.654   3.033 -0.3130 -0.1734  0.5535
 6476TIP3    H140919   5.861   5.559   3.038 -0.3574 -0.3166 -1.5099
 6476TIP3    H240920   5.956   5.670   3.078  1.1096 -1.5690 -1.4131
 6477TIP3   OH240921   3.854   4.472   3.430 -0.0172 -0.1242  0.0631
 6477TIP3    H140922   3.821   4.524   3.503  0.1567  1.2372 -0.7868
 6477TIP3    H240923   3.949   4.480   3.435  0.0091 -0.3142 -0.1050
 6478TIP3   OH240924   4.206   6.113   3.470 -0.3155  0.1936 -0.4221
 6478TIP3    H140925   4.127   6.116   3.417  0.3792 -0.3138 -1.5046
 6478TIP3    H240926   4.272   6.073   3.414 -0.1202 -2.4999  1.5476
 6479TIP3   OH240927   4.232   0.248  13.724 -0.1833  0.1979  0.0436
 6479TIP3    H140928   4.266   0.242  13.814  1.1956  1.6134 -0.3472
 6479TIP3    H240929   4.263   0.332  13.692 -2.6860  0.8152 -0.9838
 6480TIP3   OH240930   2.416   1.700  16.222  0.8355 -0.0821 -0.0060
 6480TIP3    H140931   2.499   1.658  16.243  1.3249  1.0294  0.3648
 6480TIP3    H240932   2.358   1.675  16.294  0.5926 -1.4775 -0.6499
 6481TIP3   OH240933   4.866   6.146   2.341  0.0293  0.1109 -1.3907
 6481TIP3    H140934   4.879   6.219   2.280  2.1507  0.7223 -0.3023
 6481TIP3    H240935   4.809   6.181   2.409 -0.3935  0.1787 -1.7746
 6482TIP3   OH240936   0.025   2.530   2.401  0.2897 -0.4750  0.5146
 6482TIP3    H140937  -0.040   2.596   2.378  1.6915  1.1408  1.0030
 6482TIP3    H240938  -0.000   2.453   2.349  0.0343  1.2051 -2.0386
 6483TIP3   OH240939   0.473   3.264  11.869  0.2004  0.0730 -0.7795
 6483TIP3    H140940   0.532   3.210  11.922  1.1106  0.3046 -1.5373
 6483TIP3    H240941   0.455   3.211  11.791 -1.7106 -0.5717  0.0095
 6484TIP3   OH240942   3.949   3.345   4.420 -0.4017 -0.1738 -0.5015
 6484TIP3    H140943   3.932   3.337   4.326 -0.8811 -0.3225 -0.4042
 6484TIP3    H240944   3.917   3.263   4.457  0.9090 -0.6364 -0.3632
 6485TIP3   OH240945   3.023   3.313   1.416 -0.7114 -0.0058  0.0624
 6485TIP3    H140946   2.963   3.294   1.488 -1.0590  1.8450  0.3200
 6485TIP3    H240947   2.965   3.328   1.341 -0.3271 -2.6912 -0.8695
 6486TIP3   OH240948   5.328   1.248   5.244 -0.4215  0.0359 -0.2644
 6486TIP3    H140949   5.311   1.188   5.316 -1.7416  0.4458 -0.2020
 6486TIP3    H240950   5.352   1.192   5.170 -0.3229 -0.4721  0.1513
 6487TIP3   OH240951   2.455   2.722   3.322 -0.5140 -0.0032 -0.4150
 6487TIP3    H140952   2.495   2.809   3.326 -2.4812  1.0163 -1.1925
 6487TIP3    H240953   2.457   2.698   3.230 -1.8317  0.1948 -0.5214
 6488TIP3   OH240954   4.896   4.766  11.462 -0.3408 -0.3177 -0.2842
 6488TIP3    H140955   4.826   4.815  11.504 -0.7992 -0.5586 -0.7626
 6488TIP3    H240956   4.964   4.760  11.530 -0.9102 -0.3637  0.2955
 6489TIP3   OH240957   0.519   5.936   4.185  0.3044 -0.6588  0.2222
 6489TIP3    H140958   0.537   5.917   4.277 -0.6688 -0.3320  0.4949
 6489TIP3    H240959   0.599   5.976   4.152  1.8423 -3.5619  0.0595
 6490TIP3   OH240960   3.625   2.671  15.381 -0.2981  0.0391 -0.0714
 6490TIP3    H140961   3.567   2.704  15.450 -0.8622 -2.1462  0.6164
 6490TIP3    H240962   3.601   2.722  15.303 -2.8583 -0.4048  0.3085
 6491TIP3   OH240963   4.032   2.596   1.284  0.9806 -0.0224 -0.5619
 6491TIP3    H140964   4.067   2.581   1.372  0.2112  1.2869  0.0062
 6491TIP3    H240965   3.976   2.673   1.294 -1.2079 -1.3814 -1.6535
 6492TIP3   OH240966   1.837   1.416  13.694  0.5661  0.6118  0.0089
 6492TIP3    H140967   1.864   1.508  13.684 -0.4595  0.8517 -0.7612
 6492TIP3    H240968   1.777   1.401  13.620 -1.0945  0.0047  1.4206
 6493TIP3   OH240969   3.608   5.826  12.816  0.1084 -0.2829  0.5049
 6493TIP3    H140970   3.601   5.885  12.892 -1.4549  0.9886 -0.5684
 6493TIP3    H240971   3.642   5.745  12.853  0.2994  0.5935  2.4112
 6494TIP3   OH240972   3.026   0.532   1.470  0.3069  0.0750 -0.0563
 6494TIP3    H140973   3.001   0.518   1.562 -0.3788 -1.1127 -0.4035
 6494TIP3    H240974   2.943   0.535   1.423  0.7128 -1.6388 -0.9405
 6495TIP3   OH240975   3.647   4.770   3.210 -0.2357  0.4577 -0.7295
 6495TIP3    H140976   3.668   4.676   3.210  0.1800  0.5490 -0.2232
 6495TIP3    H240977   3.722   4.812   3.169  0.4182  0.7423  0.7016
 6496TIP3   OH240978   3.364   0.154   2.845  0.1253 -0.4383  0.2096
 6496TIP3    H140979   3.375   0.111   2.760 -0.4033 -2.9307  1.2862
 6496TIP3    H240980   3.294   0.217   2.832 -0.6470 -1.5039 -0.9942
 6497TIP3   OH240981   4.756   5.189   2.872  0.5426 -0.3653 -0.0918
 6497TIP3    H140982   4.737   5.125   2.941  0.2324 -0.3762 -0.1834
 6497TIP3    H240983   4.848   5.211   2.884  0.2421  0.3954  0.9607
 6498TIP3   OH240984   3.921   6.477  13.456  0.0588  0.1466 -0.3047
 6498TIP3    H140985   3.899   6.501  13.366  0.6091  0.7305 -0.2934
 6498TIP3    H240986   3.937   6.383  13.453  0.0020  0.1484 -0.7977
 6499TIP3   OH240987   4.164   4.727  11.906 -0.0659  0.5954  0.5466
 6499TIP3    H140988   4.175   4.811  11.950  0.8517  2.4721 -2.8542
 6499TIP3    H240989   4.251   4.687  11.907  0.7446  2.0814 -1.9544
 6500TIP3   OH240990   1.591   6.688  13.127 -0.1280  0.2641 -0.0260
 6500TIP3    H140991   1.587   6.766  13.071  2.1918  3.3637  3.6119
 6500TIP3    H240992   1.517   6.698  13.187 -0.7346 -1.2673 -0.4778
 6501TIP3   OH240993   5.120   5.123  14.636  0.0749 -0.1675 -0.0045
 6501TIP3    H140994   5.052   5.143  14.571  0.9963  1.6073 -0.4701
 6501TIP3    H240995   5.166   5.206  14.649  2.3850 -1.3857  0.0374
 6502TIP3   OH240996   4.159   5.669   2.987  0.3132 -0.5499 -0.7542
 6502TIP3    H140997   4.112   5.622   3.056 -0.2199 -2.4631 -2.3105
 6502TIP3    H240998   4.176   5.756   3.024 -2.1742 -0.6409  0.8293
 6503TIP3   OH240999   6.780   6.641   5.087 -0.2536 -0.0094  0.2030
 6503TIP3    H141000   6.811   6.713   5.032 -0.1719  0.4580  0.8416
 6503TIP3    H241001   6.756   6.572   5.025  0.0423  0.4172 -0.4020
 6504TIP3   OH241002   2.770   2.991  14.178  0.1939 -0.0222 -0.0612
 6504TIP3    H141003   2.742   2.900  14.175 -0.5698  0.2273 -1.3236
 6504TIP3    H241004   2.812   3.000  14.263  1.2195 -1.8003 -0.3349
 6505TIP3   OH241005   1.081   1.859  14.101 -0.0486  0.0811  0.0024
 6505TIP3    H141006   0.995   1.823  14.079  0.3367 -0.3527 -0.8400
 6505TIP3    H241007   1.064   1.952  14.118 -0.8913 -0.2756  1.2073
 6506TIP3   OH241008   6.522   2.728   3.209  0.4637 -0.3437  0.4328
 6506TIP3    H141009   6.611   2.763   3.207  0.8059 -1.1568 -1.6378
 6506TIP3    H241010   6.521   2.663   3.138 -2.4629  1.4388 -1.3459
 6507TIP3   OH241011   3.208   2.142  10.649 -0.1967  0.9096 -0.5997
 6507TIP3    H141012   3.227   2.167  10.558  1.0664  0.3307 -0.5145
 6507TIP3    H241013   3.289   2.160  10.696  0.4930 -2.2441 -0.3259
 6508TIP3   OH241014   4.193   6.628  16.225  0.3233  0.1367 -0.0650
 6508TIP3    H141015   4.212   6.607  16.317 -2.2505 -1.7086  0.1352
 6508TIP3    H241016   4.270   6.597  16.177  1.0409 -0.3000  1.3034
 6509TIP3   OH241017   1.564   4.096  13.180  0.7153  0.3645  0.4892
 6509TIP3    H141018   1.483   4.147  13.169  0.5588  0.0179 -0.0028
 6509TIP3    H241019   1.561   4.067  13.271 -0.4149 -0.7911  0.1308
 6510TIP3   OH241020   0.223   5.566  15.768  0.2056  0.2077  0.1855
 6510TIP3    H141021   0.211   5.498  15.702  1.6097 -0.4925  0.6199
 6510TIP3    H241022   0.155   5.549  15.833  1.2041 -1.4641  0.8348
 6511TIP3   OH241023   6.093   3.914  13.982  0.4137 -0.3160  0.5569
 6511TIP3    H141024   6.053   3.935  13.898 -1.7364 -3.0340  0.7637
 6511TIP3    H241025   6.030   3.946  14.047  0.1673 -1.6340  0.9934
 6512TIP3   OH241026   5.446   6.360  16.931  0.3994 -0.0479  0.0000
 6512TIP3    H141027   5.369   6.342  16.984  0.0835 -0.1886 -0.4965
 6512TIP3    H241028   5.468   6.276  16.891  0.0922  0.2320 -0.7892
 6513TIP3   OH241029   5.324   1.625   3.135  0.5826 -0.3040  0.5472
 6513TIP3    H141030   5.246   1.601   3.184  0.3233 -1.6656 -0.4884
 6513TIP3    H241031   5.292   1.644   3.047  1.6324 -3.4636 -0.6532
 6514TIP3   OH241032   2.316   0.989   1.979  0.1446  0.3181 -0.4428
 6514TIP3    H141033   2.368   0.955   1.906 -0.3468 -1.2292 -0.1117
 6514TIP3    H241034   2.370   0.975   2.057 -1.2270 -2.6751  0.1074
 6515TIP3   OH241035   6.028   0.826  13.124 -0.1306  0.3303 -0.7423
 6515TIP3    H141036   6.092   0.800  13.191  0.3936 -1.7262 -1.9558
 6515TIP3    H241037   5.946   0.785  13.153 -0.2649  0.7123 -0.5804
 6516TIP3   OH241038   5.857   3.465  16.445 -0.1238 -0.1566 -0.5613
 6516TIP3    H141039   5.924   3.416  16.491 -0.1686 -0.3541 -0.7075
 6516TIP3    H241040   5.798   3.495  16.515 -0.6951 -1.2188 -0.5672
 6517TIP3   OH241041   4.821   4.763   0.336  0.4282  0.1156  0.7904
 6517TIP3    H141042   4.779   4.702   0.397  1.1199  0.8429  2.0319
 6517TIP3    H241043   4.898   4.716   0.305  0.4406 -0.0107  1.0054
 6518TIP3   OH241044   6.621   5.418  15.493 -0.2087  0.3846  0.5330
 6518TIP3    H141045   6.561   5.491  15.480 -1.3303 -0.6116 -0.1763
 6518TIP3    H241046   6.620   5.371  15.409  0.2076 -0.6376  1.0747
 6519TIP3   OH241047   3.594   1.646  15.747 -0.0296  0.1833  0.6870
 6519TIP3    H141048   3.543   1.582  15.696  0.1533  0.3849  0.2474
 6519TIP3    H241049   3.528   1.701  15.789 -0.2298 -1.1142  2.1632
 6520TIP3   OH241050   0.216   4.512  13.083 -0.2983  0.2879  0.3299
 6520TIP3    H141051   0.136   4.461  13.070 -0.1861 -0.5893  2.5589
 6520TIP3    H241052   0.276   4.481  13.015 -1.7670  0.8997 -1.3317
 6521TIP3   OH241053   2.615   0.563  10.230 -0.8833 -0.2107  0.2071
 6521TIP3    H141054   2.637   0.540  10.140  0.1111 -0.2115  0.4421
 6521TIP3    H241055   2.569   0.647  10.222 -1.0156 -0.3275 -0.3151
 6522TIP3   OH241056   1.866   1.305  16.121  0.2385 -0.3507 -0.1128
 6522TIP3    H141057   1.892   1.382  16.171 -0.3778  0.8522 -1.5342
 6522TIP3    H241058   1.948   1.267  16.090  0.5526 -0.3425  0.6946
 6523TIP3   OH241059   5.025   3.425   1.470 -0.2940 -0.0068  0.1716
 6523TIP3    H141060   4.946   3.418   1.523  0.4004  0.9234  1.3641
 6523TIP3    H241061   5.052   3.516   1.479  0.9497 -0.3197 -0.1716
 6524TIP3   OH241062   3.773   0.053   2.785  0.3972  0.2956  0.1455
 6524TIP3    H141063   3.857   0.097   2.772  0.9380 -0.8412 -0.4782
 6524TIP3    H241064   3.774  -0.018   2.720 -1.1394  0.3893 -0.0019
 6525TIP3   OH241065   4.608   6.663  15.265 -0.4915  0.1509 -0.2231
 6525TIP3    H141066   4.674   6.668  15.196 -0.1912 -0.2832  0.0265
 6525TIP3    H241067   4.570   6.750  15.268  1.3751  0.9863  0.9044
 6526TIP3   OH241068   2.937   1.618  17.194  0.6902  0.2512  0.3563
 6526TIP3    H141069   3.025   1.582  17.187 -0.0100 -1.7658  1.3071
 6526TIP3    H241070   2.887   1.573  17.127 -0.2587 -0.7827  1.7179
 6527TIP3   OH241071   3.631   1.753   4.575  0.3691  0.6027  0.0450
 6527TIP3    H141072   3.714   1.709   4.559 -0.0104 -0.5366  1.1101
 6527TIP3    H241073   3.567   1.702   4.525  0.0479  0.4153  0.6432
 6528TIP3   OH241074   2.645   4.846   2.202 -0.2457  0.1834 -0.5804
 6528TIP3    H141075   2.598   4.766   2.177  1.4631 -1.3132  0.7371
 6528TIP3    H241076   2.674   4.884   2.119  0.1886 -1.3811 -1.1860
 6529TIP3   OH241077   4.403   3.013   2.573 -0.3712 -0.0022 -0.1373
 6529TIP3    H141078   4.466   3.014   2.501 -1.9023  0.7021 -1.5405
 6529TIP3    H241079   4.323   3.049   2.535 -1.1785  0.6177  1.9983
 6530TIP3   OH241080   0.193   3.991  14.731 -0.2108 -0.1717 -0.1157
 6530TIP3    H141081   0.251   3.929  14.686 -0.3149 -0.2077 -0.1982
 6530TIP3    H241082   0.161   4.049  14.662 -2.6063 -1.9284 -0.5912
 6531TIP3   OH241083   1.726   2.735   2.267  0.0627  0.7237 -0.5306
 6531TIP3    H141084   1.698   2.825   2.251  0.2548  1.1708  1.3962
 6531TIP3    H241085   1.703   2.719   2.358  0.5942 -0.9802 -0.6677
 6532TIP3   OH241086   3.104   1.501  16.173 -0.1001  0.1102  0.1612
 6532TIP3    H141087   3.106   1.517  16.268  1.3067  2.2047 -0.1509
 6532TIP3    H241088   3.029   1.552  16.142  1.0471  1.6776 -0.1431
 6533TIP3   OH241089   5.162   2.965  12.250  0.2008  0.3696 -0.3140
 6533TIP3    H141090   5.181   2.926  12.336 -1.3143  0.4328  0.0735
 6533TIP3    H241091   5.111   2.898  12.204 -1.8277  1.5680  0.0959
 6534TIP3   OH241092   5.177   3.888   0.944  0.3902  0.1203  0.0045
 6534TIP3    H141093   5.231   3.824   0.898 -0.3684  1.4528 -3.0442
 6534TIP3    H241094   5.088   3.867   0.917  0.1352  2.4231 -1.1961
 6535TIP3   OH241095   5.680   1.948  11.987 -0.4131 -0.0385  0.7676
 6535TIP3    H141096   5.690   1.864  11.942  0.0595 -0.1658  1.1091
 6535TIP3    H241097   5.765   1.991  11.979 -0.1369 -0.3169  2.0441
 6536TIP3   OH241098   0.705   2.291   2.552 -0.2123 -0.1352  0.0180
 6536TIP3    H141099   0.658   2.215   2.517 -1.4329  1.1765 -1.3596
 6536TIP3    H241100   0.793   2.285   2.515  0.4761 -2.0906  1.8146
 6537TIP3   OH241101   0.604   1.720   5.988 -0.0267 -0.2187 -0.5737
 6537TIP3    H141102   0.631   1.738   6.079 -0.3128  1.4758 -0.7906
 6537TIP3    H241103   0.524   1.771   5.977  0.3111  0.0384 -1.9473
 6538TIP3   OH241104   2.184   6.175  12.534  0.3012 -0.0611  0.4373
 6538TIP3    H141105   2.147   6.088  12.520  1.3196 -0.4489  0.0043
 6538TIP3    H241106   2.177   6.189  12.628 -1.6162  0.2201  0.2864
 6539TIP3   OH241107   0.889   5.821  14.900 -0.1191 -0.2312  0.4734
 6539TIP3    H141108   0.925   5.898  14.856  1.5150 -1.3513 -0.2454
 6539TIP3    H241109   0.846   5.771  14.831  0.9577 -1.1504  0.4437
 6540TIP3   OH241110   1.647   5.944   4.126 -0.1708 -0.1613  0.7119
 6540TIP3    H141111   1.610   5.864   4.089  0.3386 -0.4744  0.8795
 6540TIP3    H241112   1.579   5.977   4.185 -0.5861 -0.1929  0.2593
 6541TIP3   OH241113   5.015   5.698   0.691  0.1539  0.3868  0.4749
 6541TIP3    H141114   5.021   5.767   0.757 -0.2013  1.0320 -0.1607
 6541TIP3    H241115   4.987   5.743   0.611  0.5863 -0.3814 -0.1236
 6542TIP3   OH241116   4.085   4.123  12.999 -0.3975  0.0323 -0.3086
 6542TIP3    H141117   4.069   4.034  13.033  1.5169 -0.5858 -0.8711
 6542TIP3    H241118   4.151   4.110  12.931 -0.3351  1.8651 -0.6242
 6543TIP3   OH241119   2.307   4.209   1.091  0.4993  0.2744  0.2594
 6543TIP3    H141120   2.293   4.157   1.170 -1.7344 -1.2254 -0.9817
 6543TIP3    H241121   2.218   4.232   1.062  1.2670  1.1054 -1.5884
 6544TIP3   OH241122   5.786   4.087  13.711  0.1490 -0.1876  0.4972
 6544TIP3    H141123   5.692   4.103  13.716 -0.0516 -1.6214  2.5004
 6544TIP3    H241124   5.795   4.009  13.658  0.0707 -0.8463  1.4301
 6545TIP3   OH241125   1.637   2.932   3.851 -0.0976  0.0522 -0.2529
 6545TIP3    H141126   1.660   2.844   3.878 -0.7645  0.0148  0.2231
 6545TIP3    H241127   1.704   2.988   3.890 -0.2324 -0.1524  0.2803
 6546TIP3   OH241128   1.755   1.031   3.927  0.3069 -0.4579  0.1430
 6546TIP3    H141129   1.832   1.028   3.870 -0.1338 -0.7145 -0.4369
 6546TIP3    H241130   1.694   0.968   3.889 -0.0009 -0.6188  0.8844
 6547TIP3   OH241131   4.414   2.359  16.959  0.5821 -0.1795  0.2176
 6547TIP3    H141132   4.374   2.408  16.887 -1.2554 -0.3265  1.0942
 6547TIP3    H241133   4.354   2.286  16.974  2.8240 -2.3260 -0.5295
 6548TIP3   OH241134   3.944   3.062   0.810  0.4352  0.5314  0.0817
 6548TIP3    H141135   3.962   2.969   0.808  1.0618  0.6675 -0.7310
 6548TIP3    H241136   3.852   3.068   0.837  0.8013 -0.2487  1.6338
 6549TIP3   OH241137   3.546   2.959  13.721 -0.3758 -0.1380  0.1347
 6549TIP3    H141138   3.496   3.034  13.752 -0.7101  0.2239 -1.2287
 6549TIP3    H241139   3.480   2.900  13.684  0.0005 -0.6058  0.1919
 6550TIP3   OH241140   5.612   3.350  12.808  0.7534  0.0141 -0.0249
 6550TIP3    H141141   5.660   3.432  12.821  1.6645 -0.4613 -0.2978
 6550TIP3    H241142   5.669   3.283  12.846  0.6783 -0.6595 -1.0648
 6551TIP3   OH241143   2.832   4.693  14.568 -0.2466  0.8490 -0.1049
 6551TIP3    H141144   2.895   4.622  14.573  0.0348  1.0859 -0.2304
 6551TIP3    H241145   2.843   4.741  14.650 -0.7755  0.4680  0.1908
 6552TIP3   OH241146   4.875   3.132  15.964  0.2041  1.3121 -0.1387
 6552TIP3    H141147   4.879   3.226  15.983  0.9788  1.6566 -1.8463
 6552TIP3    H241148   4.960   3.111  15.926 -0.1037 -0.0050 -0.1587
 6553TIP3   OH241149   5.535   5.975   3.327 -0.1191 -0.1582  0.9485
 6553TIP3    H141150   5.450   5.998   3.290 -0.5930 -3.0942 -0.0620
 6553TIP3    H241151   5.597   5.989   3.256 -0.6361 -3.0936 -0.2501
 6554TIP3   OH241152   5.832   5.848  16.923 -0.1922 -0.3971 -0.5615
 6554TIP3    H141153   5.912   5.799  16.903  0.7587  1.4672 -1.6968
 6554TIP3    H241154   5.809   5.890  16.840 -1.9217 -0.2790 -0.0585
 6555TIP3   OH241155   4.613   5.452   3.204  0.1714 -0.1957 -0.7903
 6555TIP3    H141156   4.559   5.379   3.173  0.3342 -0.2251 -1.0060
 6555TIP3    H241157   4.593   5.524   3.143  1.3666 -0.5988 -1.6866
 6556TIP3   OH241158   0.303   4.593   2.840 -0.5238  0.0328  0.7668
 6556TIP3    H141159   0.278   4.501   2.837  0.2281 -0.1511 -0.2825
 6556TIP3    H241160   0.282   4.627   2.753  1.5391  0.1930  0.2797
 6557TIP3   OH241161   5.482   4.397  13.741 -0.4544  0.3844  0.4175
 6557TIP3    H141162   5.393   4.368  13.764 -0.7338 -1.7181 -2.7197
 6557TIP3    H241163   5.534   4.379  13.820 -2.6681  1.3438  2.2170
 6558TIP3   OH241164   0.210   0.000   1.102  0.1288  0.2748 -0.5914
 6558TIP3    H141165   0.261   0.073   1.067 -0.3683  0.1176 -1.6690
 6558TIP3    H241166   0.247  -0.015   1.189  0.3718  1.6868 -0.4208
 6559TIP3   OH241167   4.648   0.239  12.667  0.5214  0.2451 -0.1943
 6559TIP3    H141168   4.650   0.146  12.689  2.2088  0.3098  0.1078
 6559TIP3    H241169   4.603   0.243  12.583 -0.7508 -0.6799  0.4222
 6560TIP3   OH241170   3.148   2.126   2.130 -0.2688  0.2806  0.0024
 6560TIP3    H141171   3.211   2.172   2.186 -0.5630  0.7150 -0.0275
 6560TIP3    H241172   3.063   2.147   2.168 -0.5395  1.2891 -1.1260
 6561TIP3   OH241173   2.086   3.498   0.208 -0.3168  0.2003 -0.0068
 6561TIP3    H141174   2.163   3.514   0.263 -2.2807  2.4176  2.3737
 6561TIP3    H241175   2.069   3.582   0.166 -1.5141 -0.2160 -0.3960
 6562TIP3   OH241176   2.989   5.963  11.422  0.3014  0.0113 -0.1397
 6562TIP3    H141177   3.063   6.023  11.431  0.7969 -0.7843  1.3641
 6562TIP3    H241178   2.971   5.934  11.511 -1.6376 -0.0572 -0.5186
 6563TIP3   OH241179   6.563   1.823   3.740 -0.3615 -0.2008  0.1143
 6563TIP3    H141180   6.490   1.823   3.678  0.6177  0.8314 -1.0817
 6563TIP3    H241181   6.526   1.786   3.821 -2.1807  0.2556 -0.4699
 6564TIP3   OH241182   2.302   4.697   3.688 -0.9157  0.1056  0.2873
 6564TIP3    H141183   2.386   4.672   3.727 -0.0757  1.3249 -0.6459
 6564TIP3    H241184   2.269   4.766   3.745 -0.2567  1.0700 -0.4713
 6565TIP3   OH241185   4.156   1.116  16.863  0.2836  1.1489 -0.2585
 6565TIP3    H141186   4.168   1.029  16.825  0.9690  1.1167  0.0191
 6565TIP3    H241187   4.069   1.113  16.903  0.5942  0.3506  0.3829
 6566TIP3   OH241188   0.571   3.277  12.223 -0.1559 -0.2454  0.2022
 6566TIP3    H141189   0.527   3.306  12.302 -0.3990 -0.3764  0.1137
 6566TIP3    H241190   0.624   3.353  12.195 -0.2311 -0.1312  0.3716
 6567TIP3   OH241191   4.654   4.655   3.453 -0.4869 -0.0050 -0.6327
 6567TIP3    H141192   4.684   4.611   3.533 -4.2519 -1.4874  0.2048
 6567TIP3    H241193   4.679   4.595   3.382  1.2531  0.4156 -0.4165
 6568TIP3   OH241194   3.961   0.194   4.041 -0.2611 -0.7873  0.3062
 6568TIP3    H141195   3.917   0.109   4.038 -1.3721 -0.2734  1.0451
 6568TIP3    H241196   3.895   0.252   4.080  0.2098  0.5740 -0.8902
 6569TIP3   OH241197   6.449   1.366   3.306  0.3686 -0.2761 -0.4016
 6569TIP3    H141198   6.527   1.422   3.308  0.0917  0.0903  1.1196
 6569TIP3    H241199   6.459   1.314   3.226  1.8552  0.2152 -0.5642
 6570TIP3   OH241200   3.741   0.475   5.340  0.0720 -0.1834  0.0444
 6570TIP3    H141201   3.824   0.504   5.303  0.9605  0.1128  2.1506
 6570TIP3    H241202   3.711   0.548   5.393 -2.6636  0.5547 -2.2598
 6571TIP3   OH241203   0.183   5.632   2.595 -0.1022 -0.8766 -0.6465
 6571TIP3    H141204   0.143   5.696   2.654  0.9042 -1.0122  0.2149
 6571TIP3    H241205   0.241   5.684   2.540  0.2343 -0.9653 -0.3760
 6572TIP3   OH241206   1.185   0.585  11.050  0.2737 -0.5912  0.2973
 6572TIP3    H141207   1.121   0.639  11.098  0.0369  0.8901 -1.5769
 6572TIP3    H241208   1.270   0.622  11.073  0.0748  1.2022 -1.5671
 6573TIP3   OH241209   2.746   2.418  14.263 -0.0960  0.8367  0.2936
 6573TIP3    H141210   2.665   2.428  14.314  0.5060 -0.9191  1.6801
 6573TIP3    H241211   2.811   2.388  14.326  1.3244  0.9460 -1.0595
 6574TIP3   OH241212   4.812   3.791  12.684 -0.1351  0.0208  0.5152
 6574TIP3    H141213   4.857   3.719  12.727 -2.4314 -2.3591 -0.7071
 6574TIP3    H241214   4.808   3.765  12.592 -0.2750  2.1912 -0.1553
 6575TIP3   OH241215   6.749   5.779   5.813  0.0609 -0.4596  0.4387
 6575TIP3    H141216   6.734   5.831   5.892 -1.3950 -0.2656  0.0761
 6575TIP3    H241217   6.670   5.793   5.760  0.5525 -1.4038 -0.5890
 6576TIP3   OH241218   2.891   4.496   3.527  0.1358 -0.3748  0.0495
 6576TIP3    H141219   2.898   4.589   3.507 -0.5754 -0.2831  0.2260
 6576TIP3    H241220   2.873   4.492   3.621  0.5589 -0.7053  0.1221
 6577TIP3   OH241221   0.340   2.036   0.701 -0.3848  0.2988 -0.1257
 6577TIP3    H141222   0.354   1.965   0.764  0.9438  0.9503  0.3688
 6577TIP3    H241223   0.262   2.011   0.653  0.1687 -1.6139 -0.1223
 6578TIP3   OH241224   6.326   4.679  17.080 -0.5254  0.5030 -0.5050
 6578TIP3    H141225   6.329   4.765  17.121 -1.2474 -0.0029  0.6724
 6578TIP3    H241226   6.346   4.618  17.151 -0.2138 -0.3172 -1.2747
 6579TIP3   OH241227   0.793   1.935   2.199 -1.2440  0.5907 -0.4108
 6579TIP3    H141228   0.864   1.874   2.179  0.6915  2.1690  1.1483
 6579TIP3    H241229   0.718   1.903   2.149  0.3697 -1.5524 -1.6105
 6580TIP3   OH241230   4.783   0.299  11.520  0.1436  0.7590  0.5662
 6580TIP3    H141231   4.867   0.294  11.475 -0.0747  2.1987 -0.0711
 6580TIP3    H241232   4.798   0.361  11.592 -0.5829  1.7494 -0.1096
 6581TIP3   OH241233   6.178   3.750  12.070 -0.2547 -0.3585  0.4251
 6581TIP3    H141234   6.113   3.688  12.037  0.4684 -0.5647 -0.6501
 6581TIP3    H241235   6.242   3.696  12.115  0.6336 -0.4732 -0.9316
 6582TIP3   OH241236   0.565   6.341  16.139 -0.4955  0.2675  0.5669
 6582TIP3    H141237   0.511   6.419  16.129 -2.4409 -1.0116  0.5378
 6582TIP3    H241238   0.532   6.299  16.218  0.7767 -0.3321  0.7930
 6583TIP3   OH241239   3.702   5.804  13.888 -0.1047  0.4641 -0.3532
 6583TIP3    H141240   3.620   5.819  13.841 -0.7784 -0.7055  0.3895
 6583TIP3    H241241   3.683   5.730  13.946  2.2359 -1.6234 -2.0434
 6584TIP3   OH241242   0.415   4.435  14.174  0.7116 -0.0519 -0.0971
 6584TIP3    H141243   0.463   4.374  14.118  0.2314  0.5571 -1.1967
 6584TIP3    H241244   0.462   4.518  14.167  0.3408  0.1692 -0.0131
 6585TIP3   OH241245   2.577   1.515  12.705 -0.0391 -0.1106 -0.1176
 6585TIP3    H141246   2.539   1.513  12.617 -0.1670 -1.2283 -0.0538
 6585TIP3    H241247   2.596   1.607  12.721  0.2528  0.0821 -1.4345
 6586TIP3   OH241248   1.016   1.562  13.274 -0.0309  0.0728 -0.3623
 6586TIP3    H141249   1.025   1.648  13.315 -0.0666  0.5812 -1.3973
 6586TIP3    H241250   1.007   1.502  13.348  0.7100  0.8603  0.4079
 6587TIP3   OH241251   6.729   2.627  12.638 -0.6207  0.0446 -0.2346
 6587TIP3    H141252   6.735   2.697  12.703 -3.2160 -0.5727  0.7864
 6587TIP3    H241253   6.726   2.547  12.690  0.5628 -0.7314 -1.3161
 6588TIP3   OH241254   2.740   6.619  12.533 -0.0430 -0.0333 -0.4026
 6588TIP3    H141255   2.783   6.624  12.447 -0.6918 -0.7432 -0.7806
 6588TIP3    H241256   2.784   6.686  12.585 -0.3745  1.1839 -1.6121
 6589TIP3   OH241257   2.070   1.105  12.000 -0.2829 -0.1396  0.2001
 6589TIP3    H141258   2.103   1.195  11.997 -1.4649  0.3935  1.8127
 6589TIP3    H241259   2.070   1.076  11.909  0.9359  1.1760 -0.2497
 6590TIP3   OH241260   4.890   3.650  16.196 -0.0780  0.0425  0.4049
 6590TIP3    H141261   4.825   3.717  16.216 -2.6191 -1.9013 -0.7986
 6590TIP3    H241262   4.903   3.656  16.102 -0.5453 -1.2722  0.2364
 6591TIP3   OH241263   2.027   3.927   4.128 -0.2346 -0.2958  0.0672
 6591TIP3    H141264   2.074   3.845   4.141 -0.3771 -0.4421 -0.3240
 6591TIP3    H241265   2.048   3.979   4.205 -1.8726 -1.5162  1.4232
 6592TIP3   OH241266   6.435   1.909   1.232 -0.1176 -0.3041 -0.2149
 6592TIP3    H141267   6.410   1.874   1.146  0.2019  0.3106 -0.5682
 6592TIP3    H241268   6.521   1.870   1.248 -0.0700 -0.2312 -0.2892
 6593TIP3   OH241269   0.412   1.055  11.207  0.3927 -0.5631  1.3746
 6593TIP3    H141270   0.388   0.970  11.169  0.8375 -0.8475  1.7172
 6593TIP3    H241271   0.335   1.110  11.192  0.6045 -0.6223 -0.0539
 6594TIP3   OH241272   4.741   4.093  11.850  0.3360 -0.1378 -0.0818
 6594TIP3    H141273   4.690   4.021  11.812  4.2880 -2.4122 -1.7058
 6594TIP3    H241274   4.763   4.063  11.938 -1.8289  1.3669  1.0778
 6595TIP3   OH241275   2.089   6.228  14.683 -0.5124 -1.0032  0.4486
 6595TIP3    H141276   2.183   6.239  14.666 -0.9248  0.4855 -1.1526
 6595TIP3    H241277   2.069   6.139  14.652 -0.3214  0.0067 -3.0068
 6596TIP3   OH241278   2.391   0.110  13.999  0.7528  0.1785 -0.0202
 6596TIP3    H141279   2.413   0.017  13.992 -2.1914 -0.7119  1.0102
 6596TIP3    H241280   2.432   0.138  14.081  0.3077 -0.6941  0.5212
 6597TIP3   OH241281   1.821   6.187   3.886 -0.0654 -0.0953 -0.1923
 6597TIP3    H141282   1.870   6.266   3.909  0.0486 -0.1225 -0.3332
 6597TIP3    H241283   1.790   6.205   3.797 -1.3689  0.4340  0.3501
 6598TIP3   OH241284   2.800   6.028  16.342  0.2449 -0.1398 -0.0421
 6598TIP3    H141285   2.890   6.060  16.335  0.2607 -0.1548  0.0814
 6598TIP3    H241286   2.749   6.086  16.286  0.6422 -1.4005 -1.8178
 6599TIP3   OH241287   2.067   6.721   5.148 -0.1208  0.0020 -0.3326
 6599TIP3    H141288   2.109   6.747   5.065 -0.6157  1.6774 -0.0825
 6599TIP3    H241289   2.073   6.799   5.203 -0.3958 -0.8879  0.9825
 6600TIP3   OH241290   2.270   3.396   5.071 -0.1004 -0.0576 -0.4080
 6600TIP3    H141291   2.217   3.475   5.081 -2.5805 -1.5601 -1.0028
 6600TIP3    H241292   2.325   3.414   4.995 -0.1559  1.3090 -0.1623
 6601TIP3   OH241293   1.647   5.829  11.161 -0.5271 -0.2028  0.6072
 6601TIP3    H141294   1.584   5.863  11.225 -0.7877 -0.7804  0.6618
 6601TIP3    H241295   1.610   5.745  11.133 -0.0618 -0.2806  0.2168
 6602TIP3   OH241296   5.946   3.996   1.070 -0.2623 -0.3984  0.2645
 6602TIP3    H141297   5.949   3.908   1.107  2.5668 -0.5592 -0.1421
 6602TIP3    H241298   6.004   4.048   1.126  0.5493  0.4255 -1.2665
 6603TIP3   OH241299   3.144   5.323   0.450 -0.2168 -0.1960 -0.1805
 6603TIP3    H141300   3.098   5.262   0.508  0.3309 -0.8824 -0.4518
 6603TIP3    H241301   3.147   5.405   0.500  0.1610 -0.7431  0.7413
 6604TIP3   OH241302   4.202   1.888  15.947 -0.1415 -0.1466  0.3504
 6604TIP3    H141303   4.153   1.909  15.867  1.4546  1.9125 -0.1660
 6604TIP3    H241304   4.198   1.968  15.999  1.4648 -0.4022  0.9267
 6605TIP3   OH241305   6.040   2.407  14.319 -0.0635  0.6961 -0.0005
 6605TIP3    H141306   6.004   2.467  14.254 -0.9993 -0.6457 -0.7603
 6605TIP3    H241307   5.964   2.372  14.365  0.5000  0.4891  0.8118
 6606TIP3   OH241308   0.902   5.827  11.719  0.3823  0.4108  0.1244
 6606TIP3    H141309   0.817   5.843  11.678  0.9047  2.6198 -0.2170
 6606TIP3    H241310   0.888   5.748  11.772 -1.7889  0.5492 -0.1318
 6607TIP3   OH241311   4.595   5.204  15.610 -0.1804  0.2360 -0.0751
 6607TIP3    H141312   4.542   5.233  15.536  1.8845  0.9613 -1.3568
 6607TIP3    H241313   4.637   5.124  15.579  1.2177  0.9026  0.0130
 6608TIP3   OH241314   5.346   2.967  11.665  0.3163 -0.1825 -0.0885
 6608TIP3    H141315   5.256   2.996  11.653  0.3975 -0.3951 -1.3313
 6608TIP3    H241316   5.398   3.047  11.665  0.2289 -0.1236 -0.4490
 6609TIP3   OH241317   3.957   5.069   4.426  0.2524  0.0240 -1.0098
 6609TIP3    H141318   3.973   4.980   4.456  1.9341  0.2539 -1.1659
 6609TIP3    H241319   4.023   5.085   4.359  0.4314  1.6330 -0.5003
 6610TIP3   OH241320   3.747   5.728  14.442  0.2973  0.3472  0.5759
 6610TIP3    H141321   3.723   5.811  14.483 -0.0398  1.4077 -1.6247
 6610TIP3    H241322   3.723   5.739  14.350 -0.9584 -2.6791  0.4403
 6611TIP3   OH241323   5.973   6.711  11.830 -0.5310 -0.3267  0.0358
 6611TIP3    H141324   5.987   6.702  11.736  0.5116  0.6818  0.0577
 6611TIP3    H241325   5.987   6.805  11.846 -1.4995 -0.3493  1.0720
 6612TIP3   OH241326   3.242   4.871   0.048 -0.0841 -0.2885  0.2869
 6612TIP3    H141327   3.297   4.946   0.026 -0.9279  0.4784  0.7382
 6612TIP3    H241328   3.164   4.909   0.087  0.2166 -1.4757  2.1923
 6613TIP3   OH241329   2.544   1.663   3.988 -0.2877  0.7915  0.6586
 6613TIP3    H141330   2.449   1.653   3.992 -0.2008  0.2036  1.4168
 6613TIP3    H241331   2.565   1.724   4.059 -0.1644  1.5188  0.0147
 6614TIP3   OH241332   3.104   3.049   3.777 -0.2897 -0.5788 -0.7012
 6614TIP3    H141333   3.160   2.981   3.814  2.3366  0.2127 -2.8237
 6614TIP3    H241334   3.055   3.005   3.708 -1.4078 -1.0263  0.3557
 6615TIP3   OH241335   0.836   3.742   4.728 -0.0656  0.0756 -0.2512
 6615TIP3    H141336   0.874   3.823   4.693  0.1229  0.3058  0.4764
 6615TIP3    H241337   0.892   3.672   4.693  0.9215  0.4004  0.6639
 6616TIP3   OH241338   2.002   4.448  14.858 -0.0544 -0.2702 -0.6249
 6616TIP3    H141339   1.940   4.521  14.856  0.0197 -0.2231 -1.6492
 6616TIP3    H241340   1.950   4.373  14.889  0.0837  0.3939  1.2848
 6617TIP3   OH241341   4.699   5.313  12.516  0.4052  0.1961  0.3184
 6617TIP3    H141342   4.698   5.357  12.432 -0.0512 -0.2754  0.0671
 6617TIP3    H241343   4.791   5.296  12.534  0.6774  2.1450  0.9121
 6618TIP3   OH241344   3.265   0.818   2.849  0.2699  0.3682 -0.1136
 6618TIP3    H141345   3.217   0.875   2.910  0.6982 -0.2935  0.8681
 6618TIP3    H241346   3.222   0.732   2.858  1.4180 -0.1563  0.5493
 6619TIP3   OH241347   5.869   4.011  15.407  0.3063 -0.0410  0.5874
 6619TIP3    H141348   5.874   3.929  15.358  1.4889 -0.5084  1.4523
 6619TIP3    H241349   5.924   4.072  15.357  1.2281 -0.4185  1.1212
 6620TIP3   OH241350   3.118   1.146   3.799 -0.4106  0.2129 -0.1487
 6620TIP3    H141351   3.155   1.150   3.887 -0.6109  1.6046 -0.1136
 6620TIP3    H241352   3.107   1.052   3.783  2.3293 -0.2435  0.1394
 6621TIP3   OH241353   5.903   5.344  11.930 -0.1400 -0.3885  0.2733
 6621TIP3    H141354   5.993   5.311  11.929 -0.4626 -1.2674 -0.1624
 6621TIP3    H241355   5.891   5.383  11.844  0.1541  0.6994  0.6942
 6622TIP3   OH241356   0.253   0.093   0.410 -0.1182 -0.0539 -0.1661
 6622TIP3    H141357   0.313   0.121   0.479  1.1719 -0.3904 -1.1104
 6622TIP3    H241358   0.223   0.174   0.370 -1.8642  0.2171  1.5294
 6623TIP3   OH241359   4.620   6.047   1.939  0.0335  0.0816  0.1925
 6623TIP3    H141360   4.606   5.956   1.916  0.5965 -0.1120  0.5756
 6623TIP3    H241361   4.713   6.052   1.961 -0.4340  0.2247  2.4121
 6624TIP3   OH241362   4.410   6.683  15.967  0.4385 -0.2295 -0.1670
 6624TIP3    H141363   4.433   6.620  16.036  1.0986 -0.8388 -0.9214
 6624TIP3    H241364   4.328   6.649  15.931  1.3575 -1.3239 -1.3163
 6625TIP3   OH241365   2.540   4.757  11.408 -0.1172  0.0499 -0.2537
 6625TIP3    H141366   2.560   4.818  11.337 -1.5372 -0.3329 -1.0254
 6625TIP3    H241367   2.533   4.813  11.486  0.3547  0.6257 -0.6112
 6626TIP3   OH241368   5.698   4.883   0.970  0.6287  0.4773 -0.3889
 6626TIP3    H141369   5.608   4.876   0.938  0.3715  2.0552 -0.1041
 6626TIP3    H241370   5.691   4.871   1.065  0.9212 -0.7689 -0.5140
 6627TIP3   OH241371   5.032   1.740  12.985  0.1758 -0.4187  1.2819
 6627TIP3    H141372   5.112   1.731  12.932 -0.7703 -1.4129 -0.0338
 6627TIP3    H241373   4.989   1.818  12.949 -0.3320 -0.9373  0.7438
 6628TIP3   OH241374   0.489   6.086  14.607  0.1403 -0.5911  0.0928
 6628TIP3    H141375   0.544   6.144  14.554 -1.6882  0.8933 -0.2940
 6628TIP3    H241376   0.537   6.003  14.610  4.0038  1.4200  2.5001
 6629TIP3   OH241377   2.469   2.887  16.423  0.3259  0.2647  0.7372
 6629TIP3    H141378   2.398   2.827  16.399  0.2911  1.0160 -1.2528
 6629TIP3    H241379   2.488   2.867  16.514  0.5748 -3.0472  0.0807
 6630TIP3   OH241380   4.885   1.147  15.347  0.3569 -0.6403 -0.6093
 6630TIP3    H141381   4.912   1.116  15.434  2.1904  1.5407 -0.3183
 6630TIP3    H241382   4.947   1.106  15.287  2.6546  2.0550 -0.2443
 6631TIP3   OH241383   1.612   4.211  14.748 -0.3244 -0.1558  0.2900
 6631TIP3    H141384   1.545   4.254  14.802 -0.4354  0.0933 -0.0397
 6631TIP3    H241385   1.563   4.176  14.674  0.0513  0.9935 -0.5295
 6632TIP3   OH241386   4.951   3.124  11.232  0.1797  0.3621 -0.4615
 6632TIP3    H141387   5.004   3.201  11.253  2.2459 -1.3928  1.2449
 6632TIP3    H241388   4.985   3.093  11.148 -0.4891  1.1214 -1.0298
 6633TIP3   OH241389   1.395   1.564   5.216 -0.6293  0.1070 -0.1754
 6633TIP3    H141390   1.475   1.565   5.165 -1.7557  0.1527 -2.0351
 6633TIP3    H241391   1.424   1.573   5.307  1.6917 -2.8913 -0.4482
 6634TIP3   OH241392   5.998   0.318  12.952 -0.3244  0.1872  0.4564
 6634TIP3    H141393   6.028   0.386  12.892  0.3434 -1.0708 -0.6942
 6634TIP3    H241394   6.073   0.259  12.960 -0.6468 -0.0683  1.9823
 6635TIP3   OH241395   5.287   6.319   3.485 -0.0329 -0.1293 -0.1129
 6635TIP3    H141396   5.304   6.233   3.447  0.3258  0.5627 -1.5944
 6635TIP3    H241397   5.373   6.351   3.513  0.0279  0.2707 -0.7420
 6636TIP3   OH241398   1.788   1.552   4.061  0.9344  0.3311 -0.1618
 6636TIP3    H141399   1.783   1.609   3.984  0.1006 -0.2019 -0.5200
 6636TIP3    H241400   1.751   1.605   4.132 -0.3168  0.0980 -0.6008
 6637TIP3   OH241401   4.722   0.921   3.523  0.6072 -0.2888 -0.3128
 6637TIP3    H141402   4.734   0.843   3.577 -0.1925 -1.1112 -1.2990
 6637TIP3    H241403   4.785   0.910   3.451  1.6737  0.8048  0.4143
 6638TIP3   OH241404   5.929   2.801   2.197 -0.1636 -0.3147  0.8729
 6638TIP3    H141405   5.993   2.733   2.180 -0.0091  0.1467 -0.5093
 6638TIP3    H241406   5.844   2.756   2.198  0.0480 -0.7024  1.2059
 6639TIP3   OH241407   1.931   2.276  15.930  0.2327  0.4335  0.0518
 6639TIP3    H141408   2.024   2.286  15.951  0.2765 -0.1076  0.1315
 6639TIP3    H241409   1.927   2.203  15.869 -0.3862 -1.4290  2.1927
 6640TIP3   OH241410   2.194   0.427  14.764  0.0066  0.0701 -0.4316
 6640TIP3    H141411   2.218   0.389  14.848 -0.3349  1.3838  0.2870
 6640TIP3    H241412   2.275   0.426  14.712  0.5648  0.5272  0.4167
 6641TIP3   OH241413   4.045   3.336  15.285 -0.4623 -0.3861 -0.1436
 6641TIP3    H141414   4.115   3.272  15.273  0.1000  0.2787 -0.4557
 6641TIP3    H241415   3.966   3.292  15.252 -0.5367 -1.7384  1.6486
 6642TIP3   OH241416   3.031   2.346  15.207 -0.8621  0.3204 -0.2937
 6642TIP3    H141417   3.065   2.274  15.260 -0.8063  0.0115 -0.7476
 6642TIP3    H241418   3.036   2.423  15.264  1.0202  0.3733 -0.4965
 6643TIP3   OH241419   1.339   0.316  10.961  0.0664 -0.3489 -0.3899
 6643TIP3    H141420   1.381   0.237  10.926  0.4940  0.1932 -1.1281
 6643TIP3    H241421   1.410   0.364  11.003  0.0220  0.1629 -0.8933
 6644TIP3   OH241422   5.339   2.600   4.272 -0.3762  0.4847  0.0185
 6644TIP3    H141423   5.309   2.597   4.363  4.5827 -1.5277  1.9839
 6644TIP3    H241424   5.386   2.683   4.265 -0.6706  0.5993 -0.7374
 6645TIP3   OH241425   6.294   4.592   1.921 -0.4542 -0.3428  0.6032
 6645TIP3    H141426   6.273   4.500   1.933 -1.2078 -0.1452  0.8518
 6645TIP3    H241427   6.380   4.592   1.878  0.0413 -1.1370  1.5550
 6646TIP3   OH241428   0.984   5.284  11.153  0.3468  0.4548 -0.2562
 6646TIP3    H141429   1.020   5.294  11.241 -0.8673 -0.7856  0.4256
 6646TIP3    H241430   0.891   5.268  11.167  0.1232  0.2342 -1.7798
 6647TIP3   OH241431   6.633   6.139   4.796  0.0652 -0.0436  0.4278
 6647TIP3    H141432   6.549   6.094   4.787  0.3899 -1.2289  2.7118
 6647TIP3    H241433   6.638   6.163   4.889  2.6523 -0.8912  0.5822
 6648TIP3   OH241434   2.707   4.088   4.229  0.4257 -0.2760  0.1137
 6648TIP3    H141435   2.766   4.016   4.251  2.4753  1.1220 -0.4956
 6648TIP3    H241436   2.620   4.050   4.232  1.3003 -2.3428  1.5184
 6649TIP3   OH241437   5.807   6.155  13.824 -0.6929  0.0259 -0.6341
 6649TIP3    H141438   5.765   6.208  13.891 -2.1434  0.2831 -1.7167
 6649TIP3    H241439   5.781   6.065  13.846  1.0449 -0.2220  0.6780
 6650TIP3   OH241440   1.542   4.990  11.120 -0.0369 -0.0208  0.0020
 6650TIP3    H141441   1.529   4.975  11.213 -0.6993  0.8321  0.0632
 6650TIP3    H241442   1.463   4.956  11.078 -0.3130  0.7474 -0.1157
 6651TIP3   OH241443   3.444   0.284   4.506 -0.1398 -0.7176  0.1731
 6651TIP3    H141444   3.495   0.214   4.466  0.3358 -0.4754  0.3456
 6651TIP3    H241445   3.379   0.308   4.440  1.2379  0.3430 -0.8680
 6652TIP3   OH241446   2.068   4.415   4.331 -0.1652 -0.2653 -0.5188
 6652TIP3    H141447   1.983   4.415   4.286 -0.1102  1.4698 -0.6788
 6652TIP3    H241448   2.046   4.430   4.423  0.0014  0.9802 -0.6738
 6653TIP3   OH241449   3.687   4.712  14.550  0.6422  0.4453 -0.6152
 6653TIP3    H141450   3.701   4.714  14.455 -1.4443  0.4794 -0.9783
 6653TIP3    H241451   3.748   4.777  14.585  0.1758  1.7757 -2.1499
 6654TIP3   OH241452   3.211   4.569  13.407 -0.0809  0.0621 -0.0447
 6654TIP3    H141453   3.196   4.585  13.500  1.7184 -0.5974  0.4025
 6654TIP3    H241454   3.250   4.650  13.374  1.0367 -0.3510  0.2302
 6655TIP3   OH241455   3.321   0.818  14.092  0.2540 -0.1332 -0.0988
 6655TIP3    H141456   3.353   0.842  14.179 -1.2113  0.4118  0.3156
 6655TIP3    H241457   3.381   0.863  14.032 -0.2010  1.5867  0.6561
 6656TIP3   OH241458   3.686   5.359   2.125 -0.0834 -0.4149 -0.2421
 6656TIP3    H141459   3.615   5.327   2.180  0.4515 -1.5018 -0.1516
 6656TIP3    H241460   3.714   5.282   2.076  2.1550 -0.4736  0.9766
 6657TIP3   OH241461   1.881   0.599   2.687 -0.2842  0.1192 -0.0447
 6657TIP3    H141462   1.893   0.652   2.765  0.6445 -1.8538  1.2255
 6657TIP3    H241463   1.794   0.624   2.654 -1.0478  0.4458  2.0774
 6658TIP3   OH241464   6.189   1.027   1.616 -0.3059 -0.2898  0.2953
 6658TIP3    H141465   6.252   0.956   1.607  1.0456  0.3995  3.0755
 6658TIP3    H241466   6.104   0.984   1.624  0.3294 -1.5119  0.6483
 6659TIP3   OH241467   0.494   2.284   3.961  0.4100  0.1069  0.1870
 6659TIP3    H141468   0.469   2.335   4.038 -0.3531 -0.2066  0.1452
 6659TIP3    H241469   0.580   2.319   3.937  0.0922  1.0780  0.4202
 6660TIP3   OH241470   6.441   4.497  13.218 -0.4744  0.4582  0.3015
 6660TIP3    H141471   6.508   4.551  13.177 -0.3070  1.2293  1.5433
 6660TIP3    H241472   6.484   4.413  13.233  0.0483  0.7755  0.6009
 6661TIP3   OH241473   3.153   0.839   1.501  0.3983  0.3807  0.5682
 6661TIP3    H141474   3.120   0.749   1.495  1.9369 -0.1540 -0.3903
 6661TIP3    H241475   3.075   0.892   1.517 -0.9092 -0.8369 -1.3876
 6662TIP3   OH241476   2.175   3.182  15.508 -0.3240  0.1438 -0.0999
 6662TIP3    H141477   2.194   3.113  15.445  0.4753  0.2572  0.0059
 6662TIP3    H241478   2.235   3.253  15.485 -0.5137  0.4549  0.3514
 6663TIP3   OH241479   5.735   3.485   1.261 -0.0045 -0.4248 -0.1880
 6663TIP3    H141480   5.642   3.470   1.277 -0.1832  1.1430  0.3407
 6663TIP3    H241481   5.749   3.451   1.172 -1.2169 -0.1115 -0.5220
 6664TIP3   OH241482   2.764   6.183   4.119 -0.1651 -0.7537  0.0210
 6664TIP3    H141483   2.841   6.186   4.176  0.0494 -0.7925 -0.2640
 6664TIP3    H241484   2.785   6.115   4.055  0.1312  0.1388 -0.8524
 6665TIP3   OH241485   0.656   3.987   3.100 -0.0465 -0.3589 -0.4017
 6665TIP3    H141486   0.614   3.933   3.033  2.0921 -0.3815 -1.8612
 6665TIP3    H241487   0.660   4.074   3.061 -1.0872  0.2715  0.8321
 6666TIP3   OH241488   5.935   0.768   0.549 -0.2859 -0.0146 -0.1104
 6666TIP3    H141489   6.010   0.806   0.594  1.0223 -1.2902 -1.0943
 6666TIP3    H241490   5.967   0.683   0.517 -2.2375 -0.7232 -0.3237
 6667TIP3   OH241491   2.342   5.030  13.935  0.5707  1.1431 -0.7254
 6667TIP3    H141492   2.325   4.947  13.979  0.1263  2.3419  1.4977
 6667TIP3    H241493   2.420   5.065  13.976  0.0164  2.4198 -0.6993
 6668TIP3   OH241494   3.749   0.807   6.230 -0.0414  0.4318 -0.5907
 6668TIP3    H141495   3.653   0.807   6.230 -0.1058  2.2598  0.7460
 6668TIP3    H241496   3.773   0.900   6.229  1.7757  0.0146 -2.4085
 6669TIP3   OH241497   2.349   2.138   5.440  0.0775 -0.2803  0.2218
 6669TIP3    H141498   2.393   2.063   5.479  0.9136  0.4190  0.6663
 6669TIP3    H241499   2.346   2.203   5.510  0.3791  0.5050 -0.4767
 6670TIP3   OH241500   0.516   6.476  14.663  0.1791 -0.0248  0.0978
 6670TIP3    H141501   0.520   6.409  14.730  2.7893  0.9117  0.9860
 6670TIP3    H241502   0.492   6.556  14.710  2.9871  0.8507  0.2389
 6671TIP3   OH241503   1.805   4.039  14.020  0.2318  0.3312 -0.4171
 6671TIP3    H141504   1.838   4.117  13.975 -0.8213  2.8187  2.7073
 6671TIP3    H241505   1.739   4.074  14.081 -2.8190 -3.4405 -1.1706
 6672TIP3   OH241506   6.547   1.278  13.077 -0.0713 -0.5851 -0.3385
 6672TIP3    H141507   6.467   1.331  13.075 -0.5221 -1.2795 -1.9327
 6672TIP3    H241508   6.596   1.312  13.151 -0.8562  1.3277 -0.6428
 6673TIP3   OH241509   1.543   3.725  16.628  0.2519 -0.3755  0.1233
 6673TIP3    H141510   1.548   3.814  16.594  0.9305 -0.0437  1.0489
 6673TIP3    H241511   1.462   3.690  16.592  1.1422 -0.2167 -2.1725
 6674TIP3   OH241512   0.236   6.122   1.888  0.4462 -0.1976  0.2948
 6674TIP3    H141513   0.244   6.040   1.840 -0.4849  0.2740 -0.6851
 6674TIP3    H241514   0.312   6.174   1.859 -0.3510  0.2604 -1.0507
 6675TIP3   OH241515   3.240   2.945  12.476 -0.2434  0.5431 -0.5155
 6675TIP3    H141516   3.147   2.929  12.490  0.0156  0.8550  2.0677
 6675TIP3    H241517   3.249   3.040  12.480  0.4368  0.4397  1.6986
 6676TIP3   OH241518   1.403   2.836   4.378 -0.5706  0.0140  0.5670
 6676TIP3    H141519   1.379   2.746   4.359 -1.4208  0.3144  0.1817
 6676TIP3    H241520   1.409   2.840   4.474 -0.6244 -0.4257  0.5893
 6677TIP3   OH241521   5.666   4.706   3.851  0.6867 -0.0769  0.2821
 6677TIP3    H141522   5.591   4.734   3.904  0.3383 -0.7595  0.1537
 6677TIP3    H241523   5.628   4.655   3.780  1.2377 -0.0249 -0.0548
 6678TIP3   OH241524   1.903   0.198  16.483 -0.1815  0.5638 -0.0429
 6678TIP3    H141525   1.839   0.262  16.515 -1.0490 -0.0275 -0.5502
 6678TIP3    H241526   1.951   0.170  16.561 -2.1584 -0.7498  0.7716
 6679TIP3   OH241527   6.510   5.582  13.494  0.5054  0.0641 -0.8628
 6679TIP3    H141528   6.460   5.503  13.470 -2.4602  1.4057  0.3940
 6679TIP3    H241529   6.527   5.626  13.411 -0.2320 -0.5464 -1.3476
 6680TIP3   OH241530   2.058   5.013   5.001  0.0626  0.1614 -0.0061
 6680TIP3    H141531   2.063   5.039   4.909 -1.8884 -0.6548 -0.3833
 6680TIP3    H241532   1.997   5.076   5.041  0.3216  0.0542  0.5749
 6681TIP3   OH241533   4.062   1.152  16.202 -0.0027  0.0643 -0.3640
 6681TIP3    H141534   3.966   1.157  16.206  0.0773  1.6111  2.0339
 6681TIP3    H241535   4.087   1.221  16.141 -0.3873 -0.7800 -1.5186
 6682TIP3   OH241536   5.658   2.657  12.909  0.0545 -0.1679 -0.3475
 6682TIP3    H141537   5.637   2.607  12.831  0.1478 -0.8326  0.0464
 6682TIP3    H241538   5.626   2.745  12.890 -2.1685 -0.8656 -0.2115
 6683TIP3   OH241539   1.979   0.359   1.764  0.5528  0.1857 -0.1826
 6683TIP3    H141540   1.961   0.298   1.692  2.2294 -0.9879  0.3138
 6683TIP3    H241541   1.955   0.309   1.843 -0.3911  1.1199  0.1477
 6684TIP3   OH241542   6.606   3.443  11.816  0.1334 -0.4711 -0.2704
 6684TIP3    H141543   6.688   3.456  11.865  0.1620 -0.7747 -0.2357
 6684TIP3    H241544   6.571   3.531  11.805  0.8082 -0.2667 -0.8728
 6685TIP3   OH241545   2.077   1.921   1.546 -0.3804  0.2522 -0.5361
 6685TIP3    H141546   2.147   1.858   1.567 -0.4043 -0.1271 -1.5590
 6685TIP3    H241547   2.047   1.896   1.459 -3.2399 -0.9415  0.6482
 6686TIP3   OH241548   4.369   2.141   2.587  0.1827  0.0037 -0.4624
 6686TIP3    H141549   4.377   2.106   2.499  0.6754  0.6203 -0.6738
 6686TIP3    H241550   4.281   2.178   2.591 -0.1004 -0.6711 -0.4530
 6687TIP3   OH241551   3.194   6.557  15.705  0.0441  0.7349 -0.5321
 6687TIP3    H141552   3.281   6.533  15.737 -0.3653 -0.2443 -0.1238
 6687TIP3    H241553   3.133   6.515  15.766 -0.7455 -0.0531 -1.8286
 6688TIP3   OH241554   1.112   2.854   4.745  0.6635  0.6932  0.6531
 6688TIP3    H141555   1.192   2.826   4.790  0.0065 -2.8247 -0.0794
 6688TIP3    H241556   1.068   2.772   4.721 -2.1420  2.4765 -0.8239
 6689TIP3   OH241557   2.672   3.684  11.819 -0.4303 -0.1182 -0.2101
 6689TIP3    H141558   2.621   3.721  11.891 -1.0122  2.0758 -1.6294
 6689TIP3    H241559   2.763   3.705  11.840 -0.0083 -3.4644  2.0057
 6690TIP3   OH241560   1.732   5.025   1.602  0.3664 -0.5059 -0.1910
 6690TIP3    H141561   1.729   4.951   1.664 -0.0272  1.2749  2.0377
 6690TIP3    H241562   1.640   5.048   1.588  0.4913 -0.3867 -0.8579
 6691TIP3   OH241563   0.960   6.025   0.413  0.3802 -0.0487 -0.1197
 6691TIP3    H141564   0.901   6.053   0.343 -0.2387 -0.1404  0.3538
 6691TIP3    H241565   0.921   5.944   0.446 -0.2104  0.8079  1.3720
 6692TIP3   OH241566   6.518   1.271  11.960  0.4631 -0.0039  0.0044
 6692TIP3    H141567   6.494   1.330  11.889  3.1866 -0.5237 -1.4547
 6692TIP3    H241568   6.603   1.302  11.990  0.3312 -1.0772  1.6180
 6693TIP3   OH241569   6.235   6.240   4.667 -0.0833  0.2014 -0.0494
 6693TIP3    H141570   6.245   6.164   4.609 -2.5994 -0.3871  0.1619
 6693TIP3    H241571   6.220   6.313   4.608 -0.2151  0.0494 -0.2068
 6694TIP3   OH241572   0.445   1.345   1.508  0.1776  0.3544  0.2906
 6694TIP3    H141573   0.446   1.257   1.471  1.0115  1.0666 -1.5527
 6694TIP3    H241574   0.384   1.394   1.453  0.5242  1.1711  0.6047
 6695TIP3   OH241575   6.330   3.834   4.873  0.0789 -0.1464 -0.4836
 6695TIP3    H141576   6.401   3.824   4.810  0.0796 -1.0012 -0.3583
 6695TIP3    H241577   6.369   3.876   4.949  0.8144 -1.8624  0.1537
 6696TIP3   OH241578   4.741   4.259  13.018 -0.0931  0.2133  0.6422
 6696TIP3    H141579   4.799   4.188  12.990  0.3219  0.6301  0.4292
 6696TIP3    H241580   4.708   4.296  12.936 -0.4081  0.1876  0.7564
 6697TIP3   OH241581   6.490   0.562   1.403 -0.1331  0.6598  0.0250
 6697TIP3    H141582   6.462   0.591   1.489 -0.7110  1.3552 -0.3834
 6697TIP3    H241583   6.513   0.643   1.357 -1.3074  0.4553 -0.9752
 6698TIP3   OH241584   4.265   0.035  14.911 -0.2299 -0.2206 -0.1122
 6698TIP3    H141585   4.264  -0.006  14.824 -1.8219 -0.1667 -0.1505
 6698TIP3    H241586   4.213  -0.025  14.965  0.3731 -0.0192  0.7028
 6699TIP3   OH241587   3.096   1.075  13.124  0.1723 -0.3464 -0.5255
 6699TIP3    H141588   3.100   1.170  13.109 -1.2479 -0.2717 -0.5968
 6699TIP3    H241589   3.066   1.039  13.041  0.8736 -0.8945 -0.5516
 6700TIP3   OH241590   1.922   2.215   0.715  0.1588  0.8468  0.6505
 6700TIP3    H141591   2.008   2.236   0.751 -0.0825  1.3197  0.9578
 6700TIP3    H241592   1.932   2.230   0.620  0.8395 -0.5718  0.4731
 6701TIP3   OH241593   2.083   3.659  12.367 -0.5055  0.6251 -0.5274
 6701TIP3    H141594   2.028   3.738  12.364  2.2223  2.7459  0.3104
 6701TIP3    H241595   2.088   3.637  12.460  1.3570  1.5524 -0.3650
 6702TIP3   OH241596   4.860   1.033   4.802  0.1982 -0.5978  0.2568
 6702TIP3    H141597   4.871   0.991   4.887  0.7328 -0.6910  0.1412
 6702TIP3    H241598   4.774   1.075   4.807  0.6132  0.1916  1.1801
 6703TIP3   OH241599   2.941   5.719  13.715 -0.1438  0.6693  0.2363
 6703TIP3    H141600   2.865   5.777  13.716  0.0304  0.9039  1.7740
 6703TIP3    H241601   2.909   5.637  13.677  0.1450  2.3929 -4.3543
 6704TIP3   OH241602   1.453   5.687   1.208  0.2379 -0.3517  0.0669
 6704TIP3    H141603   1.400   5.762   1.234  0.8964  0.8695 -1.9187
 6704TIP3    H241604   1.534   5.697   1.259  0.4651  0.5021 -0.4470
 6705TIP3   OH241605   2.518   2.595   4.969 -0.2977  0.3951  0.3054
 6705TIP3    H141606   2.485   2.667   4.916 -0.9743 -1.2593 -1.6616
 6705TIP3    H241607   2.613   2.606   4.969 -0.4655  2.2850  1.6310
 6706TIP3   OH241608   2.267   0.856   3.718  0.3853  0.0165 -0.0561
 6706TIP3    H141609   2.190   0.837   3.772  0.6950  1.9295  1.1645
 6706TIP3    H241610   2.279   0.951   3.727  4.1952 -0.4676  1.6105
 6707TIP3   OH241611   0.394   0.711  12.878  0.1906 -0.1506 -0.5238
 6707TIP3    H141612   0.373   0.804  12.881  0.2802 -0.1175 -0.8914
 6707TIP3    H241613   0.485   0.706  12.908  0.2509 -0.0962 -0.6941
 6708TIP3   OH241614   4.659   2.341  15.892 -0.7686  0.1100 -0.0274
 6708TIP3    H141615   4.695   2.414  15.841 -2.4692  0.1543 -1.2468
 6708TIP3    H241616   4.623   2.282  15.827  0.5872 -1.8873  0.9450
 6709TIP3   OH241617   5.281   6.460  16.076  0.2307  0.1813 -0.4930
 6709TIP3    H141618   5.262   6.543  16.032 -0.0983  0.8965  0.9481
 6709TIP3    H241619   5.288   6.483  16.168  0.9200 -1.2790 -0.1559
 6710TIP3   OH241620   0.031   0.069   6.297 -0.6009 -0.3202  0.7279
 6710TIP3    H141621   0.091   0.141   6.314 -0.4424 -0.3388  0.2653
 6710TIP3    H241622   0.085   0.003   6.254 -1.3752  0.5236 -1.7198
 6711TIP3   OH241623   1.120   3.433  15.717 -0.0379 -0.2269 -0.3653
 6711TIP3    H141624   1.078   3.446  15.802 -0.1325  2.0972 -0.7050
 6711TIP3    H241625   1.054   3.460  15.653  0.1386 -1.6603 -1.1997
 6712TIP3   OH241626   1.281   1.598   0.827 -0.0705  0.1952 -0.3711
 6712TIP3    H141627   1.235   1.656   0.887 -0.3760  0.8190 -1.1904
 6712TIP3    H241628   1.300   1.520   0.879 -2.7056 -0.4237 -0.1630
 6713TIP3   OH241629   1.284   3.518   1.531  0.7012 -0.0015 -0.0820
 6713TIP3    H141630   1.374   3.490   1.515  0.9501 -1.4420  3.0594
 6713TIP3    H241631   1.290   3.570   1.611 -1.2186  0.2045 -0.0365
 6714TIP3   OH241632   3.863   3.558   1.543 -0.9835 -0.1212  0.3019
 6714TIP3    H141633   3.876   3.650   1.521 -0.4627 -0.1911  0.3116
 6714TIP3    H241634   3.920   3.543   1.618 -0.7347 -0.5615  0.0259
 6715TIP3   OH241635   1.252   2.592   0.599 -0.0032  0.1183 -0.3907
 6715TIP3    H141636   1.249   2.510   0.549 -1.0951  0.1794 -0.4504
 6715TIP3    H241637   1.325   2.580   0.659 -0.4747 -1.1493 -0.0162
 6716TIP3   OH241638   4.051   3.005   5.493 -0.0417  0.1020 -0.2423
 6716TIP3    H141639   3.978   3.038   5.441 -0.1874  1.5292  0.8011
 6716TIP3    H241640   4.098   2.947   5.434 -0.6689  1.0036 -1.6851
 6717TIP3   OH241641   2.102   0.454   5.439 -0.1765  0.0605  0.3601
 6717TIP3    H141642   2.174   0.414   5.390 -1.1268  0.1767 -1.1886
 6717TIP3    H241643   2.129   0.545   5.452  0.2780 -0.0866  0.4646
 6718TIP3   OH241644   1.064   5.001   5.504 -0.2311  0.6290 -0.0317
 6718TIP3    H141645   1.099   5.004   5.415  1.7580 -1.5206  0.5591
 6718TIP3    H241646   1.012   4.921   5.507  0.7292  0.0104  1.0080
 6719TIP3   OH241647   1.348   6.604   4.607 -0.4462  0.4295 -0.6997
 6719TIP3    H141648   1.407   6.678   4.612  0.3180 -0.2549  1.6353
 6719TIP3    H241649   1.265   6.641   4.576  0.4195  1.8864 -1.3643
 6720TIP3   OH241650   4.688   4.202  17.034 -0.1626  0.0300 -0.2258
 6720TIP3    H141651   4.743   4.281  17.030 -0.1194  0.1068  1.3445
 6720TIP3    H241652   4.643   4.208  17.118 -1.9988 -0.4416 -1.1216
 6721TIP3   OH241653   6.426   6.049   1.445 -0.9711 -0.3626  0.0142
 6721TIP3    H141654   6.442   5.983   1.378  0.1476  0.4308 -0.5224
 6721TIP3    H241655   6.485   6.121   1.423 -1.0462  0.1829  1.4793
 6722TIP3   OH241656   3.946   4.915  16.294  0.1393 -0.2830 -0.1571
 6722TIP3    H141657   3.970   4.828  16.325  1.5223  0.4092  0.8521
 6722TIP3    H241658   3.851   4.917  16.296  0.1111 -1.5203  0.5101
 6723TIP3   OH241659   6.788   5.754   5.432 -0.0791  0.4234  0.4447
 6723TIP3    H141660   6.851   5.714   5.371  0.7047  0.3350  1.2818
 6723TIP3    H241661   6.723   5.686   5.448 -0.0241  0.2844  0.0840
 6724TIP3   OH241662   4.746   0.738  16.651  0.2998  0.0937  0.4059
 6724TIP3    H141663   4.687   0.753  16.725 -0.7909  0.2300 -0.4572
 6724TIP3    H241664   4.802   0.815  16.648 -1.2997  1.2714 -0.3924
 6725TIP3   OH241665   4.571   1.172   0.008  0.5849  0.5025 -0.1008
 6725TIP3    H141666   4.500   1.187  -0.055  1.2165 -0.7181 -1.1451
 6725TIP3    H241667   4.651   1.197  -0.040  1.0611 -0.3250  0.2389
 6726TIP3   OH241668   1.330   3.531  14.030 -0.4144 -0.0657  0.0651
 6726TIP3    H141669   1.372   3.542  13.944  1.1880 -0.1683  0.7981
 6726TIP3    H241670   1.310   3.620  14.058  1.2732  0.1905  0.5984
 6727TIP3   OH241671   0.900   2.551   2.103  0.3535 -0.3125 -0.0891
 6727TIP3    H141672   0.989   2.520   2.121 -0.3571 -1.0326  2.5653
 6727TIP3    H241673   0.902   2.575   2.010  3.7487  1.2992  0.2404
 6728TIP3   OH241674   0.062   5.466   2.421  0.0857  0.7108  0.0856
 6728TIP3    H141675   0.008   5.507   2.354  1.3707  1.5462 -0.4917
 6728TIP3    H241676   0.100   5.540   2.470  0.7330  0.1566  0.4353
 6729TIP3   OH241677   6.351   3.156   4.685  0.3526 -0.2603  0.0274
 6729TIP3    H141678   6.391   3.110   4.758 -0.4840 -0.3988  0.4209
 6729TIP3    H241679   6.400   3.128   4.608  0.7572 -0.7085  0.4447
 6730TIP3   OH241680   3.033   3.295  16.370  0.0501  0.4150  0.5921
 6730TIP3    H141681   3.114   3.253  16.339 -0.5640 -0.0604 -0.4230
 6730TIP3    H241682   2.972   3.285  16.297 -0.8359  1.0289  1.2374
 6731TIP3   OH241683   5.638   4.526  15.229 -0.3444 -0.5189 -0.2498
 6731TIP3    H141684   5.569   4.476  15.272 -0.9891 -0.9497 -1.7592
 6731TIP3    H241685   5.710   4.525  15.293 -0.9880 -1.8012  0.5084
 6732TIP3   OH241686   0.687   4.570  15.204  0.4465  0.9641  0.9134
 6732TIP3    H141687   0.701   4.647  15.261 -0.6134  0.2711  2.1495
 6732TIP3    H241688   0.593   4.553  15.209  0.8305 -1.2624  1.8276
 6733TIP3   OH241689   2.139   4.316  15.596  0.0879  0.2961 -0.0206
 6733TIP3    H141690   2.104   4.251  15.656 -0.2153  0.2116 -0.2857
 6733TIP3    H241691   2.229   4.329  15.625 -0.3629  1.0526  1.1284
 6734TIP3   OH241692   2.967   0.973   0.615 -0.0495 -0.1898  0.6325
 6734TIP3    H141693   3.052   0.979   0.660  1.0256  1.0661 -1.4308
 6734TIP3    H241694   2.918   1.049   0.648 -0.0730 -0.4406  1.1985
 6735TIP3   OH241695   0.465   5.083  12.029  0.8159  1.0485  0.2903
 6735TIP3    H141696   0.519   5.131  11.965 -0.3447  2.9490  0.6589
 6735TIP3    H241697   0.467   4.992  11.998  1.9715  1.5500 -1.2642
 6736TIP3   OH241698   3.426   6.724   3.069 -0.4039  0.0582  0.1229
 6736TIP3    H141699   3.332   6.740   3.076 -0.4516 -0.4714  0.8118
 6736TIP3    H241700   3.466   6.810   3.086 -0.7301  0.0194  1.1451
 6737TIP3   OH241701   0.727   3.468   2.690 -0.2623 -0.6337 -0.3719
 6737TIP3    H141702   0.720   3.486   2.784 -1.2986  0.2304 -0.6059
 6737TIP3    H241703   0.800   3.521   2.660  2.1322 -3.2068  0.4717
 6738TIP3   OH241704   4.715   4.976  15.518 -0.4210 -0.0989  0.2162
 6738TIP3    H141705   4.632   4.929  15.519 -0.6656  0.3125 -0.3104
 6738TIP3    H241706   4.735   4.987  15.425  0.2738 -0.2879  0.3443
 6739TIP3   OH241707   2.798   6.494   1.430  0.4545 -0.3594  0.0755
 6739TIP3    H141708   2.801   6.486   1.334 -1.3706 -0.3282 -0.0232
 6739TIP3    H241709   2.737   6.425   1.457  0.1151  0.3351  1.1168
 6740TIP3   OH241710   5.438   2.066   0.417  0.2629 -0.7288 -0.2265
 6740TIP3    H141711   5.400   1.979   0.428  1.8516 -1.7007 -1.8856
 6740TIP3    H241712   5.516   2.065   0.473  0.2375 -0.3191 -0.1807
 6741TIP3   OH241713   6.235   4.546  15.181  0.0224  0.0112  0.1502
 6741TIP3    H141714   6.183   4.521  15.258  0.0417 -0.5802 -0.0205
 6741TIP3    H241715   6.214   4.478  15.116 -1.0433  1.2281 -0.8378
 6742TIP3   OH241716   4.592   1.126   4.793 -1.2101 -0.1412  0.2067
 6742TIP3    H141717   4.513   1.137   4.845 -2.6746  1.5465 -2.1525
 6742TIP3    H241718   4.564   1.141   4.703  0.8574 -4.3880 -1.3909
 6743TIP3   OH241719   6.116   0.491  15.645  0.1469  0.1209 -0.5249
 6743TIP3    H141720   6.179   0.550  15.604 -0.6872 -0.2014 -2.3568
 6743TIP3    H241721   6.169   0.416  15.674  1.1971  1.6527  1.7569
 6744TIP3   OH241722   2.858   3.613   1.289 -0.4795  0.1838 -0.1404
 6744TIP3    H141723   2.925   3.615   1.356  0.1034 -0.8637 -0.6664
 6744TIP3    H241724   2.906   3.610   1.206 -1.1849  1.1670 -0.6123
 6745TIP3   OH241725   1.442   0.477   1.448  0.3620  0.0901 -0.1014
 6745TIP3    H141726   1.452   0.566   1.480  0.4594 -0.1206  0.4766
 6745TIP3    H241727   1.359   0.447   1.485  0.4284 -0.1243 -0.1229
 6746TIP3   OH241728   2.214   1.161  10.913  0.0505  0.0113  0.4969
 6746TIP3    H141729   2.166   1.120  10.841  0.0918 -2.3800  1.7331
 6746TIP3    H241730   2.147   1.183  10.978  0.0441  1.9005 -0.0939
 6747TIP3   OH241731   0.754   3.004  14.612  0.1951 -0.2385  0.1319
 6747TIP3    H141732   0.793   3.083  14.574  1.3677 -0.4070  0.8948
 6747TIP3    H241733   0.816   2.979  14.681 -0.6868 -1.2394  0.5829
 6748TIP3   OH241734   2.943   6.061   3.476 -0.4286 -0.3268  0.1874
 6748TIP3    H141735   2.927   5.983   3.423  1.1953  0.2790 -1.3013
 6748TIP3    H241736   3.038   6.069   3.478 -0.5480  1.2446  0.8579
 6749TIP3   OH241737   6.618   4.009  10.485  0.6887  0.4901  0.3840
 6749TIP3    H141738   6.593   4.080  10.426 -1.2397 -0.9156 -0.5720
 6749TIP3    H241739   6.550   3.943  10.474  2.1053 -1.2828  1.6680
 6750TIP3   OH241740   1.320   4.662   3.839  0.1937  0.7133  0.3106
 6750TIP3    H141741   1.263   4.585   3.842  0.3735  0.5542 -0.2704
 6750TIP3    H241742   1.407   4.627   3.823  0.2688  1.0441 -0.0049
 6751TIP3   OH241743   4.117   5.404  14.041 -0.6926 -0.2503  0.1491
 6751TIP3    H141744   4.072   5.422  14.123  0.3564  0.3306  0.6253
 6751TIP3    H241745   4.153   5.316  14.051  2.2241  0.9787  1.7113
 6752TIP3   OH241746   2.450   0.453   4.803 -0.0121 -0.4398  0.4572
 6752TIP3    H141747   2.460   0.475   4.711  0.1581 -1.0437  0.3312
 6752TIP3    H241748   2.357   0.467   4.821 -0.0317 -0.2500  0.2161
 6753TIP3   OH241749   3.073   1.210  14.671  0.2895 -0.1613 -0.0350
 6753TIP3    H141750   3.009   1.239  14.606  1.6371 -1.4095 -2.0204
 6753TIP3    H241751   3.156   1.249  14.643  0.6673  0.6268  1.9383
 6754TIP3   OH241752   4.394   5.173  13.323  0.3226  0.1270  0.4311
 6754TIP3    H141753   4.419   5.244  13.383 -0.6398  0.0582  0.9244
 6754TIP3    H241754   4.348   5.218  13.252  3.1632  0.4695 -1.3534
 6755TIP3   OH241755   5.121   4.825   1.117  0.3251 -0.1893 -0.1338
 6755TIP3    H141756   5.083   4.818   1.029 -0.7232 -0.6690  0.3337
 6755TIP3    H241757   5.069   4.764   1.170  0.8965  0.1479  0.8359
 6756TIP3   OH241758   3.245   3.412   4.296  0.4733  0.2704 -0.3574
 6756TIP3    H141759   3.332   3.431   4.331  0.7566  1.5063 -1.6378
 6756TIP3    H241760   3.257   3.412   4.201 -0.6663 -0.9409 -0.5289
 6757TIP3   OH241761   1.739   3.329  14.231  0.1080  0.1308 -0.4039
 6757TIP3    H141762   1.758   3.401  14.171  0.4032  0.0003 -0.4640
 6757TIP3    H241763   1.753   3.250  14.180 -0.6327  0.0315 -0.4633
 6758TIP3   OH241764   1.637   0.052   4.206 -0.1639  0.4382  0.2733
 6758TIP3    H141765   1.673  -0.027   4.166  0.3090  0.6873  0.2019
 6758TIP3    H241766   1.593   0.097   4.135 -2.8290 -1.0900  0.8409
 6759TIP3   OH241767   6.521   1.675  11.642  0.0391  0.3557 -0.6308
 6759TIP3    H141768   6.585   1.734  11.682  1.2675 -0.8352 -0.7401
 6759TIP3    H241769   6.574   1.610  11.596 -1.2125 -1.2410  0.0678
 6760TIP3   OH241770   1.819   3.686  10.923  0.0581  0.5107  0.2782
 6760TIP3    H141771   1.762   3.762  10.912 -0.0279  0.4451  0.2807
 6760TIP3    H241772   1.804   3.633  10.845  1.9550  1.7054 -1.0026
 6761TIP3   OH241773   2.503   2.183   5.223  0.4419  0.6488 -0.1394
 6761TIP3    H141774   2.446   2.205   5.149 -1.5708 -2.0595  0.4241
 6761TIP3    H241775   2.444   2.182   5.299  1.7950  0.2406  0.9487
 6762TIP3   OH241776   6.180   3.273   2.249  0.2858 -0.6778 -0.3531
 6762TIP3    H141777   6.164   3.364   2.275  2.3385 -0.2346 -0.4333
 6762TIP3    H241778   6.201   3.279   2.156 -2.7912 -1.7159 -1.2323
 6763TIP3   OH241779   3.785   4.332  17.004 -0.0538  0.0952 -0.5585
 6763TIP3    H141780   3.692   4.310  17.015  0.4253 -1.3749  1.0374
 6763TIP3    H241781   3.827   4.249  16.984  0.8985  0.8090 -1.6481
 6764TIP3   OH241782   0.031   2.636   5.748  1.0498  0.1050  0.9892
 6764TIP3    H141783   0.065   2.616   5.835  0.2698 -0.2618  1.2239
 6764TIP3    H241784  -0.057   2.671   5.764  0.4169 -1.0867  0.3009
 6765TIP3   OH241785   0.423   1.851   5.542 -0.2224  0.1956 -0.1021
 6765TIP3    H141786   0.392   1.926   5.491  0.6613 -0.3089 -1.4250
 6765TIP3    H241787   0.518   1.859   5.540 -0.1437  0.9342  2.6826
 6766TIP3   OH241788   5.137   0.252   0.562  0.3133 -0.4842  0.0633
 6766TIP3    H141789   5.073   0.230   0.630  0.3260 -2.2448 -0.4399
 6766TIP3    H241790   5.108   0.204   0.485  1.2823  0.0695 -0.6770
 6767TIP3   OH241791   3.171   6.109   5.501 -0.1145 -0.2123  0.3316
 6767TIP3    H141792   3.107   6.164   5.548  0.2340  0.4016  0.1000
 6767TIP3    H241793   3.130   6.090   5.417  1.6794  3.9130 -1.7604
 6768TIP3   OH241794   6.718   5.135   2.230  0.0456  0.1858  0.3779
 6768TIP3    H141795   6.655   5.202   2.257  0.1367  0.0693  0.8814
 6768TIP3    H241796   6.704   5.062   2.290  0.2154 -0.0948  0.0780
 6769TIP3   OH241797   2.027   2.831  11.116 -0.0918 -0.3458 -0.1694
 6769TIP3    H141798   2.042   2.915  11.158  1.7013 -0.4764 -0.4950
 6769TIP3    H241799   2.035   2.766  11.187  0.0074 -0.3586 -0.1926
 6770TIP3   OH241800   3.967   0.708   4.332  0.0970 -0.3251  0.0786
 6770TIP3    H141801   3.886   0.727   4.286  0.0018  0.4588  0.5531
 6770TIP3    H241802   4.021   0.786   4.320  0.5334 -0.5840  0.3023
 6771TIP3   OH241803   0.835   1.860  11.189 -0.0711  0.0288 -0.1606
 6771TIP3    H141804   0.922   1.824  11.205 -0.0186  0.9384  1.9871
 6771TIP3    H241805   0.832   1.876  11.095  2.1191  0.0679 -0.2746
 6772TIP3   OH241806   0.126   0.265  14.562 -0.2346 -0.7482  0.1838
 6772TIP3    H141807   0.117   0.216  14.644 -0.5133 -2.5122 -0.8382
 6772TIP3    H241808   0.054   0.234  14.508  1.2165 -1.3560 -1.5317
 6773TIP3   OH241809   5.587   2.481   4.434 -0.2521 -0.3267 -0.1472
 6773TIP3    H141810   5.596   2.576   4.433  0.3388 -0.3222  1.7275
 6773TIP3    H241811   5.530   2.463   4.509 -2.6592 -1.3380 -2.1051
 6774TIP3   OH241812   3.697   3.824   6.058  0.1377 -0.1963 -0.3884
 6774TIP3    H141813   3.783   3.820   6.100  1.1054  2.5889 -1.8487
 6774TIP3    H241814   3.717   3.846   5.967 -2.0915 -0.7049 -1.0391
 6775TIP3   OH241815   1.340   4.904  15.260  0.0050 -0.2566  0.9213
 6775TIP3    H141816   1.374   4.858  15.184 -0.3501 -0.6184  0.9799
 6775TIP3    H241817   1.394   4.983  15.265 -0.1106 -0.1165  0.1646
 6776TIP3   OH241818   1.610   4.546  13.157 -0.7632  0.7837  0.0062
 6776TIP3    H141819   1.625   4.551  13.252  0.4689  2.4267 -0.2322
 6776TIP3    H241820   1.527   4.592  13.144 -0.0089  2.2133  0.1142
 6777TIP3   OH241821   0.666   0.976  16.791 -0.1106 -0.0962 -0.9315
 6777TIP3    H141822   0.572   0.959  16.788  0.2428 -2.4180 -1.8664
 6777TIP3    H241823   0.674   1.068  16.814 -2.5579 -0.2722  1.0290
 6778TIP3   OH241824   0.716   1.898   0.690  0.1221 -0.4538  0.9820
 6778TIP3    H141825   0.657   1.939   0.626  0.2535  0.9937  1.7331
 6778TIP3    H241826   0.708   1.804   0.674  1.0005 -0.1357 -1.9240
 6779TIP3   OH241827   6.623   0.795  12.089  0.3573 -0.7337  0.1689
 6779TIP3    H141828   6.718   0.792  12.082  0.4074  0.0763  0.3477
 6779TIP3    H241829   6.607   0.843  12.171 -0.2006 -0.9771  0.2070
 6780TIP3   OH241830   6.723   5.481  16.430  0.0808 -0.4592  0.1026
 6780TIP3    H141831   6.759   5.395  16.451  1.1444  0.3667  1.9818
 6780TIP3    H241832   6.645   5.489  16.485 -0.6473 -0.6285 -0.8826
 6781TIP3   OH241833   0.671   1.604  15.225 -1.1261  0.3019 -0.1086
 6781TIP3    H141834   0.584   1.572  15.201 -1.3664 -1.2746  2.4986
 6781TIP3    H241835   0.683   1.575  15.315  0.9198  3.0780  0.6257
 6782TIP3   OH241836   2.596   1.403   3.642 -0.1405  0.4161  0.2472
 6782TIP3    H141837   2.509   1.380   3.610  0.3052 -1.8062  0.4206
 6782TIP3    H241838   2.643   1.432   3.564 -1.0563  1.7699  0.1790
 6783TIP3   OH241839   4.137   3.142  12.419  0.4435 -0.2175  0.2540
 6783TIP3    H141840   4.216   3.174  12.463 -0.9517  2.9444  0.7522
 6783TIP3    H241841   4.109   3.067  12.472 -0.0355  2.1678  3.7380
 6784TIP3   OH241842   0.415   0.330   0.098  0.6316  0.5090  0.7964
 6784TIP3    H141843   0.338   0.284   0.064 -0.0026  1.2359  1.2085
 6784TIP3    H241844   0.466   0.261   0.142  0.0445  0.0748  0.8138
 6785TIP3   OH241845   4.602   6.668   0.597  0.5875 -0.2468 -0.3445
 6785TIP3    H141846   4.617   6.649   0.690 -0.3975  2.2288  0.3976
 6785TIP3    H241847   4.509   6.649   0.584  0.1061  1.7408 -0.1196
 6786TIP3   OH241848   3.649   4.764   0.755 -0.1677 -0.7561 -0.2924
 6786TIP3    H141849   3.644   4.684   0.703  1.6324 -1.3745  0.4321
 6786TIP3    H241850   3.709   4.821   0.706 -1.9877  0.4918 -1.1834
 6787TIP3   OH241851   4.470   2.951   0.231  0.0511 -0.1580  0.7175
 6787TIP3    H141852   4.565   2.946   0.221  0.0047  1.7293 -1.4703
 6787TIP3    H241853   4.456   3.010   0.305  0.6570  1.9380 -0.7668
 6788TIP3   OH241854   5.395   1.497  14.490 -0.7037  0.4297 -0.5008
 6788TIP3    H141855   5.317   1.459  14.450  0.3413 -1.3500 -0.9886
 6788TIP3    H241856   5.399   1.457  14.577 -0.6749  0.9893 -0.2434
 6789TIP3   OH241857   1.898   1.370   0.270  0.2240 -0.5681  0.0281
 6789TIP3    H141858   1.861   1.298   0.322  0.2436 -1.0638 -0.6292
 6789TIP3    H241859   1.977   1.332   0.231  1.4792  0.4813  1.4334
 6790TIP3   OH241860   4.092   5.498  15.873 -0.3459 -0.4301  0.3114
 6790TIP3    H141861   4.048   5.551  15.806 -1.1516 -1.9924 -0.4437
 6790TIP3    H241862   4.178   5.478  15.835 -1.2832 -2.4237 -0.9226
 6791TIP3   OH241863   2.690   4.296   4.028  0.0684  0.2050  0.4227
 6791TIP3    H141864   2.697   4.384   4.065  0.2873  0.0506  0.7566
 6791TIP3    H241865   2.739   4.241   4.089  0.9573  0.0365 -0.4276
 6792TIP3   OH241866   0.183   1.957   2.359 -0.1777 -0.3005  0.3404
 6792TIP3    H141867   0.252   2.021   2.342 -0.5103  0.0242  0.2110
 6792TIP3    H241868   0.103   2.009   2.369 -1.2572 -0.8478 -3.7526
 6793TIP3   OH241869   0.802   0.447  14.341 -1.0563  0.1167  0.2678
 6793TIP3    H141870   0.856   0.378  14.303 -1.0810 -0.1293  0.6738
 6793TIP3    H241871   0.713   0.411  14.342 -1.0226  0.0441  0.7405
 6794TIP3   OH241872   1.407   6.503  14.764 -0.4939 -0.1882 -0.0229
 6794TIP3    H141873   1.440   6.444  14.697 -0.0221 -0.3204  0.3218
 6794TIP3    H241874   1.445   6.471  14.846  1.0673  1.5148 -0.0113
 6795TIP3   OH241875   1.921   1.771  10.585 -0.0872  0.5140 -0.3422
 6795TIP3    H141876   1.972   1.852  10.594  0.5605  0.1280 -0.5115
 6795TIP3    H241877   1.932   1.746  10.493  1.9209 -1.1954  0.2890
 6796TIP3   OH241878   0.770   1.491   5.283 -0.1977 -0.5555 -0.2090
 6796TIP3    H141879   0.741   1.447   5.363 -0.7260  1.2319  0.6215
 6796TIP3    H241880   0.698   1.551   5.262  1.8858  2.5078  0.7275
 6797TIP3   OH241881   3.234   1.160  16.533  0.2159  0.4987 -0.0530
 6797TIP3    H141882   3.270   1.232  16.584  1.0241  1.2901 -1.6768
 6797TIP3    H241883   3.189   1.105  16.598  0.0971  2.1180  1.3106
 6798TIP3   OH241884   0.576   5.583   0.409  0.0811  0.1472  0.0528
 6798TIP3    H141885   0.585   5.497   0.369  0.8178  0.3094 -0.1578
 6798TIP3    H241886   0.491   5.616   0.379  0.0632 -0.2592 -0.3477
 6799TIP3   OH241887   3.856   5.395   4.278  0.0211  0.2442  0.1905
 6799TIP3    H141888   3.862   5.324   4.214  0.6253  1.3583 -1.0419
 6799TIP3    H241889   3.826   5.471   4.227  0.8885  1.2632  1.1390
 6800TIP3   OH241890   3.050   2.693   0.913  0.1857 -0.0424  0.1853
 6800TIP3    H141891   3.001   2.771   0.939 -1.0352 -1.1246  1.2732
 6800TIP3    H241892   3.127   2.728   0.868  0.5066  1.8659  2.0131
 6801TIP3   OH241893   0.321   2.047   2.088 -0.3266 -0.0847  0.6916
 6801TIP3    H141894   0.321   2.125   2.144 -0.9314 -0.0518  0.6465
 6801TIP3    H241895   0.335   2.081   2.000  0.1310 -0.0928  0.7589
 6802TIP3   OH241896   6.574   1.161  13.724 -0.1511 -0.1492 -0.3083
 6802TIP3    H141897   6.560   1.255  13.714  0.2293  0.1109  1.3049
 6802TIP3    H241898   6.507   1.134  13.787  1.2446 -0.4662  1.1123
 6803TIP3   OH241899   1.742   2.174  11.855 -0.1751 -0.5565 -0.7136
 6803TIP3    H141900   1.774   2.104  11.911 -0.1661  1.4259  1.9315
 6803TIP3    H241901   1.649   2.155  11.844 -0.0114 -1.3994 -0.7335
 6804TIP3   OH241902   0.144   1.708  12.394 -0.3609 -0.0335  0.0972
 6804TIP3    H141903   0.160   1.773  12.463  0.7038 -0.7722  0.5691
 6804TIP3    H241904   0.095   1.639  12.438 -1.9642  0.6643 -0.5338
 6805TIP3   OH241905   4.033   5.098   2.188  0.2090 -0.2303 -0.0946
 6805TIP3    H141906   4.052   5.117   2.096 -1.8805  1.8759 -0.1924
 6805TIP3    H241907   4.023   5.184   2.228  2.0042 -1.0566  2.4059
 6806TIP3   OH241908   1.729   3.785  13.789  0.1130 -0.0260 -0.0450
 6806TIP3    H141909   1.803   3.733  13.821  1.0204  0.3340 -1.4864
 6806TIP3    H241910   1.671   3.792  13.864  1.2247 -0.8897  0.9326
 6807TIP3   OH241911   1.690   6.168   5.283 -0.1093  0.0831 -0.4193
 6807TIP3    H141912   1.785   6.176   5.295 -0.0352 -0.8108 -0.3244
 6807TIP3    H241913   1.681   6.124   5.198 -0.3726 -1.3611  0.3241
 6808TIP3   OH241914   5.891   6.423   1.220  0.6297  0.3562 -0.1698
 6808TIP3    H141915   5.974   6.392   1.183  1.1668 -0.7437  1.8292
 6808TIP3    H241916   5.917   6.478   1.294 -0.4262  1.4414 -0.5635
 6809TIP3   OH241917   3.899   1.488  16.227 -0.0179  0.2987 -0.0229
 6809TIP3    H141918   3.870   1.537  16.150  0.8420  0.4889 -0.2432
 6809TIP3    H241919   3.979   1.444  16.198  1.3338  1.7751  1.2286
 6810TIP3   OH241920   0.378   2.393  14.874  0.1125 -0.1852 -0.0133
 6810TIP3    H141921   0.455   2.357  14.916 -0.5209 -1.3428  0.1777
 6810TIP3    H241922   0.323   2.424  14.946 -0.0740 -0.3139 -0.1006
 6811TIP3   OH241923   1.042   1.220  13.996 -0.1499  0.0914 -0.4401
 6811TIP3    H141924   1.024   1.126  13.992  0.5215 -0.0254 -0.7763
 6811TIP3    H241925   0.983   1.257  13.930  0.2829 -0.2092 -1.0082
 6812TIP3   OH241926   6.744   4.414  16.167 -0.7373  0.4068  0.4545
 6812TIP3    H141927   6.834   4.421  16.135 -0.7473 -0.2197  0.2771
 6812TIP3    H241928   6.750   4.353  16.242 -1.2551 -0.9788 -0.5842
 6813TIP3   OH241929   6.273   3.442  14.011  0.0310  0.3484 -0.2046
 6813TIP3    H141930   6.231   3.456  14.096 -1.2674  0.9937 -0.9194
 6813TIP3    H241931   6.349   3.500  14.013 -0.5491  1.1232  0.1508
 6814TIP3   OH241932   5.784   1.766   3.107  0.2102 -0.0886 -0.5049
 6814TIP3    H141933   5.716   1.714   3.065 -0.5611  0.2756  0.2614
 6814TIP3    H241934   5.762   1.764   3.200 -0.5951  2.6224 -0.5461
 6815TIP3   OH241935   2.531   1.099   3.460  0.2398 -0.3049 -0.1564
 6815TIP3    H141936   2.601   1.159   3.437  0.7128 -0.8789 -0.2381
 6815TIP3    H241937   2.493   1.073   3.376 -0.8489  0.8924 -0.0699
 6816TIP3   OH241938   2.109   4.432  12.361 -0.2627 -0.0981 -0.0719
 6816TIP3    H141939   2.108   4.371  12.435 -0.6506 -0.2575 -0.2067
 6816TIP3    H241940   2.046   4.500  12.386 -0.0020  0.1254 -0.0234
 6817TIP3   OH241941   1.593   1.911  17.192 -0.2770  0.3477  0.1117
 6817TIP3    H141942   1.627   1.826  17.167 -1.7980  0.1341 -1.3923
 6817TIP3    H241943   1.605   1.966  17.115  1.2262  1.7134  1.2514
 6818TIP3   OH241944   4.453   3.826  12.671 -0.0257 -0.0545 -0.1181
 6818TIP3    H141945   4.433   3.736  12.696  1.1163 -0.2971  0.0100
 6818TIP3    H241946   4.526   3.850  12.730  0.0516  0.7486 -0.5369
 6819TIP3   OH241947   2.406   3.394  11.272  0.7772 -0.0644 -0.7253
 6819TIP3    H141948   2.418   3.486  11.295 -0.5014  0.1125 -0.7079
 6819TIP3    H241949   2.433   3.388  11.180  0.3275  0.4435 -0.8917
 6820TIP3   OH241950   2.443   2.599  12.885 -0.3133 -0.0162  0.3358
 6820TIP3    H141951   2.532   2.595  12.850 -0.2505 -0.5466  0.5551
 6820TIP3    H241952   2.428   2.513  12.922 -0.3067  0.5884  1.7912
 6821TIP3   OH241953   5.968   3.857  11.514  0.2947  0.3615 -0.1030
 6821TIP3    H141954   6.005   3.812  11.590 -0.5195  0.1794  0.1894
 6821TIP3    H241955   6.017   3.821  11.440 -0.2286 -0.9006  0.1373
 6822TIP3   OH241956   4.976   0.939   3.986 -0.0083 -0.3331  0.3552
 6822TIP3    H141957   4.904   0.926   4.047  0.2619 -1.6552  0.4305
 6822TIP3    H241958   4.966   1.028   3.954 -2.2422 -0.7790 -0.3337
 6823TIP3   OH241959   2.808   1.658   5.905  0.6706 -0.2801  0.2647
 6823TIP3    H141960   2.825   1.718   5.832  0.0171  0.8595  1.0137
 6823TIP3    H241961   2.847   1.701   5.981 -1.3552  0.1039  1.1488
 6824TIP3   OH241962   6.645   2.000  15.116 -0.4637 -0.2588 -0.0020
 6824TIP3    H141963   6.622   1.913  15.082 -0.6752 -0.9098  1.7132
 6824TIP3    H241964   6.646   1.989  15.211  0.2765  1.4409  0.2209
 6825TIP3   OH241965   4.124   0.626   2.590  0.2755  0.3564 -0.2905
 6825TIP3    H141966   4.039   0.653   2.555  0.0985  0.3467  0.1293
 6825TIP3    H241967   4.183   0.698   2.567 -0.0760  0.8582  0.3363
 6826TIP3   OH241968   5.629   3.967  15.230  0.9218  0.2789  0.0671
 6826TIP3    H141969   5.662   3.930  15.148 -0.4571  1.0410 -0.8823
 6826TIP3    H241970   5.703   4.017  15.265  1.2997  0.6230 -1.1607
 6827TIP3   OH241971   3.974   2.136  13.529  0.1502 -0.1210 -0.5349
 6827TIP3    H141972   3.925   2.061  13.494 -0.0013 -1.1478  1.6683
 6827TIP3    H241973   4.039   2.097  13.588 -1.3205  1.4568  2.3652
 6828TIP3   OH241974   5.042   1.503  11.752 -0.3579  0.3343 -0.0200
 6828TIP3    H141975   5.008   1.553  11.678 -1.0887  0.6096  0.4825
 6828TIP3    H241976   5.009   1.414  11.737  0.4447  0.1250 -0.6047
 6829TIP3   OH241977   2.771   6.230   3.212  0.0390  0.4444 -0.0571
 6829TIP3    H141978   2.828   6.163   3.175  0.3220  0.4570  0.3436
 6829TIP3    H241979   2.806   6.313   3.177  1.2082  0.5788  1.3479
 6830TIP3   OH241980   2.778   5.822   1.567  0.3562  0.0904 -0.0259
 6830TIP3    H141981   2.799   5.733   1.539 -0.3856 -0.0856 -0.0228
 6830TIP3    H241982   2.739   5.862   1.489  0.8467  0.4729 -0.0811
 6831TIP3   OH241983   2.511   1.132  12.841  0.1062  0.7915 -0.0660
 6831TIP3    H141984   2.452   1.153  12.769  1.2723  2.5657 -0.5628
 6831TIP3    H241985   2.496   1.039  12.858 -0.4094  0.3941 -2.3926
 6832TIP3   OH241986   4.921   4.199   2.330  0.3235  0.6232 -0.1592
 6832TIP3    H141987   4.903   4.241   2.413 -0.4054 -0.2906  0.1576
 6832TIP3    H241988   4.849   4.226   2.273 -0.1971 -0.2403  0.0728
 6833TIP3   OH241989   1.960   2.451  14.668  0.2263 -0.6209  0.0307
 6833TIP3    H141990   1.988   2.390  14.599  0.3833  2.3643 -2.7751
 6833TIP3    H241991   1.866   2.438  14.674  0.2985 -1.3764 -0.2759
 6834TIP3   OH241992   1.681   3.976  14.879  0.0804  0.0089 -0.0372
 6834TIP3    H141993   1.663   4.022  14.961  2.3513  0.0186  0.5108
 6834TIP3    H241994   1.665   4.042  14.811  1.2553  0.9987  0.6163
 6835TIP3   OH241995   2.802   0.978  14.129 -0.2204 -0.0921  0.1132
 6835TIP3    H141996   2.725   1.031  14.105  0.3437  0.4874 -0.4668
 6835TIP3    H241997   2.874   1.041  14.131  0.2383 -0.6371  0.6424
 6836TIP3   OH241998   5.633   5.867  17.128 -0.0945  0.2625 -0.0559
 6836TIP3    H141999   5.681   5.891  17.049 -2.4270  1.2853 -1.2580
 6836TIP3    H242000   5.608   5.776  17.116  0.8577 -0.0454  0.2355
 6837TIP3   OH242001   4.608   3.313   5.655  0.0981  0.3240 -0.5941
 6837TIP3    H142002   4.694   3.283   5.624  0.8702  0.1932  1.5663
 6837TIP3    H242003   4.621   3.404   5.679 -0.1233  0.0692  0.5471
 6838TIP3   OH242004   6.485   0.681   4.020 -0.4142  0.5018 -0.1081
 6838TIP3    H142005   6.526   0.767   4.013  0.3880  0.1267 -0.1132
 6838TIP3    H242006   6.478   0.664   4.114 -2.0216  1.2349 -0.0623
 6839TIP3   OH242007   1.647   0.566   4.599 -0.1194 -0.3601  0.2678
 6839TIP3    H142008   1.567   0.614   4.620  0.7542  1.4335 -0.2443
 6839TIP3    H242009   1.654   0.499   4.667 -1.0110  0.7320  1.4801
 6840TIP3   OH242010   0.626   2.967  14.959 -0.1415  0.1078  0.4606
 6840TIP3    H142011   0.676   2.948  15.038  1.8880 -0.9630 -1.0041
 6840TIP3    H242012   0.675   3.037  14.916 -1.7184  1.3215  0.5179
 6841TIP3   OH242013   3.095   4.236  11.218  0.4483 -0.0751  0.2523
 6841TIP3    H142014   3.072   4.238  11.125  0.8710 -1.2739  0.1054
 6841TIP3    H242015   3.010   4.235  11.263  0.1311 -2.4595 -0.2366
 6842TIP3   OH242016   5.365   6.302  15.675  0.3457  0.5540  0.1390
 6842TIP3    H142017   5.304   6.234  15.703  1.3273 -0.9455 -1.1804
 6842TIP3    H242018   5.401   6.269  15.593  1.3269  2.4038 -0.2234
 6843TIP3   OH242019   2.711   2.013  14.729 -0.0179 -0.1736  0.4600
 6843TIP3    H142020   2.778   1.945  14.723  0.5185  0.4858 -2.4067
 6843TIP3    H242021   2.761   2.095  14.734 -0.5048  0.3364 -1.9018
 6844TIP3   OH242022   0.971   6.531  14.836 -0.1732 -0.3546  0.3773
 6844TIP3    H142023   1.025   6.452  14.837 -0.0310 -0.2534  1.2971
 6844TIP3    H242024   0.883   6.500  14.858 -0.2626 -0.3503  0.0373
 6845TIP3   OH242025   1.851   0.555  16.645 -0.0344 -1.0156  0.0573
 6845TIP3    H142026   1.916   0.587  16.708  0.3372 -2.6772  0.5736
 6845TIP3    H242027   1.824   0.470  16.680 -2.7923 -0.2296  0.0567
 6846TIP3   OH242028   0.529   3.310   4.745 -0.1265 -0.7809  0.1056
 6846TIP3    H142029   0.596   3.377   4.756  0.4150 -1.3371  0.2821
 6846TIP3    H242030   0.529   3.290   4.652 -2.0119  1.1865 -0.3941
 6847TIP3   OH242031   6.525   2.844   5.650  0.1583  0.5521 -0.0004
 6847TIP3    H142032   6.477   2.763   5.666 -1.2914  1.3688 -0.0385
 6847TIP3    H242033   6.492   2.875   5.565 -0.4960  1.9602  0.7217
 6848TIP3   OH242034   5.117   0.914   3.511  0.8106  0.0057  0.1252
 6848TIP3    H142035   5.075   0.907   3.425  0.9495 -1.8193  0.1511
 6848TIP3    H242036   5.072   0.986   3.554 -2.5248 -1.8929  0.2261
 6849TIP3   OH242037   6.521   1.584  12.081 -0.1091 -0.2603 -0.6085
 6849TIP3    H142038   6.428   1.570  12.059 -0.1923  1.7901 -1.7964
 6849TIP3    H242039   6.564   1.504  12.050 -1.2407 -0.4593 -1.8093
 6850TIP3   OH242040   2.213   6.482  14.521 -0.0497 -0.4400  0.3996
 6850TIP3    H142041   2.184   6.484  14.430 -1.2070  0.9259  0.7661
 6850TIP3    H242042   2.132   6.483  14.572  0.6031 -0.3099  1.4574
 6851TIP3   OH242043   2.877   6.371  14.345  0.2590  0.2618 -0.1966
 6851TIP3    H142044   2.939   6.432  14.384  0.0512  0.2158  0.2137
 6851TIP3    H242045   2.820   6.426  14.291 -0.4767  0.5651  0.8577
 6852TIP3   OH242046   6.035   3.886   6.285  0.1600 -0.2283 -0.3824
 6852TIP3    H142047   5.950   3.928   6.272 -0.6637 -1.4532  0.8359
 6852TIP3    H242048   6.016   3.807   6.336  2.2379  0.3319  1.4008
 6853TIP3   OH242049   0.493   3.402  12.721 -0.0560  0.0294  0.0934
 6853TIP3    H142050   0.467   3.482  12.676 -2.8989 -0.7740  0.1008
 6853TIP3    H242051   0.513   3.430  12.810  0.5510  0.9339 -0.3178
 6854TIP3   OH242052   1.968   3.367  11.291  0.1449 -0.5703  0.6044
 6854TIP3    H142053   1.891   3.348  11.238 -1.7821  1.9440  2.2528
 6854TIP3    H242054   2.034   3.397  11.229 -1.4467  0.6293 -0.5856
 6855TIP3   OH242055   4.036   3.175   1.235 -0.1794 -0.1839 -0.4146
 6855TIP3    H142056   4.103   3.107   1.247  0.9891  0.9118 -0.4748
 6855TIP3    H242057   3.969   3.132   1.182 -0.0347 -1.6284  0.4975
 6856TIP3   OH242058   1.219   4.707  14.148  0.1854 -0.1138 -0.2520
 6856TIP3    H142059   1.181   4.620  14.138 -0.8617 -0.1219  2.6795
 6856TIP3    H242060   1.200   4.751  14.065  1.2465 -2.7689 -2.0354
 6857TIP3   OH242061   0.534   1.073   4.157 -0.0738  0.6423  0.0442
 6857TIP3    H142062   0.511   1.119   4.076 -0.5649  3.0537  1.4522
 6857TIP3    H242063   0.627   1.050   4.146 -0.6566 -1.0542 -2.0202
 6858TIP3   OH242064   2.935   5.343   4.150  0.0873  0.4554  0.3371
 6858TIP3    H142065   2.957   5.284   4.222 -0.3502  0.9676  0.8988
 6858TIP3    H242066   2.862   5.299   4.105  0.9215 -0.2819 -0.3291
 6859TIP3   OH242067   3.329   1.760  17.026  0.1289 -0.0323 -0.1042
 6859TIP3    H142068   3.318   1.855  17.022  1.6172  0.1130 -2.0119
 6859TIP3    H242069   3.321   1.731  16.935  1.9332 -1.4183  0.1254
 6860TIP3   OH242070   5.449   2.340   3.377  0.1184  0.3792  0.7149
 6860TIP3    H142071   5.396   2.276   3.331 -0.5814  2.1428 -1.0884
 6860TIP3    H242072   5.397   2.365   3.453 -0.9521  0.9237 -0.1725
 6861TIP3   OH242073   6.325   5.995   4.335 -0.0013  0.6217  0.1345
 6861TIP3    H142074   6.356   6.083   4.315 -1.0004  0.8472 -0.5070
 6861TIP3    H242075   6.363   5.940   4.267  0.7578  0.5276  0.6327
 6862TIP3   OH242076   4.826   2.904  12.914  0.6025 -0.4652  0.0225
 6862TIP3    H142077   4.790   2.837  12.856 -3.0059  0.2089  1.2101
 6862TIP3    H242078   4.863   2.970  12.855 -2.3938 -0.0786 -1.6665
 6863TIP3   OH242079   2.881   3.600  16.186  0.5675 -0.2400 -0.0371
 6863TIP3    H142080   2.950   3.665  16.173  0.3843  0.5461  2.3450
 6863TIP3    H242081   2.848   3.618  16.274  0.3635 -3.4271  0.6559
 6864TIP3   OH242082   2.078   6.017   3.113  0.4448 -0.4405  0.5430
 6864TIP3    H142083   2.125   6.099   3.122 -0.2678  0.1269 -0.7397
 6864TIP3    H242084   1.989   6.036   3.143  0.0940 -0.5555 -0.4062
 6865TIP3   OH242085   0.106   5.654  12.867 -0.4769 -0.4146  0.4409
 6865TIP3    H142086   0.091   5.562  12.891 -1.6629 -0.0153  1.3298
 6865TIP3    H242087   0.181   5.651  12.807  0.1921 -1.8474  1.2855
 6866TIP3   OH242088   4.241   4.344  15.476  0.1722 -0.3094 -0.0310
 6866TIP3    H142089   4.329   4.319  15.448  0.8799 -0.4237  2.0763
 6866TIP3    H242090   4.222   4.424  15.427  2.8690  1.6283  1.7384
 6867TIP3   OH242091   3.784   0.524  13.342 -0.1282  0.4133 -0.0561
 6867TIP3    H142092   3.763   0.596  13.283 -0.4317  2.3601  2.2318
 6867TIP3    H242093   3.878   0.509  13.330 -0.0934  1.0935 -0.6857
 6868TIP3   OH242094   2.767   5.235   2.123  0.1131  0.0455  0.0403
 6868TIP3    H142095   2.683   5.277   2.106  0.3003  1.1438  1.6136
 6868TIP3    H242096   2.770   5.160   2.062 -1.3763  0.7792 -0.9847
 6869TIP3   OH242097   5.655   3.376   4.535 -0.3412  0.2888  0.0621
 6869TIP3    H142098   5.726   3.313   4.551  0.4356  1.1895  0.2557
 6869TIP3    H242099   5.628   3.404   4.623  0.0550  1.0205 -0.0457
 6870TIP3   OH242100   2.787   0.039  11.975 -0.3896  0.5160 -0.1902
 6870TIP3    H142101   2.734   0.077  11.905 -1.5824 -0.8606 -0.0839
 6870TIP3    H242102   2.873   0.025  11.936 -0.7587  0.6916 -1.0793
 6871TIP3   OH242103   2.583   5.391   4.083  0.4617  0.5666 -0.2838
 6871TIP3    H142104   2.572   5.310   4.033 -2.1932  1.3411 -1.0934
 6871TIP3    H242105   2.593   5.459   4.017 -0.1926  1.2597  0.3159
 6872TIP3   OH242106   6.149   4.154   0.524 -0.5508 -0.0716  0.0690
 6872TIP3    H142107   6.102   4.125   0.602  1.9242 -2.1078  0.8986
 6872TIP3    H242108   6.237   4.120   0.534  0.7321  2.2309 -2.1875
 6873TIP3   OH242109   3.749   1.526  10.981 -0.3341 -0.0582  0.6354
 6873TIP3    H142110   3.700   1.496  11.058 -1.1761 -2.1150 -0.6240
 6873TIP3    H242111   3.835   1.485  10.990 -0.3351 -0.0624  0.6258
 6874TIP3   OH242112   2.666   2.161  13.478 -0.1856  0.0243  0.1324
 6874TIP3    H142113   2.725   2.120  13.541  0.0929 -0.0671 -0.1847
 6874TIP3    H242114   2.646   2.246  13.516 -0.6822 -0.3595  0.7400
 6875TIP3   OH242115   6.480   2.366  10.626  0.5708  0.1489 -0.0120
 6875TIP3    H142116   6.570   2.400  10.623  0.3308  0.9364  1.1718
 6875TIP3    H242117   6.476   2.317  10.708  0.5632 -1.8686 -1.1388
 6876TIP3   OH242118   0.965   5.508   5.939  0.2447 -0.0430  0.4041
 6876TIP3    H142119   0.876   5.510   5.905  0.7769  0.3979 -1.0381
 6876TIP3    H242120   0.999   5.422   5.914  0.2045 -0.2495  1.0358
 6877TIP3   OH242121   1.072   0.573  11.999  0.2616 -0.6891 -0.0758
 6877TIP3    H142122   1.138   0.544  12.061  0.2275 -3.3858 -1.1775
 6877TIP3    H242123   1.121   0.614  11.928  0.4018  0.9513  0.9147
 6878TIP3   OH242124   3.786   3.406  14.356  0.1458  0.0662 -0.6409
 6878TIP3    H142125   3.731   3.457  14.297 -0.3965  0.3196  0.0736
 6878TIP3    H242126   3.753   3.425  14.443  1.2578  0.0977 -0.2028
 6879TIP3   OH242127   3.106   2.946   0.437  0.4526 -0.1824  0.4970
 6879TIP3    H142128   3.063   3.026   0.405  2.1409  0.9192  0.8571
 6879TIP3    H242129   3.141   2.970   0.523 -0.0901 -1.7203  1.1855
 6880TIP3   OH242130   5.850   2.553   3.131 -0.0002 -0.2194 -0.1563
 6880TIP3    H142131   5.773   2.524   3.180  1.1268 -0.0518  1.8125
 6880TIP3    H242132   5.844   2.648   3.131  0.0813 -0.2144 -0.1879
 6881TIP3   OH242133   4.123   0.319  11.712  0.1573 -0.2113  0.4549
 6881TIP3    H142134   4.200   0.277  11.674  0.2810  2.2689 -2.4025
 6881TIP3    H242135   4.124   0.408  11.677 -3.7275  0.1147  0.7073
 6882TIP3   OH242136   1.663   4.372   0.160  0.1106 -0.4531  0.2378
 6882TIP3    H142137   1.663   4.381   0.256  0.3236 -0.7485  0.2680
 6882TIP3    H242138   1.611   4.446   0.129 -1.1829 -1.1460  0.6655
 6883TIP3   OH242139   2.061   5.157  12.386 -0.6382  0.5789 -0.1200
 6883TIP3    H142140   2.046   5.063  12.377  1.5186  0.0881  0.8001
 6883TIP3    H242141   1.992   5.187  12.445 -2.0186 -0.1749 -1.2877
 6884TIP3   OH242142   2.497   4.811   4.532 -0.1724  0.3303  0.2758
 6884TIP3    H142143   2.428   4.759   4.574 -0.0234 -0.5147 -0.4982
 6884TIP3    H242144   2.472   4.814   4.439  0.6029  0.3964  0.0631
 6885TIP3   OH242145   2.299   6.635   5.289 -0.4563  0.1848 -0.6727
 6885TIP3    H142146   2.208   6.649   5.264  0.2921  2.8083 -2.2035
 6885TIP3    H242147   2.313   6.694   5.363  0.0273 -0.2619 -0.3937
 6886TIP3   OH242148   5.353   1.025  10.195 -0.1223 -0.2046 -0.3601
 6886TIP3    H142149   5.395   1.053  10.276  0.6432  0.2909 -0.9156
 6886TIP3    H242150   5.424   0.989  10.142 -0.7501 -1.2651 -0.5050
 6887TIP3   OH242151   1.483   4.042   5.422 -0.4462  0.0636 -0.5140
 6887TIP3    H142152   1.508   4.045   5.329 -0.4040  1.1634 -0.4799
 6887TIP3    H242153   1.566   4.044   5.470 -0.4701 -0.4531 -0.4435
 6888TIP3   OH242154   3.132   0.231   3.061  0.5940 -0.5749 -0.3259
 6888TIP3    H142155   3.123   0.162   2.996  0.8814 -2.5563  1.6236
 6888TIP3    H242156   3.196   0.197   3.123 -1.8291 -0.1864  2.6435
 6889TIP3   OH242157   1.559   6.547  11.543  0.1845 -0.0211  0.0171
 6889TIP3    H142158   1.629   6.545  11.479  0.7070  0.6143  0.5436
 6889TIP3    H242159   1.498   6.614  11.510  0.7109  0.6755  0.4278
 6890TIP3   OH242160   0.038   0.944   3.591 -0.4005 -0.3247 -1.1396
 6890TIP3    H142161   0.060   0.987   3.673  0.5018 -0.3052 -1.3891
 6890TIP3    H242162   0.095   0.868   3.587  1.1923  0.8617 -2.7811
 6891TIP3   OH242163   6.547   2.528   2.655  0.6386  0.5499 -0.5826
 6891TIP3    H142164   6.575   2.439   2.677  0.8166  0.5792 -0.6943
 6891TIP3    H242165   6.523   2.523   2.562 -0.4536  0.3379 -0.3089
 6892TIP3   OH242166   2.033   3.582  17.098 -0.9389 -0.5083 -0.1991
 6892TIP3    H142167   2.088   3.503  17.102  0.5910  0.5756  1.6650
 6892TIP3    H242168   1.977   3.568  17.022 -0.5343 -3.2668 -0.0929
 6893TIP3   OH242169   3.275   3.258   0.489  0.7474  0.2452  0.1876
 6893TIP3    H142170   3.211   3.278   0.421  1.1476  0.0041 -0.2654
 6893TIP3    H242171   3.306   3.343   0.519  1.7588  0.3433 -1.0756
 6894TIP3   OH242172   5.425   3.571   1.529  0.3325  0.0900  0.1305
 6894TIP3    H142173   5.392   3.637   1.591  0.9865 -0.5257  1.1695
 6894TIP3    H242174   5.507   3.608   1.497 -0.1933  0.5825 -0.6914
 6895TIP3   OH242175   1.322   2.839   2.043  0.5486  0.0829  0.4061
 6895TIP3    H142176   1.271   2.791   1.977  1.5909  1.4170 -1.4531
 6895TIP3    H242177   1.411   2.808   2.031  0.8328  0.7155  0.8521
 6896TIP3   OH242178   6.117   3.439  15.484 -0.5447  0.2702  0.4270
 6896TIP3    H142179   6.155   3.387  15.413 -2.0742 -0.6206  0.2112
 6896TIP3    H242180   6.099   3.524  15.444  3.2899  1.6367  1.1495
 6897TIP3   OH242181   4.157   5.253  14.898 -0.7039 -0.0067  0.4401
 6897TIP3    H142182   4.226   5.285  14.840 -0.0251 -2.3039 -0.1114
 6897TIP3    H242183   4.102   5.199  14.842 -2.0739  0.5217  1.2293
 6898TIP3   OH242184   4.247   2.760   5.169  0.6143  0.5605  0.1321
 6898TIP3    H142185   4.253   2.668   5.145  0.3829  0.1094  1.6691
 6898TIP3    H242186   4.218   2.759   5.261 -2.2479  2.1848 -0.6061
 6899TIP3   OH242187   1.790   2.962  15.330 -0.2466 -0.1369 -0.7094
 6899TIP3    H142188   1.764   2.886  15.382  3.8575  0.4889  2.8119
 6899TIP3    H242189   1.709   3.010  15.315 -2.1111 -1.8485  2.8320
 6900TIP3   OH242190   2.636   5.208   3.456  0.0606  0.2902 -0.2326
 6900TIP3    H142191   2.541   5.215   3.445  0.1340  0.8137 -0.5685
 6900TIP3    H242192   2.651   5.115   3.475 -0.6176  0.3860  0.8599
 6901TIP3   OH242193   6.250   0.456  15.162 -0.0821 -0.4951  0.5704
 6901TIP3    H142194   6.299   0.472  15.243 -1.8629  0.9400  1.4519
 6901TIP3    H242195   6.262   0.536  15.111 -1.1074 -0.2937  0.6227
 6902TIP3   OH242196   1.162   1.083   2.256 -0.3527  0.9233  0.1749
 6902TIP3    H142197   1.233   1.042   2.207  0.1390  3.4726 -1.4685
 6902TIP3    H242198   1.116   1.011   2.298  1.9699 -0.9827 -0.3805
 6903TIP3   OH242199   0.320   2.491  15.811  0.0525  0.3345 -0.4022
 6903TIP3    H142200   0.234   2.528  15.831  0.1969  1.4136 -1.6680
 6903TIP3    H242201   0.382   2.544  15.860 -0.0296 -1.2294  1.5336
 6904TIP3   OH242202   3.508   4.720   4.894 -0.2912 -0.0406  0.1869
 6904TIP3    H142203   3.453   4.774   4.950  0.7978  0.2453  1.0173
 6904TIP3    H242204   3.481   4.743   4.805 -1.6133 -0.0473  0.5641
 6905TIP3   OH242205   4.918   4.422   4.094 -0.2169 -0.3384  0.3691
 6905TIP3    H142206   4.973   4.356   4.050  0.2690  0.1995  0.1524
 6905TIP3    H242207   4.978   4.466   4.155 -0.0596  1.1086 -0.7662
 6906TIP3   OH242208   1.260   1.993  15.331 -0.3252 -0.6653 -0.2427
 6906TIP3    H142209   1.271   2.071  15.277 -2.8282  0.2695  0.4376
 6906TIP3    H242210   1.326   1.931  15.299  2.0436  1.8398 -0.5139
 6907TIP3   OH242211   1.568   6.251  13.693  0.1402  0.6460  0.2756
 6907TIP3    H142212   1.639   6.272  13.754  0.3376 -1.9502  1.0423
 6907TIP3    H242213   1.524   6.176  13.732 -2.2276  1.3596 -0.8709
 6908TIP3   OH242214   3.769   2.706   6.822 -0.0014 -0.2266  0.0747
 6908TIP3    H142215   3.849   2.697   6.771 -0.3464  0.1126 -0.5396
 6908TIP3    H242216   3.726   2.621   6.816 -0.0891 -0.1582 -0.2886
 6909TIP3   OH242217   3.429   2.243  10.797  0.5223 -0.0846 -0.3165
 6909TIP3    H142218   3.485   2.241  10.875 -0.1648  1.4710  0.2568
 6909TIP3    H242219   3.443   2.330  10.760 -1.7809  0.5267  0.0836
 6910TIP3   OH242220   3.654   1.677  16.494  0.3601 -0.4561  0.1558
 6910TIP3    H142221   3.666   1.683  16.399  0.5955  1.3330  0.2706
 6910TIP3    H242222   3.678   1.763  16.527  3.1432 -1.8471  2.1906
 6911TIP3   OH242223   4.349   6.525   2.670  0.2047 -0.6644  0.0063
 6911TIP3    H142224   4.306   6.598   2.625 -0.7670 -0.1635  1.6481
 6911TIP3    H242225   4.313   6.527   2.759  2.0525 -1.5880  0.8336
 6912TIP3   OH242226   2.048   4.082  15.742 -0.1006 -0.3101 -0.0783
 6912TIP3    H142227   2.020   4.113  15.828  0.9213 -0.9735  0.5170
 6912TIP3    H242228   2.143   4.070  15.751 -0.3750 -3.4258 -0.2860
 6913TIP3   OH242229   0.840   4.906  11.212 -0.1984 -0.3232  0.0448
 6913TIP3    H142230   0.816   4.872  11.299 -0.0741  0.2642  0.3154
 6913TIP3    H242231   0.770   4.876  11.154 -3.0304  3.2426  1.1983
 6914TIP3   OH242232   3.168   6.466  12.114  0.6047  0.3000  0.1187
 6914TIP3    H142233   3.167   6.462  12.019  0.0942 -0.7999  0.1488
 6914TIP3    H242234   3.095   6.410  12.141  1.7476 -0.7554  1.1723
 6915TIP3   OH242235   3.566   6.454   4.527  0.0114  0.2971 -0.0733
 6915TIP3    H142236   3.502   6.390   4.558  0.0464  0.4464  0.3215
 6915TIP3    H242237   3.545   6.535   4.575  0.2157  0.4698 -0.2692
 6916TIP3   OH242238   5.681   5.723   1.706 -0.1264 -0.0471 -0.1617
 6916TIP3    H142239   5.684   5.630   1.687 -2.1630 -0.0786 -0.6214
 6916TIP3    H242240   5.588   5.742   1.719 -0.0117  2.2418 -1.8773
 6917TIP3   OH242241   5.570   3.808  15.440  0.4852 -0.1555  0.3246
 6917TIP3    H142242   5.543   3.723  15.404 -0.9872  0.3984  0.0599
 6917TIP3    H242243   5.578   3.864  15.363 -0.3415  0.4187  0.6505
 6918TIP3   OH242244   0.796   4.634   6.033  0.0468  0.5239 -0.2617
 6918TIP3    H142245   0.849   4.684   6.094 -0.7928  3.6278 -1.8724
 6918TIP3    H242246   0.709   4.675   6.037 -0.3072  0.1968 -2.7413
 6919TIP3   OH242247   3.118   3.837   1.630  0.2313  0.4016 -0.3496
 6919TIP3    H142248   3.085   3.911   1.681 -1.1031 -0.7433  0.5121
 6919TIP3    H242249   3.187   3.799   1.684  1.1345  1.1818 -0.9336
 6920TIP3   OH242250   6.475   0.457  11.880 -0.5029 -0.2596  0.0962
 6920TIP3    H142251   6.516   0.409  11.807  1.0207  1.3722 -0.1915
 6920TIP3    H242252   6.384   0.428  11.879  0.2337 -2.8343 -0.2836
 6921TIP3   OH242253   0.713   2.624   2.747 -0.8064 -0.6571  0.5566
 6921TIP3    H142254   0.743   2.542   2.787  0.0432  0.5780  2.6867
 6921TIP3    H242255   0.620   2.628   2.767 -0.7327 -0.8584  0.9645
 6922TIP3   OH242256   5.975   5.428  15.145 -0.2332  0.1776  0.0009
 6922TIP3    H142257   5.916   5.367  15.102  0.5512 -0.6993  0.1468
 6922TIP3    H242258   5.932   5.513  15.137 -0.2801 -0.0136 -2.1758
 6923TIP3   OH242259   1.363   5.365  16.138  0.8138 -0.0090 -0.5424
 6923TIP3    H142260   1.374   5.444  16.192  0.1048 -0.0843 -0.2739
 6923TIP3    H242261   1.381   5.395  16.049  2.0723  0.1050 -0.2773
 6924TIP3   OH242262   2.911   6.319   0.313 -0.0558 -0.2125  0.2401
 6924TIP3    H142263   2.917   6.225   0.296 -1.5816 -0.4285  0.7215
 6924TIP3    H242264   2.824   6.330   0.351  0.5578  1.2381  1.2843
 6925TIP3   OH242265   6.326   1.706  12.296 -0.1826 -0.0875  0.6964
 6925TIP3    H142266   6.308   1.625  12.344  0.4858 -0.9115 -0.3935
 6925TIP3    H242267   6.395   1.682  12.234 -1.6243  0.6566 -1.3180
 6926TIP3   OH242268   4.326   3.979  14.749  0.5202  0.0539  0.1828
 6926TIP3    H142269   4.376   3.953  14.827  1.0603 -0.1657 -0.2317
 6926TIP3    H242270   4.282   4.060  14.775 -0.5154 -0.8120  1.2179
 6927TIP3   OH242271   0.028   2.243   1.988 -0.7234 -0.9608  0.1031
 6927TIP3    H142272  -0.065   2.240   1.965 -0.7689 -2.0330  0.3803
 6927TIP3    H242273   0.057   2.152   1.984  0.2070 -0.6947  0.4700
 6928TIP3   OH242274   1.924   5.704  14.890  0.1049 -0.0550 -0.2980
 6928TIP3    H142275   1.858   5.715  14.822 -1.6798  0.9123  1.4766
 6928TIP3    H242276   1.931   5.609  14.901 -0.8423 -0.1736 -0.6578
 6929TIP3   OH242277   6.182   1.657   3.834  0.6486  0.7027  0.3869
 6929TIP3    H142278   6.148   1.716   3.768  0.5355 -0.0430 -0.2365
 6929TIP3    H242279   6.194   1.712   3.912 -2.3145  0.9773  0.7739
 6930TIP3   OH242280   4.882   3.227   3.987 -0.2188 -0.1809  0.1216
 6930TIP3    H142281   4.802   3.231   3.934 -1.0474 -1.4633  1.2095
 6930TIP3    H242282   4.935   3.159   3.945 -0.2552 -0.2085  0.1200
 6931TIP3   OH242283   0.683   2.587   2.445  0.0554  0.1645  0.4041
 6931TIP3    H142284   0.656   2.499   2.472 -3.4814  1.4858  1.8055
 6931TIP3    H242285   0.647   2.597   2.357 -0.7639  0.5999  0.7702
 6932TIP3   OH242286   5.309   5.074  16.765  0.5897 -0.0499 -0.0962
 6932TIP3    H142287   5.340   5.002  16.710  0.4739 -0.1938  0.0278
 6932TIP3    H242288   5.353   5.151  16.729 -1.1649  0.2194 -1.7930
 6933TIP3   OH242289   3.053   4.296  17.092 -0.1715 -0.3512  0.3133
 6933TIP3    H142290   3.097   4.317  17.174 -0.6070 -1.8946  0.9799
 6933TIP3    H242291   2.998   4.372  17.073  1.4665  0.8900  0.3453
 6934TIP3   OH242292   4.995   1.467   0.765 -0.4006  0.0093 -0.3716
 6934TIP3    H142293   5.001   1.437   0.674 -0.5067 -0.1074 -0.3410
 6934TIP3    H242294   4.945   1.548   0.760 -0.4186 -0.0045 -0.4163
 6935TIP3   OH242295   5.041   4.543   6.648  0.4668  0.2339  0.4854
 6935TIP3    H142296   5.006   4.615   6.595  1.2976  0.0732 -0.2903
 6935TIP3    H242297   4.984   4.541   6.725 -2.2204 -0.9680 -1.3549
 6936TIP3   OH242298   6.803   2.355  13.356  0.7758 -0.7686 -0.6820
 6936TIP3    H142299   6.872   2.293  13.330  0.0099 -1.5257 -0.9433
 6936TIP3    H242300   6.835   2.440  13.325  3.0378 -0.5699  1.8860
 6937TIP3   OH242301   2.294   0.282   1.705  0.5001  0.1841  0.1450
 6937TIP3    H142302   2.227   0.257   1.642  1.5661 -0.4385 -0.7815
 6937TIP3    H242303   2.355   0.337   1.655  1.3444 -0.2893  0.6178
 6938TIP3   OH242304   2.481   1.062   0.477  0.1688  0.0587  0.4812
 6938TIP3    H142305   2.493   0.967   0.478 -1.8309 -0.2326  0.2663
 6938TIP3    H242306   2.418   1.079   0.547 -0.0906  1.1237  0.0104
 6939TIP3   OH242307   0.776   2.390  13.736 -0.5538  0.4826 -0.2955
 6939TIP3    H142308   0.720   2.383  13.813  0.4385  0.6873  0.4717
 6939TIP3    H242309   0.740   2.326  13.674 -0.3223 -0.9750  1.0239
 6940TIP3   OH242310   4.033   4.001   1.747  0.1933  0.0541  0.2105
 6940TIP3    H142311   4.118   4.044   1.741 -0.4023  1.2130 -0.2429
 6940TIP3    H242312   3.977   4.064   1.791 -0.4326 -0.7096  0.5424
 6941TIP3   OH242313   6.222   4.729  11.742 -0.3443 -0.1463  0.5380
 6941TIP3    H142314   6.206   4.780  11.821  1.2730  1.6453 -0.2191
 6941TIP3    H242315   6.314   4.706  11.747 -0.6681 -1.6492  0.0590
 6942TIP3   OH242316   4.428   2.275  13.219 -0.6585 -0.1267 -0.1834
 6942TIP3    H142317   4.477   2.264  13.138 -0.7296 -0.1590 -0.2223
 6942TIP3    H242318   4.346   2.318  13.193  0.4967  2.5638  0.2074
 6943TIP3   OH242319   2.673   3.574  10.978 -0.0189  0.3868  0.0243
 6943TIP3    H142320   2.711   3.487  10.980 -0.4771  0.2003  1.1401
 6943TIP3    H242321   2.747   3.632  10.962  0.1355 -0.2641 -1.8783
 6944TIP3   OH242322   1.468   4.812  16.212 -0.3435  0.2538 -0.2415
 6944TIP3    H142323   1.560   4.797  16.235 -0.5422 -0.4362  0.1446
 6944TIP3    H242324   1.422   4.804  16.296 -0.9390 -1.0634 -0.6676
 6945TIP3   OH242325   3.882   3.502  15.437  0.0452  0.1529 -0.4060
 6945TIP3    H142326   3.799   3.456  15.435 -0.1211  0.4587 -1.3087
 6945TIP3    H242327   3.945   3.440  15.400  0.1660  0.0153  0.0318
 6946TIP3   OH242328   3.489   6.187  13.602 -0.5966 -0.1069 -0.0852
 6946TIP3    H142329   3.546   6.243  13.550 -0.3430 -0.2640  0.0206
 6946TIP3    H242330   3.443   6.133  13.537 -0.4740 -0.1195 -0.1624
 6947TIP3   OH242331   5.527   5.761   4.014 -0.3176 -0.3380  0.0756
 6947TIP3    H142332   5.619   5.734   4.024 -0.2123 -0.3753 -0.9335
 6947TIP3    H242333   5.488   5.693   3.960 -0.3892  0.8199 -1.3735
 6948TIP3   OH242334   2.324   5.155   3.256  0.4798  0.1419  0.0382
 6948TIP3    H142335   2.292   5.069   3.282  0.7920 -0.0579 -0.2187
 6948TIP3    H242336   2.381   5.137   3.181 -0.2024  0.6716 -0.6172
 6949TIP3   OH242337   6.226   3.946   1.355  0.4240 -0.2591 -0.1657
 6949TIP3    H142338   6.163   4.003   1.400  1.1176 -0.2234  0.7845
 6949TIP3    H242339   6.298   4.004   1.330  0.6946 -0.5381 -0.0450
 6950TIP3   OH242340   6.426   2.276  11.879 -0.5498  0.7728  0.0644
 6950TIP3    H142341   6.382   2.247  11.959  1.3464 -1.4863  0.4144
 6950TIP3    H242342   6.434   2.196  11.827  2.7696  1.0456 -0.0637
 6951TIP3   OH242343   1.075   2.004   3.504 -0.3605 -0.5688  0.1689
 6951TIP3    H142344   1.108   2.011   3.415 -1.4952  1.1620 -0.1697
 6951TIP3    H242345   0.980   1.996   3.494 -0.5557  0.1974  1.2181
 6952TIP3   OH242346   4.358   2.952   0.966 -0.0817  0.3600 -0.8737
 6952TIP3    H142347   4.410   2.899   1.026  0.4216  1.3230 -0.4324
 6952TIP3    H242348   4.268   2.946   0.998 -0.1440 -0.7388 -1.2192
 6953TIP3   OH242349   0.263   1.870   0.008  0.2859  0.2436  0.0130
 6953TIP3    H142350   0.224   1.786   0.032  1.0400  0.0105  0.4331
 6953TIP3    H242351   0.187   1.927  -0.009 -0.2397 -0.2842  0.5301
 6954TIP3   OH242352   0.068   0.387   2.659 -0.4219  0.5519  1.0506
 6954TIP3    H142353   0.114   0.424   2.734  1.5924 -3.2664  1.8975
 6954TIP3    H242354   0.124   0.406   2.584  1.8066 -2.4361  1.8073
 6955TIP3   OH242355   4.026   0.002  16.113 -0.3653  0.3143  0.1415
 6955TIP3    H142356   4.080   0.032  16.040 -1.8769 -2.0503 -2.0857
 6955TIP3    H242357   4.082  -0.060  16.160 -0.1493  0.1789 -0.2990
 6956TIP3   OH242358   3.345   0.619  11.646 -0.1456 -0.1596  0.5385
 6956TIP3    H142359   3.294   0.699  11.636  0.7372  0.3640  0.1018
 6956TIP3    H242360   3.328   0.569  11.566  2.0161  1.1990 -0.8824
 6957TIP3   OH242361   2.841   0.078   4.437 -0.1039 -0.2356 -0.0487
 6957TIP3    H142362   2.809   0.014   4.501  0.9053 -1.1827 -0.4758
 6957TIP3    H242363   2.823   0.163   4.478  1.5765 -0.8046  2.0477
 6958TIP3   OH242364   5.428   3.166  13.466  0.0226 -0.9426 -0.0793
 6958TIP3    H142365   5.392   3.240  13.416 -0.5525 -0.3874  1.1280
 6958TIP3    H242366   5.507   3.201  13.506 -0.0456 -1.0921  0.1864
 6959TIP3   OH242367   4.855   2.562   5.834 -0.0602  0.6211  0.2158
 6959TIP3    H142368   4.899   2.499   5.891 -0.5800 -0.0269 -0.0931
 6959TIP3    H242369   4.783   2.596   5.887  0.1711  0.9128  0.3535
 6960TIP3   OH242370   5.129   5.823   2.031  0.5239 -0.2953  0.2426
 6960TIP3    H142371   5.157   5.904   2.074  1.1729  0.6199 -1.7832
 6960TIP3    H242372   5.196   5.759   2.054 -0.0650 -0.3358  1.9760
 6961TIP3   OH242373   2.166   0.923  11.360  0.3625  0.1100 -0.0116
 6961TIP3    H142374   2.179   0.856  11.293  2.6869  1.8440 -1.4377
 6961TIP3    H242375   2.188   0.879  11.442 -0.6806 -1.5194 -0.5362
 6962TIP3   OH242376   2.907   1.685  13.003  0.3671 -0.6584  0.5300
 6962TIP3    H142377   2.852   1.756  13.037  0.1571 -0.0503 -0.9924
 6962TIP3    H242378   2.988   1.728  12.975  0.1649 -0.9491 -0.5853
 6963TIP3   OH242379   2.800   1.328   6.219  0.6652 -0.4888  0.1309
 6963TIP3    H142380   2.861   1.270   6.174  3.2905  0.9847  1.5592
 6963TIP3    H242381   2.761   1.381   6.149  1.2184 -1.2781 -0.7916
 6964TIP3   OH242382   3.604   5.588   5.110 -0.6288  0.1391  0.2214
 6964TIP3    H142383   3.667   5.516   5.115 -1.6245 -0.7259  0.6768
 6964TIP3    H242384   3.543   5.572   5.182 -1.5483  0.7752 -0.3873
 6965TIP3   OH242385   4.110   3.504   5.909 -0.2100 -0.1563  0.5118
 6965TIP3    H142386   4.188   3.537   5.864 -0.9001  0.2540 -0.3942
 6965TIP3    H242387   4.112   3.547   5.994  0.8923 -0.6316  0.7491
 6966TIP3   OH242388   1.941   4.213  15.974  0.5433  0.6051 -0.2330
 6966TIP3    H142389   1.897   4.296  15.993 -1.2194 -0.5414  0.9857
 6966TIP3    H242390   1.999   4.200  16.049  0.7331  0.6738 -0.3674
 6967TIP3   OH242391   5.464   2.219   0.193  0.2749 -0.1205 -0.5644
 6967TIP3    H142392   5.383   2.251   0.153  0.2755 -0.9328 -1.2618
 6967TIP3    H242393   5.435   2.177   0.274  0.1060  0.3961 -0.3587
 6968TIP3   OH242394   1.921   2.617   4.372 -0.0727 -0.2329 -0.2310
 6968TIP3    H142395   1.944   2.707   4.350  1.4659 -0.7136 -0.7460
 6968TIP3    H242396   2.001   2.567   4.354 -0.9449 -1.7271 -0.1118
 6969TIP3   OH242397   4.330   6.745   2.151 -0.2725  0.1364  0.2434
 6969TIP3    H142398   4.417   6.785   2.148 -0.0532 -0.3684 -0.5007
 6969TIP3    H242399   4.347   6.651   2.144 -0.8028 -0.0635  1.4629
 6970TIP3   OH242400   5.324   5.823   0.973  0.5660  0.0475  0.3895
 6970TIP3    H142401   5.347   5.742   0.929  0.6260 -1.1756  2.5466
 6970TIP3    H242402   5.311   5.798   1.065  0.3372  2.4247  1.0738
 6971TIP3   OH242403   4.936   5.708   3.216 -0.3953  0.2109  0.0736
 6971TIP3    H142404   4.971   5.783   3.169  2.8235 -0.1849  1.5556
 6971TIP3    H242405   4.919   5.642   3.149 -2.4471  1.8495 -1.1453
 6972TIP3   OH242406   0.757   5.425   2.599 -0.3454  0.2071  0.5496
 6972TIP3    H142407   0.711   5.401   2.519  0.3567 -1.8476  0.7223
 6972TIP3    H242408   0.699   5.397   2.669 -0.7020  1.4947  0.8063
 6973TIP3   OH242409   4.274   3.104  14.821 -0.2383  0.1459 -0.2986
 6973TIP3    H142410   4.354   3.131  14.775 -0.8057  0.4471 -1.1303
 6973TIP3    H242411   4.263   3.012  14.798  0.0548  0.0091  0.0995
 6974TIP3   OH242412   5.593   3.792   3.858  1.1359 -0.0828 -0.0837
 6974TIP3    H142413   5.658   3.771   3.925  0.8285  0.8179  0.5131
 6974TIP3    H242414   5.540   3.713   3.850  0.3900  0.2025  1.6576
 6975TIP3   OH242415   1.186   3.545  15.225  0.2611  0.7018 -0.1672
 6975TIP3    H142416   1.196   3.629  15.180  0.0499  0.6327 -0.3488
 6975TIP3    H242417   1.275   3.520  15.250  0.4699  0.4125 -1.1548
 6976TIP3   OH242418   5.570   3.212  16.818  0.0577  0.4714  0.1971
 6976TIP3    H142419   5.500   3.180  16.875 -0.0818 -1.5757 -1.0140
 6976TIP3    H242420   5.561   3.160  16.738  2.8277  0.2427 -0.0676
 6977TIP3   OH242421   0.376   5.104  13.273 -0.0097  0.1090 -0.0083
 6977TIP3    H142422   0.387   5.127  13.180 -1.7166  2.8290  0.3444
 6977TIP3    H242423   0.292   5.143  13.297 -0.8820 -2.7614  2.0746
 6978TIP3   OH242424   1.595   1.819   1.204  0.5404  0.6294 -0.5011
 6978TIP3    H142425   1.503   1.825   1.230  0.2140 -1.0718 -1.0924
 6978TIP3    H242426   1.596   1.841   1.111  0.5036 -0.5411 -0.7994
 6979TIP3   OH242427   5.512   0.751  14.279  0.4563  0.4756  0.3217
 6979TIP3    H142428   5.426   0.720  14.254  0.9678 -0.2695 -0.5512
 6979TIP3    H242429   5.496   0.837  14.319 -0.5552  0.9419 -1.0210
 6980TIP3   OH242430   2.217   5.754   1.548  0.1626 -0.1334 -0.3000
 6980TIP3    H142431   2.182   5.669   1.522 -0.8251 -0.2140  1.1258
 6980TIP3    H242432   2.284   5.734   1.614 -1.0136  0.1747  1.0594
 6981TIP3   OH242433   6.818   4.438   0.973  0.3243  0.3177 -0.2412
 6981TIP3    H142434   6.755   4.487   0.920  0.0578  1.3877  1.0237
 6981TIP3    H242435   6.764   4.395   1.039  0.8546  0.6385  0.4036
 6982TIP3   OH242436   2.724   0.619  11.053 -0.1128 -0.2445  0.4536
 6982TIP3    H142437   2.677   0.679  11.110  0.3631  0.3198  0.2556
 6982TIP3    H242438   2.660   0.594  10.986 -0.5949 -0.7140  1.0782
 6983TIP3   OH242439   3.126   4.157  14.947  0.1877  0.4464 -0.0562
 6983TIP3    H142440   3.178   4.116  15.016 -0.4263  1.0125  0.7781
 6983TIP3    H242441   3.144   4.106  14.869  2.7956  1.2371 -0.0647
 6984TIP3   OH242442   5.209   2.397  14.136 -0.3086 -0.2852  0.3717
 6984TIP3    H142443   5.247   2.310  14.126 -1.4170 -0.7661  0.2840
 6984TIP3    H242444   5.225   2.419  14.228 -0.2943 -0.7054  0.4702
 6985TIP3   OH242445   2.851   5.879  12.299 -0.5145  0.7370 -0.2994
 6985TIP3    H142446   2.773   5.934  12.303 -2.1302 -1.4441 -0.3531
 6985TIP3    H242447   2.825   5.803  12.247  1.5684 -0.1934 -0.0903
 6986TIP3   OH242448   5.829   3.025  15.829 -0.0947  0.0173  0.9377
 6986TIP3    H142449   5.906   2.991  15.873 -2.1189 -1.7082  3.4095
 6986TIP3    H242450   5.787   3.082  15.893 -1.0389  0.7365 -0.2645
 6987TIP3   OH242451   0.378   5.685  16.801  0.0699 -0.0359 -0.3995
 6987TIP3    H142452   0.347   5.729  16.880 -0.8700 -1.8587  0.2899
 6987TIP3    H242453   0.310   5.620  16.781  1.0138 -0.6291 -1.8499
 6988TIP3   OH242454   3.005   0.850   2.371 -0.3088  0.3036  0.5320
 6988TIP3    H142455   2.995   0.756   2.361  0.9943  0.1915  0.1195
 6988TIP3    H242456   3.034   0.862   2.462  2.9317 -0.0616 -0.3079
 6989TIP3   OH242457   3.835   6.033  13.622 -0.3362  0.0577 -0.6931
 6989TIP3    H142458   3.825   6.082  13.704  0.7587 -2.9042  1.3949
 6989TIP3    H242459   3.869   6.097  13.560  0.9603  1.9898  1.7997
 6990TIP3   OH242460   5.855   3.734   1.145 -0.2437  0.4857  0.1733
 6990TIP3    H142461   5.938   3.705   1.182 -0.5949  1.2255  1.6357
 6990TIP3    H242462   5.788   3.694   1.201 -0.8665  0.1921 -0.7563
 6991TIP3   OH242463   5.479   5.579  12.730 -0.0383 -0.0821  0.0796
 6991TIP3    H142464   5.487   5.579  12.635 -0.6282  1.2420  0.0145
 6991TIP3    H242465   5.385   5.577  12.747  0.0606 -0.3260  0.6401
 6992TIP3   OH242466   4.518   5.819  12.040 -0.2952  0.2072 -0.0445
 6992TIP3    H142467   4.556   5.904  12.063 -1.6804  0.4114  1.6148
 6992TIP3    H242468   4.565   5.757  12.095 -0.3226  0.0803 -0.1660
 6993TIP3   OH242469   2.334   0.540  15.633 -0.0791  0.0146 -0.0616
 6993TIP3    H142470   2.428   0.557  15.636 -0.0421 -0.3249  0.9618
 6993TIP3    H242471   2.301   0.573  15.717 -0.9321  0.4373 -0.5417
 6994TIP3   OH242472   3.354   0.820   3.877  0.1291  0.4035  0.4245
 6994TIP3    H142473   3.264   0.810   3.847  0.2198 -1.3788  0.6264
 6994TIP3    H242474   3.389   0.891   3.823 -1.4854  1.4085  0.6219
 6995TIP3   OH242475   5.788   3.688   4.058 -0.0231  0.2297  0.6916
 6995TIP3    H142476   5.837   3.754   4.108  0.9208 -1.2838  1.8582
 6995TIP3    H242477   5.824   3.604   4.087 -0.3411 -0.7977 -1.6250
 6996TIP3   OH242478   2.951   2.805   1.461 -0.2464  0.4618 -0.2850
 6996TIP3    H142479   2.902   2.787   1.380 -0.2001 -3.3751  0.3497
 6996TIP3    H242480   3.036   2.835   1.430 -0.1931 -1.0095 -1.7474
 6997TIP3   OH242481   4.587   5.369  11.543 -0.1537  0.0457  0.1400
 6997TIP3    H142482   4.595   5.288  11.491  0.2058  0.1140  0.0877
 6997TIP3    H242483   4.543   5.341  11.623  1.3544 -0.5187  0.8116
 6998TIP3   OH242484   4.289   6.513  14.349  0.2791 -0.1051  0.1486
 6998TIP3    H142485   4.265   6.446  14.285 -0.6641  0.8413 -0.5314
 6998TIP3    H242486   4.325   6.585  14.296 -0.0616  0.4956  0.7103
 6999TIP3   OH242487   6.587   6.789  10.867  0.2860 -0.4678 -0.1190
 6999TIP3    H142488   6.584   6.694  10.861 -0.4770 -0.4533 -0.0583
 6999TIP3    H242489   6.579   6.819  10.777 -1.8837 -0.4324  0.0319
 7000TIP3   OH242490   5.099   2.801   2.231 -0.1933  0.2169 -0.2604
 7000TIP3    H142491   5.120   2.862   2.303 -2.1874  0.8194 -0.1339
 7000TIP3    H242492   5.059   2.726   2.274 -2.9976  1.3013 -0.7476
 7001TIP3   OH242493   0.392   5.623  11.307  0.0361 -0.0109  0.0510
 7001TIP3    H142494   0.342   5.542  11.294 -1.8939  1.2748 -0.9465
 7001TIP3    H242495   0.333   5.693  11.278  2.4349  1.6123 -1.2119
 7002TIP3   OH242496   0.397   2.550   4.445  0.2039 -0.1217 -0.2621
 7002TIP3    H142497   0.358   2.468   4.414 -0.3429 -0.1740  0.5316
 7002TIP3    H242498   0.489   2.528   4.460  0.5695 -0.0067 -2.1059
 7003TIP3   OH242499   2.275   5.201  13.717  0.2439  0.0567 -0.0470
 7003TIP3    H142500   2.269   5.158  13.632  3.0590  1.0322 -0.8332
 7003TIP3    H242501   2.316   5.136  13.774  0.1871  0.0849  0.0267
 7004TIP3   OH242502   2.154   5.707  11.797  0.0677 -0.2455  0.3319
 7004TIP3    H142503   2.117   5.795  11.787  0.9609 -0.0150 -1.2649
 7004TIP3    H242504   2.213   5.714  11.873  0.2670  0.5920  0.1091
 7005TIP3   OH242505   2.939   6.499   4.988  1.3165  0.0773  0.2176
 7005TIP3    H142506   2.973   6.581   5.023 -0.5346  0.7831  0.4817
 7005TIP3    H242507   2.936   6.440   5.063 -1.7211  1.2840  1.1899
 7006TIP3   OH242508   2.892   6.266  11.281  0.1649 -0.4787 -0.0088
 7006TIP3    H142509   2.920   6.301  11.365 -0.6546  1.4593 -0.4892
 7006TIP3    H242510   2.972   6.259  11.230  0.5476 -0.8373  0.6300
 7007TIP3   OH242511   6.813   4.794  16.376  0.2949  0.4669 -0.0447
 7007TIP3    H142512   6.894   4.772  16.328 -1.6044  1.1868 -3.9875
 7007TIP3    H242513   6.754   4.721  16.358  0.0285 -0.2533  3.1295
 7008TIP3   OH242514   2.887   0.571   2.335  0.2808 -0.2215 -0.1082
 7008TIP3    H142515   2.896   0.499   2.272 -1.5511 -0.0344 -0.6625
 7008TIP3    H242516   2.827   0.537   2.401 -0.1088  0.5723 -0.0456
 7009TIP3   OH242517   4.312   4.047   1.712  0.5670 -0.7640 -0.4846
 7009TIP3    H142518   4.279   4.120   1.765 -0.3961 -0.3641 -1.5811
 7009TIP3    H242519   4.403   4.037   1.739  0.3815  0.0765  0.5211
 7010TIP3   OH242520   4.018   6.400  17.048 -0.1299 -0.5970 -0.2446
 7010TIP3    H142521   4.113   6.403  17.053 -0.0826  0.3872 -1.2409
 7010TIP3    H242522   3.989   6.381  17.137  0.9846 -0.6027  0.1271
 7011TIP3   OH242523   1.140   3.580  16.722 -0.6884  0.1516 -0.3287
 7011TIP3    H142524   1.064   3.602  16.668 -0.5647  0.1258 -0.5155
 7011TIP3    H242525   1.103   3.552  16.805 -0.9114 -0.4170 -0.6122
 7012TIP3   OH242526   4.856   1.726   5.488  0.0092 -0.2658 -0.0459
 7012TIP3    H142527   4.841   1.785   5.562  0.6218 -0.4300  0.2172
 7012TIP3    H242528   4.925   1.769   5.437 -1.5585  0.6737 -1.4467
 7013TIP3   OH242529   2.762   5.454   0.310  0.5512 -0.4003  0.0582
 7013TIP3    H142530   2.784   5.400   0.386  1.2268 -1.6562 -0.9793
 7013TIP3    H242531   2.814   5.533   0.320  0.8851 -0.7013  0.7381
 7014TIP3   OH242532   0.801   0.396   1.359 -0.0774 -0.5397 -0.3078
 7014TIP3    H142533   0.889   0.431   1.340 -0.3297 -0.0883 -0.6562
 7014TIP3    H242534   0.766   0.372   1.273 -0.8929  0.7254 -0.3509
 7015TIP3   OH242535   4.650   6.117  13.159 -0.0687 -0.4193  0.4565
 7015TIP3    H142536   4.732   6.068  13.169 -0.2814 -0.7974  0.3808
 7015TIP3    H242537   4.585   6.050  13.137 -0.1724  0.0338 -0.6614
 7016TIP3   OH242538   0.112   6.622  11.791 -0.0637  0.0323  0.2078
 7016TIP3    H142539   0.104   6.654  11.881  2.3750  1.2481  0.0911
 7016TIP3    H242540   0.204   6.595  11.784  0.7964  3.0185 -2.7511
 7017TIP3   OH242541   4.075   5.696   6.815  0.2015  0.4751  0.4682
 7017TIP3    H142542   4.161   5.720   6.850 -0.1141  0.9423  0.9217
 7017TIP3    H242543   4.088   5.608   6.779  0.5344 -0.0071  1.7393
 7018TIP3   OH242544   2.910   5.551  11.672 -0.1365  0.1691  0.0590
 7018TIP3    H142545   2.947   5.487  11.733 -0.8969 -0.0777  0.2804
 7018TIP3    H242546   2.946   5.527  11.587  0.1062 -0.1348  0.2461
 7019TIP3   OH242547   2.970   3.984  10.886  0.6774 -0.0600 -0.5362
 7019TIP3    H142548   2.932   4.072  10.889  0.0275 -0.3460 -0.0071
 7019TIP3    H242549   3.057   3.994  10.925 -0.3177 -0.0669  1.8640
 7020TIP3   OH242550   2.280   0.992  12.329  0.1265  0.4417 -0.0506
 7020TIP3    H142551   2.209   0.942  12.290  0.6996  1.1807 -2.1958
 7020TIP3    H242552   2.359   0.961  12.285  0.5615  2.7316 -1.0826
 7021TIP3   OH242553   2.630   4.299   0.282 -0.1080  0.0677  0.3468
 7021TIP3    H142554   2.554   4.353   0.301 -0.0135  0.1068  0.6201
 7021TIP3    H242555   2.659   4.267   0.368  1.4448  1.7581  0.5040
 7022TIP3   OH242556   0.630   5.231   1.751 -0.4831  0.3850  0.5118
 7022TIP3    H142557   0.709   5.229   1.697  0.2342 -1.0858  1.5755
 7022TIP3    H242558   0.569   5.287   1.702  0.6029  0.1515 -1.1678
 7023TIP3   OH242559   5.265   0.231   1.878  0.6726  0.7780  0.5122
 7023TIP3    H142560   5.353   0.209   1.906  0.1298 -0.8668  1.0407
 7023TIP3    H242561   5.236   0.156   1.825 -0.7292  0.8550  1.1160
 7024TIP3   OH242562   5.562   6.581  11.446  0.3142  0.2819 -0.1565
 7024TIP3    H142563   5.468   6.581  11.429  0.3897 -0.7034 -0.6673
 7024TIP3    H242564   5.589   6.671  11.429 -0.3452  0.3041 -1.2184
 7025TIP3   OH242565   5.614   6.529  13.524  0.5599 -0.1513 -0.2295
 7025TIP3    H142566   5.528   6.544  13.561 -0.4386 -2.1131 -1.5617
 7025TIP3    H242567   5.670   6.508  13.599 -0.3384  0.2349  0.5631
 7026TIP3   OH242568   3.352   2.559   5.007 -0.1273 -0.0792  0.1458
 7026TIP3    H142569   3.424   2.505   4.974  0.6542  1.7369 -1.3435
 7026TIP3    H242570   3.350   2.635   4.948 -2.0715  0.8379  1.2798
 7027TIP3   OH242571   5.607   3.319  12.265 -0.0186 -0.1199 -0.0790
 7027TIP3    H142572   5.649   3.295  12.182  0.8354  0.6209  0.1243
 7027TIP3    H242573   5.677   3.308  12.330 -0.1477  1.1003  0.2739
 7028TIP3   OH242574   3.626   6.063  11.495  0.0503 -0.2831  0.0766
 7028TIP3    H142575   3.712   6.089  11.463  0.6425 -3.0519 -0.8605
 7028TIP3    H242576   3.564   6.114  11.441  1.0890 -0.4270 -1.3115
 7029TIP3   OH242577   4.203   2.144  13.953 -0.2320  0.1149 -0.4798
 7029TIP3    H142578   4.128   2.092  13.980  0.0806 -0.6418 -1.0388
 7029TIP3    H242579   4.254   2.086  13.896 -0.3127  1.2994 -1.8175
 7030TIP3   OH242580   3.266   4.963  10.738 -0.1940 -0.0578 -0.3069
 7030TIP3    H142581   3.208   5.037  10.725 -0.1193  0.3700  1.5207
 7030TIP3    H242582   3.336   4.976  10.674 -0.1481  1.5050  0.0109
 7031TIP3   OH242583   0.179   5.370   3.573  0.4051 -0.1973  0.6274
 7031TIP3    H142584   0.142   5.282   3.567  0.0607 -0.0402  0.4340
 7031TIP3    H242585   0.127   5.414   3.640  0.1236  0.0816  0.2287
 7032TIP3   OH242586   3.513   3.784   1.975 -0.3316  0.1848 -0.3719
 7032TIP3    H142587   3.559   3.771   1.892 -1.0200  0.4626 -0.8084
 7032TIP3    H242588   3.448   3.851   1.956 -3.3374 -2.5948 -0.7953
 7033TIP3   OH242589   2.501   6.073   4.232 -0.2676 -0.6277 -0.1669
 7033TIP3    H142590   2.557   5.997   4.217  0.1356 -0.4415  0.3727
 7033TIP3    H242591   2.487   6.109   4.144  0.9234 -0.3504 -0.2598
 7034TIP3   OH242592   4.559   4.312  11.567 -0.5169 -0.0683 -0.3695
 7034TIP3    H142593   4.538   4.379  11.502 -0.4206  1.1742  0.8361
 7034TIP3    H242594   4.623   4.256  11.524  2.1981  2.7266 -0.2433
 7035TIP3   OH242595   6.709   3.500   2.020 -0.2534  0.0312 -0.2820
 7035TIP3    H142596   6.780   3.555   2.054  0.1947 -2.1060  2.6741
 7035TIP3    H242597   6.738   3.474   1.933  1.6146  0.8991  0.0387
 7036TIP3   OH242598   4.758   5.043  14.341  0.0497 -0.9319 -0.1504
 7036TIP3    H142599   4.760   5.072  14.250  0.7903 -1.5159 -0.3303
 7036TIP3    H242600   4.778   4.949  14.337 -2.3950 -1.5264  0.4076
 7037TIP3   OH242601   1.917   3.890  12.333  0.1108 -0.1381 -0.7650
 7037TIP3    H142602   1.831   3.889  12.376  1.1549  1.7048  1.5583
 7037TIP3    H242603   1.912   3.962  12.270  0.3017  0.7037  0.1754
 7038TIP3   OH242604   4.033   5.245  16.816 -0.0997 -0.3852 -0.2030
 7038TIP3    H142605   3.964   5.221  16.878  0.9301 -1.1627  0.6807
 7038TIP3    H242606   4.018   5.187  16.741 -0.7833 -0.1041 -0.2882
 7039TIP3   OH242607   3.236   4.569  16.727  0.2875  0.8493  0.5262
 7039TIP3    H142608   3.186   4.509  16.781 -0.1124  0.1907 -0.5457
 7039TIP3    H242609   3.191   4.569  16.643  2.3145 -0.1272 -0.6262
 7040TIP3   OH242610   0.880   3.287   5.695  0.5464 -0.7626  0.1830
 7040TIP3    H142611   0.912   3.233   5.766  1.7700  0.2076  0.3982
 7040TIP3    H242612   0.805   3.334   5.732  0.8026 -0.7143  0.6389
 7041TIP3   OH242613   2.037   6.571  11.459  0.2582 -0.1354  0.2533
 7041TIP3    H142614   2.057   6.594  11.550 -0.6149 -0.3298  0.5048
 7041TIP3    H242615   2.120   6.537  11.424  0.0133 -2.5329  1.7585
 7042TIP3   OH242616   5.555   3.528  11.794  0.1937 -0.3902  0.5995
 7042TIP3    H142617   5.585   3.537  11.703 -1.5276  1.3921  0.1302
 7042TIP3    H242618   5.615   3.583  11.845  0.6722 -0.7411  0.4147
 7043TIP3   OH242619   4.556   4.428  12.608 -0.8559 -0.1096 -0.2035
 7043TIP3    H142620   4.577   4.427  12.701 -0.3018  1.6543 -0.2796
 7043TIP3    H242621   4.516   4.342  12.591 -0.3900 -0.6933  1.5055
 7044TIP3   OH242622   4.936   4.008   6.689 -0.6071 -0.1850  0.0677
 7044TIP3    H142623   4.916   3.925   6.734 -2.2031 -1.0572 -2.1053
 7044TIP3    H242624   4.851   4.044   6.665  0.1473  0.5516 -1.6736
 7045TIP3   OH242625   6.410   0.379   2.782 -0.5016 -0.7249 -0.0026
 7045TIP3    H142626   6.414   0.414   2.871 -1.4107 -0.6148  0.0131
 7045TIP3    H242627   6.492   0.406   2.741 -1.2810  1.7756 -0.0975
 7046TIP3   OH242628   1.394   3.697  16.862 -0.5269  0.0342 -0.6571
 7046TIP3    H142629   1.385   3.791  16.874 -0.4574  0.1558 -1.4770
 7046TIP3    H242630   1.435   3.688  16.776 -0.6911 -0.7475 -0.6588
 7047TIP3   OH242631   1.730   1.879   2.556 -0.1687 -0.0859 -0.0853
 7047TIP3    H142632   1.795   1.814   2.584  1.3005  2.4130  2.9655
 7047TIP3    H242633   1.750   1.895   2.464  0.5034 -2.6353 -0.4680
 7048TIP3   OH242634   5.430   6.601   2.960 -0.4254  0.1709  0.3507
 7048TIP3    H142635   5.518   6.591   2.997 -0.1374  1.3119 -0.0061
 7048TIP3    H242636   5.378   6.639   3.031 -0.5094 -0.0031  0.3848
 7049TIP3   OH242637   0.345   6.034  15.009  0.2442 -0.2232  0.3843
 7049TIP3    H142638   0.332   5.965  14.944 -1.0207  0.3221  0.0330
 7049TIP3    H242639   0.270   6.092  14.998  1.6390  1.6063  0.2228
 7050TIP3   OH242640   4.112   1.560  16.457  0.6050 -0.1510 -0.3095
 7050TIP3    H142641   4.115   1.479  16.405  0.2232 -0.5956  0.3417
 7050TIP3    H242642   4.158   1.537  16.538  1.1754  0.5279 -0.4305
 7051TIP3   OH242643   3.846   0.050   3.674  1.0330 -0.2360 -0.4057
 7051TIP3    H142644   3.781   0.106   3.716  1.3915  0.9594 -1.3956
 7051TIP3    H242645   3.795  -0.009   3.619  0.5971 -1.4675  1.2470
 7052TIP3   OH242646   4.684   4.080  10.957  0.2555  0.2217  0.0562
 7052TIP3    H142647   4.760   4.102  11.011 -0.2201  2.2746 -0.0302
 7052TIP3    H242648   4.609   4.108  11.009 -0.2995  0.6699 -0.9641
 7053TIP3   OH242649   3.602   4.062   1.961 -0.5638  0.1413  0.9606
 7053TIP3    H142650   3.593   4.072   1.866 -2.4548  1.1234  1.1897
 7053TIP3    H242651   3.680   4.008   1.972  0.3131  0.8818 -1.1029
 7054TIP3   OH242652   6.422   1.887  12.614  0.3439 -0.4507  0.1094
 7054TIP3    H142653   6.373   1.912  12.692 -1.5178  1.6882 -1.6006
 7054TIP3    H242654   6.514   1.898  12.639 -0.2090  3.6735  1.0985
 7055TIP3   OH242655   3.684   3.908  15.836 -0.2726 -0.5054 -0.4213
 7055TIP3    H142656   3.773   3.900  15.871  0.1309 -2.0172 -1.6646
 7055TIP3    H242657   3.687   3.988  15.782  0.0331 -0.0055  0.3205
 7056TIP3   OH242658   1.653   2.867   5.271  0.0463 -0.5668  0.2107
 7056TIP3    H142659   1.591   2.880   5.342  1.1722 -0.0559  1.1430
 7056TIP3    H242660   1.641   2.942   5.213  0.0500 -0.2755  0.5882
 7057TIP3   OH242661   4.457   0.564   4.823 -0.1919 -0.4721 -0.1428
 7057TIP3    H142662   4.501   0.495   4.772  1.1052 -0.6580  1.1704
 7057TIP3    H242663   4.506   0.644   4.802 -1.7370  0.1092 -1.7155
 7058TIP3   OH242664   0.418   4.528   3.113 -0.2710 -0.2409 -0.0640
 7058TIP3    H142665   0.360   4.556   3.042 -0.6172  0.2391  0.4025
 7058TIP3    H242666   0.393   4.437   3.129  0.5076 -0.6850 -1.2345
 7059TIP3   OH242667   6.515   6.698  16.990 -0.7742  0.5793 -0.3372
 7059TIP3    H142668   6.435   6.749  16.984  0.0818  2.0039  0.0127
 7059TIP3    H242669   6.497   6.632  17.057 -2.4177 -0.6108 -1.8603
 7060TIP3   OH242670   4.423   1.804  13.610 -0.2426 -0.1028  0.1998
 7060TIP3    H142671   4.513   1.792  13.639 -0.5382 -0.7276  0.8882
 7060TIP3    H242672   4.375   1.732  13.650 -0.5896 -1.3666 -2.3274
 7061TIP3   OH242673   0.057   0.934   1.394  0.5744  0.6509 -0.7033
 7061TIP3    H142674  -0.038   0.939   1.381  0.4280 -1.7798 -1.0643
 7061TIP3    H242675   0.085   0.859   1.341  2.5588  0.7372  0.1139
 7062TIP3   OH242676   5.038   0.643  14.025  1.0245 -0.0900  0.1446
 7062TIP3    H142677   4.945   0.651  14.044  0.6890  0.9521 -1.7305
 7062TIP3    H242678   5.043   0.581  13.952  1.8161 -0.3016  0.3660
 7063TIP3   OH242679   0.650   2.683   0.926 -0.0734 -0.3123 -0.2156
 7063TIP3    H142680   0.689   2.685   0.838 -2.4067  1.8658 -1.2927
 7063TIP3    H242681   0.556   2.688   0.911 -0.6875 -1.9953  2.4044
 7064TIP3   OH242682   5.219   0.966   1.103 -0.4101 -0.2877  0.2080
 7064TIP3    H142683   5.310   0.993   1.108 -0.7763  1.3626 -1.0387
 7064TIP3    H242684   5.209   0.901   1.172  1.8022 -0.8218  0.0956
 7065TIP3   OH242685   1.805   4.559  17.051  0.5792 -0.1320 -0.5490
 7065TIP3    H142686   1.827   4.652  17.042  1.4613 -0.0960  1.4273
 7065TIP3    H242687   1.716   4.559  17.086  0.3094 -0.0699 -1.2178
 7066TIP3   OH242688   1.040   0.772  14.404  0.5870 -0.2068  0.0507
 7066TIP3    H142689   1.052   0.848  14.460  1.5229  0.7646 -1.4201
 7066TIP3    H242690   1.003   0.705  14.462  0.4724  1.1071  1.5421
 7067TIP3   OH242691   3.088   5.332   4.515  0.5370 -0.1658 -0.2083
 7067TIP3    H142692   3.008   5.352   4.563  0.9056  0.6461  0.0822
 7067TIP3    H242693   3.065   5.256   4.461 -0.5713  0.3448 -0.4850
 7068TIP3   OH242694   1.075   4.436  12.642 -0.3263  0.3554  0.1327
 7068TIP3    H142695   1.139   4.412  12.576 -0.3948  0.3160  0.0801
 7068TIP3    H242696   1.099   4.525  12.668  1.1486 -0.4896  1.7976
 7069TIP3   OH242697   5.411   0.365  12.329 -0.0241  0.2695  0.1428
 7069TIP3    H142698   5.369   0.303  12.270 -0.8816  0.4304  0.5792
 7069TIP3    H242699   5.385   0.451  12.297  2.3770  0.5352 -1.4010
 7070TIP3   OH242700   1.690   5.452   4.532  0.1576  0.0498 -0.0527
 7070TIP3    H142701   1.781   5.439   4.506  0.8431  0.1105  2.1468
 7070TIP3    H242702   1.658   5.364   4.554  0.1371  0.2004  0.5352
 7071TIP3   OH242703   5.283   4.432  15.571 -0.3465 -0.2573 -0.1460
 7071TIP3    H142704   5.336   4.353  15.577 -0.2022 -0.1727 -0.2874
 7071TIP3    H242705   5.295   4.463  15.481 -0.8218 -0.3659 -0.2540
 7072TIP3   OH242706   6.704   4.182   6.333  0.7711 -0.2398 -0.0452
 7072TIP3    H142707   6.647   4.259   6.333 -1.4282 -1.7742 -0.6245
 7072TIP3    H242708   6.711   4.157   6.425 -0.9982 -1.0169 -0.0798
 7073TIP3   OH242709   1.320   3.749  13.568  0.3363 -0.0811 -0.6832
 7073TIP3    H142710   1.228   3.722  13.571  0.1194  0.7164  0.1634
 7073TIP3    H242711   1.317   3.844  13.561  1.1047 -0.1215 -1.9189
 7074TIP3   OH242712   1.950   2.024   3.257  0.5303 -0.3730 -0.0590
 7074TIP3    H142713   1.944   1.928   3.256 -0.7035 -0.3728  1.7238
 7074TIP3    H242714   2.022   2.043   3.318  0.9097 -0.1578 -0.5694
 7075TIP3   OH242715   4.999   2.002  16.541  0.1329 -0.6590  0.0496
 7075TIP3    H142716   5.065   2.057  16.583 -1.7339  1.2021  0.7091
 7075TIP3    H242717   4.971   1.942  16.610 -0.2014 -0.1770  0.3384
 7076TIP3   OH242718   3.094   4.042  14.270 -0.0434  0.4247 -0.1184
 7076TIP3    H142719   3.106   3.953  14.301  2.0326  1.6318  3.0464
 7076TIP3    H242720   3.146   4.047  14.190 -2.6386 -1.8863 -2.1223
 7077TIP3   OH242721   2.731   5.636  12.570 -0.0582  0.1022 -0.0468
 7077TIP3    H142722   2.802   5.611  12.510  0.4498 -0.8758  0.9037
 7077TIP3    H242723   2.750   5.586  12.650 -2.7743 -1.5908 -0.3273
 7078TIP3   OH242724   5.024   3.516  13.646  0.4699 -0.5411 -0.5022
 7078TIP3    H142725   4.972   3.584  13.603  1.0239  0.8871  1.0311
 7078TIP3    H242726   5.063   3.467  13.573 -1.2940 -0.3447 -1.6569
 7079TIP3   OH242727   1.368   4.831  12.836 -0.5385  0.0244 -0.3185
 7079TIP3    H142728   1.440   4.846  12.775 -1.2220  1.6465 -0.7923
 7079TIP3    H242729   1.379   4.897  12.904 -0.7888 -0.6336  0.3800
 7080TIP3   OH242730   6.421   0.759  16.679 -0.2613  0.2209 -0.2280
 7080TIP3    H142731   6.416   0.828  16.745  1.1837  1.2632 -1.1393
 7080TIP3    H242732   6.515   0.746  16.666 -0.5046  0.2117 -2.2171
 7081TIP3   OH242733   1.022   5.497   6.242 -0.1508  0.1488 -0.2980
 7081TIP3    H142734   1.027   5.529   6.333 -3.6629 -2.0198  0.8347
 7081TIP3    H242735   0.959   5.556   6.200  0.0029 -0.0323 -0.7823
 7082TIP3   OH242736   5.385   3.375   0.079 -0.1205 -0.4126 -0.4789
 7082TIP3    H142737   5.364   3.452   0.132  0.8443 -0.3570 -0.1477
 7082TIP3    H242738   5.360   3.399  -0.010 -0.4333  0.0357 -0.2741
 7083TIP3   OH242739   5.852   5.153  14.558  0.1320  0.0444  0.0786
 7083TIP3    H142740   5.911   5.147  14.633 -0.6152  0.0906  0.6808
 7083TIP3    H242741   5.884   5.086  14.497  0.9814  0.2700  0.2672
 7084TIP3   OH242742   5.013   2.484   3.405  0.1113  0.8757 -0.6552
 7084TIP3    H142743   4.972   2.500   3.320 -0.6274 -1.9001 -0.9374
 7084TIP3    H242744   4.945   2.441   3.457  0.4971  2.6333  1.4502
 7085TIP3   OH242745   1.734   0.679   5.368 -0.6505  0.6807 -0.2450
 7085TIP3    H142746   1.754   0.598   5.413  1.6352  0.2472 -1.8436
 7085TIP3    H242747   1.648   0.665   5.329 -1.4886  0.1066  1.7115
 7086TIP3   OH242748   4.229   0.421   2.745  0.1171 -0.6656  0.4763
 7086TIP3    H142749   4.176   0.476   2.687 -1.9855 -1.1682  1.8066
 7086TIP3    H242750   4.259   0.481   2.814  0.8854 -0.4825 -0.0090
 7087TIP3   OH242751   4.702   4.096   6.571 -0.7304 -0.0479 -0.5018
 7087TIP3    H142752   4.619   4.068   6.609 -0.0978  0.1944  1.1159
 7087TIP3    H242753   4.683   4.180   6.529 -0.9051  1.0155  1.5883
 7088TIP3   OH242754   2.434   1.781   5.403 -0.0170  0.2851  0.0056
 7088TIP3    H142755   2.450   1.830   5.483  0.0712  2.5062 -1.2772
 7088TIP3    H242756   2.517   1.785   5.355 -1.1026  2.5427 -1.9206
 7089TIP3   OH242757   3.723   6.363  15.399 -0.7331  0.2932 -0.0694
 7089TIP3    H142758   3.631   6.356  15.373 -0.5679  1.6468 -1.1141
 7089TIP3    H242759   3.725   6.328  15.489 -2.2093 -0.0033 -0.1292
 7090TIP3   OH242760   2.211   1.325   0.956 -0.7255  0.7483 -0.4859
 7090TIP3    H142761   2.253   1.254   1.005 -1.8036  0.8609  0.6702
 7090TIP3    H242762   2.274   1.348   0.888 -0.3150 -1.2842 -0.8787
 7091TIP3   OH242763   2.754   2.846  16.379 -0.0574  0.0908  0.2054
 7091TIP3    H142764   2.665   2.882  16.372  0.4643  1.3261 -0.3999
 7091TIP3    H242765   2.786   2.844  16.289  1.0211  1.0004  0.5450
 7092TIP3   OH242766   0.462   5.462  15.413  0.5469  0.0310 -0.0125
 7092TIP3    H142767   0.413   5.509  15.346  2.2442  1.9884  0.0340
 7092TIP3    H242768   0.554   5.479  15.393  1.1329  1.1680  3.0829
 7093TIP3   OH242769   5.551   4.583  11.177 -0.1738 -0.4890 -0.0594
 7093TIP3    H142770   5.597   4.633  11.244  0.6724 -1.8166  0.3949
 7093TIP3    H242771   5.601   4.598  11.097  0.6900 -1.3900  0.2916
 7094TIP3   OH242772   6.836   2.928  17.131 -0.3356 -0.1110 -0.3474
 7094TIP3    H142773   6.843   3.005  17.187 -1.4230 -0.0346 -0.2981
 7094TIP3    H242774   6.899   2.866  17.166 -1.0064 -0.0712  0.9751
 7095TIP3   OH242775   3.403   6.345   2.788  0.3260  0.0460  0.2531
 7095TIP3    H142776   3.430   6.373   2.701  0.1467 -1.7377 -0.4131
 7095TIP3    H242777   3.486   6.336   2.836  0.5549 -0.5536 -0.2426
 7096TIP3   OH242778   0.422   1.274   5.925 -0.1664  0.2618 -0.0076
 7096TIP3    H142779   0.398   1.295   6.015  0.6335 -2.8880  1.0542
 7096TIP3    H242780   0.341   1.240   5.886 -0.0650 -0.1686  0.1495
 7097TIP3   OH242781   3.814   5.374   5.088 -0.2215  0.1959 -0.7345
 7097TIP3    H142782   3.880   5.384   5.157  0.0707 -1.9799 -0.6250
 7097TIP3    H242783   3.865   5.363   5.008 -0.4422 -0.5665 -0.7833
 7098TIP3   OH242784   2.907   5.688  14.486  0.0167 -0.0951 -0.0021
 7098TIP3    H142785   2.982   5.720  14.437 -0.4217  0.7596 -0.1303
 7098TIP3    H242786   2.902   5.745  14.563  0.7901 -1.5152  1.1410
 7099TIP3   OH242787   4.001   4.721  12.425 -0.0417 -0.0188 -0.5803
 7099TIP3    H142788   4.006   4.634  12.385 -1.1142 -0.1374 -0.5135
 7099TIP3    H242789   3.955   4.775  12.361 -0.2570  0.2330 -0.2225
 7100TIP3   OH242790   6.200   2.620   2.108 -0.0811 -0.1345 -0.0004
 7100TIP3    H142791   6.279   2.630   2.055 -0.9588  0.9867 -1.1502
 7100TIP3    H242792   6.207   2.532   2.145  1.6726 -0.0760 -0.1017
 7101TIP3   OH242793   1.251   1.143   3.367  0.6556  0.1381  0.7429
 7101TIP3    H142794   1.228   1.215   3.308  0.9847  0.8134  1.4231
 7101TIP3    H242795   1.296   1.080   3.311 -0.3218  0.0857 -0.0264
 7102TIP3   OH242796   3.523   0.741  12.809 -0.3068  0.3090 -0.3497
 7102TIP3    H142797   3.610   0.765  12.777 -0.4149  0.3078 -0.6432
 7102TIP3    H242798   3.513   0.793  12.889 -0.0315  0.2988 -0.3068
 7103TIP3   OH242799   3.936   1.192  14.018  0.3186 -0.1855  0.1765
 7103TIP3    H142800   4.031   1.190  14.007  0.1638 -0.6369 -1.1767
 7103TIP3    H242801   3.917   1.119  14.077  0.6486 -1.2899 -1.0386
 7104TIP3   OH242802   0.675   5.560  10.619 -0.5724  0.2339  0.1226
 7104TIP3    H142803   0.717   5.646  10.610  0.9493 -0.5385 -0.5137
 7104TIP3    H242804   0.586   5.580  10.646 -0.6707  2.0883 -1.3647
 7105TIP3   OH242805   5.911   4.570  16.348  0.4618 -0.2892 -0.6135
 7105TIP3    H142806   5.922   4.665  16.354  0.3575 -0.3324  0.4377
 7105TIP3    H242807   5.918   4.551  16.254  2.6331  0.4883 -0.6557
 7106TIP3   OH242808   3.423   3.500   3.657  0.1204 -0.2535 -0.0369
 7106TIP3    H142809   3.377   3.581   3.680  0.7935  0.1569 -0.1147
 7106TIP3    H242810   3.428   3.451   3.739  0.0137 -0.0594  0.0866
 7107TIP3   OH242811   5.523   3.816   2.813 -0.4246 -0.1165 -0.1475
 7107TIP3    H142812   5.439   3.843   2.774 -0.7308  0.9843  1.1670
 7107TIP3    H242813   5.589   3.861   2.760 -0.7816  0.6497  0.0399
 7108TIP3   OH242814   6.375   5.016   1.875  0.2119 -0.0857  0.3798
 7108TIP3    H142815   6.430   4.944   1.908  0.8599  1.3233  2.5618
 7108TIP3    H242816   6.412   5.095   1.914 -1.5633  1.2723 -0.5207
 7109TIP3   OH242817   0.377   1.161  12.069  0.0744  0.5570  0.6036
 7109TIP3    H142818   0.407   1.233  12.014  1.9228 -1.0489 -0.6423
 7109TIP3    H242819   0.439   1.159  12.142 -0.1262  0.3994  0.7723
 7110TIP3   OH242820   4.390   0.206  16.636  0.1836  0.7583 -0.3149
 7110TIP3    H142821   4.334   0.269  16.590  0.4751  0.9574 -0.3954
 7110TIP3    H242822   4.445   0.260  16.693  0.9320  0.6372 -0.9126
 7111TIP3   OH242823   0.064   3.067  13.689 -0.4471 -0.0555  0.1207
 7111TIP3    H142824   0.043   3.041  13.778  2.3526  2.6387  1.7549
 7111TIP3    H242825   0.145   3.021  13.668 -0.9127 -0.4237 -0.9407
 7112TIP3   OH242826   5.036   6.815   1.340 -0.2500 -0.2300 -0.9516
 7112TIP3    H142827   5.041   6.725   1.307  1.8127 -0.3939 -0.3653
 7112TIP3    H242828   4.957   6.851   1.301 -1.0554 -2.2568 -1.3124
 7113TIP3   OH242829   1.266   0.021   4.844 -0.2217  0.1525 -0.3449
 7113TIP3    H142830   1.354  -0.002   4.875  0.3936  1.4843 -1.0089
 7113TIP3    H242831   1.274   0.018   4.748 -1.3052 -1.0925 -0.4236
 7114TIP3   OH242832   4.288   4.426  16.164 -0.1948  0.3006  0.3936
 7114TIP3    H142833   4.279   4.350  16.107  1.3013 -0.4102  1.0709
 7114TIP3    H242834   4.237   4.494  16.121  0.3291 -0.4136 -1.4282
 7115TIP3   OH242835   0.391   2.040   4.494 -0.6299 -0.1644 -0.4235
 7115TIP3    H142836   0.353   2.079   4.415 -0.4761  1.4675  0.2551
 7115TIP3    H242837   0.315   2.012   4.545 -0.8147  0.4652 -0.3450
 7116TIP3   OH242838   5.303   0.227  12.060 -0.2914  0.3705  0.9464
 7116TIP3    H142839   5.253   0.307  12.079 -0.1830  1.2904 -2.1513
 7116TIP3    H242840   5.255   0.185  11.989  1.6526 -0.3747  0.0091
 7117TIP3   OH242841   1.062   6.270   6.739  0.6986  0.0684 -0.0347
 7117TIP3    H142842   1.101   6.217   6.809  0.6216  0.2760  0.1694
 7117TIP3    H242843   1.050   6.209   6.667 -1.9703 -0.8799  1.1010
 7118TIP3   OH242844   4.995   1.751   1.282 -0.2477 -0.3725  0.6826
 7118TIP3    H142845   5.075   1.713   1.246 -1.2733 -1.3239 -0.7044
 7118TIP3    H242846   5.010   1.845   1.278  1.0313 -0.5416  1.0021
 7119TIP3   OH242847   2.592   3.904   2.247 -0.0070 -0.4253 -0.4679
 7119TIP3    H142848   2.541   3.978   2.281 -1.4327 -0.4518 -2.4041
 7119TIP3    H242849   2.620   3.857   2.325 -1.4605  0.5891  0.7174
 7120TIP3   OH242850   4.566   3.743   6.206  0.2389 -0.3674  0.6028
 7120TIP3    H142851   4.485   3.696   6.187  0.6770 -0.2777 -1.7585
 7120TIP3    H242852   4.619   3.681   6.256 -0.8448 -0.8122  1.2244
 7121TIP3   OH242853   5.508   0.483  15.514  0.1183  0.3505 -0.7726
 7121TIP3    H142854   5.548   0.415  15.461  0.0697 -0.5218  0.2750
 7121TIP3    H242855   5.432   0.442  15.554  0.6904  0.6599  0.7317
 7122TIP3   OH242856   1.121   0.352   4.482 -0.1140  0.6258  0.0385
 7122TIP3    H142857   1.067   0.299   4.541  1.8986  0.0752  1.4888
 7122TIP3    H242858   1.163   0.289   4.424  0.1579  0.9037 -0.0693
 7123TIP3   OH242859   2.053   5.178  14.075  0.1928 -0.0537  0.1541
 7123TIP3    H142860   2.137   5.220  14.056  1.0049 -2.0907 -1.1384
 7123TIP3    H242861   2.076   5.087  14.095 -1.5988 -0.3010  1.3587
 7124TIP3   OH242862   5.056   6.420  13.078 -0.4349  0.0469 -0.4494
 7124TIP3    H142863   5.114   6.456  13.011 -1.4135  2.1336 -0.2374
 7124TIP3    H242864   5.106   6.348  13.116  1.3426  0.7255 -1.3836
 7125TIP3   OH242865   6.417   2.132  15.547  0.2067 -0.2128 -0.0937
 7125TIP3    H142866   6.401   2.203  15.609  0.1516  0.8230 -1.2386
 7125TIP3    H242867   6.409   2.052  15.598 -2.8547  0.4534  0.6330
 7126TIP3   OH242868   2.448   5.612   2.443 -0.3157 -0.0748 -0.2639
 7126TIP3    H142869   2.509   5.569   2.383 -0.5757 -0.1601 -0.4686
 7126TIP3    H242870   2.503   5.642   2.515  0.1818  1.0318 -1.0773
 7127TIP3   OH242871   0.136   3.005  14.953  0.0947  0.6693  0.0409
 7127TIP3    H142872   0.188   2.931  14.920 -1.8652 -0.4221 -0.7898
 7127TIP3    H242873   0.163   3.079  14.898  0.6089  0.0752 -0.5244
 7128TIP3   OH242874   3.223   3.351  15.594 -0.5342 -0.5401  1.3632
 7128TIP3    H142875   3.189   3.358  15.683 -2.3737 -1.0881  0.7258
 7128TIP3    H242876   3.165   3.405  15.541  0.5755 -0.1664  0.4746
 7129TIP3   OH242877   2.794   0.509   5.070 -0.6520 -0.1698  0.6894
 7129TIP3    H142878   2.765   0.507   5.162  0.1040 -0.6431  0.9282
 7129TIP3    H242879   2.874   0.561   5.072 -1.7195  1.5922 -0.0499
 7130TIP3   OH242880   5.271   1.735  11.275 -0.1118  0.4331  0.1165
 7130TIP3    H142881   5.315   1.759  11.356 -0.0005  1.1455 -0.1497
 7130TIP3    H242882   5.179   1.758  11.290 -0.2419 -0.1827  0.3257
 7131TIP3   OH242883   6.119   3.906   3.685  0.4788  0.1773 -0.0982
 7131TIP3    H142884   6.209   3.892   3.713  0.1445  0.2964  1.0579
 7131TIP3    H242885   6.106   3.840   3.616  0.7561 -1.3707  1.2607
 7132TIP3   OH242886   5.257   1.018  14.408  0.2500 -0.1801  0.6260
 7132TIP3    H142887   5.237   0.936  14.362 -0.1663 -1.3663  2.8180
 7132TIP3    H242888   5.179   1.036  14.460  0.3382  1.6609  0.1932
 7133TIP3   OH242889   1.803   2.483   1.360  0.3073 -0.6019  0.1451
 7133TIP3    H142890   1.821   2.390   1.344  2.1793 -0.0635 -1.2111
 7133TIP3    H242891   1.885   2.527   1.339 -0.9313  1.4981 -0.5679
 7134TIP3   OH242892   5.783   0.464   0.729  0.3904 -0.4096  0.1468
 7134TIP3    H142893   5.803   0.433   0.641  0.2056  1.6493 -0.6733
 7134TIP3    H242894   5.703   0.516   0.718 -0.0833 -0.7535  1.6896
 7135TIP3   OH242895   2.332   1.057   0.715  0.3281  0.2694 -0.1013
 7135TIP3    H142896   2.238   1.038   0.725  0.4407 -0.9559 -1.2242
 7135TIP3    H242897   2.374   0.972   0.723  1.3463  0.7871  0.1397
 7136TIP3   OH242898   2.959   1.663   4.524 -0.0269  0.2987 -0.6360
 7136TIP3    H142899   2.866   1.671   4.503  0.4873 -0.0850 -3.3798
 7136TIP3    H242900   3.005   1.687   4.444  2.3000  0.7849  0.7270
 7137TIP3   OH242901   0.909   1.510  15.090  0.2077  0.2246  0.1177
 7137TIP3    H142902   0.927   1.506  15.184  1.7177  2.8030  0.0402
 7137TIP3    H242903   0.826   1.557  15.083  0.0997  0.0403  0.1341
 7138TIP3   OH242904   6.776   6.587   4.243  0.7602 -0.0587 -0.0661
 7138TIP3    H142905   6.738   6.602   4.330 -0.7995  0.8528 -0.8651
 7138TIP3    H242906   6.790   6.675   4.209  1.2926 -0.4168 -0.7820
 7139TIP3   OH242907   5.723   2.996   3.625 -0.4475 -0.2497  0.0571
 7139TIP3    H142908   5.776   3.068   3.589 -0.3783 -0.5741 -0.5078
 7139TIP3    H242909   5.636   3.033   3.633 -0.5381 -0.2542 -0.7629
 7140TIP3   OH242910   1.988   6.220  12.315  0.0253  0.1408  0.5715
 7140TIP3    H142911   1.965   6.224  12.408 -1.0305 -1.7614  0.4347
 7140TIP3    H242912   2.063   6.278  12.307  0.2687  0.1950  2.6590
 7141TIP3   OH242913   4.275   0.828   3.010 -0.7518 -0.0840  0.2894
 7141TIP3    H142914   4.336   0.781   2.953 -0.6133  0.5830 -0.1214
 7141TIP3    H242915   4.279   0.781   3.093  0.0649 -0.2555  0.1618
 7142TIP3   OH242916   4.815   3.948   5.349  0.4689  0.4186 -0.4610
 7142TIP3    H142917   4.867   3.992   5.416 -1.6069 -0.5388  1.9582
 7142TIP3    H242918   4.767   4.019   5.305  0.5805  0.9533  0.2575
 7143TIP3   OH242919   4.707   1.729   4.845 -0.2131  0.0800 -0.1619
 7143TIP3    H142920   4.786   1.766   4.885 -0.2249 -1.5333  1.4758
 7143TIP3    H242921   4.740   1.676   4.772  0.0198  1.0485 -0.7769
 7144TIP3   OH242922   1.581   1.320  16.138 -0.5493 -0.2957 -0.5536
 7144TIP3    H142923   1.672   1.349  16.137 -1.1174  1.6500 -1.8149
 7144TIP3    H242924   1.572   1.271  16.220  1.1805  0.9898  0.4799
 7145TIP3   OH242925   1.574   4.063   1.675  0.2497 -0.5517  0.2136
 7145TIP3    H142926   1.494   4.080   1.725 -0.0688  1.1087 -0.7649
 7145TIP3    H242927   1.552   3.989   1.619 -2.1677  2.2819 -3.0068
 7146TIP3   OH242928   3.063   4.755  10.820 -0.2953  0.1467 -0.0852
 7146TIP3    H142929   3.079   4.725  10.910 -0.2480 -2.2237 -0.8080
 7146TIP3    H242930   3.135   4.815  10.802  0.5174 -0.4594  1.0028
 7147TIP3   OH242931   1.768   4.435   0.957 -0.3436 -0.1199  0.1706
 7147TIP3    H142932   1.725   4.500   1.013 -1.2121 -0.1813 -0.4203
 7147TIP3    H242933   1.831   4.486   0.906 -0.9732  0.2524 -0.2439
 7148TIP3   OH242934   4.631   4.198   2.902  0.1457 -0.3224 -0.2316
 7148TIP3    H142935   4.725   4.215   2.910  0.4991 -2.3688  0.5628
 7148TIP3    H242936   4.625   4.106   2.875 -1.6132  0.2897 -2.2549
 7149TIP3   OH242937   1.852   5.530   2.111 -0.4148  0.2255 -0.1277
 7149TIP3    H142938   1.873   5.459   2.173 -0.4186  0.1773 -0.1817
 7149TIP3    H242939   1.850   5.487   2.026 -2.1090 -0.0496  0.0193
 7150TIP3   OH242940   5.458   2.364   4.650  0.4255  0.3482  0.0684
 7150TIP3    H142941   5.467   2.320   4.735 -2.0748 -0.7179 -0.1446
 7150TIP3    H242942   5.373   2.408   4.655  1.9071  3.5943 -0.5139
 7151TIP3   OH242943   4.447   2.499   0.013 -0.6664  0.4688 -0.0521
 7151TIP3    H142944   4.447   2.432  -0.055  0.5609 -0.4818  0.8436
 7151TIP3    H242945   4.452   2.450   0.095  2.2571  1.6470  0.5713
 7152TIP3   OH242946   3.716   2.094   4.853 -0.1320 -0.6271 -0.0975
 7152TIP3    H142947   3.718   2.033   4.927  0.0701  1.3019  1.5771
 7152TIP3    H242948   3.624   2.093   4.824 -0.0669 -1.9288 -0.3121
 7153TIP3   OH242949   5.658   6.565   5.826  0.3264 -0.1581  0.1332
 7153TIP3    H142950   5.670   6.532   5.916 -2.2676 -0.0963  0.5849
 7153TIP3    H242951   5.613   6.494   5.781  2.1344 -0.4205 -1.3453
 7154TIP3   OH242952   3.503   0.528  14.835  0.2744 -0.1035 -0.3132
 7154TIP3    H142953   3.566   0.597  14.813 -0.1467  0.1687 -0.6784
 7154TIP3    H242954   3.483   0.543  14.927  1.0964 -0.4796 -0.0652
 7155TIP3   OH242955   2.806   1.344  15.840 -0.4866 -0.3636  0.3972
 7155TIP3    H142956   2.899   1.345  15.865 -0.1973 -1.1522 -0.6050
 7155TIP3    H242957   2.774   1.260  15.871 -0.6428 -0.4621 -0.0282
 7156TIP3   OH242958   3.040   4.409   2.801 -0.4110 -0.0993 -0.1796
 7156TIP3    H142959   3.110   4.366   2.850  0.4735  0.7626 -0.6464
 7156TIP3    H242960   2.964   4.405   2.859  0.5613  0.7823  1.2295
 7157TIP3   OH242961   3.400   4.793  14.548  0.2007  0.1405  0.5582
 7157TIP3    H142962   3.484   4.751  14.527 -0.5827 -1.8613  1.1796
 7157TIP3    H242963   3.424   4.880  14.579  1.8154  0.9713 -2.5570
 7158TIP3   OH242964   5.999   1.462  13.034 -0.2333  0.0236 -0.0379
 7158TIP3    H142965   5.932   1.407  12.994 -0.2826  0.4850 -0.6152
 7158TIP3    H242966   6.011   1.534  12.971  1.5413 -0.5970 -0.4670
 7159TIP3   OH242967   1.374   1.219   5.481  0.2004  0.4075 -0.3605
 7159TIP3    H142968   1.298   1.247   5.430 -0.2561 -0.2498 -0.0504
 7159TIP3    H242969   1.397   1.295   5.534 -0.7809  0.3337  0.1835
 7160TIP3   OH242970   6.018   1.610   3.387 -0.1262 -0.7316 -0.0918
 7160TIP3    H142971   6.051   1.603   3.298 -2.3392 -1.2198 -0.9506
 7160TIP3    H242972   6.060   1.537   3.434  1.1755 -0.3723 -0.6646
 7161TIP3   OH242973   4.417   5.462  11.135  0.3662 -0.1965 -0.1671
 7161TIP3    H142974   4.432   5.549  11.099  0.2789 -0.4267 -0.7623
 7161TIP3    H242975   4.373   5.413  11.065 -0.4512 -0.4329  0.5023
 7162TIP3   OH242976   2.001   4.833   5.950 -0.0274  0.4795 -0.3783
 7162TIP3    H142977   1.907   4.852   5.955  0.0909  0.8528  0.7495
 7162TIP3    H242978   2.024   4.807   6.039  1.2127  1.7168 -0.3120
 7163TIP3   OH242979   2.458   3.260  12.898  0.3720 -0.1753 -0.1850
 7163TIP3    H142980   2.403   3.246  12.974  0.3418  2.0879  0.2824
 7163TIP3    H242981   2.399   3.294  12.831  0.6118 -1.0307 -0.8472
 7164TIP3   OH242982   3.321   6.312  14.760 -0.3867  0.0784  0.3813
 7164TIP3    H142983   3.285   6.272  14.680 -1.2294 -0.4988  1.0336
 7164TIP3    H242984   3.415   6.293  14.756 -0.4255  0.0333 -0.4646
 7165TIP3   OH242985   0.919   5.620  15.850  0.5318 -0.1621 -0.0385
 7165TIP3    H142986   0.865   5.572  15.913  0.3920 -0.7076 -0.5638
 7165TIP3    H242987   0.984   5.555  15.820  0.2194 -0.0834 -0.8988
 7166TIP3   OH242988   6.095   6.265  14.215 -0.3602 -0.4260 -0.3596
 7166TIP3    H142989   6.147   6.345  14.202 -0.4612 -0.3851 -0.5073
 7166TIP3    H242990   6.045   6.282  14.295  1.4024 -1.2698  1.0016
 7167TIP3   OH242991   1.021   4.239  11.264 -0.9300 -0.0985  0.0905
 7167TIP3    H142992   1.024   4.311  11.327 -1.3610  0.4438 -0.4919
 7167TIP3    H242993   1.024   4.283  11.179  0.5819 -0.8656 -0.2658
 7168TIP3   OH242994   6.226   4.346   5.712 -0.4314  0.0694  0.0182
 7168TIP3    H142995   6.216   4.385   5.626 -0.1812  1.8515  0.7517
 7168TIP3    H242996   6.152   4.285   5.719  0.0212 -0.7456 -1.7355
 7169TIP3   OH242997   2.322   0.088   2.633  0.2676  0.1732  0.6856
 7169TIP3    H142998   2.250   0.151   2.620 -0.6809 -0.5802  2.0359
 7169TIP3    H242999   2.343   0.057   2.545  1.5368  3.1508 -0.1661
 7170TIP3   OH243000   0.313   3.410   4.480  0.0958 -0.0779 -0.1542
 7170TIP3    H143001   0.250   3.344   4.509  1.5122 -1.3737  0.0844
 7170TIP3    H243002   0.364   3.367   4.411  0.3040  1.1639 -0.8107
 7171TIP3   OH243003   2.380   5.334   0.525 -0.4957 -0.2843  0.4004
 7171TIP3    H143004   2.444   5.270   0.555  0.9576  1.6674  1.7364
 7171TIP3    H243005   2.306   5.325   0.585 -0.8554 -1.4941 -0.1901
 7172TIP3   OH243006   6.703   1.581   0.325 -0.1558 -0.3216 -0.1069
 7172TIP3    H143007   6.798   1.586   0.339 -0.2242  1.2657 -0.0540
 7172TIP3    H243008   6.683   1.655   0.269 -1.2998 -1.0126 -0.6562
 7173TIP3   OH243009   1.959   4.593  15.824 -0.2622 -0.1061  0.1718
 7173TIP3    H143010   1.901   4.574  15.898  1.2987  2.2857  2.1804
 7173TIP3    H243011   1.955   4.688  15.814  3.2599  0.2323  0.5274
 7174TIP3   OH243012   3.890   5.033   0.041 -0.0141 -0.0826  0.1449
 7174TIP3    H143013   3.867   4.974  -0.030 -0.2670  2.3493 -1.9457
 7174TIP3    H243014   3.978   5.006   0.068 -1.0072 -2.8350  0.9720
 7175TIP3   OH243015   6.031   5.026  14.351 -0.2316 -0.0193  0.3831
 7175TIP3    H143016   6.089   4.971  14.404  1.7772 -0.0075 -1.6547
 7175TIP3    H243017   5.972   4.964  14.308  1.2380 -0.5664 -0.9581
 7176TIP3   OH243018   5.779   5.135   0.571  0.2068 -0.2432 -0.1905
 7176TIP3    H143019   5.732   5.202   0.520  0.0438 -0.7520 -0.7171
 7176TIP3    H243020   5.871   5.158   0.561  0.0750  1.4125  1.7496
 7177TIP3   OH243021   3.501   2.472  12.543 -0.2915  0.4052 -0.1102
 7177TIP3    H143022   3.578   2.433  12.585 -1.1176 -0.4094  0.6654
 7177TIP3    H243023   3.512   2.566  12.556  0.6666  0.3137 -0.1793
 7178TIP3   OH243024   2.252   0.955   2.955  0.2125 -0.1330 -0.0093
 7178TIP3    H143025   2.245   0.877   2.901 -0.1447 -0.3735  0.3795
 7178TIP3    H243026   2.340   0.988   2.939 -0.1727  0.2868 -1.4032
 7179TIP3   OH243027   0.741   6.804   2.605  0.2745 -0.7466  0.0587
 7179TIP3    H143028   0.817   6.769   2.651  1.2755  1.3149  0.0991
 7179TIP3    H243029   0.777   6.837   2.522 -0.5280  0.4030  0.1499
 7180TIP3   OH243030   6.367   4.015  13.285 -0.4647  0.2302  0.0398
 7180TIP3    H143031   6.362   3.965  13.203 -1.0539  0.5587 -0.1299
 7180TIP3    H243032   6.281   4.004  13.325 -0.0801 -0.1804  0.7728
 7181TIP3   OH243033   1.340   3.977   0.279 -0.1357 -0.3629 -0.1709
 7181TIP3    H143034   1.374   3.978   0.368  1.7652  2.1631 -0.8032
 7181TIP3    H243035   1.417   3.983   0.223 -1.3576  2.7415 -1.7724
 7182TIP3   OH243036   6.346   6.652  13.209  0.3872  0.2894 -0.3499
 7182TIP3    H143037   6.288   6.683  13.279  1.1483  0.6204  0.1502
 7182TIP3    H243038   6.311   6.566  13.186  0.0201  0.2471  0.3210
 7183TIP3   OH243039   2.438   0.574   1.292  0.2973  0.1137 -0.4327
 7183TIP3    H143040   2.365   0.629   1.263  1.2144  1.1625 -0.7815
 7183TIP3    H243041   2.395   0.498   1.332 -0.9872  0.6071 -0.8102
 7184TIP3   OH243042   4.843   0.417   3.392 -0.1310  0.2187  0.3862
 7184TIP3    H143043   4.882   0.489   3.441 -1.4427  0.6804  0.8160
 7184TIP3    H243044   4.751   0.417   3.420 -0.0822 -1.8909  0.7081
 7185TIP3   OH243045   2.161   5.881  16.217 -0.1208 -0.3380 -0.6264
 7185TIP3    H143046   2.083   5.908  16.265 -0.2559 -0.4831 -0.7629
 7185TIP3    H243047   2.190   5.801  16.260  0.7830  0.4799  0.3314
 7186TIP3   OH243048   6.374   2.189  12.586  0.2132 -0.0203  0.0109
 7186TIP3    H143049   6.331   2.109  12.614 -1.3577  1.0742  0.8422
 7186TIP3    H243050   6.423   2.164  12.507 -2.0602 -1.3179 -1.0760
 7187TIP3   OH243051   4.098   1.990  11.709  0.3517 -0.4097 -0.3482
 7187TIP3    H143052   4.168   1.983  11.644  3.3644 -5.5236  2.7709
 7187TIP3    H243053   4.045   1.912  11.697  0.1995 -0.8341  2.3553
 7188TIP3   OH243054   4.565   0.299   2.318  0.1447  0.1039 -0.1397
 7188TIP3    H143055   4.521   0.371   2.364 -0.8155 -0.0136 -0.8440
 7188TIP3    H243056   4.510   0.223   2.335 -0.3352  0.0915 -1.5977
 7189TIP3   OH243057   5.045   3.552  11.242  1.1622 -0.0613  0.2475
 7189TIP3    H143058   5.080   3.604  11.314  2.0163 -0.6077  0.2439
 7189TIP3    H243059   5.118   3.496  11.215  0.4322 -0.8606 -0.1155
 7190TIP3   OH243060   2.401   2.032  13.975 -0.2785  0.3321  0.2510
 7190TIP3    H143061   2.364   2.115  13.946  0.5850  0.3655 -0.8401
 7190TIP3    H243062   2.339   1.966  13.943  0.5673  0.3819 -1.6092
 7191TIP3   OH243063   6.158   4.338  17.135 -0.0186  0.5755  0.0057
 7191TIP3    H143064   6.074   4.376  17.162 -0.6487 -0.5285 -0.3122
 7191TIP3    H243065   6.157   4.342  17.040  1.1559  2.2891  0.0230
 7192TIP3   OH243066   4.172   2.552  15.106 -0.0858 -0.1325 -0.5042
 7192TIP3    H143067   4.091   2.545  15.156  0.6050 -0.9310  0.5661
 7192TIP3    H243068   4.241   2.551  15.173  0.8473 -0.5420 -1.4457
 7193TIP3   OH243069   2.267   0.891  14.608 -0.1436  0.4657  0.2604
 7193TIP3    H143070   2.206   0.959  14.578  0.5273  0.6622 -0.7328
 7193TIP3    H243071   2.353   0.931  14.601  0.1374  0.1001  1.3953
 7194TIP3   OH243072   1.750   1.991   5.059  0.3051  0.4229 -0.3320
 7194TIP3    H143073   1.830   2.041   5.042  0.7158  0.0946  0.5652
 7194TIP3    H243074   1.681   2.041   5.015  0.9814  0.7816 -1.0114
 7195TIP3   OH243075   4.410   0.989   0.951  0.1765 -0.2753 -0.2899
 7195TIP3    H143076   4.501   1.018   0.959 -0.5185  2.1952 -0.5217
 7195TIP3    H243077   4.358   1.070   0.957 -2.0978 -1.7193  0.9818
 7196TIP3   OH243078   4.636   1.586   5.097 -0.1093  0.2844 -0.2123
 7196TIP3    H143079   4.699   1.586   5.169  0.4161  0.2741 -0.6582
 7196TIP3    H243080   4.690   1.598   5.018 -0.4110 -1.8719 -0.8247
 7197TIP3   OH243081   1.956   6.330   1.189 -0.3336 -0.5519 -0.5771
 7197TIP3    H143082   1.999   6.307   1.107  1.7849  0.1902  0.2486
 7197TIP3    H243083   1.960   6.250   1.242 -1.7340 -1.0422 -1.1552
 7198TIP3   OH243084   5.476   3.266  12.562 -0.3996 -0.1248 -0.5194
 7198TIP3    H143085   5.507   3.268  12.653 -1.3531  1.0149 -0.2056
 7198TIP3    H243086   5.544   3.313  12.513 -0.2514 -0.0867 -0.2837
 7199TIP3   OH243087   5.653   2.913   6.462  0.1842  0.1612 -0.5005
 7199TIP3    H143088   5.579   2.909   6.401 -0.5545 -1.6625  0.4479
 7199TIP3    H243089   5.655   2.827   6.503  3.2064 -0.0657 -0.8947
 7200TIP3   OH243090   3.602   5.318  16.080  0.1022 -0.3577 -0.2412
 7200TIP3    H143091   3.606   5.289  15.988 -0.0690 -0.0548 -0.3467
 7200TIP3    H243092   3.694   5.327  16.106  0.1921  1.8721 -1.1322
 7201TIP3   OH243093   3.716   4.238   0.526  0.0575 -0.8630 -0.6681
 7201TIP3    H143094   3.740   4.314   0.472 -0.2325 -1.6194 -1.8922
 7201TIP3    H243095   3.799   4.204   0.557  0.2339 -0.4320 -0.6558
 7202TIP3   OH243096   2.477   0.353  13.904 -1.1217  0.7986  0.2064
 7202TIP3    H143097   2.435   0.272  13.933  0.2641 -0.4401 -1.0247
 7202TIP3    H243098   2.499   0.337  13.812  1.2394  1.6293  0.5378
 7203TIP3   OH243099   3.563   1.835   2.966 -0.3373  0.1360  0.2214
 7203TIP3    H143100   3.626   1.797   2.905 -0.3670  0.9358 -0.3307
 7203TIP3    H243101   3.486   1.854   2.912 -0.0864  1.5475  0.3238
 7204TIP3   OH243102   0.324   0.541  16.525  0.1894  0.5695 -0.2048
 7204TIP3    H143103   0.259   0.474  16.546  1.5318 -0.7493 -0.1465
 7204TIP3    H243104   0.345   0.581  16.609  1.0522 -0.5196  0.1192
 7205TIP3   OH243105   3.633   0.082   3.883  0.2685  0.8099  0.3455
 7205TIP3    H143106   3.590   0.079   3.968  1.1279 -1.9830  0.7873
 7205TIP3    H243107   3.571   0.039   3.823  0.5248  0.9398 -0.0195
 7206TIP3   OH243108   2.716   3.559   4.432  0.0398 -0.2145 -0.5797
 7206TIP3    H143109   2.699   3.646   4.470 -0.7981 -0.4371 -0.4291
 7206TIP3    H243110   2.811   3.558   4.418  0.2187  0.3182  0.4264
 7207TIP3   OH243111   2.289   2.157  11.140 -0.1146  0.1841 -0.0810
 7207TIP3    H143112   2.201   2.120  11.147 -0.4206  0.9379  0.1570
 7207TIP3    H243113   2.281   2.224  11.072 -0.1402  1.4103  1.1024
 7208TIP3   OH243114   0.547   6.280   4.328  0.2126 -0.0139 -0.3099
 7208TIP3    H143115   0.521   6.246   4.242 -3.4888 -0.5150  0.8432
 7208TIP3    H243116   0.526   6.210   4.389 -1.2389  1.7904  1.4138
 7209TIP3   OH243117   4.557   6.345  13.292 -0.0362  0.0565  0.0363
 7209TIP3    H143118   4.607   6.427  13.295 -0.5481  0.3693  0.1965
 7209TIP3    H243119   4.620   6.280  13.260  1.0458  0.0166  2.0729
 7210TIP3   OH243120   2.378   1.746   2.769 -0.0881 -0.1428 -0.1447
 7210TIP3    H143121   2.459   1.789   2.745 -0.2038 -0.7067 -1.6184
 7210TIP3    H243122   2.342   1.713   2.687 -1.0549 -1.2141  0.6712
 7211TIP3   OH243123   4.902   0.615   2.838 -0.4648  0.0855 -0.2532
 7211TIP3    H143124   4.899   0.706   2.807 -0.3645  0.4143  0.6657
 7211TIP3    H243125   4.922   0.564   2.760 -1.5521  0.7467 -0.9956
 7212TIP3   OH243126   1.566   4.143   2.924 -0.2524 -0.3383 -0.7919
 7212TIP3    H143127   1.657   4.128   2.897 -0.3036 -1.8898 -0.1705
 7212TIP3    H243128   1.544   4.067   2.978 -1.1509  1.1921  1.0993
 7213TIP3   OH243129   3.022   3.219  11.673  0.7595  0.0040  0.0764
 7213TIP3    H143130   2.995   3.257  11.589  2.3425 -0.7781 -0.8508
 7213TIP3    H243131   3.057   3.133  11.650  2.1390  0.1631  1.3974
 7214TIP3   OH243132   0.694   3.538  15.976 -0.6255 -0.0335 -0.0727
 7214TIP3    H143133   0.654   3.622  15.997  4.4251  2.0663  2.7711
 7214TIP3    H243134   0.703   3.540  15.880 -1.6756  2.0845 -0.1935
 7215TIP3   OH243135   6.137   2.470  11.075 -0.2815 -0.3556  0.0117
 7215TIP3    H143136   6.104   2.545  11.025  0.3149 -1.0569 -1.4571
 7215TIP3    H243137   6.061   2.411  11.082 -0.2921 -0.3782 -0.2960
 7216TIP3   OH243138   1.369   4.566   3.506 -0.6157  0.2774  0.0194
 7216TIP3    H143139   1.434   4.629   3.537 -0.7609  0.2224  0.4439
 7216TIP3    H243140   1.421   4.495   3.469 -0.4397  0.4279 -0.0257
 7217TIP3   OH243141   6.592   4.070  12.992  0.2656  0.3566 -0.0698
 7217TIP3    H143142   6.613   4.020  12.913  2.5482  0.3467  0.4630
 7217TIP3    H243143   6.661   4.046  13.054 -1.0311  0.9468  1.6828
 7218TIP3   OH243144   3.333   0.219  14.417 -0.1332 -0.0102  0.9688
 7218TIP3    H143145   3.335   0.288  14.351 -0.7846 -1.7905 -1.0479
 7218TIP3    H243146   3.250   0.231  14.462 -0.6035  0.0662  0.0987
 7219TIP3   OH243147   6.570   5.170  11.759 -0.4722  0.1665  0.6251
 7219TIP3    H143148   6.523   5.191  11.679 -1.1875 -1.3337  0.6294
 7219TIP3    H243149   6.662   5.190  11.739 -0.5209 -0.9556 -0.8719
 7220TIP3   OH243150   5.437   6.213   5.756 -0.3856 -0.6506 -0.0949
 7220TIP3    H143151   5.380   6.230   5.832  1.1812  1.6764  0.6767
 7220TIP3    H243152   5.520   6.188   5.795  1.1033  2.6145 -0.8082
 7221TIP3   OH243153   5.214   1.648   3.605  1.0465 -0.0552  0.0276
 7221TIP3    H143154   5.308   1.657   3.620  0.8903  0.5683  0.6832
 7221TIP3    H243155   5.186   1.734   3.575  0.7158 -0.2898 -0.3491
 7222TIP3   OH243156   0.156   6.351   1.709 -0.3901  0.1975 -0.0365
 7222TIP3    H143157   0.180   6.282   1.646  0.4968 -0.6963  1.2223
 7222TIP3    H243158   0.066   6.373   1.687  0.2763  0.8538 -2.4359
 7223TIP3   OH243159   6.765   5.526  13.254 -0.1461  0.1715  0.4767
 7223TIP3    H143160   6.815   5.583  13.312 -1.4153  0.1567  1.6285
 7223TIP3    H243161   6.801   5.439  13.269 -0.7397  0.0983  1.5989
 7224TIP3   OH243162   1.290   4.943   2.911 -0.4187 -0.2572  0.6276
 7224TIP3    H143163   1.243   4.862   2.933  0.2719 -1.2122 -1.1488
 7224TIP3    H243164   1.336   4.966   2.991 -0.0038 -2.1097  0.9764
 7225TIP3   OH243165   4.785   1.056   4.459 -0.5361 -0.1435  0.0853
 7225TIP3    H143166   4.874   1.050   4.493 -0.1204 -1.9493 -1.1917
 7225TIP3    H243167   4.785   1.137   4.407  0.4056 -0.2065 -0.0290
 7226TIP3   OH243168   6.294   6.521   4.760 -0.1465  0.1647 -0.5214
 7226TIP3    H143169   6.300   6.591   4.825  0.5629 -2.0654  1.9699
 7226TIP3    H243170   6.249   6.450   4.804 -1.7456 -0.6941 -3.2919
 7227TIP3   OH243171   5.255   6.184  16.011 -0.6517 -0.2686 -0.0299
 7227TIP3    H143172   5.257   6.276  16.037 -1.6198 -0.5684  1.2616
 7227TIP3    H243173   5.162   6.165  16.001 -0.4788 -1.1872  0.0648
 7228TIP3   OH243174   6.434   3.464  17.140 -0.3187  0.6192  0.0634
 7228TIP3    H143175   6.359   3.522  17.128 -0.5365  0.6506  1.3537
 7228TIP3    H243176   6.396   3.385  17.180  0.2877  0.5026  0.4182
 7229TIP3   OH243177   3.329   2.071  12.614 -0.2007  0.1430  0.4421
 7229TIP3    H143178   3.327   2.029  12.528 -0.3826 -1.6557  1.2863
 7229TIP3    H243179   3.418   2.105  12.622 -0.3510  0.8807 -0.6740
 7230TIP3   OH243180   5.689   1.529   2.796  0.5317 -0.0720 -0.2504
 7230TIP3    H143181   5.630   1.573   2.857 -0.1518  0.1811 -1.0751
 7230TIP3    H243182   5.769   1.582   2.798  0.3911  0.1328  0.1531
 7231TIP3   OH243183   4.885   6.332   0.751  0.3306  0.5585  0.8353
 7231TIP3    H143184   4.817   6.272   0.782  0.4403  0.9118  1.7795
 7231TIP3    H243185   4.855   6.358   0.664  0.1978 -0.7246  0.4679
 7232TIP3   OH243186   0.121   5.636   5.256 -0.4110  0.1018  0.2111
 7232TIP3    H143187   0.073   5.554   5.239  0.0888 -0.1025 -0.2359
 7232TIP3    H243188   0.213   5.612   5.249 -0.2310  0.4896  1.0936
 7233TIP3   OH243189   0.259   4.774   5.500  0.4179  0.1888 -0.3172
 7233TIP3    H143190   0.202   4.786   5.576 -0.8193  1.3810 -1.3775
 7233TIP3    H243191   0.282   4.681   5.502 -1.2918 -0.2545  0.3658
 7234TIP3   OH243192   1.293   0.071   1.081  0.0036 -0.3741  0.1653
 7234TIP3    H143193   1.337   0.004   1.029 -0.4774 -0.0853 -0.6365
 7234TIP3    H243194   1.355   0.144   1.084  0.4400 -0.7581  0.8596
 7235TIP3   OH243195   4.163   5.992  12.237 -0.1860 -0.1871  0.0621
 7235TIP3    H143196   4.160   6.086  12.223 -0.5296 -0.2971 -0.6621
 7235TIP3    H243197   4.091   5.974  12.297 -1.1267 -0.1665 -1.0096
 7236TIP3   OH243198   4.296   5.141   0.029  0.2522 -0.0714  0.1915
 7236TIP3    H143199   4.386   5.167   0.006  0.1738  0.5255  0.5506
 7236TIP3    H243200   4.253   5.223   0.052 -0.8238 -0.1368 -1.4040
 7237TIP3   OH243201   2.233   0.066  15.444  0.1246  0.0918 -0.3646
 7237TIP3    H143202   2.281   0.108  15.515 -0.8904  0.2520  0.2523
 7237TIP3    H243203   2.249   0.120  15.367 -0.4058  1.0834  0.2086
 7238TIP3   OH243204   6.143   3.796   1.609 -0.0398 -0.6130 -0.0912
 7238TIP3    H143205   6.155   3.827   1.699  1.7264 -1.9634  0.1783
 7238TIP3    H243206   6.093   3.866   1.567  2.0549  1.6935  1.0082
 7239TIP3   OH243207   2.129   6.017   2.341  0.0445 -0.0961  0.2965
 7239TIP3    H143208   2.137   5.950   2.273  0.3947 -0.3032  0.5388
 7239TIP3    H243209   2.039   6.047   2.333 -0.3321 -1.0821  0.6359
 7240TIP3   OH243210   0.965   2.839   2.408 -0.1025 -0.3541 -0.0167
 7240TIP3    H143211   1.036   2.799   2.357 -1.3186 -0.0624 -2.0824
 7240TIP3    H243212   0.984   2.933   2.407  0.4696 -0.4516  1.0791
 7241TIP3   OH243213   0.179   6.528   4.129  0.7139  0.1439 -0.2589
 7241TIP3    H143214   0.170   6.438   4.098  1.0920 -0.5480  1.4864
 7241TIP3    H243215   0.095   6.547   4.171  0.3591  0.9027 -1.2773
 7242TIP3   OH243216   2.104   2.205   5.808  0.3640 -0.0594  0.1052
 7242TIP3    H143217   2.064   2.257   5.877 -3.1410 -0.5571 -1.3605
 7242TIP3    H243218   2.177   2.258   5.776  0.0287  1.6214  1.9659
 7243TIP3   OH243219   1.936   3.233  15.257  0.3371  0.3732 -0.3222
 7243TIP3    H143220   1.992   3.297  15.216  0.4810  0.5445  0.1348
 7243TIP3    H243221   1.891   3.281  15.327  1.8885 -0.4227  1.3208
 7244TIP3   OH243222   0.192   2.739   6.134  0.5949  0.3363  0.2510
 7244TIP3    H143223   0.190   2.695   6.219 -2.2204  1.1002  0.7066
 7244TIP3    H243224   0.142   2.681   6.076  1.5660  0.3449 -0.6124
 7245TIP3   OH243225   2.895   6.173  13.319  0.7276 -0.3263 -0.7950
 7245TIP3    H143226   2.908   6.115  13.394  2.0017 -0.1453 -0.8505
 7245TIP3    H243227   2.915   6.118  13.243  1.0382 -0.0729 -0.9002
 7246TIP3   OH243228   5.392   6.076  13.519 -0.0810  0.2311 -0.2852
 7246TIP3    H143229   5.464   6.128  13.554 -0.8395  1.7380 -0.8725
 7246TIP3    H243230   5.433   6.017  13.456  1.2373 -2.1153  2.5369
 7247TIP3   OH243231   2.514   1.875   2.046  0.8781  0.1882  0.3398
 7247TIP3    H143232   2.486   1.784   2.039  2.4035 -0.2575 -0.2899
 7247TIP3    H243233   2.432   1.925   2.047  0.0138 -1.1841  0.9390
 7248TIP3   OH243234   4.613   1.418   3.325 -0.4278  0.5768 -0.2313
 7248TIP3    H143235   4.523   1.417   3.357 -0.1121  2.1135  0.7929
 7248TIP3    H243236   4.667   1.437   3.402  0.7747 -0.2137 -0.8393
 7249TIP3   OH243237   2.224   1.670  16.414  0.8698 -0.2743 -0.4940
 7249TIP3    H143238   2.144   1.685  16.464  0.5674 -1.1618 -0.6796
 7249TIP3    H243239   2.234   1.574  16.415  1.1600 -0.2647 -1.6566
 7250TIP3   OH243240   6.284   5.933   5.452 -0.2339  0.1175  0.6494
 7250TIP3    H143241   6.360   5.990   5.439 -0.3871 -0.0147 -1.0460
 7250TIP3    H243242   6.322   5.846   5.465 -0.0495 -0.3067 -2.1312
 7251TIP3   OH243243   5.031   0.973  15.193 -0.1840 -0.4251  0.5929
 7251TIP3    H143244   5.011   0.908  15.127 -1.3891 -1.7556  2.1939
 7251TIP3    H243245   5.085   0.927  15.258  0.5117  0.6817  0.8404
 7252TIP3   OH243246   4.606   1.431   2.766  0.1435 -0.0724 -0.3496
 7252TIP3    H143247   4.605   1.391   2.852  1.2102  0.3248 -0.1341
 7252TIP3    H243248   4.695   1.467   2.757  0.3750 -0.9210 -1.9775
 7253TIP3   OH243249   4.576   4.410   1.412  0.7397  0.3521 -0.2142
 7253TIP3    H143250   4.616   4.332   1.374 -0.6159 -0.4165 -0.1132
 7253TIP3    H243251   4.537   4.455   1.337  0.8132  0.5061 -0.1599
 7254TIP3   OH243252   2.079   2.877   6.012  0.5045  0.5118  0.1371
 7254TIP3    H143253   1.986   2.899   6.012  0.1487 -0.8806 -0.5720
 7254TIP3    H243254   2.118   2.939   6.073 -0.9466  0.8685  0.7477
 7255TIP3   OH243255   0.382   2.130  12.772 -0.0884 -0.0571 -0.2474
 7255TIP3    H143256   0.341   2.168  12.695  0.5770 -0.1412 -0.6474
 7255TIP3    H243257   0.338   2.172  12.846 -0.5660  0.1939 -0.6698
 7256TIP3   OH243258   6.704   0.750  16.577 -0.4016  0.0514 -0.3450
 7256TIP3    H143259   6.750   0.831  16.601 -0.8956  0.3255 -0.2908
 7256TIP3    H243260   6.767   0.680  16.594  0.9157  0.5783 -2.7314
 7257TIP3   OH243261   1.638   0.981  15.609 -0.1982 -0.1274 -0.4640
 7257TIP3    H143262   1.653   1.033  15.689  0.8454 -2.8957  1.2877
 7257TIP3    H243263   1.560   0.930  15.628  0.5647 -1.4705 -0.8200
 7258TIP3   OH243264   2.786   2.058   5.535 -0.0927 -0.3384  0.0032
 7258TIP3    H143265   2.736   2.039   5.456  0.1792  1.5595 -0.7000
 7258TIP3    H243266   2.871   2.088   5.502  0.4758 -0.7350  1.0670
 7259TIP3   OH243267   5.756   3.854   1.618 -0.2553  0.1358 -0.6150
 7259TIP3    H143268   5.754   3.758   1.619  0.7878  0.0914 -1.0594
 7259TIP3    H243269   5.746   3.877   1.525  0.8274  0.3884 -0.6907
 7260TIP3   OH243270   2.431   1.400  16.751  0.0847  0.1618  0.3928
 7260TIP3    H143271   2.348   1.442  16.775 -1.8963 -2.6683 -0.9579
 7260TIP3    H243272   2.472   1.377  16.835 -0.8043  1.0241  1.0795
 7261TIP3   OH243273   1.285   2.562  14.281  0.1529  0.1981  0.2969
 7261TIP3    H143274   1.252   2.472  14.276  3.2054 -0.9623 -0.7949
 7261TIP3    H243275   1.219   2.608  14.333 -1.9567 -2.4218  0.1716
 7262TIP3   OH243276   2.460   6.589   3.791 -0.5579  0.5987 -0.1695
 7262TIP3    H143277   2.436   6.506   3.750 -0.7843  0.9628 -0.7836
 7262TIP3    H243278   2.473   6.567   3.884  2.1659 -0.7181 -0.7505
 7263TIP3   OH243279   3.267   4.790   5.613 -0.2485 -0.4500  0.1365
 7263TIP3    H143280   3.236   4.847   5.684  1.2890 -1.2238  1.4875
 7263TIP3    H243281   3.348   4.831   5.583  0.4248 -1.4509  0.5415
 7264TIP3   OH243282   1.588   5.612   4.951  0.2207 -0.0440 -0.3613
 7264TIP3    H143283   1.600   5.610   4.856 -1.2216  1.5152 -0.6292
 7264TIP3    H243284   1.546   5.697   4.968  0.1954 -0.4092  1.6368
 7265TIP3   OH243285   0.233   0.182   4.125  0.6420  0.4701 -0.0817
 7265TIP3    H143286   0.301   0.176   4.192  1.2844 -0.2798 -0.7860
 7265TIP3    H243287   0.257   0.259   4.073  0.1407  1.0553  0.5211
 7266TIP3   OH243288   4.367   6.277   2.344 -0.2064  0.3021  0.3618
 7266TIP3    H143289   4.441   6.219   2.329  0.3542  1.2312 -0.6644
 7266TIP3    H243290   4.292   6.218   2.352  0.4268 -0.5930 -0.0604
 7267TIP3   OH243291   3.714   0.714   5.470 -0.0304 -0.1974 -0.1192
 7267TIP3    H143292   3.732   0.807   5.460 -1.6485  0.1605  0.0048
 7267TIP3    H243293   3.715   0.699   5.565 -1.4104  0.0644 -0.0531
 7268TIP3   OH243294   0.241   5.288   6.352  0.0365 -0.3876 -0.7092
 7268TIP3    H143295   0.164   5.344   6.347 -0.8623 -1.6580 -3.9542
 7268TIP3    H243296   0.233   5.244   6.437 -1.0180  1.8127  0.4238
 7269TIP3   OH243297   4.414   5.369  12.055  0.4189  0.3113 -0.1974
 7269TIP3    H143298   4.426   5.442  11.994 -0.2626  0.6599  0.0703
 7269TIP3    H243299   4.320   5.370  12.075  0.6990  0.4559  1.1679
 7270TIP3   OH243300   1.266   0.079   1.416 -0.0434 -0.3145  0.1592
 7270TIP3    H143301   1.188   0.024   1.425  0.2543 -0.6383  0.8081
 7270TIP3    H243302   1.311   0.044   1.338 -0.8196  0.2327 -0.5577
 7271TIP3   OH243303   2.540   5.978  16.759  0.0138 -0.5908  0.5270
 7271TIP3    H143304   2.458   5.974  16.807  0.2923 -0.4227  1.0284
 7271TIP3    H243305   2.597   5.915  16.803 -0.1542 -1.4605 -0.4423
 7272TIP3   OH243306   2.810   4.189  11.357  0.0080 -0.0073 -0.2413
 7272TIP3    H143307   2.820   4.117  11.418  0.9673 -0.1597 -0.5700
 7272TIP3    H243308   2.819   4.268  11.411 -0.1589 -0.1280 -0.0336
 7273TIP3   OH243309   6.512   0.280   2.433 -0.0304 -0.0826  0.1936
 7273TIP3    H143310   6.584   0.218   2.444 -1.2813 -1.5970  0.1810
 7273TIP3    H243311   6.554   0.362   2.408  1.7269 -0.7393  0.8818
 7274TIP3   OH243312   5.281   1.225   0.296 -0.1012 -0.2916  0.5184
 7274TIP3    H143313   5.310   1.316   0.306  2.2799 -0.6327 -2.0988
 7274TIP3    H243314   5.205   1.230   0.238 -1.3360  0.1110  2.0948
 7275TIP3   OH243315   3.490   1.596  11.206 -0.6968  0.0281 -0.5970
 7275TIP3    H143316   3.498   1.508  11.243  1.4108 -0.3846 -1.9047
 7275TIP3    H243317   3.426   1.585  11.135  0.1417 -0.6696 -1.2744
 7276TIP3   OH243318   1.644   0.860  11.439 -0.5480  0.5320  0.1630
 7276TIP3    H143319   1.554   0.837  11.464 -1.1390  1.6731 -0.8089
 7276TIP3    H243320   1.645   0.956  11.439 -0.0253  0.5811 -2.1239
 7277TIP3   OH243321   0.979   4.291  13.805  0.8325  0.0059 -0.6176
 7277TIP3    H143322   0.927   4.240  13.743 -0.1031  0.4524 -0.2198
 7277TIP3    H243323   1.041   4.228  13.842 -0.5236 -0.9343  0.1141
 7278TIP3   OH243324   3.251   1.639  15.817 -0.0746  0.4764 -0.1851
 7278TIP3    H143325   3.278   1.651  15.726 -0.4650  2.0715 -0.1186
 7278TIP3    H243326   3.229   1.546  15.823 -0.0067  0.3305 -1.7028
 7279TIP3   OH243327   4.620   0.516  12.460 -0.0628  0.6984 -0.1851
 7279TIP3    H143328   4.551   0.570  12.499 -0.0573  0.8890 -0.4402
 7279TIP3    H243329   4.574   0.438  12.428 -0.3182  1.2497 -1.2107
 7280TIP3   OH243330   6.722   5.279  17.052  0.1597 -0.3201  0.2525
 7280TIP3    H143331   6.733   5.194  17.011 -4.2193 -0.4560 -1.2332
 7280TIP3    H243332   6.714   5.340  16.979 -0.9079  0.6143  1.0966
 7281TIP3   OH243333   0.440   1.248  10.830 -0.6546 -0.4466 -0.3755
 7281TIP3    H143334   0.497   1.171  10.823 -2.0353 -1.3170 -3.2059
 7281TIP3    H243335   0.415   1.250  10.923  3.4996 -0.2535  0.9564
 7282TIP3   OH243336   2.578   5.890   3.640 -0.2259 -0.0287  0.7654
 7282TIP3    H143337   2.658   5.890   3.692 -0.3249 -0.7413  0.9248
 7282TIP3    H243338   2.594   5.955   3.572  0.5309 -0.2428  0.7315
 7283TIP3   OH243339   6.669   0.584   4.443 -0.1050  0.4740  0.1163
 7283TIP3    H143340   6.753   0.578   4.488 -0.8324  1.8891  1.8084
 7283TIP3    H243341   6.607   0.542   4.502 -0.9793  1.7436  0.1422
 7284TIP3   OH243342   3.070   1.163   6.349 -0.1604  0.1101 -0.3437
 7284TIP3    H143343   3.139   1.100   6.370 -0.9140 -0.4174  0.6498
 7284TIP3    H243344   3.050   1.148   6.256  0.2711 -0.5174 -0.3377
 7285TIP3   OH243345   3.820   2.345   2.666  0.4215 -0.4665 -0.2266
 7285TIP3    H143346   3.731   2.313   2.680 -0.2886  1.4685 -0.0586
 7285TIP3    H243347   3.867   2.319   2.745 -0.7682  0.9669  1.0124
 7286TIP3   OH243348   0.147   3.366  14.781 -0.1437 -0.2590 -0.3771
 7286TIP3    H143349   0.132   3.446  14.732  1.2027  1.0558  1.2537
 7286TIP3    H243350   0.111   3.384  14.869  0.6278 -1.2308  0.1595
 7287TIP3   OH243351   4.583   0.826   1.243  0.5993 -0.1795  0.2175
 7287TIP3    H143352   4.627   0.825   1.158 -0.2575  0.9619 -0.2568
 7287TIP3    H243353   4.509   0.885   1.232  0.1263 -0.4652  1.5973
 7288TIP3   OH243354   1.728   3.516  14.529 -0.0127 -0.1277 -0.0422
 7288TIP3    H143355   1.633   3.509  14.536 -0.0805  0.6886 -0.0491
 7288TIP3    H243356   1.750   3.462  14.453 -0.2950 -1.4934  0.8063
 7289TIP3   OH243357   2.363   1.104   2.650 -0.1810 -0.0838  0.1509
 7289TIP3    H143358   2.366   1.012   2.675 -1.1687 -0.2536 -0.3078
 7289TIP3    H243359   2.319   1.104   2.565  1.9009  0.5987 -0.9975
 7290TIP3   OH243360   4.794   3.005  15.119  0.2090  0.2435  0.6747
 7290TIP3    H143361   4.756   2.918  15.107 -1.5042  1.0121  0.2963
 7290TIP3    H243362   4.849   3.019  15.042  0.6693 -0.5586  0.8415
 7291TIP3   OH243363   3.257   3.326   3.049  0.1052 -0.0665  0.1024
 7291TIP3    H143364   3.345   3.338   3.014  0.4472 -1.6828  0.3416
 7291TIP3    H243365   3.268   3.265   3.122 -1.6299 -3.6371 -2.3532
 7292TIP3   OH243366   4.937   4.309   1.432  0.0287 -0.1267  0.0022
 7292TIP3    H143367   4.928   4.291   1.339  0.6373 -1.2710  0.1411
 7292TIP3    H243368   4.970   4.398   1.437 -2.5270  0.9617 -0.7705
 7293TIP3   OH243369   6.030   0.082  16.109  0.3021  0.1518 -0.1057
 7293TIP3    H143370   6.095   0.056  16.174  1.9189  0.2870 -1.5928
 7293TIP3    H243371   5.950   0.096  16.160  1.8437  1.7338  2.0619
 7294TIP3   OH243372   4.870   1.339  12.735 -0.6542 -0.9933 -0.1215
 7294TIP3    H143373   4.869   1.246  12.753  0.3343 -0.9165  0.4080
 7294TIP3    H243374   4.819   1.379  12.806 -0.8369 -1.1011 -0.1906
 7295TIP3   OH243375   1.234   6.080  14.890  0.5451  0.2007  0.2499
 7295TIP3    H143376   1.197   6.002  14.932 -0.5972  2.0495  2.9153
 7295TIP3    H243377   1.319   6.093  14.932  0.0359  1.2629  0.9738
 7296TIP3   OH243378   2.025   2.813   3.989  0.7407 -0.4785 -0.1811
 7296TIP3    H143379   1.959   2.874   4.024  1.0290 -0.2711  0.0120
 7296TIP3    H243380   2.004   2.807   3.896  1.9222  1.5124 -0.6394
 7297TIP3   OH243381   5.224   5.812   6.336 -0.2502 -0.4385  0.5714
 7297TIP3    H143382   5.250   5.756   6.410  0.9494  0.3795  0.8015
 7297TIP3    H243383   5.135   5.841   6.358  0.1154 -0.1509  1.7409
 7298TIP3   OH243384   0.074   5.490  15.345  0.6876 -0.5640 -0.3632
 7298TIP3    H143385   0.012   5.444  15.289  0.0436 -0.1418 -0.0074
 7298TIP3    H243386   0.020   5.536  15.410  1.2931  0.7175 -0.7126
 7299TIP3   OH243387   2.370   1.217  16.193  0.2875  0.2760 -0.2426
 7299TIP3    H143388   2.330   1.246  16.111  1.3140  0.4668 -0.6954
 7299TIP3    H243389   2.392   1.125  16.178  0.9508  0.4505 -0.3860
 7300TIP3   OH243390   2.287   0.454   5.848 -0.2527 -0.1860 -0.1636
 7300TIP3    H143391   2.217   0.513   5.874  0.9524  1.3327 -0.1855
 7300TIP3    H243392   2.323   0.421   5.930  2.4160  3.2510  0.3015
 7301TIP3   OH243393   4.802   3.379  10.662 -0.0674 -0.3728 -0.7367
 7301TIP3    H143394   4.840   3.311  10.607 -1.0056  0.9136 -3.1031
 7301TIP3    H243395   4.861   3.453  10.653  0.3837 -0.4713  0.9806
 7302TIP3   OH243396   6.538   1.505   5.062 -0.5376  0.3949  0.4356
 7302TIP3    H143397   6.619   1.484   5.015 -1.0103  0.0129 -0.2166
 7302TIP3    H243398   6.499   1.578   5.014 -0.6751  0.4574  0.6390
 7303TIP3   OH243399   1.179   5.005   5.763 -0.1016  0.4743 -0.1276
 7303TIP3    H143400   1.274   5.011   5.751 -0.0598 -1.2296 -0.8794
 7303TIP3    H243401   1.145   4.984   5.677 -0.7159 -3.1120  0.8545
 7304TIP3   OH243402   3.961   4.527   2.331 -0.5362  0.1596  0.0565
 7304TIP3    H143403   4.026   4.506   2.398 -0.3929  1.3311  0.3071
 7304TIP3    H243404   3.877   4.508   2.374 -0.3955 -0.5702  0.0182
 7305TIP3   OH243405   0.708   5.987  16.919  0.4201  0.7451  0.0087
 7305TIP3    H143406   0.713   5.900  16.956  0.8932  1.2100  1.0668
 7305TIP3    H243407   0.714   5.973  16.824  1.5803 -0.2941  0.2052
 7306TIP3   OH243408   5.247   0.666   5.263  0.5824  0.5515  0.0640
 7306TIP3    H143409   5.204   0.582   5.277  0.5035  0.5215 -0.3582
 7306TIP3    H243410   5.291   0.658   5.179  0.2459  1.0673 -0.1701
 7307TIP3   OH243411   0.726   6.643  15.984  0.3103 -0.3991 -0.5214
 7307TIP3    H143412   0.770   6.581  15.925 -0.8309 -1.6529 -0.1007
 7307TIP3    H243413   0.700   6.590  16.059  3.5737  1.5178  2.2427
 7308TIP3   OH243414   3.783   6.658   6.254 -0.1783 -0.2302  0.2890
 7308TIP3    H143415   3.865   6.611   6.261 -0.4008 -0.4494  1.6446
 7308TIP3    H243416   3.727   6.620   6.321 -0.8511  0.9888  0.4535
 7309TIP3   OH243417   6.478   3.136   3.075  0.4298 -0.3378 -0.1224
 7309TIP3    H143418   6.493   3.042   3.061  3.1925 -0.1111  0.7912
 7309TIP3    H243419   6.554   3.178   3.034 -0.5230  1.4880 -0.0773
 7310TIP3   OH243420   5.633   4.630  16.646  0.0252  0.4444  0.0812
 7310TIP3    H143421   5.578   4.692  16.599 -0.4742  1.0628  1.4371
 7310TIP3    H243422   5.604   4.544  16.615 -0.3592  0.8395 -0.6610
 7311TIP3   OH243423   2.803   1.571   0.249 -0.1371 -0.0833  0.5758
 7311TIP3    H143424   2.779   1.659   0.279  0.3772 -0.7325  3.0454
 7311TIP3    H243425   2.820   1.583   0.155 -0.8992  2.2609  0.6497
 7312TIP3   OH243426   1.108   4.143  11.593  0.0952 -0.4679 -0.6710
 7312TIP3    H143427   1.187   4.154  11.646  1.2823  0.3774 -2.5216
 7312TIP3    H243428   1.053   4.217  11.617  0.7301  0.0471 -0.7706
 7313TIP3   OH243429   2.367   2.375  13.030 -0.1384 -0.1218 -0.4220
 7313TIP3    H143430   2.421   2.296  13.033  0.2622  0.1590  1.7215
 7313TIP3    H243431   2.283   2.347  13.067 -0.1549  0.3176 -0.1152
 7314TIP3   OH243432   4.390   0.872  12.768 -0.2666 -0.3762 -0.1119
 7314TIP3    H143433   4.316   0.863  12.828  1.0364 -1.0067  1.4709
 7314TIP3    H243434   4.377   0.958  12.726 -1.2946  0.0117  0.9638
 7315TIP3   OH243435   1.091   2.950   3.879 -0.4143  0.6537 -0.0927
 7315TIP3    H143436   1.180   2.923   3.897 -0.4020  0.3336 -0.6336
 7315TIP3    H243437   1.094   2.989   3.792 -1.1573 -1.1178 -0.9555
 7316TIP3   OH243438   2.467   6.180  15.373 -0.7608 -0.0780  0.2148
 7316TIP3    H143439   2.408   6.125  15.425  0.8982  0.7097  3.1788
 7316TIP3    H243440   2.541   6.123  15.353 -1.0830 -0.1757 -0.7506
 7317TIP3   OH243441   0.005   4.528   3.809 -0.1322  0.2787 -0.5248
 7317TIP3    H143442   0.067   4.590   3.770 -0.5230  1.7760  1.1362
 7317TIP3    H243443  -0.029   4.572   3.887 -0.5028 -2.0053  0.7030
 7318TIP3   OH243444   0.919   5.835   1.135 -0.2461  0.0913 -0.2495
 7318TIP3    H143445   1.001   5.860   1.092 -0.1140 -0.9153 -0.6107
 7318TIP3    H243446   0.935   5.746   1.165 -1.3929 -0.3045 -0.7717
 7319TIP3   OH243447   2.284   6.552   2.031 -0.2167 -0.5389  0.7479
 7319TIP3    H143448   2.313   6.462   2.047 -1.4933 -0.8324  1.5300
 7319TIP3    H243449   2.210   6.564   2.090 -2.6003 -0.3003 -2.0764
 7320TIP3   OH243450   3.120   2.366  12.349  0.1104 -0.0142 -0.0432
 7320TIP3    H143451   3.184   2.295  12.354 -0.0545 -0.2870 -1.3680
 7320TIP3    H243452   3.171   2.446  12.361  0.6294 -0.2567 -0.5998
 7321TIP3   OH243453   0.084   0.639   0.225 -0.1501  0.6749  0.7205
 7321TIP3    H143454   0.162   0.681   0.189  0.8044  0.9388  2.9333
 7321TIP3    H243455   0.011   0.674   0.173  1.1439  0.6216 -1.2128
 7322TIP3   OH243456   6.022   6.053   0.728  0.6536 -0.3742 -0.0726
 7322TIP3    H143457   6.008   6.101   0.647 -2.6070  2.6584  1.9777
 7322TIP3    H243458   6.110   6.077   0.755  0.2594  2.0624 -0.7063
 7323TIP3   OH243459   1.301   0.526   6.507 -0.2290  0.3242 -0.0299
 7323TIP3    H143460   1.337   0.472   6.437 -0.3642  1.4114 -0.9707
 7323TIP3    H243461   1.253   0.596   6.462 -1.2533  0.4382  1.1579
 7324TIP3   OH243462   2.365   1.308   3.309 -0.0659  0.2340  0.0255
 7324TIP3    H143463   2.368   1.308   3.213 -2.6840  2.7965 -0.2025
 7324TIP3    H243464   2.296   1.245   3.331  0.8248 -0.6661  0.2663
 7325TIP3   OH243465   4.971   1.948  13.613  0.0327  0.1421  0.7342
 7325TIP3    H143466   5.021   1.978  13.538  0.9662  2.8185  2.3078
 7325TIP3    H243467   4.879   1.959  13.587  0.3023  3.6827  0.7919
 7326TIP3   OH243468   5.566   6.100   0.629 -0.2551 -0.2532 -0.1410
 7326TIP3    H143469   5.625   6.024   0.639 -2.7696 -2.1520  1.8761
 7326TIP3    H243470   5.590   6.158   0.702 -0.5802 -0.8417  0.4513
 7327TIP3   OH243471   5.921   3.269   1.836 -0.6296  0.0386  0.5707
 7327TIP3    H143472   5.877   3.333   1.893 -1.4158  0.6765 -0.7098
 7327TIP3    H243473   6.008   3.306   1.822 -1.3803  1.3789 -0.9161
 7328TIP3   OH243474   1.706   1.674   0.563 -0.1334  0.4074 -0.0772
 7328TIP3    H143475   1.621   1.681   0.606  0.4598  0.1255  1.1733
 7328TIP3    H243476   1.695   1.723   0.481 -1.8873 -0.7415 -0.5936
 7329TIP3   OH243477   1.314   4.181  13.114  0.1155  0.2698 -0.0440
 7329TIP3    H143478   1.325   4.269  13.078  2.6641  0.4042  0.8681
 7329TIP3    H243479   1.254   4.192  13.188 -1.5431  0.7445 -1.3863
 7330TIP3   OH243480   0.579   2.586  10.660 -0.3121 -0.3425 -0.0249
 7330TIP3    H143481   0.589   2.543  10.574  1.0508 -0.6682  0.2697
 7330TIP3    H243482   0.649   2.651  10.662 -1.3775  0.8360  0.1880
 7331TIP3   OH243483   4.463   0.895   0.089  0.2539  0.3940  0.0756
 7331TIP3    H143484   4.505   0.977   0.062  0.3814  0.1219 -0.5769
 7331TIP3    H243485   4.378   0.896   0.044  0.7499 -0.3866 -0.8973
 7332TIP3   OH243486   5.737   6.432   0.478  0.5570 -0.5033 -0.3627
 7332TIP3    H143487   5.722   6.515   0.523  2.6658 -1.1094  1.7085
 7332TIP3    H243488   5.653   6.410   0.439 -0.4703  1.8321  0.3422
 7333TIP3   OH243489   2.094   6.687   3.286  0.1080  0.0521  0.4835
 7333TIP3    H143490   2.172   6.737   3.264 -0.5437  0.6470 -0.5117
 7333TIP3    H243491   2.100   6.608   3.233  0.0184  0.1069  0.3927
 7334TIP3   OH243492   4.606   5.160  10.875  0.1710  0.6499 -0.2264
 7334TIP3    H143493   4.658   5.080  10.884  1.1458  1.0003 -2.2049
 7334TIP3    H243494   4.538   5.137  10.811  1.6439  1.8852 -2.3347
 7335TIP3   OH243495   3.336   4.226   3.264 -0.3261  0.1468 -0.1617
 7335TIP3    H143496   3.338   4.269   3.349  0.1316  1.6421 -0.8871
 7335TIP3    H243497   3.274   4.154   3.274  0.8201 -0.6450  1.8422
 7336TIP3   OH243498   6.432   5.816  11.946 -0.0574 -0.7091  0.2231
 7336TIP3    H143499   6.391   5.799  12.031 -0.3688 -2.0530 -0.1761
 7336TIP3    H243500   6.470   5.904  11.955 -0.6161 -0.5794  1.5357
 7337TIP3   OH243501   5.796   1.778  12.966  0.1844 -0.1850 -0.6910
 7337TIP3    H143502   5.795   1.757  13.060 -1.1670 -1.8369 -1.0089
 7337TIP3    H243503   5.798   1.873  12.963  2.7245 -0.0988  0.9639
 7338TIP3   OH243504   6.828   5.873  12.731  0.3942  0.0725 -0.4482
 7338TIP3    H143505   6.914   5.915  12.733  0.8890 -0.7962 -2.2124
 7338TIP3    H243506   6.842   5.787  12.771 -0.1808  0.7270  1.2790
 7339TIP3   OH243507   5.122   5.105   3.907 -0.2930  0.2802  0.1506
 7339TIP3    H143508   5.053   5.167   3.883  0.2353  0.2563 -1.6017
 7339TIP3    H243509   5.135   5.118   4.001 -0.7542  2.2403 -0.0145
 7340TIP3   OH243510   0.029   5.130   4.570  0.1189 -0.2796  0.0502
 7340TIP3    H143511   0.004   5.162   4.484  0.2453 -1.9054 -0.6226
 7340TIP3    H243512  -0.007   5.195   4.631 -3.4023 -1.0494 -0.9858
 7341TIP3   OH243513   1.488   4.341  14.987 -0.3694 -0.1590  0.3677
 7341TIP3    H143514   1.449   4.410  14.933 -2.0808 -1.6750 -0.4350
 7341TIP3    H243515   1.573   4.377  15.013 -1.0473  2.1077 -0.2710
 7342TIP3   OH243516   0.295   0.955   0.272 -0.1050  0.3492  0.2137
 7342TIP3    H143517   0.373   0.985   0.226 -0.9112  1.1762 -0.6714
 7342TIP3    H243518   0.263   0.881   0.219 -0.2954  0.4466  0.1933
 7343TIP3   OH243519   0.007   5.539  15.913 -0.2721  0.1199 -0.4204
 7343TIP3    H143520  -0.042   5.577  15.987 -0.9762  1.8949 -1.7320
 7343TIP3    H243521  -0.057   5.484  15.868 -0.2659  0.2329 -0.5658
 7344TIP3   OH243522   1.223   3.457   5.229 -0.2669 -0.0551  0.3358
 7344TIP3    H143523   1.253   3.544   5.202 -0.1613  0.0348  0.7291
 7344TIP3    H243524   1.160   3.432   5.163  1.1168 -0.5174 -0.8658
 7345TIP3   OH243525   2.351   1.537   4.767  0.7215 -0.4630 -0.2271
 7345TIP3    H143526   2.331   1.629   4.749  0.6425 -0.4545 -0.0928
 7345TIP3    H243527   2.295   1.488   4.706 -0.3002 -0.4649  0.6813
 7346TIP3   OH243528   4.560   5.271   5.512 -0.1376  0.2874 -0.2642
 7346TIP3    H143529   4.551   5.239   5.422  0.2144 -0.6432  0.0164
 7346TIP3    H243530   4.649   5.306   5.516 -0.1349  0.2806 -0.2626
 7347TIP3   OH243531   6.811   4.879  14.746  0.1859  0.4581  0.3402
 7347TIP3    H143532   6.858   4.917  14.820  0.6260  1.8498 -0.6177
 7347TIP3    H243533   6.740   4.829  14.787  0.2746  1.3691  1.7061
 7348TIP3   OH243534   6.780   1.642   4.218 -0.0750  0.0772 -0.0899
 7348TIP3    H143535   6.731   1.717   4.250  0.1033 -0.0414  0.4736
 7348TIP3    H243536   6.786   1.656   4.123 -3.0092 -0.9391 -0.5530
 7349TIP3   OH243537   6.793   1.598  15.827  0.4487  0.3237 -0.0008
 7349TIP3    H143538   6.857   1.561  15.767 -0.4847 -0.2187 -0.6792
 7349TIP3    H243539   6.711   1.596  15.779 -0.1116  0.8859  0.9046
 7350TIP3   OH243540   6.609   1.669  12.443  0.5751 -0.1098  0.0435
 7350TIP3    H143541   6.578   1.732  12.508 -2.8834 -0.0840 -1.3927
 7350TIP3    H243542   6.625   1.722  12.365 -3.1993 -0.8138 -1.4495
 7351TIP3   OH243543   5.681   4.629   5.775 -0.5741  0.3242  0.5948
 7351TIP3    H143544   5.639   4.696   5.829  0.0658  1.1310  0.1103
 7351TIP3    H243545   5.659   4.653   5.685  1.1629  0.9779  0.2999
 7352TIP3   OH243546   3.171   5.866   3.605 -0.2889  0.3106 -0.6245
 7352TIP3    H143547   3.130   5.787   3.569  0.7707 -0.4631 -0.1808
 7352TIP3    H243548   3.231   5.833   3.672 -1.1242  1.6210  0.8138
 7353TIP3   OH243549   6.452   3.704   1.903  0.7688  0.3046  0.2005
 7353TIP3    H143550   6.455   3.637   1.972  1.6557 -0.1700 -0.2832
 7353TIP3    H243551   6.487   3.660   1.826  1.0458  1.2369 -0.2088
 7354TIP3   OH243552   0.077   2.690  11.762 -0.1307 -0.4196 -0.2385
 7354TIP3    H143553   0.018   2.709  11.689  1.7161  0.4186 -1.5995
 7354TIP3    H243554   0.164   2.681  11.721  1.0535  0.6276  1.8843
 7355TIP3   OH243555   4.023   0.598  15.167 -0.0800 -0.0647 -0.4761
 7355TIP3    H143556   3.939   0.579  15.209 -0.5312  0.6217 -1.0455
 7355TIP3    H243557   4.041   0.522  15.112 -0.1744 -0.3512 -0.1124
 7356TIP3   OH243558   0.360   6.502  16.806 -0.0295 -0.3357  0.3702
 7356TIP3    H143559   0.413   6.423  16.796  0.7774  0.2173  0.1938
 7356TIP3    H243560   0.359   6.518  16.901  2.0227  0.9034  0.2252
 7357TIP3   OH243561   5.407   2.707  11.772 -0.2882 -0.3261 -0.2100
 7357TIP3    H143562   5.400   2.733  11.864 -2.1042 -0.3188 -0.3162
 7357TIP3    H243563   5.371   2.781  11.724 -0.9591 -1.0216 -0.8079
 7358TIP3   OH243564   2.243   3.962   0.557 -0.0533 -0.0675  0.2452
 7358TIP3    H143565   2.165   3.936   0.508 -1.0478  1.9045  0.6773
 7358TIP3    H243566   2.273   4.042   0.513  2.0020 -0.9908 -0.1478
 7359TIP3   OH243567   6.474   6.668   4.996  0.6427  0.2926 -0.0059
 7359TIP3    H143568   6.452   6.664   5.089  2.0955 -0.0575  0.3428
 7359TIP3    H243569   6.555   6.719   4.992  2.2690 -2.1378 -0.7251
 7360TIP3   OH243570   5.452   5.758  13.951 -0.3397 -0.7181  0.3582
 7360TIP3    H143571   5.381   5.769  14.015 -0.3505  1.5126  0.0517
 7360TIP3    H243572   5.520   5.709  13.998 -0.9822 -0.4898  1.5536
 7361TIP3   OH243573   6.387   3.391   3.055 -0.0787 -0.1500  0.4263
 7361TIP3    H143574   6.471   3.348   3.044  1.4290  2.2656  1.6125
 7361TIP3    H243575   6.325   3.335   3.008  2.5869 -0.6028 -2.9373
 7362TIP3   OH243576   3.936   4.375  12.875  0.4925 -0.3542 -0.6672
 7362TIP3    H143577   3.970   4.456  12.914  1.0134 -0.3842 -1.0478
 7362TIP3    H243578   3.990   4.306  12.912  0.2633 -0.4971 -0.5969
 7363TIP3   OH243579   6.559   1.932  16.113 -0.0744 -0.3555  0.0583
 7363TIP3    H143580   6.502   1.857  16.128 -0.1376  0.0313  2.0503
 7363TIP3    H243581   6.547   1.987  16.191  2.2669  0.2004  0.0914
 7364TIP3   OH243582   4.144   1.448   0.843  0.5067  0.2779 -0.1659
 7364TIP3    H143583   4.198   1.381   0.885  2.6383  1.9785 -0.0561
 7364TIP3    H243584   4.054   1.422   0.864  1.1763 -2.7464 -0.4691
 7365TIP3   OH243585   2.946   6.084   2.428 -0.0495 -0.7904  0.5518
 7365TIP3    H143586   2.914   6.111   2.514 -0.7004  0.2315  0.0100
 7365TIP3    H243587   3.031   6.128   2.419 -0.2674 -0.3983  0.4167
 7366TIP3   OH243588   2.529   5.811  15.964 -0.0506  0.0515  0.3238
 7366TIP3    H143589   2.621   5.835  15.959  0.1539 -0.2941  2.0012
 7366TIP3    H243590   2.496   5.859  16.041 -1.2812  0.1937 -0.2712
 7367TIP3   OH243591   4.050   3.838  15.346  0.5263  0.5196 -0.7356
 7367TIP3    H143592   3.983   3.791  15.395  0.9085  0.1383 -0.5787
 7367TIP3    H243593   4.075   3.911  15.403  2.0852 -0.7960  0.3447
 7368TIP3   OH243594   5.788   2.156  16.759  0.3894 -0.1506  0.3039
 7368TIP3    H143595   5.750   2.224  16.704  1.3038  0.6662  0.6698
 7368TIP3    H243596   5.846   2.107  16.701  0.9733  0.4003  0.4211
 7369TIP3   OH243597   4.862   4.082  14.846  0.5136 -0.5029  0.4823
 7369TIP3    H143598   4.818   4.167  14.845  1.3860  0.0236 -2.4587
 7369TIP3    H243599   4.800   4.022  14.806  0.5542 -0.8930  0.9904
 7370TIP3   OH243600   5.601   5.827  12.727  0.3936 -0.1638 -0.3770
 7370TIP3    H143601   5.635   5.830  12.816  3.3732  0.7001 -1.4440
 7370TIP3    H243602   5.557   5.742  12.721  4.2006 -2.4274  0.6343
 7371TIP3   OH243603   3.118   2.256   1.695  0.7870  0.3360 -0.5188
 7371TIP3    H143604   3.109   2.177   1.748  1.6244  0.3465 -0.3537
 7371TIP3    H243605   3.040   2.308   1.716  0.5889 -0.1326 -0.0973
 7372TIP3   OH243606   3.334   2.156   5.834  0.1682 -0.2540 -0.4864
 7372TIP3    H143607   3.380   2.073   5.819  1.0269 -0.1819  1.4373
 7372TIP3    H243608   3.389   2.222   5.793  1.2617 -0.3057  0.8083
 7373TIP3   OH243609   0.425   3.556  13.263 -0.0784  0.2881 -0.4391
 7373TIP3    H143610   0.376   3.524  13.339 -0.5228  0.6357 -0.5783
 7373TIP3    H243611   0.501   3.601  13.300 -0.2368  0.3647 -0.2088
 7374TIP3   OH243612   4.972   4.481   0.512  0.1805  0.4524  0.4859
 7374TIP3    H143613   4.910   4.551   0.491 -0.4618 -0.4885 -0.9073
 7374TIP3    H243614   5.056   4.513   0.479  0.6383  1.9700  2.8682
 7375TIP3   OH243615   6.155   4.915   0.411  0.0091  0.3999  0.4377
 7375TIP3    H143616   6.203   4.841   0.449 -0.5515  0.3793  1.1046
 7375TIP3    H243617   6.200   4.931   0.327 -0.5014 -1.3824 -0.2293
 7376TIP3   OH243618   0.035   5.699  13.413 -0.9767 -0.0498 -0.0818
 7376TIP3    H143619   0.054   5.663  13.500 -0.3752 -0.0615 -0.2134
 7376TIP3    H243620   0.040   5.794  13.425  1.8677 -0.0517 -0.6701
 7377TIP3   OH243621   5.522   4.612   4.311  0.2648  0.0997 -0.3297
 7377TIP3    H143622   5.600   4.666   4.300  1.7682 -1.6045  1.1985
 7377TIP3    H243623   5.552   4.523   4.290 -0.9028 -0.7779  1.4676
 7378TIP3   OH243624   0.003   1.441   5.074  0.5681  0.4139  0.3570
 7378TIP3    H143625  -0.004   1.346   5.081  2.8541  0.2541  1.7112
 7378TIP3    H243626  -0.001   1.459   4.980  1.0814 -1.1223  0.0107
 7379TIP3   OH243627   2.712   5.036   5.551  0.0765 -0.1510  0.2212
 7379TIP3    H143628   2.659   5.042   5.471  0.4467  0.0383 -0.0121
 7379TIP3    H243629   2.693   5.117   5.599  2.3484  1.3485 -1.2354
 7380TIP3   OH243630   0.023   5.751  16.762  0.4329 -0.2409 -0.8308
 7380TIP3    H143631   0.087   5.779  16.827 -1.7305 -0.9116  1.8025
 7380TIP3    H243632   0.051   5.662  16.738  0.4082 -0.6343  0.4910
 7381TIP3   OH243633   6.279   4.679   3.876  1.1011  0.1080 -0.5234
 7381TIP3    H143634   6.267   4.766   3.914  1.4651  0.7488 -1.8053
 7381TIP3    H243635   6.191   4.648   3.857  0.9731  0.2164 -0.1133
 7382TIP3   OH243636   5.364   3.720  12.904  0.4412 -0.0854  0.4995
 7382TIP3    H143637   5.456   3.739  12.889  0.4003 -0.1480  0.1626
 7382TIP3    H243638   5.348   3.637  12.860 -0.3491  1.0993 -1.5812
 7383TIP3   OH243639   0.456   4.826   0.241 -0.2331  0.2673 -0.2420
 7383TIP3    H143640   0.408   4.880   0.177 -0.6179  1.2092  0.8058
 7383TIP3    H243641   0.482   4.748   0.192 -3.9738 -0.9658 -0.6093
 7384TIP3   OH243642   0.791   6.504   2.495  0.0809  0.0856 -0.3041
 7384TIP3    H143643   0.754   6.590   2.517  0.9079  0.3195  0.2169
 7384TIP3    H243644   0.821   6.513   2.405 -0.0847  0.2523 -0.3441
 7385TIP3   OH243645   0.721   5.130   2.193 -1.0673 -0.1926 -0.1190
 7385TIP3    H143646   0.698   5.105   2.283  0.3777 -0.2576  0.2680
 7385TIP3    H243647   0.679   5.064   2.139 -1.4248 -0.5396  0.5637
 7386TIP3   OH243648   6.171   1.372   4.554 -0.3006 -0.2897  0.1272
 7386TIP3    H143649   6.142   1.295   4.602 -1.3367 -0.8564 -1.3516
 7386TIP3    H243650   6.218   1.338   4.478 -1.8136  0.4617 -1.1994
 7387TIP3   OH243651   1.375   5.696  13.248 -0.8626  0.0380  0.0392
 7387TIP3    H143652   1.351   5.721  13.337  0.2185  1.3020  0.0007
 7387TIP3    H243653   1.440   5.626  13.260  1.1969  1.9157  0.3602
 7388TIP3   OH243654   1.080   1.724   0.644  0.3367 -0.2575 -0.2245
 7388TIP3    H143655   1.108   1.708   0.553 -0.8099 -0.9427 -0.4720
 7388TIP3    H243656   1.114   1.649   0.693  0.5700 -0.1166 -0.1700
 7389TIP3   OH243657   3.310   5.179  14.387  0.1179  0.6095 -0.4017
 7389TIP3    H143658   3.345   5.237  14.454  1.4534 -0.4179 -0.1523
 7389TIP3    H243659   3.271   5.237  14.322 -0.5510  1.6593  0.8863
 7390TIP3   OH243660   2.483   4.506   2.624  0.2886 -0.0251  0.4167
 7390TIP3    H143661   2.502   4.461   2.541  1.5169 -0.7431  1.0608
 7390TIP3    H243662   2.447   4.590   2.597  1.4909  0.1253 -0.8791
 7391TIP3   OH243663   1.964   4.702  11.803 -0.0233  0.2772 -0.2632
 7391TIP3    H143664   2.030   4.712  11.872 -1.1404  1.2322  0.7160
 7391TIP3    H243665   2.008   4.652  11.735  1.2147 -0.4778  1.0326
 7392TIP3   OH243666   5.768   0.735   3.081  0.1997  0.4953 -0.3088
 7392TIP3    H143667   5.735   0.733   2.991 -1.6783  1.4365  0.2947
 7392TIP3    H243668   5.770   0.643   3.107  2.2320  0.0690 -1.7540
 7393TIP3   OH243669   2.961   1.674  10.264 -0.0628  0.1521 -0.0464
 7393TIP3    H143670   2.997   1.596  10.304  1.6604  0.4072 -1.0118
 7393TIP3    H243671   2.886   1.642  10.213 -0.8525 -0.4845  1.4683
 7394TIP3   OH243672   4.654   5.660  11.568 -0.1817 -0.7672  0.5266
 7394TIP3    H143673   4.592   5.706  11.624  1.6207  2.1590  0.3371
 7394TIP3    H243674   4.619   5.572  11.560 -2.4218 -0.2495  3.2294
 7395TIP3   OH243675   1.048   4.643   5.138 -0.3143  0.2343 -0.2388
 7395TIP3    H143676   1.073   4.697   5.063  1.5782  1.6649  1.3176
 7395TIP3    H243677   1.112   4.664   5.205 -1.6321 -1.3832  1.6428
 7396TIP3   OH243678   1.170   2.221   5.157 -0.1579  0.3826 -0.9092
 7396TIP3    H143679   1.155   2.157   5.087  0.1709 -1.5383  0.6971
 7396TIP3    H243680   1.256   2.197   5.193 -0.4274  1.1562  0.3018
 7397TIP3   OH243681   6.163   4.807  13.296 -0.2902 -0.2313  0.3891
 7397TIP3    H143682   6.115   4.724  13.309 -0.0960 -0.5784 -0.9339
 7397TIP3    H243683   6.255   4.782  13.301 -0.2272 -0.1651 -0.3348
 7398TIP3   OH243684   0.534   1.668  15.801 -0.2785 -0.0644 -0.6952
 7398TIP3    H143685   0.521   1.612  15.724  1.0354 -1.3923  0.0046
 7398TIP3    H243686   0.582   1.613  15.863 -1.3964  0.9343  1.1440
 7399TIP3   OH243687   0.636   5.591   5.179 -0.0769  0.1967 -0.3955
 7399TIP3    H143688   0.716   5.639   5.156  1.5132 -1.9068  0.4322
 7399TIP3    H243689   0.614   5.622   5.266 -2.0664  3.0573 -1.7811
 7400TIP3   OH243690   2.928   2.399  14.474 -0.4836 -0.0941 -0.4078
 7400TIP3    H143691   2.889   2.402  14.562 -0.1386  2.9977 -0.2501
 7400TIP3    H243692   3.016   2.366  14.488 -0.2726  0.8070  0.5191
 7401TIP3   OH243693   4.409   6.786   5.128  0.0828 -0.3131  0.6903
 7401TIP3    H143694   4.505   6.788   5.128  0.1057 -0.3527  1.9971
 7401TIP3    H243695   4.384   6.837   5.050  1.1556 -0.7813  0.0137
 7402TIP3   OH243696   0.199   2.970   3.777  0.0857 -0.2209 -0.2369
 7402TIP3    H143697   0.148   2.914   3.718 -1.0319 -0.8966  1.3294
 7402TIP3    H243698   0.246   3.029   3.718 -0.6531 -1.1559 -1.8281
 7403TIP3   OH243699   5.587   5.727   0.581 -0.0940 -0.1947 -0.1149
 7403TIP3    H143700   5.547   5.760   0.501 -0.6389 -0.2800  0.1127
 7403TIP3    H243701   5.664   5.781   0.595  0.2022 -0.4118 -0.8878
 7404TIP3   OH243702   1.153   1.128  11.303 -0.3001  0.2435 -0.3036
 7404TIP3    H143703   1.178   1.104  11.214  1.7522 -0.8101  0.4758
 7404TIP3    H243704   1.235   1.156  11.344 -1.0306 -0.0539  1.4745
 7405TIP3   OH243705   0.813   6.107  16.471  0.0053  0.0870 -0.3310
 7405TIP3    H143706   0.739   6.109  16.410  0.5489 -0.3844 -1.0345
 7405TIP3    H243707   0.816   6.195  16.508 -0.3998  0.3636 -0.9263
 7406TIP3   OH243708   6.601   4.909   3.624  0.2243 -0.3501 -0.3771
 7406TIP3    H143709   6.603   4.819   3.657  1.1451 -0.7181 -1.3594
 7406TIP3    H243710   6.591   4.899   3.529 -1.9042  0.6578 -0.3086
 7407TIP3   OH243711   5.389   5.353  14.139  0.0776 -0.5023  0.0502
 7407TIP3    H143712   5.414   5.279  14.195  0.1924 -0.9372 -0.5687
 7407TIP3    H243713   5.435   5.428  14.177 -1.6011 -0.3240  1.9104
 7408TIP3   OH243714   2.303   3.828  12.234 -0.3423 -0.5903  0.7684
 7408TIP3    H143715   2.244   3.773  12.286 -0.8987 -0.3391  0.4171
 7408TIP3    H243716   2.349   3.882  12.298 -1.6017  0.2862  0.9858
 7409TIP3   OH243717   4.368   2.300  14.132 -0.0346 -0.1979  0.5009
 7409TIP3    H143718   4.298   2.341  14.183 -0.6577  0.2146 -0.6256
 7409TIP3    H243719   4.333   2.215  14.107 -0.1630  0.0085 -0.0620
 7410TIP3   OH243720   0.640   1.259   3.912  0.0182 -0.8752 -0.0952
 7410TIP3    H143721   0.586   1.186   3.882 -0.0894 -0.5626 -0.6717
 7410TIP3    H243722   0.727   1.240   3.876  0.0916 -0.9384  0.1149
 7411TIP3   OH243723   5.653   4.528   2.762  0.2772 -0.0370 -0.6892
 7411TIP3    H143724   5.711   4.469   2.714  0.2360  0.3592 -1.2335
 7411TIP3    H243725   5.683   4.522   2.853 -0.5199 -1.8440 -0.5136
 7412TIP3   OH243726   4.484   3.412  14.266 -0.1950  0.4765  0.0755
 7412TIP3    H143727   4.416   3.422  14.333  1.4651  0.9224  1.8040
 7412TIP3    H243728   4.531   3.495  14.267  0.3178  0.2262 -1.1713
 7413TIP3   OH243729   5.048   4.424   2.705 -0.5807 -0.3405 -0.0756
 7413TIP3    H143730   5.087   4.510   2.693 -3.2715  1.0401  0.1343
 7413TIP3    H243731   5.104   4.364   2.655  0.7813  1.6905 -1.1211
 7414TIP3   OH243732   3.280   0.989  11.890  0.5265  0.1656 -0.0254
 7414TIP3    H143733   3.258   1.040  11.968  0.4444  1.7260 -1.0317
 7414TIP3    H243734   3.354   1.036  11.851  0.1935 -0.2568 -1.2017
 7415TIP3   OH243735   1.126   6.773  12.302  0.6298  0.4461 -0.0743
 7415TIP3    H143736   1.193   6.747  12.240 -0.4388  0.9403 -1.4792
 7415TIP3    H243737   1.145   6.864  12.323  0.8525  0.3482  0.1587
 7416TIP3   OH243738   6.216   2.343  13.331  0.1610  0.3927  0.1777
 7416TIP3    H143739   6.250   2.256  13.350  0.2268  0.4115  0.1431
 7416TIP3    H243740   6.121   2.333  13.338  0.2096  0.5838  1.3123
 7417TIP3   OH243741   0.640   0.147  11.705 -0.4301 -0.2913  0.0830
 7417TIP3    H143742   0.545   0.150  11.691 -0.1772  1.8594 -1.6512
 7417TIP3    H243743   0.653   0.187  11.791 -1.0555 -0.1828  0.1286
 7418TIP3   OH243744   3.582   4.811   0.391 -0.2122  0.0542 -0.4043
 7418TIP3    H143745   3.559   4.901   0.367 -2.3387 -0.3733 -0.1492
 7418TIP3    H243746   3.637   4.781   0.319  0.0270  1.3507 -0.7932
 7419TIP3   OH243747   2.565   2.906   0.220  0.2407 -0.1382  0.5228
 7419TIP3    H143748   2.587   2.838   0.283 -0.5705 -0.0800  0.8819
 7419TIP3    H243749   2.469   2.907   0.218  0.2240 -1.2109 -1.8577
 7420TIP3   OH243750   2.308   2.262  15.550 -0.2868 -0.3638  0.1080
 7420TIP3    H143751   2.397   2.275  15.519  0.1837 -0.0992  1.5279
 7420TIP3    H243752   2.261   2.341  15.523 -0.1699 -0.5833 -0.7996
 7421TIP3   OH243753   6.486   6.658  12.617  0.0236 -0.6206  0.1465
 7421TIP3    H143754   6.394   6.683  12.622 -0.9864 -3.5720 -1.2575
 7421TIP3    H243755   6.534   6.741  12.615 -2.5822  1.0060  0.6028
 7422TIP3   OH243756   2.451   6.504   6.403 -0.3353  0.4563  0.4728
 7422TIP3    H143757   2.493   6.442   6.463  0.6793  0.7441  0.0891
 7422TIP3    H243758   2.359   6.478   6.402  0.2412 -1.8918 -0.6586
 7423TIP3   OH243759   3.498   2.962  14.581  0.8161  0.5274  0.3462
 7423TIP3    H143760   3.463   3.013  14.653  1.1396  0.5510  0.4898
 7423TIP3    H243761   3.524   3.027  14.515  0.9286  0.5321  0.3947
 7424TIP3   OH243762   5.643   6.450   4.196  0.4531  0.3712 -0.1592
 7424TIP3    H143763   5.586   6.372   4.197 -2.8679  2.5766  1.1968
 7424TIP3    H243764   5.730   6.416   4.218 -0.1615 -3.2752 -2.4468
 7425TIP3   OH243765   3.224   3.474   5.686  0.4220  0.1400 -0.5059
 7425TIP3    H143766   3.283   3.445   5.617  0.8376  0.4923 -0.3002
 7425TIP3    H243767   3.152   3.410   5.684  0.0409  0.5824 -1.7687
 7426TIP3   OH243768   2.218   5.851  14.034  0.3183 -0.5654  0.4862
 7426TIP3    H143769   2.180   5.873  13.948 -0.5372  0.1093  1.0124
 7426TIP3    H243770   2.273   5.927  14.055 -0.1041 -0.3597  0.8766
 7427TIP3   OH243771   4.304   4.087  16.139  0.3586 -0.2281  0.1209
 7427TIP3    H143772   4.341   4.092  16.227 -0.4767 -0.3054  0.4864
 7427TIP3    H243773   4.210   4.079  16.153 -0.2038  3.2314 -0.8099
 7428TIP3   OH243774   3.152   0.116   4.013  0.2383 -0.2797 -0.1796
 7428TIP3    H143775   3.058   0.103   4.022  0.4009 -0.6789  1.1371
 7428TIP3    H243776   3.192   0.047   4.067  1.2568  0.4212  0.0026
 7429TIP3   OH243777   3.164   3.108  11.300  0.1810 -0.5754  0.5512
 7429TIP3    H143778   3.090   3.049  11.312 -0.1034 -0.4386 -0.4276
 7429TIP3    H243779   3.144   3.183  11.357 -0.4133 -0.5588  0.3314
 7430TIP3   OH243780   0.832   4.151   3.591 -0.2218 -0.4828 -0.0231
 7430TIP3    H143781   0.784   4.096   3.528  1.6067 -1.0703 -0.9770
 7430TIP3    H243782   0.814   4.111   3.676 -1.7486 -0.4128 -0.2777
 7431TIP3   OH243783   5.019   6.162   1.475  0.5209  0.1368  0.3703
 7431TIP3    H143784   5.092   6.209   1.513  0.6529 -0.6332  1.0872
 7431TIP3    H243785   4.960   6.145   1.548  1.6746 -3.0510  0.7126
 7432TIP3   OH243786   0.946   0.848   5.313 -0.1460  0.6120  0.0495
 7432TIP3    H143787   1.019   0.854   5.374  0.4681 -0.2825 -0.5614
 7432TIP3    H243788   0.895   0.773   5.344 -0.4953  0.8869  0.1466
 7433TIP3   OH243789   2.158   4.250  12.563 -0.3202  0.0547 -0.4686
 7433TIP3    H143790   2.244   4.288  12.584 -0.9091  0.9446  0.4383
 7433TIP3    H243791   2.121   4.228  12.649 -0.6599 -1.1186 -0.9031
 7434TIP3   OH243792   5.822   5.295  15.639 -0.5050  0.0856  0.1156
 7434TIP3    H143793   5.844   5.340  15.557  0.1241 -0.4160  0.0027
 7434TIP3    H243794   5.745   5.241  15.617  0.1896 -0.7214 -0.3897
 7435TIP3   OH243795   6.002   4.511   1.603 -0.0519  0.0486 -0.5328
 7435TIP3    H143796   6.059   4.436   1.586  0.3300  0.7701 -2.8071
 7435TIP3    H243797   5.930   4.476   1.656  0.5308 -1.7412 -0.8766
 7436TIP3   OH243798   1.796   1.126  13.538  0.0204  0.6436  0.4357
 7436TIP3    H143799   1.749   1.121  13.621 -0.9497 -0.9106 -0.1598
 7436TIP3    H243800   1.738   1.175  13.479 -0.5303 -0.5704 -0.0653
 7437TIP3   OH243801   0.569   5.726   5.429 -0.2976 -0.0121  0.2901
 7437TIP3    H143802   0.494   5.756   5.378  0.5903 -0.0266 -1.0735
 7437TIP3    H243803   0.537   5.723   5.519 -1.1865  2.4750  0.1416
 7438TIP3   OH243804   4.603   1.046  10.308  0.0364  0.9103 -0.5272
 7438TIP3    H143805   4.600   1.132  10.267 -0.6438  1.7779  1.2229
 7438TIP3    H243806   4.554   1.057  10.390  0.6079 -0.9344  0.1104
 7439TIP3   OH243807   5.726   2.044  11.212  0.2637 -0.1500  0.1359
 7439TIP3    H143808   5.705   2.093  11.291  0.8059  2.0793 -1.0218
 7439TIP3    H243809   5.820   2.026  11.220  0.7333  1.6419 -0.7269
 7440TIP3   OH243810   4.613   6.037  15.934 -0.7653 -0.5268  0.1348
 7440TIP3    H143811   4.665   5.977  15.879 -0.4071  0.0913 -0.2095
 7440TIP3    H243812   4.567   6.092  15.872 -0.5987 -0.0230  0.4560
 7441TIP3   OH243813   1.756   0.071  15.857 -0.7957  0.4645  0.2593
 7441TIP3    H143814   1.687   0.040  15.799 -0.6972  5.1575 -2.8996
 7441TIP3    H243815   1.826   0.006  15.848 -2.3312 -1.0523 -1.6902
 7442TIP3   OH243816   3.877   0.888   4.806 -0.1427  0.1499  0.0597
 7442TIP3    H143817   3.787   0.859   4.817  0.3609 -1.2501  0.8188
 7442TIP3    H243818   3.898   0.864   4.716 -0.5549  0.5544 -0.1453
 7443TIP3   OH243819   3.902   3.658   5.638 -0.0137  0.0045 -0.1014
 7443TIP3    H143820   3.987   3.692   5.610  0.6701 -1.3030  0.3093
 7443TIP3    H243821   3.920   3.569   5.667 -1.7907 -0.8447 -1.4098
 7444TIP3   OH243822   2.993   2.818  11.136  0.0045  0.3382  0.4659
 7444TIP3    H143823   2.947   2.891  11.095  0.4667  0.9270  0.9879
 7444TIP3    H243824   3.016   2.760  11.063 -1.5129  0.0363  0.1819
 7445TIP3   OH243825   1.548   4.881   5.319  0.8361 -0.2614  0.2484
 7445TIP3    H143826   1.614   4.818   5.291 -0.6417 -1.3487 -0.9862
 7445TIP3    H243827   1.531   4.934   5.241  1.4628  1.1406  1.0405
 7446TIP3   OH243828   3.515   4.408  15.722  0.0896 -0.1897 -0.2353
 7446TIP3    H143829   3.434   4.426  15.675  0.0304 -2.5826 -1.1956
 7446TIP3    H243830   3.535   4.490  15.768 -1.7982  1.0739 -1.5157
 7447TIP3   OH243831   5.989   0.067  16.906 -0.3024 -0.0040  0.0621
 7447TIP3    H143832   6.046   0.105  16.972 -0.6993  1.1565 -0.2321
 7447TIP3    H243833   5.975   0.137  16.843 -0.0402 -1.0488 -1.1929
 7448TIP3   OH243834   0.025   5.042  14.965  0.7577 -0.4068 -0.5617
 7448TIP3    H143835  -0.069   5.052  14.978  0.7101 -1.4286 -0.0457
 7448TIP3    H243836   0.060   5.028  15.052  1.4509  0.3313 -0.7057
 7449TIP3   OH243837   3.529   0.399  17.091 -0.4643 -0.0670 -0.3794
 7449TIP3    H143838   3.523   0.433  17.180 -0.0471 -4.0846  1.4049
 7449TIP3    H243839   3.439   0.403  17.058 -0.4304  2.5100 -0.3152
 7450TIP3   OH243840   2.104   5.174  14.346 -0.2293  0.1518 -0.1823
 7450TIP3    H143841   2.011   5.196  14.351  0.0109  1.0446  0.5782
 7450TIP3    H243842   2.105   5.085  14.311 -1.3373  0.3526 -0.7891
 7451TIP3   OH243843   1.874   5.385  13.985 -0.6445  0.0523 -0.4783
 7451TIP3    H143844   1.959   5.382  14.029 -0.1380 -1.1831 -1.4860
 7451TIP3    H243845   1.894   5.373  13.892 -1.9377 -0.4557 -0.7132
 7452TIP3   OH243846   3.784   5.110   2.033 -0.4828  0.5671  0.0482
 7452TIP3    H143847   3.814   5.104   2.124 -0.5612  2.1048  0.1942
 7452TIP3    H243848   3.840   5.048   1.986 -1.0592 -0.9493  1.2651
 7453TIP3   OH243849   0.841   4.802   4.088  0.1212  0.6051  0.5060
 7453TIP3    H143850   0.935   4.822   4.093  0.4589 -0.0786 -1.9464
 7453TIP3    H243851   0.829   4.726   4.145  0.8614  1.2334  1.5297
 7454TIP3   OH243852   4.984   1.882  14.880 -0.4174 -0.2498 -1.1264
 7454TIP3    H143853   4.958   1.961  14.928 -1.5899 -1.4332  0.2661
 7454TIP3    H243854   5.073   1.864  14.911 -0.5054 -0.0137 -0.7319
 7455TIP3   OH243855   1.576   6.488  13.402 -0.7412 -0.2226  0.4277
 7455TIP3    H143856   1.507   6.513  13.341  1.2353  2.0907 -1.0391
 7455TIP3    H243857   1.557   6.537  13.482  0.2354  2.0686 -0.6698
 7456TIP3   OH243858   1.540   1.098   3.451 -0.0240  0.2700  0.6323
 7456TIP3    H143859   1.568   1.138   3.369 -0.2162 -0.0592  0.4015
 7456TIP3    H243860   1.504   1.169   3.502 -1.7093  0.1627 -0.3489
 7457TIP3   OH243861   5.908   0.711   2.087  0.7869 -0.9143  0.7361
 7457TIP3    H143862   5.857   0.744   2.160  1.5268  0.3250  0.7292
 7457TIP3    H243863   5.859   0.736   2.009  1.7131  0.9482  0.6976
 7458TIP3   OH243864   2.485   3.893  11.575 -0.4064  0.6231  0.0257
 7458TIP3    H143865   2.495   3.940  11.657  1.2987  2.1621 -0.9987
 7458TIP3    H243866   2.557   3.830  11.574 -0.5704  0.4338 -0.1817
 7459TIP3   OH243867   3.416   6.097  12.624 -0.4433 -0.9341  0.2512
 7459TIP3    H143868   3.336   6.088  12.573  0.1923  2.3982 -1.6555
 7459TIP3    H243869   3.386   6.126  12.711 -1.3616 -0.2293 -0.2856
 7460TIP3   OH243870   3.644   3.999  16.194 -0.1705  0.4700  0.2157
 7460TIP3    H143871   3.612   4.065  16.256 -0.3363  0.3795  0.2256
 7460TIP3    H243872   3.573   3.936  16.187 -0.6295  1.1003 -0.9920
 7461TIP3   OH243873   2.061   2.755  15.476  0.0555 -0.9670  0.3611
 7461TIP3    H143874   2.087   2.838  15.438  3.7161 -2.5550 -1.0074
 7461TIP3    H243875   1.974   2.738  15.440 -0.0660  1.4531 -0.6409
 7462TIP3   OH243876   5.413   4.781  12.015  0.3196  0.4555  0.2364
 7462TIP3    H143877   5.440   4.873  12.016 -0.4122  0.6810 -0.3529
 7462TIP3    H243878   5.461   4.743  11.941  0.7883  0.2989  0.6105
 7463TIP3   OH243879   4.021   5.171  12.135 -0.2760 -0.0762 -0.1074
 7463TIP3    H143880   4.099   5.191  12.187  0.2697  0.4119 -1.0823
 7463TIP3    H243881   3.948   5.181  12.197  0.4286 -0.6737  0.8546
 7464TIP3   OH243882   3.642   3.020   3.858 -0.5403  0.1532 -0.0292
 7464TIP3    H143883   3.636   2.926   3.871  0.2708  0.1567  0.4642
 7464TIP3    H243884   3.732   3.042   3.882 -1.0854  1.2387  1.1435
 7465TIP3   OH243885   5.768   3.945   1.354  0.2090 -0.2418 -0.3337
 7465TIP3    H143886   5.764   4.032   1.314  1.5554 -0.3464 -0.7535
 7465TIP3    H243887   5.712   3.891   1.298  1.1371 -0.1174 -1.4394
 7466TIP3   OH243888   3.831   4.782  13.980 -0.1228 -0.1788  0.4848
 7466TIP3    H143889   3.767   4.828  13.927  0.6304  1.3868  0.8870
 7466TIP3    H243890   3.795   4.786  14.069  0.2293  0.1616  0.6127
 7467TIP3   OH243891   5.487   2.956   1.013 -0.3301  0.0137 -0.1477
 7467TIP3    H143892   5.553   3.015   1.049 -0.9734  0.3736  0.4752
 7467TIP3    H243893   5.522   2.868   1.028 -0.0079  0.1976  0.2018
 7468TIP3   OH243894   0.649   5.897   0.873  0.5201 -1.3591  0.3744
 7468TIP3    H143895   0.737   5.869   0.847 -0.1163 -2.6905 -0.4729
 7468TIP3    H243896   0.598   5.896   0.792 -0.4864 -1.4499  0.9834
 7469TIP3   OH243897   5.143   2.847   6.158 -0.2095  0.5970  0.1580
 7469TIP3    H143898   5.207   2.916   6.169 -0.5344  1.1652 -1.2427
 7469TIP3    H243899   5.161   2.785   6.229 -0.6603  2.6411  2.1641
 7470TIP3   OH243900   1.556   2.221   1.139 -0.4543  0.1002 -0.4202
 7470TIP3    H143901   1.583   2.160   1.070 -0.1782  1.3968 -1.4969
 7470TIP3    H243902   1.632   2.227   1.197 -0.9722 -1.6271  0.5029
 7471TIP3   OH243903   0.836   0.853   2.657  0.5739 -0.2534  0.1954
 7471TIP3    H143904   0.838   0.933   2.709 -1.2109  1.0767 -1.6281
 7471TIP3    H243905   0.756   0.808   2.687  0.9029 -0.7591  0.3345
 7472TIP3   OH243906   4.374   0.888   0.474 -0.3846 -0.0449 -0.4441
 7472TIP3    H143907   4.423   0.951   0.528 -1.8170  1.4120 -0.7477
 7472TIP3    H243908   4.438   0.821   0.451  1.1286  1.1021  0.2389
 7473TIP3   OH243909   4.413   3.967   3.464  0.2052 -0.0225 -0.5390
 7473TIP3    H143910   4.415   3.877   3.432  1.3336  1.2274 -4.5205
 7473TIP3    H243911   4.322   3.983   3.488 -0.2586 -1.8354 -0.9815
 7474TIP3   OH243912   0.371   5.007   5.844 -0.5467 -0.1481 -0.0884
 7474TIP3    H143913   0.307   4.947   5.882 -0.1243 -0.2038  0.5433
 7474TIP3    H243914   0.449   4.954   5.829 -0.1029  0.2712  0.6651
 7475TIP3   OH243915   5.511   6.135  16.796  0.2690  0.1977  0.0261
 7475TIP3    H143916   5.486   6.139  16.704  1.1443  1.5596 -0.1915
 7475TIP3    H243917   5.597   6.093  16.796  1.0587  1.7202 -0.0097
 7476TIP3   OH243918   0.770   4.306  15.515 -1.0681 -0.3179  0.1412
 7476TIP3    H143919   0.794   4.391  15.551 -2.1887 -0.2072  0.6470
 7476TIP3    H243920   0.846   4.281  15.462  0.1707 -0.0140  1.7196
 7477TIP3   OH243921   3.110   5.600  15.252 -0.7820 -0.2356 -0.2641
 7477TIP3    H143922   3.156   5.623  15.171 -0.8233  0.2499 -0.1535
 7477TIP3    H243923   3.127   5.674  15.311 -0.7481 -0.5864  0.1750
 7478TIP3   OH243924   1.151   6.642  13.696  0.0567 -0.5519  0.8115
 7478TIP3    H143925   1.075   6.594  13.662 -0.0538 -0.1745  0.5113
 7478TIP3    H243926   1.226   6.593  13.665 -0.0446 -0.1952 -0.0153
 7479TIP3   OH243927   1.862   5.560  11.062 -0.0344  0.0142 -0.4766
 7479TIP3    H143928   1.908   5.635  11.098 -0.3964  0.4148 -0.8353
 7479TIP3    H243929   1.891   5.556  10.971  1.7136 -1.6359  0.0811
 7480TIP3   OH243930   0.887   5.407  12.760 -0.0722 -0.1847  0.1909
 7480TIP3    H143931   0.899   5.316  12.731 -2.4617 -0.0418 -1.5605
 7480TIP3    H243932   0.957   5.455  12.717  1.4304 -1.1829  1.3985
 7481TIP3   OH243933   5.469   1.776  11.087 -0.0066  0.3521 -0.5408
 7481TIP3    H143934   5.412   1.702  11.068  1.6947 -1.5069  1.0773
 7481TIP3    H243935   5.440   1.807  11.173  1.4821 -0.7986  0.4347
 7482TIP3   OH243936   0.395   4.131  12.447 -0.3148  0.7854 -0.2196
 7482TIP3    H143937   0.466   4.186  12.414 -0.5514  1.3227  0.1497
 7482TIP3    H243938   0.333   4.126  12.374  1.4432 -2.2261 -1.7275
 7483TIP3   OH243939   0.007   2.276   4.653  0.3357  0.6380 -0.2665
 7483TIP3    H143940  -0.005   2.229   4.570 -1.6775  0.6864 -0.0657
 7483TIP3    H243941   0.073   2.225   4.700  0.5356 -0.1558 -1.3693
 7484TIP3   OH243942   4.260   0.990  11.576 -0.7935  0.0356 -0.6142
 7484TIP3    H143943   4.206   1.069  11.571 -1.4108 -0.3078  0.4324
 7484TIP3    H243944   4.219   0.936  11.643  1.7327  0.4702  1.4735
 7485TIP3   OH243945   4.171   4.563  15.346  0.2332 -0.2539  0.1989
 7485TIP3    H143946   4.113   4.639  15.351 -1.2173 -1.0805 -2.4900
 7485TIP3    H243947   4.256   4.597  15.374 -0.6891  1.9599  0.5309
 7486TIP3   OH243948   0.858   5.886   3.170  0.4331 -0.5209 -0.4744
 7486TIP3    H143949   0.778   5.905   3.121  1.2768  1.6416 -1.1601
 7486TIP3    H243950   0.833   5.819   3.233 -1.2617 -1.8064 -2.3810
 7487TIP3   OH243951   1.819   1.727   1.552 -0.6282 -0.1010  0.2112
 7487TIP3    H143952   1.904   1.726   1.595  0.2558  0.6507 -1.4630
 7487TIP3    H243953   1.788   1.817   1.561 -0.3175  0.1309 -0.9103
 7488TIP3   OH243954   4.943   0.315   1.470 -0.1982 -0.3675  0.2351
 7488TIP3    H143955   4.900   0.393   1.506  1.4111  1.4338 -1.5228
 7488TIP3    H243956   4.877   0.246   1.479 -1.7282  1.1740  1.8074
 7489TIP3   OH243957   3.523   5.478  12.731 -0.1375  0.0470  0.2065
 7489TIP3    H143958   3.431   5.491  12.754 -0.5649 -1.9334 -0.1858
 7489TIP3    H243959   3.570   5.487  12.814 -0.8253 -0.0900  0.6213
 7490TIP3   OH243960   3.866   1.297   3.875  0.0722  0.2742  0.0710
 7490TIP3    H143961   3.787   1.336   3.912 -0.7704  0.8019 -2.1499
 7490TIP3    H243962   3.931   1.367   3.879  0.2036  0.1077  1.1226
 7491TIP3   OH243963   0.462   1.393  13.593 -0.0019  0.5813  0.1941
 7491TIP3    H143964   0.374   1.366  13.621 -0.4351  0.1774 -1.4396
 7491TIP3    H243965   0.461   1.383  13.498  2.9376 -2.9354  0.3110
 7492TIP3   OH243966   4.276   1.324  15.636 -0.2015  0.1801  0.0905
 7492TIP3    H143967   4.306   1.414  15.646  1.2171  0.0442 -2.2533
 7492TIP3    H243968   4.353   1.271  15.656 -0.1366 -0.3562 -1.4283
 7493TIP3   OH243969   1.627   4.688   4.504  0.2372  0.7983 -0.4863
 7493TIP3    H143970   1.633   4.759   4.568 -1.4634 -0.3210  1.0230
 7493TIP3    H243971   1.557   4.715   4.444 -0.2496  0.5165 -0.0509
 7494TIP3   OH243972   5.767   0.135   4.946 -0.5994 -0.1005  0.3770
 7494TIP3    H143973   5.757   0.224   4.980  2.2185  0.6789 -0.5452
 7494TIP3    H243974   5.704   0.083   4.995 -2.6226  2.4394  0.6891
 7495TIP3   OH243975   1.817   3.818   5.359  0.2910 -0.1226  0.4012
 7495TIP3    H143976   1.767   3.890   5.397 -1.1969 -1.4684  1.0968
 7495TIP3    H243977   1.764   3.787   5.286  1.3879  0.0992 -0.5025
 7496TIP3   OH243978   4.808   0.169  16.729  0.0201  0.2216  0.3939
 7496TIP3    H143979   4.844   0.113  16.797 -1.6072  0.9437  1.9264
 7496TIP3    H243980   4.756   0.235  16.776 -2.5319 -0.2091 -1.5673
 7497TIP3   OH243981   1.377   2.711   1.491  0.3425  0.6177  0.1421
 7497TIP3    H143982   1.327   2.784   1.456  1.2334  2.2481  2.0428
 7497TIP3    H243983   1.450   2.700   1.430  0.7244  1.9899  0.3151
 7498TIP3   OH243984   5.025   5.777   3.464 -0.4515  0.5107 -0.4399
 7498TIP3    H143985   4.999   5.744   3.378 -0.3865  0.7876 -0.5662
 7498TIP3    H243986   5.063   5.701   3.508 -1.3603  0.1207 -0.2971
 7499TIP3   OH243987   0.811   5.534  14.166 -0.2594 -0.0456 -0.3464
 7499TIP3    H143988   0.862   5.610  14.191 -0.6051  0.1005 -0.0762
 7499TIP3    H243989   0.730   5.541  14.216 -0.4019 -0.4564 -0.5074
 7500TIP3   OH243990   0.735   1.141   1.884  0.7212  0.1908  0.1475
 7500TIP3    H143991   0.733   1.236   1.900  3.1809  0.2600  0.2885
 7500TIP3    H243992   0.723   1.102   1.970 -1.9461  0.2609 -0.0923
 7501TIP3   OH243993   1.407   3.282   1.752  0.1503 -0.6285  0.0157
 7501TIP3    H143994   1.370   3.360   1.794  1.0769 -0.1486 -0.0319
 7501TIP3    H243995   1.399   3.213   1.819 -2.1490 -0.9436 -0.4976
 7502TIP3   OH243996   2.422   5.629   3.081  1.0986  0.3768  0.4461
 7502TIP3    H143997   2.350   5.689   3.060 -1.0328 -1.7437  1.1666
 7502TIP3    H243998   2.418   5.562   3.013  2.3222  0.1537  0.5811
 7503TIP3   OH243999   1.187   2.970  15.834 -0.1009 -0.0400  0.5718
 7503TIP3    H144000   1.275   2.934  15.822 -0.8043 -1.0489 -2.0799
 7503TIP3    H244001   1.196   3.029  15.909  2.4522 -1.2843  1.3748
 7504TIP3   OH244002   0.900   2.155  12.091  0.5193 -0.1451 -0.3121
 7504TIP3    H144003   0.982   2.126  12.131  0.9660 -0.2074 -1.2280
 7504TIP3    H244004   0.858   2.075  12.061  0.6838 -0.0286 -0.8684
 7505TIP3   OH244005   0.448   2.934   1.239 -0.2476 -0.2816  0.4008
 7505TIP3    H144006   0.478   2.849   1.271  1.1858  0.1615  0.3076
 7505TIP3    H244007   0.519   2.964   1.181  0.1855  1.8134  1.9232
 7506TIP3   OH244008   6.020   6.083   0.353  0.6465 -0.0491  0.1005
 7506TIP3    H144009   6.083   6.138   0.307  1.2530 -0.7291  0.1046
 7506TIP3    H244010   6.021   5.999   0.306  1.2406 -0.7423  1.2933
 7507TIP3   OH244011   5.007   3.192  13.895  0.2380  0.2947  0.0753
 7507TIP3    H144012   5.062   3.252  13.845 -0.9980 -0.4327 -2.2672
 7507TIP3    H244013   4.924   3.239  13.906 -0.9818 -1.1205 -2.3742
 7508TIP3   OH244014   1.895   0.248  15.469  0.1054 -0.1476  0.2209
 7508TIP3    H144015   1.883   0.179  15.404 -0.8575  1.7676 -1.7438
 7508TIP3    H244016   1.958   0.308  15.429  0.5722  0.3901  1.6897
 7509TIP3   OH244017   1.107   6.682   1.063  0.1474  0.7077  0.2761
 7509TIP3    H144018   1.162   6.617   1.017  0.5561 -0.4023  2.2366
 7509TIP3    H244019   1.161   6.761   1.065  2.4074 -0.7215  3.3210
 7510TIP3   OH244020   0.465   6.155  13.524 -0.0547  0.0977 -0.3569
 7510TIP3    H144021   0.451   6.221  13.456 -0.6975 -0.3080 -0.6242
 7510TIP3    H244022   0.554   6.123  13.508 -0.9063 -1.5088 -2.3771
 7511TIP3   OH244023   0.131   4.120   0.661  0.0362 -0.9914  0.6685
 7511TIP3    H144024   0.144   4.177   0.737  0.0284 -1.0042  0.6797
 7511TIP3    H244025   0.155   4.173   0.586 -2.3555 -0.1194  0.4385
 7512TIP3   OH244026   4.149   4.549  14.014 -0.1002 -0.1627 -0.4783
 7512TIP3    H144027   4.082   4.549  13.946 -1.9988 -0.9295  1.2800
 7512TIP3    H244028   4.188   4.462  14.009  0.0519 -0.0747 -0.8438
 7513TIP3   OH244029   2.523   0.284  15.359 -0.1962 -0.0581 -0.5666
 7513TIP3    H144030   2.489   0.373  15.358  0.1118  0.0702  0.1325
 7513TIP3    H244031   2.482   0.242  15.283 -1.3673  0.2871 -0.1427
 7514TIP3   OH244032   6.261   0.090  16.248 -0.3340 -0.2075  0.8597
 7514TIP3    H144033   6.286   0.166  16.300  1.4116 -0.1920  0.0516
 7514TIP3    H244034   6.306   0.102  16.165 -0.5782 -1.7928  0.4693
 7515TIP3   OH244035   5.665   5.075  15.568  0.0546 -0.5520 -0.3649
 7515TIP3    H144036   5.694   5.010  15.632  1.7691  1.2892  0.8719
 7515TIP3    H244037   5.709   5.050  15.487 -1.2442 -2.2689 -0.6024
 7516TIP3   OH244038   4.617   2.817  14.561 -0.2303  0.5879 -0.5261
 7516TIP3    H144039   4.543   2.801  14.620  0.7256 -1.7932  0.1269
 7516TIP3    H244040   4.582   2.879  14.497 -2.7779 -0.3000 -0.1505
 7517TIP3   OH244041   4.488   4.606   5.565 -0.1438  0.0912  0.6112
 7517TIP3    H144042   4.465   4.519   5.596  0.6156  0.2846  1.7908
 7517TIP3    H244043   4.488   4.599   5.469 -1.2446 -0.8802  0.6663
 7518TIP3   OH244044   4.109   4.643  16.097  0.2790  0.1126 -0.5856
 7518TIP3    H144045   4.047   4.637  16.170  0.2892  2.0272 -0.3682
 7518TIP3    H244046   4.081   4.720  16.048  0.7455 -0.6930 -2.1948
 7519TIP3   OH244047   1.133   1.967   1.343 -1.0112 -0.1286  0.5472
 7519TIP3    H144048   1.153   2.052   1.380 -1.1732  0.0978  0.1244
 7519TIP3    H244049   1.048   1.978   1.300  0.0483  0.1971 -1.6339
 7520TIP3   OH244050   1.203   6.166  10.483  0.9141  0.3607  0.2761
 7520TIP3    H144051   1.120   6.205  10.456 -0.7163 -3.2350 -0.4053
 7520TIP3    H244052   1.233   6.222  10.555 -1.7782  2.0863  0.1962
 7521TIP3   OH244053   4.953   4.310   0.225 -0.5879  0.2448 -0.8764
 7521TIP3    H144054   4.876   4.343   0.270 -0.3946  0.2508 -0.5436
 7521TIP3    H244055   5.004   4.388   0.203  0.3870  0.1631  0.8417
 7522TIP3   OH244056   1.506   3.988  11.498  0.2651 -0.0897 -0.3929
 7522TIP3    H144057   1.501   4.016  11.407 -0.2885  0.4794 -0.1981
 7522TIP3    H244058   1.425   3.940  11.513  0.4872 -0.4348 -0.2748
 7523TIP3   OH244059   5.331   4.436  10.649 -0.5509 -0.5371  0.3027
 7523TIP3    H144060   5.317   4.531  10.643  2.7859  0.2337  2.2337
 7523TIP3    H244061   5.253   4.403  10.693 -0.7944  1.7289  1.7592
 7524TIP3   OH244062   0.591   6.361   0.029  0.3133  0.2006  0.3858
 7524TIP3    H144063   0.544   6.429  -0.019  0.5188  1.1254  1.4534
 7524TIP3    H244064   0.638   6.312  -0.038 -1.2587 -0.0415 -0.5926
 7525TIP3   OH244065   2.822   1.222  15.592 -0.1318  0.5456  0.3547
 7525TIP3    H144066   2.806   1.266  15.675  0.1969  0.7929  0.2903
 7525TIP3    H244067   2.867   1.141  15.616  1.1589  1.2240  0.3479
 7526TIP3   OH244068   4.929   4.835   2.354 -0.5502 -0.1976 -0.9872
 7526TIP3    H144069   4.907   4.771   2.422  1.2792  0.7871  0.6308
 7526TIP3    H244070   5.006   4.797   2.310 -0.8812 -0.1827 -1.5880
 7527TIP3   OH244071   3.654   4.857   2.078  0.3145  0.1930 -0.1979
 7527TIP3    H144072   3.741   4.878   2.044  0.6640  1.5514  1.3396
 7527TIP3    H244073   3.652   4.899   2.165 -0.8100 -2.2952  1.0764
 7528TIP3   OH244074   4.681   0.087  14.953  1.1429  0.7878 -0.2640
 7528TIP3    H144075   4.734   0.026  14.902  0.1969 -1.8741  1.6943
 7528TIP3    H244076   4.660   0.158  14.892  1.2068 -1.4762 -3.1305
 7529TIP3   OH244077   0.365   0.777  13.846  0.2681 -0.0721 -0.2243
 7529TIP3    H144078   0.308   0.805  13.774 -1.0540 -2.3587 -0.1830
 7529TIP3    H244079   0.419   0.707  13.808  1.2067  0.2818  0.4245
 7530TIP3   OH244080   4.856   3.692   5.161  0.1912  0.1280 -0.2118
 7530TIP3    H144081   4.811   3.758   5.215  0.2439 -0.9389  1.1792
 7530TIP3    H244082   4.942   3.681   5.203 -0.0688 -1.3066 -0.0074
 7531TIP3   OH244083   3.925   4.657  15.528  0.3001  0.2180  0.1556
 7531TIP3    H144084   4.005   4.705  15.546  0.3286  0.6455 -1.0056
 7531TIP3    H244085   3.912   4.602  15.605  0.8163  1.3374  1.0675
 7532TIP3   OH244086   5.586   6.241  13.983  0.4259  0.1942 -0.3874
 7532TIP3    H144087   5.513   6.280  13.936  1.1631  1.1011 -0.8213
 7532TIP3    H244088   5.634   6.315  14.020 -0.0321 -0.4795  1.6849
 7533TIP3   OH244089   1.475   4.334  13.551  0.3275  0.0290 -0.2766
 7533TIP3    H144090   1.393   4.382  13.542  1.1239  1.1457 -2.1152
 7533TIP3    H244091   1.542   4.393  13.516  1.8531 -1.0388  0.7238
 7534TIP3   OH244092   2.970   6.405  16.711  0.1132  0.3853  0.3199
 7534TIP3    H144093   3.060   6.378  16.692 -0.5862 -1.7040 -0.3281
 7534TIP3    H244094   2.972   6.436  16.801  1.3753 -0.2767  0.5401
 7535TIP3   OH244095   5.845   6.165   4.997  0.4434 -0.0051  0.2891
 7535TIP3    H144096   5.768   6.220   5.003 -0.9111 -1.8872  1.2437
 7535TIP3    H244097   5.869   6.167   4.904  0.3899  2.0474  0.2874
 7536TIP3   OH244098   5.966   1.049   5.078  0.3748  0.0745 -0.1247
 7536TIP3    H144099   5.919   1.018   5.001  0.1775 -1.1180  0.4528
 7536TIP3    H244100   6.054   1.012   5.070  0.4344  0.1619  0.0934
 7537TIP3   OH244101   2.564   1.859   1.573  0.7388 -0.0967 -0.0604
 7537TIP3    H144102   2.529   1.843   1.486  1.9999 -0.7444 -0.4676
 7537TIP3    H244103   2.488   1.887   1.625  0.1751  1.4462 -1.6263
 7538TIP3   OH244104   6.196   3.466  12.543 -0.1947  0.1299  0.0039
 7538TIP3    H144105   6.158   3.461  12.455 -1.6393  0.0777  0.5945
 7538TIP3    H244106   6.143   3.405  12.595 -0.0596  0.9449  1.1301
 7539TIP3   OH244107   5.177   5.945   1.439  0.1253  0.2531 -0.0102
 7539TIP3    H144108   5.108   6.011   1.450 -0.3875 -0.2069 -0.3847
 7539TIP3    H244109   5.198   5.950   1.345 -1.8229 -1.9365 -0.6543
 7540TIP3   OH244110   1.254   6.490   2.798  0.1120 -0.0454 -0.6860
 7540TIP3    H144111   1.327   6.497   2.736  1.8427 -2.7833  0.8623
 7540TIP3    H244112   1.215   6.405   2.780 -0.5155 -0.0913  0.8168
 7541TIP3   OH244113   4.610   3.611   1.287 -0.0448  0.7884 -0.1845
 7541TIP3    H144114   4.518   3.636   1.282  0.3067  2.3209  0.2991
 7541TIP3    H244115   4.657   3.694   1.296  1.3817  0.0367 -0.3261
 7542TIP3   OH244116   5.776   5.522   5.744  0.2554 -0.0951  0.0911
 7542TIP3    H144117   5.742   5.520   5.654 -1.5091 -1.8449  0.7165
 7542TIP3    H244118   5.702   5.554   5.797 -0.1309 -2.7535  1.3384
 7543TIP3   OH244119   0.009   3.337   3.200  0.1565  0.4035  0.0174
 7543TIP3    H144120  -0.028   3.396   3.267  0.1096  0.1629  0.2069
 7543TIP3    H244121   0.046   3.265   3.251  1.6595  1.0589 -0.1190
 7544TIP3   OH244122   5.516   5.558  12.470 -0.3460 -0.1623  0.0151
 7544TIP3    H144123   5.590   5.573  12.411  0.3709 -2.0243  0.3685
 7544TIP3    H244124   5.440   5.590  12.422  0.2619 -1.2620 -1.7960
 7545TIP3   OH244125   6.410   2.401   3.662 -0.0272 -0.2052 -0.3562
 7545TIP3    H144126   6.411   2.476   3.602 -0.3128  1.5143  1.6924
 7545TIP3    H244127   6.501   2.370   3.663  0.1867  0.3717 -0.9116
 7546TIP3   OH244128   5.101   1.488  16.280  0.1134 -0.3064  0.1519
 7546TIP3    H144129   5.005   1.494  16.284  0.2442  1.9924  2.4832
 7546TIP3    H244130   5.126   1.448  16.364  1.2336 -0.8524 -0.4137
 7547TIP3   OH244131   4.220   4.641   0.038 -0.5006  0.1439 -0.3470
 7547TIP3    H144132   4.148   4.700   0.061 -0.0417  0.7298 -0.3610
 7547TIP3    H244133   4.299   4.690   0.063 -0.0873 -0.2503 -0.8665
 7548TIP3   OH244134   4.546   2.494  11.374 -0.0684 -0.5853  0.1632
 7548TIP3    H144135   4.500   2.419  11.412 -1.8494  1.5045  2.4844
 7548TIP3    H244136   4.618   2.512  11.434 -0.1637  0.0334  0.1067
 7549TIP3   OH244137   5.459   6.215   4.202  0.2046 -0.2513 -0.7948
 7549TIP3    H144138   5.379   6.165   4.187  0.1911 -0.7651  0.8355
 7549TIP3    H244139   5.467   6.221   4.297  1.9988 -0.0265 -0.9131
 7550TIP3   OH244140   2.716   1.549  11.990 -0.3646 -0.7292 -0.3498
 7550TIP3    H144141   2.715   1.565  11.896  2.8759  1.4249 -0.1950
 7550TIP3    H244142   2.807   1.562  12.015 -1.3389  0.2202  3.3006
 7551TIP3   OH244143   1.585   1.746  11.571 -0.0751 -0.2137  0.0370
 7551TIP3    H144144   1.651   1.771  11.636 -0.1721  0.2995 -0.0617
 7551TIP3    H244145   1.618   1.782  11.489 -0.8270  0.6518  0.1053
 7552TIP3   OH244146   1.466   2.542   3.218 -0.1435  0.6799  0.1627
 7552TIP3    H144147   1.390   2.495   3.253 -0.2247  0.2555 -0.5705
 7552TIP3    H244148   1.541   2.487   3.241 -0.0924  0.9108  0.5557
 7553TIP3   OH244149   1.383   1.575  12.674 -0.4588  0.8521  0.1155
 7553TIP3    H144150   1.469   1.614  12.689  0.3611 -0.0295 -1.8687
 7553TIP3    H244151   1.342   1.633  12.610 -0.7450  0.4943 -0.0292
 7554TIP3   OH244152   6.486   2.443  16.704  0.0185  0.1236 -0.2113
 7554TIP3    H144153   6.460   2.351  16.712  0.1868 -0.1056 -1.8899
 7554TIP3    H244154   6.404   2.491  16.697 -0.0889  0.1950  1.2564
 7555TIP3   OH244155   0.028   0.247  11.899 -0.5971 -0.0426  0.0160
 7555TIP3    H144156   0.056   0.261  11.809 -0.0466 -1.0581  0.0217
 7555TIP3    H244157   0.057   0.325  11.946 -2.7960  1.5427 -1.0673
 7556TIP3   OH244158   6.114   6.503  12.504 -0.9728  0.1272 -0.3057
 7556TIP3    H144159   6.107   6.565  12.431 -1.6500 -1.7253 -1.8878
 7556TIP3    H244160   6.178   6.439  12.474  1.0832  0.9289  2.0266
 7557TIP3   OH244161   1.075   0.921  13.611  0.2615 -0.1556  0.6462
 7557TIP3    H144162   1.147   0.960  13.661 -0.0067  1.1721  0.0609
 7557TIP3    H244163   1.117   0.852  13.559  0.4965 -1.7405  2.8134
 7558TIP3   OH244164   3.637   0.862  11.887 -0.1782 -0.2509 -0.0564
 7558TIP3    H144165   3.732   0.875  11.887 -0.1711 -0.2866  0.4116
 7558TIP3    H244166   3.615   0.846  11.795  0.1926  0.3045 -0.2462
 7559TIP3   OH244167   2.571   4.152  15.914 -0.0226 -0.0057 -0.0007
 7559TIP3    H144168   2.646   4.127  15.967  0.4971  1.3667 -0.0377
 7559TIP3    H244169   2.597   4.133  15.824 -0.2075 -0.6790  0.0875
 7560TIP3   OH244170   6.299   6.694   2.509  0.3929 -0.0202 -0.3371
 7560TIP3    H144171   6.226   6.755   2.501  0.0637 -0.3283  0.2138
 7560TIP3    H244172   6.284   6.650   2.593  1.0834 -0.2526 -0.3284
 7561TIP3   OH244173   5.855   3.208   0.467  0.0678 -0.1816  0.1104
 7561TIP3    H144174   5.923   3.272   0.489 -0.0399 -0.4726  1.3885
 7561TIP3    H244175   5.903   3.126   0.454 -0.0230 -0.4134  1.1295
 7562TIP3   OH244176   4.908   3.259   3.280 -0.0437  0.2060 -0.2030
 7562TIP3    H144177   4.922   3.186   3.340 -1.8700 -0.4811 -0.5482
 7562TIP3    H244178   4.973   3.324   3.306  1.9948 -1.7017 -0.2182
 7563TIP3   OH244179   2.383   3.895  12.488 -0.1987 -0.4358  0.2406
 7563TIP3    H144180   2.392   3.838  12.565  0.6672 -0.0313  0.4539
 7563TIP3    H244181   2.299   3.938  12.500 -0.6359 -1.3094  0.3268
 7564TIP3   OH244182   5.539   3.109  14.893  0.0461 -0.2778  0.3066
 7564TIP3    H144183   5.487   3.076  14.820  0.0714 -1.0166  0.6214
 7564TIP3    H244184   5.552   3.202  14.873 -0.8389 -0.2364 -0.0969
 7565TIP3   OH244185   0.498   0.153   6.123 -0.0035  0.0367  0.2212
 7565TIP3    H144186   0.500   0.058   6.122 -0.6481  0.0134  0.6380
 7565TIP3    H244187   0.430   0.175   6.188 -0.3013  0.7668 -0.3252
 7566TIP3   OH244188   6.311   4.251   0.144 -0.2354  0.2912 -0.3486
 7566TIP3    H144189   6.265   4.279   0.223  0.7028 -0.6584  0.5770
 7566TIP3    H244190   6.263   4.292   0.072 -1.3750  0.8325  0.6829
 7567TIP3   OH244191   0.863   5.581  12.497 -0.0645  0.3369  0.2619
 7567TIP3    H144192   0.944   5.536  12.522 -0.3372  0.1409  0.8138
 7567TIP3    H244193   0.890   5.671  12.480  0.4048  0.0846 -0.3734
 7568TIP3   OH244194   5.163   4.472  13.722 -0.4210 -0.1631 -0.5051
 7568TIP3    H144195   5.093   4.410  13.704 -1.5869  1.2814 -1.1336
 7568TIP3    H244196   5.176   4.519  13.640  0.9185 -0.0356 -0.2427
 7569TIP3   OH244197   6.089   3.521   6.042 -0.0407 -0.1803 -0.9074
 7569TIP3    H144198   6.017   3.573   6.008  0.5994 -0.1204 -2.2442
 7569TIP3    H244199   6.074   3.433   6.007 -1.0278 -0.9196  1.2038
 7570TIP3   OH244200   0.916   5.429   3.997 -0.3381  0.1927 -0.0743
 7570TIP3    H144201   0.927   5.410   4.090  0.0872  0.2142 -0.1181
 7570TIP3    H244202   0.839   5.485   3.993  0.0657  0.7806  0.3383
 7571TIP3   OH244203   1.915   0.889   4.978  0.2506 -0.5487 -0.2364
 7571TIP3    H144204   1.853   0.962   4.985  1.3369  0.3461  0.2669
 7571TIP3    H244205   1.931   0.862   5.068  2.6366  1.0234 -0.1040
 7572TIP3   OH244206   4.238   1.521   3.796  0.0415  0.2618 -0.2987
 7572TIP3    H144207   4.153   1.535   3.838  1.2302 -1.2917  2.9246
 7572TIP3    H244208   4.218   1.464   3.722 -1.5802 -1.8554  1.6255
 7573TIP3   OH244209   4.794   2.505   2.294  0.3976  0.2726 -0.1235
 7573TIP3    H144210   4.731   2.559   2.246  0.7008  0.8450  0.1210
 7573TIP3    H244211   4.870   2.500   2.236  0.4258  0.2246 -0.0823
 7574TIP3   OH244212   3.430   6.445   1.102 -0.2569 -0.5319 -0.5109
 7574TIP3    H144213   3.491   6.447   1.175 -0.7814 -1.5853 -0.0167
 7574TIP3    H244214   3.368   6.516   1.121  1.0234  0.8451 -1.2515
 7575TIP3   OH244215   1.871   2.275  11.626  0.0611  0.5050  0.1193
 7575TIP3    H144216   1.823   2.236  11.699 -0.8971  1.4471  0.0026
 7575TIP3    H244217   1.959   2.290  11.661  0.2027 -0.9041  0.4435
 7576TIP3   OH244218   2.706   1.725   2.931  0.3684  0.0507 -0.3566
 7576TIP3    H144219   2.750   1.648   2.895 -0.9533 -0.5769 -0.7167
 7576TIP3    H244220   2.774   1.772   2.979  0.8574 -2.2270  1.3189
 7577TIP3   OH244221   6.395   3.072  16.056  0.9492 -0.0311  0.0207
 7577TIP3    H144222   6.348   3.074  15.972 -0.8838  1.6933  0.9945
 7577TIP3    H244223   6.468   3.133  16.045 -0.5957  1.9686  0.3095
 7578TIP3   OH244224   4.247   6.029   3.952 -0.6644 -0.1471  0.2718
 7578TIP3    H144225   4.263   6.118   3.984 -0.7307 -0.0571  0.0542
 7578TIP3    H244226   4.321   5.979   3.986 -0.4817  0.0481  0.1657
 7579TIP3   OH244227   5.724   2.906  16.449  0.3690 -0.0085  0.0979
 7579TIP3    H144228   5.660   2.951  16.394  0.0967 -0.5837 -0.0610
 7579TIP3    H244229   5.731   2.961  16.527 -0.3829  0.0147  0.1574
 7580TIP3   OH244230   0.723   4.594  10.785  0.0517  0.2178  0.3040
 7580TIP3    H144231   0.780   4.653  10.734  0.1459  0.4584  0.6838
 7580TIP3    H244232   0.746   4.506  10.754 -0.7287  0.4227 -0.9124
 7581TIP3   OH244233   1.633   0.480   0.990  0.1239  0.1171 -0.0086
 7581TIP3    H144234   1.560   0.432   1.029 -1.4919  2.8721  0.5943
 7581TIP3    H244235   1.606   0.497   0.900  0.1333  0.9061  0.1307
 7582TIP3   OH244236   0.491   2.347   2.756 -0.2219 -0.4858  0.5684
 7582TIP3    H144237   0.569   2.370   2.808 -0.7048  0.1423  1.0251
 7582TIP3    H244238   0.526   2.299   2.681  0.6393  0.0474  0.6123
 7583TIP3   OH244239   2.555   1.782  12.789 -0.2274  0.0769  0.5962
 7583TIP3    H144240   2.519   1.719  12.852  0.6134 -0.3242  0.7052
 7583TIP3    H244241   2.518   1.866  12.814 -1.9357 -0.4675  0.0168
 7584TIP3   OH244242   2.100   4.050   4.676  0.0920 -0.0792 -0.1489
 7584TIP3    H144243   2.090   4.058   4.771  0.6590  0.8110 -0.1517
 7584TIP3    H244244   2.089   4.140   4.644 -0.0876 -0.3746 -0.9237
 7585TIP3   OH244245   3.934   1.747  15.522 -0.2654 -0.1057  0.1958
 7585TIP3    H144246   3.868   1.753  15.453  1.5690 -0.2306 -1.6754
 7585TIP3    H244247   3.995   1.681  15.491  0.0832 -0.9602  2.4943
 7586TIP3   OH244248   3.898   2.286  15.025  0.5350 -0.0858  0.0152
 7586TIP3    H144249   3.871   2.251  14.940 -1.5008  1.6366 -0.1366
 7586TIP3    H244250   3.936   2.372  15.005 -0.9367  0.8060  0.8865
 7587TIP3   OH244251   0.323   6.753  13.048  0.0595 -0.2907 -0.3629
 7587TIP3    H144252   0.417   6.767  13.063 -0.0202 -1.0196  0.9985
 7587TIP3    H244253   0.282   6.768  13.133 -1.2754  1.4431 -1.2517
 7588TIP3   OH244254   4.799   5.564   3.685  0.2273  0.4297  0.2479
 7588TIP3    H144255   4.886   5.558   3.645  0.2664  1.5507  0.1435
 7588TIP3    H244256   4.813   5.617   3.764 -0.1560 -0.3680  0.8685
 7589TIP3   OH244257   5.804   6.142  13.033 -0.2323  0.1784  0.2325
 7589TIP3    H144258   5.892   6.107  13.024  0.4707  1.7525  0.7216
 7589TIP3    H244259   5.779   6.166  12.944  0.1546  0.4894  0.2086
 7590TIP3   OH244260   1.343   4.928  16.494  0.3876  0.0775  0.1982
 7590TIP3    H144261   1.387   4.921  16.579  2.4853  1.2040 -0.7121
 7590TIP3    H244262   1.285   5.002  16.503 -2.3386 -2.0672  1.7632
 7591TIP3   OH244263   0.462   3.959  12.665  0.1317  0.7315 -0.2414
 7591TIP3    H144264   0.431   4.014  12.593 -1.5053  0.5492  0.2950
 7591TIP3    H244265   0.391   3.897  12.681  1.4287 -0.7692 -0.0094
 7592TIP3   OH244266   4.931   0.113   0.704  0.3669  0.3320 -0.5663
 7592TIP3    H144267   4.841   0.146   0.694  0.3472  0.8748  1.1456
 7592TIP3    H244268   4.920   0.029   0.749  0.6833  0.0160 -1.0731
 7593TIP3   OH244269   3.989   2.375  15.316 -0.0170 -0.0120 -0.1138
 7593TIP3    H144270   4.043   2.306  15.277  0.6679  0.2155  0.3974
 7593TIP3    H244271   3.912   2.330  15.350 -0.4030 -0.2717 -1.3048
 7594TIP3   OH244272   4.395   4.422  14.240 -0.1708  0.1065  0.1673
 7594TIP3    H144273   4.394   4.507  14.197 -0.9533 -0.3922 -0.8587
 7594TIP3    H244274   4.467   4.427  14.302 -0.2480  1.5340  0.1767
 7595TIP3   OH244275   6.261   5.932  11.454  0.2481 -0.5237  0.2462
 7595TIP3    H144276   6.248   5.974  11.369 -0.7613 -1.5301 -0.1184
 7595TIP3    H244277   6.316   5.856  11.435  1.3492  0.1112  0.7699
 7596TIP3   OH244278   0.605   6.004  16.650 -0.2822  0.2004 -0.2869
 7596TIP3    H144279   0.643   6.045  16.572  1.0887 -0.1000  0.1993
 7596TIP3    H244280   0.531   5.953  16.616 -0.1995  0.7245 -1.2784
 7597TIP3   OH244281   6.375   6.785  15.986 -0.2574  0.6001  0.3994
 7597TIP3    H144282   6.458   6.821  15.954 -0.2541  0.9006  0.7460
 7597TIP3    H244283   6.308   6.842  15.948 -0.4617 -0.8846 -1.6474
 7598TIP3   OH244284   4.979   0.400   3.752 -0.3758  0.3176  0.0983
 7598TIP3    H144285   4.981   0.481   3.702 -0.0826  0.3854  0.2179
 7598TIP3    H244286   5.071   0.379   3.768 -0.4591  0.1380  0.3529
 7599TIP3   OH244287   4.226   6.562  11.507  0.0505 -0.3368  0.2296
 7599TIP3    H144288   4.299   6.602  11.554  0.1980  0.9796 -1.0367
 7599TIP3    H244289   4.263   6.484  11.466  0.0024 -1.2950  1.9422
 7600TIP3   OH244290   5.611   3.931   5.086  0.0342  0.0227  0.6116
 7600TIP3    H144291   5.674   4.002   5.074  0.8981 -0.6608  1.0129
 7600TIP3    H244292   5.548   3.943   5.015  0.3963  0.9379  0.4251
 7601TIP3   OH244293   4.278   0.278   3.637 -0.8971 -0.2205 -0.2343
 7601TIP3    H144294   4.199   0.250   3.683 -0.7994  0.1911  0.1959
 7601TIP3    H244295   4.272   0.239   3.550 -1.8676  0.2988 -0.4091
 7602TIP3   OH244296   3.960   5.613   3.496  0.3231 -0.6845 -0.7401
 7602TIP3    H144297   3.876   5.654   3.475  0.3587 -1.0281 -1.5740
 7602TIP3    H244298   3.936   5.530   3.537  0.2610 -0.2108  0.2354
 7603TIP3   OH244299   5.599   3.927   0.436 -0.1095 -0.1035  0.3902
 7603TIP3    H144300   5.642   3.935   0.521 -0.8263  0.4923  0.7151
 7603TIP3    H244301   5.613   4.012   0.394  2.1806 -1.1291 -1.0668
 7604TIP3   OH244302   2.908   2.657   4.243 -0.6562 -0.2087 -0.6026
 7604TIP3    H144303   2.909   2.561   4.240  0.6708 -0.2062 -1.0911
 7604TIP3    H244304   2.968   2.683   4.173  1.0973  0.9026  1.2019
 7605TIP3   OH244305   5.420   4.672  17.116  0.8237 -0.2856 -0.0366
 7605TIP3    H144306   5.379   4.586  17.113  1.8023 -0.7459 -0.9061
 7605TIP3    H244307   5.390   4.716  17.036  1.9704 -0.6223 -0.6758
 7606TIP3   OH244308   1.386   6.834   6.241 -0.1507 -0.1510 -0.1910
 7606TIP3    H144309   1.340   6.888   6.305 -0.3340  0.9417 -1.2199
 7606TIP3    H244310   1.479   6.848   6.261 -0.1232  1.9249 -1.4875
 7607TIP3   OH244311   5.417   5.388   0.331  0.1675 -0.5975  0.0060
 7607TIP3    H144312   5.351   5.458   0.321  0.2381 -0.4329  0.6708
 7607TIP3    H244313   5.491   5.418   0.278 -0.5879 -1.1880 -1.4549
 7608TIP3   OH244314   4.986   4.841  15.523 -0.0910 -0.6437 -0.2392
 7608TIP3    H144315   4.988   4.791  15.604 -1.1420 -2.5543 -1.3124
 7608TIP3    H244316   4.902   4.888  15.527  0.6185  0.6367  0.4874
 7609TIP3   OH244317   3.248   1.863  15.522 -0.2617 -1.1405  0.4613
 7609TIP3    H144318   3.326   1.902  15.563 -0.2200 -1.1090  0.3543
 7609TIP3    H244319   3.240   1.910  15.439  1.0933 -2.8575 -0.7071
 7610TIP3   OH244320   2.672   4.944   5.870 -0.2794 -0.3353  0.6664
 7610TIP3    H144321   2.733   4.911   5.804  0.6131  0.6566  0.9618
 7610TIP3    H244322   2.690   4.893   5.948  1.9349  1.5115  1.4822
 7611TIP3   OH244323   3.458   0.878  11.026  0.1018  0.0941 -0.3083
 7611TIP3    H144324   3.496   0.963  11.050 -2.2161  1.0006  0.3473
 7611TIP3    H244325   3.462   0.876  10.931  1.2862  0.3637 -0.2881
 7612TIP3   OH244326   3.855   6.726  12.772  0.3040 -0.3036 -0.1399
 7612TIP3    H144327   3.760   6.714  12.762  0.1799  1.4429 -1.5487
 7612TIP3    H244328   3.878   6.671  12.847 -1.8271 -0.7186  0.2869
 7613TIP3   OH244329   1.798   5.998  14.789  0.1766 -0.3355 -0.2178
 7613TIP3    H144330   1.844   6.042  14.860  3.8000 -1.5299 -1.5850
 7613TIP3    H244331   1.797   5.906  14.814 -1.3414 -0.3798 -0.3598
 7614TIP3   OH244332   4.523   2.243  12.960  0.1038  0.0155  0.1205
 7614TIP3    H144333   4.582   2.167  12.962 -1.3890 -1.1517  1.4566
 7614TIP3    H244334   4.468   2.228  12.883  0.0965 -0.0070  0.1301
 7615TIP3   OH244335   4.113   2.612   4.771 -0.3419  0.1209  0.3253
 7615TIP3    H144336   4.032   2.629   4.819 -0.4561  1.4257 -0.2914
 7615TIP3    H244337   4.172   2.682   4.799  0.9015 -1.3109  1.4344
 7616TIP3   OH244338   3.188   0.620   3.166 -0.3188  0.2823  0.6417
 7616TIP3    H144339   3.218   0.557   3.101  1.2529  0.9149  0.6923
 7616TIP3    H244340   3.113   0.578   3.207 -1.4091 -0.0919 -1.6001
 7617TIP3   OH244341   0.656   2.631   4.271  0.5641 -0.2301 -0.1163
 7617TIP3    H144342   0.725   2.671   4.323  0.7092 -0.8342  0.1696
 7617TIP3    H244343   0.643   2.691   4.197  2.6954 -0.9896 -1.1948
 7618TIP3   OH244344   1.315   1.954  12.398  1.1706 -0.1906 -0.0071
 7618TIP3    H144345   1.375   2.013  12.352  0.0228  1.1556  0.1625
 7618TIP3    H244346   1.242   2.010  12.424 -0.7605 -1.9776 -1.2298
 7619TIP3   OH244347   1.551   1.247  10.954  0.0155 -0.5016 -0.2412
 7619TIP3    H144348   1.586   1.284  10.873  2.3838 -0.3128  0.7794
 7619TIP3    H244349   1.506   1.167  10.927 -0.5464  0.3244 -1.8746
 7620TIP3   OH244350   6.194   5.442  11.244  0.2405 -0.3212  0.1202
 7620TIP3    H144351   6.172   5.369  11.300 -1.7467 -0.7816 -1.1437
 7620TIP3    H244352   6.161   5.519  11.290 -0.0366 -0.5292  0.2692
 7621TIP3   OH244353   6.015   5.965   6.531 -0.3389  0.5843  0.6655
 7621TIP3    H144354   6.008   5.884   6.582  1.0947 -0.2488 -0.3710
 7621TIP3    H244355   6.016   6.035   6.596  0.1328 -0.3520  1.6958
 7622TIP3   OH244356   3.594   2.972  16.933  0.2889 -0.2995 -0.5503
 7622TIP3    H144357   3.652   3.048  16.940  0.1360 -0.1492 -0.8851
 7622TIP3    H244358   3.620   2.930  16.851  0.1484 -0.4200 -0.5332
 7623TIP3   OH244359   5.394   3.579  11.412 -0.2207 -0.1812  0.6005
 7623TIP3    H144360   5.390   3.608  11.320  0.4324 -3.3283 -0.5397
 7623TIP3    H244361   5.314   3.615  11.451 -1.3864 -0.0850 -1.6519
 7624TIP3   OH244362   5.807   2.655  13.606  0.5560 -0.3734  0.1199
 7624TIP3    H144363   5.712   2.656  13.603  0.5486  1.0969  0.1677
 7624TIP3    H244364   5.834   2.734  13.559  1.8345 -1.7344 -1.5811
 7625TIP3   OH244365   5.549   3.103  13.085 -0.5230  0.1315  0.4270
 7625TIP3    H144366   5.591   3.189  13.078 -2.7179  1.3890  1.4771
 7625TIP3    H244367   5.572   3.058  13.005  1.7092  1.2204  0.3885
 7626TIP3   OH244368   3.191   1.390   3.721 -0.7270  0.1877  0.1344
 7626TIP3    H144369   3.140   1.391   3.640 -0.9810 -1.5496  0.2308
 7626TIP3    H244370   3.180   1.301   3.755  1.0164  0.2810  1.0362
 7627TIP3   OH244371   5.435   1.330  12.602  0.0405  1.0831 -0.4433
 7627TIP3    H144372   5.528   1.319  12.619  0.6948 -0.4362 -3.9568
 7627TIP3    H244373   5.394   1.251  12.637 -0.0848  1.9321  1.4577
 7628TIP3   OH244374   1.992   1.037   5.785  0.1625  0.4959  0.3145
 7628TIP3    H144375   1.957   0.990   5.709 -1.8150  0.4278  1.2077
 7628TIP3    H244376   1.980   1.130   5.763 -2.0178  0.4734  1.1763
 7629TIP3   OH244377   4.371   2.362   3.860 -0.1781  0.5413 -0.1545
 7629TIP3    H144378   4.325   2.359   3.777  1.8292  1.8684 -1.4086
 7629TIP3    H244379   4.400   2.272   3.875  1.3312  0.6563 -2.0714
 7630TIP3   OH244380   0.532   0.734  11.675 -0.2447 -0.2936  0.5989
 7630TIP3    H144381   0.611   0.746  11.727 -1.1290 -2.3358  2.5426
 7630TIP3    H244382   0.461   0.764  11.731 -1.0717 -0.6785 -0.2099
 7631TIP3   OH244383   5.445   0.345   4.923 -0.1492  0.6753  0.5475
 7631TIP3    H144384   5.526   0.346   4.974 -0.3544 -2.3601  1.0802
 7631TIP3    H244385   5.468   0.386   4.839  1.7024  0.5482  0.9668
 7632TIP3   OH244386   4.381   5.257  10.561  0.0344 -0.5785 -0.0345
 7632TIP3    H144387   4.390   5.299  10.646  2.3543 -1.0535  0.0056
 7632TIP3    H244388   4.450   5.191  10.559  1.0832  0.4644 -2.8805
 7633TIP3   OH244389   0.267   3.959  16.656  0.4427 -0.1232 -0.0925
 7633TIP3    H144390   0.359   3.983  16.666  1.3993 -3.1996 -0.4311
 7633TIP3    H244391   0.255   3.950  16.561  0.2491 -1.1710  0.0170
 7634TIP3   OH244392   0.800   3.770  17.126 -0.3164  0.2337  0.4326
 7634TIP3    H144393   0.872   3.832  17.112  0.1192 -0.5419 -1.0297
 7634TIP3    H244394   0.812   3.704  17.057 -0.8874 -1.3630  1.7979
 7635TIP3   OH244395   4.382   2.246   3.257  0.5075  0.6235  0.2253
 7635TIP3    H144396   4.456   2.190   3.280 -0.0022  0.3025  1.1574
 7635TIP3    H244397   4.422   2.326   3.223  1.2674  0.1563 -0.0045
 7636TIP3   OH244398   2.247   3.385   5.842  0.1293  0.7517  0.1818
 7636TIP3    H144399   2.283   3.464   5.802 -0.7607  0.8119 -0.5362
 7636TIP3    H244400   2.208   3.337   5.769  0.4882 -0.2653  0.6352
 7637TIP3   OH244401   0.878   0.054   3.078 -0.2185 -0.0014 -0.1275
 7637TIP3    H144402   0.946   0.034   3.014 -0.3335  0.0797 -0.2733
 7637TIP3    H244403   0.894   0.145   3.103 -0.1970 -0.0211 -0.0704
 7638TIP3   OH244404   4.644   0.897  13.597  0.2539  0.3048 -0.2611
 7638TIP3    H144405   4.732   0.915  13.631 -0.5888  3.7662  0.4627
 7638TIP3    H244406   4.594   0.869  13.673 -0.1100  1.9344  0.1301
 7639TIP3   OH244407   2.149   6.476   3.672  0.2786 -0.7309  0.0039
 7639TIP3    H144408   2.153   6.558   3.624  1.6315 -0.8093 -0.0320
 7639TIP3    H244409   2.081   6.425   3.627  1.4475 -0.7762 -1.7928
 7640TIP3   OH244410   0.817   0.302  16.284  0.3702  0.0360  0.0178
 7640TIP3    H144411   0.832   0.221  16.236 -0.3314 -0.2236  0.2355
 7640TIP3    H244412   0.766   0.276  16.361  0.0753  0.6950  0.0491
 7641TIP3   OH244413   1.626   0.875   2.866 -0.4767  0.3054  0.1320
 7641TIP3    H144414   1.568   0.878   2.790 -0.5816  1.5722  0.2442
 7641TIP3    H244415   1.605   0.792   2.909  0.6013 -1.1649 -1.9802
 7642TIP3   OH244416   3.983   1.289  13.760  0.1379 -0.2589  0.0314
 7642TIP3    H144417   4.012   1.379  13.777  1.9925 -1.0220  1.1942
 7642TIP3    H244418   3.961   1.254  13.846  0.7462 -1.3318 -0.2331
 7643TIP3   OH244419   5.331   6.083   3.177  0.4629  0.0158 -0.0295
 7643TIP3    H144420   5.302   6.058   3.089  0.2633  1.4662 -0.4102
 7643TIP3    H244421   5.384   6.162   3.163  1.7086 -0.6053  1.0067
 7644TIP3   OH244422   2.944   1.865  15.358 -0.0632 -0.2913 -0.0300
 7644TIP3    H144423   2.945   1.827  15.270  0.3276 -0.3761  0.0087
 7644TIP3    H244424   3.005   1.938  15.353  0.7845 -0.9447  0.4493
 7645TIP3   OH244425   3.125   3.746   0.076 -0.1327 -0.4074  0.2796
 7645TIP3    H144426   3.053   3.735   0.138 -0.3732  0.1172  0.1039
 7645TIP3    H244427   3.121   3.669   0.020 -0.7230 -0.2598  0.1120
 7646TIP3   OH244428   5.189   4.395  14.028  0.1488 -0.5568 -0.0939
 7646TIP3    H144429   5.108   4.368  14.071 -0.1636 -0.7385 -0.7763
 7646TIP3    H244430   5.162   4.418  13.939  1.1435 -2.6262 -1.0085
 7647TIP3   OH244431   3.596   6.051   4.720 -0.7064 -0.0418 -0.5006
 7647TIP3    H144432   3.667   6.104   4.755  1.3929 -0.8165 -3.2463
 7647TIP3    H244433   3.519   6.080   4.769  1.3325  1.1671  2.3138
 7648TIP3   OH244434   4.878   6.278  12.757  0.3106  0.2947 -0.2383
 7648TIP3    H144435   4.789   6.288  12.791 -0.2224 -1.5543 -0.9848
 7648TIP3    H244436   4.909   6.368  12.745 -0.6017  1.0151  2.1187
 7649TIP3   OH244437   1.710   4.845  13.821 -0.3157  0.7443 -0.4121
 7649TIP3    H144438   1.774   4.913  13.840 -0.6397  1.1319 -0.7061
 7649TIP3    H244439   1.715   4.786  13.896 -0.4337  1.3895  0.1108
 7650TIP3   OH244440   2.875   5.325  17.017 -0.1090 -0.8904 -0.1805
 7650TIP3    H144441   2.942   5.291  16.957  1.2856 -0.7113  1.2307
 7650TIP3    H244442   2.918   5.329  17.102 -2.0650 -1.2301  0.8918
 7651TIP3   OH244443   0.125   4.619  16.769  0.3370 -0.2629 -0.9623
 7651TIP3    H144444   0.045   4.646  16.815  1.4560 -0.3919  1.1472
 7651TIP3    H244445   0.139   4.688  16.704 -1.5494 -0.3137 -1.4858
 7652TIP3   OH244446   0.847   5.490   1.073  0.1347 -0.7485 -0.1039
 7652TIP3    H144447   0.867   5.444   0.991 -0.3813  2.5616 -2.2537
 7652TIP3    H244448   0.780   5.553   1.050  1.6811  1.9952  2.2623
 7653TIP3   OH244449   2.968   3.505  10.906 -0.4487 -0.1173  0.3423
 7653TIP3    H144450   2.988   3.416  10.876 -0.7482  0.1817 -0.7734
 7653TIP3    H244451   2.995   3.506  10.998  0.5070 -1.0540  0.0856
 7654TIP3   OH244452   6.610   4.623   3.686  0.3065 -0.5586  0.6742
 7654TIP3    H144453   6.557   4.574   3.748 -0.3726 -2.0401 -0.9925
 7654TIP3    H244454   6.700   4.597   3.704  0.3897  0.8501  2.5505
 7655TIP3   OH244455   3.955   2.937   2.946 -0.0333 -0.1039  0.2317
 7655TIP3    H144456   4.025   2.978   2.996 -0.6978 -1.9998  2.9467
 7655TIP3    H244457   3.994   2.856   2.913 -0.6041 -0.6206  0.8036
 7656TIP3   OH244458   0.221   3.531   1.762 -0.0645 -0.4192  0.3977
 7656TIP3    H144459   0.250   3.454   1.714  0.2968  0.0259 -0.1179
 7656TIP3    H244460   0.270   3.603   1.722 -0.0377  0.0099  1.1909
 7657TIP3   OH244461   0.815   6.773  14.189 -0.4461  0.2575 -0.4444
 7657TIP3    H144462   0.792   6.790  14.098 -0.5366 -2.4384 -0.9994
 7657TIP3    H244463   0.761   6.698  14.214 -0.6184  1.0802  1.9517
 7658TIP3   OH244464   5.419   0.610   3.827  0.1047 -0.3200  0.0684
 7658TIP3    H144465   5.511   0.597   3.852  0.1507 -0.5268 -0.2007
 7658TIP3    H244466   5.400   0.699   3.853  0.4311 -0.2244 -0.0104
 7659TIP3   OH244467   3.522   5.419   4.452 -0.3419  0.2353  0.1559
 7659TIP3    H144468   3.512   5.332   4.415 -0.3855  0.0007  0.7127
 7659TIP3    H244469   3.588   5.409   4.521  0.4789  0.8671 -0.5166
 7660TIP3   OH244470   2.239   5.640   2.668  0.5352  0.2756 -0.3057
 7660TIP3    H144471   2.273   5.593   2.743  1.1819  1.7355  0.3418
 7660TIP3    H244472   2.299   5.714   2.655 -0.9879  1.5178 -0.6411
 7661TIP3   OH244473   1.955   1.699   2.588 -0.3743  0.2843  0.4457
 7661TIP3    H144474   1.974   1.647   2.510  0.3879  1.3842 -0.1231
 7661TIP3    H244475   2.032   1.688   2.644  0.3590  1.7369 -0.2173
 7662TIP3   OH244476   2.881   0.065   4.132 -0.3054  0.0155 -0.1768
 7662TIP3    H144477   2.866   0.055   4.227 -1.5286 -1.1183 -0.4440
 7662TIP3    H244478   2.850   0.153   4.112 -0.9615 -0.0846  0.3373
 7663TIP3   OH244479   3.371   1.858  13.878 -0.0158  0.5972 -0.0383
 7663TIP3    H144480   3.311   1.814  13.938  0.0017 -0.5001 -0.8017
 7663TIP3    H244481   3.419   1.920  13.933  0.9717 -1.3283  1.3844
 7664TIP3   OH244482   3.255   4.509  12.909 -0.2378  0.6374  0.4956
 7664TIP3    H144483   3.171   4.543  12.939 -0.4983  0.7678 -0.3549
 7664TIP3    H244484   3.266   4.545  12.822  1.4074  1.8089  1.1411
 7665TIP3   OH244485   6.330   4.810  15.201 -0.1849 -0.4955 -0.2810
 7665TIP3    H144486   6.304   4.718  15.192 -0.1426 -0.4727 -0.6976
 7665TIP3    H244487   6.301   4.835  15.288 -0.8492 -0.7005 -0.4355
 7666TIP3   OH244488   4.220   4.428  16.609 -0.2439 -0.0149 -0.2930
 7666TIP3    H144489   4.186   4.457  16.693  1.4443  1.0051  0.0847
 7666TIP3    H244490   4.147   4.383  16.567 -1.4199  0.3848  1.2670
 7667TIP3   OH244491   0.003   1.477  13.555  0.2587 -0.0205  0.2283
 7667TIP3    H144492  -0.086   1.506  13.578  0.0507 -0.3427 -0.1454
 7667TIP3    H244493   0.055   1.493  13.633  0.4857  2.7020 -0.3634
 7668TIP3   OH244494   5.967   4.382   3.838  0.3601 -0.1184 -0.0915
 7668TIP3    H144495   5.980   4.288   3.824 -0.9976 -0.0839 -2.0373
 7668TIP3    H244496   6.026   4.424   3.775  1.8217  0.3924  1.5742
 7669TIP3   OH244497   4.086   5.871   1.377 -0.2907  0.8542  0.2234
 7669TIP3    H144498   4.083   5.952   1.326  0.0940 -0.0091 -1.2203
 7669TIP3    H244499   4.173   5.835   1.361 -1.2229 -0.9939 -1.0619
 7670TIP3   OH244500   2.324   1.165  15.344  0.2023  0.1297 -0.4485
 7670TIP3    H144501   2.371   1.212  15.413  0.5051 -0.4161 -0.2761
 7670TIP3    H244502   2.254   1.119  15.390 -0.2638  0.6176 -0.6525
 7671TIP3   OH244503   0.793   5.807  16.293 -0.0232  0.4444  0.2333
 7671TIP3    H144504   0.727   5.801  16.224  0.0833  0.5448  0.1221
 7671TIP3    H244505   0.761   5.876  16.351  1.9154  3.4368 -1.9474
 7672TIP3   OH244506   6.149   3.770   0.176  0.1755 -0.1048  0.3130
 7672TIP3    H144507   6.191   3.843   0.220  1.1135 -0.7069  0.4505
 7672TIP3    H244508   6.116   3.715   0.247 -0.1761 -0.0247  0.2164
 7673TIP3   OH244509   4.925   0.414   2.651 -0.0068 -0.1657  0.1205
 7673TIP3    H144510   4.913   0.387   2.560  1.3446 -1.8248  0.3810
 7673TIP3    H244511   4.994   0.357   2.684  0.6706  1.5048  1.7394
 7674TIP3   OH244512   5.352   3.388   4.473 -0.0644  0.1693  0.3774
 7674TIP3    H144513   5.413   3.393   4.547 -0.7867 -0.4604  1.0328
 7674TIP3    H244514   5.338   3.295   4.459 -0.3379  0.2939 -0.2302
 7675TIP3   OH244515   4.683   0.638   0.446  0.3404 -0.1688 -0.3879
 7675TIP3    H144516   4.651   0.683   0.367  0.4658  0.7297  0.0626
 7675TIP3    H244517   4.726   0.707   0.496  1.3429 -0.9948 -0.1074
 7676TIP3   OH244518   6.761   6.787  13.869 -0.2418  0.4164  0.1577
 7676TIP3    H144519   6.708   6.780  13.790  1.5523  1.4508 -1.2162
 7676TIP3    H244520   6.851   6.784  13.838  0.5297  0.4331  2.2294
 7677TIP3   OH244521   2.117   0.548  11.405 -0.1600 -0.1781 -0.3656
 7677TIP3    H144522   2.037   0.600  11.415 -1.0999 -1.7912  1.0658
 7677TIP3    H244523   2.127   0.538  11.311  0.2225  2.7559 -0.7266
 7678TIP3   OH244524   0.629   3.511  16.932  0.3393  0.3234 -0.4976
 7678TIP3    H144525   0.560   3.562  16.889 -0.0073 -0.4335 -0.8534
 7678TIP3    H244526   0.699   3.506  16.867  1.2119  2.0015  0.2389
 7679TIP3   OH244527   6.255   2.476  16.471 -0.0946  0.2357 -0.6094
 7679TIP3    H144528   6.198   2.553  16.462 -0.5085  0.3855  2.3520
 7679TIP3    H244529   6.195   2.401  16.468 -0.6906  0.4131  2.9957
 7680TIP3   OH244530   5.638   4.869   6.053  0.0410 -0.0993 -0.6016
 7680TIP3    H144531   5.596   4.925   6.118  0.8756  0.0536 -0.1742
 7680TIP3    H244532   5.579   4.870   5.978 -0.5174  0.4134 -0.1625
 7681TIP3   OH244533   0.705   3.650   5.066 -0.5351  0.2639 -0.7464
 7681TIP3    H144534   0.642   3.663   5.137  0.3854  0.5562  0.0330
 7681TIP3    H244535   0.753   3.732   5.060  1.7543 -0.8708  0.6644
 7682TIP3   OH244536   6.133   4.849  14.528 -0.1934  0.1308 -0.1517
 7682TIP3    H144537   6.224   4.823  14.542  0.6253  1.8748 -1.8082
 7682TIP3    H244538   6.099   4.869  14.615  0.6525 -1.4985  0.6026
 7683TIP3   OH244539   1.774   2.730  15.504  0.0907  0.3534  0.1286
 7683TIP3    H144540   1.765   2.646  15.549  1.7346  0.5373  0.8712
 7683TIP3    H244541   1.795   2.792  15.574 -0.4047  1.2512 -0.5013
 7684TIP3   OH244542   3.636   1.907  12.529  0.5446  0.2620  0.3033
 7684TIP3    H144543   3.697   1.870  12.466 -0.6082  0.7349 -1.1332
 7684TIP3    H244544   3.618   1.995  12.497  0.3225  0.7103  1.5887
 7685TIP3   OH244545   2.838   3.435   2.388 -0.6119 -0.1699  0.0624
 7685TIP3    H144546   2.800   3.380   2.319  1.2693  0.5631 -1.6267
 7685TIP3    H244547   2.931   3.416   2.386 -0.2925  1.0935  1.3111
 7686TIP3   OH244548   6.665   5.223   1.959 -0.0692 -0.0528 -0.0286
 7686TIP3    H144549   6.640   5.185   2.043 -1.6045  0.0262 -0.4277
 7686TIP3    H244550   6.604   5.296   1.946  0.7653  0.5410 -0.7777
 7687TIP3   OH244551   5.642   3.080   1.945 -0.2697  0.2099  0.4078
 7687TIP3    H144552   5.637   3.002   2.000  2.7157 -0.6093 -0.3063
 7687TIP3    H244553   5.723   3.070   1.896  0.2843  3.8196  0.3154
 7688TIP3   OH244554   6.372   1.527  16.460  0.0036 -0.0370  0.2190
 7688TIP3    H144555   6.369   1.541  16.555  1.3191  1.8337  0.0412
 7688TIP3    H244556   6.451   1.475  16.446 -1.1184 -1.8089  0.2619
 7689TIP3   OH244557   1.360   1.543   1.872  0.3016 -0.4887 -0.2034
 7689TIP3    H144558   1.405   1.511   1.794 -1.9408 -1.2250 -1.2864
 7689TIP3    H244559   1.314   1.465   1.906 -1.0353  0.4286  0.1708
 7690TIP3   OH244560   1.754   1.374   2.046  0.1454 -0.1324  0.6391
 7690TIP3    H144561   1.686   1.359   1.980  1.2049 -0.8852 -0.3057
 7690TIP3    H244562   1.834   1.386   1.996  0.7085  0.9096  1.7338
 7691TIP3   OH244563   2.699   1.247  16.132  0.1430 -0.3188 -0.2144
 7691TIP3    H144564   2.687   1.156  16.108 -1.7608 -0.7619  2.0725
 7691TIP3    H244565   2.794   1.261  16.128  0.5452 -2.6110  0.0772
 7692TIP3   OH244566   4.381   4.124   0.904  0.3485 -0.0519  0.4324
 7692TIP3    H144567   4.294   4.084   0.902  0.4138 -0.1952 -1.0887
 7692TIP3    H244568   4.436   4.063   0.856  1.2064  0.2561  0.9988
 7693TIP3   OH244569   4.997   2.092   4.480  0.3455  0.6938 -0.1878
 7693TIP3    H144570   5.004   2.077   4.386  1.9643  1.3470 -0.2010
 7693TIP3    H244571   5.053   2.168   4.496  0.9458 -0.0548  1.4545
 7694TIP3   OH244572   0.613   1.775  16.606  0.0215 -0.3516  0.0150
 7694TIP3    H144573   0.648   1.847  16.659  0.1859  0.1274 -0.7282
 7694TIP3    H244574   0.658   1.783  16.522  3.7315 -4.1060  1.2494
 7695TIP3   OH244575   1.569   5.737   0.376 -0.1896 -0.1459  0.4775
 7695TIP3    H144576   1.508   5.759   0.306  0.3594 -1.3494 -0.3952
 7695TIP3    H244577   1.560   5.643   0.388  1.4502 -0.3527  0.3516
 7696TIP3   OH244578   4.890   2.352  17.157 -0.1457 -0.1564 -0.0039
 7696TIP3    H144579   4.829   2.304  17.101  0.3390 -0.9623  0.1440
 7696TIP3    H244580   4.853   2.440  17.162 -1.2909 -0.6230  0.0793
 7697TIP3   OH244581   5.094   3.760   4.496  0.0168  1.1729 -0.1928
 7697TIP3    H144582   5.113   3.789   4.407  1.0042 -0.0474 -0.4150
 7697TIP3    H244583   5.099   3.839   4.549  0.9064  1.6909 -1.0111
 7698TIP3   OH244584   3.349   3.772   1.320 -0.3806 -0.2582  0.1564
 7698TIP3    H144585   3.311   3.707   1.379 -0.6643  1.2496  1.7162
 7698TIP3    H244586   3.277   3.831   1.300  0.1251  0.1925 -0.3696
 7699TIP3   OH244587   5.266   1.079  16.472 -0.5312 -0.2359  0.1958
 7699TIP3    H144588   5.247   0.993  16.510  3.9225 -0.7235  1.9570
 7699TIP3    H244589   5.335   1.062  16.407  0.1961  1.9028  0.3259
 7700TIP3   OH244590   2.723   2.490  16.847 -0.8327 -0.2167 -0.3901
 7700TIP3    H144591   2.806   2.521  16.883 -1.5627  0.7382  0.5400
 7700TIP3    H244592   2.709   2.543  16.769 -1.0474  0.3527  0.0249
 7701TIP3   OH244593   3.608   2.680   3.113  0.9933 -0.1895  0.3233
 7701TIP3    H144594   3.701   2.658   3.119  0.7517 -0.9012  1.7726
 7701TIP3    H244595   3.605   2.775   3.117  1.5847 -0.2174  1.7703
 7702TIP3   OH244596   3.628   1.098  12.870 -0.0979  0.0687 -0.1688
 7702TIP3    H144597   3.672   1.169  12.824  1.9258 -1.0916 -0.1173
 7702TIP3    H244598   3.594   1.041  12.800  1.1380 -0.5835 -0.2736
 7703TIP3   OH244599   2.542   4.395   2.368  0.0802 -0.2350  0.2290
 7703TIP3    H144600   2.484   4.465   2.338 -0.1813 -0.0469  1.1583
 7703TIP3    H244601   2.625   4.413   2.324 -0.8152 -1.0944 -1.9309
 7704TIP3   OH244602   5.000   2.364   6.009 -0.5810  0.1265 -0.3780
 7704TIP3    H144603   5.077   2.312   5.987 -0.4098  0.4280 -0.4811
 7704TIP3    H244604   5.026   2.416   6.085  0.4806  2.8397 -2.4633
 7705TIP3   OH244605   5.910   5.322  11.327 -0.3951  0.3092 -0.1457
 7705TIP3    H144606   5.962   5.242  11.330 -0.2030  0.4230 -0.3422
 7705TIP3    H244607   5.921   5.361  11.413  1.0453  1.0676 -0.6362
 7706TIP3   OH244608   0.217   0.654  15.432  0.1605 -0.3615 -0.2818
 7706TIP3    H144609   0.129   0.692  15.444  0.5213  0.1054  1.1227
 7706TIP3    H244610   0.260   0.713  15.370 -0.7113 -0.9604 -1.4969
 7707TIP3   OH244611   0.216   0.969  12.253 -0.3457 -0.5810 -0.8764
 7707TIP3    H144612   0.217   0.939  12.344 -3.1821  1.1721 -0.1610
 7707TIP3    H244613   0.294   1.025  12.245  0.3103 -1.2886  0.2327
 7708TIP3   OH244614   1.645   5.092   4.840 -0.3799 -0.0047  0.3465
 7708TIP3    H144615   1.557   5.121   4.863 -0.6529 -0.7428  0.2634
 7708TIP3    H244616   1.695   5.101   4.921 -0.4254  0.7818  0.2973
 7709TIP3   OH244617   2.969   4.460  13.297 -0.0777 -0.6373 -0.1518
 7709TIP3    H144618   2.954   4.386  13.238 -0.7657 -2.8149  2.5422
 7709TIP3    H244619   3.064   4.465  13.304  0.2061  1.4274 -3.3315
 7710TIP3   OH244620   3.947   3.654  14.030 -0.5160  0.1121 -0.4378
 7710TIP3    H144621   3.885   3.641  14.101 -0.1066  0.1834 -0.0588
 7710TIP3    H244622   3.898   3.633  13.951 -0.7960 -0.5975 -0.0872
 7711TIP3   OH244623   0.434   1.759   5.070  0.2315 -0.0010 -0.1837
 7711TIP3    H144624   0.400   1.694   5.009  1.7623 -2.1630  1.1097
 7711TIP3    H244625   0.524   1.775   5.042  0.8671 -0.8172  1.2595
 7712TIP3   OH244626   6.684   2.681  12.094 -0.0051  0.2049 -0.6864
 7712TIP3    H144627   6.664   2.751  12.032 -1.0177 -1.6638 -2.6301
 7712TIP3    H244628   6.756   2.633  12.053  2.0071  1.1482  1.5476
 7713TIP3   OH244629   3.045   6.095  10.767 -0.5315 -0.1743 -0.5208
 7713TIP3    H144630   3.047   6.154  10.842 -1.5376 -2.6025  1.5579
 7713TIP3    H244631   3.004   6.147  10.697 -1.6858  1.4836  1.2704
 7714TIP3   OH244632   0.878   0.157   0.270  0.0361 -0.2335  0.2500
 7714TIP3    H144633   0.847   0.149   0.360  0.7822  0.1385  0.5466
 7714TIP3    H244634   0.834   0.086   0.223  1.1001 -1.6599  1.3133
 7715TIP3   OH244635   0.920   2.588  15.363 -0.0609  0.2195  0.2321
 7715TIP3    H144636   0.853   2.523  15.343 -0.3753  0.4486  0.5434
 7715TIP3    H244637   0.949   2.567  15.452 -1.4458  1.5927  1.0484
 7716TIP3   OH244638   1.483   5.076  15.065 -0.0916 -0.0642  0.1048
 7716TIP3    H144639   1.498   5.084  15.159  0.1395 -0.4855  0.1084
 7716TIP3    H244640   1.571   5.071  15.027 -0.1312 -2.7428  0.1408
 7717TIP3   OH244641   1.323   1.986   3.000 -0.2383 -0.6019 -0.5360
 7717TIP3    H144642   1.303   1.979   2.906 -1.1948 -1.3404 -0.2902
 7717TIP3    H244643   1.408   2.031   3.003  0.4592 -1.7482 -1.8215
 7718TIP3   OH244644   3.632   2.011   4.512 -0.0949  0.1327  0.0039
 7718TIP3    H144645   3.548   2.012   4.465  0.3081  0.0737 -0.7322
 7718TIP3    H244646   3.633   1.927   4.557 -0.4419  0.1434  0.0335
 7719TIP3   OH244647   2.906   3.672  10.378  0.1844 -0.1199 -0.8950
 7719TIP3    H144648   2.905   3.737  10.307  0.2937  0.7916 -0.0904
 7719TIP3    H244649   2.981   3.697  10.433 -0.3518 -0.3315 -0.0413
 7720TIP3   OH244650   5.432   1.970  17.077  0.0740  0.1437  0.1840
 7720TIP3    H144651   5.478   1.931  17.003  0.2516  2.6033 -1.1198
 7720TIP3    H244652   5.387   2.046  17.040 -1.4146  0.3813  2.2698
 7721TIP3   OH244653   2.330   4.376   2.125  0.5200  0.4306 -0.3757
 7721TIP3    H144654   2.274   4.299   2.134  0.6846  0.4718  1.1857
 7721TIP3    H244655   2.275   4.449   2.155  0.8084  0.7319 -0.5772
 7722TIP3   OH244656   0.499   2.495  15.110  0.2927 -0.0240 -0.3386
 7722TIP3    H144657   0.500   2.405  15.140  0.3333 -0.0056 -0.2836
 7722TIP3    H244658   0.468   2.546  15.185 -1.1275 -0.1449 -0.8202
 7723TIP3   OH244659   6.582   4.422   6.390 -0.1108 -0.1251  0.2820
 7723TIP3    H144660   6.531   4.503   6.391  1.1840  0.7344  1.8856
 7723TIP3    H244661   6.578   4.389   6.480  3.0248  0.6332  0.8301
 7724TIP3   OH244662   5.254   2.520   3.115  0.2900 -0.0167  0.7341
 7724TIP3    H144663   5.293   2.568   3.189 -0.0303 -0.1795  1.0086
 7724TIP3    H244664   5.213   2.588   3.062  0.6852  0.1227  0.6048
 7725TIP3   OH244665   0.201   2.651   3.437  0.0792  0.2773 -0.2924
 7725TIP3    H144666   0.257   2.581   3.471  0.8192 -0.5949 -3.0982
 7725TIP3    H244667   0.143   2.608   3.375 -1.2836  1.7772 -0.1325
 7726TIP3   OH244668   5.458   0.191   0.983 -0.2915 -0.1800 -0.9287
 7726TIP3    H144669   5.520   0.118   0.994 -1.5948 -1.3739 -1.1956
 7726TIP3    H244670   5.378   0.160   1.025 -0.1103  2.2435  1.5264
 7727TIP3   OH244671   4.335   1.592  11.916 -0.0901  0.0149 -0.1159
 7727TIP3    H144672   4.266   1.577  11.980 -0.0564  0.0477 -0.0719
 7727TIP3    H244673   4.345   1.687  11.913  0.3466 -0.0094  0.3027
 7728TIP3   OH244674   5.285   4.044  14.607  0.3459  0.0726 -0.5206
 7728TIP3    H144675   5.319   4.082  14.526  0.0985  1.9206  0.1890
 7728TIP3    H244676   5.219   3.980  14.578  2.1092 -1.2627 -1.7977
 7729TIP3   OH244677   4.007   1.088   5.436 -0.0868  0.2698 -0.2736
 7729TIP3    H144678   3.984   1.178   5.460  0.6050  1.4874 -3.6219
 7729TIP3    H244679   4.094   1.075   5.473  0.0876  1.2267 -0.3341
 7730TIP3   OH244680   2.790   3.163   0.790 -0.1100 -0.1503  0.0607
 7730TIP3    H144681   2.770   3.102   0.718 -0.5540 -1.9810  1.6614
 7730TIP3    H244682   2.719   3.149   0.853  1.7679 -0.7479  2.1739
 7731TIP3   OH244683   6.819   5.229  11.672 -0.0864 -0.0356  0.2033
 7731TIP3    H144684   6.856   5.262  11.754 -0.0543  0.2450  0.0740
 7731TIP3    H244685   6.895   5.208  11.618 -0.1163  0.4444 -0.0232
 7732TIP3   OH244686   0.958   2.484  12.163  0.0166 -0.1367  0.0027
 7732TIP3    H144687   1.017   2.493  12.238  0.8931 -1.1762 -0.5352
 7732TIP3    H244688   0.926   2.393  12.168 -0.7038  0.0886 -0.3210
 7733TIP3   OH244689   4.238   5.449   1.328  0.4355 -0.1565  0.4910
 7733TIP3    H144690   4.310   5.442   1.265 -0.0348  3.7082 -0.7393
 7733TIP3    H244691   4.281   5.477   1.409  0.5701 -0.4224  0.5126
 7734TIP3   OH244692   0.575   1.182  17.146 -0.7339  0.2410 -0.0494
 7734TIP3    H144693   0.636   1.222  17.085 -0.5498 -0.4679 -0.3427
 7734TIP3    H244694   0.489   1.196  17.108 -0.6829  0.4916 -0.0705
 7735TIP3   OH244695   6.628   2.548  11.173  0.4287 -0.2675 -0.0765
 7735TIP3    H144696   6.601   2.549  11.081 -0.5912  0.5293  0.2143
 7735TIP3    H244697   6.659   2.459  11.188 -1.9878 -1.2486 -0.4688
 7736TIP3   OH244698   2.605   0.079  11.785 -0.4602 -0.1326  0.1510
 7736TIP3    H144699   2.517   0.111  11.766 -1.1505 -1.6582  0.5755
 7736TIP3    H244700   2.631   0.031  11.706  0.8005  1.8325 -0.7128
 7737TIP3   OH244701   0.463   4.167  11.480 -0.1908  0.4369  0.2749
 7737TIP3    H144702   0.557   4.159  11.489  0.0674  2.1881 -0.5241
 7737TIP3    H244703   0.437   4.230  11.548 -0.7960 -0.0019  0.4675
 7738TIP3   OH244704   4.765   5.671  15.309  0.2337  0.7238 -0.6243
 7738TIP3    H144705   4.852   5.693  15.274 -0.5170  0.8234 -2.5818
 7738TIP3    H244706   4.774   5.580  15.337  1.7281  1.5708  1.9793
 7739TIP3   OH244707   5.610   2.578   0.761  0.1338  0.5764 -0.7177
 7739TIP3    H144708   5.665   2.504   0.734  0.0299  0.5892 -0.9677
 7739TIP3    H244709   5.579   2.553   0.848 -0.8845 -0.2424 -1.2870
 7740TIP3   OH244710   6.345   1.687   4.954  0.1783  0.2904 -0.0689
 7740TIP3    H144711   6.276   1.642   4.904  0.0472  0.7942 -0.3466
 7740TIP3    H244712   6.300   1.759   4.997  0.1767 -0.4569  1.2440
 7741TIP3   OH244713   4.005   0.644   3.212  0.1597  0.4548  0.1939
 7741TIP3    H144714   4.058   0.632   3.291 -2.1678  3.5050  2.4865
 7741TIP3    H244715   3.948   0.567   3.209 -0.9173  1.0704  2.6494
 7742TIP3   OH244716   0.319   6.813  16.499  0.7306 -0.1795  0.2783
 7742TIP3    H144717   0.378   6.800  16.573  1.2708  0.2411 -0.0738
 7742TIP3    H244718   0.231   6.806  16.537  0.9983  0.6766  1.0803
 7743TIP3   OH244719   6.631   0.861   0.324 -0.0756  0.2644 -0.4175
 7743TIP3    H144720   6.543   0.874   0.361  0.8428  0.8621  1.7419
 7743TIP3    H244721   6.630   0.907   0.241 -1.8525  0.1321 -0.5085
 7744TIP3   OH244722   3.582   1.051   0.073  0.0699 -0.4988  0.5265
 7744TIP3    H144723   3.677   1.065   0.075  0.2984 -1.2251 -1.7482
 7744TIP3    H244724   3.550   1.115   0.010 -0.9183 -0.5198  0.9874
 7745TIP3   OH244725   3.055   3.489   3.088 -0.2653  0.1971  0.4927
 7745TIP3    H144726   3.130   3.430   3.084 -0.5015 -0.0798 -0.0436
 7745TIP3    H244727   3.093   3.577   3.085  0.0013  0.0672 -1.1500
 7746TIP3   OH244728   2.374   3.056  16.764 -0.9760 -0.0045  0.3227
 7746TIP3    H144729   2.325   3.110  16.702  0.2570  1.9049  0.9278
 7746TIP3    H244730   2.316   3.050  16.840  0.1806  3.6424  1.7022
 7747TIP3   OH244731   1.336   2.573  11.574 -0.2311  0.4168 -0.0006
 7747TIP3    H144732   1.394   2.641  11.608 -0.3203  0.3988  0.1939
 7747TIP3    H244733   1.280   2.550  11.649 -1.3855  1.3851 -0.5242
 7748TIP3   OH244734   5.477   2.041  13.005  0.3451 -0.2863  0.6142
 7748TIP3    H144735   5.467   1.947  13.024  0.6976 -0.3553  0.4783
 7748TIP3    H244736   5.400   2.082  13.043 -0.2081 -0.7274  0.0073
 7749TIP3   OH244737   1.842   4.324   5.015 -0.3187  0.0071  0.6866
 7749TIP3    H144738   1.890   4.297   5.094 -0.3067  1.8255  1.3537
 7749TIP3    H244739   1.891   4.285   4.943  0.9934  0.1242  1.4718
 7750TIP3   OH244740   0.902   0.588   2.626  0.4356 -0.0782 -0.0090
 7750TIP3    H144741   0.992   0.586   2.659  0.4825  1.5641  0.0520
 7750TIP3    H244742   0.878   0.680   2.629 -1.7237 -0.6153  1.1847
 7751TIP3   OH244743   5.955   2.640   1.973  0.1727 -0.6057 -0.2565
 7751TIP3    H144744   5.919   2.723   2.005 -0.5346 -0.8523 -0.4029
 7751TIP3    H244745   6.048   2.645   1.995  0.3394  0.6509 -1.1263
 7752TIP3   OH244746   0.695   6.763  13.912  0.0878 -0.3284 -0.1428
 7752TIP3    H144747   0.612   6.733  13.876 -0.9527  1.6878  0.4145
 7752TIP3    H244748   0.679   6.853  13.939  1.2847 -1.0285  3.6227
 7753TIP3   OH244749   3.803   0.236  12.807 -0.0878 -0.0184  0.7398
 7753TIP3    H144750   3.895   0.210  12.798 -0.9527 -2.9051 -1.5674
 7753TIP3    H244751   3.770   0.182  12.878  0.0721  1.3932  1.9141
 7754TIP3   OH244752   0.300   2.754  12.618  0.6519 -0.2939 -0.3566
 7754TIP3    H144753   0.362   2.695  12.577 -2.1704 -3.3936 -0.6316
 7754TIP3    H244754   0.216   2.708  12.612 -0.7893  0.9964  4.8353
 7755TIP3   OH244755   5.642   1.646  11.325 -0.6056 -0.0134  0.2048
 7755TIP3    H144756   5.575   1.714  11.320 -0.5399  0.4310  3.1954
 7755TIP3    H244757   5.721   1.692  11.353  0.4408 -0.8381 -1.2675
 7756TIP3   OH244758   1.433   3.363   0.034  0.2443 -0.3271  0.0867
 7756TIP3    H144759   1.349   3.322   0.054 -0.6144  1.2130 -0.1247
 7756TIP3    H244760   1.422   3.397  -0.056  0.9366  0.2288  0.1995
 7757TIP3   OH244761   6.115   4.052   4.289  0.2582  0.3050 -0.6307
 7757TIP3    H144762   6.156   4.033   4.373 -3.2438  2.1840  1.7539
 7757TIP3    H244763   6.167   4.125   4.253  0.2142  1.3883  1.3435
 7758TIP3   OH244764   4.681   0.256  15.803 -0.2816  0.0585 -0.4105
 7758TIP3    H144765   4.632   0.339  15.805  0.7352  0.6662  0.0025
 7758TIP3    H244766   4.643   0.208  15.729 -1.6385  0.4137  0.0227
 7759TIP3   OH244767   6.723   4.503   3.352  0.0032 -0.0347 -0.2236
 7759TIP3    H144768   6.721   4.413   3.384 -1.6549 -0.5243 -1.5499
 7759TIP3    H244769   6.631   4.527   3.343  0.3630  2.2859  1.3045
 7760TIP3   OH244770   3.725   5.309  11.395  0.0637  0.4152 -0.0182
 7760TIP3    H144771   3.657   5.373  11.414 -1.7285 -1.3021 -0.2673
 7760TIP3    H244772   3.773   5.299  11.477 -0.0214  1.5845  0.1925
 7761TIP3   OH244773   2.631   4.003  12.728 -0.2527 -0.0568  0.4265
 7761TIP3    H144774   2.604   3.912  12.739 -0.6667  0.0950  0.6839
 7761TIP3    H244775   2.555   4.054  12.754  0.0635  0.3692  0.5283
 7762TIP3   OH244776   2.352   5.274  14.382  0.1056  0.0729  0.1152
 7762TIP3    H144777   2.280   5.216  14.356  0.3385  0.4120 -1.3504
 7762TIP3    H244778   2.408   5.220  14.438 -0.4438 -0.6678 -0.0426
 7763TIP3   OH244779   6.626   2.663   4.463 -0.6493 -0.4969 -0.2052
 7763TIP3    H144780   6.679   2.652   4.542  1.4965  1.5287 -1.2221
 7763TIP3    H244781   6.614   2.574   4.430  3.1283 -1.1177 -0.4345
 7764TIP3   OH244782   0.756   0.643   6.160 -0.0172  0.0500  0.3662
 7764TIP3    H144783   0.713   0.721   6.196 -1.1844  0.6273 -2.0231
 7764TIP3    H244784   0.688   0.575   6.163 -0.8434  0.6335 -2.3122
 7765TIP3   OH244785   5.581   0.336   2.915  0.7022 -0.2488 -0.0105
 7765TIP3    H144786   5.520   0.262   2.915  0.6406 -0.2180  1.2256
 7765TIP3    H244787   5.664   0.298   2.888  0.4856 -0.5963 -0.2020
 7766TIP3   OH244788   5.781   0.030  16.247  0.2262 -0.6339  0.1863
 7766TIP3    H144789   5.692   0.009  16.216  0.8276 -2.3346 -0.5108
 7766TIP3    H244790   5.791  -0.022  16.327  0.2392  0.4027  0.8853
 7767TIP3   OH244791   6.158   1.836   1.864  0.2109  0.0178 -0.2595
 7767TIP3    H144792   6.173   1.886   1.945 -1.0723 -0.2679  0.1799
 7767TIP3    H244793   6.221   1.872   1.802  0.7247  0.7548  0.6547
 7768TIP3   OH244794   5.103   0.248  15.151  0.2786  0.1573 -0.3431
 7768TIP3    H144795   5.131   0.159  15.131  0.5782 -0.2788  1.8452
 7768TIP3    H244796   5.009   0.241  15.164  0.1183  0.4039 -1.2683
 7769TIP3   OH244797   5.969   5.575   0.665 -0.0649 -0.0002  0.1915
 7769TIP3    H144798   5.954   5.501   0.606 -2.9598 -1.9608  3.0223
 7769TIP3    H244799   5.941   5.652   0.615  2.3444 -0.7602 -2.5954
 7770TIP3   OH244800   4.373   3.221   5.714 -0.8090  0.1318  0.0814
 7770TIP3    H144801   4.446   3.277   5.688 -1.3207  1.0175  0.5001
 7770TIP3    H244802   4.373   3.150   5.650  0.5329  0.0171  0.1941
 7771TIP3   OH244803   2.073   3.975   6.217 -0.1091 -0.4461  0.6130
 7771TIP3    H144804   1.980   3.955   6.210  0.1750 -1.6991  0.1492
 7771TIP3    H244805   2.117   3.901   6.175  1.2375 -1.5790  3.6788
 7772TIP3   OH244806   1.495   0.551   5.294 -0.6650  0.0552 -0.0965
 7772TIP3    H144807   1.481   0.463   5.328  0.4370  0.0254  0.3128
 7772TIP3    H244808   1.458   0.549   5.206  2.2142 -1.8217 -1.4058
 7773TIP3   OH244809   2.157   2.579   4.108 -0.4137 -0.1657  0.3214
 7773TIP3    H144810   2.096   2.637   4.062 -1.7979 -1.4505  0.4723
 7773TIP3    H244811   2.197   2.526   4.039 -0.4218 -0.1945  0.3388
 7774TIP3   OH244812   2.154   5.453   1.041 -0.1277  0.3457  0.0888
 7774TIP3    H144813   2.072   5.452   0.992  1.7646 -0.2992 -3.3831
 7774TIP3    H244814   2.164   5.544   1.070 -0.9537  0.9949 -1.5400
 7775TIP3   OH244815   0.197   5.358  13.303 -0.0801  0.3234  0.2688
 7775TIP3    H144816   0.231   5.446  13.289  1.5153 -0.1132  1.2004
 7775TIP3    H244817   0.214   5.340  13.396  1.7915 -1.8119 -0.3961
 7776TIP3   OH244818   4.682   4.554   4.982 -0.0865 -0.1034 -0.3786
 7776TIP3    H144819   4.611   4.535   5.043 -1.1993  1.2516 -1.1735
 7776TIP3    H244820   4.744   4.482   4.993 -1.0557 -0.7455  1.1315
 7777TIP3   OH244821   6.063   2.670  13.747 -0.2891  0.1973 -0.0363
 7777TIP3    H144822   6.026   2.724  13.677  4.2098  2.0040 -1.3327
 7777TIP3    H244823   6.110   2.601  13.701 -0.8160 -1.2333  1.4603
 7778TIP3   OH244824   0.699   0.040  12.892 -0.5732  0.0147 -0.2910
 7778TIP3    H144825   0.774   0.007  12.842  0.1932 -0.4177  1.0929
 7778TIP3    H244826   0.677   0.123  12.850 -1.2774 -1.2632 -2.6241
 7779TIP3   OH244827   1.689   4.700  14.073  0.1239  0.3717  0.1276
 7779TIP3    H144828   1.691   4.646  14.152  0.2257  0.2784  0.0613
 7779TIP3    H244829   1.722   4.785  14.101  0.5270  0.2262  0.0980
 7780TIP3   OH244830   3.729   1.966  11.791 -0.2698 -0.0858 -0.5760
 7780TIP3    H144831   3.778   2.046  11.775  0.1408 -0.5754 -1.8760
 7780TIP3    H244832   3.698   1.974  11.881  3.5441 -0.4547  0.9624
 7781TIP3   OH244833   5.478   3.305   1.880  0.3079 -0.7307  0.4342
 7781TIP3    H144834   5.452   3.290   1.789  2.1887 -0.3811 -0.1998
 7781TIP3    H244835   5.543   3.236   1.898  2.0012  0.8321  0.5724
 7782TIP3   OH244836   1.838   6.360  13.339 -0.0529  0.0750  0.4568
 7782TIP3    H144837   1.889   6.322  13.411 -1.8516  0.0435  1.7841
 7782TIP3    H244838   1.756   6.387  13.380 -1.2653 -0.2083 -1.6732
 7783TIP3   OH244839   5.968   0.988  13.538  0.3049  0.1951  0.2157
 7783TIP3    H144840   5.996   1.017  13.451  0.7184  0.4917  0.4457
 7783TIP3    H244841   5.877   0.961  13.525  0.0888  1.0344 -0.1327
 7784TIP3   OH244842   1.688   3.839  12.483  0.1563 -0.4152  0.0515
 7784TIP3    H144843   1.668   3.755  12.441  0.3763 -0.8500  0.8017
 7784TIP3    H244844   1.607   3.862  12.530  0.6932 -1.1791  1.4289
 7785TIP3   OH244845   6.125   1.335  12.277 -0.6132 -0.6025  0.6883
 7785TIP3    H144846   6.032   1.358  12.279 -0.4295  0.3246  3.9746
 7785TIP3    H244847   6.165   1.389  12.345  1.6268 -3.7232  2.0937
 7786TIP3   OH244848   2.293   4.101   2.540 -0.0334  0.0029  0.1384
 7786TIP3    H144849   2.215   4.046   2.531  0.6050 -1.1180  1.0638
 7786TIP3    H244850   2.261   4.190   2.531 -1.1716 -0.4804 -1.0711
 7787TIP3   OH244851   6.058   1.421   3.774  0.3073  0.0810  0.3358
 7787TIP3    H144852   6.099   1.493   3.822 -0.2072  1.6516 -1.4479
 7787TIP3    H244853   6.074   1.443   3.682 -1.8986 -0.8436 -0.3193
 7788TIP3   OH244854   3.747   4.911   4.289 -0.1290 -0.6359  0.0526
 7788TIP3    H144855   3.809   4.872   4.228 -0.5448  0.9651 -1.4933
 7788TIP3    H244856   3.791   4.990   4.320 -0.0010 -1.3418  1.7234
 7789TIP3   OH244857   6.716   6.435  13.373 -0.4240  0.3515 -0.2600
 7789TIP3    H144858   6.715   6.531  13.375 -0.4922  0.3468  1.4513
 7789TIP3    H244859   6.624   6.410  13.371 -0.3991  0.2987 -1.8390
 7790TIP3   OH244860   6.624   2.214   0.409 -0.2725 -0.4543  0.2973
 7790TIP3    H144861   6.537   2.203   0.446 -0.8469 -0.5212 -1.0130
 7790TIP3    H244862   6.648   2.127   0.378  0.4695 -0.5354  1.0791
 7791TIP3   OH244863   5.268   0.204  11.390  0.2593  0.0934 -0.3016
 7791TIP3    H144864   5.241   0.115  11.412  0.8824 -0.1209 -0.3735
 7791TIP3    H244865   5.327   0.193  11.315 -0.3266  0.6433 -0.8533
 7792TIP3   OH244866   5.678   4.954  11.799 -0.5371 -0.1904  0.0256
 7792TIP3    H144867   5.653   4.988  11.713 -0.6590  0.0404  0.1495
 7792TIP3    H244868   5.668   5.029  11.858 -1.1294 -0.5333  0.3632
 7793TIP3   OH244869   1.389   1.997  11.444 -0.3797  0.0546  0.4166
 7793TIP3    H144870   1.465   2.038  11.485  0.5132 -0.1548 -0.9702
 7793TIP3    H244871   1.344   1.953  11.516  1.5520 -0.9639  1.0779
 7794TIP3   OH244872   0.621   3.997  12.025 -0.3183  0.6619  0.0049
 7794TIP3    H144873   0.645   3.995  12.117  1.5630 -1.7327 -0.4162
 7794TIP3    H244874   0.656   4.079  11.992  2.7200 -0.2372  0.6510
 7795TIP3   OH244875   2.936   1.130  10.965  0.1285 -0.4276 -0.2148
 7795TIP3    H144876   2.906   1.119  11.056  3.1075 -1.3350  0.7810
 7795TIP3    H244877   2.943   1.224  10.953 -0.1027 -0.3032  0.5577
 7796TIP3   OH244878   2.690   0.867  10.842 -0.2835  0.2963  0.0038
 7796TIP3    H144879   2.678   0.844  10.934  1.3439 -0.0181  0.1712
 7796TIP3    H244880   2.606   0.905  10.815 -0.8921  0.0773  1.5140
 7797TIP3   OH244881   0.497   5.699  14.027  0.8451  0.2878 -0.3051
 7797TIP3    H144882   0.513   5.728  14.117  0.0259  1.5840 -0.5513
 7797TIP3    H244883   0.572   5.733  13.977  0.4600  1.0444 -0.3886
 7798TIP3   OH244884   0.584   6.211  14.364  0.0386  0.2836 -0.1288
 7798TIP3    H144885   0.495   6.237  14.389  0.6582  2.0981  0.3507
 7798TIP3    H244886   0.580   6.204  14.268 -0.2340  2.1271 -0.2943
 7799TIP3   OH244887   6.564   0.143   1.511 -0.0109  0.1368 -0.1684
 7799TIP3    H144888   6.642   0.188   1.543 -0.7210  1.0562  0.2935
 7799TIP3    H244889   6.490   0.196   1.542 -0.8417 -0.9517 -0.2347
 7800TIP3   OH244890   3.571   5.890  13.501  0.0253 -0.1780 -0.7656
 7800TIP3    H144891   3.656   5.932  13.512 -0.8913  1.3127  1.3059
 7800TIP3    H244892   3.526   5.943  13.436 -0.5409  1.2030  0.6858
 7801TIP3   OH244893   5.307   3.967  11.517 -0.4704 -0.1821  0.0407
 7801TIP3    H144894   5.291   3.921  11.435  0.0715  0.8789 -0.6924
 7801TIP3    H244895   5.401   3.956  11.533 -0.2373  1.0182 -0.3902
 7802TIP3   OH244896   2.155   4.756   3.062  0.5969 -0.0118 -0.3093
 7802TIP3    H144897   2.175   4.687   3.125  1.3335  0.3397 -0.1441
 7802TIP3    H244898   2.194   4.726   2.980  0.4163 -0.0577 -0.3780
 7803TIP3   OH244899   1.058   0.288  14.689 -0.0696 -0.2209  0.4016
 7803TIP3    H144900   1.081   0.248  14.605 -1.3901 -0.3542  0.0769
 7803TIP3    H244901   0.962   0.291  14.688 -0.0570  1.1756  1.2611
 7804TIP3   OH244902   2.397   5.628  16.965  0.7076  0.3008  0.6456
 7804TIP3    H144903   2.308   5.663  16.968 -0.3026 -2.1611  1.4014
 7804TIP3    H244904   2.431   5.641  17.053 -0.0629 -1.4999  1.2345
 7805TIP3   OH244905   3.205   0.421  11.422 -0.1526  0.5610 -0.6600
 7805TIP3    H144906   3.140   0.397  11.357 -1.7477  4.4278 -0.7939
 7805TIP3    H244907   3.271   0.470  11.373 -0.0586  1.3542  0.2058
 7806TIP3   OH244908   6.015   1.532  11.568 -0.0186  0.3873  0.2985
 7806TIP3    H144909   6.084   1.598  11.567 -1.1317  1.6770  2.0011
 7806TIP3    H244910   5.954   1.560  11.500 -0.2177  0.8181  0.6518
 7807TIP3   OH244911   2.432   1.831  12.331 -0.2265  0.1040 -0.3168
 7807TIP3    H144912   2.504   1.807  12.390 -1.0571 -2.5029 -0.2286
 7807TIP3    H244913   2.394   1.910  12.369  3.7179  2.8508 -1.4275
 7808TIP3   OH244914   0.362   1.693  12.613 -0.1738  0.0541  0.3799
 7808TIP3    H144915   0.416   1.734  12.680 -0.8931 -0.8177  1.5386
 7808TIP3    H244916   0.413   1.616  12.585 -1.0255 -1.1333  1.9327
 7809TIP3   OH244917   6.137   3.677  14.368  0.1483 -0.1499  0.0601
 7809TIP3    H144918   6.149   3.601  14.425  0.4668 -0.5686 -0.5514
 7809TIP3    H244919   6.161   3.645  14.281 -0.8355  0.3363 -0.3991
 7810TIP3   OH244920   6.818   6.639  15.754 -0.0815 -0.0190  0.1582
 7810TIP3    H144921   6.831   6.576  15.683  1.4030  1.3907 -0.8859
 7810TIP3    H244922   6.853   6.721  15.721 -2.3733  1.5279  1.3057
 7811TIP3   OH244923   5.318   6.506  14.818 -0.1429  0.3466 -0.2530
 7811TIP3    H144924   5.345   6.530  14.729 -1.7563  2.2513 -0.3056
 7811TIP3    H244925   5.352   6.576  14.873  1.3236 -1.1084  0.7667
 7812TIP3   OH244926   0.839   5.839  15.167 -0.1787 -0.1072  0.0211
 7812TIP3    H144927   0.749   5.854  15.197 -0.7956 -0.8224 -1.4237
 7812TIP3    H244928   0.832   5.820  15.074  1.2558 -2.2598  0.2727
 7813TIP3   OH244929   2.242   3.712   4.054 -0.4243 -0.3672 -0.6514
 7813TIP3    H144930   2.174   3.645   4.039 -0.3195 -0.5436 -0.3564
 7813TIP3    H244931   2.288   3.681   4.132  0.5153 -0.6704 -1.3040
 7814TIP3   OH244932   4.101   4.853  14.990  0.9610  0.1662  1.1572
 7814TIP3    H144933   4.011   4.841  14.960  0.5921  0.7150  1.9996
 7814TIP3    H244934   4.098   4.833  15.083  1.2297  2.3306  1.6793
 7815TIP3   OH244935   3.805   4.713   2.926  0.1999 -0.3388 -0.9807
 7815TIP3    H144936   3.717   4.687   2.951  0.1608 -1.6719 -2.3649
 7815TIP3    H244937   3.819   4.798   2.969 -0.3282 -1.7990  2.3090
 7816TIP3   OH244938   6.097   0.419  16.480 -0.0393 -0.6842  0.1308
 7816TIP3    H144939   6.180   0.408  16.433  0.9718  0.7023  1.5004
 7816TIP3    H244940   6.090   0.513  16.494 -2.1367 -0.6985 -0.3819
 7817TIP3   OH244941   3.928   3.436  13.426  0.1170  0.7002  0.3739
 7817TIP3    H144942   3.968   3.349  13.424 -1.4446 -0.0379  0.6309
 7817TIP3    H244943   3.927   3.463  13.334  0.1154  0.2205  0.2294
 7818TIP3   OH244944   4.186   6.540  15.874  0.2392 -0.3401 -0.0583
 7818TIP3    H144945   4.201   6.555  15.781 -1.0760  0.4640 -0.1661
 7818TIP3    H244946   4.091   6.550  15.885  0.6447  2.7700  1.8921
 7819TIP3   OH244947   4.763   3.105   6.486 -0.2487  0.4647 -0.1799
 7819TIP3    H144948   4.771   3.176   6.550 -0.8703  1.0404 -0.7354
 7819TIP3    H244949   4.850   3.064   6.486 -0.5799 -0.3456  1.9455
 7820TIP3   OH244950   6.403   3.694  14.129  0.3593 -0.3492  0.2835
 7820TIP3    H144951   6.466   3.711  14.199  0.1759 -0.0786  0.3869
 7820TIP3    H244952   6.406   3.772  14.074 -0.6115  0.1072  0.8558
 7821TIP3   OH244953   1.028   6.739  14.349 -0.7061  0.1589 -0.2341
 7821TIP3    H144954   0.971   6.752  14.274  0.2403  1.6990 -0.7383
 7821TIP3    H244955   1.078   6.660  14.327  0.4526  1.2701 -1.8698
 7822TIP3   OH244956   4.530   1.231  12.583  0.4998 -0.2085 -0.5008
 7822TIP3    H144957   4.571   1.303  12.536 -1.4001  1.1901 -0.1523
 7822TIP3    H244958   4.485   1.273  12.657 -0.4025 -1.7913 -0.0872
 7823TIP3   OH244959   1.568   3.455   0.273  0.1262  0.3434  0.1374
 7823TIP3    H144960   1.530   3.427   0.190 -2.0048  1.3652  0.6925
 7823TIP3    H244961   1.508   3.522   0.306  2.0518  1.5167  1.4988
 7824TIP3   OH244962   4.012   6.406  14.497  0.2328  0.0935  0.1457
 7824TIP3    H144963   3.977   6.337  14.442  0.2521 -0.3245  0.6524
 7824TIP3    H244964   4.062   6.360  14.564  0.4857  0.6127  0.3181
 7825TIP3   OH244965   4.805   2.952   5.965 -0.2060 -0.1405  0.3987
 7825TIP3    H144966   4.770   3.001   5.890 -0.6881 -0.5859  0.3264
 7825TIP3    H244967   4.886   2.913   5.931 -0.3301 -0.1966  0.1601
 7826TIP3   OH244968   2.703   6.769   1.283  0.0547  0.1890 -0.2014
 7826TIP3    H144969   2.616   6.729   1.281 -0.1052  0.5404 -0.5779
 7826TIP3    H244970   2.760   6.701   1.318 -0.4862  0.1820  0.7172
 7827TIP3   OH244971   0.485   3.935   5.602 -0.4580 -0.3211  0.1829
 7827TIP3    H144972   0.481   3.840   5.594 -1.0561 -0.1670 -2.2889
 7827TIP3    H244973   0.398   3.965   5.577  0.0504  0.9119 -0.1609
 7828TIP3   OH244974   6.240   5.595  11.508 -0.2126  0.6446  0.2877
 7828TIP3    H144975   6.276   5.676  11.545 -0.4076  0.8913 -0.0569
 7828TIP3    H244976   6.308   5.562  11.450  1.1195 -1.0344  2.6241
 7829TIP3   OH244977   5.288   2.525  12.259  0.5645  0.1145  0.3404
 7829TIP3    H144978   5.276   2.535  12.353  0.3817  0.2940  0.2990
 7829TIP3    H244979   5.382   2.514  12.248  0.8940  2.5370  0.3314
 7830TIP3   OH244980   0.231   3.663  16.591 -0.8376 -0.3998  0.1091
 7830TIP3    H144981   0.303   3.721  16.567 -1.4589  1.1564  1.8014
 7830TIP3    H244982   0.152   3.710  16.567 -1.3394 -1.0337  0.4664
 7831TIP3   OH244983   6.527   5.864   1.285  0.5559  0.7363  0.6692
 7831TIP3    H144984   6.579   5.789   1.311 -1.1084  0.0709  2.3389
 7831TIP3    H244985   6.565   5.892   1.202  2.5513 -0.6147  1.0503
 7832TIP3   OH244986   6.356   6.603  11.988 -0.1761 -0.2335  0.5311
 7832TIP3    H144987   6.321   6.557  12.065  0.0296 -0.0531  0.7332
 7832TIP3    H244988   6.451   6.589  11.993 -0.2610 -1.2129 -0.3311
 7833TIP3   OH244989   5.075   1.885   2.573 -0.5454 -0.1436 -0.4276
 7833TIP3    H144990   5.151   1.940   2.552  1.3310 -1.3764  2.5275
 7833TIP3    H244991   5.087   1.806   2.521 -0.3865  0.0594 -0.7049
 7834TIP3   OH244992   0.265   2.343   4.370  0.6671 -0.4120 -0.1826
 7834TIP3    H144993   0.170   2.338   4.370  0.5711  1.0470 -0.3543
 7834TIP3    H244994   0.293   2.264   4.324 -0.4707 -0.6136 -0.5583
 7835TIP3   OH244995   4.980   6.250  16.249  0.1952  0.0056  0.3017
 7835TIP3    H144996   4.972   6.298  16.166  1.5627 -0.8413 -0.3626
 7835TIP3    H244997   4.904   6.192  16.251  0.8004 -0.8857 -1.0110
 7836TIP3   OH244998   1.337   3.177  11.270  0.8012  0.3811  0.2554
 7836TIP3    H144999   1.303   3.122  11.200  2.4847 -0.0106 -0.2951
 7836TIP3    H245000   1.429   3.190  11.248  1.4298  0.1092  2.4580
 7837TIP3   OH245001   0.060   6.329   4.605 -0.5981 -0.1877 -0.2525
 7837TIP3    H145002   0.071   6.278   4.525 -0.8807 -2.0298  0.8213
 7837TIP3    H245003  -0.030   6.361   4.602 -0.2669  0.7176 -1.1672
 7838TIP3   OH245004   1.517   4.434   4.043  0.3506  0.3390  0.0241
 7838TIP3    H145005   1.578   4.428   3.969  0.6140  0.9603  0.1913
 7838TIP3    H245006   1.500   4.527   4.053 -0.2484  0.2053  0.2985
 7839TIP3   OH245007   2.173   1.314   3.086 -0.1111  0.6277  0.1399
 7839TIP3    H145008   2.188   1.385   3.023 -0.5265  0.3099 -0.3214
 7839TIP3    H245009   2.095   1.270   3.054 -0.7086  0.8589  1.2418
 7840TIP3   OH245010   5.269   3.151   2.811 -0.4409 -0.0476 -0.5854
 7840TIP3    H145011   5.303   3.070   2.773 -0.3472  0.4258 -1.5404
 7840TIP3    H245012   5.175   3.147   2.796 -0.5340 -0.3233  0.0481
 7841TIP3   OH245013   2.855   3.975   2.264 -0.0223  0.5425  0.0928
 7841TIP3    H145014   2.921   3.906   2.260 -0.0870  0.5133 -0.5759
 7841TIP3    H245015   2.792   3.952   2.196  0.2522  1.5519 -0.5280
 7842TIP3   OH245016   4.385   3.234  12.512  0.6325  0.5559  0.0412
 7842TIP3    H145017   4.358   3.227  12.604 -1.6803  0.7132 -0.5589
 7842TIP3    H245018   4.432   3.153  12.495 -0.8799 -0.5498  0.8053
 7843TIP3   OH245019   4.043   5.807   1.883  0.1563  0.2990  0.1866
 7843TIP3    H145020   4.113   5.873   1.881  0.7124 -0.2816  0.1544
 7843TIP3    H245021   4.032   5.781   1.792  0.4409 -0.1608  0.2768
 7844TIP3   OH245022   2.093   5.359  15.500  0.6866  0.2463 -0.1124
 7844TIP3    H145023   2.133   5.275  15.522 -0.1621 -0.2441 -0.4054
 7844TIP3    H245024   2.135   5.421  15.559  1.4789 -0.3392 -0.0334
 7845TIP3   OH245025   2.518   2.590   5.337  0.1283  0.6401 -0.7191
 7845TIP3    H145026   2.517   2.516   5.276 -1.0601  0.4340 -0.4694
 7845TIP3    H245027   2.607   2.591   5.372 -0.2889 -1.8142  0.6320
 7846TIP3   OH245028   2.895   1.136   1.313 -0.1264 -0.2701  0.4140
 7846TIP3    H145029   2.926   1.129   1.223 -2.1410 -0.4182 -0.3196
 7846TIP3    H245030   2.960   1.089   1.364  2.0529  1.4059 -0.6750
 7847TIP3   OH245031   6.169   2.138   2.043 -0.0785 -0.4282 -0.0295
 7847TIP3    H145032   6.247   2.127   2.097  0.0897 -2.4519 -0.5814
 7847TIP3    H245033   6.190   2.212   1.986  1.6702 -1.1874 -0.4678
 7848TIP3   OH245034   1.698   3.679   4.290  0.4175  0.2939  0.1287
 7848TIP3    H145035   1.743   3.726   4.220  0.6925  0.6009  0.5023
 7848TIP3    H245036   1.632   3.627   4.246  2.6881 -2.0926 -0.7425
 7849TIP3   OH245037   5.094   0.929  14.044  0.1745 -0.1259  0.3221
 7849TIP3    H145038   5.124   0.841  14.066  0.9896 -0.2725 -1.2716
 7849TIP3    H245039   5.058   0.963  14.126 -0.6104 -2.1079  0.8478
 7850TIP3   OH245040   5.717   0.893  13.522 -0.3702 -0.3211  0.1346
 7850TIP3    H145041   5.656   0.913  13.451 -0.0056 -1.0324 -0.3858
 7850TIP3    H245042   5.680   0.816  13.565 -0.2295 -0.3036  0.2887
 7851TIP3   OH245043   4.401   6.180   2.754  0.0587  0.5501  0.6065
 7851TIP3    H145044   4.446   6.238   2.692 -2.7565 -0.1343 -2.3013
 7851TIP3    H245045   4.337   6.236   2.797  0.8017  0.6276  1.6508
 7852TIP3   OH245046   3.949   1.069   0.377 -0.3883  0.4970  0.4506
 7852TIP3    H145047   3.947   1.113   0.292  0.0368 -0.6147 -0.1613
 7852TIP3    H245048   4.020   1.005   0.369 -1.4541 -0.8134  1.0284
 7853TIP3   OH245049   2.823   5.960  15.890 -0.3708 -0.1693 -0.0038
 7853TIP3    H145050   2.772   5.962  15.809  2.7274  1.3568 -2.1201
 7853TIP3    H245051   2.903   6.008  15.870  1.1488 -0.8028  3.6290
 7854TIP3   OH245052   6.340   3.543  12.920  0.0872  0.4482 -0.2146
 7854TIP3    H145053   6.247   3.561  12.906  0.1483  1.4418  0.5901
 7854TIP3    H245054   6.375   3.529  12.832 -1.0681 -1.2962 -0.4605
 7855TIP3   OH245055   0.261   0.657   1.292  0.3201 -0.0420  0.2448
 7855TIP3    H145056   0.175   0.644   1.330  0.2204 -0.5364 -0.1474
 7855TIP3    H245057   0.257   0.614   1.206  0.4788  1.2048 -0.4120
 7856TIP3   OH245058   0.454   0.438   2.799 -0.1678 -0.0194  0.3030
 7856TIP3    H145059   0.414   0.485   2.726 -0.4335  0.6658  0.8743
 7856TIP3    H245060   0.392   0.448   2.871  0.2025 -0.4688  0.6950
 7857TIP3   OH245061   6.090   0.019  13.358 -0.1609  0.3602  0.3583
 7857TIP3    H145062   6.108   0.105  13.319  0.7464 -0.1331 -0.3571
 7857TIP3    H245063   5.995   0.015  13.363 -0.2308  2.2995  2.4724
 7858TIP3   OH245064   6.535   3.005   0.099  1.1440  0.2546 -0.0014
 7858TIP3    H145065   6.596   3.030   0.030  0.5685  0.2694 -0.5143
 7858TIP3    H245066   6.588   2.953   0.160  1.2604 -1.4175 -1.4366
 7859TIP3   OH245067   0.027   3.292  16.346  0.1848  0.1866  0.0294
 7859TIP3    H145068   0.050   3.208  16.309 -0.4478  0.4060 -0.9090
 7859TIP3    H245069   0.110   3.331  16.373  0.6441 -0.0450 -1.0307
 7860TIP3   OH245070   3.569   4.458   6.083 -0.0549 -0.0597  0.4778
 7860TIP3    H145071   3.561   4.475   5.989  0.3676 -1.1329  0.2329
 7860TIP3    H245072   3.593   4.543   6.121 -1.5343  0.6840 -0.1884
 7861TIP3   OH245073   2.951   2.213   0.735  0.2989 -0.9374 -0.4961
 7861TIP3    H145074   2.949   2.307   0.749 -2.0823 -0.7151 -1.8714
 7861TIP3    H245075   3.007   2.201   0.659 -0.8321 -0.4165 -1.4373
 7862TIP3   OH245076   5.237   3.639   0.635 -0.2410 -0.1974  0.2065
 7862TIP3    H145077   5.150   3.611   0.662 -0.0741 -2.7699 -1.5923
 7862TIP3    H245078   5.222   3.693   0.558 -0.2281 -1.4270 -0.6729
 7863TIP3   OH245079   6.308   4.226  16.245  0.1377 -0.0003  0.1472
 7863TIP3    H145080   6.266   4.161  16.301  0.8200  0.6261  1.4309
 7863TIP3    H245081   6.374   4.268  16.301  0.4423  1.0620 -0.9499
 7864TIP3   OH245082   5.540   5.867   2.498 -0.6076 -0.4796 -0.3311
 7864TIP3    H145083   5.476   5.830   2.558  0.5483  0.1412  1.3554
 7864TIP3    H245084   5.580   5.791   2.456 -1.7751 -0.8985 -0.7313
 7865TIP3   OH245085   3.647   2.474  17.015  0.2514  0.0871  0.3172
 7865TIP3    H145086   3.718   2.490  17.076  1.9711  0.2531 -1.6390
 7865TIP3    H245087   3.587   2.547  17.028  1.2777  0.8521  0.8282
 7866TIP3   OH245088   5.517   3.656   0.398  0.2819 -0.3486  0.5245
 7866TIP3    H145089   5.563   3.695   0.473  2.7519 -1.0278 -0.5475
 7866TIP3    H245090   5.515   3.725   0.332  2.0543 -1.0622 -0.3236
 7867TIP3   OH245091   2.478   0.223   3.089 -0.6420 -0.1965  0.6347
 7867TIP3    H145092   2.491   0.196   2.998 -1.7682  0.6824  0.1840
 7867TIP3    H245093   2.534   0.299   3.099 -1.2317  0.2767  0.3785
 7868TIP3   OH245094   5.803   6.046   2.340 -0.8662  0.1170  0.2497
 7868TIP3    H145095   5.713   6.061   2.310 -1.1916  2.2204  2.0062
 7868TIP3    H245096   5.815   5.951   2.335 -2.6523 -0.0756 -1.3942
 7869TIP3   OH245097   3.436   3.716   2.969  0.5225 -0.4014 -1.2559
 7869TIP3    H145098   3.351   3.680   2.944 -0.4186 -0.3263  1.4707
 7869TIP3    H245099   3.488   3.638   2.992  0.8868 -0.3845 -1.9883
 7870TIP3   OH245100   6.476   2.086   0.980  0.6750  0.1241 -0.0740
 7870TIP3    H145101   6.519   2.154   0.927  1.0933 -0.2396 -0.2103
 7870TIP3    H245102   6.441   2.025   0.915  0.9662 -0.1896  0.0656
 7871TIP3   OH245103   4.527   6.485  13.942  0.0396  0.1986  0.0882
 7871TIP3    H145104   4.455   6.536  13.905  1.0031  1.0037 -0.7607
 7871TIP3    H245105   4.575   6.453  13.866 -0.4170 -1.8372  0.6186
 7872TIP3   OH245106   0.232   3.874   2.495 -0.5270  0.4187  0.2018
 7872TIP3    H145107   0.198   3.906   2.579  1.2373  1.4134  0.5871
 7872TIP3    H245108   0.230   3.950   2.438 -0.5662  0.0598 -0.2768
 7873TIP3   OH245109   4.695   2.318   6.036  0.0206 -0.2383  0.3120
 7873TIP3    H145110   4.777   2.351   6.074 -0.4411  0.2770  0.8905
 7873TIP3    H245111   4.629   2.384   6.060 -0.4692 -0.3738 -0.5932
 7874TIP3   OH245112   4.893   0.492  11.655  0.1147  0.0689 -0.6773
 7874TIP3    H145113   4.904   0.440  11.734  0.9667 -0.5460 -1.1844
 7874TIP3    H245114   4.982   0.518  11.631 -0.1877  0.7299 -1.1203
 7875TIP3   OH245115   0.288   4.228  13.370 -0.1723 -0.2085  0.1462
 7875TIP3    H145116   0.310   4.303  13.425 -0.0480 -2.1755  3.0403
 7875TIP3    H245117   0.214   4.186  13.414 -1.4959 -0.7900 -2.4250
 7876TIP3   OH245118   3.611   4.591  14.791 -0.0153  0.4012 -0.2142
 7876TIP3    H145119   3.695   4.581  14.836  0.3176 -0.0505 -0.8990
 7876TIP3    H245120   3.634   4.628  14.706 -0.3469 -0.9665 -0.9291
 7877TIP3   OH245121   6.059   1.262   0.663  0.7546  0.1723 -0.0333
 7877TIP3    H145122   6.011   1.184   0.694  0.3541 -0.2262 -1.5925
 7877TIP3    H245123   6.148   1.231   0.648  0.5704 -0.0138 -0.7498
 7878TIP3   OH245124   3.364   6.739   3.352 -0.0779  0.4414 -0.2541
 7878TIP3    H145125   3.436   6.755   3.412 -1.9591  1.2015  1.9534
 7878TIP3    H245126   3.354   6.821   3.303 -0.6655  1.0697  0.8745
 7879TIP3   OH245127   2.836   2.604  16.036  0.2231 -0.2020  0.4495
 7879TIP3    H145128   2.825   2.697  16.058 -2.9768 -0.8915  2.2768
 7879TIP3    H245129   2.828   2.559  16.120 -0.7848 -2.2659 -0.6944
 7880TIP3   OH245130   0.081   4.339   2.890  0.6616 -0.4356 -0.0623
 7880TIP3    H145131   0.032   4.407   2.935  0.8716 -0.6982  0.5816
 7880TIP3    H245132   0.076   4.263   2.949 -2.1433 -1.9925 -2.0727
 7881TIP3   OH245133   1.169   3.227  11.736  0.1130 -0.4449 -0.2321
 7881TIP3    H145134   1.121   3.167  11.679  0.5578 -0.9620 -0.0806
 7881TIP3    H245135   1.128   3.215  11.822  0.6909 -1.1120 -0.0374
 7882TIP3   OH245136   4.586   3.774   2.676 -0.0145  0.2695  0.0341
 7882TIP3    H145137   4.582   3.854   2.624  2.6079  1.2471  1.1700
 7882TIP3    H245138   4.555   3.799   2.763  0.3385 -0.0588  0.2613
 7883TIP3   OH245139   5.702   0.645   3.812  0.6087  0.0184 -0.0924
 7883TIP3    H145140   5.787   0.615   3.781  1.2666  2.1411 -0.5174
 7883TIP3    H245141   5.720   0.681   3.899 -0.4254 -1.9647  1.0323
 7884TIP3   OH245142   5.170   1.426  14.916 -0.1114 -0.2212  0.2732
 7884TIP3    H145143   5.102   1.480  14.876 -0.0194 -0.1911  0.1590
 7884TIP3    H245144   5.126   1.343  14.935 -0.8994  0.6218  2.5460
 7885TIP3   OH245145   2.573   5.689   3.309  0.0893  0.2753 -0.1192
 7885TIP3    H145146   2.518   5.686   3.230  1.4066 -1.0169 -1.0361
 7885TIP3    H245147   2.518   5.651   3.377 -0.6309  0.2615 -0.6874
 7886TIP3   OH245148   6.730   4.564  15.300  0.0622 -0.7319 -0.8451
 7886TIP3    H145149   6.662   4.612  15.253  0.5246 -0.5479 -1.3328
 7886TIP3    H245150   6.694   4.476  15.312 -0.3520 -0.5689 -0.8927
 7887TIP3   OH245151   1.166   0.808   1.011 -0.0595 -0.0449 -0.5522
 7887TIP3    H145152   1.153   0.713   1.016 -0.6647 -0.0044 -1.2166
 7887TIP3    H245153   1.259   0.820   1.030 -0.0675 -0.7290 -0.0211
 7888TIP3   OH245154   0.556   6.834   4.048 -0.0372  0.2443  0.2811
 7888TIP3    H145155   0.482   6.776   4.068  0.1854  0.6849  2.6842
 7888TIP3    H245156   0.516   6.914   4.016 -0.5365  0.0165  0.3217
 7889TIP3   OH245157   1.776   0.598  12.475 -0.1053  0.2814 -0.8628
 7889TIP3    H145158   1.805   0.596  12.384  0.2799  0.3032 -0.7421
 7889TIP3    H245159   1.687   0.633  12.470 -0.7116 -1.2556 -1.3818
 7890TIP3   OH245160   3.929   2.554  14.354 -0.3287 -0.9111 -0.2762
 7890TIP3    H145161   3.972   2.634  14.322  0.3723 -0.1804  2.2087
 7890TIP3    H245162   3.839   2.581  14.373 -0.4649 -1.0747 -0.6866
 7891TIP3   OH245163   1.698   6.073  16.426  0.2231  0.4950 -0.2451
 7891TIP3    H145164   1.604   6.064  16.413 -0.2780  0.6072  2.7281
 7891TIP3    H245165   1.718   6.162  16.399 -0.6408  0.6822 -0.2805
 7892TIP3   OH245166   6.373   3.574   0.566  0.3016  0.1297 -0.1704
 7892TIP3    H145167   6.403   3.484   0.556  0.8990  0.2994  0.0633
 7892TIP3    H245168   6.425   3.624   0.504 -0.3469  0.2499 -0.6238
 7893TIP3   OH245169   4.215   0.076   5.322  0.2727  0.1645  0.7021
 7893TIP3    H145170   4.295   0.061   5.270 -0.2273  0.7758 -0.2662
 7893TIP3    H245171   4.166  -0.006   5.313 -0.2850  0.6259 -0.6710
 7894TIP3   OH245172   3.167   0.508  16.319 -0.0730 -0.7412  0.2585
 7894TIP3    H145173   3.175   0.525  16.413  2.7705  0.3896 -0.0993
 7894TIP3    H245174   3.130   0.589  16.283  0.1126 -0.6637  0.2421
 7895TIP3   OH245175   6.029   6.418  13.015  0.3365 -0.0455  0.6305
 7895TIP3    H145176   6.013   6.330  12.981  2.0713  0.1983 -1.0092
 7895TIP3    H245177   6.099   6.452  12.959 -0.2622  2.3659  1.2550
 7896TIP3   OH245178   4.855   5.721   3.892  1.0074  0.7240 -0.6916
 7896TIP3    H145179   4.920   5.659   3.926 -0.0297  0.3932  0.7756
 7896TIP3    H245180   4.902   5.804   3.887  1.7896  0.3023 -0.5049
 7897TIP3   OH245181   5.909   4.156   4.764 -0.4487 -0.1142  0.1840
 7897TIP3    H145182   5.851   4.162   4.839 -0.6504  2.3006 -0.0962
 7897TIP3    H245183   5.992   4.125   4.800 -1.3806 -1.9779  0.8476
 7898TIP3   OH245184   0.603   5.746  16.081  0.0336 -0.6174 -0.4050
 7898TIP3    H145185   0.536   5.726  16.016 -1.1231  0.8714  0.2687
 7898TIP3    H245186   0.626   5.837  16.065 -1.4653  0.3124  2.2326
 7899TIP3   OH245187   2.950   5.599  12.380  0.5702  0.3708  0.7081
 7899TIP3    H145188   2.883   5.626  12.318  1.7272  1.0108 -0.2897
 7899TIP3    H245189   3.033   5.631  12.343  1.2290  1.4928  2.9529
 7900TIP3   OH245190   5.550   6.671   1.314 -0.3008 -0.0815 -0.3813
 7900TIP3    H145191   5.643   6.673   1.337 -0.0431  0.7387 -1.3998
 7900TIP3    H245192   5.511   6.744   1.361 -0.1755  0.3304 -0.9026
 7901TIP3   OH245193   0.379   2.337  15.610  0.0301 -0.5550 -0.0416
 7901TIP3    H145194   0.472   2.317  15.620  0.2293  0.3759  0.0696
 7901TIP3    H245195   0.358   2.390  15.687 -0.2650  0.3420 -0.7258
 7902TIP3   OH245196   2.254   2.656  15.995  0.3980  0.3208 -0.4032
 7902TIP3    H145197   2.258   2.731  16.054 -0.6733  0.5037 -0.5409
 7902TIP3    H245198   2.193   2.683  15.926  0.5172 -0.4315 -0.8154
 7903TIP3   OH245199   4.077   4.458  12.008 -0.5348 -0.2794 -0.6387
 7903TIP3    H145200   4.072   4.551  11.986  0.4897  0.3768  1.6482
 7903TIP3    H245201   4.152   4.426  11.959  1.3313  0.9992  1.2116
 7904TIP3   OH245202   0.241   3.303  13.740  0.0433  0.1021 -0.0915
 7904TIP3    H145203   0.149   3.280  13.730 -0.8604  2.0297  2.5623
 7904TIP3    H245204   0.281   3.225  13.779 -0.6514 -0.4593 -0.4868
 7905TIP3   OH245205   4.484   5.011  12.231 -0.0719  0.1726 -0.2218
 7905TIP3    H145206   4.450   5.081  12.176  1.2705  0.3597 -0.8663
 7905TIP3    H245207   4.410   4.984  12.285 -2.0236 -1.2139 -3.2953
 7906TIP3   OH245208   4.013   1.208   2.869  0.4231  0.3100 -0.1910
 7906TIP3    H145209   3.919   1.200   2.881  0.3185  0.5408 -0.8372
 7906TIP3    H245210   4.046   1.118   2.879 -0.1702 -0.2154 -2.4557
 7907TIP3   OH245211   0.350   4.853  13.934  0.3009  0.9181  0.3166
 7907TIP3    H145212   0.420   4.916  13.918  1.2703  0.0962  1.2190
 7907TIP3    H245213   0.298   4.892  14.004  0.3027  1.1747  0.1754
 7908TIP3   OH245214   2.193   0.548   4.819  0.0015  0.2486  0.0609
 7908TIP3    H145215   2.142   0.478   4.860 -0.1133  0.5222  0.4009
 7908TIP3    H245216   2.129   0.597   4.768  0.5136 -1.3742 -2.2837
 7909TIP3   OH245217   6.405   2.200   2.196 -0.0768  0.1017 -0.1039
 7909TIP3    H145218   6.464   2.233   2.264 -1.3360  1.7392  0.2896
 7909TIP3    H245219   6.445   2.227   2.114  0.0929  0.5699  0.1283
 7910TIP3   OH245220   2.272   0.044  13.172  0.4448 -0.7183  0.4452
 7910TIP3    H145221   2.275   0.140  13.178 -2.5105 -0.4804 -0.1958
 7910TIP3    H245222   2.181   0.022  13.193  0.6990 -3.2780 -0.8057
 7911TIP3   OH245223   0.073   4.210   4.163 -0.5048  0.4458  0.3008
 7911TIP3    H145224   0.074   4.305   4.168  0.3445  0.3834  3.6869
 7911TIP3    H245225   0.163   4.186   4.142 -0.9115  0.3247 -1.5037
 7912TIP3   OH245226   6.518   0.538   4.672 -0.0537 -0.5787 -0.9608
 7912TIP3    H145227   6.571   0.503   4.743 -1.4263 -0.0749  0.3593
 7912TIP3    H245228   6.490   0.624   4.702 -3.5739 -1.7325 -0.4412
 7913TIP3   OH245229   2.457   6.168  16.549 -0.0031  0.1899 -0.4514
 7913TIP3    H145230   2.523   6.156  16.618 -0.6328  2.3408  0.6277
 7913TIP3    H245231   2.417   6.082  16.539  0.5807 -0.3539  1.3927
 7914TIP3   OH245232   5.186   3.327  11.367  0.2799  0.7252 -0.3771
 7914TIP3    H145233   5.213   3.240  11.337 -1.6938  0.6937 -2.3399
 7914TIP3    H245234   5.224   3.387  11.303 -2.2313  0.8424 -1.8742
 7915TIP3   OH245235   5.396   3.287   1.617  0.0604  0.2126  0.6954
 7915TIP3    H145236   5.345   3.247   1.547  1.1125 -2.2815  1.2359
 7915TIP3    H245237   5.409   3.377   1.589  0.3657 -0.6554 -2.2738
 7916TIP3   OH245238   5.189   1.319  13.003 -0.0912  0.3671 -0.3565
 7916TIP3    H145239   5.160   1.342  12.915 -0.9451  2.7987  0.4576
 7916TIP3    H245240   5.111   1.284  13.046 -0.4728  1.8831  0.2430
 7917TIP3   OH245241   6.745   0.203  13.667 -0.0353  0.0162  0.0074
 7917TIP3    H145242   6.816   0.141  13.651  0.4207  0.1363  1.4679
 7917TIP3    H245243   6.736   0.206  13.762 -1.6084  0.4552 -0.1317
 7918TIP3   OH245244   0.066   6.414  12.752 -0.2898 -0.0836  0.6349
 7918TIP3    H145245   0.087   6.473  12.825 -0.8348  2.5988 -1.2406
 7918TIP3    H245246   0.045   6.331  12.794 -1.1422  1.4852  3.5863
 7919TIP3   OH245247   2.353   1.908   1.714  0.0578 -0.0827 -0.2552
 7919TIP3    H145248   2.293   1.983   1.714  0.1251 -0.0284 -0.3663
 7919TIP3    H245249   2.309   1.842   1.768 -0.7774 -0.5723 -1.4791
 7920TIP3   OH245250   3.735   0.628  14.516  0.0743  0.0317 -0.1969
 7920TIP3    H145251   3.739   0.684  14.593  0.6101 -1.1068  0.6233
 7920TIP3    H245252   3.783   0.676  14.449  2.2681 -0.2930  1.0529
 7921TIP3   OH245253   5.606   6.196  13.634 -0.1298 -0.3708 -0.2669
 7921TIP3    H145254   5.540   6.264  13.645  0.3941  0.0824  0.1123
 7921TIP3    H245255   5.655   6.195  13.717 -0.1773 -1.2624 -0.2325
 7922TIP3   OH245256   6.250   4.536   2.699  0.5683 -0.4497 -0.1472
 7922TIP3    H145257   6.164   4.563   2.665  1.4225 -0.0939 -2.1542
 7922TIP3    H245258   6.236   4.447   2.731 -0.4441 -0.5940 -0.9311
 7923TIP3   OH245259   5.284   0.031   5.721  0.0907  0.1967 -0.6402
 7923TIP3    H145260   5.209   0.087   5.742 -0.0955  0.0063 -0.8026
 7923TIP3    H245261   5.307   0.054   5.631 -0.8307 -0.9434 -1.1812
 7924TIP3   OH245262   2.161   2.061   2.042  0.0951  0.1732  0.5684
 7924TIP3    H145263   2.180   1.992   2.105  0.2973 -1.5048 -1.2451
 7924TIP3    H245264   2.121   2.016   1.968 -1.1930  2.2294 -0.0644
 7925TIP3   OH245265   4.188   6.245  12.830  0.0664 -0.0890  0.3100
 7925TIP3    H145266   4.192   6.150  12.817  0.1627  0.0169 -0.4968
 7925TIP3    H245267   4.271   6.266  12.873  1.3888 -0.0160 -2.0969
 7926TIP3   OH245268   3.648   6.456   0.952  0.0282  0.3190 -0.0028
 7926TIP3    H145269   3.585   6.448   1.024  0.0391 -0.9237 -0.1237
 7926TIP3    H245270   3.665   6.550   0.946  1.1530  0.3672  2.6082
 7927TIP3   OH245271   4.302   0.520   3.436 -0.2912  0.0269 -0.2497
 7927TIP3    H145272   4.257   0.443   3.400  0.9370 -1.0325  0.3823
 7927TIP3    H245273   4.246   0.548   3.508 -1.5448  0.7135 -1.4329
 7928TIP3   OH245274   5.414   5.131   4.953  0.1051 -0.2337 -0.2629
 7928TIP3    H145275   5.501   5.171   4.956  0.0160 -0.0345 -0.2663
 7928TIP3    H245276   5.363   5.189   4.895 -0.3293  0.2634  0.5829
 7929TIP3   OH245277   2.158   5.179  15.880 -1.0568 -0.1863 -0.7737
 7929TIP3    H145278   2.211   5.197  15.802 -1.2177  0.8703 -0.6558
 7929TIP3    H245279   2.211   5.117  15.931 -0.1622  0.4412 -0.9127
 7930TIP3   OH245280   6.795   1.993   3.796  0.3164  0.0197  0.3864
 7930TIP3    H145281   6.810   2.025   3.707 -0.1716  0.8098  0.5796
 7930TIP3    H245282   6.704   1.963   3.796  0.1864  0.4060  0.7300
 7931TIP3   OH245283   5.654   1.087  14.769  0.0812 -0.4001  0.6845
 7931TIP3    H145284   5.683   1.144  14.698  0.6528 -1.3741  0.1034
 7931TIP3    H245285   5.573   1.047  14.735  0.2339 -0.6965  0.6656
 7932TIP3   OH245286   1.585   5.289   1.472 -0.6128  0.1275  0.4307
 7932TIP3    H145287   1.508   5.345   1.461  0.7195  1.9108 -0.2928
 7932TIP3    H245288   1.608   5.297   1.564  1.1158  3.0534 -0.1312
 7933TIP3   OH245289   0.971   6.250   3.533 -0.2247  0.2262  0.2380
 7933TIP3    H145290   0.951   6.271   3.624 -0.4173 -0.0545  0.2622
 7933TIP3    H245291   1.066   6.262   3.525 -0.3031  0.8939  0.3020
 7934TIP3   OH245292   1.136   1.968  14.768  0.0702 -0.2935  0.0017
 7934TIP3    H145293   1.191   1.965  14.690 -0.4406  0.9528 -0.4412
 7934TIP3    H245294   1.110   1.877  14.784  1.0739 -0.6986 -0.6226
 7935TIP3   OH245295   6.297   4.123   3.521 -0.1515 -0.0328  0.2989
 7935TIP3    H145296   6.275   4.118   3.428  0.3335  1.1864  0.0904
 7935TIP3    H245297   6.283   4.035   3.554 -2.4760 -0.0072 -0.4374
 7936TIP3   OH245298   5.863   5.104  15.363 -0.5641  0.0780  0.5157
 7936TIP3    H145299   5.912   5.183  15.386 -1.3132  0.3835  1.0964
 7936TIP3    H245300   5.926   5.033  15.374 -0.4326  0.3917  1.9478
 7937TIP3   OH245301   2.582   4.129   1.565 -0.7922  0.1026  0.2100
 7937TIP3    H145302   2.549   4.046   1.533 -0.7033  0.3143 -0.4371
 7937TIP3    H245303   2.528   4.195   1.524  0.1059  0.4299 -0.4864
 7938TIP3   OH245304   5.508   3.389  15.352  0.2653 -0.0591 -0.2470
 7938TIP3    H145305   5.511   3.325  15.280  1.2946  1.5063 -1.6613
 7938TIP3    H245306   5.596   3.387  15.388 -0.5682 -1.7512  1.8962
 7939TIP3   OH245307   0.947   0.394   5.684  0.0223  0.0354 -0.0046
 7939TIP3    H145308   0.855   0.368   5.677  0.3947 -1.0140 -1.7517
 7939TIP3    H245309   0.946   0.471   5.740 -1.8961 -0.0955  0.2138
 7940TIP3   OH245310   0.413   3.379  13.557  0.3926  0.4161  0.1308
 7940TIP3    H145311   0.369   3.333  13.628  1.8221 -0.3581  0.5588
 7940TIP3    H245312   0.374   3.466  13.556 -0.5320  0.0329  1.0209
 7941TIP3   OH245313   1.952   4.248  11.546 -0.0155 -0.7025 -0.0588
 7941TIP3    H145314   1.917   4.198  11.473 -0.2540 -1.2349  0.4170
 7941TIP3    H245315   1.956   4.338  11.514 -1.4812 -0.6862 -0.2473
 7942TIP3   OH245316   3.998   2.289  16.565 -0.2094 -0.5697  0.4534
 7942TIP3    H145317   4.069   2.261  16.508 -1.3744 -0.4268 -1.1216
 7942TIP3    H245318   4.033   2.279  16.654  0.8261 -3.1328 -0.1615
 7943TIP3   OH245319   3.630   3.632   3.541  0.6186  0.0615 -0.1037
 7943TIP3    H145320   3.631   3.706   3.602 -0.5945  0.6260 -0.7288
 7943TIP3    H245321   3.564   3.573   3.578 -0.8817  0.8750 -1.3428
 7944TIP3   OH245322   0.339   5.865  14.778 -0.1008  0.0271 -0.1359
 7944TIP3    H145323   0.269   5.907  14.728  2.1465  2.5246 -1.4900
 7944TIP3    H245324   0.367   5.792  14.722 -1.9598 -1.4325  0.7387
 7945TIP3   OH245325   0.924   0.990   3.290 -0.5280 -0.0004  0.9111
 7945TIP3    H145326   0.844   0.942   3.314 -0.3990  0.0931  1.5321
 7945TIP3    H245327   0.892   1.066   3.241 -0.6560 -1.6290 -1.7000
 7946TIP3   OH245328   2.482   0.364  12.147 -0.1597  0.2130 -0.3276
 7946TIP3    H145329   2.522   0.304  12.210  1.6372  1.8891  0.2079
 7946TIP3    H245330   2.493   0.451  12.186 -0.3876  1.1420 -2.2345
 7947TIP3   OH245331   5.943   2.519   0.561 -0.7525  0.0267 -0.5446
 7947TIP3    H145332   5.919   2.610   0.580  1.8517  0.8313 -0.6086
 7947TIP3    H245333   5.992   2.491   0.639  0.7476 -0.3682 -1.5863
 7948TIP3   OH245334   2.185   5.531   1.417  0.3065  0.1242  0.7962
 7948TIP3    H145335   2.258   5.487   1.460 -0.8332  0.1332  2.8853
 7948TIP3    H245336   2.131   5.459   1.383  0.9372  0.1017 -0.1999
 7949TIP3   OH245337   1.003   0.630   6.294  0.2309 -0.2724  0.4838
 7949TIP3    H145338   0.921   0.648   6.247  0.8962  0.7616 -0.3127
 7949TIP3    H245339   0.989   0.668   6.381  1.1947  3.4407 -0.8056
 7950TIP3   OH245340   6.001   0.230  16.655  0.3656 -0.2765 -0.0558
 7950TIP3    H145341   5.982   0.291  16.584  1.3920 -1.4465 -1.4068
 7950TIP3    H245342   6.083   0.261  16.692  0.8125 -0.7162 -0.6488
 7951TIP3   OH245343   2.816   0.866   2.966  0.7215  0.1555  0.1112
 7951TIP3    H145344   2.891   0.920   2.990  1.0826  0.2147 -1.1069
 7951TIP3    H245345   2.787   0.900   2.882 -1.1745  0.6427  0.8963
 7952TIP3   OH245346   4.450   5.782   5.830 -0.0122  0.2162 -0.7181
 7952TIP3    H145347   4.422   5.835   5.905  0.3419  0.1604 -0.5458
 7952TIP3    H245348   4.539   5.756   5.852 -0.7813 -1.9921  0.0599
 7953TIP3   OH245349   3.847   6.056   6.062  0.6300  0.3707  0.7436
 7953TIP3    H145350   3.813   6.125   6.005  1.3930  1.2589  1.3300
 7953TIP3    H245351   3.868   5.984   6.003 -1.1428  0.2208  0.2343
 7954TIP3   OH245352   3.341   1.654   3.029  0.4908 -0.0608  0.1606
 7954TIP3    H145353   3.434   1.643   3.009  0.3311 -0.9718 -0.0888
 7954TIP3    H245354   3.295   1.608   2.959 -0.1464  0.0711  0.4852
 7955TIP3   OH245355   6.678   4.115   1.771 -0.2528 -0.0175  0.4180
 7955TIP3    H145356   6.665   4.022   1.755  0.4821  0.1465 -1.3627
 7955TIP3    H245357   6.773   4.127   1.769 -0.3432  0.7885  0.4145
 7956TIP3   OH245358   0.019   3.143   2.003  0.0560 -0.2182  0.0224
 7956TIP3    H145359   0.111   3.158   2.023  0.1400 -1.1554  0.3839
 7956TIP3    H245360  -0.022   3.130   2.089 -0.4769  0.4813 -0.1126
 7957TIP3   OH245361   1.722   1.934  14.565 -0.0574  0.2792  0.1054
 7957TIP3    H145362   1.670   1.982  14.629 -0.7564  1.9851 -1.6100
 7957TIP3    H245363   1.668   1.858  14.543 -0.5593  0.5474  0.3791
 7958TIP3   OH245364   3.826   3.463  11.283  0.3023 -0.2287  0.3815
 7958TIP3    H145365   3.845   3.439  11.192 -0.6773 -1.1824  0.4107
 7958TIP3    H245366   3.771   3.392  11.316 -0.9230  1.0186  1.1431
 7959TIP3   OH245367   2.425   1.699  15.944 -0.0241  0.2403 -0.2717
 7959TIP3    H145368   2.384   1.781  15.972  2.6635  1.7846 -0.5160
 7959TIP3    H245369   2.454   1.658  16.026  1.0179  0.9253 -0.2759
 7960TIP3   OH245370   3.086   2.770   2.670  0.3399 -0.2127 -0.2055
 7960TIP3    H145371   3.006   2.753   2.720  0.3474  1.2685  0.3807
 7960TIP3    H245372   3.155   2.724   2.718 -0.0671 -1.0506 -0.4103
 7961TIP3   OH245373   5.315   2.327   0.420 -0.2361  0.3169  0.2829
 7961TIP3    H145374   5.330   2.355   0.510 -0.7206 -0.2352  0.5409
 7961TIP3    H245375   5.356   2.240   0.414  0.8334  0.8376 -0.3745
 7962TIP3   OH245376   3.668   0.791  14.161 -0.1267 -0.4263 -0.5384
 7962TIP3    H145377   3.693   0.762  14.073 -0.3248 -1.0630 -0.3924
 7962TIP3    H245378   3.595   0.734  14.185 -0.2843 -0.0401 -0.0921
 7963TIP3   OH245379   4.611   6.139   4.810 -0.4883  0.8845  0.0481
 7963TIP3    H145380   4.637   6.047   4.809 -0.2985  0.9058  1.2837
 7963TIP3    H245381   4.579   6.156   4.721  0.0562 -0.1952 -0.3716
 7964TIP3   OH245382   5.092   0.736  17.195  0.3977  0.1712 -0.1627
 7964TIP3    H145383   5.173   0.777  17.226  0.7461 -0.9482  0.4488
 7964TIP3    H245384   5.110   0.710  17.105  0.1292  1.4447 -0.6084
 7965TIP3   OH245385   2.927   4.967  12.460  0.0427  0.6259 -0.2387
 7965TIP3    H145386   2.875   5.037  12.500  2.4908  1.1220  2.3933
 7965TIP3    H245387   2.958   5.004  12.378  0.2598  2.1970  0.5125
 7966TIP3   OH245388   0.245   3.112  16.560 -0.9296 -0.0670 -0.3958
 7966TIP3    H145389   0.254   3.207  16.553  1.1505 -0.1016  1.0693
 7966TIP3    H245390   0.233   3.095  16.653 -2.8147 -1.1887 -0.7834
 7967TIP3   OH245391   5.789   4.114   3.307  0.1883 -0.7200 -0.6751
 7967TIP3    H145392   5.712   4.168   3.323  0.2631 -0.6613 -0.5027
 7967TIP3    H245393   5.798   4.061   3.387 -0.1131 -1.2704 -1.0034
 7968TIP3   OH245394   3.522   5.682   2.080 -0.5383  0.3368  1.5110
 7968TIP3    H145395   3.571   5.606   2.049 -1.8127  1.1741 -3.2735
 7968TIP3    H245396   3.433   5.650   2.094 -1.0534  0.8171 -0.4151
 7969TIP3   OH245397   1.540   0.120   2.517  0.0985 -0.2981 -0.3126
 7969TIP3    H145398   1.459   0.149   2.560  0.3339 -2.1882  1.5971
 7969TIP3    H245399   1.521   0.126   2.424 -1.9561  0.0694  0.0781
 7970TIP3   OH245400   5.321   4.311   6.246  0.3609 -0.2268  0.3539
 7970TIP3    H145401   5.352   4.227   6.279 -1.2083  0.1903  3.2134
 7970TIP3    H245402   5.380   4.376   6.286  0.9489  0.1091 -1.0218
 7971TIP3   OH245403   3.060   4.844  12.215 -0.5497  0.2947  0.2499
 7971TIP3    H145404   3.060   4.940  12.217  3.7324  0.4684  0.3371
 7971TIP3    H245405   3.042   4.823  12.123 -0.6412  1.2160  0.0424
 7972TIP3   OH245406   1.998   0.104  13.193 -0.0670  0.0157  0.0086
 7972TIP3    H145407   1.918   0.133  13.235  0.0720  2.4853 -1.2821
 7972TIP3    H245408   1.969   0.060  13.113 -0.1659  1.3456 -0.7110
 7973TIP3   OH245409   1.437   5.573  11.939  0.0195  0.5068 -0.0943
 7973TIP3    H145410   1.450   5.482  11.910 -0.8873  0.1174  0.6835
 7973TIP3    H245411   1.393   5.615  11.865  0.2709  0.2644 -0.3838
 7974TIP3   OH245412   2.972   0.712   0.724  0.1613  0.8378 -0.1990
 7974TIP3    H145413   2.919   0.722   0.804  1.6821  1.1734  0.8219
 7974TIP3    H245414   2.962   0.796   0.679 -0.5821  0.7090 -0.2831
 7975TIP3   OH245415   0.726   1.067  14.836  0.1328 -0.1765 -0.1002
 7975TIP3    H145416   0.787   1.141  14.834  0.4515 -0.4437 -0.3746
 7975TIP3    H245417   0.676   1.075  14.754 -1.1700  0.8355  0.7424
 7976TIP3   OH245418   5.804   3.300  17.116 -0.0605 -0.2853 -0.1453
 7976TIP3    H145419   5.886   3.331  17.153 -0.5764 -0.3741  1.1288
 7976TIP3    H245420   5.743   3.299  17.190 -0.7943 -1.7031 -0.7288
 7977TIP3   OH245421   3.376   2.079   0.078  0.2752  0.0776  0.2712
 7977TIP3    H145422   3.337   2.045  -0.002 -2.4353  3.3171  0.0016
 7977TIP3    H245423   3.446   2.136   0.049  0.7169 -0.4053  0.3699
 7978TIP3   OH245424   2.841   4.029  16.813 -0.1655 -0.3095  0.0999
 7978TIP3    H145425   2.797   4.007  16.894 -1.6612  1.2873 -0.2174
 7978TIP3    H245426   2.834   3.950  16.759 -0.0015 -1.0507  1.1375
 7979TIP3   OH245427   4.680   6.075  16.205  0.3450  0.0487 -0.2447
 7979TIP3    H145428   4.648   6.078  16.115  1.0528 -0.6639 -0.5346
 7979TIP3    H245429   4.733   5.995  16.209  0.0385 -0.1204  0.9011
 7980TIP3   OH245430   1.268   2.422   3.376  0.0421  0.5327  0.3117
 7980TIP3    H145431   1.244   2.462   3.459  2.4735  0.1978  1.2814
 7980TIP3    H245432   1.302   2.336   3.401 -1.7703 -0.7474 -1.3616
 7981TIP3   OH245433   0.525   1.275  14.925 -0.0505  0.9872  0.9277
 7981TIP3    H145434   0.616   1.301  14.935  0.3858 -0.0247 -0.1325
 7981TIP3    H245435   0.494   1.323  14.849  0.0124  0.3326  0.4774
 7982TIP3   OH245436   0.835   6.615   5.425 -0.0109  0.0667 -0.1926
 7982TIP3    H145437   0.874   6.557   5.360  0.0792 -1.0519  0.8299
 7982TIP3    H245438   0.900   6.622   5.495  0.1197  1.6928 -0.4251
 7983TIP3   OH245439   2.181   6.458   6.416  0.0096  0.2011 -0.3561
 7983TIP3    H145440   2.171   6.550   6.389 -0.9967 -0.0119 -0.7581
 7983TIP3    H245441   2.150   6.456   6.506  2.5979  0.7536  0.6271
 7984TIP3   OH245442   1.229   5.288   1.598  0.0121  0.5332  0.5125
 7984TIP3    H145443   1.212   5.199   1.569 -2.5057  1.2423 -0.4737
 7984TIP3    H245444   1.284   5.326   1.529  1.4403 -0.3268  1.1423
 7985TIP3   OH245445   1.554   2.143   3.102  0.0168 -0.3143 -0.4480
 7985TIP3    H145446   1.559   2.199   3.179 -1.5963 -2.4143  1.3405
 7985TIP3    H245447   1.643   2.110   3.090  0.2420 -0.2051  0.7587
 7986TIP3   OH245448   0.971   1.985   0.740 -0.4251  0.0663 -0.0392
 7986TIP3    H145449   1.008   1.911   0.691 -1.3628  0.7891 -1.9230
 7986TIP3    H245450   0.877   1.967   0.741 -0.5822  0.8945  0.1085
 7987TIP3   OH245451   4.106   6.065   0.197 -0.2221 -0.1661  0.4812
 7987TIP3    H145452   4.120   6.080   0.103  0.9008  0.9222  0.7980
 7987TIP3    H245453   4.044   5.993   0.200  0.8334 -1.2280 -1.1045
 7988TIP3   OH245454   4.456   1.802   3.376  0.1031 -0.3203 -0.3218
 7988TIP3    H145455   4.469   1.766   3.464 -0.2340  0.1379 -0.0836
 7988TIP3    H245456   4.540   1.788   3.332  0.4752 -0.0010  0.2721
 7989TIP3   OH245457   1.720   3.080   5.775  0.4273  0.0704 -0.5555
 7989TIP3    H145458   1.745   3.112   5.862 -0.0124  0.1368 -0.4507
 7989TIP3    H245459   1.787   3.116   5.716  0.1582  0.8692 -0.3848
 7990TIP3   OH245460   2.688   1.291   4.180  0.5572 -0.5323  0.1450
 7990TIP3    H145461   2.660   1.202   4.200 -1.3993  0.3210  1.4598
 7990TIP3    H245462   2.667   1.303   4.087  0.1661 -1.1974  0.1445
 7991TIP3   OH245463   5.380   2.790  13.824 -0.0410 -0.2507  0.4171
 7991TIP3    H145464   5.421   2.853  13.765  3.4110 -2.4293  0.1932
 7991TIP3    H245465   5.429   2.798  13.906 -0.8452 -1.2528  1.0323
 7992TIP3   OH245466   4.428   0.410   2.997  0.8760 -0.2543  0.1022
 7992TIP3    H145467   4.437   0.322   3.033 -1.1807 -0.9592 -0.9442
 7992TIP3    H245468   4.353   0.448   3.043  1.7874  1.0096  0.6055
 7993TIP3   OH245469   5.154   4.584   3.976 -0.2707 -0.3002  0.0814
 7993TIP3    H145470   5.127   4.506   3.928  0.5457 -0.2942 -0.4154
 7993TIP3    H245471   5.105   4.656   3.936  0.6591 -0.2467 -1.0058
 7994TIP3   OH245472   1.377   2.137   3.478  0.2315  0.2337 -0.8981
 7994TIP3    H145473   1.397   2.081   3.553 -1.0635  2.2053  1.0453
 7994TIP3    H245474   1.312   2.088   3.428 -0.3872 -0.2860  0.3824
 7995TIP3   OH245475   2.341   5.307   2.413 -0.1121  0.3716 -0.2806
 7995TIP3    H145476   2.375   5.370   2.477  1.9137 -1.8121  0.9587
 7995TIP3    H245477   2.407   5.304   2.344 -0.3030 -0.1976 -0.4438
 7996TIP3   OH245478   6.052   2.895   1.050 -0.4823 -0.0457 -0.3091
 7996TIP3    H145479   6.068   2.864   1.139  0.2932  0.9585 -0.0766
 7996TIP3    H245480   6.091   2.983   1.048  1.7758 -0.9823 -2.3357
 7997TIP3   OH245481   6.445   1.258  15.615  0.1181  0.2096  0.6552
 7997TIP3    H145482   6.469   1.309  15.692 -0.9930  0.4004  0.8885
 7997TIP3    H245483   6.352   1.240  15.626  0.0821 -0.2841 -0.3445
 7998TIP3   OH245484   0.949   2.933  13.191  0.1544  0.3394 -0.7943
 7998TIP3    H145485   0.875   2.934  13.130  1.4603 -3.9269 -2.9172
 7998TIP3    H245486   1.026   2.918  13.135  1.8850 -0.7342  1.6766
 7999TIP3   OH245487   2.802   0.042   0.956  0.2281  0.2231  0.6960
 7999TIP3    H145488   2.865  -0.025   0.982  2.0741  0.9132 -1.5777
 7999TIP3    H245489   2.723  -0.006   0.932  0.8165 -0.9471  1.0335
 8000TIP3   OH245490   2.620   0.102  12.618  0.2572  0.1761  0.5207
 8000TIP3    H145491   2.583   0.035  12.675  1.7135  0.3926  1.7553
 8000TIP3    H245492   2.714   0.087  12.620  0.3365 -0.3585 -2.5615
 8001TIP3   OH245493   2.647   0.934  11.785  0.2469 -0.3092 -0.4633
 8001TIP3    H145494   2.590   0.990  11.731  0.3067  0.7893  0.5729
 8001TIP3    H245495   2.586   0.881  11.836  0.1891 -1.1238 -1.3511
 8002TIP3   OH245496   1.700   5.409  12.751 -0.0351 -0.4874 -0.3477
 8002TIP3    H145497   1.614   5.408  12.710 -0.1253 -0.7942 -0.1585
 8002TIP3    H245498   1.755   5.459  12.691 -0.2210 -0.7416 -0.7326
 8003TIP3   OH245499   1.765   1.625  15.231  0.8616 -0.6452 -0.2132
 8003TIP3    H145500   1.814   1.674  15.166 -0.2544 -0.3636 -0.8751
 8003TIP3    H245501   1.758   1.684  15.306  0.6169 -0.2734 -0.5247
 8004TIP3   OH245502   5.365   2.151  15.401  0.3248 -0.2488  0.5241
 8004TIP3    H145503   5.359   2.150  15.496 -0.1061  0.7628  0.5177
 8004TIP3    H245504   5.379   2.243  15.379  3.0856 -0.7778 -0.2460
 8005TIP3   OH245505   0.254   2.182  16.258  0.4471  0.1981 -0.4354
 8005TIP3    H145506   0.168   2.166  16.297  0.4655  0.2483 -0.3722
 8005TIP3    H245507   0.235   2.212  16.169  0.3870  0.5767 -0.2981
 8006TIP3   OH245508   3.769   3.634   3.947  0.3872  0.6859  0.0980
 8006TIP3    H145509   3.774   3.543   3.916 -1.7038  0.8057 -0.7922
 8006TIP3    H245510   3.858   3.655   3.975  1.1822 -1.2426 -0.7866
 8007TIP3   OH245511   5.283   5.731  16.481 -0.0185 -0.0295  0.3659
 8007TIP3    H145512   5.308   5.821  16.505  0.7066  0.3009 -1.4570
 8007TIP3    H245513   5.298   5.680  16.561 -0.8854  1.5144  1.5897
 8008TIP3   OH245514   3.402   2.991   2.928 -0.5641  0.4274 -0.0889
 8008TIP3    H145515   3.356   3.001   3.012 -0.6485 -1.3539  0.1032
 8008TIP3    H245516   3.357   2.919   2.885 -0.6900  1.4909 -1.8134
 8009TIP3   OH245517   4.458   4.371  10.712 -0.0645  0.2028 -0.1379
 8009TIP3    H145518   4.446   4.418  10.630 -0.5006 -1.5716 -1.1505
 8009TIP3    H245519   4.500   4.434  10.770 -0.5248  1.7780 -1.4391
 8010TIP3   OH245520   1.671   0.333  11.488 -0.6647 -0.5248  0.3912
 8010TIP3    H145521   1.721   0.254  11.512 -0.7480 -0.3303  1.2339
 8010TIP3    H245522   1.704   0.401  11.547 -1.4944 -0.2401  0.5369
 8011TIP3   OH245523   4.002   0.818  13.855  0.1123  0.5090  0.3238
 8011TIP3    H145524   4.085   0.865  13.863  0.9242 -0.8182  0.0248
 8011TIP3    H245525   4.027   0.726  13.852 -1.4564  0.0173  1.2867
 8012TIP3   OH245526   4.119   5.321   3.401 -0.5550 -0.3399 -0.8935
 8012TIP3    H145527   4.144   5.235   3.435 -1.3597 -0.0446  0.5171
 8012TIP3    H245528   4.166   5.383   3.456 -1.5449  0.1427 -0.5744
 8013TIP3   OH245529   3.536   4.402  14.417 -0.1767 -0.2802  0.4124
 8013TIP3    H145530   3.480   4.395  14.494  0.1124  2.5898  0.9865
 8013TIP3    H245531   3.491   4.464  14.360  1.9072  1.4129  0.4876
 8014TIP3   OH245532   3.608   6.084   5.712  0.2294 -0.3690  0.5009
 8014TIP3    H145533   3.547   6.080   5.638  0.2765  2.4486  0.2041
 8014TIP3    H245534   3.552   6.077   5.790 -0.3027  0.5596  0.2134
 8015TIP3   OH245535   4.137   2.162   3.170  0.0621 -0.2432 -0.2469
 8015TIP3    H145536   4.204   2.210   3.219  0.6283 -1.2123 -0.0322
 8015TIP3    H245537   4.182   2.131   3.092 -0.0562 -1.0773 -0.0004
 8016TIP3   OH245538   4.141   0.847  16.765  0.0597  0.2485  0.2042
 8016TIP3    H145539   4.209   0.843  16.696  0.2115 -0.3331  0.3762
 8016TIP3    H245540   4.133   0.756  16.794 -0.7112  0.3375  0.2754
 8017TIP3   OH245541   2.026   1.540   2.841 -0.2674 -0.2303  0.1277
 8017TIP3    H145542   2.008   1.502   2.756 -0.5754  0.0387  0.0698
 8017TIP3    H245543   1.941   1.572   2.872 -0.1335 -0.1930  0.4695
 8018TIP3   OH245544   5.483   5.423   2.958 -0.1069  0.4243  0.7735
 8018TIP3    H145545   5.478   5.453   3.049 -0.8429 -2.5544  1.8287
 8018TIP3    H245546   5.575   5.399   2.946  0.2476  1.9010  0.2780
 8019TIP3   OH245547   4.642   2.286  14.242 -0.0982  0.0521  0.3222
 8019TIP3    H145548   4.553   2.278  14.206 -0.1438 -0.8572  0.6082
 8019TIP3    H245549   4.628   2.298  14.336  0.0645  0.8031  0.2554
 8020TIP3   OH245550   4.353   4.908   5.117 -0.6062  0.7180  0.0857
 8020TIP3    H145551   4.341   4.835   5.056  3.0422 -0.4815  0.5766
 8020TIP3    H245552   4.342   4.986   5.062 -2.0926 -0.2015 -1.0075
 8021TIP3   OH245553   6.790   2.639   0.307  0.2727  0.5221 -0.4504
 8021TIP3    H145554   6.774   2.620   0.399  1.1087  0.8362 -0.2355
 8021TIP3    H245555   6.734   2.577   0.260  1.6935 -1.4044  0.2525
 8022TIP3   OH245556   3.704   3.528   5.151  1.0779 -0.2846 -0.4719
 8022TIP3    H145557   3.749   3.511   5.068  2.4423 -0.5417  0.2842
 8022TIP3    H245558   3.736   3.614   5.179 -0.6195  0.5507 -0.9774
 8023TIP3   OH245559   5.888   2.330  12.869  0.4279  0.2780  0.1498
 8023TIP3    H145560   5.892   2.236  12.887 -0.3757  0.2324  0.1150
 8023TIP3    H245561   5.855   2.369  12.951 -1.6075  0.2527 -0.5984
 8024TIP3   OH245562   1.906   5.718   3.322  0.0143 -0.0989 -0.3391
 8024TIP3    H145563   1.832   5.751   3.271 -1.3599 -1.2840  0.8003
 8024TIP3    H245564   1.913   5.626   3.298  0.3376 -0.2884  0.4488
 8025TIP3   OH245565   4.840   2.151  16.018 -0.7437  0.0991 -0.0937
 8025TIP3    H145566   4.772   2.145  16.084  0.3966  1.2888  1.2707
 8025TIP3    H245567   4.837   2.242  15.988 -0.8219 -0.2612 -1.2436
 8026TIP3   OH245568   1.381   3.052   6.028  0.7621 -0.6621 -0.1278
 8026TIP3    H145569   1.403   2.959   6.028 -0.8108 -1.0617  0.5911
 8026TIP3    H245570   1.448   3.092   6.084  2.1980 -1.1260 -1.4394
 8027TIP3   OH245571   0.958   4.179   2.039 -0.6528  0.5703 -0.3419
 8027TIP3    H145572   0.982   4.096   2.080 -2.8941  1.4098  3.0904
 8027TIP3    H245573   0.987   4.170   1.948  0.8386 -3.1964  0.3201
 8028TIP3   OH245574   2.200   1.308   4.609 -0.0219  0.3327 -0.0146
 8028TIP3    H145575   2.181   1.328   4.518  0.9369  3.3188  0.3450
 8028TIP3    H245576   2.271   1.243   4.605  0.0810  0.4990 -1.3769
 8029TIP3   OH245577   3.517   4.494   5.796 -0.1441  0.2617  0.1238
 8029TIP3    H145578   3.494   4.549   5.721  0.1982 -0.4590 -0.5230
 8029TIP3    H245579   3.613   4.488   5.793 -0.2672 -2.3188 -1.2674
 8030TIP3   OH245580   5.248   4.152  15.138 -0.1198 -1.1094  0.0255
 8030TIP3    H145581   5.160   4.180  15.162 -0.7215 -2.7191 -0.1553
 8030TIP3    H245582   5.276   4.098  15.212  2.0748  1.9188  1.6380
 8031TIP3   OH245583   6.146   5.677  12.353 -0.6525 -0.5657  0.1216
 8031TIP3    H145584   6.136   5.680  12.448 -0.2910  1.4903  0.1473
 8031TIP3    H245585   6.057   5.663  12.320 -1.5118  2.7188  0.7126
 8032TIP3   OH245586   0.233   3.501  12.906  0.3074  0.0783  0.0246
 8032TIP3    H145587   0.324   3.479  12.924  0.4573  0.5193 -0.1957
 8032TIP3    H245588   0.185   3.419  12.921  0.6915 -0.0666  0.4663
 8033TIP3   OH245589   1.832   1.858  12.990  0.3151  0.4872  0.5694
 8033TIP3    H145590   1.879   1.784  13.029  0.5931  0.6936  0.6348
 8033TIP3    H245591   1.885   1.882  12.914 -1.5780 -1.5577 -1.5122
 8034TIP3   OH245592   6.263   5.050  14.800 -0.2819  0.3424  0.0247
 8034TIP3    H145593   6.248   5.018  14.889  0.2725  2.6359  1.0028
 8034TIP3    H245594   6.358   5.063  14.795 -0.4699  1.7648 -0.3026
 8035TIP3   OH245595   1.163   3.515   1.231  0.0445  0.1897  0.3928
 8035TIP3    H145596   1.247   3.475   1.209 -0.1694  0.3693 -0.8151
 8035TIP3    H245597   1.121   3.452   1.290  1.5863  0.7332  2.1581
 8036TIP3   OH245598   5.415   0.752  15.480  0.5085 -0.3888 -0.6052
 8036TIP3    H145599   5.472   0.677  15.495 -0.2576 -1.0703 -1.0501
 8036TIP3    H245600   5.474   0.820  15.446  1.8809  0.4567  3.0041
 8037TIP3   OH245601   3.540   2.247  17.167 -0.3098 -0.6490  0.1729
 8037TIP3    H145602   3.572   2.334  17.142 -0.8737 -0.8091 -1.1897
 8037TIP3    H245603   3.585   2.187  17.107 -0.6150 -1.1999  0.4882
 8038TIP3   OH245604   2.779   2.808   5.258 -0.1291 -0.2554  0.1338
 8038TIP3    H145605   2.786   2.721   5.297 -1.7085  0.0132  1.0992
 8038TIP3    H245606   2.791   2.869   5.330 -1.6420  0.2641  0.0024
 8039TIP3   OH245607   4.822   5.726  11.324  0.4189 -0.3015  0.0174
 8039TIP3    H145608   4.871   5.808  11.320  0.1901 -0.1750 -0.1808
 8039TIP3    H245609   4.775   5.731  11.407 -0.1607  0.0910 -0.3299
 8040TIP3   OH245610   5.031   0.157   4.850  0.0534 -0.0256  0.6157
 8040TIP3    H145611   4.972   0.112   4.789  0.7417  0.8471 -0.7212
 8040TIP3    H245612   4.979   0.165   4.931 -0.8032 -1.3785  0.2378
 8041TIP3   OH245613   1.385   4.946   2.629  0.5321  0.5421  0.5138
 8041TIP3    H145614   1.361   4.948   2.722  1.5645  1.5615  0.7764
 8041TIP3    H245615   1.426   5.030   2.613 -1.3210  1.1719 -1.3512
 8042TIP3   OH245616   5.832   3.421   4.145 -0.4307 -0.3835 -0.6207
 8042TIP3    H145617   5.882   3.345   4.116  0.7057 -0.4411  1.3573
 8042TIP3    H245618   5.767   3.386   4.205  0.1889  0.1992  0.4086
 8043TIP3   OH245619   3.788   5.188   4.065  0.1093 -0.2718 -0.0468
 8043TIP3    H145620   3.855   5.165   4.001  1.3511  0.9373  0.7763
 8043TIP3    H245621   3.735   5.109   4.074  0.2167 -0.6241 -2.1586
 8044TIP3   OH245622   1.727   4.852   3.887  0.2444 -0.0981 -0.0525
 8044TIP3    H145623   1.639   4.880   3.860  0.2671 -0.7383 -0.8113
 8044TIP3    H245624   1.783   4.878   3.814  0.8230  1.0138  0.7657
 8045TIP3   OH245625   0.898   3.182   0.870  0.3269 -0.2508 -0.1707
 8045TIP3    H145626   0.814   3.159   0.829  1.8584 -0.5249 -3.4915
 8045TIP3    H245627   0.957   3.111   0.844  1.8109  0.3074  1.4932
 8046TIP3   OH245628   1.686   5.943  13.824 -0.4018  0.0956  0.5442
 8046TIP3    H145629   1.744   5.978  13.892  0.8652 -0.0169 -0.4559
 8046TIP3    H245630   1.602   5.987  13.839 -0.2708 -0.2000  2.4027
 8047TIP3   OH245631   1.458   0.237  13.745  0.1111 -0.1073  0.2044
 8047TIP3    H145632   1.539   0.288  13.744 -0.3943  0.7272 -1.1393
 8047TIP3    H245633   1.406   0.277  13.814  0.5870 -0.2383  0.6473
 8048TIP3   OH245634   0.869   3.874   6.250 -0.4864 -0.0891  0.7706
 8048TIP3    H145635   0.915   3.843   6.328  0.2131 -1.9948 -0.3367
 8048TIP3    H245636   0.917   3.953   6.223  2.8215 -2.3972 -0.7878
 8049TIP3   OH245637   1.032   2.844   6.486 -0.1145 -0.4628 -0.5797
 8049TIP3    H145638   1.105   2.788   6.460 -0.7056 -0.8863 -1.4136
 8049TIP3    H245639   0.955   2.787   6.477 -0.4912 -0.2412  0.9543
 8050TIP3   OH245640   4.584   2.922   2.106 -0.4690 -0.2098 -0.0441
 8050TIP3    H145641   4.512   2.984   2.092 -1.5056 -1.2744  0.3747
 8050TIP3    H245642   4.662   2.969   2.078 -1.5747  0.2268 -2.6648
 8051TIP3   OH245643   1.585   5.550  16.598  0.1244 -0.4758 -0.5842
 8051TIP3    H145644   1.526   5.625  16.594  0.1005 -0.5548 -1.8693
 8051TIP3    H245645   1.655   5.571  16.537 -0.4068 -1.9298 -1.7544
 8052TIP3   OH245646   1.377   0.182  15.093 -0.1133  0.5834  0.4810
 8052TIP3    H145647   1.289   0.172  15.129 -0.8589  0.8518 -1.2063
 8052TIP3    H245648   1.378   0.269  15.054  0.1738 -0.2033 -1.3642
 8053TIP3   OH245649   5.949   5.057  16.980  0.2989  0.3802  0.2915
 8053TIP3    H145650   6.017   4.991  16.974  0.8062  0.7660  1.5352
 8053TIP3    H245651   5.916   5.050  17.069  0.0554  1.4987  0.3051
 8054TIP3   OH245652   3.038   1.755  16.444  0.8956 -0.5670  0.2626
 8054TIP3    H145653   3.107   1.758  16.377  0.7795 -0.2978  0.1494
 8054TIP3    H245654   2.997   1.670  16.432 -1.0234  0.5521 -1.9621
 8055TIP3   OH245655   0.269   2.617   4.683 -0.5215  0.2733  0.2504
 8055TIP3    H145656   0.311   2.577   4.606 -1.6943  1.0929 -0.8766
 8055TIP3    H245657   0.305   2.705   4.686 -1.8864  0.8868 -0.5580
 8056TIP3   OH245658   0.716   2.898  17.068  0.1567 -0.1931 -0.0869
 8056TIP3    H145659   0.752   2.874  17.153  2.1894  1.7009 -0.3103
 8056TIP3    H245660   0.769   2.850  17.005  0.8024  0.8195 -0.3463
 8057TIP3   OH245661   4.719   3.102   2.569 -0.1003 -0.5117 -0.1124
 8057TIP3    H145662   4.788   3.127   2.508 -0.3602 -0.5517 -0.4237
 8057TIP3    H245663   4.679   3.024   2.529 -1.0399  0.1466 -0.4850
 8058TIP3   OH245664   3.300   1.172  12.101 -0.2799 -0.3578 -0.1016
 8058TIP3    H145665   3.286   1.152  12.193 -2.5160 -1.1421 -0.5508
 8058TIP3    H245666   3.344   1.258  12.101  0.0362 -0.4869  1.6617
 8059TIP3   OH245667   3.868   5.371  10.555  0.0853 -0.4359  0.3849
 8059TIP3    H145668   3.906   5.394  10.470 -1.7290  2.2289  0.1767
 8059TIP3    H245669   3.779   5.341  10.534  0.9610 -4.0132  1.0814
 8060TIP3   OH245670   4.973   2.736  13.282 -0.3462  0.2565 -0.1580
 8060TIP3    H145671   4.999   2.775  13.365  0.4453  0.2587 -0.3979
 8060TIP3    H245672   5.050   2.688  13.253 -1.7455 -2.8844  0.9131
 8061TIP3   OH245673   1.819   4.597   5.486 -0.3271  0.4417 -0.2450
 8061TIP3    H145674   1.785   4.619   5.399 -0.8273 -0.3002 -0.2438
 8061TIP3    H245675   1.784   4.510   5.505 -1.3566  1.1221  1.2622
 8062TIP3   OH245676   6.489   4.486   1.482 -0.2127  0.1336 -0.4061
 8062TIP3    H145677   6.525   4.570   1.510  2.2983 -0.4791 -1.5153
 8062TIP3    H245678   6.543   4.421   1.527 -1.7608 -0.8943  0.0059
 8063TIP3   OH245679   5.778   2.099  14.360 -0.0506  0.3940 -0.3656
 8063TIP3    H145680   5.723   2.033  14.403 -0.9826  1.0824 -0.4773
 8063TIP3    H245681   5.818   2.147  14.433  1.8826 -1.2603 -0.2600
 8064TIP3   OH245682   2.629   3.260   5.286 -0.8344  0.3837 -0.1818
 8064TIP3    H145683   2.544   3.255   5.329 -0.4604  0.7650  0.6030
 8064TIP3    H245684   2.688   3.297   5.351  0.0052 -0.1364 -0.6250
 8065TIP3   OH245685   1.951   3.751   2.366 -0.0901  0.4816 -0.0621
 8065TIP3    H145686   1.895   3.687   2.408 -1.6500  0.8827 -1.4149
 8065TIP3    H245687   1.997   3.702   2.298  0.0304  0.4602  0.0344
 8066TIP3   OH245688   6.791   1.672   2.524  0.0499  0.1075  0.5658
 8066TIP3    H145689   6.831   1.752   2.560 -0.2709  0.0113  1.1483
 8066TIP3    H245690   6.699   1.677   2.551  0.1977 -0.8425  1.2817
 8067TIP3   OH245691   3.644   0.283  11.729 -0.1836 -0.1224 -0.1301
 8067TIP3    H145692   3.695   0.339  11.788 -0.5344 -0.2099  0.2649
 8067TIP3    H245693   3.554   0.290  11.762 -0.0220 -2.1416  0.9131
 8068TIP3   OH245694   1.498   1.242  13.359  0.2916 -0.0545  0.3883
 8068TIP3    H145695   1.467   1.172  13.416  1.2524 -1.3408 -0.6225
 8068TIP3    H245696   1.418   1.275  13.317 -0.0213 -1.8091 -0.5052
 8069TIP3   OH245697   0.610   0.591  16.418 -0.4165  0.1445  0.1800
 8069TIP3    H145698   0.655   0.569  16.337 -1.8120 -1.8634 -0.1275
 8069TIP3    H245699   0.521   0.613  16.391 -0.8145 -0.2401  1.1187
 8070TIP3   OH245700   1.695   1.594   6.678  0.1864 -0.3752 -0.5622
 8070TIP3    H145701   1.672   1.659   6.612 -0.3292  1.2171  1.1246
 8070TIP3    H245702   1.613   1.548   6.696 -0.2197  0.7755  0.6238
 8071TIP3   OH245703   4.818   6.189  16.694 -0.0996 -0.0625  0.3595
 8071TIP3    H145704   4.746   6.126  16.692 -0.5225  0.3956  0.8847
 8071TIP3    H245705   4.870   6.168  16.616  0.0682 -1.3954  0.8056
 8072TIP3   OH245706   4.168   4.287   0.742 -0.6480  0.2896 -0.0823
 8072TIP3    H145707   4.146   4.257   0.830 -1.0327 -1.1818 -0.6466
 8072TIP3    H245708   4.235   4.354   0.755  1.8741 -2.2597  1.2245
 8073TIP3   OH245709   3.653   2.544  14.417 -0.4537  0.1354 -0.2949
 8073TIP3    H145710   3.628   2.590  14.337  0.4029  1.0146 -0.0695
 8073TIP3    H245711   3.615   2.596  14.488 -2.0302 -1.1571 -0.1308
 8074TIP3   OH245712   6.437   6.365  13.367 -0.0112 -0.2629  0.0611
 8074TIP3    H145713   6.413   6.417  13.444 -1.5366 -1.4743  0.4513
 8074TIP3    H245714   6.361   6.372  13.309  0.1826 -1.1961 -0.3247
 8075TIP3   OH245715   6.066   3.646  15.324  0.1940 -0.4538  0.7650
 8075TIP3    H145716   6.151   3.689  15.310  1.4044 -2.4588  1.5453
 8075TIP3    H245717   6.005   3.698  15.271  2.2331 -0.0452 -1.3993
 8076TIP3   OH245718   3.140   3.728  16.775 -0.4039 -0.3154 -0.2479
 8076TIP3    H145719   3.066   3.754  16.720 -0.4304 -1.7089 -0.9262
 8076TIP3    H245720   3.099   3.696  16.856 -0.5459 -0.9927 -0.5837
 8077TIP3   OH245721   0.134   4.898  16.944  0.0913 -0.7207 -1.0270
 8077TIP3    H145722   0.141   4.828  17.010 -0.1449  1.6481  1.7096
 8077TIP3    H245723   0.219   4.897  16.899  0.5685 -1.9205 -0.1556
 8078TIP3   OH245724   1.499   0.082   0.356  0.4070  0.0792 -0.4020
 8078TIP3    H145725   1.485  -0.003   0.398 -2.0521 -0.2793 -1.7979
 8078TIP3    H245726   1.517   0.141   0.429  2.9407 -1.6645  0.5659
 8079TIP3   OH245727   2.077   3.130   0.579  0.4019 -0.2073 -0.0310
 8079TIP3    H145728   2.056   3.190   0.508 -0.0902  0.1335  0.3977
 8079TIP3    H245729   2.121   3.185   0.644  1.1620 -0.5839 -0.2078
 8080TIP3   OH245730   2.334   2.226  16.671 -0.0236 -0.3311  0.0833
 8080TIP3    H145731   2.268   2.156  16.674  0.8915 -1.2251 -0.2395
 8080TIP3    H245732   2.416   2.183  16.693  0.6381  0.5517 -0.5785
 8081TIP3   OH245733   6.751   0.708  14.111 -0.4636 -0.3657  0.1540
 8081TIP3    H145734   6.684   0.763  14.070 -0.9634 -0.8367  0.3317
 8081TIP3    H245735   6.790   0.660  14.038 -1.3020 -1.1482  0.2056
 8082TIP3   OH245736   0.972   4.364   3.847 -0.5584 -0.6588  0.1027
 8082TIP3    H145737   1.016   4.419   3.912 -2.8745  2.7889 -0.9845
 8082TIP3    H245738   1.040   4.342   3.783  0.5905  0.4690  0.9061
 8083TIP3   OH245739   6.742   3.933   1.583 -0.7395 -0.3848  0.5419
 8083TIP3    H145740   6.794   3.900   1.656  2.4596  0.4814 -1.1614
 8083TIP3    H245741   6.779   3.891   1.505 -3.3686 -0.5276 -0.7582
 8084TIP3   OH245742   3.898   1.454  16.843  0.0498 -0.1359 -0.0938
 8084TIP3    H145743   3.991   1.444  16.863  0.1059  0.1904 -0.1742
 8084TIP3    H245744   3.896   1.525  16.778 -0.2240 -0.3834 -0.3565
 8085TIP3   OH245745   3.373   2.141   0.835  0.2828 -0.5236  0.0174
 8085TIP3    H145746   3.365   2.132   0.740  0.0164 -1.1056  0.0888
 8085TIP3    H245747   3.294   2.189   0.861 -0.9282 -2.5172  0.2182
 8086TIP3   OH245748   4.076   1.341   2.630  0.2005  0.0202  0.5760
 8086TIP3    H145749   4.075   1.284   2.706 -0.1816 -1.4994 -0.5136
 8086TIP3    H245750   3.990   1.330   2.590  0.3948  0.7677 -0.0885
 8087TIP3   OH245751   2.211   1.125  16.922 -0.2118 -0.2739  0.2532
 8087TIP3    H145752   2.254   1.106  17.005  1.0066  0.5292 -0.1601
 8087TIP3    H245753   2.262   1.076  16.857  0.3576  1.0077 -0.2933
 8088TIP3   OH245754   2.370   0.550  13.259 -0.4051 -1.1893 -0.7350
 8088TIP3    H145755   2.306   0.595  13.204 -0.3670 -0.4720 -0.2160
 8088TIP3    H245756   2.454   0.591  13.236 -0.7647  1.6090  2.1805
 8089TIP3   OH245757   1.209   2.475   5.966  0.3004  0.0851  0.6629
 8089TIP3    H145758   1.187   2.397   6.016  4.0824 -2.3127 -0.9285
 8089TIP3    H245759   1.274   2.521   6.019  0.8010  0.0917  0.0691
 8090TIP3   OH245760   4.227   4.414   2.886  0.1607  0.1424 -0.3013
 8090TIP3    H145761   4.191   4.326   2.887  0.0812  0.0571  3.6578
 8090TIP3    H245762   4.150   4.471   2.882 -0.0842 -0.0427  1.1134
 8091TIP3   OH245763   5.156   1.573  13.671  0.6958 -0.4986 -0.6018
 8091TIP3    H145764   5.122   1.648  13.721  1.5003 -0.9001  0.5848
 8091TIP3    H245765   5.089   1.505  13.681  0.7471 -0.4995 -0.2391
 8092TIP3   OH245766   0.350   1.679  14.531 -0.0700 -0.1756 -0.0958
 8092TIP3    H145767   0.424   1.622  14.512 -0.6283 -0.8805 -0.1779
 8092TIP3    H245768   0.375   1.723  14.613 -0.0155 -1.2112  0.4632
 8093TIP3   OH245769   4.371   2.813  15.038 -0.0092 -0.0524 -0.1475
 8093TIP3    H145770   4.283   2.781  15.059  0.3013 -0.5769  0.3630
 8093TIP3    H245771   4.419   2.809  15.121  0.6790 -0.3524 -0.5508
 8094TIP3   OH245772   2.824   1.973   3.483 -0.1253 -0.0835 -0.4395
 8094TIP3    H145773   2.909   1.938   3.455  1.3499  1.7129  1.5101
 8094TIP3    H245774   2.796   2.030   3.412  0.3322 -0.6277 -1.0606
 8095TIP3   OH245775   1.955   5.356   3.511 -0.1631 -0.0453 -0.5747
 8095TIP3    H145776   1.932   5.362   3.604 -0.9662  1.5680 -0.8542
 8095TIP3    H245777   2.022   5.423   3.498 -0.4745  0.1375 -1.2777
 8096TIP3   OH245778   1.740   0.364   1.459  0.4279  0.3182  0.0796
 8096TIP3    H145779   1.706   0.448   1.431  0.3608  0.4148  0.4537
 8096TIP3    H245780   1.664   0.315   1.489  0.6606  0.6654  1.2525
 8097TIP3   OH245781   1.367   3.940   3.763 -0.0070 -0.4419 -0.7634
 8097TIP3    H145782   1.419   3.972   3.689 -0.4230 -0.5698 -1.1168
 8097TIP3    H245783   1.276   3.947   3.733 -0.1840 -0.4041 -0.2252
 8098TIP3   OH245784   5.101   1.980  15.611  0.5044  0.1970  0.1680
 8098TIP3    H145785   5.150   2.061  15.617 -0.8312  0.9897  0.9714
 8098TIP3    H245786   5.042   1.982  15.687 -0.8382 -0.6399 -0.8064
 8099TIP3   OH245787   0.163   3.710   5.778 -0.0989  0.3034 -0.4168
 8099TIP3    H145788   0.087   3.727   5.834 -0.4499  1.2111 -1.1618
 8099TIP3    H245789   0.219   3.787   5.790  0.1067  0.2231 -0.8477
 8100TIP3   OH245790   3.386   5.902   2.992 -0.1527  0.1068 -0.5594
 8100TIP3    H145791   3.437   5.876   2.915 -0.2066  1.0756 -0.9388
 8100TIP3    H245792   3.452   5.927   3.057 -0.0913 -1.1402 -0.1026
 8101TIP3   OH245793   4.709   2.142   3.913 -0.0026 -0.2654 -0.3275
 8101TIP3    H145794   4.730   2.132   3.820 -0.5484 -1.4073 -0.3471
 8101TIP3    H245795   4.737   2.231   3.934 -3.0106  1.3990 -2.4733
 8102TIP3   OH245796   0.337   0.313   4.547  1.0532  0.3364  0.2012
 8102TIP3    H145797   0.264   0.263   4.584  0.1029  1.1396 -0.5466
 8102TIP3    H245798   0.396   0.327   4.621 -0.2850  0.9703  1.1887
 8103TIP3   OH245799   0.276   5.192  14.276 -0.1388  0.1679 -0.0423
 8103TIP3    H145800   0.367   5.182  14.304 -0.7200 -2.2768  1.2470
 8103TIP3    H245801   0.267   5.286  14.261  2.9167  0.3644 -1.5070
 8104TIP3   OH245802   1.192   0.696  14.915  0.4040  0.2512 -0.2123
 8104TIP3    H145803   1.203   0.665  14.825 -1.3439  1.4282 -0.8829
 8104TIP3    H245804   1.155   0.621  14.961  0.1476  0.0207 -0.7782
 8105TIP3   OH245805   2.696   3.347  13.564 -0.0870 -0.3667  0.5119
 8105TIP3    H145806   2.749   3.427  13.569 -1.5949  0.7142  0.0571
 8105TIP3    H245807   2.721   3.306  13.481  2.2190 -1.5663  1.6836
 8106TIP3   OH245808   1.983   6.076   1.289  0.0540 -0.2327 -0.6381
 8106TIP3    H145809   2.049   6.055   1.222 -1.1057  1.6857 -2.5196
 8106TIP3    H245810   1.943   5.992   1.310  0.7352 -0.9558 -2.0646
 8107TIP3   OH245811   2.814   3.881  14.274  0.6013 -0.0556 -0.1612
 8107TIP3    H145812   2.780   3.799  14.308 -0.3337  0.9905  1.5767
 8107TIP3    H245813   2.909   3.875  14.285  0.4457 -0.4439  1.0675
 8108TIP3   OH245814   5.054   3.557   4.114  0.0163 -0.1303  0.0317
 8108TIP3    H145815   5.133   3.534   4.162 -0.0865  2.9601  1.9843
 8108TIP3    H245816   5.071   3.529   4.024  2.4827 -1.2931  0.7725
 8109TIP3   OH245817   3.055   5.082   2.594 -0.2093  0.6642  0.1239
 8109TIP3    H145818   3.076   5.099   2.502  0.1582 -0.2783  0.0288
 8109TIP3    H245819   3.069   4.988   2.605 -1.2549  0.5850  0.8909
 8110TIP3   OH245820   4.293   5.035  15.326  0.2053 -0.3342  0.3203
 8110TIP3    H145821   4.279   5.040  15.231 -0.1197 -1.1395  0.3176
 8110TIP3    H245822   4.305   5.126  15.353 -0.1044 -0.0600 -0.4330
 8111TIP3   OH245823   6.762   2.580  16.710 -0.0624 -0.2863 -0.4601
 8111TIP3    H145824   6.731   2.651  16.655  2.9622 -0.2112 -2.3038
 8111TIP3    H245825   6.699   2.509  16.697 -0.9569  0.7135 -1.7930
 8112TIP3   OH245826   6.832   3.795   5.526  0.4094  0.1247 -0.2538
 8112TIP3    H145827   6.760   3.770   5.582  0.2008 -0.5167 -0.7893
 8112TIP3    H245828   6.791   3.823   5.444  0.6866  1.4009  0.0148
 8113TIP3   OH245829   4.791   2.453  13.916 -0.2351  0.2444  0.3130
 8113TIP3    H145830   4.879   2.480  13.945 -0.3536 -0.1821  1.0975
 8113TIP3    H245831   4.802   2.430  13.824  0.2146  1.3776  0.0619
 8114TIP3   OH245832   2.560   5.800  14.898 -0.5271  0.2264  0.1214
 8114TIP3    H145833   2.514   5.845  14.827 -0.1973  0.2729 -0.0652
 8114TIP3    H245834   2.581   5.869  14.961 -0.6982  0.2069  0.2009
 8115TIP3   OH245835   0.263   0.522   1.590  0.1748 -0.2335  0.4085
 8115TIP3    H145836   0.340   0.544   1.642 -0.2489  0.8652  0.6134
 8115TIP3    H245837   0.189   0.544   1.646 -0.3246  2.3774 -1.0697
 8116TIP3   OH245838   6.396   0.323   1.640 -0.2539  0.3021  0.2072
 8116TIP3    H145839   6.338   0.399   1.645  0.7087  1.1290 -0.5291
 8116TIP3    H245840   6.479   0.354   1.677  0.5030  0.0116 -1.1532
 8117TIP3   OH245841   5.660   6.071   3.558  0.1161  0.0527  0.1438
 8117TIP3    H145842   5.611   6.007   3.507 -0.9683  0.5028  0.5665
 8117TIP3    H245843   5.695   6.132   3.494 -1.7723  0.9859 -0.0858
 8118TIP3   OH245844   5.015   5.443   0.576 -0.3768  0.4411 -0.0515
 8118TIP3    H145845   4.999   5.536   0.597 -3.0395  0.0343  0.1340
 8118TIP3    H245846   4.947   5.396   0.625 -1.2749 -1.3032 -2.7482
 8119TIP3   OH245847   0.508   0.633   5.237  0.1461 -0.3619 -0.5094
 8119TIP3    H145848   0.415   0.636   5.258  0.3414 -0.5202  0.4067
 8119TIP3    H245849   0.550   0.688   5.303  0.8482 -1.4440 -0.0160
 8120TIP3   OH245850   2.298   3.946   4.518 -0.6019 -0.0972 -0.3073
 8120TIP3    H145851   2.247   3.976   4.443 -0.3017  0.1090 -0.4336
 8120TIP3    H245852   2.247   3.972   4.594 -1.6469 -1.6254 -0.4461
 8121TIP3   OH245853   2.542   3.914  14.217  0.2839 -0.4325 -0.2021
 8121TIP3    H145854   2.521   3.821  14.205  0.3370 -0.4045 -0.5123
 8121TIP3    H245855   2.637   3.919  14.208  0.2823 -0.3504 -0.1740
 8122TIP3   OH245856   6.046   5.499  10.903  0.2718 -0.0316 -0.4520
 8122TIP3    H145857   6.040   5.419  10.851  1.4278 -0.1489 -0.4285
 8122TIP3    H245858   5.972   5.493  10.964 -0.1063 -0.7013 -0.9592
 8123TIP3   OH245859   0.429   3.536  15.716  0.2809  0.0923  0.0993
 8123TIP3    H145860   0.398   3.529  15.806 -2.9270 -0.5595 -0.9509
 8123TIP3    H245861   0.403   3.624  15.688 -0.5635 -0.4010 -0.7527
 8124TIP3   OH245862   6.745   5.530  11.565  0.1081  0.4562  0.7199
 8124TIP3    H145863   6.701   5.598  11.616  0.5333  1.9004 -0.7461
 8124TIP3    H245864   6.757   5.458  11.626 -1.0884  1.3916  2.1164
 8125TIP3   OH245865   2.507   0.335  11.655 -0.0334  0.0008  0.3780
 8125TIP3    H145866   2.602   0.326  11.648 -0.1489 -2.0532  0.5975
 8125TIP3    H245867   2.493   0.404  11.720  1.3722 -1.2040  2.0473
 8126TIP3   OH245868   6.209   3.621   5.078  0.0565 -0.2046  0.0869
 8126TIP3    H145869   6.175   3.539   5.044 -1.4883  0.1501  0.6699
 8126TIP3    H245870   6.172   3.688   5.020  0.3840  0.1518  0.2831
 8127TIP3   OH245871   3.748   1.121   3.448 -0.0036 -0.3076  0.1767
 8127TIP3    H145872   3.839   1.121   3.421  0.0314  1.9132  0.1659
 8127TIP3    H245873   3.725   1.028   3.453  1.8977 -0.8928 -0.9344
 8128TIP3   OH245874   0.726   6.221   1.901  0.2736 -0.0441 -0.2161
 8128TIP3    H145875   0.718   6.236   1.995 -0.6654 -0.0435 -0.2865
 8128TIP3    H245876   0.774   6.139   1.893 -1.6235 -1.2775  0.3221
 8129TIP3   OH245877   3.835   2.396   5.709 -0.6799  0.0222  0.2308
 8129TIP3    H145878   3.921   2.354   5.717  0.1959  1.4117 -1.2284
 8129TIP3    H245879   3.788   2.342   5.647 -0.4209 -0.0879  0.1273
 8130TIP3   OH245880   2.121   5.194  14.627  0.4260  0.5745  0.2341
 8130TIP3    H145881   2.035   5.156  14.609  0.7361 -1.6686  2.8753
 8130TIP3    H245882   2.167   5.192  14.543 -0.6552 -2.2326 -0.3960
 8131TIP3   OH245883   4.570   1.147   0.526 -0.1490 -0.2460  0.5770
 8131TIP3    H145884   4.532   1.226   0.564 -0.4965  0.0900 -0.4320
 8131TIP3    H245885   4.600   1.174   0.439  0.5891 -0.9948  0.5794
 8132TIP3   OH245886   5.916   1.619   2.516  0.0227  0.5397 -0.3677
 8132TIP3    H145887   5.945   1.617   2.425 -1.4381  1.1734 -0.8885
 8132TIP3    H245888   5.947   1.537   2.554  1.9422  0.9279 -0.9917
 8133TIP3   OH245889   6.541   3.328  12.196 -0.2121 -0.3415 -0.1431
 8133TIP3    H145890   6.522   3.354  12.286 -0.2622  0.5005 -0.3888
 8133TIP3    H245891   6.627   3.365  12.178 -0.3780 -0.1462 -0.5687
 8134TIP3   OH245892   4.676   0.416  13.245 -0.3304 -0.1464 -0.5316
 8134TIP3    H145893   4.752   0.438  13.190 -0.4911 -0.3268 -0.8255
 8134TIP3    H245894   4.615   0.488  13.230  0.6921  1.2669  1.4914
 8135TIP3   OH245895   3.175   1.537  14.300 -0.2527  0.8043  0.5097
 8135TIP3    H145896   3.113   1.573  14.237 -1.0728  1.1311  1.4838
 8135TIP3    H245897   3.122   1.511  14.375  0.4955 -1.1126  0.4435
 8136TIP3   OH245898   5.833   4.854  14.278 -0.0383  0.9789  1.2135
 8136TIP3    H145899   5.766   4.848  14.210  2.7418  1.2011 -1.7956
 8136TIP3    H245900   5.832   4.768  14.320  1.0243 -0.8688 -2.2008
 8137TIP3   OH245901   2.353   5.426  16.380  0.2804 -0.0157  0.5438
 8137TIP3    H145902   2.299   5.349  16.360 -2.8929  2.2813 -0.6683
 8137TIP3    H245903   2.394   5.449  16.296 -0.6419  0.8292  0.2934
 8138TIP3   OH245904   0.868   1.222  16.489 -0.4509 -0.1087 -1.0016
 8138TIP3    H145905   0.917   1.162  16.432 -1.1525  0.8187 -2.6352
 8138TIP3    H245906   0.935   1.283  16.522 -0.1146 -0.3805 -1.1688
 8139TIP3   OH245907   3.634   4.130   4.730 -0.3284 -0.8169 -0.0027
 8139TIP3    H145908   3.600   4.209   4.771 -0.7383 -1.2209  0.4605
 8139TIP3    H245909   3.604   4.135   4.639  2.1135  0.9806 -0.8104
 8140TIP3   OH245910   5.813   4.067  11.985 -0.1411 -0.4395 -0.0946
 8140TIP3    H145911   5.900   4.038  12.010 -0.4225  0.2048  1.7774
 8140TIP3    H245912   5.793   4.017  11.906  1.7587 -0.8622 -0.3640
 8141TIP3   OH245913   0.119   6.158  11.402  0.3752  0.0055  0.2328
 8141TIP3    H145914   0.117   6.133  11.495  1.2821  0.0317  0.2728
 8141TIP3    H245915   0.203   6.125  11.370 -1.0107 -2.2936 -1.2732
 8142TIP3   OH245916   4.149   6.123  10.974 -0.1006  0.0246 -0.4380
 8142TIP3    H145917   4.142   6.054  10.908 -1.9267 -0.9960  0.7048
 8142TIP3    H245918   4.144   6.204  10.925 -2.2098 -0.7046 -1.5864
 8143TIP3   OH245919   1.605   1.443   0.731  0.0414  0.3079 -0.2592
 8143TIP3    H145920   1.678   1.492   0.692  0.6817 -0.7065 -0.3712
 8143TIP3    H245921   1.537   1.444   0.664  0.7675 -0.5711 -1.0423
 8144TIP3   OH245922   6.380   4.545   6.626  0.1148 -0.0879 -0.1667
 8144TIP3    H145923   6.416   4.632   6.610 -1.5336  1.2817  2.8898
 8144TIP3    H245924   6.458   4.489   6.636  1.2003  0.8824 -2.3094
 8145TIP3   OH245925   0.232   6.624   1.562 -0.3519  0.2995  0.0466
 8145TIP3    H145926   0.173   6.684   1.608  3.4859  2.6233  2.5203
 8145TIP3    H245927   0.254   6.558   1.628 -1.3625 -1.5456 -1.3803
 8146TIP3   OH245928   4.231   4.998  14.684 -0.2057  0.2578 -0.1321
 8146TIP3    H145929   4.215   5.054  14.607  0.0371 -0.0755 -0.4242
 8146TIP3    H245930   4.146   4.996  14.730 -0.6060 -0.2740 -0.8738
 8147TIP3   OH245931   6.608   1.489  16.789  0.1755 -0.1554 -0.7777
 8147TIP3    H145932   6.671   1.477  16.860  0.2988 -1.9695 -1.1320
 8147TIP3    H245933   6.530   1.524  16.833  0.0474 -1.7784  0.4024
 8148TIP3   OH245934   4.141   0.427  11.966  0.0447 -0.7216 -0.0551
 8148TIP3    H145935   4.059   0.438  11.918 -1.0292  0.8978  1.9807
 8148TIP3    H245936   4.209   0.444  11.901 -1.3252  1.4340 -1.0312
 8149TIP3   OH245937   1.577   3.555   0.893 -0.3457 -0.5729 -0.1404
 8149TIP3    H145938   1.501   3.606   0.866  1.0473  0.6662 -2.0459
 8149TIP3    H245939   1.613   3.520   0.811  2.5636  1.0204  0.3004
 8150TIP3   OH245940   5.607   5.278  16.783  0.0930 -0.4699 -0.1730
 8150TIP3    H145941   5.642   5.368  16.779  0.5150 -0.6489 -0.7596
 8150TIP3    H245942   5.564   5.272  16.868  0.3568  0.1843  0.0118
 8151TIP3   OH245943   4.358   5.133   4.983 -0.1367  0.3028  0.0103
 8151TIP3    H145944   4.307   5.203   5.024  0.1724 -0.5101  1.8991
 8151TIP3    H245945   4.356   5.154   4.890 -0.7262  2.3736  0.4172
 8152TIP3   OH245946   6.010   6.119   3.144 -0.3383 -0.3082  0.3678
 8152TIP3    H145947   6.015   6.175   3.066  1.1482  0.0920  0.7278
 8152TIP3    H245948   6.101   6.105   3.170 -0.8062 -0.3925  2.0804
 8153TIP3   OH245949   3.718   5.213   1.779 -0.6677  0.2647 -0.2315
 8153TIP3    H145950   3.687   5.141   1.723 -3.7519  0.4269  1.1155
 8153TIP3    H245951   3.734   5.172   1.864 -1.2446  0.9537  0.2155
 8154TIP3   OH245952   1.783   1.057  12.008  0.2559 -0.1155  0.8463
 8154TIP3    H145953   1.719   0.992  11.981 -0.8142  1.6459 -1.1550
 8154TIP3    H245954   1.865   1.008  12.016 -0.8026 -1.9547  0.9729
 8155TIP3   OH245955   6.442   4.538   4.535  0.4677  0.3606  0.1212
 8155TIP3    H145956   6.444   4.544   4.440  1.0588 -2.5696 -0.1481
 8155TIP3    H245957   6.351   4.555   4.558 -0.2335 -1.2450 -1.2495
 8156TIP3   OH245958   2.454   0.790  11.384  0.1934  0.3842  0.3936
 8156TIP3    H145959   2.388   0.803  11.316  0.6207 -0.2665 -0.1604
 8156TIP3    H245960   2.404   0.782  11.465 -0.5165 -1.1259 -0.1489
 8157TIP3   OH245961   4.239   1.444   5.452  0.3354  0.2502  0.3751
 8157TIP3    H145962   4.228   1.445   5.547  1.3410  0.9839  0.4992
 8157TIP3    H245963   4.334   1.445   5.439  0.3221 -2.9526 -0.6385
 8158TIP3   OH245964   5.624   0.060   3.679  0.2587 -0.0708 -0.0908
 8158TIP3    H145965   5.572   0.116   3.737 -0.9286 -0.3678 -0.8353
 8158TIP3    H245966   5.652  -0.013   3.735  2.8414  1.7685  1.2182
 8159TIP3   OH245967   5.293   5.238   6.330 -0.4259 -0.5287 -0.4215
 8159TIP3    H145968   5.360   5.253   6.396 -0.8781 -0.3844  0.0050
 8159TIP3    H245969   5.293   5.143   6.316 -1.9150 -0.8602  1.4785
 8160TIP3   OH245970   2.992   5.829   6.314  0.3078  0.4018  0.1074
 8160TIP3    H145971   2.919   5.768   6.316 -0.1974  1.0007  0.3733
 8160TIP3    H245972   3.002   5.857   6.405  0.1966  1.0936 -0.0870
 8161TIP3   OH245973   0.149   3.267  13.061  0.6554  0.0432  0.3208
 8161TIP3    H145974   0.240   3.263  13.090 -0.1061 -0.5823  2.8326
 8161TIP3    H245975   0.101   3.214  13.124 -1.4905  0.4882 -0.8445
 8162TIP3   OH245976   5.833   0.256   5.666 -0.1313  0.7545  0.3830
 8162TIP3    H145977   5.738   0.248   5.654 -0.2506  0.8453  1.2192
 8162TIP3    H245978   5.865   0.285   5.581 -0.6092 -1.1180 -0.4775
 8163TIP3   OH245979   3.062   4.040   0.004  0.3694  0.2710 -0.1852
 8163TIP3    H145980   2.969   4.044   0.028 -0.3590 -0.3289 -2.6545
 8163TIP3    H245981   3.071   4.103  -0.068  1.7103 -0.2284 -0.4901
 8164TIP3   OH245982   4.314   2.032  12.593 -0.1614 -0.2505  0.1313
 8164TIP3    H145983   4.406   2.031  12.618  0.4520 -0.0411 -1.9863
 8164TIP3    H245984   4.267   2.039  12.677  1.6903 -0.9435  1.2875
 8165TIP3   OH245985   5.368   3.253  11.022  0.4886  0.0103 -0.2601
 8165TIP3    H145986   5.462   3.238  11.016  0.4828  0.1691 -0.7420
 8165TIP3    H245987   5.334   3.233  10.935  0.4922  2.9109 -1.0132
 8166TIP3   OH245988   6.166   2.916  15.715 -0.0654 -0.6681  0.0552
 8166TIP3    H145989   6.152   2.822  15.712 -2.0180 -0.4067 -0.5407
 8166TIP3    H245990   6.128   2.943  15.799 -1.9081 -0.1142 -0.9145
 8167TIP3   OH245991   1.055   3.760   6.457 -0.0977  0.2680  0.4723
 8167TIP3    H145992   1.129   3.819   6.443  0.3026 -0.3056  0.0775
 8167TIP3    H245993   1.096   3.674   6.470 -0.6959 -0.9185 -3.9065
 8168TIP3   OH245994   2.178   3.772  15.744 -0.3227 -0.1273 -0.2166
 8168TIP3    H145995   2.166   3.685  15.707  0.4499 -0.3629  0.0790
 8168TIP3    H245996   2.249   3.811  15.693  1.2616 -0.7282  1.4431
 8169TIP3   OH245997   5.809   3.366   5.648  0.0082 -0.4674 -0.1342
 8169TIP3    H145998   5.809   3.327   5.561 -0.5349 -1.9527  0.4960
 8169TIP3    H245999   5.862   3.306   5.701  1.5502  1.1579  0.2714
 8170TIP3   OH246000   6.456   4.466  12.253  0.3956 -0.5650  0.3217
 8170TIP3    H146001   6.512   4.530  12.298  0.9689 -1.3440  0.7335
 8170TIP3    H246002   6.478   4.477  12.161  0.3607 -0.0418  0.3708
 8171TIP3   OH246003   6.542   4.722  12.372 -0.0857 -0.9437 -0.6500
 8171TIP3    H146004   6.606   4.705  12.441  1.4565  0.0563 -1.7399
 8171TIP3    H246005   6.492   4.798  12.403 -0.4174 -1.4139 -0.0131
 8172TIP3   OH246006   5.660   0.656  12.903  0.1159  1.0899  0.4530
 8172TIP3    H146007   5.741   0.606  12.889 -0.4222 -0.1772  1.6256
 8172TIP3    H246008   5.604   0.631  12.829  0.3747  1.0840  0.2569
 8173TIP3   OH246009   5.293   0.606  13.449 -0.1218  0.2573 -0.1226
 8173TIP3    H146010   5.256   0.566  13.370 -0.7830  0.7710 -0.0851
 8173TIP3    H246011   5.253   0.693  13.452 -0.3062  0.1454  0.9188
 8174TIP3   OH246012   0.642   0.799   1.940  0.0930  0.4658  0.4026
 8174TIP3    H146013   0.620   0.706   1.946 -0.8721  0.6034 -0.8380
 8174TIP3    H246014   0.565   0.841   1.903 -0.0625  2.0232  2.2735
 8175TIP3   OH246015   0.240   1.688   3.611  0.0034 -0.5833  0.1899
 8175TIP3    H146016   0.332   1.709   3.627 -0.7672  2.3759  1.3385
 8175TIP3    H246017   0.243   1.606   3.561  3.2491 -0.3665 -0.2174
 8176TIP3   OH246018   4.599   3.584  13.991 -0.0830  0.0161 -0.8498
 8176TIP3    H146019   4.550   3.635  14.055  0.6773 -1.0748  0.6686
 8176TIP3    H246020   4.535   3.559  13.925 -1.2095  0.0344  0.2056
 8177TIP3   OH246021   3.898   1.336   0.079  0.2475 -0.1028  0.4074
 8177TIP3    H146022   3.858   1.372   0.001  0.1775  0.0296  0.5045
 8177TIP3    H246023   3.899   1.408   0.142  1.7055  0.2468  0.0293
 8178TIP3   OH246024   2.714   6.576  16.182  0.1210 -0.4434 -0.6593
 8178TIP3    H146025   2.699   6.589  16.088 -2.6405 -2.5438 -0.6209
 8178TIP3    H246026   2.783   6.509  16.186  0.0132 -0.5945 -1.2090
 8179TIP3   OH246027   0.821   4.036  16.540  0.0581 -0.5483 -0.2468
 8179TIP3    H146028   0.801   4.082  16.621 -1.8674 -0.7405 -0.5616
 8179TIP3    H246029   0.850   3.949  16.568  1.1453 -0.0312  0.2711
 8180TIP3   OH246030   5.135   4.945  13.893 -0.9344  0.4575 -0.1588
 8180TIP3    H146031   5.188   4.908  13.823 -0.4555 -0.7627  0.8200
 8180TIP3    H246032   5.186   5.021  13.923  1.4060 -1.8005  2.0928
 8181TIP3   OH246033   5.327   5.055  11.258  0.0293 -0.8354  0.2153
 8181TIP3    H146034   5.295   4.974  11.219  0.7740 -0.2745 -1.6979
 8181TIP3    H246035   5.278   5.124  11.213  1.8255 -0.1090 -0.7195
 8182TIP3   OH246036   3.365   6.488   3.192 -0.3368  0.4099  0.2237
 8182TIP3    H146037   3.361   6.557   3.125 -0.2996  0.8401  0.6547
 8182TIP3    H246038   3.452   6.499   3.232 -0.7289  0.7859  0.9945
 8183TIP3   OH246039   2.750   4.767  12.269 -0.3608  0.7197 -0.0090
 8183TIP3    H146040   2.762   4.677  12.299 -3.4018  0.0950 -0.3886
 8183TIP3    H246041   2.785   4.820  12.341  0.8170 -0.7194  0.5424
 8184TIP3   OH246042   0.112   2.182   5.319  0.6041 -0.7400 -0.3850
 8184TIP3    H146043   0.027   2.140   5.329  0.5973 -0.6754 -0.1581
 8184TIP3    H246044   0.112   2.217   5.230 -1.0370  2.3417  0.6624
 8185TIP3   OH246045   4.865   4.869  16.888  0.4684  0.2576 -0.1516
 8185TIP3    H146046   4.932   4.936  16.870  0.7612 -0.1680 -0.6535
 8185TIP3    H246047   4.897   4.824  16.966 -0.2261  1.3432  0.7939
 8186TIP3   OH246048   5.259   5.633  11.620  0.7330 -0.0624  0.4697
 8186TIP3    H146049   5.245   5.543  11.648 -1.2971  0.4637  1.3426
 8186TIP3    H246050   5.236   5.686  11.696  1.0191  1.2372 -0.3085
 8187TIP3   OH246051   5.766   0.271  16.375  0.3186 -0.4380  0.1673
 8187TIP3    H146052   5.756   0.224  16.292  0.2496  0.9043 -0.6175
 8187TIP3    H246053   5.767   0.202  16.442  0.2096 -1.5374 -0.9262
 8188TIP3   OH246054   3.854   2.259  14.349 -0.0050  0.0332 -0.6861
 8188TIP3    H146055   3.866   2.289  14.439 -1.4777 -1.9925  0.2500
 8188TIP3    H246056   3.861   2.339  14.296  1.6867  1.1569  1.1030
 8189TIP3   OH246057   3.532   2.607  15.905 -0.5221 -0.4221  0.4428
 8189TIP3    H146058   3.549   2.679  15.966  1.7315  1.7851 -2.4415
 8189TIP3    H246059   3.616   2.563  15.896 -1.2006 -1.6885  0.1006
 8190TIP3   OH246060   3.956   2.659   0.448  0.8509 -0.2038 -0.3564
 8190TIP3    H146061   3.865   2.684   0.468  1.9946  2.9152  1.6313
 8190TIP3    H246062   3.963   2.569   0.480 -0.5333  0.8447  3.4951
 8191TIP3   OH246063   5.299   1.683  13.257  0.2887  0.5701 -0.4069
 8191TIP3    H146064   5.319   1.698  13.164  0.5491  0.4563 -0.3686
 8191TIP3    H246065   5.302   1.770  13.296  0.9976  0.5203 -0.3435
 8192TIP3   OH246066   4.537   5.665   4.364 -0.3249  0.0467  0.7068
 8192TIP3    H146067   4.483   5.670   4.443 -0.3479 -2.3028  0.8888
 8192TIP3    H246068   4.477   5.633   4.296  0.5715 -1.5897  0.6634
 8193TIP3   OH246069   5.635   5.555  15.700  0.1939  0.4382  0.2999
 8193TIP3    H146070   5.589   5.625  15.655 -1.9220 -0.8438  0.3273
 8193TIP3    H246071   5.711   5.598  15.740 -0.8483  2.6273  0.0736
 8194TIP3   OH246072   4.861   5.842  16.189 -0.0092  0.4932  0.5016
 8194TIP3    H146073   4.882   5.755  16.224 -1.3130 -0.4771 -0.9916
 8194TIP3    H246074   4.942   5.871  16.147  0.2276 -0.3319  0.3706
 8195TIP3   OH246075   5.769   2.050   4.328  0.0018  0.2042 -0.3419
 8195TIP3    H146076   5.855   2.047   4.286 -0.8286  1.2973 -2.2642
 8195TIP3    H246077   5.759   2.140   4.357  1.0043 -0.7465  3.4339
 8196TIP3   OH246078   6.340   1.321   5.172 -0.4247 -0.4137  0.0845
 8196TIP3    H146079   6.411   1.369   5.129 -0.5134  0.0499  0.4558
 8196TIP3    H246080   6.261   1.373   5.153 -0.7339 -1.1237 -0.6456
 8197TIP3   OH246081   0.421   1.576  15.472 -0.3435 -0.2009  0.0060
 8197TIP3    H146082   0.516   1.564  15.469 -0.0711  1.7579 -0.4480
 8197TIP3    H246083   0.388   1.526  15.397  0.3894 -0.3370 -0.2381
 8198TIP3   OH246084   4.332   3.445  14.762 -0.1354 -0.1501 -0.8431
 8198TIP3    H146085   4.247   3.432  14.805 -1.0189 -0.7984 -2.7143
 8198TIP3    H246086   4.319   3.518  14.703  0.4442 -0.6318 -1.5837
 8199TIP3   OH246087   1.533   1.294   5.233 -0.2471 -0.2139  0.4641
 8199TIP3    H146088   1.498   1.282   5.321 -0.0758  0.7938  0.6788
 8199TIP3    H246089   1.460   1.274   5.174 -0.4126 -0.7050  0.8309
 8200TIP3   OH246090   1.392   0.050  16.975 -0.3139  0.1255 -0.4970
 8200TIP3    H146091   1.370   0.091  17.059 -1.7667  0.5032 -1.0367
 8200TIP3    H246092   1.427  -0.036  16.999 -1.2292  0.0046  0.4847
 8201TIP3   OH246093   4.525   3.404   1.476  0.1530  0.3366 -0.4297
 8201TIP3    H146094   4.458   3.453   1.524 -0.6154 -0.4574 -0.6570
 8201TIP3    H246095   4.575   3.471   1.429  1.7771  1.2891  2.4029
 8202TIP3   OH246096   4.958   1.146   3.593  0.0227 -0.3379  0.3357
 8202TIP3    H146097   4.980   1.136   3.685  1.5415 -0.7507 -0.0459
 8202TIP3    H246098   4.862   1.141   3.590  0.0314 -2.2164  1.6581
 8203TIP3   OH246099   5.502   1.630   1.295  0.0552 -0.1430 -0.4732
 8203TIP3    H146100   5.449   1.709   1.309 -0.2458 -0.2530 -0.9605
 8203TIP3    H246101   5.527   1.634   1.203  1.3129  0.1516 -0.1367
 8204TIP3   OH246102   3.832   5.639   2.995 -0.1530 -0.0869  0.5285
 8204TIP3    H146103   3.907   5.580   2.990 -0.0498  0.1262 -0.5874
 8204TIP3    H246104   3.778   5.616   2.919 -0.9866  0.0853  1.0502
 8205TIP3   OH246105   0.465   6.009   2.343  0.2146  0.4103  0.3930
 8205TIP3    H146106   0.431   5.928   2.380 -0.3278 -0.8188 -2.5504
 8205TIP3    H246107   0.551   6.019   2.383  0.7044 -2.1640  0.1747
 8206TIP3   OH246108   6.766   5.804   3.768 -0.2737 -0.0458 -0.1354
 8206TIP3    H146109   6.771   5.781   3.675  0.1869 -0.8531  0.0719
 8206TIP3    H246110   6.673   5.807   3.787 -0.3673 -0.4339 -0.4995
 8207TIP3   OH246111   1.782   3.103  15.013  0.3361 -0.4988  0.0281
 8207TIP3    H146112   1.697   3.124  15.052 -0.2006 -2.4325  0.0090
 8207TIP3    H246113   1.791   3.164  14.940 -1.2845 -0.5738 -0.2696
 8208TIP3   OH246114   0.704   4.372  13.150  0.3325  0.0877 -0.3734
 8208TIP3    H146115   0.794   4.342  13.145  0.2124 -0.3168 -0.1910
 8208TIP3    H246116   0.696   4.415  13.235  0.4702  0.5263 -0.5800
 8209TIP3   OH246117   3.100   6.654  16.506 -0.3661 -0.0256  0.2929
 8209TIP3    H146118   3.108   6.617  16.594 -1.5784  1.8467  1.2644
 8209TIP3    H246119   3.008   6.679  16.499 -0.1442  0.4650 -1.2820
 8210TIP3   OH246120   5.081   5.047   2.474 -0.4712 -0.0836  0.6826
 8210TIP3    H146121   5.008   5.098   2.509 -0.6302  0.2971 -0.1824
 8210TIP3    H246122   5.056   5.027   2.384  0.4101 -0.0893  0.4227
 8211TIP3   OH246123   4.015   4.848  13.118  0.6147  0.0975  0.4566
 8211TIP3    H146124   3.959   4.894  13.056  0.1066  0.9466  1.5169
 8211TIP3    H246125   4.069   4.916  13.158  1.7674 -0.5915  0.1230
 8212TIP3   OH246126   0.179   3.129  12.711 -0.1678 -0.2952 -0.1355
 8212TIP3    H146127   0.116   3.146  12.641  0.8646 -1.2658 -1.3608
 8212TIP3    H246128   0.133   3.071  12.771 -1.0831  0.5750  0.0445
 8213TIP3   OH246129   2.133   3.495  11.115  0.4948 -0.1455  0.8958
 8213TIP3    H146130   2.219   3.500  11.157  1.6416 -0.4019 -1.2792
 8213TIP3    H246131   2.148   3.524  11.025 -2.0918  1.5376  0.9051
 8214TIP3   OH246132   6.707   0.880  14.837  0.7965 -0.1838 -0.2274
 8214TIP3    H146133   6.614   0.879  14.816  1.0074 -2.4063 -1.2973
 8214TIP3    H246134   6.718   0.957  14.894 -1.6432  0.1743 -0.1480
 8215TIP3   OH246135   5.776   6.100  15.178 -0.2336 -0.3923  0.3109
 8215TIP3    H146136   5.764   6.084  15.271 -2.7067  0.0755  0.1305
 8215TIP3    H246137   5.848   6.164  15.174  0.2717 -0.8287  1.8222
 8216TIP3   OH246138   5.253   1.373  15.968 -0.0469  0.0115  0.2298
 8216TIP3    H146139   5.166   1.406  15.947 -0.0084 -1.1933 -2.1532
 8216TIP3    H246140   5.251   1.358  16.062 -2.0508  0.9737  0.3950
 8217TIP3   OH246141   6.749   3.655  10.587 -0.3737 -0.1722  0.1852
 8217TIP3    H146142   6.771   3.581  10.643 -0.3348  0.6301  1.2575
 8217TIP3    H246143   6.655   3.666  10.598 -0.2039  0.6388  0.9376
 8218TIP3   OH246144   0.679   4.642  17.195  0.6320 -0.0275  0.7380
 8218TIP3    H146145   0.619   4.647  17.121  1.8919 -0.7708 -0.3750
 8218TIP3    H246146   0.624   4.656  17.272 -1.2503 -2.2124 -0.1042
 8219TIP3   OH246147   5.970   4.654  13.850  0.4364  0.0190 -0.2054
 8219TIP3    H146148   6.019   4.708  13.789 -0.6192  0.6244 -0.5408
 8219TIP3    H246149   5.971   4.566  13.811  0.2292  0.2883 -0.8217
 8220TIP3   OH246150   1.777   4.227   1.213  0.4899 -0.2738  0.0336
 8220TIP3    H146151   1.741   4.261   1.295  1.8017  2.5229 -0.4164
 8220TIP3    H246152   1.700   4.207   1.159 -0.4203 -3.0179  2.1538
 8221TIP3   OH246153   2.980   3.437   4.336 -0.1817  0.1168  0.0484
 8221TIP3    H146154   3.071   3.412   4.324 -0.3618 -1.1146  1.0552
 8221TIP3    H246155   2.933   3.354   4.342 -1.3747  0.7304 -0.4683
 8222TIP3   OH246156   5.317   3.418   4.860  0.1960 -0.1642  0.4377
 8222TIP3    H146157   5.244   3.391   4.803  0.6885 -2.4544  0.7899
 8222TIP3    H246158   5.275   3.466   4.931 -0.7497  0.2296 -0.3665
 8223TIP3   OH246159   2.612   1.831  10.981 -0.0732  0.0990 -0.0681
 8223TIP3    H146160   2.597   1.743  10.945 -0.1478  0.2071 -0.3024
 8223TIP3    H246161   2.535   1.881  10.956  0.2609  0.4056 -0.4952
 8224TIP3   OH246162   3.840   5.321   3.398  0.5377  0.6799 -0.2346
 8224TIP3    H146163   3.799   5.329   3.484 -0.4328 -2.2346 -0.2986
 8224TIP3    H246164   3.932   5.306   3.416  0.2159 -0.7145  0.4081
 8225TIP3   OH246165   0.113   4.829  14.238  0.4775 -0.4445  0.6962
 8225TIP3    H146166   0.198   4.825  14.281 -0.9529 -1.5271  3.7425
 8225TIP3    H246167   0.107   4.748  14.188  0.8704 -0.8166  1.2467
 8226TIP3   OH246168   5.673   2.485   4.177  0.3707  0.2174  0.3998
 8226TIP3    H146169   5.638   2.502   4.264 -1.9691  0.1632 -0.4476
 8226TIP3    H246170   5.643   2.397   4.156  1.9542 -0.2452  0.0062
 8227TIP3   OH246171   4.385   6.465   3.901 -0.0477 -0.7338 -0.0096
 8227TIP3    H146172   4.293   6.491   3.897 -0.1039 -0.9122  0.1079
 8227TIP3    H246173   4.415   6.469   3.811  0.4401  1.4902  0.1872
 8228TIP3   OH246174   1.139   5.858  15.348  0.1700 -0.0828 -0.1499
 8228TIP3    H146175   1.120   5.889  15.259  1.2262 -0.2379 -0.4481
 8228TIP3    H246176   1.118   5.933  15.404  1.0199  0.5861 -0.6936
 8229TIP3   OH246177   4.075   0.577   5.453  0.4325 -0.1842 -0.4308
 8229TIP3    H146178   4.053   0.578   5.360 -0.1531  0.0348 -0.2971
 8229TIP3    H246179   4.057   0.666   5.483 -0.8809 -0.6299  0.2120
 8230TIP3   OH246180   0.464   0.259   3.936  0.1492 -0.0735 -0.0647
 8230TIP3    H146181   0.455   0.350   3.905  0.3903 -0.0638 -0.1062
 8230TIP3    H246182   0.492   0.210   3.859 -0.5789 -0.2967 -0.1922
 8231TIP3   OH246183   0.560   2.240  11.157  0.1909  0.1835  0.1362
 8231TIP3    H146184   0.564   2.191  11.239 -1.5752  0.7957  0.6241
 8231TIP3    H246185   0.592   2.327  11.179 -0.7093  0.4818  0.3061
 8232TIP3   OH246186   1.294   2.537  10.875 -0.1367  0.2177 -0.0413
 8232TIP3    H146187   1.258   2.541  10.786 -0.9769  1.8993  0.3226
 8232TIP3    H246188   1.368   2.477  10.868 -0.0880  0.4147 -1.9155
 8233TIP3   OH246189   5.279   1.156  11.612 -0.5533 -0.5347 -0.3856
 8233TIP3    H146190   5.213   1.090  11.592  1.3348 -2.6174 -0.2377
 8233TIP3    H246191   5.291   1.205  11.531 -0.9286 -1.3913 -0.9617
 8234TIP3   OH246192   2.642   2.844  13.139 -0.9139 -0.0972 -0.5277
 8234TIP3    H146193   2.681   2.796  13.066  1.1092  2.0534 -0.9875
 8234TIP3    H246194   2.561   2.881  13.104 -0.1305  0.6233 -1.6359
 8235TIP3   OH246195   4.457   3.051  15.364 -0.6431 -0.3587  0.5399
 8235TIP3    H146196   4.441   3.006  15.447 -0.3217  0.0407  0.8212
 8235TIP3    H246197   4.498   3.134  15.389  0.8469 -0.8617 -0.0826
 8236TIP3   OH246198   5.264   5.277  15.539  0.0629  0.5256  0.1434
 8236TIP3    H146199   5.205   5.225  15.594  1.1521 -0.6218  0.2645
 8236TIP3    H246200   5.331   5.215  15.510  0.5133  1.5253 -1.0179
 8237TIP3   OH246201   0.429   1.069   1.423 -0.2488  0.2582 -0.6692
 8237TIP3    H146202   0.336   1.053   1.438 -0.1116 -0.3706 -0.4376
 8237TIP3    H246203   0.473   0.994   1.463  0.3497  0.4707 -0.9102
 8238TIP3   OH246204   0.838   2.864  14.102  0.8580 -0.3583 -0.0713
 8238TIP3    H146205   0.811   2.941  14.152  1.2891 -0.4061  0.2375
 8238TIP3    H246206   0.800   2.790  14.149  1.6626 -0.4381  0.4604
 8239TIP3   OH246207   3.858   1.116   4.154  0.3288 -0.4883  0.3798
 8239TIP3    H146208   3.899   1.198   4.128 -0.2115 -0.2276  0.3210
 8239TIP3    H246209   3.785   1.143   4.210 -2.1848 -0.6338 -2.5497
 8240TIP3   OH246210   0.886   4.422   5.905 -0.0816 -0.0575 -0.0595
 8240TIP3    H146211   0.851   4.416   5.816 -1.5996 -0.9238  0.5595
 8240TIP3    H246212   0.850   4.505   5.939  0.3902  0.2086 -0.2105
 8241TIP3   OH246213   0.850   1.034   3.622  0.1662 -0.2550 -0.0869
 8241TIP3    H146214   0.793   0.997   3.554  0.7130 -1.1042 -0.0897
 8241TIP3    H246215   0.799   1.026   3.703 -0.4257  0.6221 -0.3601
 8242TIP3   OH246216   6.377   5.544  15.405  0.8245  0.0628 -0.3964
 8242TIP3    H146217   6.356   5.579  15.319  2.8541  0.0853 -0.9405
 8242TIP3    H246218   6.348   5.453  15.402 -0.2592  0.3985 -0.6219
 8243TIP3   OH246219   0.341   5.060   3.919  0.2296 -0.0673 -0.3182
 8243TIP3    H146220   0.351   5.115   3.841  0.8161 -0.9813 -0.9110
 8243TIP3    H246221   0.373   5.114   3.991 -0.1726  0.7379 -0.7192
 8244TIP3   OH246222   0.137   4.389   5.081 -0.1681 -0.2373  0.4036
 8244TIP3    H146223   0.165   4.311   5.033  0.9295 -0.4274  1.3153
 8244TIP3    H246224   0.074   4.432   5.023  2.0487  0.2406 -1.8414
 8245TIP3   OH246225   3.528   4.555  13.375  0.2542 -0.6518 -0.4175
 8245TIP3    H146226   3.578   4.480  13.340 -1.0280 -1.5000 -0.4889
 8245TIP3    H246227   3.468   4.579  13.305  1.6058  1.4121 -0.9428
 8246TIP3   OH246228   0.154   5.889  11.468 -0.0531 -0.0052  0.0442
 8246TIP3    H146229   0.078   5.863  11.417 -0.6915  0.2391  0.8456
 8246TIP3    H246230   0.127   5.878  11.559  0.0555  2.2037  0.4142
 8247TIP3   OH246231   2.248   5.300   5.316 -0.6353  0.3808 -0.2950
 8247TIP3    H146232   2.269   5.237   5.247 -2.3436 -0.3809 -0.1721
 8247TIP3    H246233   2.190   5.363   5.274  0.0081  1.1407 -0.0720
 8248TIP3   OH246234   4.394   5.237  12.901 -0.6473 -0.2261  0.7171
 8248TIP3    H146235   4.406   5.258  12.808  0.3013  0.9596  1.0846
 8248TIP3    H246236   4.482   5.214  12.932 -1.1721 -1.9846  1.0345
 8249TIP3   OH246237   5.598   1.988   2.848  0.5362  0.2323 -0.5659
 8249TIP3    H146238   5.557   1.902   2.854  0.0765  0.3862 -1.3406
 8249TIP3    H246239   5.658   1.981   2.774  1.9998 -0.0131  0.6027
 8250TIP3   OH246240   1.285   6.270  15.708 -0.5206 -0.1949  0.0568
 8250TIP3    H146241   1.299   6.359  15.674 -1.6870  0.2180  0.6046
 8250TIP3    H246242   1.244   6.283  15.793  3.0959 -1.1719  2.1888
 8251TIP3   OH246243   2.840   3.001  11.796  0.1704  0.1494 -0.3704
 8251TIP3    H146244   2.914   3.056  11.768 -1.0278  2.2686  0.4146
 8251TIP3    H246245   2.762   3.051  11.769 -0.9834 -1.0378  0.6610
 8252TIP3   OH246246   4.064   3.575  13.620  0.1678  0.4629 -0.2463
 8252TIP3    H146247   3.993   3.520  13.588  0.0649  0.2022  0.4065
 8252TIP3    H246248   4.088   3.536  13.704  0.6471  0.9344 -0.1602
 8253TIP3   OH246249   6.179   3.721   0.942  0.1774  0.0726 -0.2637
 8253TIP3    H146250   6.138   3.762   0.866 -1.0464  0.0925  0.3844
 8253TIP3    H246251   6.244   3.785   0.972  0.5644  0.1298 -1.1755
 8254TIP3   OH246252   6.058   4.655  17.029 -0.2998  0.1817  0.4796
 8254TIP3    H146253   6.151   4.660  17.054 -0.2682  1.6448  0.1778
 8254TIP3    H246254   6.017   4.604  17.099  0.5999  0.1784  1.0238
 8255TIP3   OH246255   2.039   2.909  13.050  0.1641  0.2526 -0.1883
 8255TIP3    H146256   2.036   2.816  13.073  1.9119  0.0276 -0.7502
 8255TIP3    H246257   2.058   2.909  12.956 -1.8593  1.1943 -0.6569
 8256TIP3   OH246258   2.018   3.329  12.511 -0.2161  0.2110 -0.2204
 8256TIP3    H146259   2.069   3.317  12.431  1.1637 -0.1430  0.6751
 8256TIP3    H246260   1.956   3.398  12.490 -0.0072 -0.0067 -1.6553
 8257TIP3   OH246261   6.544   5.975  16.680 -0.2430  0.4516 -0.2036
 8257TIP3    H146262   6.638   5.993  16.691 -0.2069  0.0182  0.2326
 8257TIP3    H246263   6.526   5.998  16.589  0.5669 -0.5944 -0.6642
 8258TIP3   OH246264   0.115   6.169  14.828  0.5879 -0.2284 -0.3873
 8258TIP3    H146265   0.154   6.257  14.824 -0.0481  0.1637  1.1221
 8258TIP3    H246266   0.147   6.124  14.750 -0.4134  1.8979 -2.1363
 8259TIP3   OH246267   4.417   5.848   0.202 -0.2207  0.1643 -0.0811
 8259TIP3    H146268   4.404   5.773   0.144 -1.0132  1.5566 -1.7568
 8259TIP3    H246269   4.339   5.901   0.191  0.9964  2.0391 -0.1481
 8260TIP3   OH246270   2.391   3.008  14.943 -0.4765  0.5895 -0.0186
 8260TIP3    H146271   2.423   2.961  15.019 -1.1076  1.2378  0.6741
 8260TIP3    H246272   2.450   3.083  14.934 -2.1653  2.2979  1.8102
 8261TIP3   OH246273   1.160   1.329   1.790  0.0130 -0.2666  0.1393
 8261TIP3    H146274   1.160   1.324   1.695 -0.2328 -0.3753  0.1434
 8261TIP3    H246275   1.166   1.238   1.819  0.1075 -0.2322  0.2263
 8262TIP3   OH246276   4.432   3.728  14.151  0.2953  0.6322 -0.4293
 8262TIP3    H146277   4.453   3.818  14.176 -0.9670  0.4053  1.7770
 8262TIP3    H246278   4.337   3.729  14.138 -0.4213 -1.0274  3.3498
 8263TIP3   OH246279   4.948   0.802  16.299  0.2825  0.4940 -0.0119
 8263TIP3    H146280   4.923   0.728  16.354  0.8724 -0.3459 -0.8265
 8263TIP3    H246281   5.032   0.776  16.260 -0.5650  0.5902 -2.0647
 8264TIP3   OH246282   1.074   2.488  15.896  0.1980  0.2950  0.5367
 8264TIP3    H146283   0.997   2.484  15.952 -0.8780  0.9282 -0.8346
 8264TIP3    H246284   1.042   2.523  15.813  1.6506 -1.0057 -0.6423
 8265TIP3   OH246285   1.583   3.985   0.881 -0.0946  0.0344 -0.1276
 8265TIP3    H146286   1.664   3.937   0.899 -0.5858 -0.6345  0.3281
 8265TIP3    H246287   1.571   4.040   0.957 -1.4849 -1.8513  1.1013
 8266TIP3   OH246288   5.175   5.468   6.275 -0.4985  0.5256  0.2539
 8266TIP3    H146289   5.217   5.508   6.199  0.4542 -0.0108  0.4749
 8266TIP3    H246290   5.231   5.394   6.297 -0.2695  1.1549  1.9948
 8267TIP3   OH246291   4.556   3.356  13.320 -0.3593 -0.0551  0.1377
 8267TIP3    H146292   4.617   3.323  13.254 -0.2897  0.3608 -0.0081
 8267TIP3    H246293   4.495   3.284  13.335  0.1911 -0.4954  0.3190
 8268TIP3   OH246294   1.391   0.770   2.698  0.4975  0.3915  0.4004
 8268TIP3    H146295   1.429   0.688   2.666  1.8474  1.0839  0.1817
 8268TIP3    H246296   1.300   0.767   2.668  0.8834 -0.4333 -0.7577
 8269TIP3   OH246297   5.100   1.261  13.411  0.6394 -0.5111  0.1565
 8269TIP3    H146298   5.103   1.352  13.384 -0.1358 -0.3564  0.5795
 8269TIP3    H246299   5.149   1.214  13.343 -2.6287 -0.3824 -2.5484
 8270TIP3   OH246300   3.900   0.667  16.096 -0.2350 -0.2433 -0.4606
 8270TIP3    H146301   3.926   0.758  16.109  1.1981 -0.5705 -0.8384
 8270TIP3    H246302   3.975   0.626  16.052 -0.0654 -2.0404  1.3300
 8271TIP3   OH246303   2.371   3.148  15.260 -0.5823  0.2945  0.1747
 8271TIP3    H146304   2.376   3.236  15.222  0.7232  0.1929  0.0692
 8271TIP3    H246305   2.453   3.137  15.307 -0.3333 -1.1991 -0.5388
 8272TIP3   OH246306   5.663   1.234   5.211  0.4518 -0.4266  0.1915
 8272TIP3    H146307   5.680   1.204   5.301 -0.5636 -2.6389 -0.2915
 8272TIP3    H246308   5.747   1.271   5.183  0.4785  1.4612  2.4052
 8273TIP3   OH246309   4.382   5.933   6.037 -0.1552 -0.1636 -0.7827
 8273TIP3    H146310   4.470   5.931   6.076 -1.0123 -2.2915  1.3084
 8273TIP3    H246311   4.331   5.988   6.097 -0.9167 -1.4526 -0.1972
 8274TIP3   OH246312   5.289   5.949  11.280  0.5844 -0.6079 -0.7687
 8274TIP3    H146313   5.380   5.939  11.252  0.4610 -1.1398 -0.9956
 8274TIP3    H246314   5.249   6.004  11.213  0.6074 -0.8219 -0.9596
 8275TIP3   OH246315   3.882   1.504   0.312  0.1499  0.1369 -0.3074
 8275TIP3    H146316   3.866   1.461   0.395 -0.7222 -0.9209 -1.0005
 8275TIP3    H246317   3.795   1.524   0.278  0.4878  0.4065 -1.0404
 8276TIP3   OH246318   6.818   3.059   1.052  0.0581 -0.3743  0.5822
 8276TIP3    H146319   6.883   3.001   1.012  1.3260  1.6713 -0.4940
 8276TIP3    H246320   6.740   3.048   0.998  1.5706  1.9297 -2.3707
 8277TIP3   OH246321   3.814   1.441  12.146  0.1843 -0.3960 -0.1190
 8277TIP3    H146322   3.730   1.458  12.187  0.7295 -0.9713  1.3044
 8277TIP3    H246323   3.849   1.365  12.192  1.0043 -0.8460 -1.4280
 8278TIP3   OH246324   3.985   3.449   3.614 -1.0578 -1.0953  0.5131
 8278TIP3    H146325   3.999   3.512   3.686 -0.0745  0.8902 -1.2855
 8278TIP3    H246326   3.923   3.493   3.556  2.7823  0.3652 -2.9459
 8279TIP3   OH246327   0.666   2.655  16.790  0.3471  0.6604  0.6970
 8279TIP3    H146328   0.629   2.624  16.873  0.1293 -0.8532  0.0879
 8279TIP3    H246329   0.754   2.683  16.812  0.5228 -0.3233  1.3589
 8280TIP3   OH246330   3.917   6.345  15.894 -0.0463 -0.0551  0.0331
 8280TIP3    H146331   3.871   6.335  15.978  1.3309  0.3533  0.8646
 8280TIP3    H246332   3.886   6.429  15.860  1.2994  1.0766  1.4261
 8281TIP3   OH246333   2.411   4.336  15.324  0.5118  0.5414 -0.1575
 8281TIP3    H146334   2.374   4.396  15.259  0.8951  0.7772 -0.1609
 8281TIP3    H246335   2.494   4.307  15.286  1.6466  2.0865  0.9678
 8282TIP3   OH246336   1.872   1.603  12.235  0.2031  0.3311  0.0238
 8282TIP3    H146337   1.815   1.593  12.159  2.0343  1.2448 -1.5711
 8282TIP3    H246338   1.822   1.659  12.296 -0.8213  0.6308 -1.0505
 8283TIP3   OH246339   0.319   0.818  13.505 -0.0937 -0.2520 -0.2279
 8283TIP3    H146340   0.292   0.905  13.535  1.4903 -0.0924  0.9111
 8283TIP3    H246341   0.242   0.763  13.517 -0.2867  0.3803  1.8666
 8284TIP3   OH246342   0.275   1.426   3.926 -0.0704 -0.4043  0.0214
 8284TIP3    H146343   0.342   1.425   3.857  0.6859  1.4435  0.6935
 8284TIP3    H246344   0.317   1.468   4.000 -1.4346 -0.8166  1.0680
 8285TIP3   OH246345   4.320   0.927   3.876 -0.6156  0.4504  0.2547
 8285TIP3    H146346   4.294   1.003   3.823 -1.3711  0.2457  0.3101
 8285TIP3    H246347   4.257   0.859   3.852  0.4398 -0.3649 -0.2539
 8286TIP3   OH246348   0.295   2.329  11.799 -0.3209  0.8910  0.1589
 8286TIP3    H146349   0.240   2.327  11.721 -0.8658 -1.2356  0.5131
 8286TIP3    H246350   0.374   2.375  11.772 -0.9704  1.1908 -1.3110
 8287TIP3   OH246351   4.852   1.575   1.823 -0.2357  0.1398  0.4211
 8287TIP3    H146352   4.830   1.481   1.823  0.1915  0.0224 -0.6869
 8287TIP3    H246353   4.872   1.594   1.731  1.8541  0.8073  0.9591
 8288TIP3   OH246354   1.850   3.118   0.050  0.2967 -0.2851 -0.4720
 8288TIP3    H146355   1.931   3.168   0.062 -0.7607  1.4114 -0.0851
 8288TIP3    H246356   1.794   3.175  -0.002  0.2726 -2.5097 -3.1221
 8289TIP3   OH246357   2.410   6.688   1.118  0.0180 -0.0206 -0.2310
 8289TIP3    H146358   2.379   6.664   1.031  2.2468 -0.1582 -1.0606
 8289TIP3    H246359   2.335   6.731   1.159 -0.8035  0.9806 -2.5896
 8290TIP3   OH246360   4.596   4.833   2.308 -0.1693  0.1485  0.1529
 8290TIP3    H146361   4.634   4.816   2.222 -0.7854  0.0966 -0.1159
 8290TIP3    H246362   4.600   4.928   2.318  0.5244  0.1046  0.3652
 8291TIP3   OH246363   3.846   6.381  14.859  0.6875 -0.6662 -0.0699
 8291TIP3    H146364   3.932   6.342  14.844 -0.0912 -3.3145  1.6357
 8291TIP3    H246365   3.842   6.392  14.954 -0.4581  0.4613 -0.2261
 8292TIP3   OH246366   0.629   2.890   1.873  0.2622  0.0363 -0.1552
 8292TIP3    H146367   0.563   2.841   1.921  0.6070 -0.1040  0.1871
 8292TIP3    H246368   0.580   2.956   1.824 -0.1351 -0.1359  0.0088
 8293TIP3   OH246369   0.832   1.062  15.784 -0.1127 -0.2775 -0.6250
 8293TIP3    H146370   0.801   0.975  15.759 -0.3273 -0.6110  0.7183
 8293TIP3    H246371   0.923   1.064  15.756 -0.1808 -0.8310 -0.9013
 8294TIP3   OH246372   3.970   0.747  12.331 -0.2706 -0.5404  0.7428
 8294TIP3    H146373   3.909   0.808  12.291 -0.8395 -0.4566  1.7086
 8294TIP3    H246374   4.057   0.777  12.303 -0.5985  0.1150  0.4142
 8295TIP3   OH246375   6.129   6.646  14.281 -0.2080 -0.7924  0.3785
 8295TIP3    H146376   6.182   6.627  14.358  1.5372 -2.3854 -1.0935
 8295TIP3    H246377   6.186   6.622  14.207 -1.3064  1.8455 -1.4704
 8296TIP3   OH246378   3.933   1.858  11.438 -0.2769  0.3072  0.4284
 8296TIP3    H146379   3.850   1.832  11.398 -0.6632 -0.6589  1.8179
 8296TIP3    H246380   3.950   1.792  11.505  1.5444  0.5786  0.2778
 8297TIP3   OH246381   0.490   0.846  17.098  0.4621 -0.2173 -0.3137
 8297TIP3    H146382   0.555   0.776  17.099  1.4968  0.7081  0.0165
 8297TIP3    H246383   0.530   0.916  17.150 -0.3421  0.7822 -1.0080
 8298TIP3   OH246384   3.884   1.718  14.891 -0.1092 -0.0274 -0.9737
 8298TIP3    H146385   3.821   1.773  14.846 -1.1460  0.0871  0.5395
 8298TIP3    H246386   3.880   1.634  14.845 -2.0363 -0.3013 -0.3967
 8299TIP3   OH246387   0.505   5.996  12.832 -0.1584 -0.1853  1.0006
 8299TIP3    H146388   0.593   5.969  12.857  0.2116 -2.4199 -2.0315
 8299TIP3    H246389   0.504   6.091  12.841  2.2469 -0.2027  1.9511
 8300TIP3   OH246390   1.101   1.801   4.936 -0.0137  0.0260  0.4135
 8300TIP3    H146391   1.062   1.747   5.005  0.5589 -0.8123  0.0944
 8300TIP3    H246392   1.090   1.749   4.856 -0.3447  0.8279 -0.0651
 8301TIP3   OH246393   5.859   4.323  16.483 -0.0962  0.0612 -0.0691
 8301TIP3    H146394   5.770   4.338  16.515 -1.0422 -0.9226 -2.0469
 8301TIP3    H246395   5.881   4.404  16.437  1.4446  1.6649  3.1318
 8302TIP3   OH246396   0.561   6.212  13.088 -0.0460 -0.4817 -0.1267
 8302TIP3    H146397   0.647   6.211  13.130 -0.4956  0.1367  0.8520
 8302TIP3    H246398   0.507   6.155  13.143 -0.4854 -0.1752 -0.2392
 8303TIP3   OH246399   0.230   5.467   3.316 -0.7210 -0.1625 -0.0121
 8303TIP3    H146400   0.208   5.438   3.405 -0.1616 -1.6406 -0.3443
 8303TIP3    H246401   0.223   5.389   3.263  2.4411 -0.0869 -0.6696
 8304TIP3   OH246402   1.556   3.373  12.974 -0.1654  0.0542 -0.0890
 8304TIP3    H146403   1.541   3.309  13.044 -1.1491  0.8619  0.4548
 8304TIP3    H246404   1.552   3.458  13.018 -0.6465  0.5649 -1.0973
 8305TIP3   OH246405   0.519   4.324  10.634 -0.2262 -0.1334 -0.1798
 8305TIP3    H146406   0.465   4.248  10.614 -0.1772 -0.7273  1.7019
 8305TIP3    H246407   0.500   4.387  10.565 -1.8712 -1.0486 -0.5989
 8306TIP3   OH246408   2.761   5.806   4.567  0.2020  0.1046 -0.0949
 8306TIP3    H146409   2.812   5.784   4.645  0.2295 -0.5492 -0.2894
 8306TIP3    H246410   2.821   5.859   4.514  0.7266 -0.7389 -0.3644
 8307TIP3   OH246411   3.880   0.936  10.918 -0.2775  0.4902 -0.3025
 8307TIP3    H146412   3.947   0.914  10.852 -0.2006  0.0458 -0.0854
 8307TIP3    H246413   3.797   0.919  10.874 -0.2144 -0.9136  0.0621
 8308TIP3   OH246414   1.965   3.774  11.384 -0.1819  0.0791  0.3627
 8308TIP3    H146415   2.028   3.766  11.312 -0.5138  0.5205  0.0212
 8308TIP3    H246416   1.929   3.686  11.394  0.1298 -0.0679  0.2361
 8309TIP3   OH246417   2.945   3.313  17.038  0.0574 -0.1319 -0.4652
 8309TIP3    H146418   2.920   3.259  16.963 -1.3919 -1.6962  1.0435
 8309TIP3    H246419   2.863   3.326  17.087  1.1960 -0.6056  1.7072
 8310TIP3   OH246420   3.790   0.448   5.812  0.0603 -0.4797  0.2496
 8310TIP3    H146421   3.812   0.436   5.719  1.8785 -0.9144  0.7009
 8310TIP3    H246422   3.791   0.360   5.849 -1.7733 -0.4292  0.4840
 8311TIP3   OH246423   6.487   3.295   3.356 -0.4255  0.3627  0.0519
 8311TIP3    H146424   6.399   3.265   3.377 -0.1509 -0.0095  0.7105
 8311TIP3    H246425   6.498   3.274   3.264 -0.8881  0.0436  0.0644
 8312TIP3   OH246426   4.995   5.268  12.567  0.0726  0.4677  0.0233
 8312TIP3    H146427   5.013   5.286  12.659  1.3458  1.0678 -0.3267
 8312TIP3    H246428   5.007   5.173  12.558 -0.1470  0.3908  0.4774
 8313TIP3   OH246429   5.690   4.285   6.278  0.6938 -0.6112  0.2028
 8313TIP3    H146430   5.632   4.222   6.320  0.6130 -0.6280  0.0655
 8313TIP3    H246431   5.640   4.366   6.275  0.9247 -0.4478  0.6879
 8314TIP3   OH246432   3.821   1.972   2.986 -0.4967  0.0833  0.0506
 8314TIP3    H146433   3.841   2.019   2.905  2.0974 -0.0986  0.5026
 8314TIP3    H246434   3.725   1.962   2.986 -0.5309 -0.5215 -3.3009
 8315TIP3   OH246435   6.181   4.264  12.623 -0.1444 -0.1022  0.0654
 8315TIP3    H146436   6.223   4.309  12.696 -0.0256 -1.7522  1.0569
 8315TIP3    H246437   6.253   4.242  12.564  0.0541 -0.6590  0.5076
 8316TIP3   OH246438   3.203   3.678   2.491 -0.0332 -0.4745 -0.0518
 8316TIP3    H146439   3.252   3.731   2.428 -1.7083  0.4538 -0.6355
 8316TIP3    H246440   3.160   3.611   2.438  1.1940 -1.8062  0.5591
 8317TIP3   OH246441   3.573   5.881   5.132  0.1425  0.0103 -0.4226
 8317TIP3    H146442   3.590   5.789   5.153 -1.0902 -0.3513 -0.9126
 8317TIP3    H246443   3.480   5.893   5.152  0.5440  1.4872  0.7644
 8318TIP3   OH246444   2.009   2.032  13.370 -0.2337  0.1760 -0.2335
 8318TIP3    H146445   2.005   1.974  13.295 -1.5120  0.5060 -0.4387
 8318TIP3    H246446   2.073   1.991  13.429  2.5820  1.0669 -2.4231
 8319TIP3   OH246447   4.122   0.619   3.624 -0.0521  0.1429 -0.0864
 8319TIP3    H146448   4.076   0.577   3.697  0.2247 -1.0275 -0.5560
 8319TIP3    H246449   4.069   0.695   3.602 -1.8372 -1.2188 -0.6976
 8320TIP3   OH246450   5.305   6.718   0.355  0.3909  0.0038  0.6006
 8320TIP3    H146451   5.315   6.746   0.446 -0.0006 -1.0185  0.9659
 8320TIP3    H246452   5.348   6.632   0.352 -2.7894 -1.7159  0.7407
 8321TIP3   OH246453   3.731   4.139   0.864  0.0511  0.1252  0.0596
 8321TIP3    H146454   3.802   4.173   0.810 -0.6541 -0.5731 -1.3520
 8321TIP3    H246455   3.651   4.173   0.823 -0.4637  1.7107  2.1619
 8322TIP3   OH246456   5.373   1.318  11.387 -0.0631  0.1960 -0.0282
 8322TIP3    H146457   5.434   1.373  11.435 -0.4139  1.3517 -0.8575
 8322TIP3    H246458   5.411   1.310  11.300 -0.1791 -0.6351 -0.0124
 8323TIP3   OH246459   3.451   0.203  12.214  0.6788  0.2368  0.8339
 8323TIP3    H146460   3.440   0.288  12.172  0.2917 -0.4137 -0.4220
 8323TIP3    H246461   3.546   0.194  12.223  1.0070 -0.7335 -2.4081
 8324TIP3   OH246462   1.447   6.100  10.874 -0.6272 -0.2182 -0.3576
 8324TIP3    H146463   1.522   6.089  10.931 -2.5276  0.8439  2.5477
 8324TIP3    H246464   1.403   6.015  10.874 -1.1802  0.0530  0.6742
 8325TIP3   OH246465   4.992   6.575   1.209 -0.1029  0.7159  0.1560
 8325TIP3    H146466   5.062   6.548   1.269 -1.2784 -0.2290  1.1263
 8325TIP3    H246467   4.985   6.503   1.147  0.0373  0.9817 -0.1688
 8326TIP3   OH246468   6.301   2.313   2.830 -0.3421  0.0018  0.1273
 8326TIP3    H146469   6.366   2.265   2.779  0.3591  0.8352  0.2120
 8326TIP3    H246470   6.298   2.267   2.914 -1.5757 -1.4353 -0.6668
 8327TIP3   OH246471   4.021   5.155   5.249  0.1601  0.3764  0.3796
 8327TIP3    H146472   4.033   5.183   5.158 -1.0499  0.5344  0.2482
 8327TIP3    H246473   4.106   5.173   5.291  0.7451  0.2593 -0.7153
 8328TIP3   OH246474   4.368   1.795   1.836 -0.1344 -0.1968  0.0365
 8328TIP3    H146475   4.337   1.787   1.926 -1.6018 -2.9997 -0.6093
 8328TIP3    H246476   4.293   1.831   1.788  1.1175  2.7520  0.0604
 8329TIP3   OH246477   1.632   2.419  13.035  0.2609 -0.2711 -0.2444
 8329TIP3    H146478   1.577   2.447  13.108  0.7360 -0.6190  0.2651
 8329TIP3    H246479   1.589   2.453  12.957  0.3589  1.0962  0.2800
 8330TIP3   OH246480   2.613   5.376   5.686  0.7777 -0.0815  0.3367
 8330TIP3    H146481   2.538   5.393   5.629  1.3174 -0.1115 -0.3950
 8330TIP3    H246482   2.585   5.302   5.741 -0.2042  0.7337  0.9806
 8331TIP3   OH246483   4.173   0.198  11.221 -0.2599 -0.2458  0.0608
 8331TIP3    H146484   4.124   0.177  11.141 -0.7630 -0.9755  0.5519
 8331TIP3    H246485   4.229   0.121  11.235  0.0351  0.0047  0.2513
 8332TIP3   OH246486   0.821   2.301   2.228 -0.7935 -0.1280 -0.4818
 8332TIP3    H146487   0.888   2.313   2.295 -0.5917 -0.1306 -0.6828
 8332TIP3    H246488   0.842   2.365   2.160 -1.6818  0.6899 -0.0079
 8333TIP3   OH246489   6.336   5.291  15.267 -0.2911 -0.2685 -0.2183
 8333TIP3    H146490   6.351   5.330  15.181  0.9070 -1.0066 -0.3757
 8333TIP3    H246491   6.306   5.202  15.249 -2.1040  0.2286  0.1432
 8334TIP3   OH246492   4.481   5.583  11.888  0.0449 -0.3997 -0.5299
 8334TIP3    H146493   4.426   5.579  11.809  3.1188  0.7076 -2.9525
 8334TIP3    H246494   4.488   5.676  11.907  0.6932 -0.5581  0.0164
 8335TIP3   OH246495   6.404   5.080   5.080 -0.0156 -0.2524  0.2811
 8335TIP3    H146496   6.324   5.114   5.038 -0.0135 -1.1428 -0.4834
 8335TIP3    H246497   6.372   5.029   5.154 -0.2133 -1.1475 -0.4046
 8336TIP3   OH246498   2.797   2.827   0.672 -0.2675  0.1603 -0.6040
 8336TIP3    H146499   2.835   2.855   0.755 -2.2854 -0.2283  0.4937
 8336TIP3    H246500   2.813   2.732   0.669 -0.9004  0.0416 -0.2713
 8337TIP3   OH246501   1.802   6.530   3.081  0.4314  0.2150 -0.0263
 8337TIP3    H146502   1.891   6.513   3.111 -0.3380 -1.6041  1.4160
 8337TIP3    H246503   1.754   6.556   3.159  0.3390  4.7263 -1.3059
 8338TIP3   OH246504   1.317   5.088  12.400 -0.3694  0.4217  0.1957
 8338TIP3    H146505   1.410   5.092  12.420 -0.3563 -0.2882  0.2936
 8338TIP3    H246506   1.282   5.021  12.459 -0.9941  0.8876  0.3605
 8339TIP3   OH246507   6.209   2.689   0.940  0.1839 -0.4188  0.0171
 8339TIP3    H146508   6.151   2.760   0.968 -1.9137 -1.9713 -0.1930
 8339TIP3    H246509   6.255   2.723   0.864 -2.0401  0.1784 -1.1184
 8340TIP3   OH246510   1.083   6.023   1.440 -0.5001 -0.3462  0.2779
 8340TIP3    H146511   1.127   6.014   1.524 -0.3182  2.1728  0.5311
 8340TIP3    H246512   1.151   6.054   1.380 -1.4465  1.9797  0.2794
 8341TIP3   OH246513   3.284   6.147  15.839  0.3173  0.0734  0.4642
 8341TIP3    H146514   3.220   6.150  15.910  0.1756 -0.7793  0.3851
 8341TIP3    H246515   3.368   6.135  15.883  0.3173  0.3050  0.5259
 8342TIP3   OH246516   2.939   2.462  12.546  0.1628  0.0087  0.0050
 8342TIP3    H146517   2.864   2.473  12.487 -0.8098 -0.7955  1.0303
 8342TIP3    H246518   3.005   2.418  12.493 -1.2133 -2.0114 -0.1563
 8343TIP3   OH246519   5.090   3.569  16.707  0.9271 -0.8982  0.8892
 8343TIP3    H146520   5.026   3.623  16.753  0.5005 -1.6775  1.2372
 8343TIP3    H246521   5.057   3.566  16.617  0.2491 -1.6056  1.1485
 8344TIP3   OH246522   0.196   4.119  11.884 -0.4621 -0.1759 -0.3794
 8344TIP3    H146523   0.266   4.054  11.878 -0.6233 -0.2339 -2.3010
 8344TIP3    H246524   0.133   4.081  11.945  1.6523  0.4202  2.3804
 8345TIP3   OH246525   6.517   2.619   3.982  0.5203  0.0601 -0.2245
 8345TIP3    H146526   6.489   2.662   4.063 -0.3629 -0.8946 -0.0003
 8345TIP3    H246527   6.542   2.530   4.009 -1.1551 -0.7482 -1.1688
 8346TIP3   OH246528   5.395   5.039  16.064  0.0283 -0.1155  0.7614
 8346TIP3    H146529   5.379   4.948  16.085  0.0022 -0.1046  0.7873
 8346TIP3    H246530   5.337   5.088  16.122 -2.1790 -0.1503 -1.2855
 8347TIP3   OH246531   3.250   2.233   1.398 -0.2259 -0.2849 -0.1648
 8347TIP3    H146532   3.254   2.217   1.493  0.0497  0.9330  0.0505
 8347TIP3    H246533   3.296   2.159   1.359  2.1308  0.5362  0.8418
 8348TIP3   OH246534   3.144   2.683  10.957  0.1932  0.4717  0.7586
 8348TIP3    H146535   3.141   2.698  10.863  0.8646  0.2745  0.7019
 8348TIP3    H246536   3.230   2.644  10.973 -0.2834 -0.3734  1.3303
 8349TIP3   OH246537   3.967   0.163  13.793  0.1930 -0.0545  0.0766
 8349TIP3    H146538   3.941   0.082  13.748 -0.6267 -0.6508  1.5672
 8349TIP3    H246539   4.012   0.213  13.725 -0.4102 -1.1934 -1.2423
 8350TIP3   OH246540   2.688   4.403  12.212 -0.6890 -0.1590  0.1725
 8350TIP3    H146541   2.618   4.397  12.277 -1.8978 -0.0930 -1.0830
 8350TIP3    H246542   2.746   4.330  12.232 -1.0764 -0.1858  1.2636
 8351TIP3   OH246543   3.387   1.236   4.898 -0.4275  0.3316  0.2227
 8351TIP3    H146544   3.472   1.256   4.859 -0.5400 -0.5698 -0.5163
 8351TIP3    H246545   3.332   1.211   4.824 -0.6846 -1.3272  0.9209
 8352TIP3   OH246546   0.612   1.608   0.875  0.2709 -0.9197 -0.3043
 8352TIP3    H146547   0.619   1.556   0.955  0.9767 -0.0086  0.2557
 8352TIP3    H246548   0.702   1.634   0.855 -0.0792  0.2896 -0.4146
 8353TIP3   OH246549   0.172   5.284   5.027  0.2551  0.2186 -0.2279
 8353TIP3    H146550   0.264   5.257   5.032  0.3330  0.7269  3.0559
 8353TIP3    H246551   0.126   5.206   4.996  1.5507 -0.7001  0.0902
 8354TIP3   OH246552   6.580   0.080  12.582 -0.1125  0.8519 -0.3072
 8354TIP3    H146553   6.577   0.172  12.556  0.3237  1.3549  1.2651
 8354TIP3    H246554   6.656   0.074  12.640 -0.9832 -0.1576  0.7947
 8355TIP3   OH246555   5.643   0.434   0.054  0.7635 -0.4871  0.1618
 8355TIP3    H146556   5.681   0.350   0.029  0.3316 -0.4996 -0.4583
 8355TIP3    H246557   5.612   0.472  -0.028  1.5232  0.5715  0.3388
 8356TIP3   OH246558   1.691   6.181  14.145 -0.6247 -0.3329 -0.0705
 8356TIP3    H146559   1.728   6.180  14.234  2.0501  2.4155 -0.9931
 8356TIP3    H246560   1.611   6.234  14.153 -0.8285 -0.7530  0.8110
 8357TIP3   OH246561   2.811   0.068  12.268 -0.0528 -0.0475 -0.0836
 8357TIP3    H146562   2.801   0.052  12.174 -1.1036 -1.0737  0.1722
 8357TIP3    H246563   2.737   0.124  12.290  0.5020  0.6442  0.0434
 8358TIP3   OH246564   5.508   5.318   0.609  0.2293  0.9865 -0.1035
 8358TIP3    H146565   5.501   5.365   0.526 -1.8829  1.2706  0.1747
 8358TIP3    H246566   5.421   5.278   0.621  0.4349  1.0469  2.0093
 8359TIP3   OH246567   1.939   6.714  15.910 -0.1275 -0.0803 -0.0668
 8359TIP3    H146568   1.971   6.624  15.913  1.8956  0.5339 -1.0581
 8359TIP3    H246569   1.962   6.750  15.996 -1.1945 -0.5656  0.4353
 8360TIP3   OH246570   4.038   5.404   6.891  0.1753 -0.5551  0.5249
 8360TIP3    H146571   4.076   5.410   6.803 -0.1485  0.8214  0.4601
 8360TIP3    H246572   4.113   5.381   6.947  0.4955 -0.8606 -0.0130
 8361TIP3   OH246573   3.050   6.336  10.929  0.1294 -0.1619 -0.2497
 8361TIP3    H146574   3.090   6.381  11.004 -0.4589 -1.7575  1.0837
 8361TIP3    H246575   3.055   6.399  10.858 -1.0220  2.1822  1.6080
 8362TIP3   OH246576   1.414   4.329   0.446 -0.4485  0.1359  0.0030
 8362TIP3    H146577   1.484   4.265   0.434 -0.0489  0.5832 -0.1086
 8362TIP3    H246578   1.413   4.379   0.365  0.5546  1.5181  0.7862
 8363TIP3   OH246579   6.527   2.053  13.486  0.2153  0.1928  0.1938
 8363TIP3    H146580   6.485   1.971  13.513  0.9858  0.3299  1.9446
 8363TIP3    H246581   6.516   2.112  13.561 -0.2804  1.7021 -1.0187
 8364TIP3   OH246582   0.913   1.819  16.705 -0.3977  0.2866 -0.3699
 8364TIP3    H146583   0.943   1.909  16.694 -1.1497  0.5693 -0.1009
 8364TIP3    H246584   0.845   1.824  16.772 -0.2788 -0.5143 -0.1848
 8365TIP3   OH246585   5.509   4.518  13.056  0.3136 -0.0402 -0.5738
 8365TIP3    H146586   5.532   4.429  13.031  1.0459  0.6920 -2.7826
 8365TIP3    H246587   5.471   4.510  13.143  2.0736 -2.2519  0.0650
 8366TIP3   OH246588   3.134   2.730   2.058  0.0072  0.0888  0.1090
 8366TIP3    H146589   3.150   2.756   2.149  2.1347 -0.6420 -0.0063
 8366TIP3    H246590   3.090   2.645   2.066 -0.9639  0.6066  0.4387
 8367TIP3   OH246591   4.080   5.632  16.120 -0.3627  0.6231  0.2646
 8367TIP3    H146592   4.167   5.606  16.149 -0.4095  2.1397  1.9238
 8367TIP3    H246593   4.066   5.582  16.040  2.2768  0.7589 -0.3915
 8368TIP3   OH246594   0.594   4.744  15.932 -0.6318 -0.0152 -0.4370
 8368TIP3    H146595   0.531   4.761  15.862 -0.7130  2.9383  0.2422
 8368TIP3    H246596   0.680   4.756  15.891 -0.6775  1.5923 -0.1286
 8369TIP3   OH246597   3.917   3.044   3.675 -0.3102 -0.0026 -0.0420
 8369TIP3    H146598   3.947   3.028   3.765 -0.5135  1.5865  0.3334
 8369TIP3    H246599   3.884   2.959   3.646 -0.0744 -0.5945  1.3149
 8370TIP3   OH246600   4.151   0.528  12.228 -0.9033  0.0857 -0.3589
 8370TIP3    H146601   4.143   0.497  12.138 -4.2495 -1.3849  0.2772
 8370TIP3    H246602   4.106   0.613  12.228  0.6636  0.9543 -0.3625
 8371TIP3   OH246603   4.642   0.957  11.251  0.0370 -0.5806 -0.1741
 8371TIP3    H146604   4.561   0.916  11.282 -0.5828  0.8321  0.1229
 8371TIP3    H246605   4.651   0.926  11.161 -0.7946 -0.8034 -0.1899
 8372TIP3   OH246606   2.263   2.512   5.054 -0.0731 -0.0161 -0.3617
 8372TIP3    H146607   2.354   2.542   5.055 -0.1872  0.3156  0.4020
 8372TIP3    H246608   2.211   2.592   5.062 -0.4466 -0.1866 -0.9576
 8373TIP3   OH246609   6.233   4.496   3.100 -0.2588 -0.2875  0.0971
 8373TIP3    H146610   6.139   4.513   3.104 -0.4755 -1.1864 -0.5721
 8373TIP3    H246611   6.265   4.551   3.028 -0.3506 -0.2593  0.0783
 8374TIP3   OH246612   3.431   2.906   0.780  0.2113 -0.7502  0.4331
 8374TIP3    H146613   3.394   2.980   0.828  0.9738  0.3992 -0.6651
 8374TIP3    H246614   3.355   2.857   0.748 -0.4753  1.4824 -1.6881
 8375TIP3   OH246615   3.978   5.387   2.274 -0.5893 -0.0169  0.2449
 8375TIP3    H146616   3.971   5.464   2.330 -1.1530 -0.6326  1.0442
 8375TIP3    H246617   3.951   5.418   2.188 -0.5160  0.7497  0.4936
 8376TIP3   OH246618   3.102   1.756  10.507 -0.2682  0.1967 -0.2611
 8376TIP3    H146619   3.036   1.739  10.440 -0.9038 -2.5254  0.9339
 8376TIP3    H246620   3.182   1.714  10.475 -0.4165 -0.6066  0.4042
 8377TIP3   OH246621   0.032   3.536   3.717  0.0939  0.4529 -0.1361
 8377TIP3    H146622  -0.002   3.486   3.642 -0.0339  1.7990 -1.0059
 8377TIP3    H246623   0.127   3.539   3.702  0.0236  1.0858 -0.4888
 8378TIP3   OH246624   3.243   4.714   3.612  0.0811 -0.2678  0.1316
 8378TIP3    H146625   3.179   4.708   3.541 -0.9177 -0.1669  0.9890
 8378TIP3    H246626   3.328   4.708   3.569 -0.4796  0.5447 -1.1564
 8379TIP3   OH246627   1.013   5.640  13.858 -0.1259 -0.0083  0.2925
 8379TIP3    H146628   1.047   5.713  13.909 -1.6602  1.4205 -0.6382
 8379TIP3    H246629   1.040   5.562  13.907  4.2231  0.9172 -0.2657
 8380TIP3   OH246630   1.110   4.408  14.704  0.0007  0.2113 -0.1818
 8380TIP3    H146631   1.176   4.358  14.752  2.0180  2.1882 -0.7354
 8380TIP3    H246632   1.031   4.354  14.710  1.0484 -1.2490  2.3566
 8381TIP3   OH246633   6.425   5.364   1.952 -0.0655 -0.0282 -0.5331
 8381TIP3    H146634   6.410   5.441   1.897  1.2547 -0.7795 -2.0449
 8381TIP3    H246635   6.375   5.381   2.031 -0.3017  2.1045 -1.0708
 8382TIP3   OH246636   6.651   0.430   0.036  0.5106 -0.1616 -0.2399
 8382TIP3    H146637   6.653   0.341   0.001 -0.0249 -0.4556  0.4333
 8382TIP3    H246638   6.676   0.420   0.128 -0.6809  0.2043  0.1513
 8383TIP3   OH246639   0.917   5.808  15.644  0.0308  0.5038 -0.5199
 8383TIP3    H146640   0.957   5.762  15.570 -2.7537 -2.1256 -0.5945
 8383TIP3    H246641   0.907   5.741  15.711  0.0721  2.2125  1.2698
 8384TIP3   OH246642   0.657   2.421  14.216  0.2328  0.3251 -0.2565
 8384TIP3    H146643   0.727   2.486  14.227  0.4271  0.0919 -0.1091
 8384TIP3    H246644   0.634   2.395  14.305 -0.8034  1.2026 -0.2541
 8385TIP3   OH246645   4.998   4.844  16.292 -0.1832 -0.5649  0.4093
 8385TIP3    H146646   4.952   4.893  16.224  0.1902 -0.5550  0.1616
 8385TIP3    H246647   4.929   4.805  16.345 -0.4779 -1.3524 -0.5362
 8386TIP3   OH246648   0.008   0.593   1.408 -0.1233  0.4845  0.2814
 8386TIP3    H146649  -0.023   0.592   1.498 -0.2833  0.9236  0.2321
 8386TIP3    H246650  -0.047   0.529   1.363 -1.0932  1.3736  0.1576
 8387TIP3   OH246651   3.467   2.005  14.064  0.1980 -0.4551  0.1694
 8387TIP3    H146652   3.480   1.938  14.131  2.3271 -0.7946 -0.5424
 8387TIP3    H246653   3.551   2.049  14.057 -0.0245 -0.2812 -2.1468
 8388TIP3   OH246654   4.288   6.375  17.135  0.3327 -0.7011  0.0560
 8388TIP3    H146655   4.380   6.348  17.140  0.3007 -0.7673  0.2941
 8388TIP3    H246656   4.276   6.432  17.212  0.0489 -1.0748  0.2919
 8389TIP3   OH246657   1.794   0.039  11.985  0.2014  0.4796  0.2892
 8389TIP3    H146658   1.870   0.088  12.017 -0.2502  1.4457 -0.0821
 8389TIP3    H246659   1.806   0.036  11.890  0.2292 -0.1542  0.3078
 8390TIP3   OH246660   1.973   2.129  15.110  0.0833  0.2682 -0.4672
 8390TIP3    H146661   2.051   2.087  15.074 -0.0781 -1.5735  1.1753
 8390TIP3    H246662   2.004   2.212  15.145  1.3806 -0.5456  0.3696
 8391TIP3   OH246663   1.668   5.843  13.024  0.4786 -0.3859  0.3122
 8391TIP3    H146664   1.631   5.755  13.015  0.5128 -0.3036 -0.7026
 8391TIP3    H246665   1.618   5.882  13.096 -0.4250 -0.7801 -0.0865
 8392TIP3   OH246666   0.873   0.579  12.523  0.1845 -0.2088  0.1055
 8392TIP3    H146667   0.956   0.626  12.535  0.8964 -1.7688  1.7166
 8392TIP3    H246668   0.899   0.487  12.519 -1.6436 -0.9888  3.3920
 8393TIP3   OH246669   2.225   3.799   5.827  0.2241  0.3307 -0.1657
 8393TIP3    H146670   2.301   3.748   5.800 -1.3641 -2.4195  0.1882
 8393TIP3    H246671   2.225   3.794   5.922  0.4187  1.6642 -0.0707
 8394TIP3   OH246672   6.697   2.888  16.235 -0.1623 -0.4848 -0.4008
 8394TIP3    H146673   6.763   2.939  16.281 -0.4574  0.2194 -0.7463
 8394TIP3    H246674   6.626   2.949  16.218 -3.1606 -2.1645  4.1894
 8395TIP3   OH246675   4.996   1.432   1.055 -0.2641  0.3873  0.1247
 8395TIP3    H146676   4.979   1.426   0.961 -0.0148  0.3885  0.0774
 8395TIP3    H246677   5.079   1.385   1.067  0.2876  1.3550  0.1710
 8396TIP3   OH246678   1.722   4.014   5.543  0.0544  0.3201 -0.0387
 8396TIP3    H146679   1.713   3.962   5.623 -1.1131  0.2597 -0.1857
 8396TIP3    H246680   1.781   4.085   5.568 -1.9643  1.5761  1.5871
 8397TIP3   OH246681   4.074   0.345  15.386 -0.1318  0.1065 -0.1403
 8397TIP3    H146682   4.150   0.315  15.336 -0.4531 -1.8356  0.4326
 8397TIP3    H246683   3.999   0.327  15.329 -0.2923  0.5307 -0.0684
 8398TIP3   OH246684   0.209   3.963   3.600  0.1439  0.1614 -0.2704
 8398TIP3    H146685   0.280   4.027   3.593  1.2593 -0.8718  0.8069
 8398TIP3    H246686   0.254   3.883   3.629 -1.5767 -0.2838  1.3615
 8399TIP3   OH246687   1.894   5.460   3.248  0.2617 -0.1577 -0.1812
 8399TIP3    H146688   1.957   5.431   3.182 -1.1247 -2.8280 -0.4727
 8399TIP3    H246689   1.900   5.394   3.317 -1.5476  0.0417  0.2110
 8400TIP3   OH246690   5.301   1.120   5.725  0.1799 -0.2011  0.7562
 8400TIP3    H146691   5.268   1.162   5.646  1.3372 -1.9334 -0.7366
 8400TIP3    H246692   5.307   1.190   5.790 -0.4440  1.3393 -0.7971
 8401TIP3   OH246693   6.491   3.461   5.260  0.4794 -0.6447 -0.1113
 8401TIP3    H146694   6.564   3.434   5.315  0.5871  0.2222  0.1796
 8401TIP3    H246695   6.530   3.521   5.196  0.4267 -1.9216 -1.3848
 8402TIP3   OH246696   1.600   6.590  10.647  0.1304  0.5524  0.3717
 8402TIP3    H146697   1.562   6.632  10.724  0.5233  0.5445  0.5699
 8402TIP3    H246698   1.631   6.505  10.678  1.9367  1.2625  0.6366
 8403TIP3   OH246699   1.725   4.879  13.515 -0.0904 -0.1723  0.4714
 8403TIP3    H146700   1.715   4.933  13.593 -0.0400 -0.4452  0.6679
 8403TIP3    H246701   1.799   4.918  13.468  0.8877 -0.9191  1.3381
 8404TIP3   OH246702   6.372   6.832   3.875  0.1186  0.3710 -0.4677
 8404TIP3    H146703   6.389   6.854   3.966  2.1398  0.5379 -0.8344
 8404TIP3    H246704   6.379   6.737   3.871 -3.2537 -0.0000  0.1074
 8405TIP3   OH246705   5.249   4.989   6.095  0.5010  0.3151  0.6067
 8405TIP3    H146706   5.184   5.054   6.120  0.6528 -0.1823  2.5355
 8405TIP3    H246707   5.241   4.981   6.000 -0.5222  2.0460  0.5057
 8406TIP3   OH246708   6.711   0.742   0.539  0.4903 -0.2549  0.1798
 8406TIP3    H146709   6.732   0.819   0.593 -1.6932 -0.6231  1.6875
 8406TIP3    H246710   6.692   0.778   0.452  1.5967  0.6454  0.2852
 8407TIP3   OH246711   1.790   0.401  17.052 -0.3550  0.2165  0.9166
 8407TIP3    H146712   1.737   0.431  16.978 -0.3888  1.1474  1.3032
 8407TIP3    H246713   1.835   0.323  17.019 -0.7950  0.2977  0.0956
 8408TIP3   OH246714   0.702   3.447  15.122 -0.7284  1.5901 -0.0681
 8408TIP3    H146715   0.689   3.359  15.087 -1.1686  2.0636 -1.1411
 8408TIP3    H246716   0.625   3.462  15.177  0.0517  0.7756  1.3188
 8409TIP3   OH246717   2.394   6.763   6.593  0.2259 -0.4301  0.1898
 8409TIP3    H146718   2.452   6.790   6.522 -0.3459 -3.3335 -1.5826
 8409TIP3    H246719   2.430   6.679   6.623 -0.7464 -0.2919  1.8957
 8410TIP3   OH246720   3.991   3.718   4.094  0.5973 -0.0150  0.2768
 8410TIP3    H146721   3.939   3.771   4.156  1.9127  1.8316 -0.1343
 8410TIP3    H246722   4.078   3.757   4.096  0.9884 -0.6656 -1.8699
 8411TIP3   OH246723   2.782   0.502  14.591 -0.1762  0.3237  0.4073
 8411TIP3    H146724   2.836   0.580  14.608 -0.9796  0.5820  1.9531
 8411TIP3    H246725   2.823   0.433  14.643  1.4594 -0.7799 -2.1449
 8412TIP3   OH246726   6.059   3.591   1.241  0.5224 -0.8016 -0.5081
 8412TIP3    H146727   6.015   3.519   1.288 -0.9142  0.3237 -0.0531
 8412TIP3    H246728   6.143   3.601   1.286 -1.2331  0.9897  2.7578
 8413TIP3   OH246729   2.523   3.509  16.186 -0.1095  0.0837 -0.0210
 8413TIP3    H146730   2.460   3.527  16.116  0.9010 -1.4998 -1.4319
 8413TIP3    H246731   2.607   3.537  16.151  0.3194 -0.0915  0.8399
 8414TIP3   OH246732   2.676   0.648  12.915  0.2940 -0.3059  0.1839
 8414TIP3    H146733   2.598   0.592  12.908  0.1215 -0.3192  1.9396
 8414TIP3    H246734   2.722   0.635  12.832 -0.7936 -1.4699 -0.2657
 8415TIP3   OH246735   2.334   2.300   3.431  0.1154  0.6169 -0.1578
 8415TIP3    H146736   2.345   2.247   3.352 -0.7030 -0.5575  0.4865
 8415TIP3    H246737   2.242   2.288   3.455  0.2105  1.4085  0.6605
 8416TIP3   OH246738   3.649   5.345   1.237  0.1003  0.2398  0.2728
 8416TIP3    H146739   3.671   5.438   1.225  0.2145  0.2568  0.6141
 8416TIP3    H246740   3.651   5.309   1.148  3.4534 -0.2272  0.4148
 8417TIP3   OH246741   6.647   5.894   6.059  0.9341 -0.2745 -0.1025
 8417TIP3    H146742   6.570   5.916   6.007  0.7163 -0.3215  0.2020
 8417TIP3    H246743   6.630   5.807   6.093 -0.1400  0.7772  2.2634
 8418TIP3   OH246744   0.978   6.096  15.120 -0.0529 -0.5126 -0.2096
 8418TIP3    H146745   0.976   6.060  15.031 -0.9998 -2.2996  0.4941
 8418TIP3    H246746   0.917   6.041  15.169  1.1011 -0.1066  1.7543
 8419TIP3   OH246747   1.594   3.459   2.681 -0.6664 -0.2298  0.0105
 8419TIP3    H146748   1.649   3.396   2.728  0.2299  0.1252 -0.5434
 8419TIP3    H246749   1.656   3.519   2.640 -1.3824 -0.7914 -2.0210
 8420TIP3   OH246750   0.616   6.145   1.285  0.1163  0.6667 -0.4143
 8420TIP3    H146751   0.568   6.147   1.202 -1.2398 -0.4503  0.2988
 8420TIP3    H246752   0.618   6.237   1.313 -2.0415  0.7293 -0.2728
 8421TIP3   OH246753   0.192   0.156  17.183  0.1743  0.2496 -0.4125
 8421TIP3    H146754   0.171   0.090  17.116  0.2650  0.3930 -0.5840
 8421TIP3    H246755   0.162   0.117  17.265  1.8578 -0.8039 -0.2486
 8422TIP3   OH246756   0.211   6.469   3.269  0.5558  0.2094 -0.7494
 8422TIP3    H146757   0.208   6.514   3.185 -0.9948 -0.1514 -0.9208
 8422TIP3    H246758   0.236   6.537   3.332  3.0105  0.2040 -1.6312
 8423TIP3   OH246759   5.589   6.273   4.980 -0.5256 -0.0625  0.0641
 8423TIP3    H146760   5.548   6.264   4.894 -1.3602  1.2353  0.2920
 8423TIP3    H246761   5.529   6.231   5.040  0.9707 -2.7054 -0.1453
 8424TIP3   OH246762   5.868   4.221   5.515  0.5447  0.1623  0.4124
 8424TIP3    H146763   5.920   4.169   5.453 -1.6631 -0.0828 -1.3440
 8424TIP3    H246764   5.864   4.167   5.594  0.1091 -1.3959 -0.6337
 8425TIP3   OH246765   5.779   2.066  12.938  0.4770  0.1498 -0.0763
 8425TIP3    H146766   5.699   2.094  12.983  1.0408 -0.2539  1.2215
 8425TIP3    H246767   5.756   2.067  12.845 -0.7972  0.7812  0.2301
 8426TIP3   OH246768   0.229   1.933   5.153 -0.2339 -0.2574 -0.1393
 8426TIP3    H146769   0.269   1.846   5.156  0.1467 -0.0651  2.3651
 8426TIP3    H246770   0.135   1.916   5.146 -0.1222 -0.8307 -0.3616
 8427TIP3   OH246771   6.314   1.908  16.741  0.3308 -0.1203  0.0240
 8427TIP3    H146772   6.362   1.826  16.730 -0.8588 -0.8496  0.0455
 8427TIP3    H246773   6.231   1.881  16.781 -0.8406  0.8538 -1.6512
 8428TIP3   OH246774   1.547   0.160   1.924  0.0113  0.3693 -0.2363
 8428TIP3    H146775   1.452   0.171   1.917 -0.0888 -0.3088  0.0319
 8428TIP3    H246776   1.560   0.066   1.934  0.6877  0.4940  0.1074
 8429TIP3   OH246777   6.012   6.357   0.115 -0.2299  0.4178 -0.2473
 8429TIP3    H146778   5.977   6.416   0.048  1.1540  1.4688 -0.0858
 8429TIP3    H246779   5.934   6.322   0.159 -1.1220  0.5246 -1.7023
 8430TIP3   OH246780   2.382   2.290   2.755  0.2820  0.3941  0.0083
 8430TIP3    H146781   2.332   2.371   2.768 -1.0471 -0.3533 -0.2721
 8430TIP3    H246782   2.466   2.307   2.798 -0.2988  1.5893  0.7412
 8431TIP3   OH246783   0.124   2.093   1.226  0.0247 -0.1821  0.1787
 8431TIP3    H146784   0.185   2.163   1.250  0.0273  0.1065 -0.6613
 8431TIP3    H246785   0.120   2.095   1.131 -0.2493 -1.1048  0.1594
 8432TIP3   OH246786   0.052   4.331  13.999  0.0254  0.0698  0.0326
 8432TIP3    H146787   0.042   4.249  13.951  3.8246 -0.5616 -0.0012
 8432TIP3    H246788   0.016   4.312  14.086 -1.7039 -0.6602 -0.8058
 8433TIP3   OH246789   4.878   1.626  16.907  0.4556 -0.1022 -0.1109
 8433TIP3    H146790   4.918   1.602  16.990 -0.3395  1.2169  0.6972
 8433TIP3    H246791   4.912   1.713  16.887 -2.2972  1.3639  0.9328
 8434TIP3   OH246792   6.095   0.545  12.785 -0.0335  0.2231  0.5344
 8434TIP3    H146793   6.160   0.513  12.722  0.0597 -0.9345  1.1956
 8434TIP3    H246794   6.045   0.611  12.736 -0.6413 -1.3704 -1.1104
 8435TIP3   OH246795   1.100   1.535  12.230  0.0030 -0.6957  0.3154
 8435TIP3    H146796   1.070   1.625  12.236 -0.8780 -1.0996  3.2795
 8435TIP3    H246797   1.134   1.527  12.141 -0.8976  2.2150 -0.3808
 8436TIP3   OH246798   0.766   1.221  16.739  0.4325  0.6053 -0.3179
 8436TIP3    H146799   0.673   1.245  16.728 -0.6059 -1.4688  2.7613
 8436TIP3    H246800   0.798   1.209  16.649 -2.5346  0.4556 -1.4728
 8437TIP3   OH246801   3.989   0.981  13.280  0.4429  0.1495  0.3365
 8437TIP3    H146802   3.992   0.937  13.365  1.9671 -1.4753 -0.5013
 8437TIP3    H246803   3.933   0.926  13.226 -0.4843  1.1513  0.2290
 8438TIP3   OH246804   1.694   2.696  14.919  0.7147 -0.3003 -0.8220
 8438TIP3    H146805   1.642   2.735  14.989  2.1726  0.2098  0.0091
 8438TIP3    H246806   1.729   2.771  14.870 -0.5636 -0.6396 -2.3602
 8439TIP3   OH246807   0.302   6.416  15.955 -0.1011  0.6025  0.1571
 8439TIP3    H146808   0.266   6.383  15.873 -2.1336 -1.2095  1.6676
 8439TIP3    H246809   0.247   6.493  15.976  0.4007  1.0501 -0.1568
 8440TIP3   OH246810   4.165   3.979   5.640 -0.1404 -0.1505  0.0035
 8440TIP3    H146811   4.186   3.887   5.655 -0.5367 -0.2229  0.1074
 8440TIP3    H246812   4.110   3.979   5.562 -0.1626 -0.0032  0.0182
 8441TIP3   OH246813   1.371   5.238  11.595  0.1429  0.2330  0.1290
 8441TIP3    H146814   1.409   5.189  11.521 -0.1127  0.4090 -0.1199
 8441TIP3    H246815   1.292   5.189  11.618  1.1106 -0.7893  1.4005
 8442TIP3   OH246816   3.406   2.277  12.012 -0.2795  0.7942  0.0742
 8442TIP3    H146817   3.388   2.335  12.086  1.9945  0.2884  1.1141
 8442TIP3    H246818   3.501   2.280  12.002 -0.3226 -1.0043 -1.3175
 8443TIP3   OH246819   4.413   2.684   0.312  0.7104  1.0248 -0.0773
 8443TIP3    H146820   4.471   2.761   0.310 -1.0485  2.4317  0.2349
 8443TIP3    H246821   4.457   2.620   0.255  2.3871  2.1303 -0.1124
 8444TIP3   OH246822   5.847   4.399   1.798 -0.1435 -0.1751 -0.0224
 8444TIP3    H146823   5.866   4.342   1.872 -0.8177 -1.6156 -0.9081
 8444TIP3    H246824   5.777   4.456   1.829 -0.7252 -1.0567  0.3182
 8445TIP3   OH246825   2.280   1.517   2.940 -0.0266 -0.1272 -0.6117
 8445TIP3    H146826   2.191   1.519   2.904  0.2010 -0.2120 -1.1874
 8445TIP3    H246827   2.326   1.586   2.892  0.1259  0.1725 -0.0520
 8446TIP3   OH246828   3.421   4.401  14.157  0.1371  0.5964 -0.7665
 8446TIP3    H146829   3.502   4.355  14.137  0.0303  1.3295 -3.2386
 8446TIP3    H246830   3.433   4.488  14.119 -2.3266  0.2313 -2.6303
 8447TIP3   OH246831   2.826   4.930   0.199  0.0159 -0.9921  0.4549
 8447TIP3    H146832   2.818   4.857   0.138 -1.3519  0.0570 -0.7036
 8447TIP3    H246833   2.742   4.933   0.246 -0.0502 -0.0504  0.3146
 8448TIP3   OH246834   3.388   2.336   3.157 -0.4544 -0.0917 -0.5040
 8448TIP3    H146835   3.324   2.407   3.149  0.5638  0.7867 -1.3023
 8448TIP3    H246836   3.441   2.344   3.077  0.7094 -0.7198  0.1861
 8449TIP3   OH246837   6.382   2.083   0.600 -0.2377 -0.0839 -0.9401
 8449TIP3    H146838   6.314   2.145   0.574 -0.3843  0.4866  0.6723
 8449TIP3    H246839   6.358   2.057   0.690  1.2387 -0.4781 -0.6278
 8450TIP3   OH246840   4.246   2.080   2.305 -0.0638 -0.1845 -0.4016
 8450TIP3    H146841   4.306   2.070   2.231 -1.5693 -1.4005 -1.5164
 8450TIP3    H246842   4.163   2.106   2.265 -0.9531 -1.0027  0.8384
 8451TIP3   OH246843   0.810   0.986   4.199 -0.0437  0.0474 -0.0644
 8451TIP3    H146844   0.768   0.981   4.285 -0.7609 -3.9551 -0.4583
 8451TIP3    H246845   0.902   0.966   4.216 -0.2926 -1.3323 -0.2141
 8452TIP3   OH246846   4.670   4.504  15.685  0.1486 -0.1658  0.4330
 8452TIP3    H146847   4.709   4.543  15.607 -0.5142 -0.1262  0.1087
 8452TIP3    H246848   4.744   4.470  15.735  0.5066 -1.9274 -1.1466
 8453TIP3   OH246849   4.164   6.615   4.755  0.4555 -0.7050  0.0667
 8453TIP3    H146850   4.219   6.693   4.757  0.9591 -0.9856 -1.2518
 8453TIP3    H246851   4.120   6.619   4.670 -0.2823 -1.3493  0.3999
 8454TIP3   OH246852   3.557   2.379  14.869  0.2718  0.5374 -0.3044
 8454TIP3    H146853   3.526   2.317  14.935 -0.5478  1.1822 -0.0700
 8454TIP3    H246854   3.629   2.425  14.912  0.1650  0.5093 -0.0950
 8455TIP3   OH246855   6.828   4.859   4.865 -0.0963  0.2643 -0.0062
 8455TIP3    H146856   6.788   4.945   4.877  1.6050  1.3377 -1.6608
 8455TIP3    H246857   6.915   4.867   4.904 -0.0007 -0.7883  0.0295
 8456TIP3   OH246858   3.986   2.597  11.805 -0.4731 -0.5297 -0.1087
 8456TIP3    H146859   3.891   2.585  11.794 -0.4161 -0.3507 -0.8357
 8456TIP3    H246860   4.003   2.685  11.771 -0.4246  0.5129  2.4323
 8457TIP3   OH246861   0.894   2.902  15.873 -0.6638  0.4646  0.3417
 8457TIP3    H146862   0.857   2.988  15.853 -1.0426 -0.0199 -1.0935
 8457TIP3    H246863   0.988   2.913  15.857 -0.9447  0.0925 -1.8848
 8458TIP3   OH246864   4.317   5.162   2.730 -0.5460 -0.5113  1.1137
 8458TIP3    H146865   4.249   5.187   2.793 -0.8171 -0.0527  0.6565
 8458TIP3    H246866   4.380   5.112   2.780 -0.6877 -0.0328  1.7795
 8459TIP3   OH246867   4.684   0.705   4.084  0.0274 -0.2372  0.6023
 8459TIP3    H146868   4.619   0.652   4.130 -0.5422 -0.4503 -0.4302
 8459TIP3    H246869   4.691   0.666   3.998  1.8918 -0.5050  0.8321
 8460TIP3   OH246870   3.458   1.388  12.204  0.1499  0.1646  0.5952
 8460TIP3    H146871   3.510   1.308  12.202  0.5918  0.4403  0.8169
 8460TIP3    H246872   3.488   1.435  12.282  0.5226  0.9453  0.0057
 8461TIP3   OH246873   4.661   2.678  12.772 -0.5412  0.2384 -0.5063
 8461TIP3    H146874   4.597   2.613  12.802 -0.0167 -0.4151 -0.7748
 8461TIP3    H246875   4.630   2.702  12.684 -0.9017  0.5859 -0.2902
 8462TIP3   OH246876   1.247   6.313  13.711 -0.7090 -0.7817  0.4877
 8462TIP3    H146877   1.227   6.367  13.787 -0.2524 -0.3163  0.2858
 8462TIP3    H246878   1.342   6.319  13.701 -0.8776  0.1098 -0.8121
 8463TIP3   OH246879   5.443   4.115  15.793  0.5254 -0.4391  0.3380
 8463TIP3    H146880   5.351   4.137  15.809 -0.2798 -2.6450 -0.8648
 8463TIP3    H246881   5.489   4.147  15.870 -0.9576  2.1966  0.2623
 8464TIP3   OH246882   6.816   5.700   3.252  0.0125 -0.1188  0.2252
 8464TIP3    H146883   6.756   5.643   3.204 -1.7414 -1.3681  3.6087
 8464TIP3    H246884   6.804   5.677   3.344  2.6147  2.5980  1.4302
 8465TIP3   OH246885   0.899   6.621  12.700 -0.1499 -0.0681  0.2913
 8465TIP3    H146886   0.918   6.613  12.793  0.0512 -1.2389  0.1740
 8465TIP3    H246887   0.909   6.531  12.666 -0.4613  0.2936 -0.8030
 8466TIP3   OH246888   4.852   0.675   0.722  0.5099 -0.1558 -0.3551
 8466TIP3    H146889   4.898   0.688   0.639  1.5324  1.4461  0.4152
 8466TIP3    H246890   4.815   0.761   0.742  1.8261 -0.0109  1.7280
 8467TIP3   OH246891   1.879   5.321   1.919 -0.7576 -0.0163  0.2009
 8467TIP3    H146892   1.882   5.306   1.825 -0.5274 -1.4841  0.4270
 8467TIP3    H246893   1.817   5.256   1.952 -0.2016 -0.0703  1.1760
 8468TIP3   OH246894   5.094   4.174  15.617  0.0244 -0.0185  0.2127
 8468TIP3    H146895   5.044   4.250  15.647 -1.9848 -0.7024 -1.2626
 8468TIP3    H246896   5.106   4.121  15.696  0.9165  1.4789  1.1321
 8469TIP3   OH246897   5.055   1.926   0.009 -0.0660  0.1828 -0.1330
 8469TIP3    H146898   4.970   1.949   0.047  0.0797 -2.1406  1.8053
 8469TIP3    H246899   5.116   1.931   0.083  1.1245 -0.0442 -1.0787
 8470TIP3   OH246900   0.715   1.883   3.773 -0.2998  0.1112 -0.1408
 8470TIP3    H146901   0.729   1.807   3.828 -1.0518 -0.1115 -0.2485
 8470TIP3    H246902   0.705   1.848   3.685  3.7327  0.6357 -0.9967
 8471TIP3   OH246903   5.331   3.838  15.765  0.2213 -0.1676  0.4544
 8471TIP3    H146904   5.370   3.901  15.826  0.1841 -1.2246  1.6196
 8471TIP3    H246905   5.305   3.764  15.820 -0.1503 -1.0162 -0.8039
 8472TIP3   OH246906   4.722   0.901   0.534  0.2392 -0.8135  0.5375
 8472TIP3    H146907   4.659   0.968   0.509  0.1352 -1.2143 -0.2930
 8472TIP3    H246908   4.739   0.918   0.627  0.4061  0.5131  0.2834
 8473TIP3   OH246909   1.025   2.711   0.647 -0.1581  0.8462 -0.2027
 8473TIP3    H146910   1.026   2.803   0.676 -1.6527  1.0337 -0.6765
 8473TIP3    H246911   1.118   2.689   0.638  0.3184  1.5411  2.2278
 8474TIP3   OH246912   6.537   5.706   5.207  0.2803 -0.4099  0.7590
 8474TIP3    H146913   6.499   5.632   5.160 -0.9195  0.5455  0.1416
 8474TIP3    H246914   6.557   5.672   5.294  0.5987 -1.6806  0.2072
 8475TIP3   OH246915   2.044   6.256  13.769 -0.1752 -0.0797  0.0139
 8475TIP3    H146916   2.064   6.163  13.782  1.6884  0.1415 -0.8786
 8475TIP3    H246917   1.949   6.262  13.777 -0.2819 -1.9741  0.5840
 8476TIP3   OH246918   2.724   5.970  10.970 -0.4253  0.3836  0.3302
 8476TIP3    H146919   2.738   6.056  11.010  0.3101  1.1248 -1.3987
 8476TIP3    H246920   2.633   5.972  10.940  0.2680  1.6758 -2.0094
 8477TIP3   OH246921   5.558   1.292   4.371 -0.5137 -0.2646  0.4099
 8477TIP3    H146922   5.525   1.210   4.409 -1.8074  0.6286  1.2736
 8477TIP3    H246923   5.507   1.361   4.413  0.1230  0.9665 -0.7505
 8478TIP3   OH246924   4.202   1.027  14.396  0.2868  0.0602  0.5740
 8478TIP3    H146925   4.116   1.066  14.412  0.0298  0.1130 -0.8135
 8478TIP3    H246926   4.224   1.053  14.306  2.2402  0.9610  1.2386
 8479TIP3   OH246927   1.816   3.663  14.767 -0.3527  0.3561 -0.2198
 8479TIP3    H146928   1.738   3.694  14.814 -0.7149 -0.9403  0.0589
 8479TIP3    H246929   1.781   3.617  14.691  0.1706  0.4200 -0.5018
 8480TIP3   OH246930   5.016   6.411   0.984 -0.6866 -0.4856  0.0795
 8480TIP3    H146931   4.998   6.371   0.899 -0.0082 -1.2791  0.2913
 8480TIP3    H246932   4.990   6.344   1.048  1.6451 -1.1924  0.4148
 8481TIP3   OH246933   5.077   6.427  11.714  0.2932  0.4011  0.0746
 8481TIP3    H146934   5.108   6.417  11.624  0.0784  0.3454  0.0043
 8481TIP3    H246935   5.142   6.481  11.757 -0.0083  1.0961 -0.3293
 8482TIP3   OH246936   0.784   1.672   4.427 -0.0744 -0.0462  0.1653
 8482TIP3    H146937   0.875   1.703   4.436 -0.3608  1.1680 -0.8956
 8482TIP3    H246938   0.733   1.752   4.412 -1.0701 -0.8845 -1.0748
 8483TIP3   OH246939   6.679   3.078   5.610  0.4739 -0.1119 -0.2425
 8483TIP3    H146940   6.716   3.042   5.529 -1.4167  2.1118 -2.2232
 8483TIP3    H246941   6.627   3.006   5.647  0.6258 -0.8913 -1.4838
 8484TIP3   OH246942   4.816   1.954   5.643 -1.0708 -0.3306 -0.1099
 8484TIP3    H146943   4.814   2.000   5.727 -0.2443  1.3565 -0.9530
 8484TIP3    H246944   4.909   1.939   5.627 -1.3299 -2.7043  0.2975
 8485TIP3   OH246945   3.134   0.209  15.841  0.9256 -0.0273 -0.2477
 8485TIP3    H146946   3.112   0.229  15.932 -0.0155  0.9551 -0.6715
 8485TIP3    H246947   3.098   0.282  15.791  2.4370  0.0364 -1.3099
 8486TIP3   OH246948   3.544   5.236   3.250 -0.0179 -0.2546  0.2235
 8486TIP3    H146949   3.547   5.184   3.170  2.1986  0.5387 -0.2765
 8486TIP3    H246950   3.604   5.309   3.234 -0.2324  0.4442  2.2766
 8487TIP3   OH246951   4.619   4.066  16.109  0.0170 -0.0258 -0.0369
 8487TIP3    H146952   4.543   4.050  16.053  1.4557 -3.4142 -1.2584
 8487TIP3    H246953   4.668   4.134  16.063  0.2427 -1.4496 -2.0298
 8488TIP3   OH246954   0.137   2.169  13.279  0.3794 -0.2354  0.0970
 8488TIP3    H146955   0.066   2.114  13.246  0.7472 -0.5839 -0.1139
 8488TIP3    H246956   0.128   2.164  13.375  0.6398 -0.9744  0.0923
 8489TIP3   OH246957   4.394   1.459   3.998  0.2478 -0.3643  0.0489
 8489TIP3    H146958   4.323   1.487   3.940 -0.5772 -0.7355  0.8503
 8489TIP3    H246959   4.380   1.364   4.008  1.1710 -0.5290 -0.2078
 8490TIP3   OH246960   2.931   4.929  10.214  0.4893  0.3375 -0.1815
 8490TIP3    H146961   3.024   4.943  10.231  0.5524  3.6231 -2.1983
 8490TIP3    H246962   2.887   4.998  10.264 -0.8257 -0.6770  0.1244
 8491TIP3   OH246963   5.325   5.233  15.064  0.1725 -0.3592  0.1569
 8491TIP3    H146964   5.258   5.234  15.132  1.6646 -0.2555  1.6755
 8491TIP3    H246965   5.280   5.197  14.987 -2.1024  1.4179  0.5541
 8492TIP3   OH246966   3.490   4.491   2.247 -0.4762 -0.0919 -0.4565
 8492TIP3    H146967   3.582   4.479   2.271 -0.3936  2.8934  1.1998
 8492TIP3    H246968   3.452   4.404   2.254  1.5604 -0.9100  2.0049
 8493TIP3   OH246969   6.158   5.208   4.998  0.0284 -0.4379 -0.0771
 8493TIP3    H146970   6.081   5.199   4.942  0.4557  0.3869 -0.8132
 8493TIP3    H246971   6.134   5.164   5.079 -1.6789  0.8885  0.1707
 8494TIP3   OH246972   3.771   2.193   3.658  0.2875 -0.3932  0.3701
 8494TIP3    H146973   3.809   2.170   3.573 -1.9420 -1.5474 -0.3953
 8494TIP3    H246974   3.774   2.112   3.709  1.5613  0.2796  1.4096
 8495TIP3   OH246975   4.103   4.214  11.704 -0.2521 -0.2356  0.2067
 8495TIP3    H146976   4.178   4.155  11.706 -1.5095 -1.9182 -0.4224
 8495TIP3    H246977   4.036   4.169  11.755 -1.4734  0.3211 -0.8533
 8496TIP3   OH246978   3.995   2.841  13.704 -0.1974 -0.0810 -0.0331
 8496TIP3    H146979   4.040   2.846  13.620  1.1081 -1.2400  0.5613
 8496TIP3    H246980   3.986   2.747  13.721 -1.5238  0.1270  0.5812
 8497TIP3   OH246981   2.450   5.797  13.383 -0.3527  0.0535 -0.2287
 8497TIP3    H146982   2.365   5.834  13.407  0.5276  1.7020  0.4765
 8497TIP3    H246983   2.507   5.815  13.458  1.8164  3.1207 -2.3493
 8498TIP3   OH246984   5.734   2.394   6.460  0.0478  0.2212 -0.2286
 8498TIP3    H146985   5.828   2.407   6.472  0.4734 -3.0487  1.1711
 8498TIP3    H246986   5.724   2.299   6.451 -3.1397  0.4351 -0.0806
 8499TIP3   OH246987   5.983   0.147  15.827 -0.3018 -0.1090  0.3395
 8499TIP3    H146988   5.977   0.149  15.923 -1.7024  0.6735  0.2512
 8499TIP3    H246989   6.076   0.159  15.809 -0.2207  1.4643  1.5767
 8500TIP3   OH246990   6.378   3.846   1.107 -0.1759 -0.7068 -0.0737
 8500TIP3    H146991   6.386   3.886   1.193 -1.3785  0.5365 -0.5058
 8500TIP3    H246992   6.466   3.816   1.085  0.3084 -0.2448  1.2042
 8501TIP3   OH246993   5.837   2.361  16.005  0.0533  0.0271  0.3091
 8501TIP3    H146994   5.785   2.425  16.053 -0.4686  0.0460 -0.2714
 8501TIP3    H246995   5.866   2.299  16.072 -2.5689 -1.2494  0.3948
 8502TIP3   OH246996   3.251   4.062  15.161 -0.4364  0.3398  0.4605
 8502TIP3    H146997   3.265   4.146  15.205  0.2363  0.0859  0.7528
 8502TIP3    H246998   3.339   4.027  15.149 -0.6919 -0.1547  0.0001
 8503TIP3   OH246999   1.182   2.344  13.020  0.1557 -0.3447  0.0620
 8503TIP3    H147000   1.213   2.350  12.930 -0.3905 -1.8563 -0.2533
 8503TIP3    H247001   1.100   2.392  13.021 -0.0408 -0.6676 -0.3492
 8504TIP3   OH247002   2.010   0.159  15.740 -0.6273  0.0690  0.0074
 8504TIP3    H147003   1.966   0.187  15.660 -1.6061  0.3211  0.6103
 8504TIP3    H247004   1.944   0.105  15.785 -1.8382  3.4387  2.7478
 8505TIP3   OH247005   4.724   1.062  13.327 -0.5850  0.1448 -0.1032
 8505TIP3    H147006   4.644   1.023  13.363 -1.0279 -0.1493 -1.3448
 8505TIP3    H247007   4.726   1.031  13.236  1.1253 -0.1343  0.0085
 8506TIP3   OH247008   0.764   3.983   0.833 -0.4348  0.6571 -0.0251
 8506TIP3    H147009   0.713   4.006   0.755 -1.3259  1.4610  0.7620
 8506TIP3    H247010   0.698   3.969   0.901  0.2962 -0.5354  0.4826
 8507TIP3   OH247011   2.297   0.545   2.585  0.1347  0.2436 -0.4307
 8507TIP3    H147012   2.325   0.512   2.670  0.3104  1.1205 -0.1387
 8507TIP3    H247013   2.343   0.490   2.522  0.6233  0.0963  0.0396
 8508TIP3   OH247014   2.166   4.706  17.126 -0.5939  0.5148 -0.0867
 8508TIP3    H147015   2.189   4.798  17.142 -1.6789  0.9145 -0.7687
 8508TIP3    H247016   2.158   4.669  17.214  0.6513  0.8509  0.1952
 8509TIP3   OH247017   0.796   0.264  12.261  0.3593 -0.3571 -0.0099
 8509TIP3    H147018   0.883   0.289  12.229  0.2604 -1.2055 -1.0187
 8509TIP3    H247019   0.735   0.307  12.201 -0.0122  1.4076  1.5357
 8510TIP3   OH247020   5.094   3.637  16.425  0.3366 -0.0437 -0.0231
 8510TIP3    H147021   5.161   3.569  16.422  2.6265  1.9878  1.0707
 8510TIP3    H247022   5.049   3.631  16.341  0.8603 -2.4383 -0.2020
 8511TIP3   OH247023   0.104   3.102  13.334 -1.1033 -0.1134 -0.0071
 8511TIP3    H147024   0.017   3.110  13.372 -1.1506 -2.0586  0.3710
 8511TIP3    H247025   0.161   3.150  13.394 -1.8070  0.6750  0.0536
 8512TIP3   OH247026   0.928   1.364  14.221  0.1911  0.0959 -0.0159
 8512TIP3    H147027   0.997   1.363  14.154 -0.5712 -0.4885 -0.8274
 8512TIP3    H247028   0.889   1.277  14.216 -0.4101  0.3173  0.6333
 8513TIP3   OH247029   1.981   2.523   3.248  0.6545  0.1361  0.1875
 8513TIP3    H147030   1.903   2.577   3.236  1.5099  1.4913  0.3718
 8513TIP3    H247031   1.953   2.434   3.231  0.1689  0.9922 -5.2219
 8514TIP3   OH247032   0.942   6.431   1.080 -0.2757 -0.5676  0.4395
 8514TIP3    H147033   0.881   6.359   1.096  0.6538 -1.6333 -0.6500
 8514TIP3    H247034   1.017   6.412   1.136 -0.4206  0.0806  0.8633
 8515TIP3   OH247035   1.898   6.606   1.081  0.1461  0.0323  0.1987
 8515TIP3    H147036   1.900   6.515   1.112 -2.7880 -0.5853 -1.1182
 8515TIP3    H247037   1.855   6.601   0.996 -0.9463  2.7827  0.5147
 8516TIP3   OH247038   3.501   6.049  16.916  0.1213 -0.5809  0.2572
 8516TIP3    H147039   3.570   5.985  16.932 -0.3575 -1.1192  0.1955
 8516TIP3    H247040   3.543   6.118  16.865  0.7097 -0.7117  0.5586
 8517TIP3   OH247041   2.694   6.029   1.763 -0.0093 -0.8712 -0.2086
 8517TIP3    H147042   2.773   6.074   1.734 -1.5183  2.0289 -0.1075
 8517TIP3    H247043   2.674   5.968   1.691 -0.8258  2.4981 -3.1552
 8518TIP3   OH247044   3.241   5.529   3.705 -0.0501 -0.4536 -0.1071
 8518TIP3    H147045   3.314   5.485   3.661  0.2323 -1.2309  1.1048
 8518TIP3    H247046   3.192   5.458   3.746 -2.6255 -0.1724 -2.4437
 8519TIP3   OH247047   2.158   6.144   0.296  0.1155 -0.4845 -0.0258
 8519TIP3    H147048   2.074   6.189   0.301  0.2118 -0.2913 -0.1133
 8519TIP3    H247049   2.163   6.112   0.206  1.2244  1.6852 -0.8269
 8520TIP3   OH247050   1.259   3.173  13.051 -0.4631  0.1233 -0.6679
 8520TIP3    H147051   1.201   3.217  13.113 -1.3029 -2.8364  0.8689
 8520TIP3    H247052   1.211   3.172  12.969 -1.0053  0.8289 -0.3673
 8521TIP3   OH247053   1.357   3.665   3.801  0.1802 -0.0825 -0.0858
 8521TIP3    H147054   1.367   3.759   3.790 -0.2666  0.0691  0.7137
 8521TIP3    H247055   1.294   3.656   3.872  0.4476 -0.9889  0.0464
 8522TIP3   OH247056   6.811   4.749  12.248  0.2487 -0.2285 -0.1199
 8522TIP3    H147057   6.732   4.794  12.220  0.6858  0.5745 -0.0889
 8522TIP3    H247058   6.882   4.797  12.205  0.8125 -0.0862  0.9444
 8523TIP3   OH247059   2.428   6.640  15.447  0.0418 -0.0855 -0.0545
 8523TIP3    H147060   2.404   6.647  15.354 -0.1782 -0.1245 -0.0010
 8523TIP3    H247061   2.473   6.722  15.466  1.0781 -0.5407 -0.4835
 8524TIP3   OH247062   4.654   1.951  13.895  0.6278 -0.8653 -0.3820
 8524TIP3    H147063   4.566   1.917  13.910  0.7945 -2.0104 -1.8858
 8524TIP3    H247064   4.641   2.029  13.841  0.4334  0.0759  0.9693
 8525TIP3   OH247065   4.655   4.617   1.578  0.0723  0.2550  0.3645
 8525TIP3    H147066   4.586   4.565   1.537  0.0356  1.0052 -0.5709
 8525TIP3    H247067   4.728   4.556   1.588 -0.1921 -0.1482 -0.1083
 8526TIP3   OH247068   0.372   4.668   4.455  0.2752 -0.2988  0.6219
 8526TIP3    H147069   0.403   4.619   4.531  1.5183 -1.4118 -0.5457
 8526TIP3    H247070   0.364   4.603   4.386 -1.6137  0.5474 -0.0353
 8527TIP3   OH247071   6.705   4.887  12.932 -0.1901  0.4091 -0.0215
 8527TIP3    H147072   6.729   4.963  12.987 -1.6116  0.8405  0.0427
 8527TIP3    H247073   6.752   4.901  12.850  3.0504 -0.9275  1.4553
 8528TIP3   OH247074   1.716   0.830  14.294  0.3827 -0.1583 -0.1670
 8528TIP3    H147075   1.797   0.802  14.336  0.2790  0.6375  0.6026
 8528TIP3    H247076   1.678   0.893  14.355  0.2429  1.0734 -1.4674
 8529TIP3   OH247077   6.644   4.690  14.850 -0.0474 -0.2614  0.0626
 8529TIP3    H147078   6.700   4.612  14.852  0.1575 -0.1148  0.0049
 8529TIP3    H247079   6.563   4.659  14.810  0.2078 -0.3308 -0.4022
 8530TIP3   OH247080   0.020   4.760   2.358 -0.1604 -0.1117  0.5442
 8530TIP3    H147081   0.029   4.715   2.442 -0.0436 -1.7643 -0.3108
 8530TIP3    H247082   0.080   4.834   2.364 -1.2833  0.7276  2.4760
 8531TIP3   OH247083   3.073   3.997  14.747 -0.0561 -0.1287 -0.5106
 8531TIP3    H147084   2.989   4.001  14.702 -0.1546 -1.3329 -0.4523
 8531TIP3    H247085   3.137   3.984  14.677  0.0328  0.2547 -0.5045
 8532TIP3   OH247086   1.652   1.115  11.552  0.0089  0.1399  0.4709
 8532TIP3    H147087   1.607   1.146  11.631  1.9623  0.2143  1.6380
 8532TIP3    H247088   1.739   1.091  11.583 -0.7015 -4.8838 -0.6857
 8533TIP3   OH247089   5.185   1.793  16.451  0.2253 -0.6438  0.1274
 8533TIP3    H147090   5.094   1.822  16.456  0.3845 -0.0885 -0.0933
 8533TIP3    H247091   5.236   1.873  16.466  0.6769 -0.9682  0.3389
 8534TIP3   OH247092   5.211   1.760   2.871 -0.5381  0.1388  0.5414
 8534TIP3    H147093   5.265   1.813   2.812 -1.7125 -1.1557 -1.8585
 8534TIP3    H247094   5.151   1.822   2.911  0.8062  1.1727  1.0139
 8535TIP3   OH247095   6.800   1.832  14.250 -0.3184  0.2209 -0.3507
 8535TIP3    H147096   6.812   1.742  14.219 -0.5414 -0.2163  0.7720
 8535TIP3    H247097   6.706   1.840  14.263 -0.2591  0.4957 -0.0918
 8536TIP3   OH247098   4.206   0.291  15.112 -0.2361 -0.1745 -0.1026
 8536TIP3    H147099   4.142   0.266  15.045  0.9243 -0.1812 -1.2574
 8536TIP3    H247100   4.286   0.245  15.087  0.3651  0.2335  1.0141
 8537TIP3   OH247101   4.499   4.296   2.389 -0.0832  0.4104 -0.0630
 8537TIP3    H147102   4.447   4.311   2.310 -1.1141 -1.0074  0.3235
 8537TIP3    H247103   4.453   4.343   2.458 -0.7071 -0.5998  0.2204
 8538TIP3   OH247104   0.028   4.216   6.130 -0.1550 -0.1244  0.1646
 8538TIP3    H147105  -0.013   4.293   6.090 -1.5899 -2.0276 -2.3890
 8538TIP3    H247106  -0.020   4.202   6.211 -0.8410  0.8716 -0.0605
 8539TIP3   OH247107   6.144   0.961   3.477  0.1131 -0.0333  1.0169
 8539TIP3    H147108   6.090   1.017   3.533  0.6897  0.4612  1.0839
 8539TIP3    H247109   6.220   1.015   3.455 -1.3925  0.9395 -2.6494
 8540TIP3   OH247110   2.107   4.310  11.142  0.2424  0.1154 -0.1076
 8540TIP3    H147111   2.019   4.327  11.175 -0.1276 -1.3568 -0.2371
 8540TIP3    H247112   2.094   4.248  11.070  1.4026 -0.3403  0.0442
 8541TIP3   OH247113   5.727   0.135  12.539 -0.7657 -0.4139 -0.0177
 8541TIP3    H147114   5.815   0.117  12.570 -0.0823  1.7788 -0.4991
 8541TIP3    H247115   5.706   0.222  12.574 -1.6669  0.2395 -1.9845
 8542TIP3   OH247116   4.514   2.125   3.626 -0.2461 -0.8270 -0.6985
 8542TIP3    H147117   4.607   2.112   3.612 -0.1121 -0.2092 -0.4265
 8542TIP3    H247118   4.506   2.218   3.650 -0.3590 -1.8081  3.8467
 8543TIP3   OH247119   3.931   3.546   3.086  0.1056  0.0709 -0.2602
 8543TIP3    H147120   3.926   3.641   3.081 -2.5234  0.0834  0.9606
 8543TIP3    H247121   3.888   3.524   3.169  3.7253 -2.0381  1.3043
 8544TIP3   OH247122   5.408   1.582  16.333  0.5329 -0.2081 -0.1572
 8544TIP3    H147123   5.374   1.670  16.349 -0.5225 -0.7013  0.4241
 8544TIP3    H247124   5.381   1.532  16.410  0.4490 -1.2215 -0.8284
 8545TIP3   OH247125   6.156   3.777   5.915  0.5139  1.1257 -0.3417
 8545TIP3    H147126   6.163   3.729   5.997  1.4201  0.2346 -0.9138
 8545TIP3    H247127   6.066   3.762   5.886 -0.3682  2.8610  1.2927
 8546TIP3   OH247128   2.740   4.758   3.491  0.1318  0.1934 -0.0693
 8546TIP3    H147129   2.649   4.783   3.508  0.4263  0.9040  0.4778
 8546TIP3    H247130   2.755   4.781   3.399 -0.3121 -0.1685 -0.2370
 8547TIP3   OH247131   5.648   2.518  12.658 -0.3360 -0.4505 -0.4165
 8547TIP3    H147132   5.719   2.458  12.636  0.3055  0.2232 -0.2289
 8547TIP3    H247133   5.572   2.484  12.610 -0.0440 -1.5137 -0.1630
 8548TIP3   OH247134   2.297   5.594  15.397  0.6937  0.5009 -0.0383
 8548TIP3    H147135   2.317   5.687  15.392  0.3482  0.5283 -1.4672
 8548TIP3    H247136   2.246   5.584  15.477 -0.6966  1.8388 -0.7143
 8549TIP3   OH247137   4.888   1.807   2.890 -0.9633 -0.2058  0.1431
 8549TIP3    H147138   4.925   1.812   2.978 -1.2072 -1.8912  0.3805
 8549TIP3    H247139   4.896   1.896   2.855 -0.4255  0.3789  1.6793
 8550TIP3   OH247140   1.543   0.452  14.074  0.3476  0.7177 -0.4598
 8550TIP3    H147141   1.605   0.489  14.137  0.0668 -0.3976  0.4946
 8550TIP3    H247142   1.593   0.384  14.029 -0.1029 -0.0234  0.1479
 8551TIP3   OH247143   3.843   4.142  13.670 -0.0455 -0.0937  0.0532
 8551TIP3    H147144   3.784   4.114  13.741  0.8834  0.9592  1.2857
 8551TIP3    H247145   3.931   4.129  13.706  0.5210 -1.5540 -1.7307
 8552TIP3   OH247146   2.484   1.348  13.421  0.1758  0.3170  0.0469
 8552TIP3    H147147   2.388   1.354  13.421  0.2414  2.8888 -0.8766
 8552TIP3    H247148   2.506   1.304  13.340 -0.2167  0.4202 -0.1194
 8553TIP3   OH247149   3.517   2.997   2.392 -0.1033 -0.1303  0.2435
 8553TIP3    H147150   3.443   3.048   2.360 -0.5000  0.0382  1.4010
 8553TIP3    H247151   3.482   2.946   2.465  0.7440 -0.6168  0.3240
 8554TIP3   OH247152   4.188   3.638   4.333 -0.5082  0.0240 -0.0350
 8554TIP3    H147153   4.173   3.662   4.424  1.1865  0.0000  0.2823
 8554TIP3    H247154   4.245   3.708   4.299  0.4388 -0.9563 -0.5155
 8555TIP3   OH247155   3.974   6.051   5.710 -0.4837 -0.1276  0.1577
 8555TIP3    H147156   3.911   6.120   5.732  0.4366  0.1416  2.2489
 8555TIP3    H247157   3.988   6.004   5.792  0.4301 -1.5478 -0.7600
 8556TIP3   OH247158   2.272   4.120  15.396  0.5891 -0.1600  0.2234
 8556TIP3    H147159   2.245   4.105  15.305  0.2018 -0.0843  0.3243
 8556TIP3    H247160   2.331   4.196  15.391  0.7334 -0.2825  0.0123
 8557TIP3   OH247161   4.896   3.282  16.616  0.2526 -0.1242 -0.0812
 8557TIP3    H147162   4.906   3.254  16.707  1.5753  0.0692 -0.1420
 8557TIP3    H247163   4.812   3.246  16.589 -0.4462  0.3191  1.3978
 8558TIP3   OH247164   1.811   5.659  16.493  0.5019 -0.0248 -0.1078
 8558TIP3    H147165   1.854   5.598  16.433  1.4701  0.1517  0.3748
 8558TIP3    H247166   1.883   5.694  16.547 -0.4312 -0.9662  1.8588
 8559TIP3   OH247167   2.112   3.648   4.759  0.2742  0.3289  0.0092
 8559TIP3    H147168   2.112   3.555   4.734  0.1207  0.2853  0.1729
 8559TIP3    H247169   2.110   3.695   4.675 -0.1281  0.1814 -0.0626
 8560TIP3   OH247170   6.334   6.452  14.863  0.4788 -0.2798 -0.0754
 8560TIP3    H147171   6.361   6.407  14.783 -0.5368 -0.2098 -0.4676
 8560TIP3    H247172   6.313   6.541  14.835  0.1579 -0.2454  0.2649
 8561TIP3   OH247173   4.553   3.148   6.287 -0.2497  0.0532  0.1057
 8561TIP3    H147174   4.604   3.136   6.367 -2.5455 -1.2240  1.4905
 8561TIP3    H247175   4.551   3.062   6.246  1.2026  0.7767 -1.5895
 8562TIP3   OH247176   5.162   3.811  13.574  0.4992 -0.1150  0.4514
 8562TIP3    H147177   5.125   3.797  13.662  0.0832 -1.2486  0.1213
 8562TIP3    H247178   5.099   3.768  13.515  1.3800 -0.4216 -0.2833
 8563TIP3   OH247179   0.157   2.271   0.536 -0.0474  0.0277  0.2337
 8563TIP3    H147180   0.086   2.304   0.592  1.2096 -0.1224  2.0007
 8563TIP3    H247181   0.152   2.176   0.546  0.5351  0.0266  0.5595
 8564TIP3   OH247182   2.666   2.815  15.777  0.0047  0.0704  0.3870
 8564TIP3    H147183   2.756   2.848  15.782 -0.4249  1.7154 -1.3045
 8564TIP3    H247184   2.665   2.761  15.697 -0.7613  1.0533 -0.2941
 8565TIP3   OH247185   4.633   4.076   5.629 -0.0931  0.1647 -0.4698
 8565TIP3    H147186   4.554   4.025   5.610 -1.4249  2.3003 -1.0824
 8565TIP3    H247187   4.704   4.013   5.626 -1.8103 -1.9447  0.6145
 8566TIP3   OH247188   2.591   1.317  13.022  0.4437  0.4564 -0.6406
 8566TIP3    H147189   2.560   1.257  12.955  0.1630 -1.1184  0.8286
 8566TIP3    H247190   2.512   1.342  13.071  0.9851 -1.0346  1.1165
 8567TIP3   OH247191   6.677   0.242   3.030  0.1949  0.5122 -0.1528
 8567TIP3    H147192   6.605   0.182   3.048  1.6111 -0.8286  1.2635
 8567TIP3    H247193   6.693   0.233   2.936 -1.2672  0.6286 -0.4312
 8568TIP3   OH247194   0.332   1.550   3.083  0.0569 -0.0508  0.1302
 8568TIP3    H147195   0.256   1.495   3.101 -0.8559  1.1033 -0.0722
 8568TIP3    H247196   0.370   1.514   3.003 -0.3848 -0.5306  0.1344
 8569TIP3   OH247197   0.147   1.058  14.758 -0.7761  0.3610  0.4876
 8569TIP3    H147198   0.199   0.988  14.721 -0.9850 -1.3655  3.1890
 8569TIP3    H247199   0.059   1.044  14.722 -0.6390 -0.2621  0.3835
 8570TIP3   OH247200   5.515   1.484   2.357 -0.5504 -0.1263 -0.1117
 8570TIP3    H147201   5.539   1.458   2.268 -1.5280  1.6480 -0.9642
 8570TIP3    H247202   5.423   1.510   2.349 -0.4845  0.6063  1.2941
 8571TIP3   OH247203   6.507   6.275   5.990  0.2533  0.7921 -0.3125
 8571TIP3    H147204   6.476   6.365   5.983 -0.8291  0.3842 -1.0369
 8571TIP3    H247205   6.602   6.282   5.989  0.1851  1.8904 -1.0267
 8572TIP3   OH247206   6.451   2.707  13.635  0.2739  0.2000 -0.5344
 8572TIP3    H147207   6.366   2.668  13.614 -0.8747  0.8905  2.3135
 8572TIP3    H247208   6.515   2.641  13.609 -1.5044 -3.3637  3.1115
 8573TIP3   OH247209   6.744   1.688  17.016 -0.0524 -0.0819 -0.1858
 8573TIP3    H147210   6.779   1.753  17.077  0.8969  1.6590 -2.4179
 8573TIP3    H247211   6.822   1.640  16.986  0.3674  2.3179 -3.5054
 8574TIP3   OH247212   0.249   4.986   6.426  0.0597 -0.1475  0.4200
 8574TIP3    H147213   0.213   5.055   6.481 -1.9031 -1.2313  0.5705
 8574TIP3    H247214   0.198   4.908   6.448  1.6307 -1.4770 -0.3560
 8575TIP3   OH247215   5.920   4.251  13.889 -0.7320 -0.0444 -0.7443
 8575TIP3    H147216   5.854   4.187  13.862 -0.7870 -0.3162  0.0200
 8575TIP3    H247217   5.939   4.301  13.809 -0.8928 -0.8223 -1.2794
 8576TIP3   OH247218   5.441   1.176  10.408 -0.3329  0.0856  0.4961
 8576TIP3    H147219   5.451   1.262  10.447 -1.1411  0.1701  0.5317
 8576TIP3    H247220   5.512   1.124  10.446 -0.9220  0.2430  1.8727
 8577TIP3   OH247221   0.853   2.247   0.076 -0.2095  0.2204  0.0522
 8577TIP3    H147222   0.847   2.298   0.157 -0.1773  0.1548  0.0957
 8577TIP3    H247223   0.763   2.238   0.046 -0.4750 -1.6814  1.2698
 8578TIP3   OH247224   6.150   0.194   1.766 -0.5712 -0.4598 -0.4606
 8578TIP3    H147225   6.154   0.127   1.834 -1.1199  0.4556  0.4912
 8578TIP3    H247226   6.237   0.191   1.725 -0.6730 -1.9317 -0.6359
 8579TIP3   OH247227   3.628   5.022  13.537  0.5115  0.2724  0.3176
 8579TIP3    H147228   3.647   5.098  13.482 -0.4193 -0.5682 -1.2374
 8579TIP3    H247229   3.692   4.957  13.511  0.7627  0.2139  1.0440
 8580TIP3   OH247230   1.616   3.724  17.153  0.2314  0.6729  0.0315
 8580TIP3    H147231   1.621   3.635  17.187 -0.9063  0.7127  0.3544
 8580TIP3    H247232   1.629   3.715  17.059  1.6203  0.3540  0.2351
 8581TIP3   OH247233   1.170   3.097  14.971 -0.4510 -0.5994  0.0469
 8581TIP3    H147234   1.096   3.125  15.024 -0.0224 -0.7402  0.7291
 8581TIP3    H247235   1.166   3.001  14.973  1.8749 -0.7847  3.2408
 8582TIP3   OH247236   4.693   0.465  10.846  0.1527 -0.7505  0.6865
 8582TIP3    H147237   4.702   0.560  10.836  1.5488 -0.7817  1.4868
 8582TIP3    H247238   4.770   0.429  10.802  0.1330 -1.4673  1.2299
 8583TIP3   OH247239   1.350   2.468   5.732 -0.4318  0.1775  0.1123
 8583TIP3    H147240   1.319   2.454   5.821 -1.8662 -3.4179 -0.7749
 8583TIP3    H247241   1.323   2.557   5.710 -2.8306  0.0531  2.2199
 8584TIP3   OH247242   2.690   5.478  14.136  0.4934 -0.5059  0.3605
 8584TIP3    H147243   2.711   5.447  14.048 -0.3483  0.9825 -0.4040
 8584TIP3    H247244   2.738   5.560  14.145  0.1895 -0.3964  1.1122
 8585TIP3   OH247245   1.526   3.479  15.926 -0.0796 -0.5146 -0.6234
 8585TIP3    H147246   1.538   3.573  15.940  0.4354 -0.4633 -1.3585
 8585TIP3    H247247   1.494   3.472  15.837 -2.2290 -0.9151  0.1362
 8586TIP3   OH247248   3.986   6.454   0.418  0.5308 -0.2374  0.2450
 8586TIP3    H147249   4.017   6.397   0.488 -1.0146 -0.0546  1.1176
 8586TIP3    H247250   3.979   6.540   0.458 -0.9028 -0.2377  0.0498
 8587TIP3   OH247251   0.291   2.699  15.580 -1.2001  0.0736  0.1319
 8587TIP3    H147252   0.251   2.626  15.626  0.5499 -0.9908  0.0305
 8587TIP3    H247253   0.377   2.709  15.620 -0.3947  0.3936 -1.5864
 8588TIP3   OH247254   6.734   1.763  10.899 -0.6084  0.9877 -0.3643
 8588TIP3    H147255   6.749   1.744  10.807  0.6597 -0.4859  0.0904
 8588TIP3    H247256   6.683   1.688  10.931  2.8549 -1.0155  1.0654
 8589TIP3   OH247257   2.094   1.569  13.972  0.0470  0.1791  0.1746
 8589TIP3    H147258   2.175   1.597  14.015  0.8391  0.0575 -1.1569
 8589TIP3    H247259   2.101   1.474  13.967 -0.5129  0.1117  0.6863
 8590TIP3   OH247260   6.016   0.648  15.853  0.0174  0.1933 -0.3618
 8590TIP3    H147261   5.973   0.593  15.917 -0.8243  1.3190  0.0812
 8590TIP3    H247262   6.063   0.587  15.796 -0.6270 -0.9364  0.2828
 8591TIP3   OH247263   4.135   6.625   3.212 -0.2156 -0.1595  0.1557
 8591TIP3    H147264   4.230   6.633   3.224 -0.3568  0.0823  1.3026
 8591TIP3    H247265   4.114   6.538   3.245 -0.4365 -0.0543  0.2981
 8592TIP3   OH247266   5.363   4.544  13.311 -0.1403  0.5726  0.6770
 8592TIP3    H147267   5.375   4.587  13.395 -0.5387  2.9126 -0.3732
 8592TIP3    H247268   5.288   4.589  13.272  0.2022 -0.2673 -1.0409
 8593TIP3   OH247269   0.740   1.306  11.517  0.2939  0.5498  0.1486
 8593TIP3    H147270   0.664   1.296  11.460 -0.6070  0.4248  1.3513
 8593TIP3    H247271   0.806   1.348  11.461 -0.5505  0.4136 -0.9834
 8594TIP3   OH247272   3.850   0.201   5.375 -0.0888 -0.4231  0.1762
 8594TIP3    H147273   3.812   0.288   5.359  0.9048 -0.1173 -0.5664
 8594TIP3    H247274   3.791   0.162   5.440 -0.9020  0.5609  0.0677
 8595TIP3   OH247275   4.963   5.562   5.580  0.1881  0.6088  0.9212
 8595TIP3    H147276   4.932   5.476   5.552 -1.4160  1.3313  0.3975
 8595TIP3    H247277   4.956   5.561   5.676  0.1437  0.1750  0.9123
 8596TIP3   OH247278   3.035   4.661   6.246 -0.6786  0.3343 -0.1122
 8596TIP3    H147279   3.006   4.709   6.168  1.3309  0.0359 -1.0948
 8596TIP3    H247280   2.970   4.591   6.256 -0.1433 -0.5969 -2.4887
 8597TIP3   OH247281   6.101   6.713   0.085 -0.0399 -0.9160 -0.5630
 8597TIP3    H147282   6.055   6.682   0.007 -1.3910  1.6641 -0.9330
 8597TIP3    H247283   6.033   6.757   0.136  1.3960  0.1324  0.5388
 8598TIP3   OH247284   0.548   3.722  17.206 -0.0632  0.7917 -0.0778
 8598TIP3    H147285   0.641   3.740  17.193  1.1240 -2.4940  2.4901
 8598TIP3    H247286   0.532   3.639  17.162 -1.3047  0.4194  1.0062
 8599TIP3   OH247287   4.749   5.694   0.021 -0.5630  0.2453  0.2265
 8599TIP3    H147288   4.768   5.649  -0.061  1.1864  0.2808  0.5715
 8599TIP3    H247289   4.759   5.627   0.088  0.7361  0.8208  0.6283
 8600TIP3   OH247290   5.339   4.649   4.644  0.4315  0.1381 -0.0779
 8600TIP3    H147291   5.309   4.574   4.593  0.4851 -1.3715  1.9574
 8600TIP3    H247292   5.431   4.658   4.623  0.6705 -1.0459  0.3899
 8601TIP3   OH247293   1.116   0.432  16.474  0.0369 -0.0578 -0.2737
 8601TIP3    H147294   1.061   0.505  16.503 -0.5115 -0.8430  0.7217
 8601TIP3    H247295   1.054   0.364  16.448  0.5315  0.0974 -2.0206
 8602TIP3   OH247296   3.718   4.516   3.204 -0.5064  0.4407  0.2216
 8602TIP3    H147297   3.792   4.494   3.260 -1.2510 -0.2322  0.9751
 8602TIP3    H247298   3.721   4.452   3.133  1.2142  2.1050 -1.3069
 8603TIP3   OH247299   3.530   5.165  11.058 -0.0670 -0.5898 -0.4306
 8603TIP3    H147300   3.550   5.082  11.015  0.0880 -0.0573 -1.4044
 8603TIP3    H247301   3.472   5.210  10.997  0.5103  0.3738 -0.2735
 8604TIP3   OH247302   1.720   3.702   3.096 -0.5484 -0.4684 -0.4517
 8604TIP3    H147303   1.669   3.704   3.177 -0.5243 -1.6031 -0.3968
 8604TIP3    H247304   1.775   3.624   3.105  1.7718  1.0946 -0.1588
 8605TIP3   OH247305   2.927   3.377   0.568 -0.7572 -1.0093  0.4773
 8605TIP3    H147306   2.849   3.345   0.614 -1.0014 -1.2609 -0.0992
 8605TIP3    H247307   2.914   3.348   0.478 -0.9969  0.7701 -0.0846
 8606TIP3   OH247308   1.555   0.700  12.831 -0.0220  0.2196 -0.2058
 8606TIP3    H147309   1.555   0.720  12.924 -0.0578 -0.4811 -0.0579
 8606TIP3    H247310   1.612   0.624  12.821  0.3995  0.6044 -0.8242
 8607TIP3   OH247311   2.791   2.091   4.158  0.0780 -0.1524  0.1241
 8607TIP3    H147312   2.836   2.050   4.084  0.6183  0.9223 -0.1646
 8607TIP3    H247313   2.698   2.073   4.142  0.0923  0.9173 -1.3931
 8608TIP3   OH247314   3.602   1.012   0.978 -1.0923 -0.1532 -0.2231
 8608TIP3    H147315   3.536   0.974   1.036 -1.8414  0.7978 -0.4278
 8608TIP3    H247316   3.569   0.994   0.889 -0.4339 -0.7652 -0.3553
 8609TIP3   OH247317   0.868   0.203  13.885 -0.8116  0.1053  0.2762
 8609TIP3    H147318   0.877   0.270  13.818  0.1725  0.2981  0.5750
 8609TIP3    H247319   0.906   0.124  13.846  0.4486  0.4020  0.8353
 8610TIP3   OH247320   1.503   0.551   3.260  0.2691  0.1291 -0.5149
 8610TIP3    H147321   1.456   0.473   3.231 -1.4998  0.8169  0.3324
 8610TIP3    H247322   1.493   0.551   3.355  4.1672 -0.9817  0.0632
 8611TIP3   OH247323   1.264   5.702  15.809 -0.5273 -0.7460 -0.2871
 8611TIP3    H147324   1.195   5.768  15.806 -2.1561 -2.3968 -2.2651
 8611TIP3    H247325   1.303   5.703  15.721  0.8593 -1.0057  0.2905
 8612TIP3   OH247326   0.764   1.034   4.472  0.2316  0.3880 -0.3182
 8612TIP3    H147327   0.832   0.983   4.517 -0.4472 -1.2633 -1.0677
 8612TIP3    H247328   0.703   1.059   4.541 -0.6910 -1.9316 -0.2053
 8613TIP3   OH247329   2.518   4.611   0.205  0.0330 -0.8605  0.0331
 8613TIP3    H147330   2.452   4.679   0.216  0.2483 -0.8162  1.2123
 8613TIP3    H247331   2.491   4.563   0.127 -0.8246 -0.2131 -0.0810
 8614TIP3   OH247332   2.982   2.548   2.905  0.3353  0.4991  0.0705
 8614TIP3    H147333   2.926   2.617   2.868  1.6086  0.6520 -1.6780
 8614TIP3    H247334   2.953   2.541   2.996  0.6048  3.8392  0.5448
 8615TIP3   OH247335   4.182   5.766   3.280  0.6974 -0.1936 -0.2116
 8615TIP3    H147336   4.108   5.712   3.253 -0.7004  1.0015  1.0786
 8615TIP3    H247337   4.206   5.816   3.203 -0.3097 -0.0599 -0.4401
 8616TIP3   OH247338   4.166   6.497   3.635 -0.1018  0.3885  0.4033
 8616TIP3    H147339   4.170   6.401   3.640 -0.5676  0.1522 -2.3139
 8616TIP3    H247340   4.257   6.524   3.623 -0.1509  0.1176 -0.6440
 8617TIP3   OH247341   5.629   3.277   0.105 -0.1022 -0.5399  0.3058
 8617TIP3    H147342   5.621   3.241   0.194  1.1056  1.8074  1.4594
 8617TIP3    H247343   5.549   3.328   0.092  0.1503 -0.0955  0.4610
 8618TIP3   OH247344   4.409   0.080  12.882 -0.0265  0.0507 -0.5375
 8618TIP3    H147345   4.336   0.071  12.942 -1.3626  1.1007 -1.9168
 8618TIP3    H247346   4.383   0.151  12.823 -0.1384 -2.7385 -4.1747
 8619TIP3   OH247347   2.767   0.991   2.378  0.1333  0.0107  0.3344
 8619TIP3    H147348   2.781   1.033   2.293 -0.4596  1.3587  0.8718
 8619TIP3    H247349   2.815   0.909   2.373  1.7304  0.9676 -0.5948
 8620TIP3   OH247350   3.723   5.765   4.401 -0.4377 -0.3784  0.2336
 8620TIP3    H147351   3.786   5.763   4.329 -0.8196  0.1347 -0.1223
 8620TIP3    H247352   3.687   5.677   4.404 -0.0763 -0.5324  0.1076
 8621TIP3   OH247353   0.102   5.484   4.607  0.3885 -0.4854  0.1402
 8621TIP3    H147354   0.194   5.468   4.627  0.4323 -0.3626  0.0397
 8621TIP3    H247355   0.057   5.478   4.691  0.6978  0.9995  0.4426
 8622TIP3   OH247356   0.774   2.737  15.665  0.4843 -0.4964 -0.4507
 8622TIP3    H147357   0.828   2.783  15.730 -0.8355  0.6374 -0.1145
 8622TIP3    H247358   0.806   2.646  15.668 -0.1013 -0.7310  2.4997
 8623TIP3   OH247359   4.271   5.465  16.490 -0.0898  0.1113 -0.2451
 8623TIP3    H147360   4.292   5.553  16.521 -0.9957  0.1630  0.2605
 8623TIP3    H247361   4.240   5.419  16.568  1.1243 -0.9119 -0.3344
 8624TIP3   OH247362   4.281   4.782   2.525 -0.3410  0.8820  0.5573
 8624TIP3    H147363   4.224   4.719   2.570  0.0183  0.7697  0.8709
 8624TIP3    H247364   4.222   4.835   2.473 -0.8163  1.2417  1.4398
 8625TIP3   OH247365   1.765   2.175  13.022 -0.1987  0.2193  0.5046
 8625TIP3    H147366   1.726   2.263  13.030  2.4325  1.5206  0.0346
 8625TIP3    H247367   1.835   2.174  13.087  0.6938 -1.0191 -0.4414
 8626TIP3   OH247368   2.539   4.203  10.988 -0.1311 -0.1727 -0.5714
 8626TIP3    H147369   2.473   4.147  10.948  0.6040 -0.5598 -1.2960
 8626TIP3    H247370   2.545   4.279  10.929 -0.1366  0.0024 -0.3490
 8627TIP3   OH247371   6.345   2.049   5.293 -0.4704 -0.5814  0.3886
 8627TIP3    H147372   6.386   2.133   5.313 -2.6586  1.1899 -1.8837
 8627TIP3    H247373   6.305   2.021   5.375  1.7695 -0.3991  1.6387
 8628TIP3   OH247374   2.580   4.413  16.035  0.5412  0.5583 -0.4993
 8628TIP3    H147375   2.533   4.472  15.975  0.5656  0.6316 -0.4452
 8628TIP3    H247376   2.575   4.328  15.992  1.7340  0.8635 -1.2759
 8629TIP3   OH247377   0.105   5.029   0.393  0.1850  0.2129 -0.0677
 8629TIP3    H147378   0.177   4.985   0.438  1.8775  0.6156 -2.2588
 8629TIP3    H247379   0.106   5.118   0.428  0.5586  0.1413  0.1141
 8630TIP3   OH247380   2.565   3.855   1.432 -0.2452 -0.2041  0.5818
 8630TIP3    H147381   2.644   3.840   1.484  0.6190  0.2148 -0.5822
 8630TIP3    H247382   2.596   3.870   1.343 -1.5715  0.8611  0.2523
 8631TIP3   OH247383   3.946   3.042   4.328 -0.2468  0.3215  0.2054
 8631TIP3    H147384   3.883   3.077   4.390 -1.9632  1.5753 -2.0895
 8631TIP3    H247385   3.989   2.970   4.375 -0.6388  1.8665  3.1370
 8632TIP3   OH247386   6.128   6.453   4.475 -0.1650 -0.5405 -0.1421
 8632TIP3    H147387   6.211   6.480   4.434  1.2433 -1.0213  2.1707
 8632TIP3    H247388   6.071   6.432   4.402  0.7944  2.4479 -1.9354
 8633TIP3   OH247389   4.407   4.768  15.961  0.1155 -0.0346 -0.0447
 8633TIP3    H147390   4.357   4.723  16.030  1.5956 -1.0597  0.4143
 8633TIP3    H247391   4.445   4.697  15.910 -0.0844  0.7321 -1.2818
 8634TIP3   OH247392   1.816   5.632  17.096  0.5604 -0.0421  0.0143
 8634TIP3    H147393   1.798   5.707  17.152 -1.1450  0.4231 -1.0790
 8634TIP3    H247394   1.884   5.662  17.036 -0.3880  0.7917 -0.6705
 8635TIP3   OH247395   5.987   1.522  13.304 -0.6886 -0.3392 -0.1383
 8635TIP3    H147396   6.063   1.476  13.341  0.8705  1.9994 -0.1946
 8635TIP3    H247397   5.986   1.496  13.212  0.9830  0.6717 -0.4890
 8636TIP3   OH247398   0.374   4.119   6.019 -0.5860 -0.1729  0.4430
 8636TIP3    H147399   0.370   4.173   6.099 -1.9835 -1.9608  1.6705
 8636TIP3    H247400   0.317   4.164   5.957  2.6039  2.7633 -0.6999
 8637TIP3   OH247401   5.317   0.304   4.587 -0.0618 -0.7280 -0.6395
 8637TIP3    H147402   5.368   0.344   4.517  0.5683 -1.2613 -0.5001
 8637TIP3    H247403   5.318   0.210   4.567 -0.5607 -0.7973 -0.3596
 8638TIP3   OH247404   0.497   4.251   2.055  0.4822  0.3508 -0.5688
 8638TIP3    H147405   0.563   4.247   1.987  2.5481 -0.0138  1.3356
 8638TIP3    H247406   0.520   4.330   2.105 -0.9570  0.5917 -0.2427
 8639TIP3   OH247407   5.466   5.903   4.248 -0.1597  0.2477  0.0986
 8639TIP3    H147408   5.391   5.855   4.282  0.6788 -0.9082  0.3674
 8639TIP3    H247409   5.494   5.852   4.172  1.0322  0.0246  0.6626
 8640TIP3   OH247410   6.424   2.984   5.104 -0.0437  0.1947 -0.0905
 8640TIP3    H147411   6.410   3.077   5.085  3.0533  0.7429 -0.1829
 8640TIP3    H247412   6.451   2.983   5.196  1.0685 -0.4587 -0.4144
 8641TIP3   OH247413   6.472   6.083  12.022  0.1627  0.4847 -0.1303
 8641TIP3    H147414   6.528   6.160  12.026  1.7288 -0.6212  0.0769
 8641TIP3    H247415   6.384   6.117  12.039  1.0815  1.9026  2.2821
 8642TIP3   OH247416   3.950   3.189  14.875  0.4074 -0.5439  0.3396
 8642TIP3    H147417   4.018   3.129  14.844 -1.3947 -2.5136 -0.0421
 8642TIP3    H247418   3.954   3.263  14.814  0.1710 -2.1019 -1.6967
 8643TIP3   OH247419   0.886   1.724   5.389  0.1499 -0.0958 -0.4270
 8643TIP3    H147420   0.960   1.676   5.425  0.9020  0.4445 -1.2108
 8643TIP3    H247421   0.836   1.658   5.340  0.2163 -0.4211 -0.0588
 8644TIP3   OH247422   4.332   2.559  11.643 -0.9238  0.2300  0.0949
 8644TIP3    H147423   4.339   2.571  11.548  2.2799  2.0021  0.4182
 8644TIP3    H247424   4.249   2.513  11.655 -0.1433 -2.7079 -3.7682
 8645TIP3   OH247425   3.108   1.119  11.322  0.4147  0.1387 -0.0303
 8645TIP3    H147426   3.112   1.132  11.417  0.5463  0.6915 -0.1079
 8645TIP3    H247427   3.145   1.200  11.285 -1.9821  1.0507 -0.5981
 8646TIP3   OH247428   0.041   4.845   6.476  0.5337 -0.3024 -0.2981
 8646TIP3    H147429   0.043   4.753   6.450 -0.3266 -0.3213 -0.3226
 8646TIP3    H247430  -0.010   4.889   6.408 -0.3204 -0.0734  0.4707
 8647TIP3   OH247431   5.337   4.156  14.358 -0.0877 -0.1157 -0.3402
 8647TIP3    H147432   5.359   4.240  14.317 -0.9009  0.4514  0.3491
 8647TIP3    H247433   5.261   4.125  14.308 -1.0388  0.5447  0.6425
 8648TIP3   OH247434   2.717   1.832   1.143 -0.3607  0.2199  0.9902
 8648TIP3    H147435   2.744   1.919   1.113  0.5863  0.7744  3.2101
 8648TIP3    H247436   2.768   1.818   1.223  0.3803 -2.8868  0.1100
 8649TIP3   OH247437   5.327   1.384   2.877 -0.1742  0.1839 -0.0628
 8649TIP3    H147438   5.397   1.420   2.932  1.3706  0.7982 -2.2585
 8649TIP3    H247439   5.290   1.461   2.833 -1.2139 -0.3026 -0.0590
 8650TIP3   OH247440   6.160   2.485   3.043  0.2027  0.5563 -0.0413
 8650TIP3    H147441   6.107   2.557   3.011  0.5316  0.9277  0.2416
 8650TIP3    H247442   6.118   2.406   3.007 -0.3017  0.8682 -0.1431
 8651TIP3   OH247443   4.873   2.787  13.906  0.4230 -0.0745  0.3259
 8651TIP3    H147444   4.915   2.718  13.854  1.7938 -0.1063  1.4195
 8651TIP3    H247445   4.868   2.862  13.846 -0.3174 -0.8478 -0.6117
 8652TIP3   OH247446   6.182   1.741   0.590  0.1641  0.0098  0.6006
 8652TIP3    H147447   6.123   1.668   0.606  1.0140 -0.6914  0.6083
 8652TIP3    H247448   6.266   1.713   0.626  0.2687  1.4018  1.5292
 8653TIP3   OH247449   0.767   5.848   0.505 -0.5960  0.2642  0.0532
 8653TIP3    H147450   0.775   5.802   0.421 -0.2949  2.1783 -1.0372
 8653TIP3    H247451   0.680   5.887   0.503 -0.4474  0.6238  0.4666
 8654TIP3   OH247452   4.269   3.752  13.551  0.1625 -0.6099 -0.2604
 8654TIP3    H147453   4.203   3.689  13.580 -1.0654  1.6516  2.2110
 8654TIP3    H247454   4.343   3.738  13.609  0.2692 -0.4252 -0.3508
 8655TIP3   OH247455   0.859   3.433  17.203  0.4838 -0.4184  0.2501
 8655TIP3    H147456   0.943   3.472  17.227  0.6940 -1.5896  1.5494
 8655TIP3    H247457   0.803   3.449  17.278  0.5203 -2.3832  0.7455
 8656TIP3   OH247458   4.076   2.584  12.263  0.4953  0.3471 -0.1701
 8656TIP3    H147459   3.996   2.584  12.316  0.9414 -1.3742  0.5686
 8656TIP3    H247460   4.140   2.538  12.316  1.5237  0.2546 -1.4399
 8657TIP3   OH247461   2.608   1.091  16.552  0.5942 -0.2258 -0.4712
 8657TIP3    H147462   2.644   1.037  16.482  2.3026  1.9341 -1.3690
 8657TIP3    H247463   2.613   1.181  16.519 -1.5078  0.5952  1.1995
 8658TIP3   OH247464   3.566   3.481  11.992  0.1086  0.0690  0.1048
 8658TIP3    H147465   3.534   3.570  12.008  2.3001  0.9587 -0.1298
 8658TIP3    H247466   3.591   3.480  11.900 -1.0952 -1.2252 -0.2335
 8659TIP3   OH247467   5.306   6.543  11.799 -0.5683  0.3491  0.2834
 8659TIP3    H147468   5.362   6.496  11.861  0.4196  2.3507  0.9877
 8659TIP3    H247469   5.328   6.635  11.812 -1.4429  0.9449 -1.9805
 8660TIP3   OH247470   1.501   3.932  14.228 -0.5053  0.1148 -0.1480
 8660TIP3    H147471   1.584   3.981  14.228 -1.2519  1.4618 -1.1391
 8660TIP3    H247472   1.437   3.996  14.259 -1.2018 -0.8958  0.5374
 8661TIP3   OH247473   0.302   2.631  10.711  0.3258 -0.1440  0.6217
 8661TIP3    H147474   0.374   2.577  10.680  1.2764  2.1933 -1.6320
 8661TIP3    H247475   0.234   2.621  10.644 -1.0708 -1.4322  2.1407
 8662TIP3   OH247476   1.984   6.179  13.513  0.6741 -0.2861 -0.6153
 8662TIP3    H147477   1.924   6.113  13.548  1.4394 -0.6029  0.1017
 8662TIP3    H247478   2.055   6.129  13.474  1.5504  0.1077  0.4426
 8663TIP3   OH247479   6.418   1.513   2.247 -0.2545 -0.9943  0.6687
 8663TIP3    H147480   6.373   1.571   2.309  1.0163 -0.7134  1.3587
 8663TIP3    H247481   6.403   1.554   2.162  1.0383  0.6842  1.1944
 8664TIP3   OH247482   0.537   0.963   5.310  0.3172  0.4782 -0.5567
 8664TIP3    H147483   0.604   1.022   5.346  0.2343 -0.2475  0.8731
 8664TIP3    H247484   0.458   0.986   5.359  0.1545 -0.4360 -0.3799
 8665TIP3   OH247485   1.436   2.826  12.013  0.0104  0.5251 -0.3757
 8665TIP3    H147486   1.359   2.775  11.989  0.1395 -0.3019  0.8355
 8665TIP3    H247487   1.439   2.821  12.109  2.4359 -0.8500 -0.4375
 8666TIP3   OH247488   6.333   0.066   4.595 -0.8031  0.3297 -0.1619
 8666TIP3    H147489   6.245   0.092   4.625  0.3576  2.8520  1.3962
 8666TIP3    H247490   6.392   0.104   4.660  1.4633 -1.9021 -0.7656
 8667TIP3   OH247491   4.345   0.794   1.819 -0.1737  0.0578 -0.1020
 8667TIP3    H147492   4.330   0.728   1.887 -0.6688  0.8051  0.5390
 8667TIP3    H247493   4.319   0.752   1.737 -1.4675 -0.2044  0.4246
 8668TIP3   OH247494   3.020   2.960   4.882 -0.0942 -0.1738 -0.0739
 8668TIP3    H147495   3.053   2.940   4.970 -0.7925 -0.3235  0.1636
 8668TIP3    H247496   3.058   2.892   4.826  0.6813  0.1626  0.0341
 8669TIP3   OH247497   3.699   2.512  15.087 -0.3775  0.1753 -0.4755
 8669TIP3    H147498   3.689   2.542  15.178 -1.0241 -1.2147 -0.0614
 8669TIP3    H247499   3.765   2.442  15.092 -0.5936 -0.0741 -1.0323
 8670TIP3   OH247500   4.397   2.371   0.897 -0.0774 -0.1040 -0.0547
 8670TIP3    H147501   4.435   2.438   0.841 -1.9004 -1.2538 -2.9121
 8670TIP3    H247502   4.318   2.412   0.933  1.9326  1.2176  3.3337
 8671TIP3   OH247503   5.874   3.075   2.266 -0.0555  0.0148  0.0625
 8671TIP3    H147504   5.933   3.117   2.202  0.0562  0.7676  0.6522
 8671TIP3    H247505   5.875   2.983   2.241 -0.7956  0.4311 -1.6589
 8672TIP3   OH247506   0.702   1.969   6.643 -0.1401 -0.2599  0.3586
 8672TIP3    H147507   0.628   2.026   6.666  0.1545  0.3792 -0.2435
 8672TIP3    H247508   0.669   1.914   6.572  0.7634  1.9887 -1.9569
 8673TIP3   OH247509   5.582   0.593  12.391 -0.2068 -0.1374  0.5688
 8673TIP3    H147510   5.517   0.525  12.405  0.0799 -0.6982 -0.6872
 8673TIP3    H247511   5.536   0.675  12.411 -1.2661 -0.5349 -0.1455
 8674TIP3   OH247512   6.122   5.810  12.937 -0.1609  0.5506  0.0842
 8674TIP3    H147513   6.205   5.767  12.918 -0.8228 -0.8331  0.2340
 8674TIP3    H247514   6.056   5.761  12.888 -1.1122  0.5875  1.2522
 8675TIP3   OH247515   1.558   0.171   2.231 -0.1773 -0.3231 -0.2597
 8675TIP3    H147516   1.559   0.078   2.210 -1.6117 -0.2283 -0.8302
 8675TIP3    H247517   1.482   0.206   2.184 -0.1200  0.9862  0.5675
 8676TIP3   OH247518   1.002   6.103   6.531  0.0293  0.0391 -0.5051
 8676TIP3    H147519   0.995   6.009   6.549  0.8270 -0.1168 -0.9790
 8676TIP3    H247520   1.001   6.109   6.436 -0.6843  0.5766 -0.4730
 8677TIP3   OH247521   5.400   4.393  15.243 -0.1787  0.1558 -0.1292
 8677TIP3    H147522   5.325   4.422  15.190 -0.2932  0.2845  0.1012
 8677TIP3    H247523   5.395   4.297  15.241 -0.8474  0.1645  0.5808
 8678TIP3   OH247524   1.004   1.987  10.435  0.2105 -0.6823  0.1446
 8678TIP3    H147525   1.085   2.037  10.431 -0.1703 -0.1310 -1.8853
 8678TIP3    H247526   0.978   1.975  10.343 -0.7829 -2.8590  0.6315
 8679TIP3   OH247527   3.502   6.688   2.764  0.6645  0.0411  0.6037
 8679TIP3    H147528   3.474   6.762   2.710  1.7628  1.5548  2.0049
 8679TIP3    H247529   3.454   6.699   2.846  1.3801 -0.3650  1.0829
 8680TIP3   OH247530   4.537   5.173   5.251 -0.3496 -0.6022  0.1252
 8680TIP3    H147531   4.507   5.190   5.162  1.0943 -1.0518 -0.4818
 8680TIP3    H247532   4.591   5.095   5.243  0.3798 -0.2346  1.2730
 8681TIP3   OH247533   1.965   0.581   4.594  0.2436 -0.1889 -0.1855
 8681TIP3    H147534   1.919   0.581   4.678 -0.0086  1.4316 -0.2816
 8681TIP3    H247535   1.964   0.490   4.566 -1.9441 -0.3759  0.3428
 8682TIP3   OH247536   3.601   5.133   5.706 -0.4447  0.0458 -0.0988
 8682TIP3    H147537   3.670   5.154   5.643 -1.0656  1.2320 -0.4108
 8682TIP3    H247538   3.643   5.143   5.791 -0.1442  0.4724 -0.2916
 8683TIP3   OH247539   1.862   6.032  14.003  0.2057  0.2737 -0.6615
 8683TIP3    H147540   1.796   6.081  14.051 -1.1629 -1.2165 -0.9396
 8683TIP3    H247541   1.946   6.064  14.037 -0.6478  1.9174 -0.0144
 8684TIP3   OH247542   6.729   3.062  11.957  0.2757  0.2455  0.5959
 8684TIP3    H147543   6.816   3.025  11.941  0.6978  1.6317 -0.4612
 8684TIP3    H247544   6.734   3.100  12.045  1.1983  1.5061  0.0284
 8685TIP3   OH247545   6.804   5.065   3.734  0.1232 -0.8076  0.0560
 8685TIP3    H147546   6.739   5.008   3.692 -0.7630  0.6627 -0.6734
 8685TIP3    H247547   6.870   5.080   3.666 -1.3988  1.7108 -1.0351
 8686TIP3   OH247548   1.047   3.368   4.765  0.6812 -0.5350  0.2502
 8686TIP3    H147549   1.006   3.306   4.705  0.2518 -0.7265  0.7397
 8686TIP3    H247550   1.108   3.315   4.817 -0.2931 -0.7215  1.2432
 8687TIP3   OH247551   0.028   1.523   4.522 -0.4499 -0.8265  0.7639
 8687TIP3    H147552   0.102   1.469   4.497 -1.6941 -2.2746  0.0347
 8687TIP3    H247553  -0.049   1.472   4.496 -1.7188  1.5878 -0.6019
 8688TIP3   OH247554   5.715   5.066   1.556  0.3455  0.1848  0.4708
 8688TIP3    H147555   5.650   5.000   1.533  0.5310 -0.0311  0.5720
 8688TIP3    H247556   5.783   5.057   1.489  1.5731 -1.3789  1.8674
 8689TIP3   OH247557   4.334   2.542  12.437 -0.4205 -0.7853  0.1374
 8689TIP3    H147558   4.326   2.451  12.465  1.1895 -1.1154 -0.3753
 8689TIP3    H247559   4.333   2.593  12.518 -0.6435 -1.3169  0.4690
 8690TIP3   OH247560   6.126   0.065   2.454 -0.4178  0.0543  0.5591
 8690TIP3    H147561   6.175   0.146   2.468 -0.5544  0.0172  1.3276
 8690TIP3    H247562   6.053   0.089   2.398  0.1661  0.2278 -0.1307
 8691TIP3   OH247563   5.284   0.844  16.779  0.3488 -0.4932  0.1605
 8691TIP3    H147564   5.227   0.818  16.706 -1.2232  0.4522  0.9911
 8691TIP3    H247565   5.371   0.851  16.739 -0.2800 -0.9708 -1.4024
 8692TIP3   OH247566   3.058   0.675  12.197 -0.2946  0.7388  0.2515
 8692TIP3    H147567   3.097   0.604  12.247  1.5041  1.1375 -0.5030
 8692TIP3    H247568   2.983   0.634  12.153 -0.5442 -0.1549  1.4466
 8693TIP3   OH247569   3.280   2.237   5.260 -0.1952  0.1889  0.0360
 8693TIP3    H147570   3.258   2.263   5.350  0.9844 -1.1092  0.7365
 8693TIP3    H247571   3.362   2.282   5.242  0.3705 -0.7473  0.2028
 8694TIP3   OH247572   6.245   4.113  15.025  0.7857  0.0604 -0.3214
 8694TIP3    H147573   6.260   4.196  14.979 -1.3181  0.7748  0.1784
 8694TIP3    H247574   6.216   4.140  15.112 -1.9686 -1.0930 -0.7823
 8695TIP3   OH247575   2.832   2.922   4.372 -0.1631 -0.0243 -0.1198
 8695TIP3    H147576   2.746   2.938   4.412 -1.0373  0.6855 -2.1725
 8695TIP3    H247577   2.840   2.826   4.369 -0.6887 -0.0927  0.4432
 8696TIP3   OH247578   1.664   5.408  17.098  0.9080 -0.6531 -0.1524
 8696TIP3    H147579   1.720   5.484  17.085  1.9102 -1.4333 -0.5907
 8696TIP3    H247580   1.577   5.444  17.116  0.5352  0.6454 -3.7058
 8697TIP3   OH247581   1.887   1.485  16.321  0.4644 -0.1463  0.1502
 8697TIP3    H147582   1.968   1.461  16.364  1.0750 -1.5050 -1.6563
 8697TIP3    H247583   1.867   1.572  16.356  0.9240 -1.0845  3.0436
 8698TIP3   OH247584   3.012   2.333  15.969  0.1629  0.1940  0.7137
 8698TIP3    H147585   2.956   2.263  16.003  0.0203 -0.3958 -0.6675
 8698TIP3    H247586   3.060   2.292  15.897  0.9940  1.2005  0.6794
 8699TIP3   OH247587   1.768   1.362  11.114 -0.5320  0.1923 -0.1861
 8699TIP3    H147588   1.689   1.373  11.060 -1.1765  1.5269  0.9422
 8699TIP3    H247589   1.768   1.439  11.171  2.4244  1.0258 -1.1666
 8700TIP3   OH247590   3.976   3.335   0.879  0.0779 -0.2001 -0.1624
 8700TIP3    H147591   4.053   3.379   0.844 -0.0834  0.5830  0.4553
 8700TIP3    H247592   3.975   3.250   0.835  0.3331  0.4438 -1.4388
 8701TIP3   OH247593   5.128   4.377  10.830 -0.2139 -0.1153  0.0284
 8701TIP3    H147594   5.127   4.282  10.817 -0.6430 -0.2852  1.1310
 8701TIP3    H247595   5.042   4.407  10.799 -0.2590 -0.1548  0.1154
 8702TIP3   OH247596   0.562   0.941  15.086  0.1393  0.0650  0.0015
 8702TIP3    H147597   0.637   0.982  15.042  0.8139 -0.2525  0.8319
 8702TIP3    H247598   0.486   0.991  15.054  0.6644  0.2433 -1.0287
 8703TIP3   OH247599   1.186   5.392   3.312 -0.1917 -0.0943  0.0736
 8703TIP3    H147600   1.172   5.298   3.304 -0.5312  0.0236 -0.9361
 8703TIP3    H247601   1.251   5.412   3.244 -0.0318  0.3817  0.3626
 8704TIP3   OH247602   5.276   6.227  13.924  0.0528 -0.7347 -0.5686
 8704TIP3    H147603   5.190   6.207  13.962 -0.2055 -1.4358 -1.4698
 8704TIP3    H247604   5.279   6.322  13.919 -0.3903 -0.6789  0.0922
 8705TIP3   OH247605   4.791   5.297   0.663  0.0297 -0.1553 -0.1066
 8705TIP3    H147606   4.814   5.275   0.572 -1.1089 -1.4136 -0.1275
 8705TIP3    H247607   4.700   5.326   0.658  0.4649  1.3973  0.4308
 8706TIP3   OH247608   1.484   0.632  11.373  0.1679 -0.2020  0.4649
 8706TIP3    H147609   1.492   0.552  11.322  0.3424  0.4791 -0.5960
 8706TIP3    H247610   1.433   0.692  11.319 -0.2100  0.3187  1.3616
 8707TIP3   OH247611   5.621   6.570  12.266  0.3829 -0.0889 -0.8576
 8707TIP3    H147612   5.678   6.625  12.212 -0.3930  1.2040 -0.4032
 8707TIP3    H247613   5.537   6.570  12.219  0.3920 -0.9718 -0.8942
 8708TIP3   OH247614   3.572   5.525  15.719 -0.1522  0.5483  0.2733
 8708TIP3    H147615   3.585   5.447  15.772  1.9862  1.4357  1.1542
 8708TIP3    H247616   3.569   5.492  15.629  2.1463 -0.4885  0.4933
 8709TIP3   OH247617   1.847   3.980   0.335 -0.6632 -0.2269 -0.3550
 8709TIP3    H147618   1.827   3.935   0.253  0.7058  0.3452 -1.0350
 8709TIP3    H247619   1.778   4.046   0.344 -0.0382  0.6795 -1.8312
 8710TIP3   OH247620   5.453   0.417   4.353 -0.1657 -0.0342  0.1850
 8710TIP3    H147621   5.503   0.383   4.279 -0.3300 -0.6643  0.3551
 8710TIP3    H247622   5.398   0.485   4.314  1.3903  1.2512  0.1436
 8711TIP3   OH247623   3.681   4.265  14.902  0.3805  0.2567  0.3808
 8711TIP3    H147624   3.726   4.343  14.933  0.9410  0.1766 -0.2039
 8711TIP3    H247625   3.665   4.213  14.980 -0.8062  1.3588  0.9024
 8712TIP3   OH247626   5.425   0.450   2.083  0.9006  0.4558  0.0376
 8712TIP3    H147627   5.330   0.463   2.079  0.5873 -1.8267 -2.6378
 8712TIP3    H247628   5.462   0.525   2.037  0.1530 -0.1553 -1.6191
 8713TIP3   OH247629   3.024   4.422   5.784  0.2151  0.4762  0.1151
 8713TIP3    H147630   3.052   4.430   5.875  0.9097  1.0655 -0.1390
 8713TIP3    H247631   2.930   4.408   5.789 -0.2098  2.9724  0.8782
 8714TIP3   OH247632   5.810   6.435   0.961 -0.2505  0.1417  0.5424
 8714TIP3    H147633   5.825   6.527   0.940  0.4636  0.0598  0.6764
 8714TIP3    H247634   5.836   6.427   1.052  0.5249 -0.3729  0.2874
 8715TIP3   OH247635   1.486   3.864   1.506 -0.2850 -0.0009 -0.4725
 8715TIP3    H147636   1.558   3.897   1.452  1.3337 -1.7465  0.4635
 8715TIP3    H247637   1.420   3.835   1.443  0.3154  0.5931 -1.4000
 8716TIP3   OH247638   1.277   3.553   1.798  0.4014 -0.0279 -0.0618
 8716TIP3    H147639   1.268   3.501   1.878 -0.0466  0.7028  0.3729
 8716TIP3    H247640   1.296   3.642   1.829  0.4853  0.2129 -0.7750
 8717TIP3   OH247641   6.094   5.062  11.199 -0.6540  0.0829  0.3905
 8717TIP3    H147642   6.113   5.063  11.105 -1.2670 -1.2326  0.2279
 8717TIP3    H247643   6.145   5.134  11.235  1.1451 -0.6100 -0.6565
 8718TIP3   OH247644   0.903   1.515   2.891  0.4804 -0.3961 -0.5634
 8718TIP3    H147645   0.944   1.565   2.962  0.3438  0.6046 -1.1715
 8718TIP3    H247646   0.954   1.434   2.886 -0.7910 -1.4637  2.0605
 8719TIP3   OH247647   4.769   6.721  15.557 -0.3492  0.2364  0.0020
 8719TIP3    H147648   4.720   6.802  15.541 -1.9174 -0.7904 -0.5568
 8719TIP3    H247649   4.717   6.653  15.515 -0.0953 -1.3552  2.1209
 8720TIP3   OH247650   2.350   3.743  14.587 -0.1895 -0.3679 -0.3505
 8720TIP3    H147651   2.369   3.738  14.680  0.4756  1.1879 -0.3763
 8720TIP3    H247652   2.258   3.771  14.583  0.0950  0.6501 -0.1264
 8721TIP3   OH247653   5.963   1.990  11.526  0.0125 -0.6650  0.3346
 8721TIP3    H147654   6.052   2.015  11.549  0.3192 -0.3547 -1.1008
 8721TIP3    H247655   5.907   2.037  11.588  0.8284 -0.7531  1.1484
 8722TIP3   OH247656   4.731   1.152  10.642  0.2297  0.0808 -0.4653
 8722TIP3    H147657   4.643   1.154  10.604 -0.0609  1.0972  0.2057
 8722TIP3    H247658   4.753   1.244  10.657  0.8268 -0.2205  0.6573
 8723TIP3   OH247659   4.482   0.260   0.419 -0.1523  0.0077 -0.6361
 8723TIP3    H147660   4.453   0.326   0.482 -1.4264  0.4621 -1.6509
 8723TIP3    H247661   4.541   0.204   0.469 -0.2154  1.0320  0.6471
 8724TIP3   OH247662   0.542   0.699   5.848  0.3374  0.9716 -0.7580
 8724TIP3    H147663   0.538   0.751   5.767  0.0795  0.5941 -0.9893
 8724TIP3    H247664   0.585   0.618   5.821  1.6064  1.4270 -0.1991
 8725TIP3   OH247665   1.398   0.749  14.504  0.2052  0.1887  0.2479
 8725TIP3    H147666   1.329   0.708  14.557 -0.5457  1.1621  0.0492
 8725TIP3    H247667   1.393   0.842  14.526  0.1191  0.5605 -1.2513
 8726TIP3   OH247668   2.263   6.320  12.314 -0.2868  0.4852 -0.5162
 8726TIP3    H147669   2.287   6.230  12.293  1.1532  0.9120 -0.8114
 8726TIP3    H247670   2.242   6.318  12.408  0.9998  0.0858 -0.2191
 8727TIP3   OH247671   0.546   5.488   0.934  0.3480  0.3622 -0.6878
 8727TIP3    H147672   0.608   5.523   0.870 -0.3038 -0.1582 -1.6263
 8727TIP3    H247673   0.530   5.398   0.905 -0.2507  0.2331  0.0034
 8728TIP3   OH247674   6.152   6.685   5.375  0.2578  0.1773 -0.3297
 8728TIP3    H147675   6.187   6.613   5.323 -0.0591 -0.1939 -0.0285
 8728TIP3    H247676   6.161   6.656   5.466 -0.9298  0.0340 -0.2488
 8729TIP3   OH247677   0.402   1.962  16.638 -0.4174  0.0722 -0.1560
 8729TIP3    H147678   0.423   2.049  16.672 -0.0111 -0.4622  1.0238
 8729TIP3    H247679   0.484   1.931  16.600 -0.0706 -0.4749  0.9945
 8730TIP3   OH247680   5.149   3.045  13.644  0.5055 -0.2217  0.4993
 8730TIP3    H147681   5.073   3.060  13.700  2.2858  1.0744  2.7511
 8730TIP3    H247682   5.206   3.119  13.661  2.8522 -1.7862 -0.0957
 8731TIP3   OH247683   0.511   6.757   0.386 -0.2862  0.5616 -0.7261
 8731TIP3    H147684   0.544   6.678   0.343 -0.2560  0.8530 -1.2540
 8731TIP3    H247685   0.429   6.730   0.428 -0.4009  0.3055 -1.1120
 8732TIP3   OH247686   6.447   0.091  15.049  0.0231  0.2466  0.2158
 8732TIP3    H147687   6.460   0.085  14.954  0.4635 -0.0685  0.2949
 8732TIP3    H247688   6.480   0.178  15.072  0.7234 -0.0116  0.2066
 8733TIP3   OH247689   1.563   6.556   3.904  0.3738  0.7103 -0.3736
 8733TIP3    H147690   1.634   6.560   3.840 -0.1301  0.5728 -0.9520
 8733TIP3    H247691   1.587   6.619   3.971  1.2075  0.4210 -0.3904
 8734TIP3   OH247692   0.836   1.324   1.561  0.0478 -0.2324 -0.4166
 8734TIP3    H147693   0.891   1.402   1.555 -0.2576  0.0665  0.5072
 8734TIP3    H247694   0.883   1.266   1.622  0.7094 -1.1592 -1.7454
 8735TIP3   OH247695   1.665   6.649  12.075 -0.0708 -0.2214  0.7606
 8735TIP3    H147696   1.599   6.629  12.008  0.0193 -0.8467  0.8452
 8735TIP3    H247697   1.707   6.730  12.045  0.4236 -0.8359 -0.2963
 8736TIP3   OH247698   0.740   0.028  13.648  0.1637  0.2276 -0.0847
 8736TIP3    H147699   0.830   0.002  13.629 -0.2474 -1.1798 -0.2268
 8736TIP3    H247700   0.722  -0.007  13.735 -0.0356  1.1037  0.2376
 8737TIP3   OH247701   3.597   6.223   1.243  0.2698 -0.2356  0.5182
 8737TIP3    H147702   3.682   6.255   1.215 -0.0782  0.0909 -0.1868
 8737TIP3    H247703   3.570   6.284   1.312  0.0528  0.4137 -0.1281
 8738TIP3   OH247704   0.111   4.786   5.745 -0.2527  0.2555  0.3570
 8738TIP3    H147705   0.076   4.699   5.724 -0.7688  0.7083 -0.7030
 8738TIP3    H247706   0.122   4.785   5.840  1.1073 -1.4841  0.2310
 8739TIP3   OH247707   3.707   5.794  15.012  0.1541 -0.2775 -0.0909
 8739TIP3    H147708   3.798   5.819  15.032  0.5700 -1.0234 -0.9629
 8739TIP3    H247709   3.669   5.873  14.974  0.9109 -0.4046 -1.1571
 8740TIP3   OH247710   1.706   2.977   2.143 -0.0638 -0.5422  0.3333
 8740TIP3    H147711   1.696   3.059   2.095 -0.0936 -0.0222  1.2094
 8740TIP3    H247712   1.686   2.909   2.079  0.0507  0.1283 -0.4263
 8741TIP3   OH247713   3.863   3.603  17.010  0.2531 -0.7936 -0.4773
 8741TIP3    H147714   3.785   3.654  16.990 -0.6634 -0.9338  2.3323
 8741TIP3    H247715   3.831   3.523  17.052  1.8008  0.1419  2.8854
 8742TIP3   OH247716   0.072   3.272  12.059 -0.1455 -0.2853  0.3585
 8742TIP3    H147717   0.145   3.211  12.072  0.3035  0.0507 -0.4916
 8742TIP3    H247718   0.028   3.274  12.144  0.6388 -0.7494  0.7985
 8743TIP3   OH247719   2.103   6.141   6.280  0.1161 -0.7151  1.1340
 8743TIP3    H147720   2.139   6.067   6.231 -1.2935 -0.8809  0.2802
 8743TIP3    H247721   2.121   6.120   6.372  0.1178 -1.9114  0.8810
 8744TIP3   OH247722   6.812   2.588   0.593  0.6970  0.0307 -0.4802
 8744TIP3    H147723   6.893   2.611   0.640  0.8216 -0.1754 -0.5902
 8744TIP3    H247724   6.782   2.507   0.635  0.3522  0.2999 -0.2040
 8745TIP3   OH247725   1.707   6.076   1.391  0.0066  0.2808 -0.0770
 8745TIP3    H147726   1.735   6.078   1.482 -0.8368 -1.4753  0.2562
 8745TIP3    H247727   1.775   6.124   1.344 -0.8393  3.5183  1.7422
 8746TIP3   OH247728   6.707   0.869  12.765 -0.5025 -0.2426 -0.1676
 8746TIP3    H147729   6.616   0.843  12.780 -0.8905  1.2244  0.2181
 8746TIP3    H247730   6.727   0.835  12.677 -1.4318 -0.5612 -0.2688
 8747TIP3   OH247731   2.464   5.582   0.404 -0.3334  0.1689 -0.3138
 8747TIP3    H147732   2.471   5.524   0.327  0.4430  1.0502 -0.9273
 8747TIP3    H247733   2.427   5.526   0.472  0.4885 -1.0945 -0.8605
 8748TIP3   OH247734   3.877   6.282   3.377 -0.3355 -0.3053 -0.6293
 8748TIP3    H147735   3.855   6.362   3.425 -0.5045 -1.0960  0.6438
 8748TIP3    H247736   3.842   6.211   3.431  0.1241 -1.2616 -1.5623
 8749TIP3   OH247737   5.663   6.074   4.700 -0.2088 -0.0071 -0.0865
 8749TIP3    H147738   5.750   6.111   4.716  0.2130 -1.2305  0.4969
 8749TIP3    H247739   5.607   6.151   4.684  0.4746  0.9432  1.8579
 8750TIP3   OH247740   1.138   6.416  11.174  0.0254 -0.1797 -0.5785
 8750TIP3    H147741   1.098   6.501  11.159 -0.0147 -0.1112 -0.0771
 8750TIP3    H247742   1.091   6.379  11.249  1.0706  0.0298  0.2046
 8751TIP3   OH247743   6.181   6.663   0.963 -0.0210 -0.1121 -0.4399
 8751TIP3    H147744   6.143   6.739   1.009  1.4497  0.4871 -0.1455
 8751TIP3    H247745   6.149   6.670   0.874 -0.5893  0.3760 -0.2038
 8752TIP3   OH247746   5.670   1.914  11.583 -0.2223 -0.3669 -0.5704
 8752TIP3    H147747   5.626   1.918  11.498 -1.0533  0.8433 -0.0971
 8752TIP3    H247748   5.699   2.003  11.600  0.5600 -0.7327  0.1128
 8753TIP3   OH247749   2.915   3.331   3.251 -0.2588 -0.2792  0.0161
 8753TIP3    H147750   2.966   3.375   3.182  1.3512 -0.2337  1.1748
 8753TIP3    H247751   2.968   3.255   3.274 -2.3449 -2.1434 -0.9932
 8754TIP3   OH247752   6.216   1.831   1.423 -0.3803 -0.5845  0.7396
 8754TIP3    H147753   6.278   1.834   1.350 -0.6031 -1.4900  0.4965
 8754TIP3    H247754   6.267   1.854   1.500 -0.0821  0.1352  0.3347
 8755TIP3   OH247755   0.634   3.666   0.670  0.0309 -0.2950 -0.4214
 8755TIP3    H147756   0.690   3.634   0.740 -2.0568 -0.7353  1.1684
 8755TIP3    H247757   0.629   3.593   0.607  0.9158 -0.3697 -0.4174
 8756TIP3   OH247758   1.409   1.617   2.721  0.2276  0.2574 -0.5153
 8756TIP3    H147759   1.364   1.667   2.653  0.7735  1.2925 -0.1280
 8756TIP3    H247760   1.493   1.594   2.681  1.4160  2.6049  0.4448
 8757TIP3   OH247761   0.303   3.090  16.825 -0.4864  0.2328 -1.1468
 8757TIP3    H147762   0.342   3.177  16.836 -1.4704  0.8554 -2.3285
 8757TIP3    H247763   0.233   3.086  16.890  0.9665 -0.5769  0.4307
 8758TIP3   OH247764   0.804   1.897  10.901  1.1418 -0.0156  0.0774
 8758TIP3    H147765   0.870   1.866  10.839  1.6202 -0.4072  0.7667
 8758TIP3    H247766   0.743   1.948  10.848  0.4103 -1.9890 -1.1025
 8759TIP3   OH247767   3.103   4.093  16.723 -0.0606 -0.1577  0.0033
 8759TIP3    H147768   3.015   4.061  16.742 -0.1237  0.8035  1.5059
 8759TIP3    H247769   3.121   4.062  16.634 -1.4700 -1.2977  0.0714
 8760TIP3   OH247770   3.879   5.931   0.573  0.2679  0.1740 -0.5780
 8760TIP3    H147771   3.835   5.860   0.618  0.2343  1.1824  1.0378
 8760TIP3    H247772   3.911   5.989   0.642 -0.0352  1.9469 -1.8326
 8761TIP3   OH247773   0.949   2.361   1.481  0.0813  0.1392 -0.0794
 8761TIP3    H147774   0.999   2.281   1.498 -1.4188 -1.0077 -0.8142
 8761TIP3    H247775   0.999   2.430   1.524  0.8439 -1.3515  1.5544
 8762TIP3   OH247776   3.470   0.416   5.667 -0.0592 -0.1446 -0.2614
 8762TIP3    H147777   3.422   0.392   5.587  0.4331 -1.9110 -0.0620
 8762TIP3    H247778   3.407   0.403   5.738 -0.3335  0.9227 -0.2892
 8763TIP3   OH247779   5.863   1.437  15.510  0.8026  0.1986 -0.3706
 8763TIP3    H147780   5.953   1.469  15.511  0.7124  0.4962 -1.0261
 8763TIP3    H247781   5.809   1.516  15.512  0.5485  0.0145  0.2908
 8764TIP3   OH247782   3.654   6.468  11.320  0.8354  0.0779 -0.2013
 8764TIP3    H147783   3.689   6.435  11.403  2.7286  0.0714 -0.9604
 8764TIP3    H247784   3.659   6.563  11.329 -1.6903  0.2302  0.7506
 8765TIP3   OH247785   2.926   1.449   0.907 -0.3709 -0.3519  0.2431
 8765TIP3    H147786   2.893   1.535   0.936 -0.6514 -0.4595  0.2475
 8765TIP3    H247787   2.911   1.449   0.812 -1.7383 -0.9692  0.4272
 8766TIP3   OH247788   3.362   0.030   1.781  0.0992  0.7381  0.0119
 8766TIP3    H147789   3.371  -0.038   1.848 -0.3089  2.1711  1.6008
 8766TIP3    H247790   3.268   0.031   1.761  0.4958 -1.2234 -2.3471
 8767TIP3   OH247791   5.302   5.949  15.886  0.2164  0.8848 -0.1326
 8767TIP3    H147792   5.314   5.945  15.791 -2.1279  2.9331 -0.6186
 8767TIP3    H247793   5.289   6.042  15.905 -1.7554  0.3180  1.8091
 8768TIP3   OH247794   3.630   4.635  11.167 -0.2363  0.0653  0.0393
 8768TIP3    H147795   3.615   4.664  11.257  1.4091  0.6254  0.1697
 8768TIP3    H247796   3.694   4.564  11.175 -0.6674 -0.4068 -0.6329
 8769TIP3   OH247797   5.767   0.739   5.930 -0.8901 -0.0791  0.1293
 8769TIP3    H147798   5.779   0.708   6.020  1.2661  0.5500  0.1313
 8769TIP3    H247799   5.775   0.834   5.937  1.0392 -0.1100 -0.8772
 8770TIP3   OH247800   4.458   4.791   5.776 -0.5783  0.3370  0.3132
 8770TIP3    H147801   4.453   4.734   5.699  1.7717 -0.9425  1.0007
 8770TIP3    H247802   4.510   4.866   5.747  2.1924 -1.1608  1.0998
 8771TIP3   OH247803   1.474   6.184   2.839 -0.5733  0.3009 -0.8580
 8771TIP3    H147804   1.549   6.150   2.790  1.7918  0.5701  2.2234
 8771TIP3    H247805   1.501   6.271   2.868 -1.8278  0.2092  0.7713
 8772TIP3   OH247806   5.332   3.843  16.649 -0.1877  0.3259 -0.3246
 8772TIP3    H147807   5.337   3.747  16.640  1.2104  0.3900 -0.4472
 8772TIP3    H247808   5.247   3.866  16.612 -1.4410 -1.0522  1.5170
 8773TIP3   OH247809   3.492   0.278  13.595  0.1002 -0.9404  0.3334
 8773TIP3    H147810   3.477   0.360  13.548 -1.3526 -1.2905  0.1304
 8773TIP3    H247811   3.526   0.305  13.680 -2.6038  0.0757  1.1982
 8774TIP3   OH247812   0.627   4.346   2.843  0.1258 -0.1198  0.0136
 8774TIP3    H147813   0.669   4.279   2.789 -0.1201 -0.1163 -0.1850
 8774TIP3    H247814   0.644   4.318   2.933  1.3652  0.3929 -0.0523
 8775TIP3   OH247815   5.840   2.180  14.083  0.4036  0.1180  0.2251
 8775TIP3    H147816   5.752   2.170  14.046  0.7505 -0.6511 -0.4306
 8775TIP3    H247817   5.827   2.174  14.177 -0.3992  1.2969  0.2127
 8776TIP3   OH247818   6.565   1.253  10.999 -0.2710 -0.4466  0.6363
 8776TIP3    H147819   6.479   1.221  10.973 -0.1454  1.2227 -2.3674
 8776TIP3    H247820   6.626   1.186  10.968 -0.3983 -1.7878  3.0536
 8777TIP3   OH247821   1.455   0.956   0.476  0.0181 -0.0299 -0.0153
 8777TIP3    H147822   1.524   0.976   0.539 -0.0140 -0.2417  0.0888
 8777TIP3    H247823   1.394   1.029   0.484  0.1437  0.0726  0.0156
 8778TIP3   OH247824   1.855   3.055   3.960 -0.0311  0.1542  0.0814
 8778TIP3    H147825   1.874   3.110   3.884 -1.3235  0.5571  0.0270
 8778TIP3    H247826   1.882   3.109   4.035  1.6639 -0.4189 -0.0722
 8779TIP3   OH247827   3.792   1.838   3.382 -0.1721 -0.4284 -0.2698
 8779TIP3    H147828   3.711   1.871   3.343  0.5504  1.4599 -0.3101
 8779TIP3    H247829   3.849   1.821   3.307  0.1632  0.2465 -0.1751
 8780TIP3   OH247830   0.143   2.350   4.055 -0.1032 -0.1040  0.2894
 8780TIP3    H147831   0.105   2.423   4.006  0.1354  0.1830  0.5270
 8780TIP3    H247832   0.200   2.392   4.119  0.3590 -0.5158  0.1529
 8781TIP3   OH247833   2.685   2.482  15.547  0.1747  0.3374  0.0705
 8781TIP3    H147834   2.661   2.444  15.632  1.3051 -1.2355 -0.2618
 8781TIP3    H247835   2.633   2.433  15.483  2.0766 -1.1756 -0.4139
 8782TIP3   OH247836   0.218   4.637  16.348 -0.2817  0.1332 -0.2123
 8782TIP3    H147837   0.312   4.643  16.365 -0.0995  0.5245 -1.3201
 8782TIP3    H247838   0.194   4.550  16.380  0.4312  0.0592  0.1548
 8783TIP3   OH247839   4.936   4.014  16.782  0.3137 -0.6270 -0.0492
 8783TIP3    H147840   4.899   3.940  16.733 -1.1096 -0.2739  0.4436
 8783TIP3    H247841   4.885   4.017  16.863  1.3311  0.0066  0.5911
 8784TIP3   OH247842   2.945   1.175   0.953  0.6057  0.1074 -0.0116
 8784TIP3    H147843   2.959   1.270   0.960  3.5260 -0.3103  1.3169
 8784TIP3    H247844   2.922   1.161   0.861 -2.4363  2.2685  0.2675
 8785TIP3   OH247845   4.561   0.289   1.303  0.0086 -0.0651  0.4997
 8785TIP3    H147846   4.574   0.380   1.279 -1.1853 -0.5805 -2.4625
 8785TIP3    H247847   4.468   0.272   1.287  0.4117 -2.0622 -0.1154
 8786TIP3   OH247848   6.439   1.663  15.908  0.4847  0.2686  0.1711
 8786TIP3    H147849   6.398   1.749  15.915  1.2038  0.6403 -0.0797
 8786TIP3    H247850   6.532   1.682  15.892  0.4796 -0.5452 -0.8990
 8787TIP3   OH247851   3.585   0.737   1.346 -0.2739  0.1319  0.2915
 8787TIP3    H147852   3.599   0.811   1.288 -1.4947  0.2826  0.1512
 8787TIP3    H247853   3.503   0.757   1.391 -1.0989 -1.5159 -0.3919
 8788TIP3   OH247854   6.674   3.661   3.869  0.0051 -0.2371 -0.1134
 8788TIP3    H147855   6.732   3.612   3.810 -1.9148 -2.0487 -0.6077
 8788TIP3    H247856   6.726   3.673   3.949  0.9498 -2.1920 -0.3700
 8789TIP3   OH247857   3.983   4.602   0.578  0.3749 -0.4396  0.2765
 8789TIP3    H147858   4.058   4.548   0.556  2.7515  2.8902 -0.6742
 8789TIP3    H247859   3.965   4.582   0.670  3.7282 -0.0722  1.1546
 8790TIP3   OH247860   4.377   6.303  11.644 -0.1937 -0.0964 -0.1370
 8790TIP3    H147861   4.403   6.380  11.593 -0.1759 -1.5523 -2.4632
 8790TIP3    H247862   4.459   6.271  11.682 -0.2098  1.0130  0.8795
 8791TIP3   OH247863   3.543   5.715  15.213  0.1022  0.2364 -0.4689
 8791TIP3    H147864   3.607   5.697  15.281  0.0138 -0.6720 -0.6131
 8791TIP3    H247865   3.595   5.742  15.137  0.2390  0.5999 -0.2467
 8792TIP3   OH247866   3.409   0.649  13.666 -0.7808  0.6337 -0.0007
 8792TIP3    H147867   3.375   0.642  13.576 -2.9982 -1.4920  0.9092
 8792TIP3    H247868   3.504   0.654  13.655 -0.9979  0.8365 -2.4531
 8793TIP3   OH247869   6.253   3.508  11.901  0.3700 -0.0796  0.4399
 8793TIP3    H147870   6.215   3.420  11.898 -0.1627  0.0531  2.2773
 8793TIP3    H247871   6.280   3.525  11.811 -0.3959 -1.7327 -0.1460
 8794TIP3   OH247872   1.693   4.144   0.046 -0.2849 -0.1084 -0.6027
 8794TIP3    H147873   1.634   4.092   0.100 -3.4085  1.6128 -2.1191
 8794TIP3    H247874   1.686   4.233   0.080  0.0431  0.4603 -1.9299
 8795TIP3   OH247875   2.504   2.921   3.602 -0.3745  0.0383 -0.2006
 8795TIP3    H147876   2.485   2.911   3.508 -0.1744 -0.8918 -0.1526
 8795TIP3    H247877   2.554   3.003   3.608  0.3140 -0.3094 -1.0115
 8796TIP3   OH247878   3.889   2.684  14.615  0.2522  0.1450  0.3383
 8796TIP3    H147879   3.840   2.748  14.562  0.2554  0.3743  0.6114
 8796TIP3    H247880   3.971   2.672  14.568 -0.1221 -0.3634 -0.2147
 8797TIP3   OH247881   5.948   3.677  12.377  0.5230 -0.2490  0.2317
 8797TIP3    H147882   5.958   3.681  12.473 -0.8958  1.1109  0.3669
 8797TIP3    H247883   5.990   3.594  12.352  0.5811 -0.8256  2.0707
 8798TIP3   OH247884   0.992   5.125   6.515 -0.0400  0.0870 -0.6235
 8798TIP3    H147885   1.068   5.184   6.516 -0.3605  0.5046  0.1190
 8798TIP3    H247886   0.926   5.171   6.566 -0.8777 -0.1742 -1.4392
 8799TIP3   OH247887   0.673   4.076  16.938 -0.2668 -0.0881  0.3582
 8799TIP3    H147888   0.658   4.099  17.029 -0.6725  2.3296 -0.2477
 8799TIP3    H247889   0.756   4.028  16.938  0.0656  0.4515  1.9045
 8800TIP3   OH247890   2.519   1.991   3.354  0.0837  0.2623 -0.3371
 8800TIP3    H147891   2.458   2.052   3.313  1.0587  2.6019  1.4549
 8800TIP3    H247892   2.529   2.024   3.443  2.7384 -0.9426 -0.1049
 8801TIP3   OH247893   4.448   4.115   5.100 -0.0311 -0.1622 -0.1837
 8801TIP3    H147894   4.411   4.187   5.049  1.3637  0.0096 -1.0230
 8801TIP3    H247895   4.434   4.037   5.046  0.9614 -0.0647 -0.6039
 8802TIP3   OH247896   0.734   2.035  13.372  0.1713  0.2821  0.4130
 8802TIP3    H147897   0.778   1.974  13.313  0.3048  1.1318 -0.3996
 8802TIP3    H247898   0.710   2.109  13.316  1.3789  1.6704  1.6434
 8803TIP3   OH247899   0.922   0.143   5.576 -0.3581  0.8121  0.2798
 8803TIP3    H147900   0.899   0.192   5.498 -1.5197  1.1192  0.7974
 8803TIP3    H247901   0.975   0.203   5.628  0.1410  0.7171 -0.1125
 8804TIP3   OH247902   1.932   3.514   3.686 -0.4800 -0.2414 -0.1985
 8804TIP3    H147903   1.918   3.607   3.672 -0.2831 -0.0353  0.9451
 8804TIP3    H247904   1.876   3.491   3.760 -0.5410 -1.0390 -0.4781
 8805TIP3   OH247905   4.391   3.532  13.157  0.5217  0.2549  0.2866
 8805TIP3    H147906   4.301   3.501  13.145 -0.9533  3.3936  2.0470
 8805TIP3    H247907   4.436   3.460  13.201 -1.9711 -0.3550  2.0169
 8806TIP3   OH247908   4.134   1.384   4.542  0.4450 -0.3078 -0.1947
 8806TIP3    H147909   4.167   1.394   4.453  1.2091 -0.6838  0.0379
 8806TIP3    H247910   4.058   1.326   4.533 -1.2193  1.8446 -0.9480
 8807TIP3   OH247911   1.800   0.089   1.695 -0.4492 -0.0688 -0.2018
 8807TIP3    H147912   1.725   0.104   1.752  1.6294  2.1133  2.2671
 8807TIP3    H247913   1.771   0.117   1.609 -2.3100  1.3112  0.7929
 8808TIP3   OH247914   4.725   0.529   4.461  0.1815 -0.7038 -0.3372
 8808TIP3    H147915   4.807   0.572   4.436  0.6795  0.2734  2.6004
 8808TIP3    H247916   4.750   0.439   4.481  0.2706 -0.7760 -0.7695
 8809TIP3   OH247917   5.685   0.934   4.551  0.2594  0.8040  0.8679
 8809TIP3    H147918   5.642   0.849   4.560 -0.0138  1.0163  1.7083
 8809TIP3    H247919   5.634   0.981   4.486 -0.2445  0.7205  1.2007
 8810TIP3   OH247920   5.485   4.668  15.737  0.4630 -0.2472 -0.0213
 8810TIP3    H147921   5.456   4.718  15.660 -0.7916 -0.4315  0.3124
 8810TIP3    H247922   5.570   4.632  15.711 -0.1524 -0.7158 -1.5198
 8811TIP3   OH247923   0.068   1.778  13.920  0.2450 -0.0156 -0.2265
 8811TIP3    H147924   0.065   1.817  14.008 -0.6159 -0.3577 -0.0894
 8811TIP3    H247925   0.051   1.851  13.861 -2.0764 -0.2382  0.0617
 8812TIP3   OH247926   5.915   0.982   1.613 -0.6909 -0.3377  0.3747
 8812TIP3    H147927   5.889   1.022   1.696 -0.7171  0.4690 -0.0068
 8812TIP3    H247928   5.852   1.017   1.549 -0.1371 -0.2566 -0.1345
 8813TIP3   OH247929   0.588   2.073  13.910  0.1666  0.2704 -0.3639
 8813TIP3    H147930   0.566   2.140  13.846  1.7382  2.2802  1.0544
 8813TIP3    H247931   0.681   2.055  13.896  0.2783 -0.0155  0.6368
 8814TIP3   OH247932   0.736   3.780  12.695  0.5290  0.2564 -0.1734
 8814TIP3    H147933   0.648   3.743  12.685  0.7246 -0.2132 -0.1851
 8814TIP3    H247934   0.736   3.816  12.784  0.8119 -1.1037  0.3971
 8815TIP3   OH247935   6.470   0.576  12.681 -0.0241  0.1886 -0.1201
 8815TIP3    H147936   6.465   0.642  12.750 -0.2476 -0.2850  0.3294
 8815TIP3    H247937   6.381   0.571  12.645 -0.1118 -0.1577  0.1332
 8816TIP3   OH247938   1.432   5.052   5.735  0.4520 -0.1594 -0.3595
 8816TIP3    H147939   1.508   5.110   5.721  1.0580 -1.1358 -1.2456
 8816TIP3    H247940   1.449   5.011   5.820  0.4545  0.2976 -0.1331
 8817TIP3   OH247941   2.388   4.077   3.146  0.4058  0.2166 -0.0358
 8817TIP3    H147942   2.381   4.086   3.241 -0.4954 -1.4204  0.1077
 8817TIP3    H247943   2.471   4.118   3.123 -0.6554  3.2060  1.0416
 8818TIP3   OH247944   1.552   4.662  17.182  0.1459 -0.6047 -0.3888
 8818TIP3    H147945   1.490   4.734  17.176  0.7554 -0.0730 -0.3005
 8818TIP3    H247946   1.516   4.595  17.124 -0.1555 -0.0365 -0.8627
 8819TIP3   OH247947   4.971   5.502   3.999 -0.6321 -0.1860  0.8149
 8819TIP3    H147948   5.008   5.416   4.018  1.6978  0.1664 -1.5446
 8819TIP3    H247949   5.015   5.561   4.061  0.2145 -0.2854  0.3318
 8820TIP3   OH247950   1.151   1.901   5.641 -0.1884  0.0527 -0.1838
 8820TIP3    H147951   1.224   1.839   5.641  0.0666  0.3237  1.3127
 8820TIP3    H247952   1.100   1.879   5.719 -1.3878  0.2604 -0.8788
 8821TIP3   OH247953   6.381   6.634  14.445 -0.0889 -0.1904 -0.6417
 8821TIP3    H147954   6.458   6.682  14.477 -0.4776 -0.2030  0.3270
 8821TIP3    H247955   6.418   6.557  14.401  0.4321 -1.1473  1.3717
 8822TIP3   OH247956   4.222   3.801  17.029  0.4126  0.5283  0.7216
 8822TIP3    H147957   4.255   3.886  17.001  0.4214  0.5112  0.6794
 8822TIP3    H247958   4.207   3.753  16.948 -1.5268  1.1897  0.6409
 8823TIP3   OH247959   0.244   6.438   6.006  0.6389  0.0127 -0.0823
 8823TIP3    H147960   0.212   6.375   5.942  2.4866 -0.3047 -0.7527
 8823TIP3    H247961   0.264   6.386   6.084  1.0493 -0.0547 -0.2298
 8824TIP3   OH247962   1.284   6.201  13.031 -0.0504  0.2426 -0.6797
 8824TIP3    H147963   1.376   6.214  13.054 -0.5388  0.5345  1.3289
 8824TIP3    H247964   1.259   6.279  12.983  0.2334  1.1294  0.5748
 8825TIP3   OH247965   4.897   3.260  16.877 -0.4590 -0.4487 -0.3832
 8825TIP3    H147966   4.881   3.172  16.912  1.0382 -1.1199 -1.2724
 8825TIP3    H247967   4.992   3.266  16.871 -0.5721  0.8162 -1.3751
 8826TIP3   OH247968   6.794   4.736   4.001  0.0866 -0.6362  0.3809
 8826TIP3    H147969   6.837   4.804   4.053 -0.0790 -0.0269 -0.2644
 8826TIP3    H247970   6.774   4.779   3.918  2.1661 -2.1313 -0.9858
 8827TIP3   OH247971   5.620   1.038  12.475  0.2382 -0.2071  0.5217
 8827TIP3    H147972   5.598   1.093  12.550  0.2947  0.0294  0.3645
 8827TIP3    H247973   5.627   1.099  12.401  2.3280 -0.1267  0.7306
 8828TIP3   OH247974   4.645   3.514   2.617  0.4287 -0.4901  0.6548
 8828TIP3    H147975   4.595   3.492   2.696  1.4462  0.2255  1.5178
 8828TIP3    H247976   4.638   3.609   2.610 -0.7054 -0.6432 -0.8684
 8829TIP3   OH247977   3.035   1.860  13.602  0.0648  0.5264  0.2424
 8829TIP3    H147978   3.026   1.926  13.533 -1.6306 -0.6694 -0.7914
 8829TIP3    H247979   3.129   1.847  13.613  0.3741  1.4367 -1.1875
 8830TIP3   OH247980   6.696   5.791   0.103  0.1207  0.2246 -0.0276
 8830TIP3    H147981   6.628   5.856   0.122 -0.3115 -0.6255  1.4796
 8830TIP3    H247982   6.731   5.767   0.189 -0.1407 -1.9484 -0.4739
 8831TIP3   OH247983   5.801   5.379   2.094 -0.4990  0.0213 -0.5315
 8831TIP3    H147984   5.757   5.334   2.022 -0.7003 -1.0123  0.2254
 8831TIP3    H247985   5.769   5.337   2.173  0.6794  0.2789  0.1126
 8832TIP3   OH247986   0.774   1.145  12.326 -0.0818 -0.6267  0.4486
 8832TIP3    H147987   0.850   1.086  12.321 -1.2636 -2.5129  2.8421
 8832TIP3    H247988   0.806   1.228  12.291  2.4292 -1.9537 -0.6755
 8833TIP3   OH247989   2.126   5.805   0.591  0.0985 -0.7072  0.2727
 8833TIP3    H147990   2.039   5.837   0.568  0.0671  0.0867  1.3971
 8833TIP3    H247991   2.111   5.717   0.625 -0.3456 -0.3753  0.9629
 8834TIP3   OH247992   4.815   0.317   4.592 -0.5646  0.0147 -0.5209
 8834TIP3    H147993   4.910   0.323   4.582 -0.6125 -0.6011 -1.5449
 8834TIP3    H247994   4.802   0.248   4.657 -0.3017  1.3596  1.0193
 8835TIP3   OH247995   0.993   3.641   1.056  0.2657 -0.0030  0.2395
 8835TIP3    H147996   1.060   3.613   1.119  1.2032  2.5330  0.4762
 8835TIP3    H247997   1.018   3.730   1.032 -1.8267  0.2320 -1.3821
 8836TIP3   OH247998   3.725   1.877   2.216 -0.1317  0.1694 -0.3624
 8836TIP3    H147999   3.788   1.923   2.160 -0.2072  0.2612 -0.3737
 8836TIP3    H248000   3.760   1.789   2.224 -0.0598  0.1881 -0.4608
 8837TIP3   OH248001   0.261   2.689  10.407 -0.2315 -0.4472  0.0905
 8837TIP3    H148002   0.199   2.623  10.439  0.8517  0.0500  3.7322
 8837TIP3    H248003   0.222   2.772  10.432  0.6432  0.0035 -0.0066
 8838TIP3   OH248004   5.686   3.648   0.919  0.6527 -0.0615 -0.3532
 8838TIP3    H148005   5.712   3.692   1.000  0.6543 -0.3548 -0.1943
 8838TIP3    H248006   5.684   3.555   0.941 -2.1041  0.0281  0.1035
 8839TIP3   OH248007   4.465   0.755   2.827  0.0265  0.2419 -0.4355
 8839TIP3    H148008   4.487   0.789   2.740  1.0309 -0.0100 -0.2945
 8839TIP3    H248009   4.520   0.677   2.836  1.5673  1.4330  1.2420
 8840TIP3   OH248010   6.694   6.777  15.425 -0.0696 -0.1413  0.6382
 8840TIP3    H148011   6.730   6.865  15.434 -1.0217  0.7199 -2.5082
 8840TIP3    H248012   6.599   6.789  15.427 -0.2706 -0.6933 -1.7637
 8841TIP3   OH248013   1.620   0.875  12.561 -0.3430 -0.0179 -0.1477
 8841TIP3    H148014   1.558   0.809  12.530 -0.5480  0.0568  0.0963
 8841TIP3    H248015   1.674   0.829  12.625 -1.4110  0.3949  1.0914
 8842TIP3   OH248016   4.003   6.634  11.396  0.5497 -0.5589  0.4894
 8842TIP3    H148017   3.979   6.725  11.408  1.0691 -0.2529 -0.6330
 8842TIP3    H248018   4.084   6.623  11.446 -0.2010 -0.7725  1.7038
 8843TIP3   OH248019   0.201   6.066  15.699  0.1202 -0.4189  0.4110
 8843TIP3    H148020   0.192   6.161  15.698  0.2981 -0.3871  1.2657
 8843TIP3    H248021   0.254   6.047  15.776 -1.2750 -1.3296  1.2030
 8844TIP3   OH248022   3.859   3.787  11.748 -0.2700  0.5794  0.0020
 8844TIP3    H148023   3.865   3.766  11.842  1.9916 -1.2601 -0.4684
 8844TIP3    H248024   3.910   3.719  11.705  0.5636  2.6140 -2.4340
 8845TIP3   OH248025   1.568   0.007   3.821  0.1098  0.0838  0.7535
 8845TIP3    H148026   1.527  -0.067   3.867 -0.3007  0.5593  1.1623
 8845TIP3    H248027   1.546   0.083   3.874 -3.2999  1.1916 -1.8593
 8846TIP3   OH248028   4.518   1.878  17.052 -0.2588 -0.2230  0.5336
 8846TIP3    H148029   4.564   1.803  17.091 -0.9744 -0.4435  0.9710
 8846TIP3    H248030   4.539   1.951  17.110  2.0417  0.4030 -0.9468
 8847TIP3   OH248031   4.634   2.228   4.231  0.3467 -0.4430 -0.0610
 8847TIP3    H148032   4.596   2.302   4.183 -2.9700  0.5366  3.5711
 8847TIP3    H248033   4.726   2.227   4.204 -0.4904  1.9527 -3.8133
 8848TIP3   OH248034   0.064   4.501   2.035  0.4245 -0.1432 -0.2181
 8848TIP3    H148035   0.115   4.581   2.025 -0.8711  0.6819 -0.5827
 8848TIP3    H248036   0.095   4.462   2.117  1.8155  0.1628 -0.5891
 8849TIP3   OH248037   3.488   4.941   5.538  0.2585  0.4505  0.0628
 8849TIP3    H148038   3.486   5.001   5.613 -1.3915  0.5845 -0.0605
 8849TIP3    H248039   3.477   4.998   5.462 -1.4706  0.0278 -0.0489
 8850TIP3   OH248040   0.982   2.856  11.497  0.2678 -0.3191  0.6283
 8850TIP3    H148041   0.974   2.931  11.438  1.2250  0.2074  1.1385
 8850TIP3    H248042   0.941   2.886  11.578 -1.5118 -1.2210  0.1215
 8851TIP3   OH248043   2.830   3.298   3.639 -0.6688 -0.2403 -0.5724
 8851TIP3    H148044   2.900   3.271   3.579 -0.3878 -0.4693 -0.1489
 8851TIP3    H248045   2.829   3.394   3.632  0.6623 -0.1175  0.4709
 8852TIP3   OH248046   6.562   0.709  11.820 -0.0853  0.2285  0.1271
 8852TIP3    H148047   6.555   0.744  11.909 -3.0802  0.7422 -0.2309
 8852TIP3    H248048   6.521   0.623  11.825  0.5445 -0.1286 -0.6103
 8853TIP3   OH248049   6.322   2.901  16.244  0.1161 -0.0927 -0.7152
 8853TIP3    H148050   6.363   2.947  16.171  1.3430 -0.2110 -0.1302
 8853TIP3    H248051   6.363   2.814  16.244  0.7963  0.1973  0.6294
 8854TIP3   OH248052   2.580   6.725  12.102 -0.4611  0.5801  0.1764
 8854TIP3    H148053   2.666   6.753  12.071 -0.2794 -0.6304 -0.4559
 8854TIP3    H248054   2.599   6.649  12.158 -0.9578  1.5341  1.7031
 8855TIP3   OH248055   4.676   6.009   3.752 -0.2002 -0.6639 -0.3562
 8855TIP3    H148056   4.753   5.991   3.698  1.8968  0.7222  1.9893
 8855TIP3    H248057   4.647   5.923   3.782  0.1870 -1.2384 -1.5640
 8856TIP3   OH248058   5.758   1.017   5.873 -0.1890  0.1896  0.3478
 8856TIP3    H148059   5.772   1.110   5.857 -0.4777  0.4104  1.2872
 8856TIP3    H248060   5.672   0.999   5.835 -0.7169  0.6261  1.2877
 8857TIP3   OH248061   6.577   2.412  13.810 -0.6113  0.5964  0.3582
 8857TIP3    H148062   6.651   2.472  13.820 -1.2939  1.3953  0.7754
 8857TIP3    H248063   6.556   2.414  13.717 -1.5197  2.1353  0.5643
 8858TIP3   OH248064   0.767   2.721   6.430 -0.2072  0.4732  0.2259
 8858TIP3    H148065   0.754   2.709   6.336 -2.1360 -1.2391  0.6431
 8858TIP3    H248066   0.706   2.791   6.454 -0.8475 -0.1405  0.4255
 8859TIP3   OH248067   4.692   2.502   5.480 -0.1120  0.3127 -0.0346
 8859TIP3    H148068   4.669   2.423   5.432 -2.7922  0.1189  1.3355
 8859TIP3    H248069   4.773   2.481   5.525  0.2124 -0.9568 -1.1701
 8860TIP3   OH248070   0.606   1.219   5.086  0.2438  0.2037 -0.2966
 8860TIP3    H148071   0.629   1.311   5.071 -0.4391  0.3660 -0.4010
 8860TIP3    H248072   0.690   1.173   5.091  0.6862  1.1822  2.1056
 8861TIP3   OH248073   6.427   3.841   2.589  0.2180  0.2732 -0.5099
 8861TIP3    H148074   6.351   3.787   2.567  0.7040 -0.5776 -0.1221
 8861TIP3    H248075   6.396   3.931   2.576 -1.3390  0.0196  1.0728
 8862TIP3   OH248076   0.815   5.908   1.423  0.1828 -0.3664 -0.1642
 8862TIP3    H148077   0.804   5.925   1.330 -0.9132  1.4224  0.2512
 8862TIP3    H248078   0.909   5.913   1.438  0.5995 -2.7301 -1.4831
 8863TIP3   OH248079   4.091   1.465  12.980  0.5452  0.0466 -0.1957
 8863TIP3    H148080   4.079   1.472  13.075 -0.0715 -0.0296 -0.2616
 8863TIP3    H248081   4.109   1.555  12.952  1.3402 -0.0230  0.0662
 8864TIP3   OH248082   4.092   1.918   2.847 -0.1551  0.5198  0.2392
 8864TIP3    H148083   4.019   1.959   2.800 -0.2736  1.2623  1.0492
 8864TIP3    H248084   4.153   1.990   2.863  0.7916 -0.1036 -0.4722
 8865TIP3   OH248085   5.087   6.650   0.551  0.2630  0.0158  0.2332
 8865TIP3    H148086   5.141   6.665   0.628  1.4545  1.4538 -0.8184
 8865TIP3    H248087   5.109   6.722   0.491 -0.3759 -1.2038 -1.5746
 8866TIP3   OH248088   2.554   3.188  14.797 -0.4149 -0.0396 -0.2063
 8866TIP3    H148089   2.570   3.262  14.738 -0.3518 -1.5623 -2.2303
 8866TIP3    H248090   2.607   3.117  14.761 -2.0992 -1.6729  0.3635
 8867TIP3   OH248091   4.686   2.534   2.890  0.4143  0.3143 -0.0143
 8867TIP3    H148092   4.677   2.439   2.888  0.1566  0.3121  0.8823
 8867TIP3    H248093   4.727   2.556   2.806 -0.2278 -0.5085 -0.5600
 8868TIP3   OH248094   6.596   0.557  13.877 -0.6678  0.4880 -0.2455
 8868TIP3    H148095   6.554   0.471  13.873  0.3977 -0.0998  0.7166
 8868TIP3    H248096   6.684   0.542  13.842 -0.7948  1.4145 -0.9946
 8869TIP3   OH248097   1.115   4.984  17.150 -0.7501 -0.6339 -0.0716
 8869TIP3    H148098   1.024   4.968  17.177 -0.4857  0.6424  1.7518
 8869TIP3    H248099   1.114   4.971  17.055 -2.6308 -1.5254  0.0162
 8870TIP3   OH248100   6.751   5.673  12.298  0.3409  0.1198 -0.2618
 8870TIP3    H148101   6.716   5.639  12.380 -0.1245  1.8667  0.3153
 8870TIP3    H248102   6.729   5.607  12.233  1.2117 -1.5682  1.0850
 8871TIP3   OH248103   4.909   6.658   3.444 -0.0091  0.2231  0.5521
 8871TIP3    H148104   4.959   6.739   3.454  2.2461 -0.9725 -0.2202
 8871TIP3    H248105   4.839   6.680   3.382  1.5843  1.2158 -0.9849
 8872TIP3   OH248106   4.027   0.030   3.363 -0.5445  0.1998 -0.2198
 8872TIP3    H148107   3.931   0.021   3.360 -0.4089 -1.8045  0.2600
 8872TIP3    H248108   4.060  -0.056   3.339  1.0761 -0.1316  2.6943
 8873TIP3   OH248109   2.310   1.511   3.700  1.1413 -0.5796  0.3120
 8873TIP3    H148110   2.244   1.506   3.769  0.2182 -0.7698 -0.5723
 8873TIP3    H248111   2.291   1.438   3.642  1.8636 -0.3756 -0.1977
 8874TIP3   OH248112   3.275   5.185   3.891  0.0583 -0.2266 -0.0041
 8874TIP3    H148113   3.182   5.168   3.907  0.2922 -0.0821  1.6811
 8874TIP3    H248114   3.296   5.134   3.813 -1.3745 -0.4747 -0.2485
 8875TIP3   OH248115   5.927   0.703  14.070 -0.0096  0.2818  0.5169
 8875TIP3    H148116   5.864   0.718  13.999  0.5881 -1.4700 -0.4431
 8875TIP3    H248117   5.873   0.670  14.142 -0.3862  0.2592  0.2312
 8876TIP3   OH248118   4.785   1.579  12.066 -0.3530 -0.1732 -0.2797
 8876TIP3    H148119   4.878   1.562  12.077 -0.1937  0.6535 -0.2942
 8876TIP3    H248120   4.741   1.512  12.118  0.2688 -0.0718  0.3794
 8877TIP3   OH248121   2.740   0.863   6.426  0.4508 -0.3806 -0.2279
 8877TIP3    H148122   2.793   0.936   6.460 -0.7884  0.1129  0.7394
 8877TIP3    H248123   2.722   0.886   6.335 -0.2423  0.7312  0.1717
 8878TIP3   OH248124   4.714   1.835  15.983  0.1165 -0.0032  0.0038
 8878TIP3    H148125   4.724   1.754  16.032 -0.1121 -0.3810 -0.5615
 8878TIP3    H248126   4.772   1.897  16.027  1.5719 -0.9240 -0.5539
 8879TIP3   OH248127   1.694   0.501  10.975 -0.1198  0.2831 -0.2634
 8879TIP3    H148128   1.668   0.506  10.883 -2.2122 -0.1778  0.2481
 8879TIP3    H248129   1.685   0.408  10.997  0.3728  0.3868  0.4114
 8880TIP3   OH248130   2.749   5.720  15.703 -0.2877  0.1518 -0.4602
 8880TIP3    H148131   2.703   5.667  15.638 -1.1730  1.0835 -0.6337
 8880TIP3    H248132   2.732   5.811  15.675 -0.7607  0.5770  1.0927
 8881TIP3   OH248133   4.169   3.065  10.785 -0.2247  0.2358 -0.0478
 8881TIP3    H148134   4.160   3.067  10.880 -0.5852 -0.1335 -0.0697
 8881TIP3    H248135   4.096   3.011  10.755 -0.4263  0.7908 -0.5739
 8882TIP3   OH248136   1.463   1.766  14.788 -0.9502  0.0347 -0.2162
 8882TIP3    H148137   1.513   1.687  14.807 -1.6246 -0.3445  0.0308
 8882TIP3    H248138   1.415   1.784  14.870  1.3268  2.3280  0.7468
 8883TIP3   OH248139   3.652   3.437   0.331 -0.3937 -0.3953  0.0450
 8883TIP3    H148140   3.717   3.381   0.375  1.6737  1.1585 -0.8609
 8883TIP3    H248141   3.584   3.376   0.302  0.0629 -1.9633  1.9951
 8884TIP3   OH248142   6.190   5.707  13.829 -0.6715 -0.2947 -0.1633
 8884TIP3    H148143   6.119   5.768  13.811  1.4952  1.9902 -1.6977
 8884TIP3    H248144   6.186   5.693  13.923 -1.7128  1.7201  0.1497
 8885TIP3   OH248145   4.074   0.687  10.967  0.2108 -0.2935  0.0594
 8885TIP3    H148146   4.130   0.694  11.044  0.4385 -2.4849  0.1602
 8885TIP3    H248147   4.134   0.675  10.894 -0.0594 -0.8436 -0.0823
 8886TIP3   OH248148   2.978   0.208   1.467 -0.6269  0.3056  0.5386
 8886TIP3    H148149   3.016   0.292   1.444 -0.3282  0.3721  1.2526
 8886TIP3    H248150   2.883   0.221   1.455 -0.4384 -0.1148 -2.0380
 8887TIP3   OH248151   1.067   3.373  16.224 -0.1254  0.2361 -0.2143
 8887TIP3    H148152   1.011   3.358  16.299  1.9763 -2.3513  0.9938
 8887TIP3    H248153   1.151   3.401  16.261  0.8395 -0.7071 -1.5620
 8888TIP3   OH248154   0.130   1.153  11.962  0.0594 -0.0899 -0.5225
 8888TIP3    H148155   0.220   1.140  11.992  0.3413  1.4273 -0.6245
 8888TIP3    H248156   0.108   1.071  11.917  1.2857 -0.5889 -0.2596
 8889TIP3   OH248157   4.530   1.709   1.010  0.3974  0.2212 -0.0747
 8889TIP3    H148158   4.532   1.621   1.047  3.5172  0.3927  0.4414
 8889TIP3    H248159   4.609   1.751   1.043 -1.1656  3.4105  0.0117
 8890TIP3   OH248160   1.858   3.786   3.381  0.1818 -0.1016  0.1084
 8890TIP3    H148161   1.889   3.773   3.471  0.9588  0.7085 -0.0305
 8890TIP3    H248162   1.824   3.700   3.356  2.2391 -1.0513  0.3214
 8891TIP3   OH248163   1.846   0.146   2.556  0.2499  0.0323 -0.1396
 8891TIP3    H148164   1.788   0.168   2.483  0.3732  1.5615  0.1919
 8891TIP3    H248165   1.891   0.066   2.528  0.4905  0.7337 -1.8485
 8892TIP3   OH248166   4.376   5.925   2.218 -0.8752 -0.1939 -0.3444
 8892TIP3    H148167   4.326   5.965   2.146 -1.8562 -0.7636  0.0032
 8892TIP3    H248168   4.378   5.832   2.197  0.2505 -0.1582 -0.4609
 8893TIP3   OH248169   6.784   4.510   3.074 -0.1259  0.1552  0.4170
 8893TIP3    H148170   6.710   4.454   3.051  1.3605 -1.8482  0.1938
 8893TIP3    H248171   6.797   4.497   3.167  0.7683 -0.5964  0.2007
 8894TIP3   OH248172   6.636   2.183  11.462 -0.3596 -0.2238 -0.1162
 8894TIP3    H148173   6.599   2.095  11.473  0.2021 -0.4518 -0.0382
 8894TIP3    H248174   6.568   2.242  11.497  0.3790 -0.7721  2.4756
 8895TIP3   OH248175   0.362   3.701   0.189 -0.0440 -0.2636 -0.0208
 8895TIP3    H148176   0.344   3.609   0.168 -3.0716  0.5088 -1.2677
 8895TIP3    H248177   0.405   3.736   0.111 -0.3349 -0.2432 -0.1714
 8896TIP3   OH248178   6.429   2.499  13.317  0.6573 -0.4386  0.1626
 8896TIP3    H148179   6.359   2.440  13.344  1.0247 -0.5455  0.9478
 8896TIP3    H248180   6.386   2.583  13.303 -0.5189 -1.5630 -4.4839
 8897TIP3   OH248181   1.269   5.887  13.782 -0.4711 -0.2877 -0.0466
 8897TIP3    H148182   1.203   5.936  13.733 -1.4152 -1.9750 -0.5510
 8897TIP3    H248183   1.221   5.848  13.855 -0.1095 -1.7195 -0.5453
 8898TIP3   OH248184   3.381   2.285  13.921 -0.3886 -0.7498 -0.3269
 8898TIP3    H148185   3.463   2.277  13.872 -0.4258 -1.0616 -0.3439
 8898TIP3    H248186   3.361   2.195  13.947 -0.2265 -0.5571  0.4964
 8899TIP3   OH248187   3.404   2.658   2.501  0.0406  0.1225  0.3249
 8899TIP3    H148188   3.322   2.611   2.518 -0.4045 -0.0890 -2.1623
 8899TIP3    H248189   3.415   2.713   2.579 -1.7998 -0.7395  1.2835
 8900TIP3   OH248190   4.750   4.455  16.491 -0.4781  0.7256  0.2658
 8900TIP3    H148191   4.670   4.458  16.543 -0.0573  0.6211  0.9383
 8900TIP3    H248192   4.743   4.374  16.441 -0.3264  0.1779  1.1109
 8901TIP3   OH248193   2.854   3.630   3.317 -0.2533  0.0752 -0.0191
 8901TIP3    H148194   2.942   3.595   3.331 -0.0410  0.2112 -0.9639
 8901TIP3    H248195   2.799   3.552   3.310 -0.0807 -0.0320 -0.2179
 8902TIP3   OH248196   6.125   3.434  14.267 -0.4114  0.3133  0.1477
 8902TIP3    H148197   6.034   3.452  14.244 -0.5813 -0.4442  0.2225
 8902TIP3    H248198   6.124   3.419  14.361  0.1580  2.5836  0.5894
 8903TIP3   OH248199   2.091   3.442  13.613  0.4610  0.1558 -0.3927
 8903TIP3    H148200   2.133   3.362  13.580  0.4441 -0.0477  0.0720
 8903TIP3    H248201   2.105   3.507  13.544  0.5414 -0.2272 -0.7421
 8904TIP3   OH248202   0.479   5.788   5.022  0.7171  0.2525  0.1967
 8904TIP3    H148203   0.550   5.726   5.006  1.2948  0.5572  1.4229
 8904TIP3    H248204   0.491   5.856   4.956  1.8901  0.5593  0.6964
 8905TIP3   OH248205   1.884   2.923   4.869  0.0804  0.0960 -0.1182
 8905TIP3    H148206   1.855   3.001   4.821 -2.5496 -1.6662 -1.6849
 8905TIP3    H248207   1.871   2.851   4.807  2.6333 -1.6405  1.1698
 8906TIP3   OH248208   6.351   0.344   4.910 -0.2197  0.3767 -0.3177
 8906TIP3    H148209   6.334   0.399   4.833 -2.0742 -1.7614 -1.5789
 8906TIP3    H248210   6.289   0.375   4.976  2.1404  2.9704  0.8739
 8907TIP3   OH248211   1.411   6.804  13.835  0.1743 -0.1945 -0.0476
 8907TIP3    H148212   1.479   6.767  13.891 -0.4731  0.5278  1.2653
 8907TIP3    H248213   1.450   6.886  13.803 -0.1217  0.2964  0.8281
 8908TIP3   OH248214   4.601   0.906  15.937  0.3597  0.0929  0.5415
 8908TIP3    H148215   4.685   0.933  15.900 -0.0044 -1.0068 -1.1984
 8908TIP3    H248216   4.624   0.845  16.008  1.1065 -2.4997 -1.7468
 8909TIP3   OH248217   1.219   6.096   5.825  0.2992  0.3993  0.2478
 8909TIP3    H148218   1.193   6.100   5.917  0.0517  0.8496  0.1619
 8909TIP3    H248219   1.137   6.108   5.777  0.7480  2.9207 -0.0299
 8910TIP3   OH248220   5.165   1.216   0.977  0.2134 -0.1133 -0.1964
 8910TIP3    H148221   5.151   1.125   1.001  1.4588 -0.1124  0.6419
 8910TIP3    H248222   5.113   1.229   0.898 -3.1367 -0.4360  1.8000
 8911TIP3   OH248223   6.731   5.245   4.764 -0.0632  0.0985 -0.1384
 8911TIP3    H148224   6.760   5.306   4.833 -0.4050 -0.4409  0.4890
 8911TIP3    H248225   6.654   5.202   4.801  0.5405 -1.1732 -0.3221
 8912TIP3   OH248226   2.626   6.689   5.642 -0.1907  0.0851 -0.3342
 8912TIP3    H148227   2.697   6.700   5.579  1.0074 -1.1019  0.7585
 8912TIP3    H248228   2.622   6.773   5.688  0.8593  0.0093 -0.0718
 8913TIP3   OH248229   5.694   3.614   1.519  0.0848 -0.7497 -0.5219
 8913TIP3    H148230   5.709   3.556   1.444  1.7670 -1.6148  0.4200
 8913TIP3    H248231   5.759   3.587   1.583 -0.0310  1.2617  0.5238
 8914TIP3   OH248232   0.193   1.247  13.498 -0.4892  0.6194 -0.5263
 8914TIP3    H148233   0.172   1.292  13.416  1.6234  1.5096 -0.6392
 8914TIP3    H248234   0.111   1.247  13.546 -1.4173  1.4251 -2.0155
 8915TIP3   OH248235   3.014   4.985   5.831  0.3057 -0.2525  0.1701
 8915TIP3    H148236   3.066   5.056   5.794  1.3618 -0.3367  1.3863
 8915TIP3    H248237   2.968   4.946   5.757  2.0207 -0.1845 -0.9720
 8916TIP3   OH248238   0.086   6.231   0.086  0.2520 -0.3626  1.0131
 8916TIP3    H148239   0.057   6.247   0.176 -0.5741 -1.6883  1.0112
 8916TIP3    H248240   0.176   6.200   0.095 -0.7217 -3.3012  1.6943
 8917TIP3   OH248241   1.934   2.712  14.499 -0.6354 -0.1077 -0.2732
 8917TIP3    H148242   1.934   2.648  14.428 -0.2235  0.9964 -1.2889
 8917TIP3    H248243   1.928   2.659  14.579 -0.0493 -1.4203 -1.0724
 8918TIP3   OH248244   2.611   3.985   3.512 -0.1955 -0.0249 -0.2926
 8918TIP3    H148245   2.686   4.001   3.570 -0.0811 -0.1849 -0.3961
 8918TIP3    H248246   2.614   4.057   3.448 -1.4570  1.2895  1.0450
 8919TIP3   OH248247   1.161   2.448   2.198 -0.5194  0.1925 -0.0079
 8919TIP3    H148248   1.251   2.418   2.203 -0.4955  0.4785  2.2713
 8919TIP3    H248249   1.110   2.379   2.239 -0.7667  1.9131  2.8185
 8920TIP3   OH248250   3.645   2.170  12.386  0.7536  0.1905  0.1058
 8920TIP3    H148251   3.686   2.217  12.459  1.3219  0.2223 -0.2228
 8920TIP3    H248252   3.592   2.236  12.342  0.0707  0.0689  0.7363
 8921TIP3   OH248253   5.119   4.403   4.348  0.2734 -0.3830 -0.5633
 8921TIP3    H148254   5.197   4.425   4.297  0.8910  0.0198  0.5070
 8921TIP3    H248255   5.078   4.488   4.367  0.9820 -0.3487  1.0006
 8922TIP3   OH248256   5.614   0.782   0.076  0.4912  0.3575  0.0699
 8922TIP3    H148257   5.552   0.840   0.032 -2.4987 -1.3769  1.6822
 8922TIP3    H248258   5.655   0.733   0.005  1.5358  2.8092 -1.1670
 8923TIP3   OH248259   0.196   1.249   4.898  0.3521  0.2704  0.4989
 8923TIP3    H148260   0.139   1.234   4.974 -1.3348  0.9180 -0.5727
 8923TIP3    H248261   0.278   1.205   4.920 -0.2828 -0.0221  2.4560
 8924TIP3   OH248262   1.591   5.211   3.046 -0.1109  0.4397  0.7988
 8924TIP3    H148263   1.538   5.139   3.079  2.4245 -1.4146  1.1458
 8924TIP3    H248264   1.564   5.222   2.955 -0.8319 -0.6547  0.8691
 8925TIP3   OH248265   6.283   1.840  14.407  0.1968 -0.3901  0.1958
 8925TIP3    H148266   6.319   1.891  14.480  1.5663 -1.1209  0.0540
 8925TIP3    H248267   6.204   1.888  14.382  1.5309  1.8032 -0.0823
 8926TIP3   OH248268   0.345   5.304   1.896 -0.9262  0.5688  0.3396
 8926TIP3    H148269   0.348   5.303   1.992  0.7939 -2.0584  0.3787
 8926TIP3    H248270   0.340   5.211   1.872  1.3332  0.9883 -2.1298
 8927TIP3   OH248271   1.595   5.554  11.057  0.2886  0.8810 -0.4457
 8927TIP3    H148272   1.687   5.558  11.032 -0.2785  0.1386 -2.9817
 8927TIP3    H248273   1.588   5.473  11.107  0.5764 -0.6613 -2.7389
 8928TIP3   OH248274   5.870   3.662   4.379 -0.4636  0.3167  0.2378
 8928TIP3    H148275   5.787   3.669   4.425 -1.4644 -0.1183 -1.4234
 8928TIP3    H248276   5.891   3.569   4.380 -0.1180  0.3921  0.4120
 8929TIP3   OH248277   5.036   0.679  12.264  0.0400 -0.5275  0.7232
 8929TIP3    H148278   4.978   0.666  12.339 -1.6506 -2.1420 -0.7602
 8929TIP3    H248279   5.029   0.772  12.243 -2.1545 -0.7000  0.5118
 8930TIP3   OH248280   5.601   0.709  14.545 -0.9625  0.3596  0.2508
 8930TIP3    H148281   5.571   0.793  14.580  0.0764  0.6263  0.5403
 8930TIP3    H248282   5.643   0.732  14.461  2.1934  0.6457  1.7594
 8931TIP3   OH248283   0.119   3.393  15.074  0.3107 -0.4252 -0.3144
 8931TIP3    H148284   0.126   3.342  15.155 -0.4306  0.9705  0.6592
 8931TIP3    H248285   0.198   3.370  15.024 -0.5287 -3.3770 -0.4586
 8932TIP3   OH248286   6.312   5.885   6.186  0.4543 -0.2862  0.1579
 8932TIP3    H148287   6.221   5.876   6.213  1.0041 -0.5816  2.0355
 8932TIP3    H248288   6.323   5.819   6.118 -0.5854 -0.6345  0.3117
 8933TIP3   OH248289   2.014   2.885   4.370  0.4983 -0.2779 -0.6832
 8933TIP3    H148290   2.005   2.966   4.320 -0.4453 -1.0265 -1.7838
 8933TIP3    H248291   2.070   2.908   4.444  3.5500  0.4660 -3.0156
 8934TIP3   OH248292   2.626   6.457   3.987 -0.3917  0.6514  0.0865
 8934TIP3    H148293   2.690   6.509   4.036  0.1738 -0.7715  0.9316
 8934TIP3    H248294   2.664   6.369   3.984 -1.9482 -0.0511 -0.0564
 8935TIP3   OH248295   1.360   3.694  14.831 -0.4560  0.0448  0.0400
 8935TIP3    H148296   1.325   3.610  14.859  1.1917 -0.8512 -0.4082
 8935TIP3    H248297   1.343   3.753  14.904  0.4453 -1.2931  1.3925
 8936TIP3   OH248298   6.425   0.816   2.154  0.2760 -0.1764  0.4948
 8936TIP3    H148299   6.346   0.794   2.105  0.6699 -0.3297 -0.0895
 8936TIP3    H248300   6.455   0.898   2.115  0.7223 -0.4232  0.3083
 8937TIP3   OH248301   4.685   4.594   0.519  0.2716 -0.1734  0.2690
 8937TIP3    H148302   4.685   4.662   0.587  2.9859  0.5955 -0.3496
 8937TIP3    H248303   4.622   4.529   0.550  0.5726  0.6687  2.9595
 8938TIP3   OH248304   0.171   0.802   1.648 -0.1118 -0.0720  0.0394
 8938TIP3    H148305   0.119   0.877   1.616 -0.5094 -0.2471  0.2637
 8938TIP3    H248306   0.238   0.789   1.581  0.3373  0.8645  0.2939
 8939TIP3   OH248307   2.578   3.164   3.637 -0.5088 -0.0877 -0.5757
 8939TIP3    H148308   2.666   3.199   3.649 -0.0783 -1.4108  0.2682
 8939TIP3    H248309   2.538   3.170   3.724  0.5459 -4.1354  0.4200
 8940TIP3   OH248310   1.876   4.228  10.397 -0.3262 -0.2963  0.2884
 8940TIP3    H148311   1.886   4.140  10.432 -0.9271 -0.7266 -0.5915
 8940TIP3    H248312   1.821   4.273  10.462 -0.8631 -0.8723  0.2412
 8941TIP3   OH248313   6.833   4.058   2.951  0.4428 -0.0076  0.0396
 8941TIP3    H148314   6.869   3.981   2.996  0.1282  0.3051  0.8475
 8941TIP3    H248315   6.755   4.081   3.002  1.7157  2.1776  1.1390
 8942TIP3   OH248316   5.464   0.377   3.476  0.4042  0.1780  0.0514
 8942TIP3    H148317   5.429   0.465   3.487  1.1457  0.3961  0.7679
 8942TIP3    H248318   5.512   0.380   3.394 -0.5270  0.1077 -0.5110
 8943TIP3   OH248319   1.195   5.553  16.953  1.1714  0.7331  0.1119
 8943TIP3    H148320   1.130   5.609  16.910 -0.4287 -1.8468 -1.1321
 8943TIP3    H248321   1.150   5.469  16.963  2.7782  0.1405  3.6135
 8944TIP3   OH248322   4.783   2.410  12.174 -0.0395  0.2202 -0.1237
 8944TIP3    H148323   4.781   2.319  12.144  0.4225  0.5579 -1.2377
 8944TIP3    H248324   4.874   2.437  12.162 -0.2989  1.0049 -0.3510
 8945TIP3   OH248325   0.083   1.186  12.554 -0.3155 -0.6375  0.0249
 8945TIP3    H148326   0.084   1.215  12.463  2.0939 -0.5864  0.0061
 8945TIP3    H248327   0.120   1.098  12.552 -0.4525 -0.7250  0.9223
 8946TIP3   OH248328   4.299   2.906   6.317 -0.3307 -0.3067  0.0281
 8946TIP3    H148329   4.352   2.912   6.397  1.1684 -0.9181 -0.8664
 8946TIP3    H248330   4.210   2.893   6.349 -0.2437  2.2121  1.6271
 8947TIP3   OH248331   2.455   3.059  12.519 -0.0791 -0.2357  0.3151
 8947TIP3    H148332   2.485   3.038  12.608 -1.7890 -0.5515  0.8558
 8947TIP3    H248333   2.372   3.013  12.510 -0.3918  0.5441 -1.1217
 8948TIP3   OH248334   5.719   5.624  11.373 -0.2985 -0.5236 -0.0538
 8948TIP3    H148335   5.798   5.661  11.334  0.7318  0.2260  2.5425
 8948TIP3    H248336   5.728   5.642  11.466 -4.0467  0.4610  0.2408
 8949TIP3   OH248337   5.277   1.178   2.195  0.3291  0.5703 -0.4248
 8949TIP3    H148338   5.217   1.104   2.206  0.4503  0.3355 -1.2740
 8949TIP3    H248339   5.344   1.145   2.135  1.0353  0.9917  0.1325
 8950TIP3   OH248340   6.385   5.887   2.711 -0.4085  0.4199  0.6347
 8950TIP3    H148341   6.455   5.933   2.758 -0.1140  1.5814 -0.8482
 8950TIP3    H248342   6.318   5.871   2.777  0.3416  1.2558  1.6298
 8951TIP3   OH248343   5.020   6.458   1.470  0.3257 -0.5030  0.1234
 8951TIP3    H148344   4.985   6.414   1.548 -1.6717  0.3398 -0.2435
 8951TIP3    H248345   5.108   6.484   1.495 -0.0683 -0.7442  1.9132
 8952TIP3   OH248346   5.003   1.529   5.670 -0.4600  0.0480 -0.3788
 8952TIP3    H148347   4.955   1.585   5.609  0.7350  1.0904 -0.3998
 8952TIP3    H248348   4.955   1.536   5.753 -0.6903  0.5935 -0.5596
 8953TIP3   OH248349   0.622   2.043   4.003 -0.0085  0.1381  0.2555
 8953TIP3    H148350   0.589   1.965   3.958 -0.4774 -0.4468  1.5779
 8953TIP3    H248351   0.581   2.116   3.957 -0.1372 -0.4193 -0.5405
 8954TIP3   OH248352   0.709   6.429  14.025 -0.1828  0.3574 -0.0326
 8954TIP3    H148353   0.614   6.447  14.027 -0.0256  1.2131  0.2407
 8954TIP3    H248354   0.741   6.461  14.109  0.1084 -1.4492  0.5858
 8955TIP3   OH248355   6.359   3.978   0.193 -0.4811  0.8087 -0.5697
 8955TIP3    H148356   6.421   3.948   0.128 -1.7874  0.2722 -1.6179
 8955TIP3    H248357   6.342   4.070   0.170 -1.6710  0.3523 -1.6303
 8956TIP3   OH248358   4.034   5.815  12.705 -0.3247 -0.4410 -0.3501
 8956TIP3    H148359   4.076   5.833  12.789  0.1990  0.0248 -0.6990
 8956TIP3    H248360   4.105   5.821  12.641 -0.8079 -0.2772 -0.8830
 8957TIP3   OH248361   0.332   5.488  11.809 -0.1091  0.1363  0.2740
 8957TIP3    H148362   0.355   5.565  11.758  2.5177 -0.6048  0.2294
 8957TIP3    H248363   0.315   5.420  11.744  0.1338  0.0145  0.3343
 8958TIP3   OH248364   0.086   5.616  13.690 -0.1304 -0.1105 -0.5842
 8958TIP3    H148365   0.015   5.677  13.707  0.0600 -0.1737  0.5802
 8958TIP3    H248366   0.140   5.620  13.769 -0.3990 -2.1483 -0.2356
 8959TIP3   OH248367   3.840   4.001   4.572  0.2090 -0.1054  0.6811
 8959TIP3    H148368   3.767   3.979   4.630  0.0174  0.5597  0.6965
 8959TIP3    H248369   3.806   4.069   4.515  0.6782 -0.1137  0.3839
 8960TIP3   OH248370   5.138   0.553  11.175 -0.1884  0.3810 -0.1280
 8960TIP3    H148371   5.182   0.551  11.090  1.9429  2.2347  0.8578
 8960TIP3    H248372   5.045   0.556  11.153  0.2765  0.2346 -2.3765
 8961TIP3   OH248373   1.748   0.483   0.117 -0.3929  0.9820 -0.5701
 8961TIP3    H148374   1.769   0.575   0.132  0.8815  0.8833 -1.5692
 8961TIP3    H248375   1.763   0.469   0.024 -0.4278 -0.2697 -0.4154
 8962TIP3   OH248376   1.293   4.515  14.466 -0.2386  0.6641 -0.0174
 8962TIP3    H148377   1.370   4.556  14.505 -0.4231  0.5849  0.4307
 8962TIP3    H248378   1.220   4.540  14.523 -0.1998 -1.1758  0.9122
 8963TIP3   OH248379   1.856   4.444   4.157 -0.5569 -0.1919  0.2012
 8963TIP3    H148380   1.838   4.478   4.070 -1.5117  0.0945  0.5034
 8963TIP3    H248381   1.821   4.510   4.217 -0.3434 -0.6116  0.7996
 8964TIP3   OH248382   4.009   1.380  15.237  0.1630 -0.7204 -0.0665
 8964TIP3    H148383   4.021   1.445  15.168  0.3297 -0.2275  0.4237
 8964TIP3    H248384   3.940   1.322  15.204 -0.1283 -0.1761 -0.4178
 8965TIP3   OH248385   5.470   2.593  14.149 -0.3514 -0.2753 -0.5883
 8965TIP3    H148386   5.530   2.523  14.123  0.5122  0.5412 -0.8221
 8965TIP3    H248387   5.384   2.561  14.123  0.1490 -0.7873 -1.6896
 8966TIP3   OH248388   2.951   4.638   3.054  0.6828  0.1454  0.0554
 8966TIP3    H148389   3.023   4.614   3.112 -0.0911 -0.7529  0.6641
 8966TIP3    H248390   2.992   4.645   2.967  1.8948  1.6828  0.6934
 8967TIP3   OH248391   1.704   2.847  11.923 -0.3225 -0.0045  0.1266
 8967TIP3    H148392   1.766   2.847  11.996  1.9801 -0.7441 -1.6941
 8967TIP3    H248393   1.618   2.848  11.964  0.8717  1.1237  2.7988
 8968TIP3   OH248394   2.466   0.850  13.244  0.0456  0.3327  0.3399
 8968TIP3    H148395   2.450   0.785  13.175  0.4628 -1.3015  1.7035
 8968TIP3    H248396   2.561   0.857  13.249  0.0077  2.4935 -1.0287
 8969TIP3   OH248397   5.922   2.655  11.843 -0.0748 -0.1893  0.3566
 8969TIP3    H148398   6.002   2.623  11.801 -0.4718  0.0409 -0.6008
 8969TIP3    H248399   5.923   2.616  11.931  1.2508  0.0804  0.4790
 8970TIP3   OH248400   0.805   2.659  12.030 -0.2521  0.1267 -0.0555
 8970TIP3    H148401   0.865   2.602  12.078 -1.4588 -2.6399 -1.5978
 8970TIP3    H248402   0.824   2.642  11.937 -0.2826  2.7626 -0.6423
 8971TIP3   OH248403   0.999   0.132   1.160 -0.0337 -0.1019 -0.3136
 8971TIP3    H148404   1.092   0.156   1.160 -0.0833  0.3609 -3.0165
 8971TIP3    H248405   0.999   0.037   1.148  0.0920  0.0064 -1.1906
 8972TIP3   OH248406   1.285   3.225  15.641  0.3642  0.2617  0.2978
 8972TIP3    H148407   1.277   3.204  15.734  0.4333  2.2415  0.8101
 8972TIP3    H248408   1.214   3.288  15.625 -0.9857 -1.6080 -1.5362
 8973TIP3   OH248409   1.855   0.285  13.586 -0.0638 -0.4184 -0.0726
 8973TIP3    H148410   1.798   0.217  13.621  0.5715 -0.0964  1.7043
 8973TIP3    H248411   1.844   0.359  13.646  1.0149  0.2070 -0.6089
 8974TIP3   OH248412   3.084   1.243   5.300 -0.4625  0.2237 -0.3276
 8974TIP3    H148413   3.111   1.182   5.231  0.2446  1.0331 -0.7830
 8974TIP3    H248414   3.137   1.219   5.376 -0.6322 -0.1243 -0.3172
 8975TIP3   OH248415   4.293   2.047   3.480  0.7280 -0.5112 -0.2994
 8975TIP3    H148416   4.360   2.067   3.545  1.2475 -1.6981 -0.4481
 8975TIP3    H248417   4.283   2.128   3.429  2.2165 -0.3821 -0.4219
 8976TIP3   OH248418   3.186   1.561  11.016  0.2456 -0.3947 -0.1745
 8976TIP3    H148419   3.274   1.539  10.985  0.7193  0.5886  0.4143
 8976TIP3    H248420   3.133   1.567  10.937  1.0930  0.5929 -0.6911
 8977TIP3   OH248421   4.223   3.423  13.395  0.0410  0.1647  0.2207
 8977TIP3    H148422   4.300   3.415  13.452 -1.1257  1.5448  2.1346
 8977TIP3    H248423   4.198   3.515  13.402 -3.1560 -0.6851  1.6119
 8978TIP3   OH248424   0.396   2.291   2.500 -0.0039 -0.5707  0.1378
 8978TIP3    H148425   0.372   2.330   2.584 -1.3328 -1.1922  0.0596
 8978TIP3    H248426   0.415   2.199   2.520  0.9268 -0.4280 -0.0425
 8979TIP3   OH248427   5.958   6.509   5.195  0.1222 -0.6261 -0.1922
 8979TIP3    H148428   5.885   6.490   5.137  0.7589 -0.4365 -1.0632
 8979TIP3    H248429   6.036   6.481   5.147  0.7009 -0.0022  0.3544
 8980TIP3   OH248430   2.825   0.881  16.843  0.5298 -0.3776 -0.2926
 8980TIP3    H148431   2.755   0.837  16.794  0.2295  0.1343 -0.3335
 8980TIP3    H248432   2.893   0.814  16.853 -0.3723 -1.1842  0.6122
 8981TIP3   OH248433   1.458   3.573  13.784 -0.6233 -0.0377  0.0068
 8981TIP3    H148434   1.455   3.493  13.732 -1.6322  0.2494 -0.3943
 8981TIP3    H248435   1.414   3.639  13.730 -2.2575  0.1168  1.4668
 8982TIP3   OH248436   1.950   1.542  12.716 -0.2503 -0.3610 -0.5805
 8982TIP3    H148437   1.918   1.602  12.649 -0.4372 -1.3977 -1.4471
 8982TIP3    H248438   1.949   1.456  12.674  0.0497 -0.9731  0.6125
 8983TIP3   OH248439   0.900   4.686  12.931 -0.1848 -0.3584  0.4934
 8983TIP3    H148440   0.814   4.650  12.906  0.1023 -0.8076  0.1304
 8983TIP3    H248441   0.914   4.656  13.020 -0.1929 -0.7014  0.3831
 8984TIP3   OH248442   2.651   2.695  14.051  0.3085  0.1705 -0.2238
 8984TIP3    H148443   2.635   2.603  14.030 -3.6150  0.2614  1.6080
 8984TIP3    H248444   2.631   2.742  13.970  1.3250 -0.4328 -0.8580
 8985TIP3   OH248445   5.287   3.562   0.245  0.0656  0.4269  0.0928
 8985TIP3    H148446   5.355   3.588   0.307  1.0674  0.6616 -1.0498
 8985TIP3    H248447   5.280   3.636   0.185 -1.1358  0.3560  0.1206
 8986TIP3   OH248448   5.333   1.907   4.683  0.1357  0.1149 -0.3413
 8986TIP3    H148449   5.311   1.943   4.597  0.8241 -1.4937 -1.2306
 8986TIP3    H248450   5.318   1.813   4.674 -0.6857  0.0085  1.6049
 8987TIP3   OH248451   1.608   2.367  14.130  0.7724  0.0531  0.4202
 8987TIP3    H148452   1.562   2.325  14.203 -0.1460 -0.4760 -0.4335
 8987TIP3    H248453   1.604   2.302  14.059  0.6696  0.9891 -0.4503
 8988TIP3   OH248454   6.017   3.327  16.621 -0.0022  0.3962 -0.5907
 8988TIP3    H148455   6.000   3.303  16.712  0.0207 -1.9053 -1.1497
 8988TIP3    H248456   6.106   3.297  16.604 -1.0699 -2.1695 -2.2336
 8989TIP3   OH248457   3.018   0.728  16.189  0.1264  0.4790  0.0925
 8989TIP3    H148458   3.030   0.822  16.198 -0.8604  0.6704 -0.3856
 8989TIP3    H248459   3.001   0.715  16.095  0.5606 -0.2147  0.1009
 8990TIP3   OH248460   5.549   6.629  15.451 -0.1278 -0.2516 -0.3540
 8990TIP3    H148461   5.511   6.674  15.375 -0.4689 -0.3853 -0.2652
 8990TIP3    H248462   5.532   6.687  15.525 -1.8705 -1.1666  0.0091
 8991TIP3   OH248463   2.944   1.009  16.104  0.0171  0.1805  0.4853
 8991TIP3    H148464   2.899   1.014  16.020  1.5918 -0.5865 -0.4590
 8991TIP3    H248465   2.970   1.099  16.123  1.0492  0.1803 -0.7088
 8992TIP3   OH248466   4.725   4.713  14.371 -0.7090  0.0250  0.0958
 8992TIP3    H148467   4.703   4.683  14.460 -0.5829  3.1971  1.3310
 8992TIP3    H248468   4.811   4.676  14.354 -1.3772 -1.8745  0.6263
 8993TIP3   OH248469   0.528   6.187   2.658  0.3139 -0.8893  0.2382
 8993TIP3    H148470   0.434   6.170   2.668  0.9020 -3.2535  3.1006
 8993TIP3    H248471   0.547   6.253   2.724  0.8831 -1.3259  0.5107
 8994TIP3   OH248472   1.515   0.029  15.440  0.0486 -0.4475  0.2585
 8994TIP3    H148473   1.546  -0.051  15.483  3.0383  0.4711  0.0636
 8994TIP3    H248474   1.561   0.030  15.356 -0.4615  1.1442 -0.0371
 8995TIP3   OH248475   2.646   2.407  13.990 -0.4208  0.4549  0.0078
 8995TIP3    H148476   2.571   2.349  13.993 -0.1930  0.1638  0.1252
 8995TIP3    H248477   2.694   2.389  14.071  1.8636 -2.1944 -1.7233
 8996TIP3   OH248478   5.826   6.591   2.107  0.1852 -0.0855 -0.0113
 8996TIP3    H148479   5.814   6.655   2.177  0.7431  1.1435 -0.9815
 8996TIP3    H248480   5.874   6.639   2.040 -0.6368 -1.1111 -1.3829
 8997TIP3   OH248481   2.334   1.745   0.481  0.8393  0.3838 -0.4793
 8997TIP3    H148482   2.272   1.710   0.545  0.2152  0.6338 -0.9354
 8997TIP3    H248483   2.417   1.752   0.529  1.6567 -3.8164 -0.9128
 8998TIP3   OH248484   2.495   6.011   5.053  0.0867  0.0472  0.9240
 8998TIP3    H148485   2.578   6.006   5.100  0.1759 -1.7063  0.6299
 8998TIP3    H248486   2.519   6.020   4.961  0.0406 -2.2634  0.6272
 8999TIP3   OH248487   5.645   6.197  12.075 -0.1136  0.3436 -0.4093
 8999TIP3    H148488   5.678   6.260  12.011 -2.1213  0.6266 -1.2497
 8999TIP3    H248489   5.723   6.154  12.110  1.2721  2.6437 -0.4622
 9000TIP3   OH248490   4.096   4.279  15.722  0.7148 -0.0675  0.5361
 9000TIP3    H148491   4.115   4.336  15.648 -0.1947  0.5672  0.7816
 9000TIP3    H248492   4.173   4.221  15.728  2.2351  1.8888  1.0258
 9001TIP3   OH248493   3.628   1.684  12.682 -0.3154  0.0776  0.1720
 9001TIP3    H148494   3.684   1.629  12.627  0.2006 -1.1581  1.8395
 9001TIP3    H248495   3.629   1.770  12.640 -0.3598 -0.9139 -1.9898
 9002TIP3   OH248496   0.272   0.013  13.930  0.8651  0.1740  0.1518
 9002TIP3    H148497   0.334  -0.051  13.895  0.3360  0.4048 -1.2801
 9002TIP3    H248498   0.278   0.002  14.025  2.2783 -0.5625  0.0125
 9003TIP3   OH248499   2.076   1.528   3.882  0.2604 -0.2568  0.0195
 9003TIP3    H148500   1.983   1.551   3.891 -0.1866 -2.4793  1.7910
 9003TIP3    H248501   2.076   1.434   3.866  2.2508 -0.4949  1.2138
 9004TIP3   OH248502   3.238   6.289  16.412 -0.3915 -0.5252  1.0044
 9004TIP3    H148503   3.237   6.302  16.507  2.4547  2.2658  0.8321
 9004TIP3    H248504   3.230   6.377  16.376  1.9106 -1.0895 -1.1919
 9005TIP3   OH248505   1.877   0.084   4.378 -0.3051 -0.2612  0.4011
 9005TIP3    H148506   1.802   0.041   4.337 -0.2731  1.2318 -1.3425
 9005TIP3    H248507   1.912   0.018   4.438 -1.2832 -2.0282 -0.8641
 9006TIP3   OH248508   1.524   2.934  14.431 -0.8992  0.6989  0.2921
 9006TIP3    H148509   1.517   3.029  14.419  1.2015  0.6308 -2.7446
 9006TIP3    H248510   1.473   2.898  14.358  0.4246 -0.3865 -0.1390
 9007TIP3   OH248511   5.491   2.718  16.044  0.0903  0.0695 -0.0717
 9007TIP3    H148512   5.467   2.806  16.014 -0.6700 -0.1093  0.0072
 9007TIP3    H248513   5.416   2.688  16.094  0.4063 -0.5734  0.0267
 9008TIP3   OH248514   2.429   5.611  16.577 -0.1492  0.6858  0.0901
 9008TIP3    H148515   2.392   5.559  16.506 -0.4559 -0.0158  0.7444
 9008TIP3    H248516   2.441   5.548  16.649  0.0490  1.3993  0.6949
 9009TIP3   OH248517   6.068   6.665  12.285 -0.5192 -0.3361  0.0457
 9009TIP3    H148518   6.077   6.755  12.252 -0.9594 -0.2563  0.1411
 9009TIP3    H248519   5.984   6.635  12.252 -0.7434 -0.4295  0.6859
 9010TIP3   OH248520   0.045   6.235   2.444 -0.3238 -0.1676  0.3205
 9010TIP3    H148521   0.118   6.281   2.402  0.8211 -0.4178  1.9674
 9010TIP3    H248522  -0.025   6.301   2.449 -0.5661 -0.1542 -2.0029
 9011TIP3   OH248523   3.314   4.505  15.518 -0.0098 -0.0598 -0.4258
 9011TIP3    H148524   3.221   4.528  15.524  0.1327  0.2143  1.8636
 9011TIP3    H248525   3.357   4.587  15.493 -0.3732 -0.2272 -1.6617
 9012TIP3   OH248526   4.895   3.729  14.029  0.5572 -0.1492  0.0242
 9012TIP3    H148527   4.813   3.705  14.073  0.4651  2.0782  1.1637
 9012TIP3    H248528   4.962   3.719  14.096  1.1298 -1.0972 -0.6612
 9013TIP3   OH248529   2.876   3.809  15.865 -0.2001  0.1690  0.0860
 9013TIP3    H148530   2.805   3.769  15.914  1.3319 -1.7907  0.8567
 9013TIP3    H248531   2.928   3.735  15.834  1.1069  1.5049 -1.0482
 9014TIP3   OH248532   0.939   3.946  11.823  0.0586 -0.3360 -0.0644
 9014TIP3    H148533   0.871   3.920  11.886 -0.1321  0.3866  0.0452
 9014TIP3    H248534   0.966   4.033  11.853  0.7979 -0.4800 -0.3096
 9015TIP3   OH248535   4.482   0.013  13.989 -0.0648 -0.0942 -0.2284
 9015TIP3    H148536   4.427  -0.041  13.932  0.2456  1.2428 -1.9139
 9015TIP3    H248537   4.566   0.017  13.944  0.5631  0.0821  0.9278
 9016TIP3   OH248538   4.288   4.749  14.812 -0.0810 -0.0212  0.4970
 9016TIP3    H148539   4.218   4.763  14.876  0.5563 -0.4148  1.3051
 9016TIP3    H248540   4.276   4.818  14.747 -0.4306  0.7300  1.3337
 9017TIP3   OH248541   4.656   2.404   3.974  0.8342  0.4950 -0.0710
 9017TIP3    H148542   4.560   2.403   3.972  0.8410 -0.9672 -0.3506
 9017TIP3    H248543   4.679   2.493   3.946 -0.4489  1.4003  1.6029
 9018TIP3   OH248544   1.723   1.792  15.679  0.3754  0.1499  0.6620
 9018TIP3    H148545   1.767   1.833  15.754 -1.1579 -0.0855  1.7410
 9018TIP3    H248546   1.718   1.700  15.702  0.7136 -0.0937 -0.1861
 9019TIP3   OH248547   1.002   3.837  15.592  0.1185 -0.1003 -0.2000
 9019TIP3    H148548   0.983   3.838  15.498  0.3368 -0.3724 -0.2498
 9019TIP3    H248549   1.013   3.929  15.616  1.3933 -0.0938 -0.7228
 9020TIP3   OH248550   1.682   0.742  15.011  0.7957  0.7140 -0.0824
 9020TIP3    H148551   1.691   0.703  14.924  1.6928  0.9975 -0.1241
 9020TIP3    H248552   1.587   0.743  15.027  0.5836  1.1107 -1.2541
 9021TIP3   OH248553   6.636   0.627   3.799 -0.6746  0.6422  0.0231
 9021TIP3    H148554   6.598   0.642   3.713 -2.4284 -1.9500  0.2286
 9021TIP3    H248555   6.564   0.641   3.860  0.1595  0.9600  0.9677
 9022TIP3   OH248556   1.745   3.063  14.097  0.0120 -0.0843 -0.1965
 9022TIP3    H148557   1.738   3.053  14.002  1.8336  0.7856 -0.4784
 9022TIP3    H248558   1.664   3.027  14.132  1.2253 -5.0748 -1.7329
 9023TIP3   OH248559   1.604   5.028  12.461 -0.0449  0.0419 -0.8396
 9023TIP3    H148560   1.624   4.986  12.378 -1.2223  0.4000 -1.3189
 9023TIP3    H248561   1.664   5.103  12.465  0.2520 -0.1749 -1.1999
 9024TIP3   OH248562   0.617   2.383   6.432 -0.6390 -0.3275 -0.0595
 9024TIP3    H148563   0.581   2.442   6.367 -1.9371 -2.9902 -1.9399
 9024TIP3    H248564   0.545   2.369   6.494 -0.1418  0.4572  0.7196
 9025TIP3   OH248565   5.053   1.309   4.254 -0.2208 -0.4050 -0.2466
 9025TIP3    H148566   5.090   1.233   4.210 -2.0260 -0.1748 -2.3391
 9025TIP3    H248567   5.074   1.383   4.197 -0.0114  0.4184  0.8593
 9026TIP3   OH248568   0.496   3.883  13.099 -0.3228 -0.3732 -0.1635
 9026TIP3    H148569   0.459   3.804  13.060  1.0338 -0.6876 -0.8796
 9026TIP3    H248570   0.421   3.940  13.113 -1.1908 -1.3642 -0.6492
 9027TIP3   OH248571   0.508   1.352   0.991 -0.0505  0.2373 -0.1360
 9027TIP3    H148572   0.487   1.411   1.063  0.4358 -1.2909  1.3260
 9027TIP3    H248573   0.547   1.275   1.033  0.1260 -0.7793 -2.0227
 9028TIP3   OH248574   0.464   4.213  12.827  0.3717 -0.7269 -0.8454
 9028TIP3    H148575   0.490   4.141  12.769  0.2314 -0.5560 -1.1240
 9028TIP3    H248576   0.471   4.291  12.772  1.9654 -0.3254 -0.1475
 9029TIP3   OH248577   3.930   6.753   3.111 -0.3910 -0.2506  0.2326
 9029TIP3    H148578   3.937   6.750   3.015  1.0953  3.0689  0.1011
 9029TIP3    H248579   3.999   6.694   3.142 -1.0474 -1.5510 -0.6827
 9030TIP3   OH248580   3.843   0.069   0.224 -0.3745  0.1287  0.3878
 9030TIP3    H148581   3.758   0.068   0.180 -0.6376  2.1209  0.7439
 9030TIP3    H248582   3.843   0.151   0.274  2.3962  1.0138 -0.8582
 9031TIP3   OH248583   2.288   5.329  14.797  0.4497 -0.0559 -0.2064
 9031TIP3    H148584   2.318   5.400  14.741  0.5429  1.1047  1.2489
 9031TIP3    H248585   2.222   5.284  14.745 -0.3164  1.7027 -0.8385
 9032TIP3   OH248586   3.001   5.713  16.160 -0.3113 -0.6938 -0.2690
 9032TIP3    H148587   3.014   5.634  16.107  4.5385  1.2014 -2.4546
 9032TIP3    H248588   3.065   5.705  16.231 -1.5855  0.2354  1.0596
 9033TIP3   OH248589   5.772   6.400   3.694 -0.2436  0.0473 -0.1427
 9033TIP3    H148590   5.787   6.362   3.607 -1.8624  0.4309 -0.6234
 9033TIP3    H248591   5.857   6.437   3.719  0.0427  0.7200 -1.9674
 9034TIP3   OH248592   5.974   1.629  16.986  0.0717  0.2985  0.2451
 9034TIP3    H148593   5.923   1.621  16.906 -0.1517  2.1102  0.1834
 9034TIP3    H248594   5.999   1.539  17.007 -0.2090 -0.2497 -1.6212
 9035TIP3   OH248595   5.275   3.029   0.833 -0.5265 -0.2022  0.2346
 9035TIP3    H148596   5.317   3.054   0.751 -0.5082 -0.0301  0.2959
 9035TIP3    H248597   5.346   2.994   0.886 -0.9053 -2.4249 -0.6421
 9036TIP3   OH248598   6.319   1.214  12.483 -0.3072  0.2877 -0.1298
 9036TIP3    H148599   6.346   1.302  12.455 -0.2219  0.4829  0.5524
 9036TIP3    H248600   6.274   1.178  12.406 -0.6686  1.0709 -0.3050
 9037TIP3   OH248601   1.513   6.569   2.364  0.1602 -0.0649  0.2387
 9037TIP3    H148602   1.438   6.511   2.380 -0.0526  0.3879  0.9135
 9037TIP3    H248603   1.525   6.567   2.269 -0.0696 -0.9347  0.2223
 9038TIP3   OH248604   0.537   0.196   3.047 -0.0937  0.1381  0.2823
 9038TIP3    H148605   0.578   0.131   3.105 -0.4014  0.7824  1.2525
 9038TIP3    H248606   0.445   0.196   3.072 -0.6638 -1.0116 -1.6149
 9039TIP3   OH248607   2.956   2.632  16.964 -0.0390 -0.1498  0.0363
 9039TIP3    H148608   2.944   2.727  16.964 -0.2872 -0.1812  0.5022
 9039TIP3    H248609   3.035   2.618  16.911 -0.5255  0.2486 -0.8089
 9040TIP3   OH248610   0.866   1.604   0.014 -0.1550 -0.5478 -0.4180
 9040TIP3    H148611   0.792   1.544   0.015 -0.9966  0.3240  2.8824
 9040TIP3    H248612   0.943   1.547   0.020 -0.8294 -1.3763  0.8049
 9041TIP3   OH248613   1.457   5.859  11.358  0.1930 -0.4993  0.0576
 9041TIP3    H148614   1.461   5.784  11.417  0.6305 -0.9879 -0.5760
 9041TIP3    H248615   1.369   5.895  11.370  0.2473 -0.6356  0.9364
 9042TIP3   OH248616   6.518   5.854   5.712  0.0211 -0.4326 -0.1093
 9042TIP3    H148617   6.472   5.935   5.733  0.3171  0.1218 -1.4413
 9042TIP3    H248618   6.448   5.792   5.689 -0.1583 -0.2052 -0.1800
 9043TIP3   OH248619   5.044   1.987   5.985  0.1780  0.4555 -0.2059
 9043TIP3    H148620   5.038   1.894   6.007  1.0422  0.1837 -1.0605
 9043TIP3    H248621   4.959   2.008   5.948  0.0739 -0.0666 -0.2716
 9044TIP3   OH248622   5.822   3.445   5.227  0.0366 -0.2576 -0.0887
 9044TIP3    H148623   5.818   3.433   5.132 -2.0528  1.9491 -0.3740
 9044TIP3    H248624   5.870   3.527   5.238  0.3500 -0.5558  0.7785
 9045TIP3   OH248625   2.900   1.857   4.058  0.1567  0.1391  0.0390
 9045TIP3    H148626   2.862   1.799   3.991  1.3061 -1.3674  0.6222
 9045TIP3    H248627   2.908   1.802   4.136  2.7297  0.5669  0.1799
 9046TIP3   OH248628   5.024   5.476  12.239 -0.1967  0.0219  0.5183
 9046TIP3    H148629   5.038   5.403  12.179  1.2219 -0.8394  1.8059
 9046TIP3    H248630   5.022   5.553  12.183  1.9524 -0.6516 -0.5982
 9047TIP3   OH248631   2.536   2.901  12.751  0.2870 -0.0492  0.0375
 9047TIP3    H148632   2.448   2.910  12.788 -0.1477 -0.8803 -0.7465
 9047TIP3    H248633   2.554   2.807  12.756 -0.1659 -0.3539 -2.6157
 9048TIP3   OH248634   6.029   4.063   5.354  0.1988  0.2507 -0.0286
 9048TIP3    H148635   6.119   4.068   5.322  0.2501 -0.3815  0.0051
 9048TIP3    H248636   6.028   3.986   5.411 -0.0468  0.9827  1.0031
 9049TIP3   OH248637   4.772   1.945   5.117 -0.3227  0.0131 -0.2334
 9049TIP3    H148638   4.836   1.929   5.048  1.4875  0.0378  1.3828
 9049TIP3    H248639   4.818   1.925   5.198 -1.4115  2.8512  1.2108
 9050TIP3   OH248640   2.179   0.678   5.292 -0.0377  0.4193  0.1882
 9050TIP3    H148641   2.214   0.664   5.204 -1.2425 -0.1642 -0.2125
 9050TIP3    H248642   2.088   0.703   5.278 -0.7004 -1.1919  1.2931
 9051TIP3   OH248643   2.290   0.195   6.365  0.3365 -0.6119  0.3934
 9051TIP3    H148644   2.280   0.290   6.356  3.0319 -0.2176  0.8727
 9051TIP3    H248645   2.252   0.174   6.450  0.1132  0.0869  0.4701
 9052TIP3   OH248646   1.547   6.101   1.838  0.4675 -1.1030 -0.3963
 9052TIP3    H148647   1.482   6.168   1.818  0.0234 -1.1681  0.7777
 9052TIP3    H248648   1.496   6.020   1.844  0.9350 -1.4838 -1.3614
 9053TIP3   OH248649   0.190   1.998  15.891 -0.4310  0.0893 -0.2651
 9053TIP3    H148650   0.206   1.999  15.797  0.0747  0.4415 -0.1770
 9053TIP3    H248651   0.233   2.077  15.924 -0.8862  0.1473  0.2168
 9054TIP3   OH248652   1.809   1.939   3.975  0.4536 -0.7016  0.2693
 9054TIP3    H148653   1.826   1.881   3.901  1.0225  0.2790 -0.3959
 9054TIP3    H248654   1.894   1.945   4.020  0.5264 -0.0284  0.0567
 9055TIP3   OH248655   2.729   3.562  13.150 -0.4972 -0.2186 -0.0463
 9055TIP3    H148656   2.824   3.562  13.142 -0.5942 -1.7586 -1.8181
 9055TIP3    H248657   2.700   3.636  13.096 -0.3512 -0.4007 -0.3750
 9056TIP3   OH248658   0.351   0.393  11.897 -0.1557  0.3881  0.3804
 9056TIP3    H148659   0.388   0.458  11.956  1.7168 -0.8945  0.7049
 9056TIP3    H248660   0.398   0.312  11.917 -0.1276 -0.3258 -2.1835
 9057TIP3   OH248661   5.569   5.190   5.524  0.4250  0.0910 -0.2300
 9057TIP3    H148662   5.536   5.271   5.563  0.1305  0.9947 -2.2617
 9057TIP3    H248663   5.500   5.126   5.540 -0.2874  0.7901 -0.4725
 9058TIP3   OH248664   2.537   0.446   1.066  0.0453  0.0744 -0.1494
 9058TIP3    H148665   2.521   0.352   1.076  3.2646 -0.4155  1.7271
 9058TIP3    H248666   2.495   0.486   1.142  1.2979 -0.2819  0.7544
 9059TIP3   OH248667   0.539   1.062   0.187  0.7282  0.5212 -0.2740
 9059TIP3    H148668   0.552   1.129   0.119 -1.4912  0.7007 -0.5997
 9059TIP3    H248669   0.553   1.109   0.269  0.9660  0.9377 -0.5466
 9060TIP3   OH248670   1.313   3.937  12.808  0.0907  0.2575 -0.4612
 9060TIP3    H148671   1.338   4.024  12.777  0.7923 -0.0516 -0.7794
 9060TIP3    H248672   1.369   3.877  12.759 -0.9489 -0.4286 -0.8497
 9061TIP3   OH248673   5.164   3.630  10.920  0.1468 -0.3914 -0.0195
 9061TIP3    H148674   5.176   3.573  10.997 -1.4395  0.0890  0.6262
 9061TIP3    H248675   5.174   3.572  10.845  1.1702 -0.9820  0.5418
 9062TIP3   OH248676   0.602   0.783  13.471  0.7094  0.1590  0.3437
 9062TIP3    H148677   0.509   0.765  13.484  0.7630 -0.1325  0.3224
 9062TIP3    H248678   0.616   0.869  13.512 -0.1552  1.5347 -2.0862
 9063TIP3   OH248679   2.863   0.582  10.839  0.1613  0.1508  0.1482
 9063TIP3    H148680   2.947   0.536  10.840  0.2280  0.2670 -0.0672
 9063TIP3    H248681   2.832   0.578  10.930  0.1425 -0.3615  0.1181
 9064TIP3   OH248682   2.982   0.419   3.214  0.3169 -0.1871  0.0449
 9064TIP3    H148683   2.914   0.396   3.277  1.1884 -0.4437  0.9247
 9064TIP3    H248684   3.020   0.335   3.189  0.3290 -0.0445 -0.4205
 9065TIP3   OH248685   5.514   3.940  11.947  0.2145  0.7490 -0.1864
 9065TIP3    H148686   5.595   3.972  11.988  0.2481 -1.5757  1.8092
 9065TIP3    H248687   5.444   3.979  12.000  0.2330 -1.3783  1.5325
 9066TIP3   OH248688   0.952   5.003  14.960 -0.1209 -0.4945  0.1086
 9066TIP3    H148689   1.047   4.998  14.961 -0.0761 -0.2505 -1.2064
 9066TIP3    H248690   0.923   4.912  14.968  0.2239 -0.5996  0.1831
 9067TIP3   OH248691   1.217   0.495   0.120  0.5383 -0.1152  0.2329
 9067TIP3    H148692   1.292   0.445   0.152  0.1328 -1.5720 -1.0034
 9067TIP3    H248693   1.249   0.540   0.043 -0.5054 -3.1960 -2.2191
 9068TIP3   OH248694   5.857   4.456   5.605  0.0498 -0.6489 -0.2152
 9068TIP3    H148695   5.781   4.504   5.573  1.5219  0.0794 -2.8743
 9068TIP3    H248696   5.861   4.378   5.550  0.8013 -1.0654  0.4145
 9069TIP3   OH248697   6.624   2.507   5.913  0.2370  0.7427  0.4964
 9069TIP3    H148698   6.598   2.524   6.003  0.5565 -0.1722  0.7756
 9069TIP3    H248699   6.717   2.485   5.918 -0.0954 -0.9186  0.1819
 9070TIP3   OH248700   5.103   5.239  11.272 -0.4201 -0.3441 -0.4035
 9070TIP3    H148701   5.057   5.207  11.195 -0.3177  0.2476 -0.7192
 9070TIP3    H248702   5.041   5.227  11.344 -0.1100 -1.9178 -0.3709
 9071TIP3   OH248703   0.044   0.094  13.087 -0.0160 -0.6144 -0.3870
 9071TIP3    H148704  -0.030   0.137  13.129  0.3882 -1.2093  0.9955
 9071TIP3    H248705   0.095   0.166  13.050  0.9131  0.2351  2.3199
 9072TIP3   OH248706   6.362   1.574  14.092 -0.0745  0.4947  0.3188
 9072TIP3    H148707   6.441   1.550  14.141 -0.9676 -1.9912  0.7024
 9072TIP3    H248708   6.300   1.602  14.159 -0.1299  0.6100  0.2190
 9073TIP3   OH248709   1.208   6.271   2.654  0.2728  0.4561 -0.6584
 9073TIP3    H148710   1.119   6.257   2.622  0.5877 -0.6208 -1.1037
 9073TIP3    H248711   1.225   6.197   2.711  0.8014  0.7924 -0.3686
 9074TIP3   OH248712   6.758   0.222  11.630  0.2723  0.7611  0.6173
 9074TIP3    H148713   6.742   0.154  11.564 -2.0235  0.6868  1.1751
 9074TIP3    H248714   6.851   0.213  11.651  0.9595  0.4138 -2.1515
 9075TIP3   OH248715   0.385   0.573   4.694 -0.0036  0.1484  0.1004
 9075TIP3    H148716   0.386   0.652   4.640 -1.6827  0.1010 -0.0311
 9075TIP3    H248717   0.471   0.532   4.679 -0.4370  0.0970 -2.5967
 9076TIP3   OH248718   6.047   5.448  13.131  0.2793  0.0297  0.5054
 9076TIP3    H148719   5.967   5.449  13.079 -0.2418 -0.3113  1.2860
 9076TIP3    H248720   6.115   5.418  13.070 -0.6276 -1.9936  0.4268
 9077TIP3   OH248721   2.629   6.151   4.842 -0.1930 -0.0116  0.3953
 9077TIP3    H148722   2.725   6.155   4.837 -0.1739 -0.1425  0.6343
 9077TIP3    H248723   2.605   6.225   4.897 -0.2686  0.3339 -0.0978
 9078TIP3   OH248724   5.208   6.108   4.144  0.2672 -0.6893  0.1192
 9078TIP3    H148725   5.122   6.120   4.103 -0.3987  1.2729  1.8812
 9078TIP3    H248726   5.258   6.057   4.081 -1.6516 -0.4388 -1.7164
 9079TIP3   OH248727   3.184   6.759   4.222 -0.0267  0.2077  0.0042
 9079TIP3    H148728   3.097   6.719   4.215 -0.7651  1.9981 -2.4403
 9079TIP3    H248729   3.240   6.708   4.164  0.0865  0.2249  0.0966
 9080TIP3   OH248730   0.734   0.154  15.084  0.2069  0.3038  0.2694
 9080TIP3    H148731   0.755   0.234  15.035  3.4738  0.1938  1.2482
 9080TIP3    H248732   0.744   0.083  15.020 -0.7226  0.4829 -0.1019
 9081TIP3   OH248733   1.971   3.770  16.477 -0.2742  0.7696 -0.2647
 9081TIP3    H148734   1.990   3.792  16.386  1.9015  2.9299  0.6144
 9081TIP3    H248735   1.947   3.853  16.518 -1.4043 -0.1826  1.1410
 9082TIP3   OH248736   0.002   5.771  15.031 -0.6237 -0.3514 -0.1140
 9082TIP3    H148737  -0.001   5.688  14.983 -2.0316 -0.3299 -0.0802
 9082TIP3    H248738  -0.047   5.833  14.977  2.1524  1.0925 -1.2210
 9083TIP3   OH248739   2.444   5.384  15.295  0.0077  0.1763  0.4326
 9083TIP3    H148740   2.377   5.428  15.348 -0.5966  0.1538 -0.3073
 9083TIP3    H248741   2.425   5.410  15.205  1.8596  1.3537  0.3152
 9084TIP3   OH248742   2.210   4.037   1.628  0.1270  0.1148 -0.5467
 9084TIP3    H148743   2.130   4.052   1.678 -0.3956 -0.8110 -1.0684
 9084TIP3    H248744   2.185   3.971   1.564  1.3498 -0.2572 -0.6494
 9085TIP3   OH248745   2.875   2.916   0.939  0.1940  0.0595  0.0907
 9085TIP3    H148746   2.890   2.934   1.032  1.1594 -1.4561  0.2774
 9085TIP3    H248747   2.898   2.997   0.894  0.9909  0.4083  1.0840
 9086TIP3   OH248748   3.925   5.752   2.700  0.2232  0.0675  0.4659
 9086TIP3    H148749   4.009   5.772   2.742  0.4797  0.7143 -0.3233
 9086TIP3    H248750   3.920   5.814   2.627 -0.7630 -0.2310  0.2701
 9087TIP3   OH248751   5.081   6.213   6.486 -0.5301  0.5139 -0.0078
 9087TIP3    H148752   5.148   6.150   6.512 -0.6784 -0.0996 -1.0207
 9087TIP3    H248753   5.007   6.195   6.543 -0.7442 -0.5853 -0.6045
 9088TIP3   OH248754   3.176   5.668  12.250 -0.2668  0.1289  0.0400
 9088TIP3    H148755   3.241   5.661  12.180 -1.0423  1.6789 -0.8988
 9088TIP3    H248756   3.227   5.694  12.327  0.6285 -1.8261  0.1693
 9089TIP3   OH248757   6.301   1.918   0.847  0.6552  0.1009  0.5423
 9089TIP3    H148758   6.207   1.926   0.835  0.5641 -0.0400  1.1299
 9089TIP3    H248759   6.319   1.824   0.834  0.9539  0.3510 -1.1181
 9090TIP3   OH248760   3.599   5.144  16.780  0.3286 -0.6556  0.8938
 9090TIP3    H148761   3.647   5.223  16.803 -1.0958  0.1383  1.3059
 9090TIP3    H248762   3.663   5.074  16.785  1.6488  0.4714  0.4576
 9091TIP3   OH248763   0.709   5.272  12.107 -0.2854 -0.4039  0.5538
 9091TIP3    H148764   0.657   5.225  12.172  0.8803 -0.2914  1.6136
 9091TIP3    H248765   0.768   5.206  12.071  1.3490  0.1552  2.0365
 9092TIP3   OH248766   5.273   4.409   6.627  0.6340 -0.1527 -0.7285
 9092TIP3    H148767   5.320   4.492   6.617 -0.2945  0.4197 -0.4179
 9092TIP3    H248768   5.181   4.432   6.619  0.3150 -1.0417  0.1621
 9093TIP3   OH248769   6.468   0.472  16.776 -0.6785  0.1057 -0.1638
 9093TIP3    H148770   6.555   0.433  16.763 -0.6109 -0.6624  2.1871
 9093TIP3    H248771   6.486   0.558  16.812 -0.9105  1.0458 -2.1276
 9094TIP3   OH248772   1.252   0.085  16.201 -0.2976  0.0857 -0.5425
 9094TIP3    H148773   1.280   0.093  16.110 -1.6012  1.3220 -0.8643
 9094TIP3    H248774   1.194   0.159  16.215 -1.1780 -0.8275  0.9145
 9095TIP3   OH248775   0.625   0.221  16.464  0.1864  0.1269 -0.4086
 9095TIP3    H148776   0.587   0.191  16.382 -1.2869  0.4577  0.1317
 9095TIP3    H248777   0.550   0.237  16.521  1.1846 -0.4393  1.1297
 9096TIP3   OH248778   0.630   5.535   6.106 -0.1343 -0.2379  0.2124
 9096TIP3    H148779   0.667   5.514   6.019  0.3011  0.1416  0.3025
 9096TIP3    H248780   0.586   5.618   6.093  1.5577  0.8037  0.7830
 9097TIP3   OH248781   0.667   4.540  16.153  0.0556 -0.7536 -0.2910
 9097TIP3    H148782   0.723   4.471  16.117 -0.9097 -1.3615 -0.6675
 9097TIP3    H248783   0.670   4.609  16.087  1.3619 -0.2215  0.2796
 9098TIP3   OH248784   6.106   1.148   3.734  0.1198 -0.2102  0.1633
 9098TIP3    H148785   6.131   1.107   3.817 -1.1438 -1.9314 -0.2511
 9098TIP3    H248786   6.079   1.237   3.759  2.1668  0.1815  1.1977
 9099TIP3   OH248787   0.532   2.605   0.494  0.9926 -0.0632 -0.3109
 9099TIP3    H148788   0.481   2.570   0.567  1.1460  1.5721  0.6451
 9099TIP3    H248789   0.621   2.573   0.509  0.4888 -2.2692 -1.5460
 9100TIP3   OH248790   2.258   2.077  12.023  0.0128 -0.2514  0.6024
 9100TIP3    H148791   2.306   2.090  11.942  0.7619 -0.9215  0.9199
 9100TIP3    H248792   2.321   2.100  12.092 -0.4432 -0.1932  1.0049
 9101TIP3   OH248793   0.175   1.348   3.182  0.0818  0.6007  0.1860
 9101TIP3    H148794   0.100   1.384   3.228  0.0067  0.0431  0.5126
 9101TIP3    H248795   0.143   1.267   3.142  0.7694 -0.2215  1.2401
 9102TIP3   OH248796   4.871   0.642   3.118  0.4321 -0.3357  0.0391
 9102TIP3    H148797   4.872   0.655   3.023 -0.5618  0.4492  0.1154
 9102TIP3    H248798   4.780   0.620   3.139  0.8864 -1.6717  0.6815
 9103TIP3   OH248799   5.464   5.294  17.042  0.2154 -0.2376  0.5306
 9103TIP3    H148800   5.443   5.368  17.098 -0.3203 -0.3782  0.5249
 9103TIP3    H248801   5.520   5.238  17.096  0.3275 -0.0051  0.6581
 9104TIP3   OH248802   0.599   0.870  15.749 -0.7476  0.2254 -0.6297
 9104TIP3    H148803   0.595   0.903  15.659 -2.6825 -1.6737 -1.3179
 9104TIP3    H248804   0.594   0.775  15.740  2.6677 -0.3149  1.3582
 9105TIP3   OH248805   5.217   5.310   2.099  0.4160 -0.0498 -0.3531
 9105TIP3    H148806   5.143   5.370   2.103  0.1784 -0.2141 -1.7889
 9105TIP3    H248807   5.183   5.227   2.132  0.3731  0.2308  0.3383
 9106TIP3   OH248808   6.239   5.639  17.167 -0.0265 -0.6905  0.2667
 9106TIP3    H148809   6.310   5.575  17.175  0.8444 -0.1289 -2.1892
 9106TIP3    H248810   6.283   5.722  17.149 -1.2417 -0.3566 -1.4787
 9107TIP3   OH248811   0.725   5.711   1.590 -0.3141 -0.0714  0.5581
 9107TIP3    H148812   0.745   5.626   1.552  0.7539  0.4616 -0.1367
 9107TIP3    H248813   0.742   5.774   1.519  0.9497  0.8821  1.6376
 9108TIP3   OH248814   4.582   2.738   1.854  0.1279  0.7203  0.0555
 9108TIP3    H148815   4.646   2.772   1.792  1.5295 -0.3222  0.8583
 9108TIP3    H248816   4.527   2.813   1.876  1.3250  1.7563 -0.3694
 9109TIP3   OH248817   2.433   1.315   2.853  0.1112  0.0123 -0.6522
 9109TIP3    H148818   2.366   1.373   2.890  1.3262 -0.2891  2.3184
 9109TIP3    H248819   2.383   1.250   2.803 -2.0785 -1.0401  2.5759
 9110TIP3   OH248820   6.575   4.764  15.108  0.1730 -0.2266 -0.4320
 9110TIP3    H148821   6.484   4.785  15.131  0.4826  0.1659  0.4565
 9110TIP3    H248822   6.572   4.750  15.013 -0.9523 -0.9551 -0.3162
 9111TIP3   OH248823   2.016   3.187   5.970  0.6859 -0.1572  0.3259
 9111TIP3    H148824   1.931   3.155   5.999 -0.6116  2.7879  0.1083
 9111TIP3    H248825   2.012   3.182   5.874 -0.0145  1.5780  0.2239
 9112TIP3   OH248826   0.973   4.214  13.138  0.1174 -0.2970 -0.2485
 9112TIP3    H148827   0.949   4.123  13.118 -1.5834 -0.6806  2.9070
 9112TIP3    H248828   0.984   4.255  13.052 -2.9262 -2.5057 -1.8768
 9113TIP3   OH248829   0.476   0.598   0.190 -0.4352  0.1302 -0.2504
 9113TIP3    H148830   0.466   0.508   0.160 -0.3181 -0.0984  0.3812
 9113TIP3    H248831   0.407   0.646   0.143  0.0091 -0.1305 -1.1945
 9114TIP3   OH248832   4.325   2.693  16.234 -0.0594  0.2600 -0.6199
 9114TIP3    H148833   4.359   2.774  16.197  0.7279 -0.1132 -0.7343
 9114TIP3    H248834   4.367   2.624  16.183 -0.9690 -0.2161 -0.7344
 9115TIP3   OH248835   1.807   3.402  13.255  0.4814  0.0259 -0.2848
 9115TIP3    H148836   1.817   3.477  13.195  1.7409 -0.1233 -0.2973
 9115TIP3    H248837   1.869   3.337  13.222 -0.2118 -0.8236  0.0542
 9116TIP3   OH248838   0.884   2.865   1.009 -0.3278  0.0567 -0.3481
 9116TIP3    H148839   0.836   2.882   0.928  0.5120  1.6894 -0.5585
 9116TIP3    H248840   0.934   2.785   0.992 -1.8071 -0.8382 -0.6437
 9117TIP3   OH248841   2.800   1.343  13.203 -0.9279  0.1228  0.4931
 9117TIP3    H148842   2.718   1.334  13.153 -1.0219 -0.8345  0.7936
 9117TIP3    H248843   2.810   1.259  13.247  1.3117 -0.5566 -1.1703
 9118TIP3   OH248844   0.731   1.624   2.691 -0.0094  0.0908  0.3102
 9118TIP3    H148845   0.722   1.546   2.637 -0.3338  0.7013 -0.5282
 9118TIP3    H248846   0.800   1.602   2.753  0.4142 -0.5907 -0.3927
 9119TIP3   OH248847   4.206   5.964   2.805  0.0641  0.2161 -0.0258
 9119TIP3    H148848   4.272   6.024   2.771 -0.6594  0.9809 -0.1079
 9119TIP3    H248849   4.203   5.893   2.740  0.1037  0.6751 -0.5366
 9120TIP3   OH248850   6.064   6.801  14.869  0.3745 -0.2878 -0.2587
 9120TIP3    H148851   6.033   6.722  14.913  1.9438 -1.2014 -0.7356
 9120TIP3    H248852   6.042   6.872  14.929 -2.5326 -0.8307 -0.5192
 9121TIP3   OH248853   5.027   4.662   4.372  0.5178  0.3318  0.3678
 9121TIP3    H148854   5.118   4.692   4.380  0.5542  0.2981  0.0600
 9121TIP3    H248855   4.985   4.727   4.316  0.2347  0.5984  0.8853
 9122TIP3   OH248856   1.665   0.716  16.904 -0.0523  0.3499 -0.4587
 9122TIP3    H148857   1.719   0.727  16.982 -1.0100  1.5903  0.0623
 9122TIP3    H248858   1.644   0.622  16.902  0.7903  0.1361  0.2030
 9123TIP3   OH248859   5.284   0.196  10.982  0.7666 -0.1194 -0.4350
 9123TIP3    H148860   5.223   0.131  10.948 -1.8925  0.9352  1.9341
 9123TIP3    H248861   5.249   0.280  10.953  1.6384  0.4835  0.1893
 9124TIP3   OH248862   3.160   5.852   2.725 -0.4935  0.1182  0.0757
 9124TIP3    H148863   3.165   5.946   2.743 -0.6408  0.0069  0.7275
 9124TIP3    H248864   3.075   5.825   2.760  0.7752 -0.8274  2.7506
 9125TIP3   OH248865   5.967   1.925  11.014  0.4342 -0.4139  0.1635
 9125TIP3    H148866   5.960   1.982  11.091  1.0327  3.2816 -2.2543
 9125TIP3    H248867   6.061   1.917  10.999  0.3869  1.2440 -1.5602
 9126TIP3   OH248868   5.252   0.250   5.551  0.3761  0.4028 -0.3349
 9126TIP3    H148869   5.185   0.277   5.613 -1.0287 -0.8046 -1.2703
 9126TIP3    H248870   5.204   0.216   5.475  1.9096 -3.2718  0.1058
 9127TIP3   OH248871   2.958   6.422  13.233 -0.4693 -0.1977 -0.3084
 9127TIP3    H148872   2.916   6.338  13.252 -0.9454 -0.0235 -0.5480
 9127TIP3    H248873   3.009   6.442  13.311 -1.0685 -0.2835  0.1198
 9128TIP3   OH248874   6.681   2.769   1.918  0.3284 -0.1091 -0.3269
 9128TIP3    H148875   6.686   2.696   1.856 -0.3722 -3.3800  3.0543
 9128TIP3    H248876   6.587   2.787   1.926  0.5121  1.5527 -1.4016
 9129TIP3   OH248877   2.517   2.274  15.326 -0.1651  0.5248 -0.0215
 9129TIP3    H148878   2.458   2.218  15.274 -2.2735  0.7917  1.9373
 9129TIP3    H248879   2.584   2.214  15.358 -0.9060 -0.3687 -0.0952
 9130TIP3   OH248880   3.881   4.081  15.521 -0.6883 -0.1666  0.1072
 9130TIP3    H148881   3.904   3.989  15.515 -2.3817 -0.5483 -1.3677
 9130TIP3    H248882   3.961   4.128  15.497 -0.2909 -1.3007 -0.8466
 9131TIP3   OH248883   1.970   0.777   1.874  0.3783  0.2856 -0.4512
 9131TIP3    H148884   1.998   0.754   1.963 -1.2885 -0.7742 -0.1560
 9131TIP3    H248885   1.912   0.706   1.848  0.7031  0.6544 -2.3519
 9132TIP3   OH248886   3.049   1.334  12.273 -0.4301  0.1606 -0.0859
 9132TIP3    H148887   3.108   1.264  12.298  0.3643  1.5421  2.2218
 9132TIP3    H248888   3.017   1.310  12.186 -0.4881 -3.1955  0.7544
 9133TIP3   OH248889   5.663   1.579  16.514  0.0411 -0.4474 -0.2729
 9133TIP3    H148890   5.575   1.582  16.477 -1.0279  0.4865  2.0870
 9133TIP3    H248891   5.694   1.490  16.498 -1.4104 -0.8386 -0.9984
 9134TIP3   OH248892   0.088   1.149   5.854  0.3251 -0.1445 -0.3175
 9134TIP3    H148893   0.004   1.106   5.870  0.7792 -0.6496  0.8048
 9134TIP3    H248894   0.065   1.234   5.817 -0.6129 -1.0156 -1.8449
 9135TIP3   OH248895   5.300   1.728  15.193  0.6411 -0.1067  0.2161
 9135TIP3    H148896   5.260   1.766  15.271 -0.3054 -0.8672  0.1232
 9135TIP3    H248897   5.382   1.775  15.183  1.0438 -0.3715  1.9746
 9136TIP3   OH248898   6.649   3.642   6.255  0.5355  0.1134  0.1919
 9136TIP3    H148899   6.664   3.548   6.252 -1.4171 -0.2226 -0.4225
 9136TIP3    H248900   6.561   3.654   6.220 -0.1653  1.9642  2.3161
 9137TIP3   OH248901   3.487   3.730   3.340  0.0393  0.1343 -0.5189
 9137TIP3    H148902   3.517   3.821   3.347  0.3221  0.0402 -0.4695
 9137TIP3    H248903   3.536   3.683   3.408 -0.4836  0.0380 -0.2046
 9138TIP3   OH248904   5.581   2.448   5.542  0.1897  0.2266  0.3260
 9138TIP3    H148905   5.566   2.381   5.609  0.0523  0.0576  0.1277
 9138TIP3    H248906   5.495   2.462   5.502  0.5622 -0.9673 -1.0198
 9139TIP3   OH248907   4.830   2.841   4.311 -0.2469 -0.0414  0.5058
 9139TIP3    H148908   4.792   2.804   4.391  0.0038  0.1986  0.7369
 9139TIP3    H248909   4.892   2.907   4.342  0.3318 -0.3979  0.1305
 9140TIP3   OH248910   1.678   4.349   5.512 -1.0189  0.1829 -0.6601
 9140TIP3    H148911   1.602   4.397   5.480 -1.6409  0.2511  0.8171
 9140TIP3    H248912   1.644   4.299   5.587  0.6693  1.3475  0.9580
 9141TIP3   OH248913   5.432   0.066   4.787  0.9081  0.0046  0.4617
 9141TIP3    H148914   5.416   0.158   4.809 -0.1551 -0.2767  0.9216
 9141TIP3    H248915   5.366   0.045   4.721  0.6062 -0.6559  0.9621
 9142TIP3   OH248916   5.693   2.460   2.013 -0.0109 -0.1622  0.2366
 9142TIP3    H148917   5.723   2.371   1.996  1.1834  0.4630 -1.1692
 9142TIP3    H248918   5.751   2.516   1.961 -1.1939  1.4008  0.4962
 9143TIP3   OH248919   6.145   0.259  13.253 -0.1919  0.6535 -0.5975
 9143TIP3    H148920   6.065   0.308  13.233 -0.0112  0.7102 -1.1894
 9143TIP3    H248921   6.206   0.283  13.183  0.4258  0.7989 -0.0221
 9144TIP3   OH248922   4.401   5.572   5.656  0.0213 -0.1343  0.1888
 9144TIP3    H148923   4.385   5.641   5.592  0.3987 -1.0530 -0.9479
 9144TIP3    H248924   4.401   5.616   5.741  1.9390  1.5522 -0.6063
 9145TIP3   OH248925   4.369   5.076  11.978 -0.4193  0.1453  0.1148
 9145TIP3    H148926   4.404   5.165  11.980 -1.0854  0.4921 -1.4438
 9145TIP3    H248927   4.294   5.082  11.918 -1.7308 -1.0462  1.5353
 9146TIP3   OH248928   2.010   2.916   1.888 -0.4030 -0.2047  0.2824
 9146TIP3    H148929   1.958   2.883   1.962  0.3209  0.6790  1.2275
 9146TIP3    H248930   2.101   2.902   1.915 -0.0812 -2.2631 -1.5975
 9147TIP3   OH248931   4.502   0.475  12.849  1.1003 -0.4471 -0.1953
 9147TIP3    H148932   4.571   0.492  12.786  1.4174  1.2707  0.5414
 9147TIP3    H248933   4.451   0.403  12.811  2.6323 -1.0128 -1.2586
 9148TIP3   OH248934   4.629   0.286   5.554  0.2240  0.4874 -0.1465
 9148TIP3    H148935   4.631   0.217   5.489  1.4958 -0.5049  0.9026
 9148TIP3    H248936   4.609   0.242   5.636  1.1805  1.3219  0.5665
 9149TIP3   OH248937   4.560   6.315  17.178  0.0756  0.0324  0.0787
 9149TIP3    H148938   4.582   6.231  17.220  1.0803 -0.4668 -1.3850
 9149TIP3    H248939   4.576   6.300  17.085 -0.9970  1.4684 -0.3700
 9150TIP3   OH248940   5.627   0.937  10.406 -0.6116  0.4262 -0.0709
 9150TIP3    H148941   5.657   0.915  10.318 -1.1397  1.3293 -0.4935
 9150TIP3    H248942   5.703   0.980  10.447 -0.8674  1.5059 -0.6781
 9151TIP3   OH248943   5.662   0.799  13.963 -0.8948 -0.0037 -0.6449
 9151TIP3    H148944   5.631   0.861  14.029  1.0097 -1.0229  1.3369
 9151TIP3    H248945   5.700   0.854  13.895 -0.5791  1.0399  0.3428
 9152TIP3   OH248946   6.046   6.343  13.749  0.1348 -0.1886  0.4068
 9152TIP3    H148947   6.051   6.438  13.743  0.5808 -0.0640  2.2698
 9152TIP3    H248948   6.029   6.314  13.659 -0.0112  1.6340 -0.1865
 9153TIP3   OH248949   2.171   6.013   5.624 -0.0146  0.0245  0.3333
 9153TIP3    H148950   2.079   6.018   5.650  0.0506  1.3671  0.3730
 9153TIP3    H248951   2.210   6.093   5.658  0.7240  0.4268 -1.3496
 9154TIP3   OH248952   6.569   0.997   0.899 -0.2277 -0.2446 -0.1079
 9154TIP3    H148953   6.515   0.941   0.844  0.2902 -0.8089 -0.0602
 9154TIP3    H248954   6.511   1.025   0.970 -0.1708 -1.8427  0.6300
 9155TIP3   OH248955   1.496   2.807  13.918 -0.1580 -0.3876 -0.6047
 9155TIP3    H148956   1.463   2.718  13.931 -0.9729  0.0026  0.0810
 9155TIP3    H248957   1.433   2.848  13.859  1.4200 -0.9246 -2.7995
 9156TIP3   OH248958   4.029   4.532   3.685  0.6879 -0.3602  0.4158
 9156TIP3    H148959   4.076   4.484   3.616  1.4254  0.7193  0.1460
 9156TIP3    H248960   4.094   4.546   3.753  0.8266  1.3021 -0.0326
 9157TIP3   OH248961   4.372   4.094   0.586 -0.4522  0.2074  0.6286
 9157TIP3    H148962   4.302   4.146   0.626 -0.8636 -1.4232  2.1324
 9157TIP3    H248963   4.339   4.074   0.498 -0.5147  1.9698  0.2071
 9158TIP3   OH248964   4.023   0.050   2.326 -0.0302  0.3698  0.2962
 9158TIP3    H148965   4.033   0.070   2.233  1.3061 -2.5296 -0.3361
 9158TIP3    H248966   3.932   0.071   2.346 -0.9926 -0.8722 -2.2704
 9159TIP3   OH248967   1.682   1.030   2.573 -0.0035 -0.4525  0.6518
 9159TIP3    H148968   1.600   1.001   2.534 -0.5885 -0.0091  1.5258
 9159TIP3    H248969   1.750   0.996   2.514 -0.7579 -1.6346  0.4310
 9160TIP3   OH248970   2.143   2.991  12.133 -0.0431 -0.0312  0.2924
 9160TIP3    H148971   2.148   3.086  12.128 -1.2193  0.0176 -0.2795
 9160TIP3    H248972   2.080   2.966  12.065  0.0041 -1.1972  0.6430
 9161TIP3   OH248973   4.726   5.436  14.120 -0.2964  0.0659  0.0782
 9161TIP3    H148974   4.665   5.458  14.190 -0.8180  0.4434 -0.4819
 9161TIP3    H248975   4.714   5.342  14.105 -0.4287  0.0536  0.2630
 9162TIP3   OH248976   3.041   2.212  13.206 -0.0253  0.2981 -0.4008
 9162TIP3    H148977   3.013   2.138  13.260  0.3338  0.5871  0.1955
 9162TIP3    H248978   3.028   2.183  13.116  2.1349 -1.3374 -0.2525
 9163TIP3   OH248979   4.618   5.433  13.869 -0.4904 -0.9469  0.2249
 9163TIP3    H148980   4.683   5.375  13.830 -0.7598 -1.5905  0.6989
 9163TIP3    H248981   4.662   5.472  13.944 -0.6682 -1.4735  0.6165
 9164TIP3   OH248982   5.587   4.852   2.778 -0.0166  0.3084 -0.4786
 9164TIP3    H148983   5.596   4.774   2.832  2.0900  0.7806 -0.0349
 9164TIP3    H248984   5.525   4.907   2.825 -0.3669 -0.4584 -0.0220
 9165TIP3   OH248985   3.148   1.187   0.400  0.0077 -0.1346  0.4267
 9165TIP3    H148986   3.173   1.179   0.308  0.8865 -0.4655  0.6906
 9165TIP3    H248987   3.176   1.275   0.425 -1.4241  0.4685  0.0349
 9166TIP3   OH248988   0.567   0.956  16.512  0.6616 -0.0903 -0.1393
 9166TIP3    H148989   0.575   0.888  16.445 -0.9840 -2.0421  1.5104
 9166TIP3    H248990   0.602   0.916  16.591  1.5341  1.7713  0.4731
 9167TIP3   OH248991   3.979   6.306   3.794 -0.2314  0.2020 -0.0647
 9167TIP3    H148992   4.075   6.313   3.798 -0.0417 -1.0681 -1.4028
 9167TIP3    H248993   3.954   6.268   3.878  0.5615 -0.4650 -0.1233
 9168TIP3   OH248994   5.864   4.341  11.911  0.1000 -0.1474  0.7522
 9168TIP3    H148995   5.823   4.254  11.909  0.1215 -0.1457  0.0864
 9168TIP3    H248996   5.950   4.328  11.872  0.7011 -0.1217  2.0321
 9169TIP3   OH248997   5.260   3.563   2.922  0.3111  0.1949 -0.0652
 9169TIP3    H148998   5.345   3.523   2.903  0.2339 -0.1271  0.2576
 9169TIP3    H248999   5.214   3.498   2.976  0.5801  1.1268  1.3388
 9170TIP3   OH249000   5.799   4.272  10.978  0.0038  0.4145 -0.2427
 9170TIP3    H149001   5.756   4.275  11.063  1.0705 -1.6606  0.4668
 9170TIP3    H249002   5.872   4.334  10.986 -0.5942  1.1095 -0.0894
 9171TIP3   OH249003   3.072   0.976   2.998 -0.1610  0.5512  0.4211
 9171TIP3    H149004   3.104   0.966   3.088  0.1058  1.0568  0.3883
 9171TIP3    H249005   3.033   1.064   2.997 -0.5113  0.3953  0.1435
 9172TIP3   OH249006   5.401   4.752   2.330  0.3941 -0.0946 -0.5182
 9172TIP3    H149007   5.471   4.704   2.374  2.5150 -0.7155 -4.1427
 9172TIP3    H249008   5.432   4.843   2.328  0.9875 -0.3046 -1.8006
 9173TIP3   OH249009   6.598   3.939  16.243 -0.1924 -0.3517  0.0639
 9173TIP3    H149010   6.546   3.982  16.175 -1.1210 -0.0183  0.9492
 9173TIP3    H249011   6.677   3.992  16.249 -0.2615 -0.1790 -0.5174
 9174TIP3   OH249012   5.620   1.248  14.537  0.3814  1.1354  0.2524
 9174TIP3    H149013   5.642   1.314  14.472 -1.0371  0.5015 -0.9405
 9174TIP3    H249014   5.545   1.285  14.584 -1.7749 -0.3537 -1.7887
 9175TIP3   OH249015   4.303   5.043  15.023  0.4422 -0.2349 -0.0442
 9175TIP3    H149016   4.250   4.966  15.002  1.4156 -0.8767 -0.2073
 9175TIP3    H249017   4.247   5.117  15.000  0.2373 -0.8965 -1.8131
 9176TIP3   OH249018   0.793   0.578  16.213  0.2501 -0.1855  0.4487
 9176TIP3    H149019   0.843   0.574  16.131  0.5482 -0.4851  0.6445
 9176TIP3    H249020   0.790   0.487  16.243 -1.0712 -0.2956  0.0438
 9177TIP3   OH249021   3.223   2.738   0.672  0.0310  0.3145 -0.2904
 9177TIP3    H149022   3.277   2.663   0.696  0.2569  0.6990  0.3993
 9177TIP3    H249023   3.246   2.756   0.580 -1.0599 -1.3370 -0.9329
 9178TIP3   OH249024   3.023   3.299   5.632 -0.4310  0.0682  0.1452
 9178TIP3    H149025   2.962   3.326   5.563 -0.1706 -4.0411 -1.9666
 9178TIP3    H249026   2.971   3.247   5.692  0.1767  0.1810  0.7930
 9179TIP3   OH249027   2.564   0.429   4.074  0.5238 -0.5472  0.1499
 9179TIP3    H149028   2.510   0.396   4.146  0.4459 -0.2115  0.2463
 9179TIP3    H249029   2.647   0.454   4.115  0.4330 -0.2346  0.1472
 9180TIP3   OH249030   4.446   0.403  11.502 -0.0614  0.0797  0.5012
 9180TIP3    H149031   4.525   0.446  11.468  0.5834 -0.6944  0.9870
 9180TIP3    H249032   4.375   0.436  11.447  0.0225  3.4691  2.1075
 9181TIP3   OH249033   0.731   5.747  13.886 -0.7757 -0.0127  0.1326
 9181TIP3    H149034   0.769   5.798  13.814 -1.0360 -0.5084 -0.3702
 9181TIP3    H249035   0.792   5.673  13.896 -1.3986 -0.6287 -0.4488
 9182TIP3   OH249036   0.352   6.552   1.846 -0.0476 -0.2301 -0.3571
 9182TIP3    H149037   0.278   6.497   1.821 -0.7769 -0.2154  1.5786
 9182TIP3    H249038   0.312   6.629   1.888  1.0408  0.2523 -0.1697
 9183TIP3   OH249039   0.471   5.169  16.318 -0.1354  0.1962 -0.3037
 9183TIP3    H149040   0.554   5.217  16.313 -0.5730  0.8707 -1.5536
 9183TIP3    H249041   0.466   5.123  16.234 -0.3818 -0.9591  0.3258
 9184TIP3   OH249042   1.842   5.998  16.907  0.1224 -0.2179 -0.5147
 9184TIP3    H149043   1.821   5.918  16.859 -0.1112 -1.1057  0.9862
 9184TIP3    H249044   1.925   6.027  16.870  1.1200 -2.1647  0.0478
 9185TIP3   OH249045   0.886   6.085  15.612  0.0040  0.1867 -0.2386
 9185TIP3    H149046   0.887   5.992  15.636 -1.8794 -0.4990 -2.4583
 9185TIP3    H249047   0.905   6.131  15.694  0.6209 -2.1172  1.0118
 9186TIP3   OH249048   3.018   5.079   3.882 -0.5620 -0.1163 -0.7980
 9186TIP3    H149049   3.021   5.034   3.798 -1.7297 -2.1805  0.1935
 9186TIP3    H249050   2.925   5.080   3.906 -0.1322 -1.0680  1.1768
 9187TIP3   OH249051   4.372   4.121   5.765 -0.5217  0.0733  0.4020
 9187TIP3    H149052   4.360   4.110   5.859 -0.3254  0.3070  0.4546
 9187TIP3    H249053   4.291   4.086   5.726 -1.0597  0.9575  0.7080
 9188TIP3   OH249054   4.728   5.519  11.136  0.1829  0.1041 -0.4068
 9188TIP3    H149055   4.805   5.506  11.191  0.5084  0.5035 -0.7655
 9188TIP3    H249056   4.714   5.433  11.095 -0.3806 -0.3465  0.6919
 9189TIP3   OH249057   0.799   3.647   5.670 -1.0735 -0.1720 -0.3460
 9189TIP3    H149058   0.818   3.625   5.578 -1.9207 -0.2493 -0.5093
 9189TIP3    H249059   0.801   3.743   5.672 -0.2753 -0.1832 -0.2676
 9190TIP3   OH249060   1.230   3.832   5.794  0.1138  0.0970 -0.1644
 9190TIP3    H149061   1.266   3.915   5.763  1.1045 -0.6329 -1.0479
 9190TIP3    H249062   1.220   3.843   5.888 -1.0522  1.6742 -0.4394
 9191TIP3   OH249063   1.283   6.027  11.677  0.1184 -0.4754  0.1109
 9191TIP3    H149064   1.216   5.997  11.616  0.9265  1.0874 -1.6441
 9191TIP3    H249065   1.342   6.080  11.623  2.2390 -1.0062  1.7790
 9192TIP3   OH249066   3.929   5.647  11.555 -0.9688 -0.1870  0.1135
 9192TIP3    H149067   4.000   5.595  11.593 -1.1043  0.0700  0.7230
 9192TIP3    H249068   3.973   5.716  11.505 -0.7282 -2.1226 -2.5594
 9193TIP3   OH249069   1.765   0.869  15.399  0.1722 -0.6364  0.0569
 9193TIP3    H149070   1.693   0.823  15.355  0.8912 -1.5051 -0.2445
 9193TIP3    H249071   1.722   0.930  15.459 -0.8139 -0.7308 -0.5392
 9194TIP3   OH249072   3.561   3.856  16.985  0.2159 -0.3078  0.4854
 9194TIP3    H149073   3.541   3.889  16.898  0.9611  3.6302  1.5773
 9194TIP3    H249074   3.493   3.895  17.041  0.3177 -1.9293  1.8050
 9195TIP3   OH249075   0.226   0.350  16.079  0.1937  0.3269  0.3379
 9195TIP3    H149076   0.287   0.401  16.134 -0.2365  1.4152 -0.1658
 9195TIP3    H249077   0.141   0.360  16.122 -0.1759  1.3203 -0.5984
 9196TIP3   OH249078   6.329   3.101   0.443 -0.3439  0.3677 -0.4588
 9196TIP3    H149079   6.364   3.136   0.361 -0.2976  0.1183 -0.5491
 9196TIP3    H249080   6.332   3.006   0.431 -2.5754  0.3075 -1.1476
 9197TIP3   OH249081   0.606   1.054   2.162  0.0617 -0.4346 -0.0506
 9197TIP3    H149082   0.599   0.960   2.144  0.4109 -0.8376  1.7265
 9197TIP3    H249083   0.520   1.078   2.197 -0.0811 -0.0525 -0.6627
 9198TIP3   OH249084   4.795   2.415  13.639  0.0904  0.4000 -0.2623
 9198TIP3    H149085   4.883   2.389  13.611  0.0529 -0.2109  0.1804
 9198TIP3    H249086   4.778   2.496  13.591 -0.0614 -0.7343 -2.2294
 9199TIP3   OH249087   0.647   6.245  12.757  0.0347  0.0207  0.5189
 9199TIP3    H149088   0.571   6.282  12.802 -0.1954 -1.2413  1.2235
 9199TIP3    H249089   0.638   6.274  12.667  0.7088  2.9659  1.2849
 9200TIP3   OH249090   1.895   5.883   2.033  0.4749 -0.3605  0.2935
 9200TIP3    H149091   1.902   5.799   1.989  0.4200  0.8105 -2.0836
 9200TIP3    H249092   1.979   5.895   2.076  0.9741 -1.0132 -0.4846
 9201TIP3   OH249093   4.428   5.914  15.223 -0.0297 -0.2120  0.1927
 9201TIP3    H149094   4.461   5.849  15.285 -1.8947  1.2547  2.9146
 9201TIP3    H249095   4.335   5.893  15.213 -0.6633  1.9573  1.1166
 9202TIP3   OH249096   5.890   3.155   2.753 -0.5333 -0.2365 -0.3476
 9202TIP3    H149097   5.893   3.061   2.771 -0.8331 -0.1111  0.3730
 9202TIP3    H249098   5.973   3.174   2.709 -1.0583 -1.0931 -1.7821
 9203TIP3   OH249099   6.111   3.302  16.898 -0.0705 -0.4415 -0.2272
 9203TIP3    H149100   6.199   3.276  16.925  0.3079  1.3067  0.3647
 9203TIP3    H249101   6.098   3.388  16.938 -1.4856 -0.0079 -1.5305
 9204TIP3   OH249102   1.702   0.479   5.579 -0.2105  0.7669 -0.5364
 9204TIP3    H149103   1.766   0.449   5.644  0.2740  0.8508 -0.9747
 9204TIP3    H249104   1.632   0.414   5.582  1.2504 -0.9798 -2.1463
 9205TIP3   OH249105   3.624   1.463  13.602  0.1945  0.2884  0.5473
 9205TIP3    H149106   3.667   1.529  13.657  1.9313 -0.0582 -0.3069
 9205TIP3    H249107   3.674   1.383  13.619  0.7922  0.1721 -1.5002
 9206TIP3   OH249108   0.557   2.698   1.361 -0.0750 -0.0693  0.2287
 9206TIP3    H149109   0.635   2.746   1.388  1.9433 -3.3164  0.7703
 9206TIP3    H249110   0.499   2.702   1.437  0.1227  1.2638  0.3286
 9207TIP3   OH249111   1.068   6.587  10.834  0.1156 -0.0142 -0.0736
 9207TIP3    H149112   1.131   6.659  10.838 -1.2662  1.2157  0.3905
 9207TIP3    H249113   1.038   6.577  10.924  0.7882 -1.6729 -0.0057
 9208TIP3   OH249114   5.372   5.600   5.245 -0.2242  0.1903  0.5993
 9208TIP3    H149115   5.312   5.608   5.319 -0.9201  0.0243  0.0635
 9208TIP3    H249116   5.417   5.517   5.258 -1.3834 -0.5350  0.0943
 9209TIP3   OH249117   5.996   0.163  15.043  0.3093  0.1943  0.3255
 9209TIP3    H149118   6.006   0.129  15.131  0.3881  0.3471  0.3760
 9209TIP3    H249119   6.001   0.258  15.053  1.1916  0.1840  0.0542
 9210TIP3   OH249120   2.001   1.364  12.232  0.5233  0.1119 -0.2260
 9210TIP3    H149121   2.051   1.344  12.153  1.7717  0.4477  0.4524
 9210TIP3    H249122   1.979   1.457  12.224 -0.1474 -0.0745 -0.6001
 9211TIP3   OH249123   5.459   1.852   1.443  0.1499 -0.1679  0.0526
 9211TIP3    H149124   5.455   1.923   1.379  0.2302 -0.0088  0.2228
 9211TIP3    H249125   5.550   1.853   1.473  0.3017 -0.7224 -0.3724
 9212TIP3   OH249126   3.662   4.636   2.643  0.5720 -0.0896  0.6668
 9212TIP3    H149127   3.601   4.695   2.600  1.8707  1.2360  0.5438
 9212TIP3    H249128   3.736   4.691   2.667  0.8262 -1.2152  2.6999
 9213TIP3   OH249129   3.318   2.795   1.851 -0.2346  0.4694  0.0435
 9213TIP3    H149130   3.265   2.784   1.929  0.9579 -1.0751  0.6749
 9213TIP3    H249131   3.318   2.710   1.808  3.0931 -0.1701  1.0102
 9214TIP3   OH249132   2.154   6.441   4.586 -0.4940 -0.9691  0.4366
 9214TIP3    H149133   2.158   6.384   4.663 -1.7639 -1.2100  0.3339
 9214TIP3    H249134   2.066   6.428   4.551 -0.2559 -0.1254 -0.5003
 9215TIP3   OH249135   6.619   1.789  14.928  0.2407  0.0831 -0.0733
 9215TIP3    H149136   6.582   1.701  14.931  0.4143  0.0278  0.6949
 9215TIP3    H249137   6.552   1.842  14.884  0.1297 -0.4232 -0.5274
 9216TIP3   OH249138   5.749   0.796  11.088 -0.2575  0.1686 -0.4305
 9216TIP3    H149139   5.713   0.876  11.050  1.2521  0.5960 -1.0269
 9216TIP3    H249140   5.805   0.826  11.159  1.2626 -0.2431 -1.4105
 9217TIP3   OH249141   0.062   0.604   3.696 -0.2443  0.0963 -0.2264
 9217TIP3    H149142  -0.032   0.620   3.707 -0.4604  0.9309 -2.7026
 9217TIP3    H249143   0.066   0.516   3.658  0.1268 -0.6533  1.4811
 9218TIP3   OH249144   3.000   0.877  10.823  0.0698 -0.5692 -0.4014
 9218TIP3    H149145   2.936   0.929  10.873 -0.7292 -0.4057 -1.5554
 9218TIP3    H249146   3.079   0.878  10.878 -0.7365 -0.3313  0.8100
 9219TIP3   OH249147   2.724   2.835  11.979  0.0241  0.3338 -0.4352
 9219TIP3    H149148   2.659   2.893  12.017 -0.2378  0.8331 -1.5900
 9219TIP3    H249149   2.776   2.891  11.921  0.4425 -0.3752 -0.7681
 9220TIP3   OH249150   5.916   2.589   1.705 -0.6299  0.3261 -0.1056
 9220TIP3    H149151   5.981   2.655   1.679  1.4629 -1.3298  0.6325
 9220TIP3    H249152   5.917   2.590   1.800  0.1801 -1.3575 -0.0458
 9221TIP3   OH249153   6.126   6.312  14.721 -0.2177 -0.3731  0.2894
 9221TIP3    H149154   6.204   6.282  14.767  1.0722  0.4382 -1.2430
 9221TIP3    H249155   6.059   6.319  14.788  1.4863  0.4881  1.9799
 9222TIP3   OH249156   5.470   6.470  14.297 -0.3582 -0.0827 -0.0283
 9222TIP3    H149157   5.499   6.513  14.216  0.2513  0.6210  0.5472
 9222TIP3    H249158   5.375   6.471  14.291 -0.3205 -1.0413 -1.2417
 9223TIP3   OH249159   2.116   1.524  15.267 -0.3364  0.9194  0.4413
 9223TIP3    H149160   2.193   1.549  15.215 -0.4241 -0.2849 -0.3173
 9223TIP3    H249161   2.148   1.520  15.357  0.7769 -0.5347  0.0230
 9224TIP3   OH249162   1.592   1.279  14.632  0.0936 -0.1165 -0.7122
 9224TIP3    H149163   1.559   1.253  14.546 -0.6313  0.8913 -0.7661
 9224TIP3    H249164   1.623   1.198  14.672 -1.1476 -0.8843 -1.2414
 9225TIP3   OH249165   6.824   4.905   1.766  0.0425  0.1879  0.3651
 9225TIP3    H149166   6.839   4.916   1.860  0.8889  0.2756  0.2244
 9225TIP3    H249167   6.891   4.843   1.738  0.4703  0.9600 -0.3754
 9226TIP3   OH249168   6.329   6.052   0.465 -0.9172 -0.2076 -0.0255
 9226TIP3    H149169   6.289   6.124   0.416 -2.3928 -0.5891  0.5682
 9226TIP3    H249170   6.349   5.986   0.399  0.7412  0.8264 -0.6241
 9227TIP3   OH249171   5.242   2.993   4.743 -0.5206 -0.4058 -0.4612
 9227TIP3    H149172   5.315   2.939   4.713 -0.2505 -0.3852  0.1577
 9227TIP3    H249173   5.273   3.083   4.735  0.1206 -0.4367  1.2880
 9228TIP3   OH249174   0.611   6.537   4.302 -0.6557  0.0031 -0.2268
 9228TIP3    H149175   0.563   6.458   4.330  1.0986 -0.3844  1.9984
 9228TIP3    H249176   0.595   6.542   4.208 -1.4736 -2.5719 -0.3192
 9229TIP3   OH249177   3.607   4.936  10.891 -0.2987 -0.0657 -0.3307
 9229TIP3    H149178   3.627   4.845  10.869  1.5451 -0.3644  2.0581
 9229TIP3    H249179   3.635   4.986  10.815  3.2987 -1.1605  0.0816
 9230TIP3   OH249180   0.153   4.896  12.103  0.1049  0.8509 -0.3560
 9230TIP3    H149181   0.207   4.818  12.113  0.2379  1.0309  0.4163
 9230TIP3    H249182   0.165   4.923  12.012  0.8374  0.5390 -0.3534
 9231TIP3   OH249183   5.598   2.180  13.258 -0.6574 -0.4190 -0.0802
 9231TIP3    H149184   5.531   2.191  13.191  0.4153 -2.1495 -1.5557
 9231TIP3    H249185   5.617   2.268  13.289 -1.4570  0.4109 -1.8232
 9232TIP3   OH249186   1.706   2.039  11.158  0.9062  0.4440 -0.7892
 9232TIP3    H149187   1.686   2.120  11.110 -2.4674  1.0757  1.3509
 9232TIP3    H249188   1.720   2.067  11.248  0.7713 -1.2486 -0.2030
 9233TIP3   OH249189   1.110   0.474   2.078  0.0416 -1.1042  0.0944
 9233TIP3    H149190   1.102   0.568   2.096 -1.7307 -1.1572 -0.2801
 9233TIP3    H249191   1.183   0.469   2.016 -2.1181  0.5191 -2.8419
 9234TIP3   OH249192   0.307   0.883  15.314 -0.4138  0.0275  0.6939
 9234TIP3    H149193   0.235   0.909  15.257  1.3196  0.3809 -1.4610
 9234TIP3    H249194   0.316   0.956  15.376 -2.0086 -0.1229  1.1319
 9235TIP3   OH249195   4.091   4.548   1.278  0.1081 -0.3215  0.0476
 9235TIP3    H149196   4.012   4.493   1.280 -1.0869  1.2412 -1.1887
 9235TIP3    H249197   4.091   4.592   1.363 -0.1831 -0.5684  0.1806
 9236TIP3   OH249198   4.150   5.409   3.820 -0.5605  0.1742  0.4563
 9236TIP3    H149199   4.169   5.436   3.730 -0.3644  0.8628  0.7006
 9236TIP3    H249200   4.098   5.329   3.810 -1.1696  0.6452 -0.2805
 9237TIP3   OH249201   1.771   3.172  15.548  0.3636 -0.3979  0.5613
 9237TIP3    H149202   1.781   3.101  15.611  0.9973 -0.8576 -0.0477
 9237TIP3    H249203   1.811   3.139  15.467  1.6991  1.0362  0.5693
 9238TIP3   OH249204   3.989   6.587   1.624  0.1831 -0.3668  0.4523
 9238TIP3    H149205   4.012   6.656   1.563 -0.4658 -0.1035  0.4894
 9238TIP3    H249206   3.897   6.567   1.604  0.2129 -0.8553  0.7821
 9239TIP3   OH249207   0.220   6.073   0.707 -0.6094  0.4258 -0.1509
 9239TIP3    H149208   0.261   6.127   0.639  1.1657 -1.2587 -0.4936
 9239TIP3    H249209   0.288   6.060   0.773 -1.7605  0.5658  1.1093
 9240TIP3   OH249210   2.312   0.556  15.903  0.7945  0.0695  0.0711
 9240TIP3    H149211   2.280   0.619  15.968  0.3626 -1.4977  1.4788
 9240TIP3    H249212   2.385   0.512  15.947 -1.2961 -3.0259  0.8002
 9241TIP3   OH249213   0.170   2.040  14.647 -0.7505 -0.5023  0.2961
 9241TIP3    H149214   0.118   1.968  14.613 -0.1596 -1.1907  0.8172
 9241TIP3    H249215   0.210   2.005  14.727  0.6279 -0.0626 -0.1676
 9242TIP3   OH249216   0.271   0.223   6.281  0.4736  0.5092  0.5576
 9242TIP3    H149217   0.336   0.246   6.347  2.2515  0.5319 -1.1069
 9242TIP3    H249218   0.216   0.301   6.273  2.0700  1.6382 -0.0371
 9243TIP3   OH249219   1.232   3.582   4.867  0.3919 -0.6923  0.9102
 9243TIP3    H149220   1.313   3.552   4.825 -0.0081  2.5400 -2.8638
 9243TIP3    H249221   1.162   3.545   4.813 -0.2779  1.4614  0.1973
 9244TIP3   OH249222   3.205   5.279  12.601 -0.6760  0.2904 -0.0883
 9244TIP3    H149223   3.229   5.339  12.671  0.9034 -1.4370  0.9516
 9244TIP3    H249224   3.165   5.205  12.646 -0.3310 -0.5201 -1.0695
 9245TIP3   OH249225   5.879   4.441   5.862 -0.2438 -0.4698 -0.2532
 9245TIP3    H149226   5.836   4.526   5.857  0.4258 -0.1215 -0.0835
 9245TIP3    H249227   5.884   4.410   5.772  0.0761 -0.0486 -0.3800
 9246TIP3   OH249228   2.531   4.551   3.759 -0.3330  0.2037 -0.2894
 9246TIP3    H149229   2.626   4.546   3.769 -0.3177  0.6097 -0.1887
 9246TIP3    H249230   2.509   4.479   3.700 -0.0901 -0.5422  0.5114
 9247TIP3   OH249231   3.069   6.001  15.792 -0.2764  0.3917 -0.9834
 9247TIP3    H149232   3.141   6.058  15.819 -1.2047  0.5279  1.4739
 9247TIP3    H249233   3.097   5.965  15.708  1.2649  2.8108 -1.6044
 9248TIP3   OH249234   1.883   6.368   4.851  0.6651 -1.0217 -0.3410
 9248TIP3    H149235   1.969   6.349   4.814  0.3054 -1.2703 -1.0651
 9248TIP3    H249236   1.821   6.339   4.784  0.0176 -0.7991  0.1515
 9249TIP3   OH249237   2.133   6.642  12.200 -0.7590  0.5841  0.0271
 9249TIP3    H149238   2.181   6.718  12.166  0.0289 -0.5286 -1.5424
 9249TIP3    H249239   2.184   6.567  12.168 -2.0278 -0.6110  0.7287
 9250TIP3   OH249240   3.777   4.124  12.936 -0.3777  0.1940  0.1425
 9250TIP3    H149241   3.772   4.066  13.012  0.6902  2.4998  2.1449
 9250TIP3    H249242   3.870   4.148  12.932 -0.7473  1.5512 -0.7171
 9251TIP3   OH249243   1.333   2.111   5.472  0.4676 -0.4618  0.9203
 9251TIP3    H149244   1.360   2.172   5.403 -4.2587  0.7683 -0.1780
 9251TIP3    H249245   1.343   2.025   5.433 -0.9005  0.1558 -0.9334
 9252TIP3   OH249246   0.987   1.827  13.347 -0.3321  0.2463  0.1969
 9252TIP3    H149247   0.899   1.798  13.368  0.5113 -3.1513 -0.3992
 9252TIP3    H249248   0.984   1.848  13.253 -0.5508  0.4350  0.2456
 9253TIP3   OH249249   1.497   0.203   4.002 -0.1736 -0.0690 -0.4186
 9253TIP3    H149250   1.401   0.195   4.005 -0.0728 -1.1060  1.6746
 9253TIP3    H249251   1.514   0.294   4.025 -0.6400 -0.3999  1.4002
 9254TIP3   OH249252   4.719   5.003  12.463  0.3166 -0.4106  0.8222
 9254TIP3    H149253   4.672   5.021  12.544  1.2938 -2.5644  1.9355
 9254TIP3    H249254   4.654   4.964  12.405 -0.2159  0.5052  0.7797
 9255TIP3   OH249255   5.869   6.231  11.302  0.0697  0.2835 -0.5531
 9255TIP3    H149256   5.881   6.263  11.213 -1.6574 -0.0867 -0.9595
 9255TIP3    H249257   5.823   6.302  11.347 -0.6912 -0.2348 -0.4900
 9256TIP3   OH249258   1.506   2.184   1.788 -0.1079 -0.3304 -0.7224
 9256TIP3    H149259   1.534   2.117   1.850  1.1687  1.2017  0.4278
 9256TIP3    H249260   1.422   2.215   1.823  1.1138  1.3069  1.0154
 9257TIP3   OH249261   1.872   1.117   4.545  0.0419 -0.0036  0.0747
 9257TIP3    H149262   1.925   1.051   4.499 -0.9209  0.0052 -1.0950
 9257TIP3    H249263   1.787   1.075   4.559 -0.9419  1.2967 -1.6290
 9258TIP3   OH249264   3.774   6.356   6.265 -0.4419 -0.0565 -0.2088
 9258TIP3    H149265   3.752   6.268   6.293  0.1344 -0.2654 -0.4025
 9258TIP3    H249266   3.690   6.402   6.261 -0.5399  0.1453  2.3516
 9259TIP3   OH249267   3.156   6.520  11.163 -0.2642 -0.4186 -1.0485
 9259TIP3    H149268   3.139   6.537  11.256 -0.4427 -2.1325 -0.7198
 9259TIP3    H249269   3.139   6.603  11.119  1.0702  0.7973  0.6004
 9260TIP3   OH249270   2.579   6.774  16.795  0.1214 -0.1538 -0.0690
 9260TIP3    H149271   2.642   6.737  16.857 -0.4797  0.6455  1.0543
 9260TIP3    H249272   2.533   6.699  16.759  0.1229 -0.6058  0.8468
 9261TIP3   OH249273   3.118   2.502   5.331  0.7065 -0.2305 -0.0549
 9261TIP3    H149274   3.204   2.543   5.323  0.3153  0.6141  0.0123
 9261TIP3    H249275   3.084   2.536   5.414  1.1163 -2.1024  0.9327
 9262TIP3   OH249276   1.682   1.998  12.341  0.5269  0.8499 -0.1407
 9262TIP3    H149277   1.719   2.077  12.381  0.7648 -0.3119  2.0454
 9262TIP3    H249278   1.754   1.962  12.288  0.8227  1.3742 -0.1102
 9263TIP3   OH249279   0.644   0.868  16.251 -0.1655 -0.2242 -0.1298
 9263TIP3    H149280   0.648   0.833  16.163  0.6129  0.5865 -0.4311
 9263TIP3    H249281   0.734   0.870  16.281 -0.3174  0.4274  0.3096
 9264TIP3   OH249282   6.605   0.275   3.707 -0.0342 -0.1644 -0.4438
 9264TIP3    H149283   6.514   0.269   3.679 -1.3369  3.6876  2.0877
 9264TIP3    H249284   6.654   0.290   3.626 -2.2311  1.1588 -1.6234
 9265TIP3   OH249285   3.145   2.007   4.649 -0.0495  0.3040  0.0440
 9265TIP3    H149286   3.171   2.097   4.630 -0.8206  0.0800 -2.3656
 9265TIP3    H249287   3.073   1.989   4.588  0.2172 -2.0001  0.3142
 9266TIP3   OH249288   0.004   2.137   0.969  0.0530  0.0570  0.2126
 9266TIP3    H149289  -0.075   2.171   1.011 -0.2755  0.3032 -0.5978
 9266TIP3    H249290  -0.013   2.143   0.875  1.5035  1.2576 -0.0169
 9267TIP3   OH249291   1.203   4.543   5.491 -0.5439 -0.1798 -0.3691
 9267TIP3    H149292   1.248   4.482   5.431 -0.6375 -0.0813 -0.5401
 9267TIP3    H249293   1.235   4.629   5.464  0.0460 -0.1927  0.2595
 9268TIP3   OH249294   0.818   0.506   5.908 -0.7197 -0.1265 -0.3520
 9268TIP3    H149295   0.790   0.524   5.998 -0.7723  0.2334 -0.4385
 9268TIP3    H249296   0.838   0.592   5.872 -0.3318 -0.3066 -0.5650
 9269TIP3   OH249297   0.199   6.099  16.291  0.3172  0.8700 -0.4417
 9269TIP3    H149298   0.125   6.080  16.234  1.3278 -1.5201 -1.1036
 9269TIP3    H249299   0.183   6.045  16.369 -0.1898  2.7926  0.8451
 9270TIP3   OH249300   5.567   3.493   4.782  0.0522 -0.3359 -0.2174
 9270TIP3    H149301   5.478   3.465   4.804 -0.3615 -1.0436 -2.4919
 9270TIP3    H249302   5.557   3.585   4.755  0.2425 -0.0458  0.6601
 9271TIP3   OH249303   3.056   0.991  15.253  0.4186  0.1593  0.0960
 9271TIP3    H149304   3.146   1.012  15.275  0.7138 -0.2503 -0.6719
 9271TIP3    H249305   3.012   0.981  15.337  1.3866 -0.8725  0.5060
 9272TIP3   OH249306   2.889   4.769  13.974 -0.2003 -0.3711 -0.2299
 9272TIP3    H149307   2.955   4.711  13.936 -0.4226 -0.5776 -0.3130
 9272TIP3    H249308   2.938   4.835  14.022  0.1601  0.7660 -2.0592
 9273TIP3   OH249309   3.379   6.586   1.660  0.2359  0.2770 -0.1821
 9273TIP3    H149310   3.434   6.567   1.736 -0.0997 -0.7766 -0.1871
 9273TIP3    H249311   3.325   6.508   1.649 -1.2037  1.2412 -0.2467
 9274TIP3   OH249312   3.984   4.243  11.019 -0.0855 -0.3899  0.0206
 9274TIP3    H149313   3.960   4.213  10.931  0.1175  1.1209 -0.5936
 9274TIP3    H249314   4.067   4.199  11.038  0.9935  0.8637 -1.4926
 9275TIP3   OH249315   3.839   5.584   2.029 -0.3038  0.7301  0.5148
 9275TIP3    H149316   3.889   5.534   1.964  0.7432  0.5796  1.3966
 9275TIP3    H249317   3.791   5.518   2.079 -1.3202  0.8661 -0.2570
 9276TIP3   OH249318   5.727   1.147  16.178  0.1299 -0.8782  0.5095
 9276TIP3    H149319   5.795   1.110  16.235 -1.4013 -1.5100  2.0355
 9276TIP3    H249320   5.706   1.077  16.117  0.1199 -1.0491  0.7086
 9277TIP3   OH249321   1.947   1.929  12.279 -0.3530  0.3830 -0.7287
 9277TIP3    H149322   1.971   2.019  12.255  1.1883  0.9751  2.5167
 9277TIP3    H249323   2.021   1.876  12.248  0.7493  0.8758  0.9574
 9278TIP3   OH249324   0.225   2.565   2.598 -0.4310  0.7476 -0.3556
 9278TIP3    H149325   0.211   2.659   2.606 -3.0933  0.4314 -0.3294
 9278TIP3    H249326   0.153   2.535   2.541 -0.3123 -1.4111  0.5368
 9279TIP3   OH249327   3.716   4.164  12.640 -0.4002 -0.2892 -0.0970
 9279TIP3    H149328   3.716   4.177  12.735  0.6896 -0.4732 -0.0581
 9279TIP3    H249329   3.649   4.098  12.625 -0.6861 -0.1512  0.5266
 9280TIP3   OH249330   1.136   0.887   3.560  0.1003 -0.3159  0.1381
 9280TIP3    H149331   1.129   0.919   3.470 -0.0349  0.0470  0.2740
 9280TIP3    H249332   1.229   0.892   3.580 -0.1387  2.3295  0.9710
 9281TIP3   OH249333   0.560   2.061  10.296 -0.3701  0.1757 -0.2847
 9281TIP3    H149334   0.489   2.117  10.327 -0.3041 -0.1812  0.5451
 9281TIP3    H249335   0.622   2.121  10.255 -1.7523  0.3560 -2.2458
 9282TIP3   OH249336   3.558   0.863  16.237 -0.5818  0.0138  0.3557
 9282TIP3    H149337   3.543   0.917  16.314  1.2522  0.3745  0.5023
 9282TIP3    H249338   3.590   0.779  16.272 -0.9569 -0.2660  0.0382
 9283TIP3   OH249339   6.427   4.555   0.119  0.0136  0.5458 -0.5862
 9283TIP3    H149340   6.519   4.576   0.107 -0.2281  1.9174 -0.2475
 9283TIP3    H249341   6.418   4.542   0.214 -0.1810  0.6769 -0.5851
 9284TIP3   OH249342   2.815   1.150   5.252  0.1748  0.0477 -0.2548
 9284TIP3    H149343   2.775   1.183   5.171 -1.3466 -0.8687  0.0724
 9284TIP3    H249344   2.906   1.176   5.246 -0.3070  1.6394 -1.3888
 9285TIP3   OH249345   6.049   3.875  14.761  0.3203 -0.4720 -1.4293
 9285TIP3    H149346   6.064   3.965  14.731  0.8638  0.0776  0.3270
 9285TIP3    H249347   5.965   3.850  14.724  0.1888  0.7539 -1.9878
 9286TIP3   OH249348   3.032   4.009   3.874 -0.0937 -0.2080 -0.1303
 9286TIP3    H149349   3.040   3.976   3.964 -1.3280 -0.7626 -0.1949
 9286TIP3    H249350   3.003   3.933   3.823  1.5010 -0.1475 -1.2078
 9287TIP3   OH249351   0.999   1.829   6.114 -0.4636  0.0448 -0.1914
 9287TIP3    H149352   1.079   1.881   6.122  0.1409 -0.6836 -1.2240
 9287TIP3    H249353   1.030   1.740   6.102 -1.2364  0.1219 -4.0456
 9288TIP3   OH249354   3.227   6.033  14.915 -0.4160  0.1223  0.0393
 9288TIP3    H149355   3.182   6.068  14.992 -1.8706 -0.7867 -0.3566
 9288TIP3    H249356   3.181   5.951  14.896 -0.0648  0.3099 -1.7811
 9289TIP3   OH249357   0.508   3.416  16.534  0.0139  0.6939  0.1848
 9289TIP3    H149358   0.548   3.503  16.535  1.6519 -0.0406  1.6375
 9289TIP3    H249359   0.573   3.359  16.574 -1.1968 -1.1490 -0.3835
 9290TIP3   OH249360   3.127   3.049  13.259  0.7034  0.4183  0.0245
 9290TIP3    H149361   3.172   2.965  13.250  0.2971  0.2876 -0.9286
 9290TIP3    H249362   3.046   3.037  13.210 -0.9409  0.2722  2.6296
 9291TIP3   OH249363   1.366   5.347  15.084  0.0682 -0.0509  0.0266
 9291TIP3    H149364   1.420   5.268  15.080  0.2444 -0.0473  1.6134
 9291TIP3    H249365   1.323   5.343  15.169  0.1680  1.6120  0.1999
 9292TIP3   OH249366   3.955   5.461  12.747 -0.6985 -0.1212 -0.6946
 9292TIP3    H149367   3.949   5.519  12.671  1.1932  1.5352  0.3380
 9292TIP3    H249368   4.049   5.457  12.767 -0.8783 -2.6430  0.0098
 9293TIP3   OH249369   3.201   5.851   0.927 -0.1898  0.0159  0.2333
 9293TIP3    H149370   3.289   5.888   0.935  0.8300 -2.1653 -0.2307
 9293TIP3    H249371   3.183   5.814   1.014 -0.2513 -0.3479  0.0678
 9294TIP3   OH249372   2.496   4.256  11.695  0.2235  0.2994  0.1638
 9294TIP3    H149373   2.446   4.201  11.634  0.3518  1.4167 -0.9804
 9294TIP3    H249374   2.565   4.198  11.728  1.3273  0.1499 -2.2212
 9295TIP3   OH249375   1.920   0.462   2.456 -0.8972 -0.1830 -0.0827
 9295TIP3    H149376   1.930   0.495   2.545 -0.3886 -0.0906 -0.1740
 9295TIP3    H249377   1.998   0.408   2.441 -1.3407 -0.7997 -0.2090
 9296TIP3   OH249378   5.238   1.754  16.915 -0.0908 -0.2370 -0.6193
 9296TIP3    H149379   5.292   1.725  16.988 -0.7643  1.6503  0.7139
 9296TIP3    H249380   5.277   1.714  16.838  1.5570 -1.0695  0.5999
 9297TIP3   OH249381   3.864   0.804  13.125 -0.1578 -0.5248 -0.0508
 9297TIP3    H149382   3.780   0.770  13.093  0.5215 -2.7411  0.3011
 9297TIP3    H249383   3.924   0.730  13.116  1.4020  0.5397  1.1160
 9298TIP3   OH249384   1.940   3.851   2.068  0.4108 -0.7310 -0.4527
 9298TIP3    H149385   1.868   3.891   2.019  1.5661  1.3045 -0.6138
 9298TIP3    H249386   1.924   3.878   2.158 -0.0668 -1.9510 -0.1493
 9299TIP3   OH249387   1.374   2.665   0.955  0.1909  0.1924 -0.1933
 9299TIP3    H149388   1.426   2.681   0.876 -0.8586 -0.5417 -1.0666
 9299TIP3    H249389   1.415   2.588   0.995  1.5882  1.3907  0.7798
 9300TIP3   OH249390   5.725   3.893  14.989 -0.0742 -0.1715  0.3114
 9300TIP3    H149391   5.718   3.850  14.904 -0.8910  0.5248  0.0156
 9300TIP3    H249392   5.709   3.985  14.971 -0.5630 -0.0579  1.2511
 9301TIP3   OH249393   4.027   1.727  14.529  0.0300  0.0619 -0.6462
 9301TIP3    H149394   4.007   1.808  14.576 -0.6011 -0.0277 -0.7551
 9301TIP3    H249395   3.953   1.714  14.470 -1.3519 -2.0857  1.3414
 9302TIP3   OH249396   6.395   1.503   3.905 -0.0700 -0.1331  0.0716
 9302TIP3    H149397   6.424   1.537   3.989  0.5939  0.9133 -0.5567
 9302TIP3    H249398   6.317   1.555   3.884 -0.6009 -0.8130  0.3088
 9303TIP3   OH249399   2.789   1.278  14.467 -0.2616 -0.2405 -0.7944
 9303TIP3    H149400   2.716   1.257  14.409 -1.2266  1.8685 -0.4072
 9303TIP3    H249401   2.847   1.202  14.460 -1.6164 -1.1895 -2.4735
 9304TIP3   OH249402   0.932   4.548   5.567 -0.1634  0.4500  0.0086
 9304TIP3    H149403   0.911   4.455   5.575 -0.4468  0.5048 -0.1084
 9304TIP3    H249404   1.023   4.549   5.535  0.8564  0.2314  2.6343
 9305TIP3   OH249405   1.433   1.843   4.694  0.2055 -0.2899  0.3861
 9305TIP3    H149406   1.477   1.928   4.687 -0.7737  0.2394  0.4442
 9305TIP3    H249407   1.470   1.803   4.772 -0.0837  0.5472  0.9649
 9306TIP3   OH249408   0.634   5.905  11.669 -0.0663 -0.1396  0.2512
 9306TIP3    H149409   0.615   5.997  11.687 -0.8929 -0.3430  0.4560
 9306TIP3    H249410   0.624   5.861  11.754 -0.1248 -0.4915  0.0652
 9307TIP3   OH249411   0.742   6.509  14.294  0.4571 -0.0081 -0.0767
 9307TIP3    H149412   0.708   6.422  14.312 -0.6470  0.2468 -0.8059
 9307TIP3    H249413   0.787   6.534  14.374 -1.7070 -0.0992  1.2684
 9308TIP3   OH249414   2.772   5.240  11.572 -0.2744  1.0240 -0.8853
 9308TIP3    H149415   2.753   5.267  11.662 -0.9406  1.6597 -1.2034
 9308TIP3    H249416   2.862   5.271  11.557 -0.3642  1.4271 -0.6292
 9309TIP3   OH249417   3.431   0.315   1.770 -0.0310 -0.1107  0.3061
 9309TIP3    H149418   3.492   0.292   1.840  0.9090  1.3983  0.0464
 9309TIP3    H249419   3.347   0.278   1.797  0.4439 -0.0847  1.9162
 9310TIP3   OH249420   0.637   2.231  14.510  0.6337 -0.5985 -0.4095
 9310TIP3    H149421   0.600   2.194  14.430 -0.1722 -1.4418  0.3423
 9310TIP3    H249422   0.567   2.226  14.574  2.3954 -3.6600  1.5193
 9311TIP3   OH249423   6.328   4.179   4.396  0.2464 -0.2244  0.8593
 9311TIP3    H149424   6.292   4.229   4.469 -0.1710  0.9527 -0.1129
 9311TIP3    H249425   6.414   4.217   4.380 -0.6026  1.1423 -0.7302
 9312TIP3   OH249426   5.909   2.887   2.827  0.0755 -0.4176  0.0489
 9312TIP3    H149427   5.865   2.905   2.911  1.1854 -0.5567  0.6842
 9312TIP3    H249428   5.957   2.806   2.843 -0.7852 -1.2014 -1.1773
 9313TIP3   OH249429   6.037   1.040   1.378 -0.0018 -0.1263 -0.0317
 9313TIP3    H149430   6.120   0.995   1.364  0.0103 -0.0320 -0.2682
 9313TIP3    H249431   6.011   1.016   1.467 -0.1846 -0.9061 -0.2851
 9314TIP3   OH249432   0.689   3.273  14.001 -0.1603 -0.6056 -0.3318
 9314TIP3    H149433   0.666   3.229  13.920  0.8302  0.8632 -1.4519
 9314TIP3    H249434   0.783   3.258  14.011 -0.2783 -0.8031  0.5738
 9315TIP3   OH249435   1.831   0.586   0.775 -0.0957  0.6294 -0.1855
 9315TIP3    H149436   1.865   0.638   0.703 -0.3616 -1.1103 -1.6255
 9315TIP3    H249437   1.744   0.558   0.747 -2.1375  3.4413  2.6552
 9316TIP3   OH249438   6.711   3.653  12.505  0.3705 -0.4970  0.2584
 9316TIP3    H149439   6.674   3.589  12.445  2.0230 -0.5736 -0.7357
 9316TIP3    H249440   6.730   3.604  12.584  0.6820 -1.0039 -0.1303
 9317TIP3   OH249441   6.684   5.136  13.076  0.1414 -0.1756 -0.1634
 9317TIP3    H149442   6.710   5.147  13.168 -0.3001  1.1723 -0.1807
 9317TIP3    H249443   6.764   5.155  13.027  0.4951 -1.3276 -0.0668
 9318TIP3   OH249444   3.244   3.204   5.850  0.3315 -0.4212 -0.0258
 9318TIP3    H149445   3.189   3.180   5.776  1.9733 -0.5212 -1.2550
 9318TIP3    H249446   3.333   3.184   5.822  0.9488 -1.4211  2.3472
 9319TIP3   OH249447   0.961   3.540   4.250  0.4677 -0.6445 -0.2178
 9319TIP3    H149448   0.867   3.543   4.267  0.5276 -1.1452  0.2094
 9319TIP3    H249449   0.977   3.451   4.218  0.5439 -0.0791 -1.8515
 9320TIP3   OH249450   3.050   3.081  14.642  0.1606  0.3454  0.3521
 9320TIP3    H149451   3.059   2.994  14.682 -1.7781 -0.6019 -1.0645
 9320TIP3    H249452   3.106   3.077  14.565  0.7852  0.6936  0.7868
 9321TIP3   OH249453   1.339   5.038  10.425  0.2396 -0.3074 -0.3536
 9321TIP3    H149454   1.409   5.103  10.424 -2.4858  2.9303 -1.5962
 9321TIP3    H249455   1.334   5.006  10.335 -0.4217  0.1575 -0.4884
 9322TIP3   OH249456   5.014   3.043  14.939 -0.0350  0.1354 -0.0698
 9322TIP3    H149457   5.064   2.981  14.887 -0.3195 -0.0887 -0.0776
 9322TIP3    H249458   5.079   3.103  14.976  0.1473  0.4165 -0.8454
 9323TIP3   OH249459   0.802   1.572  11.929  0.1606 -0.0356 -0.9136
 9323TIP3    H149460   0.723   1.579  11.875  0.5361 -0.2184 -1.5039
 9323TIP3    H249461   0.770   1.572  12.019 -0.4956  0.1032 -1.1412
 9324TIP3   OH249462   0.319   1.314   5.230  0.1614 -0.1552  0.0962
 9324TIP3    H149463   0.271   1.231   5.230 -1.4772  0.7459  0.3950
 9324TIP3    H249464   0.410   1.288   5.223 -0.4392 -1.8908 -3.2058
 9325TIP3   OH249465   4.518   1.091   3.133 -0.5036 -0.1193  0.5043
 9325TIP3    H149466   4.604   1.078   3.094 -0.6312  0.8573 -0.1447
 9325TIP3    H249467   4.470   1.143   3.069 -0.9489  0.9355  1.6322
 9326TIP3   OH249468   2.587   3.833   2.527  0.0852 -0.2188 -0.1454
 9326TIP3    H149469   2.569   3.809   2.618  1.4872 -0.2120  0.1549
 9326TIP3    H249470   2.674   3.798   2.510  0.2817  0.7124 -1.1416
 9327TIP3   OH249471   4.538   3.104   4.264  0.0374  0.6688 -0.1083
 9327TIP3    H149472   4.625   3.066   4.276  0.3390  0.6571 -1.9669
 9327TIP3    H249473   4.547   3.162   4.189 -1.8434 -0.3990 -1.2496
 9328TIP3   OH249474   3.886   5.899   4.795  0.3718 -0.1052  0.4359
 9328TIP3    H149475   3.950   5.827   4.794  0.2190 -0.2468 -0.3798
 9328TIP3    H249476   3.802   5.857   4.809  0.5035  0.1457  2.1637
 9329TIP3   OH249477   4.703   3.916  13.359  0.2111 -0.2583  0.1488
 9329TIP3    H149478   4.759   3.920  13.437  2.8102 -2.0434 -1.4384
 9329TIP3    H249479   4.631   3.858  13.384  0.4526 -0.0145  1.5011
 9330TIP3   OH249480   3.045   4.657   0.214 -0.4862 -0.5304 -0.3191
 9330TIP3    H149481   3.031   4.614   0.299  1.0568 -1.2773 -0.4123
 9330TIP3    H249482   2.961   4.650   0.169 -0.6573 -2.2805  0.2110
 9331TIP3   OH249483   1.787   0.709   3.869  0.2608  0.3901  0.7793
 9331TIP3    H149484   1.790   0.704   3.774  0.3802  0.2811  0.7873
 9331TIP3    H249485   1.716   0.770   3.889  1.2602  1.6607  0.5923
 9332TIP3   OH249486   6.751   0.819   5.349 -0.4104  0.2366 -0.7536
 9332TIP3    H149487   6.743   0.756   5.420  0.4740  1.5722  0.5984
 9332TIP3    H249488   6.789   0.897   5.390  1.3312  0.6379 -2.9248
 9333TIP3   OH249489   3.138   1.894  10.738  0.1161 -0.1629 -0.0436
 9333TIP3    H149490   3.124   1.832  10.666 -1.0969  0.1099 -0.0731
 9333TIP3    H249491   3.138   1.980  10.696  0.5854 -0.0737  0.1407
 9334TIP3   OH249492   1.209   4.013   1.492 -0.2333  0.0642  0.4017
 9334TIP3    H149493   1.264   4.020   1.570 -0.6126  0.6534  0.6281
 9334TIP3    H249494   1.246   3.940   1.443  1.6793  1.3414 -0.1867
 9335TIP3   OH249495   0.717   0.520   2.306 -0.3408  0.4535  0.2786
 9335TIP3    H149496   0.671   0.598   2.274  0.4848  0.9037  0.1686
 9335TIP3    H249497   0.680   0.505   2.393  2.3577  3.4857  2.1585
 9336TIP3   OH249498   5.652   3.375   6.670 -0.2587  0.3114 -0.0047
 9336TIP3    H149499   5.559   3.382   6.692 -0.2516  2.0964 -0.3979
 9336TIP3    H249500   5.666   3.282   6.652 -2.5236  0.3198 -2.3232
 9337TIP3   OH249501   5.557   3.983  12.593  0.5566 -0.2913 -0.7292
 9337TIP3    H149502   5.477   3.994  12.646  2.2306 -0.0947  1.9432
 9337TIP3    H249503   5.555   4.056  12.532 -1.4062 -0.4281 -0.9056
 9338TIP3   OH249504   5.660   1.411   5.625 -0.2898  0.3817 -0.0527
 9338TIP3    H149505   5.698   1.340   5.573 -0.1114  0.3391  0.1289
 9338TIP3    H249506   5.568   1.414   5.600  0.4033  2.4149 -2.6893
 9339TIP3   OH249507   5.693   5.582   2.504 -0.2610 -0.3010  0.1850
 9339TIP3    H149508   5.695   5.520   2.430 -1.9265 -1.2902  0.9220
 9339TIP3    H249509   5.670   5.528   2.579 -0.1424  0.9683  1.1601
 9340TIP3   OH249510   4.107   4.663   2.736 -0.2448  0.4821  0.3468
 9340TIP3    H149511   4.064   4.578   2.739  1.0213 -0.1484  1.5322
 9340TIP3    H249512   4.069   4.712   2.809 -1.2305  1.0960 -0.5474
 9341TIP3   OH249513   5.090   2.405  12.965 -0.5776 -0.0514 -0.0457
 9341TIP3    H149514   5.104   2.324  12.916 -0.6924 -0.3568  0.4301
 9341TIP3    H249515   5.041   2.461  12.904 -0.7581 -0.4458 -0.2674
 9342TIP3   OH249516   5.963   6.100   4.012  0.7612 -0.3032 -0.4193
 9342TIP3    H149517   5.883   6.143   4.044  1.8656  1.9822 -0.5310
 9342TIP3    H249518   5.944   6.080   3.920  0.5205  0.7788 -0.6133
 9343TIP3   OH249519   2.038   2.498   1.923 -0.4432 -0.0798 -0.2483
 9343TIP3    H149520   2.057   2.571   1.865 -0.6277  1.2659  1.3237
 9343TIP3    H249521   1.989   2.536   1.996 -2.8138 -2.1863 -0.5708
 9344TIP3   OH249522   5.880   0.163  13.404 -0.0043  0.4221  0.2195
 9344TIP3    H149523   5.868   0.226  13.333  0.8732  1.9615  1.3604
 9344TIP3    H249524   5.817   0.190  13.471  0.5701  0.2722  0.8317
 9345TIP3   OH249525   4.876   5.244   3.508 -0.2235  0.7609  0.5443
 9345TIP3    H149526   4.784   5.237   3.480  0.1603  0.9217 -0.8527
 9345TIP3    H249527   4.909   5.320   3.460  0.6161  0.7669  1.1241
 9346TIP3   OH249528   0.840   1.572   1.253  0.0593  0.2271 -0.3599
 9346TIP3    H149529   0.831   1.657   1.209  2.7241  1.3647  1.0541
 9346TIP3    H249530   0.773   1.573   1.321 -0.2012  1.0086 -0.6170
 9347TIP3   OH249531   4.491   3.016  16.783  0.4853  0.1170  0.1919
 9347TIP3    H149532   4.434   3.020  16.859  1.1399  0.8287  0.6607
 9347TIP3    H249533   4.486   2.925  16.754  1.5230 -0.6040  2.1221
 9348TIP3   OH249534   3.353   1.599  12.647 -0.1068  0.0612  0.1419
 9348TIP3    H149535   3.440   1.637  12.653 -0.8355  1.6443  1.2951
 9348TIP3    H249536   3.307   1.654  12.584 -0.7225  0.1748  0.6839
 9349TIP3   OH249537   2.051   1.909  13.138 -0.0788 -0.1083 -0.3965
 9349TIP3    H149538   2.133   1.894  13.091 -0.2035  1.7748 -1.2771
 9349TIP3    H249539   1.986   1.922  13.069 -0.2465  2.8347  0.2184
 9350TIP3   OH249540   3.057   1.645   3.609 -0.6623 -0.7513  0.5306
 9350TIP3    H149541   2.973   1.668   3.648 -1.2372 -2.3305  0.2693
 9350TIP3    H249542   3.036   1.621   3.519  0.5407  2.0629 -0.6259
 9351TIP3   OH249543   6.059   1.802   3.562 -0.2154 -0.2164 -0.4221
 9351TIP3    H149544   6.049   1.733   3.497 -2.3222 -0.7495  0.3982
 9351TIP3    H249545   6.018   1.879   3.521 -2.0515 -0.6952  0.4192
 9352TIP3   OH249546   4.471   4.825   5.337  0.1701 -0.0594 -0.0727
 9352TIP3    H149547   4.449   4.878   5.260  2.0433  0.1589 -0.5229
 9352TIP3    H249548   4.416   4.747   5.330  0.1097  0.0889 -1.5076
 9353TIP3   OH249549   5.670   5.919   5.010 -0.1319  0.1017 -0.4471
 9353TIP3    H149550   5.704   6.008   5.006 -2.2269  0.9066 -2.3130
 9353TIP3    H249551   5.612   5.919   5.087 -0.9519  0.7143 -1.0436
 9354TIP3   OH249552   6.048   6.655   6.415 -0.4873  0.4357 -0.5992
 9354TIP3    H149553   6.131   6.666   6.462 -0.3109  0.5448 -0.9421
 9354TIP3    H249554   5.989   6.618   6.481  0.1834 -0.8393 -0.6767
 9355TIP3   OH249555   0.274   1.287   2.359  0.0372 -0.0355  0.5124
 9355TIP3    H149556   0.179   1.291   2.347  0.0031 -0.9161  0.4115
 9355TIP3    H249557   0.305   1.238   2.283  0.6816  1.0316  0.0684
 9356TIP3   OH249558   2.041   1.886   1.834 -0.0567  0.5407  0.4388
 9356TIP3    H149559   2.017   1.806   1.789  1.4376  0.4133 -0.1891
 9356TIP3    H249560   2.050   1.951   1.764 -2.0470  1.5142  1.0055
 9357TIP3   OH249561   0.823   5.371  14.763  0.5247 -0.3616  0.0298
 9357TIP3    H149562   0.761   5.369  14.837 -0.5165  0.7160 -0.7707
 9357TIP3    H249563   0.908   5.384  14.804  0.3890 -2.7521  1.2269
 9358TIP3   OH249564   2.210   5.383  12.080 -0.2655  0.3167 -0.3139
 9358TIP3    H149565   2.136   5.325  12.064 -0.3107  0.7660 -1.9674
 9358TIP3    H249566   2.259   5.341  12.150 -1.4446 -0.5874  0.0044
 9359TIP3   OH249567   0.625   5.861   1.143 -0.2554 -0.4988 -0.2705
 9359TIP3    H149568   0.631   5.872   1.048  0.5010 -0.3800 -0.2201
 9359TIP3    H249569   0.716   5.844   1.170 -0.7600 -3.0538  0.1184
 9360TIP3   OH249570   4.607   2.562   1.577 -0.0681  0.1224 -0.6313
 9360TIP3    H149571   4.674   2.535   1.640 -0.9941 -0.4251  0.1430
 9360TIP3    H249572   4.541   2.493   1.582  0.1838 -0.3282 -2.7707
 9361TIP3   OH249573   2.395   1.065   1.421  0.0351  0.7264  0.1717
 9361TIP3    H149574   2.347   1.146   1.438 -1.6737  0.0475 -1.1347
 9361TIP3    H249575   2.327   1.002   1.396  1.5838 -0.3351 -1.6267
 9362TIP3   OH249576   4.401   0.886  11.383 -0.4620  0.2831  0.2912
 9362TIP3    H149577   4.355   0.923  11.459  0.3609  1.1705  0.3745
 9362TIP3    H249578   4.332   0.870  11.318 -1.1211 -0.1136  1.0668
 9363TIP3   OH249579   0.100   2.377   1.520  0.1441 -0.1406 -0.3732
 9363TIP3    H149580   0.099   2.290   1.560  1.8461  0.3477  0.8514
 9363TIP3    H249581   0.069   2.362   1.430 -0.8590 -1.7668  0.1994
 9364TIP3   OH249582   0.864   2.916  15.105  0.4596 -0.1488 -0.0258
 9364TIP3    H149583   0.896   2.976  15.172  0.8185  0.5704 -0.8289
 9364TIP3    H249584   0.923   2.841  15.110  0.6410  0.0151  0.2892
 9365TIP3   OH249585   0.049   1.154  15.802  0.2974  0.0717 -0.9083
 9365TIP3    H149586  -0.045   1.168  15.800  0.0040 -1.1341  1.4200
 9365TIP3    H249587   0.059   1.059  15.806  1.4609  0.2220  1.5593
 9366TIP3   OH249588   6.057   5.053  12.929  0.2443 -0.0843 -0.3565
 9366TIP3    H149589   6.044   5.068  13.023  0.4963  0.1911 -0.3655
 9366TIP3    H249590   5.993   4.985  12.907  1.3478 -1.4197  0.3676
 9367TIP3   OH249591   2.150   6.431  13.590  0.5046 -0.6529 -0.5517
 9367TIP3    H149592   2.118   6.508  13.636 -1.9436  0.0175 -3.1057
 9367TIP3    H249593   2.112   6.357  13.638  1.4533 -0.2231  0.9029
 9368TIP3   OH249594   1.529   0.180   1.477  0.1900 -0.3179 -0.1129
 9368TIP3    H149595   1.513   0.103   1.531 -0.3852  0.6966  1.2281
 9368TIP3    H249596   1.442   0.212   1.453  0.3620  0.6730  0.4980
 9369TIP3   OH249597   3.846   2.837  12.489 -0.1232 -0.0314  0.4469
 9369TIP3    H149598   3.939   2.857  12.494 -0.2281  0.9785 -0.9688
 9369TIP3    H249599   3.842   2.741  12.481  0.7571 -0.1143  0.9370
 9370TIP3   OH249600   0.235   2.845  13.601 -0.1771  1.1179  0.2845
 9370TIP3    H149601   0.151   2.823  13.561 -0.1839 -0.8249  1.2478
 9370TIP3    H249602   0.299   2.838  13.530 -0.5657  0.5493 -0.0184
 9371TIP3   OH249603   2.871   3.987  11.523  0.1774 -1.1506 -0.3316
 9371TIP3    H149604   2.963   3.961  11.510 -0.0951 -2.0256 -0.5689
 9371TIP3    H249605   2.822   3.906  11.512 -0.6309 -0.6828 -0.2020
 9372TIP3   OH249606   4.203   5.151  14.195 -0.2676  0.0086  0.6361
 9372TIP3    H149607   4.220   5.134  14.288 -0.8810 -0.2019  0.7117
 9372TIP3    H249608   4.290   5.157  14.156 -0.0100 -1.2450  0.9838
 9373TIP3   OH249609   4.782   4.965  15.827  0.1973 -0.0706  0.4429
 9373TIP3    H149610   4.788   5.005  15.740  1.2525 -0.9540  0.0814
 9373TIP3    H249611   4.849   4.896  15.826  0.2491 -0.0707  1.9744
 9374TIP3   OH249612   1.548   5.571   2.784 -0.1088 -0.1534  0.1649
 9374TIP3    H149613   1.615   5.627   2.824  2.8221 -0.5172 -3.6503
 9374TIP3    H249614   1.514   5.623   2.711  0.2201 -2.0330 -1.4009
 9375TIP3   OH249615   2.897   1.024  12.063 -0.7379  0.3226  0.2706
 9375TIP3    H149616   2.943   1.096  12.020 -2.0768  0.1499 -1.5472
 9375TIP3    H249617   2.811   1.060  12.085 -1.4330 -0.7111 -0.6907
 9376TIP3   OH249618   4.751   5.399   0.032 -0.0887 -0.7970  0.2712
 9376TIP3    H149619   4.738   5.377   0.124  1.3804  2.4931  1.4028
 9376TIP3    H249620   4.844   5.383   0.016 -0.2997 -1.1980 -0.5977
 9377TIP3   OH249621   3.323   3.925   3.266  0.1718  0.2662  0.0123
 9377TIP3    H149622   3.345   3.833   3.285  0.7722  0.2494 -0.6906
 9377TIP3    H249623   3.399   3.957   3.216  1.0563  1.8143  2.1847
 9378TIP3   OH249624   5.692   0.003  16.703 -0.2508  0.2921 -0.4627
 9378TIP3    H149625   5.718  -0.048  16.626  1.0177  1.3906 -0.7785
 9378TIP3    H249626   5.758  -0.017  16.769 -1.0718 -0.2789  0.2122
 9379TIP3   OH249627   4.516   2.601  16.052  0.0818 -0.2748  0.0279
 9379TIP3    H149628   4.562   2.527  16.091 -0.5763 -1.8765 -2.0254
 9379TIP3    H249629   4.472   2.564  15.975 -1.5824  1.9324 -0.1975
 9380TIP3   OH249630   1.706   2.474  14.766  0.5994 -0.3335  0.2240
 9380TIP3    H149631   1.697   2.548  14.826 -0.3926 -0.8239  0.7086
 9380TIP3    H249632   1.624   2.425  14.775 -0.2775  0.4056 -2.6977
 9381TIP3   OH249633   1.614   4.835  14.826  0.4102  0.1176  0.2303
 9381TIP3    H149634   1.682   4.852  14.891 -2.1438  3.1111  2.4809
 9381TIP3    H249635   1.537   4.811  14.879 -1.7054  2.3407 -1.6080
 9382TIP3   OH249636   4.432   1.831   2.897  0.0021 -0.1430  0.0012
 9382TIP3    H149637   4.344   1.823   2.936 -1.1868 -2.6437 -2.7429
 9382TIP3    H249638   4.476   1.750   2.923  0.6813  0.0957 -0.4014
 9383TIP3   OH249639   2.955   2.246   5.900 -0.1882  0.3068  0.2070
 9383TIP3    H149640   3.014   2.295   5.842 -1.6069  0.6593 -1.0046
 9383TIP3    H249641   3.014   2.191   5.952  1.1703 -0.7806 -2.2591
 9384TIP3   OH249642   6.005   4.299   3.483 -0.3922  0.3255 -0.5231
 9384TIP3    H149643   5.992   4.232   3.416 -0.3394 -0.0476 -0.1618
 9384TIP3    H249644   5.991   4.253   3.566  0.7394  0.4850 -0.2251
 9385TIP3   OH249645   1.093   4.919  13.141  0.4013 -0.2049  0.0894
 9385TIP3    H149646   1.183   4.934  13.110  1.2724 -0.6056  2.2713
 9385TIP3    H249647   1.096   4.940  13.234 -1.0963 -2.8572  0.8354
 9386TIP3   OH249648   6.628   3.439  16.317 -0.3882  0.5237  0.7576
 9386TIP3    H149649   6.560   3.389  16.363 -0.1950  1.3546  1.9874
 9386TIP3    H249650   6.703   3.379  16.313 -1.1156 -0.3695 -0.5317
 9387TIP3   OH249651   6.137   4.965   0.797  0.1993 -0.0842  0.2502
 9387TIP3    H149652   6.139   4.947   0.891 -0.4017  0.2605  0.3381
 9387TIP3    H249653   6.050   4.935   0.769 -0.7505  2.3963  0.3573
 9388TIP3   OH249654   0.195   2.116  16.943 -0.1786  0.7110  0.3782
 9388TIP3    H149655   0.220   2.138  16.853  1.2022  1.0660  0.8355
 9388TIP3    H249656   0.138   2.039  16.933 -2.5273  2.4557 -1.0058
 9389TIP3   OH249657   4.322   6.095  10.753  0.1784  0.7835  0.3711
 9389TIP3    H149658   4.418   6.087  10.756  0.2981  2.1849  0.8083
 9389TIP3    H249659   4.291   6.026  10.812  0.8758 -0.0911 -0.2430
 9390TIP3   OH249660   5.689   6.151   4.033 -0.0410 -0.2320 -0.1783
 9390TIP3    H149661   5.628   6.161   4.106  0.0527 -1.6151  0.1246
 9390TIP3    H249662   5.637   6.169   3.955 -0.0374  1.7049  0.2109
 9391TIP3   OH249663   3.184   2.697   3.505  0.3026 -0.6368  0.3391
 9391TIP3    H149664   3.132   2.618   3.522 -0.3104 -0.1609  0.7333
 9391TIP3    H249665   3.264   2.685   3.556  1.1094 -1.8861 -1.1392
 9392TIP3   OH249666   6.787   6.431   3.962  0.5143  0.8023 -0.1243
 9392TIP3    H149667   6.846   6.452   3.890 -0.3419  0.6737 -0.8900
 9392TIP3    H249668   6.837   6.371   4.018  0.1286 -1.7570 -2.3402
 9393TIP3   OH249669   1.744   3.394   0.715 -0.2201  0.3441 -0.2398
 9393TIP3    H149670   1.743   3.436   0.628  1.1866  2.4864  0.6956
 9393TIP3    H249671   1.762   3.302   0.696 -0.8465  0.5725 -2.2583
 9394TIP3   OH249672   4.453   2.328  15.144  0.3097  0.2440 -1.0977
 9394TIP3    H149673   4.451   2.397  15.210 -1.6431 -0.4641 -0.3350
 9394TIP3    H249674   4.541   2.332  15.107  1.6868  0.3091  1.9271
 9395TIP3   OH249675   1.575   1.996   1.414  0.1633 -0.1456 -0.6528
 9395TIP3    H149676   1.595   1.922   1.358  0.6764 -0.2553 -0.3332
 9395TIP3    H249677   1.555   2.067   1.353 -0.5373 -0.5965 -0.9560
 9396TIP3   OH249678   5.822   6.702   0.172 -0.2096 -0.7396 -0.2655
 9396TIP3    H149679   5.875   6.628   0.142  0.4452 -0.6090  0.5382
 9396TIP3    H249680   5.733   6.678   0.149  0.1914 -0.9151 -1.7531
 9397TIP3   OH249681   6.826   1.158   5.079 -0.4320 -0.5125  0.0449
 9397TIP3    H149682   6.758   1.092   5.068 -1.5169  0.7892 -1.6587
 9397TIP3    H249683   6.883   1.123   5.147 -2.0529 -2.2665  0.5867
 9398TIP3   OH249684   4.174   2.732  11.998 -0.5078 -0.3343 -0.0517
 9398TIP3    H149685   4.135   2.818  11.981  0.5532  0.9418  3.1644
 9398TIP3    H249686   4.249   2.727  11.939 -0.3333  1.1467  0.0141
 9399TIP3   OH249687   1.507   5.407   6.536  0.0954  0.7856  0.0122
 9399TIP3    H149688   1.472   5.333   6.585 -1.3013  1.2617 -0.2160
 9399TIP3    H249689   1.435   5.471   6.535  0.8002  1.5961 -0.9320
 9400TIP3   OH249690   5.277   5.066  14.255  0.0005 -0.7619 -0.5219
 9400TIP3    H149691   5.371   5.058  14.238  0.1152 -1.0170  0.1991
 9400TIP3    H249692   5.261   5.007  14.328 -0.7543 -0.8261 -0.7346
 9401TIP3   OH249693   6.492   1.634  11.251 -0.4497  0.1030  0.6962
 9401TIP3    H149694   6.525   1.720  11.279  1.1873  0.1140 -1.0382
 9401TIP3    H249695   6.416   1.619  11.305  0.7112  1.4927  2.8596
 9402TIP3   OH249696   3.164   4.157   1.629  0.6102  0.1342  0.5444
 9402TIP3    H149697   3.081   4.132   1.590  0.7149  1.5339 -0.6418
 9402TIP3    H249698   3.212   4.200   1.559  2.1403 -0.1724  1.3497
 9403TIP3   OH249699   3.908   4.128   5.929  0.0633  0.3207  0.1038
 9403TIP3    H149700   3.859   4.184   5.989 -0.4827  0.6463 -0.6242
 9403TIP3    H249701   3.970   4.080   5.985  0.6133  1.7157  0.7451
 9404TIP3   OH249702   0.473   6.111   4.513  0.2158 -0.3815 -0.1151
 9404TIP3    H149703   0.554   6.088   4.559 -0.8678 -2.1679  1.0417
 9404TIP3    H249704   0.404   6.068   4.564 -1.3829  0.3463 -1.5689
 9405TIP3   OH249705   0.119   0.095   5.194  0.3706  0.2422 -0.3353
 9405TIP3    H149706   0.035   0.059   5.224  1.7305 -2.5749  0.4445
 9405TIP3    H249707   0.098   0.137   5.110 -1.8207 -0.3386 -0.1451
 9406TIP3   OH249708   4.286   0.334  16.149 -0.4599 -0.1280 -0.1110
 9406TIP3    H149709   4.260   0.415  16.104  1.6888  0.4269 -0.4913
 9406TIP3    H249710   4.381   0.339  16.153 -0.1935 -2.9726 -0.7180
 9407TIP3   OH249711   5.790   6.431  11.481  0.3938  0.3889  0.1870
 9407TIP3    H149712   5.738   6.444  11.561  0.5356  0.7775  0.2207
 9407TIP3    H249713   5.838   6.514  11.470  0.1583  0.4490 -0.4573
 9408TIP3   OH249714   0.857   3.164   2.742  0.5810  0.2495  0.3814
 9408TIP3    H149715   0.796   3.137   2.674  1.2000  0.5420 -0.3046
 9408TIP3    H249716   0.863   3.259   2.733  0.6233  0.2998  0.8885
 9409TIP3   OH249717   4.109   4.410   5.577 -0.2332  0.2094 -0.5519
 9409TIP3    H149718   4.102   4.415   5.672  2.0766  0.6250 -0.3358
 9409TIP3    H249719   4.065   4.328   5.553  1.9688 -1.6410  1.2811
 9410TIP3   OH249720   3.607   4.796  16.099  0.2174 -0.1948 -0.5785
 9410TIP3    H149721   3.618   4.727  16.164 -0.2474 -0.5990 -0.9180
 9410TIP3    H249722   3.609   4.750  16.015 -1.7733 -0.0400 -0.7497
 9411TIP3   OH249723   1.148   2.791   2.984  0.2686 -0.2578 -0.2407
 9411TIP3    H149724   1.103   2.875   2.987 -1.4205 -1.1148 -0.7997
 9411TIP3    H249725   1.096   2.733   3.039  2.8533 -0.3487  2.3548
 9412TIP3   OH249726   2.271   1.809   4.777 -0.1979  0.3652 -0.2149
 9412TIP3    H149727   2.326   1.882   4.805  0.3234 -0.4343  0.9046
 9412TIP3    H249728   2.225   1.782   4.856 -0.0094 -0.8403 -0.5042
 9413TIP3   OH249729   5.875   0.629   1.656  0.2022 -0.2525  0.5963
 9413TIP3    H149730   5.832   0.656   1.737  1.1390 -0.4338  1.1685
 9413TIP3    H249731   5.888   0.710   1.608  0.0600 -0.0841  0.8378
 9414TIP3   OH249732   3.635   1.209   5.145 -0.3101  0.1002  0.3889
 9414TIP3    H149733   3.681   1.212   5.061 -0.6796  2.4550  0.1942
 9414TIP3    H249734   3.632   1.116   5.168  2.4542 -0.3495 -0.7123
 9415TIP3   OH249735   3.257   2.524   2.780  0.4924  0.3027  0.2521
 9415TIP3    H149736   3.335   2.557   2.825  0.5970  1.4375 -0.6983
 9415TIP3    H249737   3.184   2.549   2.836  0.4833  3.0294 -0.7964
 9416TIP3   OH249738   2.681   2.991   2.642  0.0439  0.5658  0.0889
 9416TIP3    H149739   2.647   2.911   2.602  1.1732  0.5285 -0.8424
 9416TIP3    H249740   2.708   3.046   2.568  0.9370  1.0642  0.7629
 9417TIP3   OH249741   2.562   1.898  14.393 -0.1674 -0.2352 -0.2485
 9417TIP3    H149742   2.543   1.851  14.312 -0.8352 -1.3894  0.5564
 9417TIP3    H249743   2.658   1.903  14.396 -0.0913 -1.2588 -0.5214
 9418TIP3   OH249744   2.518   0.021  10.878 -0.2662 -0.1165 -0.4372
 9418TIP3    H149745   2.477  -0.064  10.894  0.6755 -0.5594 -0.2901
 9418TIP3    H249746   2.565   0.009  10.795  0.4660  0.0176 -0.0495
 9419TIP3   OH249747   4.366   4.637   4.083 -0.1446 -0.2321 -0.6539
 9419TIP3    H149748   4.415   4.718   4.070 -1.1668  0.2918 -1.4196
 9419TIP3    H249749   4.389   4.609   4.171  0.7259  0.5457 -0.6205
 9420TIP3   OH249750   0.574   1.002   6.733  0.0992 -0.2995 -0.2086
 9420TIP3    H149751   0.536   0.998   6.820  1.2965  0.5599  0.3936
 9420TIP3    H249752   0.639   0.931   6.732 -0.3251 -0.6851 -0.6164
 9421TIP3   OH249753   6.173   3.360   5.251  0.2065 -0.2220 -0.3623
 9421TIP3    H149754   6.238   3.428   5.233  0.7350 -0.4839  0.5067
 9421TIP3    H249755   6.118   3.358   5.173 -1.7577  3.3216  0.7218
 9422TIP3   OH249756   1.554   3.737  11.857  0.1174 -0.2278  0.2926
 9422TIP3    H149757   1.602   3.756  11.938 -0.1768  1.1012  0.1758
 9422TIP3    H249758   1.476   3.691  11.887  0.7316 -1.1054  0.6112
 9423TIP3   OH249759   3.654   2.641  13.061  0.0360  0.6180 -0.6264
 9423TIP3    H149760   3.676   2.729  13.031  0.1622  1.6096  2.1307
 9423TIP3    H249761   3.712   2.584  13.011  0.4455  2.1256 -1.9647
 9424TIP3   OH249762   1.633   5.804  14.141  0.1299  0.1575 -0.0270
 9424TIP3    H149763   1.594   5.727  14.184  0.1688 -0.0652 -0.3882
 9424TIP3    H249764   1.721   5.809  14.178 -0.2459  0.7019  0.8440
 9425TIP3   OH249765   4.021   2.361  11.558  0.6455  0.3098 -0.0453
 9425TIP3    H149766   3.965   2.287  11.582  2.0262 -0.4243  1.0803
 9425TIP3    H249767   4.076   2.375  11.635  0.7578  2.2101 -0.4270
 9426TIP3   OH249768   1.653   0.220  10.986 -0.0098  0.1031  0.6862
 9426TIP3    H149769   1.670   0.175  11.069 -0.1738 -0.8337  0.2218
 9426TIP3    H249770   1.592   0.163  10.940  0.1796  0.5537 -0.1328
 9427TIP3   OH249771   1.854   5.516   1.449  0.0255 -0.1616 -0.5289
 9427TIP3    H149772   1.928   5.515   1.388  0.9116 -0.0969  0.5204
 9427TIP3    H249773   1.894   5.514   1.536 -1.1903  0.7193  0.0800
 9428TIP3   OH249774   6.071   4.888   5.232  0.3255 -1.2183  0.3323
 9428TIP3    H149775   6.006   4.832   5.272 -0.3521 -0.2039  0.6924
 9428TIP3    H249776   6.138   4.901   5.300 -1.5933  1.7974  1.8831
 9429TIP3   OH249777   5.066   1.722   2.333 -0.3228  0.2901  0.3328
 9429TIP3    H149778   4.978   1.715   2.297 -0.1291  0.0905 -0.1145
 9429TIP3    H249779   5.121   1.743   2.257 -0.0696  1.0109  0.6984
 9430TIP3   OH249780   3.164   6.734   1.996  0.9241  0.3012  0.3176
 9430TIP3    H149781   3.112   6.661   2.030  1.3875  0.1353  0.6950
 9430TIP3    H249782   3.100   6.798   1.965  0.4986  0.1233  0.8198
 9431TIP3   OH249783   1.333   2.242   4.577  0.5735 -0.3332 -0.1291
 9431TIP3    H149784   1.352   2.238   4.671  1.0278 -0.9480 -0.2390
 9431TIP3    H249785   1.271   2.170   4.562 -1.0379  0.9541  0.0237
 9432TIP3   OH249786   0.933   1.322  11.317  0.0752  0.0851  0.2884
 9432TIP3    H149787   0.903   1.337  11.228  0.6628 -0.6039 -0.0341
 9432TIP3    H249788   1.001   1.255  11.309 -0.8184 -1.0091  1.3916
 9433TIP3   OH249789   3.327   5.719   5.574 -0.0596  0.1063 -0.2445
 9433TIP3    H149790   3.376   5.667   5.638  1.3202  0.6242 -0.8488
 9433TIP3    H249791   3.235   5.708   5.600  0.4414  0.1109  1.6769
 9434TIP3   OH249792   4.637   5.609   5.514  0.5680  0.4364 -0.4301
 9434TIP3    H149793   4.553   5.568   5.535  2.2737 -3.3957 -0.2112
 9434TIP3    H249794   4.661   5.658   5.592 -0.8458  0.5323 -0.0289
 9435TIP3   OH249795   2.819   5.915   5.717  0.1513 -0.7380  0.0227
 9435TIP3    H149796   2.759   5.984   5.748 -0.6202 -1.3258 -0.1371
 9435TIP3    H249797   2.774   5.833   5.738 -0.2944 -1.1786 -2.3938
 9436TIP3   OH249798   1.100   2.202  17.045 -0.6218 -0.3825 -0.1905
 9436TIP3    H149799   1.037   2.186  16.974 -2.8666  2.3129  1.0007
 9436TIP3    H249800   1.067   2.151  17.118  0.1406 -1.0530 -0.3117
 9437TIP3   OH249801   4.680   0.436   5.922  0.2717 -0.0139  0.6495
 9437TIP3    H149802   4.619   0.487   5.976  1.0719 -0.2459  1.8151
 9437TIP3    H249803   4.766   0.476   5.938  0.2121  1.8033 -2.7577
 9438TIP3   OH249804   3.645   3.584   0.097  0.7212  0.0862 -0.3295
 9438TIP3    H149805   3.669   3.674   0.116  0.2460  0.3055 -0.7468
 9438TIP3    H249806   3.659   3.537   0.179 -1.6274  1.0736  0.7154
 9439TIP3   OH249807   2.569   4.923   0.710 -0.2371 -0.2907 -0.4654
 9439TIP3    H149808   2.573   5.012   0.746 -2.2900  0.5440 -2.0892
 9439TIP3    H249809   2.484   4.890   0.739  0.3171 -1.5938 -0.2542
 9440TIP3   OH249810   6.597   2.543   4.804  0.0584 -0.3328  0.3592
 9440TIP3    H149811   6.590   2.596   4.884  0.3741  0.5592 -0.1910
 9440TIP3    H249812   6.691   2.537   4.787  0.1126 -2.0274  1.0139
 9441TIP3   OH249813   6.802   2.652  16.218  0.3163  0.0423  0.5135
 9441TIP3    H149814   6.755   2.735  16.214  1.3508  0.5960 -2.0013
 9441TIP3    H249815   6.874   2.667  16.279 -0.9564  0.1108  2.0714
 9442TIP3   OH249816   4.505   6.580   4.600 -0.4506  0.3043  0.0371
 9442TIP3    H149817   4.424   6.606   4.644 -0.0898  2.0355 -0.2587
 9442TIP3    H249818   4.484   6.582   4.507  0.4778  3.0055 -0.1880
 9443TIP3   OH249819   1.848   4.051   4.429 -0.0758 -0.3476  0.6949
 9443TIP3    H149820   1.807   4.085   4.350 -1.9067 -0.3675  1.5840
 9443TIP3    H249821   1.812   3.963   4.439  1.5360 -1.0499  0.5874
 9444TIP3   OH249822   5.051   6.248  14.090  0.2165 -0.1464  0.5681
 9444TIP3    H149823   4.962   6.243  14.124 -0.5286  0.7749 -1.1105
 9444TIP3    H249824   5.058   6.336  14.053  0.9546 -1.0223 -1.5420
 9445TIP3   OH249825   0.302   4.944   3.641  0.4980  0.0462  0.0654
 9445TIP3    H149826   0.327   5.029   3.678  1.3696 -0.6940  1.2326
 9445TIP3    H249827   0.242   4.966   3.570  0.5916  1.6332  0.4383
 9446TIP3   OH249828   4.420   1.362   2.250  0.0871  0.0602  0.2415
 9446TIP3    H149829   4.466   1.409   2.320  1.8567 -1.6970  0.3497
 9446TIP3    H249830   4.440   1.412   2.171 -0.0814  0.8330  0.6802
 9447TIP3   OH249831   2.766   2.723   4.652 -0.7135  0.0696  0.1513
 9447TIP3    H149832   2.749   2.783   4.726  0.0250 -1.0279  1.2442
 9447TIP3    H249833   2.840   2.671   4.680  0.8922  0.9280 -2.2133
 9448TIP3   OH249834   4.880   3.671  12.178 -0.3634  0.8368  0.5101
 9448TIP3    H149835   4.827   3.704  12.105 -0.1769 -0.2234 -0.1207
 9448TIP3    H249836   4.847   3.583  12.195  1.7097 -0.2010 -0.4631
 9449TIP3   OH249837   4.240   3.621  15.432  0.1820 -0.2782  0.2832
 9449TIP3    H149838   4.299   3.650  15.363  0.6133  1.3813  1.2687
 9449TIP3    H249839   4.161   3.591  15.386  0.3660  0.9816 -0.9329
 9450TIP3   OH249840   6.190   4.829  15.911  0.1813 -0.3436  0.2557
 9450TIP3    H149841   6.246   4.763  15.871  0.5317 -0.1454  0.4100
 9450TIP3    H249842   6.245   4.869  15.979  0.2170  0.5784 -0.2982
 9451TIP3   OH249843   2.933   5.489  12.801 -0.0384  0.0242 -0.2088
 9451TIP3    H149844   2.892   5.481  12.887  1.4360  0.4894  0.5648
 9451TIP3    H249845   2.905   5.410  12.754  1.8617 -2.0633  1.9088
 9452TIP3   OH249846   5.660   1.660  13.764  0.3373 -0.3332  0.0584
 9452TIP3    H149847   5.579   1.629  13.722  0.7377 -0.7242 -0.4425
 9452TIP3    H249848   5.642   1.654  13.858 -1.0566  1.8034  0.0065
 9453TIP3   OH249849   2.369   0.281  13.472  0.1869 -0.7541 -0.7485
 9453TIP3    H149850   2.318   0.304  13.394 -0.6761  0.5796  0.1635
 9453TIP3    H249851   2.394   0.190  13.459  0.5897 -0.3977 -2.8629
 9454TIP3   OH249852   5.571   0.798  16.757  0.0579 -0.0802 -0.3538
 9454TIP3    H149853   5.527   0.717  16.730  1.6190 -0.1611 -2.9667
 9454TIP3    H249854   5.658   0.793  16.718 -0.6221  3.9898 -3.0320
 9455TIP3   OH249855   4.791   1.227  16.141 -1.0232  0.6046 -0.1317
 9455TIP3    H149856   4.787   1.322  16.141  1.3501  0.7963 -1.7867
 9455TIP3    H249857   4.818   1.204  16.052 -0.0075 -1.4991  0.6460
 9456TIP3   OH249858   6.554   4.934  12.558 -0.8616 -0.4422  0.1045
 9456TIP3    H149859   6.471   4.934  12.607 -1.1492 -2.9025 -0.2542
 9456TIP3    H249860   6.609   4.997  12.605 -1.5228 -1.8101  2.9227
 9457TIP3   OH249861   4.833   0.657  14.797  0.1375 -0.5949  0.0507
 9457TIP3    H149862   4.873   0.621  14.718  0.3726 -1.5839  0.5944
 9457TIP3    H249863   4.765   0.716  14.766  0.9624 -0.1227 -0.8836
 9458TIP3   OH249864   6.773   4.437  14.358  0.6442 -0.2390  0.7622
 9458TIP3    H149865   6.863   4.454  14.329  0.4065 -0.6690 -0.2924
 9458TIP3    H249866   6.719   4.490  14.299  0.1880 -0.3769  1.0614
 9459TIP3   OH249867   5.262   2.904  14.850 -0.1681  0.0670  0.0660
 9459TIP3    H149868   5.281   2.985  14.803  1.3085 -0.5023 -0.3748
 9459TIP3    H249869   5.346   2.858  14.854 -0.7452 -0.9579  1.2543
 9460TIP3   OH249870   3.074   5.643   3.504  0.1587  0.0154 -0.4875
 9460TIP3    H149871   3.131   5.616   3.577 -1.1671  0.6255  0.8209
 9460TIP3    H249872   2.993   5.594   3.517  0.1937 -0.5134 -2.0836
 9461TIP3   OH249873   2.446   5.793   0.735  0.0324 -1.1042  0.3000
 9461TIP3    H149874   2.403   5.708   0.733 -1.1969 -0.5190  1.1367
 9461TIP3    H249875   2.501   5.793   0.656 -1.3119 -1.9669 -0.6911
 9462TIP3   OH249876   6.484   6.385  12.664 -0.3494  0.0999  0.5101
 9462TIP3    H149877   6.493   6.480  12.654  0.1482 -0.0341 -0.4166
 9462TIP3    H249878   6.537   6.364  12.741  0.6916  0.4079 -0.0962
 9463TIP3   OH249879   5.013   6.721   1.678  0.1310 -0.1967  0.2086
 9463TIP3    H149880   5.042   6.645   1.728  0.5724 -0.5533 -0.5856
 9463TIP3    H249881   4.970   6.685   1.601 -0.1569  0.3537  0.1053
 9464TIP3   OH249882   5.354   3.227   2.274 -0.4569  0.1069 -0.3456
 9464TIP3    H149883   5.442   3.202   2.304 -0.5921 -0.7516 -0.6381
 9464TIP3    H249884   5.296   3.163   2.316 -0.7379 -0.5736 -1.7081
 9465TIP3   OH249885   6.414   5.619   2.110 -0.1785 -0.1810 -0.4287
 9465TIP3    H149886   6.327   5.594   2.080 -1.2422  3.0540 -0.3591
 9465TIP3    H249887   6.439   5.693   2.055  1.6290  0.3055  0.9251
 9466TIP3   OH249888   3.001   3.892   4.840 -0.5778 -0.0194  0.1823
 9466TIP3    H149889   3.001   3.800   4.814 -3.2678 -0.0976  0.1392
 9466TIP3    H249890   2.921   3.902   4.892  0.8484  1.7970  2.1890
 9467TIP3   OH249891   0.036   6.488  15.541  0.0119  0.2407 -0.7633
 9467TIP3    H149892   0.070   6.517  15.457 -0.5158 -0.8204 -1.3743
 9467TIP3    H249893  -0.018   6.411  15.520  0.9124 -0.8535  0.6765
 9468TIP3   OH249894   6.088   2.250  12.057  0.1575 -0.1390 -0.3670
 9468TIP3    H149895   6.163   2.205  12.096  0.2133  1.4147  1.5047
 9468TIP3    H249896   6.013   2.198  12.085  0.4453 -1.1897 -1.4792
 9469TIP3   OH249897   3.402   0.044   0.972  0.6454 -0.4857  0.0022
 9469TIP3    H149898   3.433   0.026   0.884  2.6527 -1.8848  0.9377
 9469TIP3    H249899   3.366  -0.039   1.003 -0.5291  0.1203  0.3675
 9470TIP3   OH249900   4.126   4.399  17.181 -0.3954 -0.1315 -0.6794
 9470TIP3    H149901   4.174   4.474  17.217 -0.7631 -0.3294  0.2538
 9470TIP3    H249902   4.193   4.346  17.139  0.1241 -0.0914  0.0735
 9471TIP3   OH249903   5.874   5.470  16.631 -0.2344 -0.0974  0.0954
 9471TIP3    H149904   5.900   5.444  16.543  0.6775  0.6148  0.1341
 9471TIP3    H249905   5.922   5.411  16.689  0.4276  0.4823  0.1439
 9472TIP3   OH249906   0.743   1.225  15.570  0.2327  0.0851  0.0891
 9472TIP3    H149907   0.775   1.184  15.489 -0.1119  1.0390 -0.5544
 9472TIP3    H249908   0.755   1.159  15.637 -0.5943 -1.1867 -0.9689
 9473TIP3   OH249909   1.355   5.685   2.959 -0.5963 -0.4459  0.1975
 9473TIP3    H149910   1.429   5.665   2.901 -1.6861  1.4662 -2.0155
 9473TIP3    H249911   1.361   5.779   2.973 -0.5582 -0.7875  3.0857
 9474TIP3   OH249912   1.580   4.850   4.713  0.1794  0.3275 -0.2938
 9474TIP3    H149913   1.536   4.817   4.792  0.9277 -0.7711 -0.3214
 9474TIP3    H249914   1.615   4.935   4.740  0.3093  0.0238  0.5323
 9475TIP3   OH249915   3.998   2.254  17.027  0.3925 -0.2855  0.0841
 9475TIP3    H149916   4.024   2.310  17.100 -1.1102  0.5904 -0.0179
 9475TIP3    H249917   4.042   2.170  17.044  1.2709  0.3694  1.1638
 9476TIP3   OH249918   4.862   2.028  16.311  0.0888  0.1252 -0.1289
 9476TIP3    H149919   4.893   1.945  16.274  1.7993  0.8515 -0.4080
 9476TIP3    H249920   4.874   2.018  16.405  0.4160  0.0976 -0.1730
 9477TIP3   OH249921   2.683   1.976   5.271  0.2581  0.0558 -0.2918
 9477TIP3    H149922   2.698   1.928   5.189  2.4102  1.0493 -0.5557
 9477TIP3    H249923   2.615   2.039   5.250  1.0303  0.5425 -1.4641
 9478TIP3   OH249924   4.483   3.279   4.843  0.2222 -0.0813  0.1329
 9478TIP3    H149925   4.563   3.332   4.841  0.3685 -0.2202  1.6501
 9478TIP3    H249926   4.451   3.282   4.752  1.1154  1.2261 -0.1729
 9479TIP3   OH249927   5.287   0.904  13.423  0.1997 -0.0619 -0.3225
 9479TIP3    H149928   5.381   0.920  13.417  0.2714 -0.1798  0.3928
 9479TIP3    H249929   5.257   0.964  13.492  0.1973 -1.7881  1.2659
 9480TIP3   OH249930   5.037   2.125   3.645  0.3818  0.0139 -0.7501
 9480TIP3    H149931   5.104   2.079   3.593  1.0074  0.2203 -0.1478
 9480TIP3    H249932   5.078   2.137   3.730 -0.9155 -1.0070  0.0629
 9481TIP3   OH249933   0.545   1.900   0.037 -0.1219 -0.0011  0.3214
 9481TIP3    H149934   0.454   1.874   0.023 -0.7261  1.0506  1.9390
 9481TIP3    H249935   0.565   1.870   0.125  1.3660 -0.8547 -0.2856
 9482TIP3   OH249936   1.350   6.502  15.604  0.4319  0.4828  0.1350
 9482TIP3    H149937   1.427   6.456  15.570  1.8236  2.3351  0.5755
 9482TIP3    H249938   1.328   6.565  15.536  0.5959  1.3242  0.8362
 9483TIP3   OH249939   0.680   1.905  12.481 -0.6854  0.1942  0.2207
 9483TIP3    H149940   0.696   1.822  12.437  1.2935 -0.0264  1.2454
 9483TIP3    H249941   0.663   1.967  12.410  2.5739 -0.1213 -0.9935
 9484TIP3   OH249942   3.810   3.297   4.169 -0.1572  0.4716  0.3527
 9484TIP3    H149943   3.830   3.331   4.081 -0.6645 -0.3652 -0.1018
 9484TIP3    H249944   3.720   3.266   4.162  0.5139 -1.6400  0.5283
 9485TIP3   OH249945   3.739   3.075   5.098  0.0079  0.2152  0.6251
 9485TIP3    H149946   3.712   3.095   5.009 -0.0468 -0.6234  0.4455
 9485TIP3    H249947   3.674   3.117   5.154 -1.3127 -1.2119  0.2143
 9486TIP3   OH249948   5.234   3.949  12.999 -0.7118 -0.0869  0.2013
 9486TIP3    H149949   5.242   3.939  13.094  1.0456  0.4058  0.1422
 9486TIP3    H249950   5.277   3.871  12.963 -1.8967 -0.5745 -0.2152
 9487TIP3   OH249951   6.120   4.252   4.584  0.0177 -0.5702 -0.3763
 9487TIP3    H149952   6.132   4.168   4.627  0.1491 -0.9376 -1.1223
 9487TIP3    H249953   6.026   4.270   4.592  0.1794 -0.1855  0.8677
 9488TIP3   OH249954   1.563   2.069  14.773  0.2018 -0.5403  0.0769
 9488TIP3    H149955   1.560   2.000  14.840 -0.9961 -1.3566 -0.7793
 9488TIP3    H249956   1.545   2.150  14.821 -1.3902 -1.1968  0.6579
 9489TIP3   OH249957   1.797   2.902   6.023  0.2186 -0.3664 -0.0906
 9489TIP3    H149958   1.730   2.850   6.066 -0.7781  0.1314 -0.9890
 9489TIP3    H249959   1.768   2.993   6.034  2.3977  0.1652  2.2624
 9490TIP3   OH249960   5.443   1.730  13.012  0.1638  0.1230 -0.1800
 9490TIP3    H149961   5.364   1.708  12.962  0.9404  0.3459 -1.5298
 9490TIP3    H249962   5.516   1.703  12.957  1.0670 -1.0344  1.4895
 9491TIP3   OH249963   3.192   0.515   2.208 -0.6711  0.2860  0.3696
 9491TIP3    H149964   3.236   0.599   2.199 -1.0175  0.3875 -0.4294
 9491TIP3    H249965   3.255   0.451   2.175 -0.5595  0.2729  0.6073
 9492TIP3   OH249966   0.048   1.750  14.783  0.4638 -0.4127  0.1532
 9492TIP3    H149967   0.112   1.806  14.828  0.3613 -0.4058  0.2883
 9492TIP3    H249968   0.056   1.775  14.690 -0.3568  0.6068  0.3393
 9493TIP3   OH249969   3.431   2.055   4.307  0.1032 -0.2364 -0.3041
 9493TIP3    H149970   3.400   2.115   4.239 -0.8858  0.7055  0.9136
 9493TIP3    H249971   3.389   1.971   4.286  1.4329 -0.5192 -1.9776
 9494TIP3   OH249972   0.954   6.178  17.201  0.4296  0.6990 -0.0777
 9494TIP3    H149973   0.875   6.147  17.157 -1.2278 -0.1940  3.1530
 9494TIP3    H249974   0.927   6.259  17.244  0.7113 -0.3527  2.2550
 9495TIP3   OH249975   2.863   4.487  16.602 -0.0216  0.0960  0.4456
 9495TIP3    H149976   2.867   4.410  16.545  1.0010  1.5322 -1.5602
 9495TIP3    H249977   2.925   4.468  16.672  1.8896 -0.0895 -1.1961
 9496TIP3   OH249978   5.816   3.539   3.139  0.0613 -0.5257  0.1732
 9496TIP3    H149979   5.856   3.477   3.199  0.4502 -0.4455  0.0009
 9496TIP3    H249980   5.727   3.506   3.124  0.8556 -2.0948 -1.4015
 9497TIP3   OH249981   1.425   5.380  12.680 -0.0253 -0.2205 -0.1617
 9497TIP3    H149982   1.408   5.353  12.590 -0.5030 -2.0256  0.4284
 9497TIP3    H249983   1.339   5.388  12.720  0.1849  0.5088  0.1665
 9498TIP3   OH249984   3.541   2.761  12.303 -0.0869  0.0040  0.6865
 9498TIP3    H149985   3.550   2.795  12.214 -0.5492  1.6249  1.2198
 9498TIP3    H249986   3.453   2.723  12.306 -0.5429  1.0345  0.7726
 9499TIP3   OH249987   3.026   6.176  12.689  0.2640 -0.1779 -0.3314
 9499TIP3    H149988   2.951   6.208  12.638 -0.2258 -0.8879 -0.0622
 9499TIP3    H249989   3.048   6.092  12.649  0.1777 -0.5199  0.3276
 9500TIP3   OH249990   0.032   4.202   2.014 -0.4836  0.7897  0.4426
 9500TIP3    H149991   0.120   4.172   2.034 -0.1885  1.1849 -0.2374
 9500TIP3    H249992   0.039   4.244   1.928 -0.9707  2.3556  1.1342
 9501TIP3   OH249993   0.176   4.207   5.364  0.3367 -0.3669 -0.0986
 9501TIP3    H149994   0.083   4.209   5.385  0.6334  0.4189  1.2411
 9501TIP3    H249995   0.186   4.130   5.307 -1.1544 -0.3208 -0.4710
 9502TIP3   OH249996   1.090   5.826  12.438  0.1480 -0.7192 -0.0228
 9502TIP3    H149997   1.185   5.823  12.450  0.0681  0.3772  1.1852
 9502TIP3    H249998   1.077   5.812  12.344  1.5079 -0.7065 -0.2411
 9503TIP3   OH249999   1.726   2.589  10.687  0.1631 -0.3940  0.1534
 9503TIP3    H150000   1.692   2.539  10.761 -1.7566 -0.5766 -0.7701
 9503TIP3    H250001   1.651   2.641  10.657  1.2217  0.5801 -0.9100
 9504TIP3   OH250002   4.559   2.534  14.067 -0.3011  0.1779  0.2449
 9504TIP3    H150003   4.641   2.501  14.031  1.1810  0.8706  2.7522
 9504TIP3    H250004   4.502   2.457  14.071  0.3157 -0.3954 -1.1829
 9505TIP3   OH250005   3.412   2.103   3.277 -0.4752  0.2524 -0.4570
 9505TIP3    H150006   3.374   2.182   3.237  0.6785  1.4474  0.7062
 9505TIP3    H250007   3.366   2.094   3.360  0.9649  1.1130  0.4885
 9506TIP3   OH250008   3.992   5.155   3.728  0.1633 -0.0108 -0.2863
 9506TIP3    H150009   3.938   5.090   3.773 -0.2221  0.2917 -0.3083
 9506TIP3    H250010   4.054   5.103   3.676 -0.5234 -0.3666 -0.7584
 9507TIP3   OH250011   2.669   3.367  12.011  0.1935 -0.5193  0.1520
 9507TIP3    H150012   2.594   3.426  12.009 -1.1500 -2.1593  0.1833
 9507TIP3    H250013   2.711   3.377  11.926 -0.4698 -0.0999 -0.1292
 9508TIP3   OH250014   2.629   3.573  13.820  1.0225 -0.4776 -0.5154
 9508TIP3    H150015   2.723   3.568  13.838  1.4417  1.3870 -1.9514
 9508TIP3    H250016   2.602   3.657  13.857 -0.5675 -1.8285  1.6601
 9509TIP3   OH250017   2.639   3.546   5.647  0.0358  0.0682 -0.6074
 9509TIP3    H150018   2.659   3.621   5.590 -0.0065 -0.0078 -0.7222
 9509TIP3    H250019   2.697   3.557   5.722 -1.7461  1.6667  0.6345
 9510TIP3   OH250020   2.099   1.869  15.275  0.1115  0.0070  0.8223
 9510TIP3    H150021   2.184   1.836  15.249  0.9926  2.3068  0.5481
 9510TIP3    H250022   2.112   1.900  15.365 -0.3638  0.5876  0.6960
 9511TIP3   OH250023   0.426   6.732  15.083  0.3299  0.2201 -0.0203
 9511TIP3    H150024   0.465   6.798  15.140  1.9249 -0.6041 -0.1036
 9511TIP3    H250025   0.453   6.648  15.121 -3.1925 -0.5133  1.1699
 9512TIP3   OH250026   0.757   4.444   1.104 -0.5968  0.3752  0.7919
 9512TIP3    H150027   0.701   4.372   1.134 -0.9752  0.6761  0.8218
 9512TIP3    H250028   0.837   4.401   1.074 -1.3807 -0.1941 -0.5529
 9513TIP3   OH250029   2.200   4.991   2.959 -0.0758  0.7180  0.0952
 9513TIP3    H150030   2.170   4.910   3.000 -3.9452  1.4778 -0.8123
 9513TIP3    H250031   2.271   5.021   3.016  0.4970 -2.4854  1.2946
 9514TIP3   OH250032   5.849   0.196  11.601  0.5502  0.0759  0.1870
 9514TIP3    H150033   5.769   0.210  11.651  0.4472  2.5435 -0.5615
 9514TIP3    H250034   5.826   0.219  11.511  1.6708 -0.8331 -0.3546
 9515TIP3   OH250035   2.646   2.178   1.210 -0.8268  0.2178  0.2472
 9515TIP3    H150036   2.685   2.149   1.127 -0.7454  2.2494 -0.4947
 9515TIP3    H250037   2.721   2.193   1.268 -0.5299  2.3680 -0.5870
 9516TIP3   OH250038   3.037   1.404   2.433  0.0746 -0.8038  0.4114
 9516TIP3    H150039   3.070   1.481   2.480 -1.0256 -1.1103  1.7421
 9516TIP3    H250040   3.066   1.329   2.486  0.6753 -1.3007 -0.5831
 9517TIP3   OH250041   3.627   3.240  14.646 -0.0670  0.6420  0.2057
 9517TIP3    H150042   3.608   3.331  14.622 -3.9290 -0.1496 -0.3300
 9517TIP3    H250043   3.685   3.247  14.722 -0.1537  3.5155  0.1174
 9518TIP3   OH250044   3.445   0.507   6.446 -0.2187 -0.3173 -0.3168
 9518TIP3    H150045   3.356   0.512   6.482  0.2594  0.4154  0.8160
 9518TIP3    H250046   3.458   0.414   6.427 -1.3648 -0.3843 -0.8843
 9519TIP3   OH250047   3.720   3.498  13.592  0.5755  0.1987  0.3267
 9519TIP3    H150048   3.642   3.505  13.537  1.2216  2.4605 -0.4294
 9519TIP3    H250049   3.785   3.455  13.535  0.4511  0.0565  0.2893
 9520TIP3   OH250050   0.264   5.833   3.581  0.4015 -0.1589  0.0831
 9520TIP3    H150051   0.345   5.844   3.531  1.2341  0.1074  1.4474
 9520TIP3    H250052   0.201   5.891   3.537  0.6283 -1.1191 -1.5967
 9521TIP3   OH250053   6.241   3.656  13.172 -0.5233  0.6596 -0.2335
 9521TIP3    H150054   6.236   3.632  13.080  1.0535 -2.0803  0.2838
 9521TIP3    H250055   6.318   3.713  13.178  0.8840 -1.1228 -0.3584
 9522TIP3   OH250056   4.729   6.705   1.592  0.3251 -0.2119 -0.1691
 9522TIP3    H150057   4.721   6.789   1.547  1.5774 -0.7279 -1.4534
 9522TIP3    H250058   4.656   6.653   1.558  0.2968 -0.0550 -0.3554
 9523TIP3   OH250059   6.483   1.099   4.288 -0.9650 -0.3228 -0.6482
 9523TIP3    H150060   6.485   1.182   4.335 -1.2430 -0.7382  0.1164
 9523TIP3    H250061   6.396   1.097   4.248 -2.0071 -1.3607  1.4642
 9524TIP3   OH250062   3.745   0.995   5.722 -0.2371  0.2426  0.1708
 9524TIP3    H150063   3.812   1.063   5.734 -0.8752  0.7005  1.3939
 9524TIP3    H250064   3.696   0.996   5.805 -1.4699 -0.3867 -0.5294
 9525TIP3   OH250065   2.300   3.244   5.309 -0.3157  0.1212 -0.0194
 9525TIP3    H150066   2.290   3.304   5.235  1.6631  1.4067  0.6522
 9525TIP3    H250067   2.211   3.222   5.335 -1.0791  1.4326 -1.3732
 9526TIP3   OH250068   4.081   0.862   0.624 -0.2464  0.2732 -0.4282
 9526TIP3    H150069   4.128   0.851   0.541  1.8210  1.1999  0.5529
 9526TIP3    H250070   4.082   0.956   0.640  0.2444  0.0436  1.0879
 9527TIP3   OH250071   6.125   3.363   4.976 -0.1864 -0.3397  0.2397
 9527TIP3    H150072   6.111   3.358   4.881 -0.7867  1.9306  0.1611
 9527TIP3    H250073   6.216   3.335   4.988  0.2067  0.2755 -1.1334
 9528TIP3   OH250074   6.399   0.096   2.655 -0.3311 -0.3607 -0.9830
 9528TIP3    H150075   6.435   0.082   2.568  1.9023  0.8968 -0.3436
 9528TIP3    H250076   6.409   0.190   2.671  2.2328 -0.9333  1.7245
 9529TIP3   OH250077   6.414   1.767   5.222  0.8198  0.0561 -0.2106
 9529TIP3    H150078   6.460   1.735   5.145  1.9421  1.5227 -0.1724
 9529TIP3    H250079   6.389   1.857   5.201 -1.7444 -0.5315 -0.0799
 9530TIP3   OH250080   1.404   3.310   4.957  0.2460  0.3168  0.0663
 9530TIP3    H150081   1.417   3.361   4.877  0.3975  1.8526  1.0325
 9530TIP3    H250082   1.325   3.259   4.940 -1.4949  2.8380 -0.0035
 9531TIP3   OH250083   0.567   3.402  11.270  0.2835 -0.4361  0.1183
 9531TIP3    H150084   0.518   3.451  11.204  0.4982 -1.4614 -0.8315
 9531TIP3    H250085   0.644   3.370  11.224 -0.4512 -2.7097  0.3483
 9532TIP3   OH250086   2.596   4.115   2.018  0.1831  0.3370  0.4378
 9532TIP3    H150087   2.534   4.130   2.089  0.1795  2.6359 -0.0010
 9532TIP3    H250088   2.556   4.154   1.942  1.4585  0.4379 -0.2153
 9533TIP3   OH250089   2.750   1.158   5.627 -0.1374  0.2379 -0.0706
 9533TIP3    H150090   2.840   1.146   5.597  0.6481 -0.7827  2.4387
 9533TIP3    H250091   2.704   1.079   5.597  0.2345 -0.0395  0.0806
 9534TIP3   OH250092   1.088   4.210  10.196 -0.0213  0.3850 -0.5220
 9534TIP3    H150093   1.064   4.131  10.148  1.6201  1.1367 -2.7447
 9534TIP3    H250094   1.179   4.195  10.223  0.8806  2.0790 -2.3910
 9535TIP3   OH250095   5.754   0.942   2.206 -0.1948 -0.2909  0.1658
 9535TIP3    H150096   5.835   0.980   2.241  1.3599 -3.1419  0.0127
 9535TIP3    H250097   5.754   0.966   2.113  1.2176 -1.2819 -0.1256
 9536TIP3   OH250098   4.331   6.569  14.601 -0.0056 -0.0029 -0.0957
 9536TIP3    H150099   4.318   6.557  14.507 -0.5737  0.5100 -0.0865
 9536TIP3    H250100   4.254   6.618  14.630  1.3121  2.0227  0.1865
 9537TIP3   OH250101   6.144   4.495   3.623 -0.4022 -0.2642  0.3620
 9537TIP3    H150102   6.111   4.424   3.569 -0.2814 -1.4079  1.7325
 9537TIP3    H250103   6.205   4.543   3.566 -1.3764 -0.5203 -0.9404
 9538TIP3   OH250104   4.240   5.368  15.214  0.2128 -0.3860 -0.0921
 9538TIP3    H150105   4.228   5.424  15.138  0.8178 -0.4530 -0.2440
 9538TIP3    H250106   4.152   5.349  15.245 -0.0314 -0.2991 -0.7334
 9539TIP3   OH250107   2.124   2.739  15.737  0.2254 -0.0162  0.2034
 9539TIP3    H150108   2.092   2.718  15.649 -1.3801  1.0911  0.4767
 9539TIP3    H250109   2.111   2.834  15.745  0.6479 -0.0478  1.5186
 9540TIP3   OH250110   2.015   3.313  12.851 -0.5950  0.1429  0.5703
 9540TIP3    H150111   1.949   3.292  12.785  0.7005 -2.5932  0.0333
 9540TIP3    H250112   1.999   3.251  12.922 -0.2887  1.2868  1.6806
 9541TIP3   OH250113   3.648   3.691  12.191 -0.0365  0.1044 -0.1438
 9541TIP3    H150114   3.616   3.768  12.144  0.7992  0.4121 -0.2196
 9541TIP3    H250115   3.673   3.724  12.277  0.5624 -0.0286 -0.2621
 9542TIP3   OH250116   3.093   1.352  13.082  0.2411 -0.4446  0.3670
 9542TIP3    H150117   3.025   1.390  13.027  0.4704 -0.6821 -0.0864
 9542TIP3    H250118   3.141   1.427  13.117 -0.1851 -0.2808  0.6043
 9543TIP3   OH250119   5.538   5.808  11.497 -0.0464  0.1927  0.1926
 9543TIP3    H150120   5.487   5.727  11.496 -0.1478  0.2451  0.7520
 9543TIP3    H250121   5.614   5.787  11.552 -0.2100  0.5602  0.5587
 9544TIP3   OH250122   2.909   1.969   1.892 -0.0798  0.6892  0.4712
 9544TIP3    H150123   2.844   1.902   1.873  0.1376  0.9511 -1.3833
 9544TIP3    H250124   2.857   2.049   1.907 -0.2403  0.6515  0.1312
 9545TIP3   OH250125   0.373   6.540  11.809 -0.0354 -0.0827  0.7606
 9545TIP3    H150126   0.386   6.445  11.814 -0.0573 -0.0395  2.0288
 9545TIP3    H250127   0.429   6.576  11.878  1.2762  0.9936 -0.7941
 9546TIP3   OH250128   3.528   4.525   3.553 -0.3916 -0.2459  0.4259
 9546TIP3    H150129   3.559   4.556   3.638  0.0156  1.3531 -0.2726
 9546TIP3    H250130   3.518   4.604   3.501  2.1948 -1.3211 -1.9564
 9547TIP3   OH250131   5.688   1.226  11.349 -0.1641  0.2686  0.1649
 9547TIP3    H150132   5.748   1.159  11.383 -1.2487 -0.3499  0.9456
 9547TIP3    H250133   5.638   1.181  11.281 -0.0692  0.6363 -0.1458
 9548TIP3   OH250134   3.105   0.090   5.918 -0.0009 -0.8080  0.0841
 9548TIP3    H150135   3.094   0.123   6.007  1.0677 -0.3999  0.0825
 9548TIP3    H250136   3.200   0.094   5.903 -0.1402 -1.1724 -0.9530
 9549TIP3   OH250137   4.081   1.908  15.699 -0.0215 -0.4831  0.3684
 9549TIP3    H150138   4.167   1.892  15.659  0.3735  0.4103  0.8207
 9549TIP3    H250139   4.019   1.863  15.643  0.7153 -0.8449 -0.1685
 9550TIP3   OH250140   1.970   3.388   1.296  0.1118  0.2919  0.0059
 9550TIP3    H150141   1.998   3.379   1.386 -0.2901 -2.1871 -0.0623
 9550TIP3    H250142   1.972   3.483   1.280  1.0849  0.7209  2.2826
 9551TIP3   OH250143   5.402   6.511  16.688  0.0470  0.4338 -0.1727
 9551TIP3    H150144   5.394   6.459  16.768 -0.1292  0.0685 -0.4252
 9551TIP3    H250145   5.472   6.468  16.639  1.0530  1.4061  0.3420
 9552TIP3   OH250146   6.144   2.850   1.314 -0.2045 -0.3046  0.3439
 9552TIP3    H150147   6.105   2.937   1.322  0.7927  0.3281 -1.1405
 9552TIP3    H250148   6.225   2.856   1.364 -0.1617 -0.3814  0.2836
 9553TIP3   OH250149   3.527   5.015  12.316  0.5715  0.3540 -0.6875
 9553TIP3    H150150   3.506   4.925  12.341  1.1093 -0.0982 -1.8245
 9553TIP3    H250151   3.442   5.055  12.298  0.3569 -0.0307 -0.5504
 9554TIP3   OH250152   4.377   3.298  11.157  0.2432 -0.3288 -0.5021
 9554TIP3    H150153   4.372   3.202  11.157  4.6335 -0.7894 -2.3166
 9554TIP3    H250154   4.391   3.322  11.248 -0.7289 -1.3778 -0.0503
 9555TIP3   OH250155   5.777   1.858   5.021 -0.5853  0.1944  0.6869
 9555TIP3    H150156   5.851   1.844   4.962 -0.6516  1.7202  0.2018
 9555TIP3    H250157   5.766   1.774   5.065  0.2233 -0.6328 -0.6055
 9556TIP3   OH250158   3.315   4.221  15.492 -0.3816  0.0752 -0.1193
 9556TIP3    H150159   3.220   4.212  15.492 -0.3591 -0.4969 -1.5521
 9556TIP3    H250160   3.331   4.314  15.509 -1.2444  0.3800 -0.8925
 9557TIP3   OH250161   4.147   6.142   2.235  0.6545  0.4438 -0.4305
 9557TIP3    H150162   4.074   6.200   2.256  0.9838  1.4278 -1.8442
 9557TIP3    H250163   4.145   6.134   2.140  1.5199 -0.6900 -0.3811
 9558TIP3   OH250164   4.720   2.215  13.313 -1.1288 -0.1567 -0.1231
 9558TIP3    H150165   4.629   2.245  13.314 -0.4408  2.4708 -2.8966
 9558TIP3    H250166   4.718   2.136  13.259 -1.6299  0.6906 -1.3934
 9559TIP3   OH250167   1.692   4.031  13.689  0.3082 -0.1304 -0.1797
 9559TIP3    H150168   1.752   3.965  13.724 -2.2969 -1.9345  1.1741
 9559TIP3    H250169   1.628   4.045  13.759 -1.7653  0.5229 -2.0837
 9560TIP3   OH250170   5.090   6.500  12.440  0.3849  0.2043  0.1530
 9560TIP3    H150171   5.117   6.408  12.439 -0.9482 -0.2048  0.4530
 9560TIP3    H250172   5.032   6.508  12.365  1.4552  1.1220 -0.5979
 9561TIP3   OH250173   0.506   3.831   4.409  0.5191  0.1851 -0.1864
 9561TIP3    H150174   0.531   3.822   4.317 -0.3237 -0.8800 -0.3375
 9561TIP3    H250175   0.432   3.892   4.408 -1.7378 -2.3601 -0.6949
 9562TIP3   OH250176   2.774   5.666  12.147  0.1517  0.1447 -0.0718
 9562TIP3    H150177   2.751   5.578  12.116 -1.9502  0.8656 -0.7339
 9562TIP3    H250178   2.765   5.722  12.070  3.5662  0.7163 -0.2085
 9563TIP3   OH250179   2.384   4.388  12.964  0.1760 -0.0467 -0.5586
 9563TIP3    H150180   2.321   4.446  12.923 -1.4815 -1.4131 -0.0395
 9563TIP3    H250181   2.342   4.360  13.046  1.7588 -0.4359  0.1763
 9564TIP3   OH250182   1.072   2.316  14.660 -0.8579  0.1251  0.4559
 9564TIP3    H150183   1.149   2.361  14.624  0.0416  0.3390  2.4821
 9564TIP3    H250184   1.000   2.377  14.645 -0.1932  0.9675  0.5731
 9565TIP3   OH250185   4.880   3.623   3.854 -0.1320 -0.3297  0.0454
 9565TIP3    H150186   4.818   3.666   3.795  0.2304  1.8006  1.1450
 9565TIP3    H250187   4.962   3.673   3.843  1.0457 -2.2464 -0.3891
 9566TIP3   OH250188   4.515   3.978  11.412  0.5031  0.6576 -0.6348
 9566TIP3    H150189   4.450   4.049  11.415  0.6167  0.7996  2.6194
 9566TIP3    H250190   4.463   3.899  11.402 -0.2461  0.8139  1.4460
 9567TIP3   OH250191   5.242   1.241   4.505  0.0118  0.6248 -0.5263
 9567TIP3    H150192   5.251   1.327   4.545 -1.1130  0.3862  0.2700
 9567TIP3    H250193   5.161   1.246   4.454 -0.7207 -0.3202  0.5021
 9568TIP3   OH250194   1.828   2.263   2.120 -0.7073  0.2313  0.6413
 9568TIP3    H150195   1.808   2.344   2.167  1.5436  1.9793 -1.1966
 9568TIP3    H250196   1.904   2.227   2.166 -0.9181 -0.1882  0.6716
 9569TIP3   OH250197   0.755   1.588  12.508  0.4675  0.1435  0.5396
 9569TIP3    H150198   0.744   1.493  12.499  1.7715  0.0523 -0.3580
 9569TIP3    H250199   0.849   1.600  12.518  0.1821  1.2386  2.4443
 9570TIP3   OH250200   5.266   5.552  13.460  0.5487 -0.3727  0.4748
 9570TIP3    H150201   5.188   5.579  13.411 -0.6683  0.4679  2.7098
 9570TIP3    H250202   5.284   5.463  13.429 -1.3824 -0.6378 -0.0311
 9571TIP3   OH250203   3.434   2.095   4.816 -0.3709 -0.1015  0.5841
 9571TIP3    H150204   3.410   2.122   4.727 -1.4972 -0.6977  0.6886
 9571TIP3    H250205   3.353   2.104   4.867  0.0698 -0.4908  1.3717
 9572TIP3   OH250206   3.355   4.197  14.366  0.1202 -0.0961  0.1509
 9572TIP3    H150207   3.426   4.146  14.327  1.0811  0.3028  1.3266
 9572TIP3    H250208   3.342   4.270  14.305 -0.2387 -0.9057 -0.7692
 9573TIP3   OH250209   2.963   0.013   4.794  0.4931 -0.3582 -0.0342
 9573TIP3    H150210   2.872   0.032   4.818 -0.1289 -1.9652 -0.9821
 9573TIP3    H250211   3.012   0.088   4.827 -1.2925  1.0477 -0.3922
 9574TIP3   OH250212   2.812   1.955  16.202  0.1268 -0.3303  0.1959
 9574TIP3    H150213   2.875   2.002  16.147 -1.5976  1.5077 -0.3334
 9574TIP3    H250214   2.822   1.993  16.289  1.4324 -1.8003  0.7203
 9575TIP3   OH250215   5.203   3.981  13.959 -0.6216  0.0952  0.4881
 9575TIP3    H150216   5.149   3.997  14.037 -1.6106 -1.2400  0.1088
 9575TIP3    H250217   5.286   4.026  13.978 -0.7887 -0.2846  2.3483
 9576TIP3   OH250218   4.085   1.168  11.712 -0.7477  0.3502 -0.2651
 9576TIP3    H150219   4.071   1.171  11.807  0.3572  0.1157 -0.0766
 9576TIP3    H250220   4.157   1.229  11.697 -0.6091  0.0391 -0.8894
 9577TIP3   OH250221   2.775   2.676   5.004 -0.2305  0.1579  0.4066
 9577TIP3    H150222   2.763   2.713   5.092 -0.0176 -1.1438  1.0057
 9577TIP3    H250223   2.865   2.643   5.003  0.3885  1.7363 -0.9410
 9578TIP3   OH250224   4.078   3.450   4.137 -0.3112 -0.3729  0.6887
 9578TIP3    H150225   4.080   3.473   4.044  2.1225 -1.4138  0.4106
 9578TIP3    H250226   4.083   3.533   4.183 -0.2924  0.0932 -0.1390
 9579TIP3   OH250227   3.342   2.503   0.733 -0.0012  0.2375  0.0231
 9579TIP3    H150228   3.396   2.479   0.808  0.0390  1.7726  0.5251
 9579TIP3    H250229   3.377   2.452   0.660  1.2449  0.1953  0.6325
 9580TIP3   OH250230   1.543   3.989  13.428  0.2849  0.0446 -0.3289
 9580TIP3    H150231   1.460   4.026  13.459  0.2584  0.6329 -1.0864
 9580TIP3    H250232   1.595   3.978  13.508 -0.0825  0.7723  0.0239
 9581TIP3   OH250233   3.765   1.355   2.354 -0.0223  0.2649 -0.2086
 9581TIP3    H150234   3.719   1.430   2.390 -1.7310 -1.1398  0.6699
 9581TIP3    H250235   3.788   1.302   2.430 -0.0496 -0.7689 -0.9003
 9582TIP3   OH250236   1.649   3.148  14.680 -0.4837 -0.3265  0.4927
 9582TIP3    H150237   1.683   3.164  14.591  1.6042 -1.7690  0.9419
 9582TIP3    H250238   1.685   3.219  14.732 -1.4990  0.3767  0.2594
 9583TIP3   OH250239   2.075   4.497   1.806  0.5735 -0.4871 -0.1633
 9583TIP3    H150240   2.077   4.491   1.902  1.8643 -2.1503 -0.2437
 9583TIP3    H250241   2.151   4.552   1.784 -0.7465  1.4400 -0.2230
 9584TIP3   OH250242   3.568   0.486   0.408 -0.4205  0.0441  1.2118
 9584TIP3    H150243   3.550   0.433   0.485  2.3429  0.9206  2.6056
 9584TIP3    H250244   3.553   0.576   0.438  0.1290  0.3550  0.5747
 9585TIP3   OH250245   2.970   1.764  13.872 -0.0160 -0.1238 -0.2379
 9585TIP3    H150246   2.880   1.733  13.860 -0.6184  1.4331  0.0891
 9585TIP3    H250247   2.995   1.798  13.787 -0.1158  0.3938 -0.0619
 9586TIP3   OH250248   3.878   6.223  12.098 -0.1076  0.1881 -0.2078
 9586TIP3    H150249   3.965   6.213  12.136 -0.6737 -2.6454  0.5241
 9586TIP3    H250250   3.835   6.287  12.156 -0.0464 -1.9948  2.4636
 9587TIP3   OH250251   3.197   3.583   5.086  0.3738 -0.1049  0.0740
 9587TIP3    H150252   3.192   3.674   5.116  1.7793  0.1342 -0.3198
 9587TIP3    H250253   3.194   3.589   4.991 -0.4333 -0.5608  0.0606
 9588TIP3   OH250254   4.249   4.841   5.966 -0.0143 -0.5039 -0.4536
 9588TIP3    H150255   4.301   4.863   5.889  0.0381  0.1205 -0.2487
 9588TIP3    H250256   4.244   4.923   6.015 -0.2642 -0.8319  0.0767
 9589TIP3   OH250257   5.881   0.498   2.348  0.1123 -0.3426 -0.5302
 9589TIP3    H150258   5.815   0.552   2.304 -0.5559 -0.4926  0.2547
 9589TIP3    H250259   5.920   0.557   2.413 -0.9459 -0.8822  0.6553
 9590TIP3   OH250260   1.988   6.700  13.031  0.1073 -0.0128 -0.5896
 9590TIP3    H150261   1.933   6.656  13.096 -0.4749 -0.1395 -1.1555
 9590TIP3    H250262   1.930   6.712  12.955 -0.0070  2.4562 -0.1942
 9591TIP3   OH250263   0.910   6.423   2.023 -0.2373 -0.1955  0.1607
 9591TIP3    H150264   0.824   6.382   2.023 -0.3333  0.0036 -0.0692
 9591TIP3    H250265   0.955   6.385   2.098 -1.0796  0.8798  1.2345
 9592TIP3   OH250266   6.754   3.361  12.943 -0.8356 -0.1369 -0.0739
 9592TIP3    H150267   6.832   3.316  12.976 -0.0849 -0.9133 -2.6686
 9592TIP3    H250268   6.701   3.291  12.903 -0.1245  1.0253 -3.2995
 9593TIP3   OH250269   6.680   1.632  13.315 -0.5276  0.4369  0.1984
 9593TIP3    H150270   6.763   1.636  13.267  0.3991  1.6055  1.8080
 9593TIP3    H250271   6.694   1.564  13.381 -1.1384  0.1222  0.0120
 9594TIP3   OH250272   4.456   5.855   4.004 -0.4448  0.0450  0.4971
 9594TIP3    H150273   4.477   5.802   3.927 -0.9033  1.0096 -0.3258
 9594TIP3    H250274   4.541   5.880   4.040 -0.1723 -2.4940  1.8622
 9595TIP3   OH250275   6.038   0.968   2.305 -0.3295  0.0518  0.2208
 9595TIP3    H150276   6.095   0.992   2.378  0.5662 -0.0779 -0.4286
 9595TIP3    H250277   6.088   0.904   2.255 -1.3941 -0.7288  0.1170
 9596TIP3   OH250278   3.609   1.621   2.402  0.1263 -0.1015 -0.0111
 9596TIP3    H150279   3.577   1.698   2.450 -1.0487  0.0846 -1.0232
 9596TIP3    H250280   3.695   1.647   2.370  0.6618 -0.0007  1.4131
 9597TIP3   OH250281   0.938   4.077  12.355  0.4096  0.1861 -0.0670
 9597TIP3    H150282   0.877   4.067  12.428 -1.4767  1.0765 -1.4227
 9597TIP3    H250283   0.899   4.025  12.285  1.4673  0.4217 -0.8527
 9598TIP3   OH250284   2.702   2.437  13.594 -0.2735  0.6388 -0.6153
 9598TIP3    H150285   2.706   2.473  13.505  0.9923  1.5072 -0.2317
 9598TIP3    H250286   2.788   2.457  13.632  0.1798 -2.0019 -0.0576
 9599TIP3   OH250287   0.137   3.138   4.615 -0.2389 -0.1465  0.0931
 9599TIP3    H150288   0.145   3.085   4.695 -2.6593 -0.2275  0.3347
 9599TIP3    H250289   0.068   3.201   4.634  1.2016  1.8554 -0.9213
 9600TIP3   OH250290   6.376   4.691   3.538  0.3616  0.3394 -0.0115
 9600TIP3    H150291   6.334   4.748   3.602 -0.1565  1.0807 -0.9848
 9600TIP3    H250292   6.457   4.662   3.580 -0.2041  0.4222  1.1514
 9601TIP3   OH250293   4.148   4.778  13.510  0.2144  0.3005  0.5999
 9601TIP3    H150294   4.224   4.771  13.452  0.5476 -0.2929  1.0986
 9601TIP3    H250295   4.181   4.753  13.597 -0.3495  0.8749  0.9894
 9602TIP3   OH250296   0.066   4.646  15.049 -0.3178 -0.3883 -0.3121
 9602TIP3    H150297   0.016   4.727  15.059 -2.5468 -1.4078 -2.2395
 9602TIP3    H250298   0.007   4.577  15.077  1.1761 -1.4632  0.3210
 9603TIP3   OH250299   6.413   5.030   0.731  0.4753  0.3472  0.2027
 9603TIP3    H150300   6.393   5.034   0.637  0.5635  1.6107  0.2159
 9603TIP3    H250301   6.329   5.013   0.773  0.4348 -0.2137 -0.0954
 9604TIP3   OH250302   3.543   2.720   1.632 -0.6092  0.6602  0.6442
 9604TIP3    H150303   3.595   2.715   1.712  1.1604  0.5293 -0.4616
 9604TIP3    H250304   3.467   2.664   1.649  1.5132 -2.3038  0.9751
 9605TIP3   OH250305   2.019   3.962   3.821  0.3520 -0.3848 -1.0470
 9605TIP3    H150306   2.035   3.920   3.905 -0.7524  0.0867 -0.5827
 9605TIP3    H250307   2.051   4.052   3.832  0.5085 -0.4147 -1.2458
 9606TIP3   OH250308   3.445   6.830  13.605 -0.1433  0.3325 -0.0114
 9606TIP3    H150309   3.519   6.890  13.600  0.6863 -0.6707 -0.0713
 9606TIP3    H250310   3.408   6.831  13.516 -0.1213  0.7340 -0.0170
 9607TIP3   OH250311   3.011   2.167   5.418  1.0923  0.4478 -0.3992
 9607TIP3    H150312   3.021   2.169   5.323  0.6717 -0.3838 -0.4659
 9607TIP3    H250313   3.024   2.258   5.446  0.5943  0.8038 -1.3127
 9608TIP3   OH250314   4.852   1.632   3.132  0.3540 -0.0967  0.0196
 9608TIP3    H150315   4.934   1.615   3.178 -0.3253 -0.2736  1.1991
 9608TIP3    H250316   4.813   1.546   3.119  0.0743  0.0331 -0.0082
 9609TIP3   OH250317   3.204   1.135  12.370 -0.0608  0.4356  0.8472
 9609TIP3    H150318   3.183   1.044  12.349  0.5327  0.4513  0.1334
 9609TIP3    H250319   3.273   1.129  12.436 -0.4947  0.3773  1.3025
 9610TIP3   OH250320   3.297   4.157   0.118  0.2305 -0.6930  0.1319
 9610TIP3    H150321   3.242   4.232   0.139 -0.3030 -0.9536 -0.3037
 9610TIP3    H250322   3.387   4.190   0.126  0.0291 -0.4456  1.4852
 9611TIP3   OH250323   0.292   0.639  11.815  0.1807 -0.0760  0.4529
 9611TIP3    H150324   0.310   0.553  11.854 -0.4225 -0.9657 -1.1358
 9611TIP3    H250325   0.275   0.696  11.890  0.8308 -1.2722  1.5562
 9612TIP3   OH250326   0.144   1.757  16.019 -0.2156 -0.1560  0.8244
 9612TIP3    H150327   0.100   1.708  15.950  0.8868 -0.0351  0.0254
 9612TIP3    H250328   0.141   1.848  15.990  0.5824 -0.1523  0.7526
 9613TIP3   OH250329   5.644   2.556  14.812  0.2421 -0.2733  0.3053
 9613TIP3    H150330   5.700   2.497  14.863  1.3230 -0.0656 -0.6076
 9613TIP3    H250331   5.596   2.606  14.878 -0.9977 -2.3788  1.1312
 9614TIP3   OH250332   1.544   0.148  13.499 -0.5020  0.1418  0.4099
 9614TIP3    H150333   1.477   0.188  13.555  0.7190  3.1493 -0.0415
 9614TIP3    H250334   1.614   0.123  13.560  0.3420  2.3636  0.4489
 9615TIP3   OH250335   2.887   0.676  11.608  0.1292 -0.0685 -0.3178
 9615TIP3    H150336   2.882   0.770  11.620  0.4732  0.0963 -1.3507
 9615TIP3    H250337   2.952   0.664  11.538 -0.4989 -1.0180 -0.7618
 9616TIP3   OH250338   4.130   2.414   6.712 -0.2704  0.0464  0.2470
 9616TIP3    H150339   4.136   2.493   6.658 -0.6502 -1.2902 -1.8702
 9616TIP3    H250340   4.213   2.369   6.699 -0.6473 -0.6484  0.2074
 9617TIP3   OH250341   2.807   4.877  14.773  0.0670 -0.9024  0.2021
 9617TIP3    H150342   2.814   4.946  14.707  1.8899  0.1245  1.3669
 9617TIP3    H250343   2.804   4.925  14.856 -2.7789 -2.1221  0.9161
 9618TIP3   OH250344   2.074   3.548  13.003  0.0595  0.3411  0.1396
 9618TIP3    H150345   2.093   3.473  12.946  0.5287  0.3856  0.2346
 9618TIP3    H250346   1.989   3.579  12.973  0.4639  0.5936 -0.7941
 9619TIP3   OH250347   1.257   3.058  15.405 -0.6374 -0.7699 -0.0766
 9619TIP3    H150348   1.258   3.127  15.471 -2.2756  1.1385 -1.9093
 9619TIP3    H250349   1.243   2.977  15.455 -0.0397  0.3484  2.0116
 9620TIP3   OH250350   2.554   0.720   4.232 -0.1301 -0.3263 -0.6576
 9620TIP3    H150351   2.642   0.682   4.244  0.3545  1.0977  0.6797
 9620TIP3    H250352   2.519   0.727   4.321 -0.8503  0.7979 -1.0109
 9621TIP3   OH250353   1.905   0.230   0.194 -0.3256 -0.2124  0.3939
 9621TIP3    H150354   1.841   0.163   0.217  0.8128 -0.8115  2.0121
 9621TIP3    H250355   1.853   0.308   0.175 -1.5933 -1.1414 -0.0675
 9622TIP3   OH250356   6.480   2.684   4.228 -0.0182 -0.3032  0.1834
 9622TIP3    H150357   6.409   2.630   4.263 -0.2861 -0.1511 -0.1115
 9622TIP3    H250358   6.548   2.682   4.295  0.1795 -1.3926 -0.0345
 9623TIP3   OH250359   4.505   0.641  13.961  0.1956  1.0465  0.7045
 9623TIP3    H150360   4.484   0.710  14.025 -1.2034  1.2514  0.0598
 9623TIP3    H250361   4.489   0.682  13.876 -2.2537 -0.4948  0.3138
 9624TIP3   OH250362   0.197   4.448  13.810 -0.3397 -0.4302  0.1998
 9624TIP3    H150363   0.123   4.509  13.814 -0.0277 -0.0948  0.9849
 9624TIP3    H250364   0.174   4.378  13.872 -1.0342 -1.5259 -1.2197
 9625TIP3   OH250365   3.145   0.883   3.243 -0.3821  0.3040 -0.1447
 9625TIP3    H150366   3.155   0.789   3.232 -0.4153  0.1045  1.2663
 9625TIP3    H250367   3.167   0.899   3.335 -0.8133  1.6063 -0.2380
 9626TIP3   OH250368   3.208   6.346   1.655  0.3693 -0.1422 -0.7106
 9626TIP3    H150369   3.171   6.380   1.574 -0.8204 -0.0093 -0.1481
 9626TIP3    H250370   3.203   6.251   1.646 -0.8040 -0.1303 -0.3710
 9627TIP3   OH250371   3.539   2.029  12.996 -0.3322  0.1253  0.2473
 9627TIP3    H150372   3.506   1.947  12.957  0.2455  0.4043 -0.8671
 9627TIP3    H250373   3.611   2.001  13.053  1.6280  0.0191 -2.1235
 9628TIP3   OH250374   0.640   5.769  17.066  0.1908  0.0605 -0.4443
 9628TIP3    H150375   0.641   5.685  17.020  1.5358  0.7681 -1.7814
 9628TIP3    H250376   0.668   5.748  17.155 -3.4496 -1.4965  0.5282
 9629TIP3   OH250377   1.204   1.911   2.292  0.0093  0.7395 -0.0286
 9629TIP3    H150378   1.266   1.855   2.246 -0.1661  1.0732 -0.6825
 9629TIP3    H250379   1.120   1.865   2.286  0.3380 -0.1526  1.6312
 9630TIP3   OH250380   2.892   5.817   2.360 -0.0006  0.2046 -0.3809
 9630TIP3    H150381   2.798   5.813   2.375  0.2836  0.7322  1.7442
 9630TIP3    H250382   2.921   5.897   2.403  1.7844 -1.2965  1.4642
 9631TIP3   OH250383   0.320   5.293  10.725 -0.1128 -0.1305 -0.2888
 9631TIP3    H150384   0.232   5.324  10.704 -0.8379 -0.1243  2.4353
 9631TIP3    H250385   0.309   5.201  10.746  0.1130  0.2907  1.9471
 9632TIP3   OH250386   2.986   2.990   4.144 -0.4734 -0.3617 -0.0936
 9632TIP3    H150387   3.062   3.045   4.165  0.2605 -1.0922 -0.7756
 9632TIP3    H250388   2.951   2.964   4.229 -0.3551  0.5123  0.2302
 9633TIP3   OH250389   0.543   5.666  12.430 -0.7741 -0.4086  0.0859
 9633TIP3    H150390   0.578   5.681  12.518 -0.1891  2.2508 -0.5158
 9633TIP3    H250391   0.605   5.607  12.389 -0.2797 -0.5356  0.9841
 9634TIP3   OH250392   5.461   2.045   1.242 -0.3224  0.3082 -0.1409
 9634TIP3    H150393   5.524   2.117   1.242 -0.2369  0.2518 -1.3682
 9634TIP3    H250394   5.473   2.002   1.157  0.3862 -1.8228  0.9614
 9635TIP3   OH250395   1.636   5.282  16.588  1.0699  0.1055  0.4464
 9635TIP3    H150396   1.595   5.267  16.502  1.1156  1.0790  0.2481
 9635TIP3    H250397   1.599   5.364  16.619  0.6813 -0.4823  1.6039
 9636TIP3   OH250398   5.977   2.181   5.483 -0.0276 -0.3507  0.1588
 9636TIP3    H150399   5.930   2.147   5.559  1.4849 -0.0631  1.2704
 9636TIP3    H250400   5.916   2.169   5.410 -1.5877 -0.5129  1.4186
 9637TIP3   OH250401   3.510   2.448   4.823 -0.1380  1.0942 -0.2146
 9637TIP3    H150402   3.482   2.444   4.731 -0.4298 -1.7837 -0.1050
 9637TIP3    H250403   3.602   2.425   4.821 -0.6610 -1.2924  0.3177
 9638TIP3   OH250404   4.729   6.492  14.417 -0.3320 -0.3405 -0.0961
 9638TIP3    H150405   4.705   6.460  14.330 -2.0593 -1.1148  0.6391
 9638TIP3    H250406   4.663   6.557  14.438 -0.6215 -1.0130  1.1264
 9639TIP3   OH250407   5.106   1.600   3.299 -0.5217  0.0947  0.5639
 9639TIP3    H150408   5.070   1.534   3.358  1.6736 -1.3894  0.3773
 9639TIP3    H250409   5.103   1.681   3.349 -0.8120 -0.6684  1.8387
 9640TIP3   OH250410   0.432   5.611  11.023  0.2406 -0.3554 -0.5060
 9640TIP3    H150411   0.387   5.611  11.108 -0.2465  1.5775 -0.7106
 9640TIP3    H250412   0.362   5.595  10.959  0.3587 -0.3657 -0.6326
 9641TIP3   OH250413   4.981   2.960  15.341  0.4329  0.1438  0.3567
 9641TIP3    H150414   4.904   2.993  15.296 -0.4985 -1.9622  0.3058
 9641TIP3    H250415   4.972   2.992  15.431 -1.4870 -1.4999  0.8202
 9642TIP3   OH250416   5.361   5.232  11.741 -0.1913  0.3368 -0.8272
 9642TIP3    H150417   5.343   5.192  11.657  0.4838 -1.5825 -0.1131
 9642TIP3    H250418   5.279   5.276  11.765 -0.6894  0.0965 -2.0369
 9643TIP3   OH250419   3.839   2.872  16.840  0.2279 -0.8483 -0.6362
 9643TIP3    H150420   3.825   2.824  16.759  2.2940 -0.2514 -1.4401
 9643TIP3    H250421   3.878   2.808  16.900 -0.6239 -1.1110 -0.3579
 9644TIP3   OH250422   3.100   4.563  11.362  0.1077 -0.2925 -0.1510
 9644TIP3    H150423   3.173   4.524  11.315  0.4208  1.0435 -0.8196
 9644TIP3    H250424   3.031   4.496  11.359  0.3604 -0.5328 -1.9118
 9645TIP3   OH250425   3.933   2.344  12.103  0.0143  0.3471 -0.6710
 9645TIP3    H150426   3.942   2.293  12.183  0.7460 -1.0064 -1.5602
 9645TIP3    H250427   3.846   2.323  12.070  0.0389  0.2255 -0.6604
 9646TIP3   OH250428   1.412   5.175   4.421 -0.1599  0.8381 -0.5158
 9646TIP3    H150429   1.491   5.173   4.475 -0.3756  1.1158 -0.1861
 9646TIP3    H250430   1.408   5.265   4.388  0.2837  0.5258 -1.4719
 9647TIP3   OH250431   2.590   4.406  12.507  0.4268 -0.6784  0.1996
 9647TIP3    H150432   2.662   4.362  12.552  0.2401  0.3035  1.5200
 9647TIP3    H250433   2.620   4.496  12.496 -0.8027 -0.1042  1.3024
 9648TIP3   OH250434   2.661   1.976  14.108 -0.2926  0.6653 -0.4035
 9648TIP3    H150435   2.586   1.997  14.052  0.6383  1.7372 -1.3055
 9648TIP3    H250436   2.734   2.022  14.067  0.8310 -0.2222  0.5465
 9649TIP3   OH250437   1.052   0.767   6.031  0.4233 -0.1966 -0.1514
 9649TIP3    H150438   1.071   0.693   6.090 -2.9139 -0.7635  0.3693
 9649TIP3    H250439   1.082   0.737   5.945  0.4029 -1.6031  0.3017
 9650TIP3   OH250440   2.730   0.534   4.813 -0.3627 -0.3961 -0.2334
 9650TIP3    H150441   2.654   0.477   4.802 -0.4515  0.1397 -2.8425
 9650TIP3    H250442   2.765   0.510   4.899 -1.9861 -2.4318 -0.0657
 9651TIP3   OH250443   2.647   3.955  14.752 -0.0473  0.0447  0.1663
 9651TIP3    H150444   2.693   4.006  14.685  0.7945  3.6957  3.1108
 9651TIP3    H250445   2.559   3.993  14.755 -0.7315 -1.4552 -0.1509
 9652TIP3   OH250446   1.332   0.722   0.484  0.3394 -0.5856 -0.2262
 9652TIP3    H150447   1.379   0.800   0.455  1.1759 -1.5148 -1.4578
 9652TIP3    H250448   1.347   0.658   0.415 -0.8028 -1.6688  0.4894
 9653TIP3   OH250449   6.535   5.238   1.130 -0.1202  0.9101  0.1961
 9653TIP3    H150450   6.526   5.154   1.175  1.9501 -1.2228 -2.9721
 9653TIP3    H250451   6.461   5.290   1.161 -2.6109 -2.7434  1.0077
 9654TIP3   OH250452   3.323   3.199   2.341 -0.6120 -0.4151  0.1144
 9654TIP3    H150453   3.346   3.292   2.339  0.4601 -0.6633 -0.0845
 9654TIP3    H250454   3.292   3.184   2.430  1.0124 -0.2449  0.7588
 9655TIP3   OH250455   6.425   3.408  10.844 -0.5322  0.6101 -1.0834
 9655TIP3    H150456   6.447   3.317  10.864  1.9236  1.2327 -0.5912
 9655TIP3    H250457   6.411   3.410  10.750 -1.7456 -0.4410 -0.9578
 9656TIP3   OH250458   2.658   0.703  16.712  0.0501  0.2643 -0.2777
 9656TIP3    H150459   2.664   0.623  16.764 -1.0097  0.4025  0.0895
 9656TIP3    H250460   2.576   0.694  16.663  0.5821  0.5425 -1.2529
 9657TIP3   OH250461   3.866   2.439  13.727 -0.3899 -0.3002 -1.1600
 9657TIP3    H150462   3.852   2.483  13.811 -1.8538 -1.3860 -0.7819
 9657TIP3    H250463   3.817   2.492  13.664 -0.8556 -0.4974 -0.9749
 9658TIP3   OH250464   5.860   2.933  12.790  0.2520 -0.9038 -0.2634
 9658TIP3    H150465   5.788   2.881  12.754  0.1004 -0.0464 -1.2350
 9658TIP3    H250466   5.930   2.928  12.725  0.0344  0.5433 -0.6472
 9659TIP3   OH250467   3.272   1.950  11.710  0.3395  0.3043 -0.2373
 9659TIP3    H150468   3.228   2.028  11.743  2.5928  1.4909  0.1387
 9659TIP3    H250469   3.355   1.982  11.675  1.4433 -1.9442  0.1588
 9660TIP3   OH250470   6.334   3.034   3.744  0.7201 -0.0004  0.4031
 9660TIP3    H150471   6.368   2.953   3.706  0.5814 -0.0246  0.3311
 9660TIP3    H250472   6.404   3.065   3.802  0.6704 -0.2976  0.6187
 9661TIP3   OH250473   4.162   4.087  17.092  0.2088 -0.4852 -0.2610
 9661TIP3    H150474   4.121   4.114  17.009  0.6239 -1.5600 -0.8339
 9661TIP3    H250475   4.248   4.130  17.091  0.7404 -1.5247 -1.0179
 9662TIP3   OH250476   4.164   1.210   1.214  0.3024 -0.1398  0.4547
 9662TIP3    H150477   4.187   1.303   1.218  1.9965 -0.4370 -1.0487
 9662TIP3    H250478   4.157   1.190   1.121 -3.0312 -0.9160  0.7265
 9663TIP3   OH250479   0.599   3.820  11.666  0.2217 -0.2760 -0.0934
 9663TIP3    H150480   0.668   3.755  11.660 -0.8198 -1.4011 -0.3707
 9663TIP3    H250481   0.628   3.891  11.608  1.9964  0.1664  1.2358
 9664TIP3   OH250482   0.719   0.442  13.954 -0.1997  0.1179  0.5511
 9664TIP3    H150483   0.642   0.461  14.007 -1.7666 -0.8550 -1.2439
 9664TIP3    H250484   0.730   0.347  13.961 -1.3561 -0.2802 -1.9048
 9665TIP3   OH250485   6.015   2.646   2.867  0.5091  0.0160 -0.6774
 9665TIP3    H150486   5.949   2.582   2.840  0.0922 -0.3756  1.1211
 9665TIP3    H250487   6.089   2.631   2.808 -0.3092 -0.7934 -1.5350
 9666TIP3   OH250488   1.492   3.142  16.883 -0.3249  0.2766  0.1638
 9666TIP3    H150489   1.407   3.125  16.924 -1.2018  1.9539 -0.8514
 9666TIP3    H250490   1.497   3.080  16.810  0.6616 -1.8064  1.8693
 9667TIP3   OH250491   2.780   6.699  13.871 -0.0821 -0.5009  0.3457
 9667TIP3    H150492   2.783   6.794  13.881 -0.3216 -0.7211  6.0554
 9667TIP3    H250493   2.702   6.682  13.819 -0.1375  2.3640 -0.6357
 9668TIP3   OH250494   2.138   3.338  11.899 -0.4192 -0.3335  0.1765
 9668TIP3    H150495   2.117   3.304  11.986  0.2838 -1.1869  0.0218
 9668TIP3    H250496   2.068   3.305  11.843 -0.1486 -0.8959  0.1691
 9669TIP3   OH250497   2.353   3.562  13.925  0.6185  0.2304 -0.4826
 9669TIP3    H150498   2.268   3.519  13.927  1.0068 -0.6365 -1.5184
 9669TIP3    H250499   2.413   3.495  13.892  1.1629  1.6655 -2.6304
 9670TIP3   OH250500   3.284   3.448  13.066 -0.5558 -0.2288 -0.2471
 9670TIP3    H150501   3.366   3.433  13.018 -0.9532 -1.5440 -0.5559
 9670TIP3    H250502   3.295   3.400  13.148 -1.1850 -0.8024 -0.4886
 9671TIP3   OH250503   1.278   6.468   2.441 -0.0472  0.2913 -0.4638
 9671TIP3    H150504   1.186   6.494   2.443 -0.4039 -0.9957  0.5704
 9671TIP3    H250505   1.293   6.423   2.524  1.7571  1.2152 -0.2276
 9672TIP3   OH250506   4.374   6.352  16.537 -0.0097 -0.0697  0.3783
 9672TIP3    H150507   4.312   6.313  16.598  0.5716 -0.1164  0.9474
 9672TIP3    H250508   4.348   6.318  16.452  1.1667 -2.6625  0.9697
 9673TIP3   OH250509   1.876   0.535  12.715 -0.8386 -0.7144 -0.2597
 9673TIP3    H150510   1.971   0.536  12.702 -0.8393 -0.7858 -0.2712
 9673TIP3    H250511   1.841   0.584  12.641 -0.9837 -2.8555 -1.7080
 9674TIP3   OH250512   2.601   6.047   4.544 -0.0209  0.2816 -0.0674
 9674TIP3    H150513   2.690   6.082   4.541 -0.2731  0.8838 -0.7221
 9674TIP3    H250514   2.613   5.953   4.554  0.6980  0.2833 -0.8222
 9675TIP3   OH250515   3.895   0.817  17.001  0.3384 -0.5579  0.2395
 9675TIP3    H150516   3.859   0.732  16.977 -0.4210 -0.3909  0.7600
 9675TIP3    H250517   3.981   0.797  17.039 -0.1419 -1.1649  1.0360
 9676TIP3   OH250518   4.111   2.989  11.041 -0.0699  0.3710 -0.8876
 9676TIP3    H150519   4.090   2.897  11.057 -1.0971  0.7975  0.4131
 9676TIP3    H250520   4.184   3.008  11.101 -2.3598  1.3411  1.8351
 9677TIP3   OH250521   5.608   3.422   5.830  0.5963  0.2814  0.3094
 9677TIP3    H150522   5.538   3.361   5.804 -0.8945  1.3881  1.5297
 9677TIP3    H250523   5.678   3.406   5.767 -0.2608 -1.7378 -0.2284
 9678TIP3   OH250524   6.439   3.318   0.819 -0.3856 -0.2189 -0.5475
 9678TIP3    H150525   6.399   3.394   0.861 -0.2249 -1.0865  1.3168
 9678TIP3    H250526   6.371   3.281   0.764 -0.7908  0.6735 -0.6546
 9679TIP3   OH250527   0.387   1.653  13.220 -0.2721  0.7432 -0.7615
 9679TIP3    H150528   0.379   1.643  13.125  1.7314  0.4541 -0.9446
 9679TIP3    H250529   0.481   1.649  13.237 -0.6171 -3.1820  1.6220
 9680TIP3   OH250530   6.050   6.075  12.968 -0.6269 -0.4640 -0.0035
 9680TIP3    H150531   6.077   5.983  12.960  0.8614 -0.1709  1.2729
 9680TIP3    H250532   6.065   6.111  12.881  1.2144 -0.8392  0.1265
 9681TIP3   OH250533   0.414   5.889   5.762  0.2478 -0.3845 -0.0475
 9681TIP3    H150534   0.349   5.948   5.801  1.4749 -0.4880  2.3271
 9681TIP3    H250535   0.365   5.838   5.698 -1.5252  1.0241  0.1116
 9682TIP3   OH250536   4.481   2.266   4.465 -0.1736  0.1462  0.0740
 9682TIP3    H150537   4.499   2.357   4.488  1.3541 -0.1472  0.1598
 9682TIP3    H250538   4.513   2.256   4.376  0.4327 -0.4988  0.3498
 9683TIP3   OH250539   1.737   6.489  12.990 -0.2995 -0.2000 -0.2337
 9683TIP3    H150540   1.695   6.547  13.053  1.2602 -1.6468  2.2957
 9683TIP3    H250541   1.753   6.545  12.914 -1.4029  1.9026  0.9803
 9684TIP3   OH250542   4.029   0.575  16.616  0.0516 -0.1858 -0.1569
 9684TIP3    H150543   3.948   0.524  16.619  0.0008 -0.0763  0.6704
 9684TIP3    H250544   4.062   0.572  16.706 -1.4502  3.5962  0.7238
 9685TIP3   OH250545   1.288   3.115   1.925  0.2528  1.1267 -0.2404
 9685TIP3    H150546   1.233   3.073   1.859  1.7762  0.8399 -1.3677
 9685TIP3    H250547   1.338   3.044   1.965  2.6226  1.6975 -1.9511
 9686TIP3   OH250548   4.555   2.011   2.359 -0.6542  0.4328 -0.2957
 9686TIP3    H150549   4.621   2.031   2.426  0.7458 -0.0550 -1.4628
 9686TIP3    H250550   4.495   1.950   2.402 -0.7958  1.4692  1.0309
 9687TIP3   OH250551   0.078   5.985   0.416 -0.2041 -0.2797  1.0985
 9687TIP3    H150552   0.025   5.906   0.417 -1.5138  0.5167 -0.4147
 9687TIP3    H250553   0.015   6.057   0.415  0.9423  0.7912  1.7522
 9688TIP3   OH250554   4.831   5.984  10.815 -0.0980 -0.2590 -0.0116
 9688TIP3    H150555   4.860   6.058  10.868 -0.1847  1.7194 -2.5545
 9688TIP3    H250556   4.908   5.959  10.764 -0.9514  0.4482 -1.7302
 9689TIP3   OH250557   0.016   2.598   3.965 -0.4867  0.2013  0.3800
 9689TIP3    H150558   0.036   2.678   4.014 -0.4166 -0.4248  1.4141
 9689TIP3    H250559  -0.066   2.567   4.003 -0.1105 -0.6292  0.5372
 9690TIP3   OH250560   5.627   2.518   3.259 -0.4495 -0.3481  0.2820
 9690TIP3    H150561   5.564   2.463   3.305  0.6098  0.0922  2.3926
 9690TIP3    H250562   5.595   2.607   3.271  0.5417 -0.1120  1.4422
 9691TIP3   OH250563   3.806   5.570  17.067 -0.3093  0.2564 -0.8161
 9691TIP3    H150564   3.779   5.588  17.157  2.8741  0.5213  0.2177
 9691TIP3    H250565   3.827   5.477  17.066  3.5466  0.9235  0.0712
 9692TIP3   OH250566   5.602   4.621  12.503 -0.0631  0.1680  0.3392
 9692TIP3    H150567   5.569   4.638  12.415  2.7324 -2.0258 -1.3056
 9692TIP3    H250568   5.646   4.537  12.496  0.3856 -0.0224  3.8568
 9693TIP3   OH250569   0.689   1.237  11.802 -0.1422 -0.4730  0.5446
 9693TIP3    H150570   0.610   1.200  11.841 -0.1619 -1.2980 -0.2625
 9693TIP3    H250571   0.657   1.303  11.741 -0.2405 -1.1451 -0.1424
 9694TIP3   OH250572   1.528   6.547   3.169  0.1290  0.2429  0.5896
 9694TIP3    H150573   1.517   6.641   3.183 -0.3962  0.2167  0.3813
 9694TIP3    H250574   1.447   6.520   3.127 -0.0258 -0.4387  1.3195
 9695TIP3   OH250575   4.123   6.664   0.973  0.2767  0.6214  0.2525
 9695TIP3    H150576   4.127   6.733   1.038  0.2623  0.4077  0.4817
 9695TIP3    H250577   4.214   6.640   0.956  0.4460  2.2657 -1.5249
 9696TIP3   OH250578   2.010   3.285  12.147 -0.4580 -0.1532  0.0339
 9696TIP3    H150579   2.072   3.348  12.182 -0.7549  0.6677 -0.8882
 9696TIP3    H250580   1.924   3.317  12.176 -0.4622 -1.9170  2.3260
 9697TIP3   OH250581   1.449   4.873  15.578 -0.2204 -0.1677 -0.3339
 9697TIP3    H150582   1.458   4.968  15.564  0.2077  0.0685  1.3366
 9697TIP3    H250583   1.539   4.841  15.580 -0.2768 -0.2987  0.9147
 9698TIP3   OH250584   5.119   1.926   6.444  0.1904 -0.2292 -0.0918
 9698TIP3    H150585   5.097   1.895   6.532  1.3611 -2.0807 -0.4000
 9698TIP3    H250586   5.198   1.979   6.457 -0.3764  0.5799  0.1178
 9699TIP3   OH250587   5.715   5.701  14.659 -0.0222  0.2272 -0.7136
 9699TIP3    H150588   5.625   5.670  14.645  0.4645 -1.3586 -0.5913
 9699TIP3    H250589   5.719   5.721  14.753  0.0441 -0.8035 -0.4822
 9700TIP3   OH250590   1.960   6.454  14.636 -0.1300 -0.0448  0.0943
 9700TIP3    H150591   2.000   6.377  14.675  0.9492  0.9495  0.9946
 9700TIP3    H250592   1.891   6.479  14.697  2.0447  1.9582  1.8997
 9701TIP3   OH250593   4.968   3.574   4.662  0.1590  0.3177  0.2365
 9701TIP3    H150594   4.936   3.608   4.745 -0.3771 -0.8621  0.5326
 9701TIP3    H250595   4.981   3.651   4.607 -1.2314  0.9776  0.8011
 9702TIP3   OH250596   5.202   4.171   1.947  0.0428 -0.3011  0.1814
 9702TIP3    H150597   5.290   4.167   1.910 -0.6845 -0.6246 -1.6219
 9702TIP3    H250598   5.149   4.208   1.876 -0.9903  1.4601  1.7945
 9703TIP3   OH250599   4.198   4.485   0.449 -0.3563  0.2925 -0.6053
 9703TIP3    H150600   4.155   4.433   0.382 -0.2405  0.6950 -0.9957
 9703TIP3    H250601   4.236   4.559   0.402  0.2443  0.2619 -0.1855
 9704TIP3   OH250602   3.523   2.875  12.065  0.3009 -0.4804  0.6631
 9704TIP3    H150603   3.447   2.925  12.035 -0.5863 -2.1328 -0.0049
 9704TIP3    H250604   3.597   2.936  12.057 -0.6419  0.5777 -0.5138
 9705TIP3   OH250605   3.956   4.032  12.655  0.6782  0.4530 -0.1913
 9705TIP3    H150606   3.889   4.100  12.662 -0.5240 -0.7932  1.1280
 9705TIP3    H250607   3.937   3.972  12.728  0.5600 -2.2646 -2.3098
 9706TIP3   OH250608   0.133   5.289  11.888  0.2093 -0.2981  0.3432
 9706TIP3    H150609   0.098   5.291  11.977 -0.4754 -0.1150  0.0837
 9706TIP3    H250610   0.193   5.364  11.884 -0.2878  0.1141  0.4529
 9707TIP3   OH250611   5.134   3.612   2.618 -0.1208  0.5246 -0.0311
 9707TIP3    H150612   5.188   3.534   2.610  0.2283  0.8236 -0.6244
 9707TIP3    H250613   5.047   3.584   2.590 -0.1874  0.1496  0.5304
 9708TIP3   OH250614   2.328   4.662   4.688  0.0843  0.1287  0.2609
 9708TIP3    H150615   2.343   4.569   4.673 -2.1331 -0.2882  0.3311
 9708TIP3    H250616   2.314   4.670   4.783  1.7763  0.8008  0.4798
 9709TIP3   OH250617   5.993   1.487  15.168 -0.1139 -0.3797  0.0102
 9709TIP3    H150618   5.970   1.551  15.234  1.0731 -0.4793  0.5387
 9709TIP3    H250619   6.085   1.467  15.184  0.6766  0.7255 -2.6006
 9710TIP3   OH250620   2.149   6.606  16.879 -0.4497  0.0499  0.5947
 9710TIP3    H150621   2.243   6.622  16.890 -0.3012 -0.4276  0.0472
 9710TIP3    H250622   2.129   6.640  16.792 -0.9435  0.8380  1.0132
 9711TIP3   OH250623   2.568   5.334   5.037 -0.5212 -0.4005 -0.2535
 9711TIP3    H150624   2.614   5.258   5.000  0.4317 -0.2111  0.4674
 9711TIP3    H250625   2.486   5.339   4.989 -0.9244 -2.3086  0.1217
 9712TIP3   OH250626   1.246   6.507  11.947  0.6610 -0.8477  0.9156
 9712TIP3    H150627   1.215   6.510  11.856  1.2976  1.6605  0.7110
 9712TIP3    H250628   1.258   6.414  11.965 -0.9592 -1.5178 -1.0385
 9713TIP3   OH250629   3.692   3.599  11.477  0.3976  0.3464 -0.0984
 9713TIP3    H150630   3.702   3.537  11.550  0.3024  0.6447  0.1679
 9713TIP3    H250631   3.652   3.547  11.408  1.0814 -0.1066 -0.1619
 9714TIP3   OH250632   1.090   6.727  14.703  0.2042  0.2243 -0.0406
 9714TIP3    H150633   1.064   6.644  14.742 -0.0259 -0.4901 -1.6527
 9714TIP3    H250634   1.010   6.779  14.702  0.1519  0.1527  0.1685
 9715TIP3   OH250635   6.635   0.854  11.614  0.2816  0.3195 -0.8852
 9715TIP3    H150636   6.552   0.852  11.566  0.6528  0.3088 -1.5501
 9715TIP3    H250637   6.622   0.796  11.688 -0.6416  1.0975 -0.4174
 9716TIP3   OH250638   5.793   2.979  13.724 -0.4993 -0.1004  0.3659
 9716TIP3    H150639   5.861   2.962  13.659  0.2707  0.7227  0.9349
 9716TIP3    H250640   5.824   2.935  13.803 -1.0611 -0.4566  0.3936
 9717TIP3   OH250641   2.862   5.601   1.393 -0.5621 -0.1273  0.6390
 9717TIP3    H150642   2.911   5.530   1.352 -0.3189 -0.9077  2.2177
 9717TIP3    H250643   2.779   5.603   1.345  0.2313 -0.0800 -0.7813
 9718TIP3   OH250644   5.050   2.144  13.792 -0.1168 -0.3326  0.2161
 9718TIP3    H150645   5.006   2.076  13.741 -1.3299 -0.5923  1.5580
 9718TIP3    H250646   5.039   2.224  13.740  1.6560 -1.1385 -1.5679
 9719TIP3   OH250647   4.407   0.358   5.742 -0.0602  0.3847 -0.0847
 9719TIP3    H150648   4.420   0.319   5.656 -1.7585 -0.0195 -0.2029
 9719TIP3    H250649   4.472   0.428   5.747  0.8613 -0.3690 -1.1960
 9720TIP3   OH250650   2.837   5.433  13.330 -0.3235  0.2072  0.3879
 9720TIP3    H150651   2.767   5.497  13.316 -0.8116 -0.1694  1.0406
 9720TIP3    H250652   2.792   5.349  13.333  0.4365 -0.3395 -1.6503
 9721TIP3   OH250653   3.710   5.961  14.614 -0.1956 -0.0030 -0.4222
 9721TIP3    H150654   3.743   5.999  14.695  0.1785  1.5701 -1.2570
 9721TIP3    H250655   3.693   6.037  14.558 -0.4281 -1.0468 -1.8149
 9722TIP3   OH250656   0.361   3.819   2.807  0.4266  0.2603 -0.2693
 9722TIP3    H150657   0.446   3.795   2.844  1.3729  0.2298 -2.3311
 9722TIP3    H250658   0.316   3.736   2.795  0.0208  0.2885  0.9815
 9723TIP3   OH250659   1.828   1.318  11.877 -0.2372  0.0574 -0.0072
 9723TIP3    H150660   1.817   1.243  11.936  0.2224 -0.0828 -0.0946
 9723TIP3    H250661   1.917   1.348  11.894  0.4765 -0.9308 -1.6986
 9724TIP3   OH250662   2.672   1.852   2.675 -0.0803 -0.5261  0.1711
 9724TIP3    H150663   2.627   1.935   2.691  0.2579  0.1517 -2.0657
 9724TIP3    H250664   2.686   1.815   2.762  2.6771  3.2972  1.6339
 9725TIP3   OH250665   3.505   3.877  13.640  0.1948  0.5334 -0.2443
 9725TIP3    H150666   3.588   3.875  13.593  0.2515 -2.0461 -0.1998
 9725TIP3    H250667   3.440   3.854  13.573  0.0758 -1.4568  0.4700
 9726TIP3   OH250668   5.729   1.290  15.295 -0.1402 -0.0052 -0.3265
 9726TIP3    H150669   5.678   1.348  15.238  0.0057  0.2006 -0.2465
 9726TIP3    H250670   5.752   1.344  15.371 -0.9800 -0.4814  0.2987
 9727TIP3   OH250671   3.287   6.568  14.885 -0.1795  0.9050  0.2439
 9727TIP3    H150672   3.270   6.489  14.833  1.3020 -0.6175  1.9503
 9727TIP3    H250673   3.363   6.608  14.843  0.3544  0.2640  0.5781
 9728TIP3   OH250674   2.033   3.513   2.952 -0.1181 -0.4534 -0.2246
 9728TIP3    H150675   2.075   3.588   2.993  0.1159  0.8255 -2.6353
 9728TIP3    H250676   2.082   3.500   2.871 -1.6025 -1.7621 -0.9502
 9729TIP3   OH250677   3.534   4.488  17.080  0.3993  0.3663 -0.0058
 9729TIP3    H150678   3.560   4.514  17.169  3.0785  3.7536 -1.5563
 9729TIP3    H250679   3.447   4.526  17.069  0.9736  1.9147  0.4888
 9730TIP3   OH250680   2.683   3.502   1.857 -0.7861  0.5223  0.3016
 9730TIP3    H150681   2.716   3.469   1.773  0.0737  0.9569  0.4506
 9730TIP3    H250682   2.595   3.466   1.864 -0.9481  0.6290 -0.8791
 9731TIP3   OH250683   2.825   3.700  14.067 -0.4885  0.1767  0.0910
 9731TIP3    H150684   2.797   3.673  14.155 -0.6574 -1.2102 -0.3558
 9731TIP3    H250685   2.752   3.753  14.035 -1.8892 -1.8700 -0.3538
 9732TIP3   OH250686   4.921   2.379   2.712 -0.2406 -0.3397  0.0594
 9732TIP3    H150687   4.972   2.363   2.792 -1.0320 -3.5128  0.0724
 9732TIP3    H250688   4.939   2.470   2.690  2.3574 -0.2083  2.1868
 9733TIP3   OH250689   4.755   3.208   0.896  0.6893  0.4506 -0.1106
 9733TIP3    H150690   4.739   3.116   0.874 -1.1386  0.7262 -0.1507
 9733TIP3    H250691   4.667   3.246   0.906  1.2933  2.7865 -2.5262
 9734TIP3   OH250692   3.031   3.562  12.823  0.2350 -0.2775  0.1805
 9734TIP3    H150693   3.017   3.656  12.820 -1.9628 -0.5495 -1.4711
 9734TIP3    H250694   3.027   3.539  12.916 -1.3572  1.0452  0.4844
 9735TIP3   OH250695   4.748   3.153  17.208  0.0401 -0.4483  0.0849
 9735TIP3    H150696   4.781   3.183  17.292  0.9756  0.2997 -0.5356
 9735TIP3    H250697   4.676   3.213  17.187 -0.5295 -0.9476  0.5758
 9736TIP3   OH250698   3.348   3.595  11.688 -0.1121 -0.0464  0.4885
 9736TIP3    H150699   3.414   3.526  11.691 -0.5478 -0.5220 -0.5807
 9736TIP3    H250700   3.289   3.570  11.618 -0.5776  1.1582  0.4170
 9737TIP3   OH250701   2.452   2.935  12.067 -0.1087 -0.1375  0.2510
 9737TIP3    H150702   2.455   2.915  11.973 -0.5470 -0.4019  0.2892
 9737TIP3    H250703   2.383   3.001  12.075  0.6032  0.6194  0.2673
 9738TIP3   OH250704   1.588   5.855   5.188  0.1815  0.1421  0.4416
 9738TIP3    H150705   1.509   5.906   5.173  0.7170  1.2899  1.4188
 9738TIP3    H250706   1.630   5.850   5.101 -1.2712 -1.0772 -0.2300
 9739TIP3   OH250707   4.506   0.350   4.602  0.2928 -0.1811 -0.7032
 9739TIP3    H150708   4.489   0.258   4.581 -0.1276 -0.7146  1.6763
 9739TIP3    H250709   4.601   0.359   4.599  0.3204 -0.5837 -1.2416
 9740TIP3   OH250710   6.461   1.945  13.932  0.2604  0.4535 -0.4271
 9740TIP3    H150711   6.452   1.984  14.019 -0.6757  0.0822 -0.3528
 9740TIP3    H250712   6.493   1.857  13.949 -0.3692  0.2229 -0.4302
 9741TIP3   OH250713   4.099   4.903   2.951  0.1112 -0.2696  0.2120
 9741TIP3    H150714   4.171   4.866   2.900 -0.6761 -2.2491  0.4361
 9741TIP3    H250715   4.139   4.929   3.034  0.6356 -1.1449  0.2475
 9742TIP3   OH250716   5.103   4.679  13.526  0.6501 -0.0649  0.3552
 9742TIP3    H150717   5.051   4.673  13.446  1.7048  0.6801 -0.3955
 9742TIP3    H250718   5.038   4.691  13.596 -0.1723  1.5034 -0.6375
 9743TIP3   OH250719   3.115   4.242  13.060 -0.0731 -0.9399  0.8129
 9743TIP3    H150720   3.196   4.230  13.011 -0.5232 -1.0080  0.0771
 9743TIP3    H250721   3.084   4.329  13.036 -0.3167 -0.9849  0.9553
 9744TIP3   OH250722   6.265   0.467  12.541  0.3144  0.0391  0.3548
 9744TIP3    H150723   6.225   0.382  12.559  2.2093 -0.8627  0.5049
 9744TIP3    H250724   6.288   0.463  12.448 -0.9029  0.9974 -0.0205
 9745TIP3   OH250725   0.300   3.093   4.396  0.0972 -0.4763 -0.3818
 9745TIP3    H150726   0.247   3.087   4.475  0.6786 -0.8877 -0.0202
 9745TIP3    H250727   0.327   3.003   4.378  0.6358 -0.2767 -0.5933
 9746TIP3   OH250728   6.632   2.623   2.195 -0.1938 -0.3906  0.1119
 9746TIP3    H150729   6.704   2.678   2.165  0.5415  0.0230  2.4139
 9746TIP3    H250730   6.662   2.533   2.182  0.2500 -0.2244 -0.0183
 9747TIP3   OH250731   4.055   0.944  11.410  0.0413  0.1956 -0.0371
 9747TIP3    H150732   4.107   0.944  11.491  0.1859  1.7184 -0.1122
 9747TIP3    H250733   4.057   0.852  11.382 -0.5429 -0.5081  2.0069
 9748TIP3   OH250734   4.722   2.877   1.672 -0.0750 -0.4199 -0.8433
 9748TIP3    H150735   4.797   2.934   1.662  0.6084 -0.7630  1.6772
 9748TIP3    H250736   4.720   2.825   1.591  2.3009 -0.2894 -1.0526
 9749TIP3   OH250737   1.514   1.845  15.248  0.0996  0.4680 -0.3997
 9749TIP3    H150738   1.529   1.767  15.301 -0.0065  0.7107 -0.0058
 9749TIP3    H250739   1.602   1.880  15.232  0.1063  0.6589  0.0278
 9750TIP3   OH250740   5.578   0.435   0.912  0.3541  0.0951  0.0237
 9750TIP3    H150741   5.653   0.404   0.861 -0.7605  0.1933 -1.7287
 9750TIP3    H250742   5.534   0.355   0.941 -1.1159 -0.0872 -2.4120
 9751TIP3   OH250743   5.842   2.258   3.244 -0.8195 -0.4726 -0.1336
 9751TIP3    H150744   5.792   2.276   3.324 -1.3802  1.7557 -0.9329
 9751TIP3    H250745   5.803   2.314   3.178 -0.4009 -2.3213 -2.0415
 9752TIP3   OH250746   3.224   3.723   3.729  0.6598 -0.3994 -0.1894
 9752TIP3    H150747   3.215   3.763   3.643  1.8959  0.7302  0.1803
 9752TIP3    H250748   3.140   3.680   3.745 -0.0325  0.4666 -1.3993
 9753TIP3   OH250749   4.881   2.424   4.686 -0.4969 -0.2307  0.1493
 9753TIP3    H150750   4.943   2.474   4.740 -1.2221  0.9906 -0.1138
 9753TIP3    H250751   4.919   2.427   4.598 -0.4732 -0.2653  0.1583
 9754TIP3   OH250752   0.855   4.542   6.385 -0.2649  0.0920  0.1604
 9754TIP3    H150753   0.799   4.485   6.333  0.2056 -1.1589  0.9730
 9754TIP3    H250754   0.844   4.629   6.346 -0.7603 -0.5996 -1.3068
 9755TIP3   OH250755   5.238   4.859   2.934  0.4736 -0.1293 -0.1398
 9755TIP3    H150756   5.145   4.872   2.918  0.2426  2.1933  2.3482
 9755TIP3    H250757   5.279   4.873   2.849 -1.3362 -0.1892 -1.0728
 9756TIP3   OH250758   3.157   6.078  13.562 -0.3459  0.9602 -0.2585
 9756TIP3    H150759   3.127   6.168  13.576  0.1561  0.9107  1.4015
 9756TIP3    H250760   3.190   6.051  13.648 -0.8182 -0.9404 -0.6336
 9757TIP3   OH250761   0.542   0.322  16.032 -0.4920  0.5260 -0.2061
 9757TIP3    H150762   0.581   0.236  16.048  0.7595  1.1092 -0.0518
 9757TIP3    H250763   0.501   0.346  16.115  1.4073  1.2027  0.5866
 9758TIP3   OH250764   3.543   4.861   2.498 -0.2736 -0.7189  0.7796
 9758TIP3    H150765   3.491   4.937   2.525 -1.0325 -1.1236  0.5012
 9758TIP3    H250766   3.594   4.892   2.423 -1.2653 -0.7207  0.0855
 9759TIP3   OH250767   5.889   2.859   3.906  0.1781 -0.4453 -0.4140
 9759TIP3    H150768   5.801   2.852   3.868  0.9915  0.8670 -2.7328
 9759TIP3    H250769   5.930   2.775   3.887 -0.1902 -0.6409 -0.3563
 9760TIP3   OH250770   6.275   3.800  15.290 -0.0413  0.6658  0.3037
 9760TIP3    H150771   6.307   3.815  15.201 -2.0145 -0.8575 -0.7640
 9760TIP3    H250772   6.337   3.737  15.327  0.8916  1.4355  0.0875
 9761TIP3   OH250773   0.065   0.789   2.928  0.0246  0.4401  0.4409
 9761TIP3    H150774   0.116   0.853   2.878  0.3176 -0.3468 -0.3080
 9761TIP3    H250775   0.074   0.816   3.019 -1.0835  2.3125  0.0367
 9762TIP3   OH250776   5.721   3.738   0.659  0.2558 -0.2824  0.1873
 9762TIP3    H150777   5.686   3.693   0.736 -2.1820  1.2795  0.0829
 9762TIP3    H250778   5.744   3.825   0.690  0.8042 -0.1565 -0.5274
 9763TIP3   OH250779   5.658   0.381   3.719  0.0147  0.2955 -0.6499
 9763TIP3    H150780   5.624   0.367   3.631 -2.9706  0.7008  0.3202
 9763TIP3    H250781   5.658   0.476   3.731  0.6654  0.2566 -0.2917
 9764TIP3   OH250782   2.868   4.681   5.452  0.4555  0.0092  0.2511
 9764TIP3    H150783   2.818   4.675   5.370 -1.1226 -1.3875  1.2596
 9764TIP3    H250784   2.940   4.619   5.441 -0.2689 -0.8379  0.2571
 9765TIP3   OH250785   4.229   3.488  15.769  1.2399 -0.3257  0.2558
 9765TIP3    H150786   4.223   3.399  15.804  0.0850 -0.1886  0.4344
 9765TIP3    H250787   4.323   3.503  15.760  1.4676 -1.4154  0.5995
 9766TIP3   OH250788   2.772   1.287  14.999 -0.3498 -0.2124 -0.1507
 9766TIP3    H150789   2.750   1.307  14.908  0.2257  0.6769 -0.1072
 9766TIP3    H250790   2.755   1.368  15.046  1.3228 -0.0083  0.1688
 9767TIP3   OH250791   0.384   1.681  12.291  0.3752  0.2196  0.4573
 9767TIP3    H150792   0.296   1.655  12.320  0.3595 -1.5139 -0.9458
 9767TIP3    H250793   0.389   1.774  12.311 -2.7684  1.0208 -1.7379
 9768TIP3   OH250794   2.955   1.957  11.967 -0.5549 -0.2059 -0.2123
 9768TIP3    H150795   2.908   1.958  12.051  1.3605 -0.8914  0.9278
 9768TIP3    H250796   3.029   1.898  11.982  1.0163  1.2809 -1.7058
 9769TIP3   OH250797   4.059   3.853  15.758 -0.3299 -0.1252 -0.8900
 9769TIP3    H150798   4.114   3.931  15.765 -0.8652  0.2216 -0.5327
 9769TIP3    H250799   4.067   3.811  15.843 -0.2509 -0.3236 -0.9951
 9770TIP3   OH250800   3.687   1.145   4.373  0.5087  0.3638  0.3765
 9770TIP3    H150801   3.748   1.189   4.432  1.3520  1.1352 -1.0037
 9770TIP3    H250802   3.654   1.070   4.423  1.3686  0.8439  1.7105
 9771TIP3   OH250803   3.758   0.121   2.449  0.9009 -0.5239 -0.5182
 9771TIP3    H150804   3.696   0.071   2.397 -0.2874 -0.2768  0.6259
 9771TIP3    H250805   3.748   0.087   2.538 -1.1884  2.8116  0.6722
 9772TIP3   OH250806   2.839   6.535  15.332 -0.9386 -0.1292  0.4429
 9772TIP3    H150807   2.766   6.512  15.389  0.3532  1.4857  2.9396
 9772TIP3    H250808   2.855   6.628  15.351  2.3630 -0.6509  0.8055
 9773TIP3   OH250809   3.538   4.583  11.437  0.1562 -0.5405  0.5018
 9773TIP3    H150810   3.581   4.537  11.509  0.3866 -0.4810  0.4036
 9773TIP3    H250811   3.468   4.525  11.410 -0.4914 -0.1725  1.3540
 9774TIP3   OH250812   4.012   0.577  14.331  0.6861 -0.4412  0.0404
 9774TIP3    H150813   3.986   0.667  14.313  1.6980 -0.5717 -2.4798
 9774TIP3    H250814   3.929   0.529  14.340  0.0540  0.1349 -2.2301
 9775TIP3   OH250815   4.544   5.379  16.304  0.4270  0.7741  0.7580
 9775TIP3    H150816   4.463   5.409  16.262 -0.0139 -0.6220  0.5862
 9775TIP3    H250817   4.597   5.343  16.232  1.0595  1.3360  0.9258
 9776TIP3   OH250818   4.979   2.674   5.052 -0.9254  0.3611  0.5970
 9776TIP3    H150819   4.984   2.636   5.140 -0.9565  1.4266  1.0767
 9776TIP3    H250820   5.058   2.727   5.044 -1.7055  1.5812  0.6366
 9777TIP3   OH250821   3.295   3.621   0.887 -0.4505 -0.5141  0.3231
 9777TIP3    H150822   3.232   3.576   0.831  0.3323  1.0387 -1.9709
 9777TIP3    H250823   3.361   3.654   0.827  1.3272 -0.0638  2.3858
 9778TIP3   OH250824   1.537   5.815  16.366  0.1362 -0.1819 -0.3620
 9778TIP3    H150825   1.493   5.834  16.449 -0.6334  0.0132 -0.8156
 9778TIP3    H250826   1.630   5.824  16.387  0.0250 -1.4283  0.8120
 9779TIP3   OH250827   3.103   4.731   2.842 -0.1925  0.3289 -0.3364
 9779TIP3    H150828   3.186   4.778   2.835  1.0503 -1.7919 -0.4385
 9779TIP3    H250829   3.077   4.715   2.751 -1.7792  2.6224 -0.3879
 9780TIP3   OH250830   1.755   0.476   5.990 -0.3697  0.0033 -0.6741
 9780TIP3    H150831   1.796   0.402   5.945 -1.0444 -1.9536  1.7301
 9780TIP3    H250832   1.662   0.453   5.994 -0.5360  0.7858  0.4239
 9781TIP3   OH250833   5.998   2.202  15.570 -0.0913  0.5748  0.3263
 9781TIP3    H150834   5.904   2.217  15.557 -0.5270 -0.6367  1.8042
 9781TIP3    H250835   6.002   2.131  15.634  1.8489  1.1394  0.8757
 9782TIP3   OH250836   3.821   2.298  10.771 -0.5124 -0.6424 -0.0121
 9782TIP3    H150837   3.781   2.348  10.700  0.6038 -1.8510 -1.5804
 9782TIP3    H250838   3.845   2.215  10.731  1.1258 -0.9724  1.5174
 9783TIP3   OH250839   3.540   5.988  16.326 -0.6813  0.1383 -0.1709
 9783TIP3    H150840   3.523   6.077  16.293  0.8100  0.4628 -0.1071
 9783TIP3    H250841   3.454   5.958  16.356 -1.5909  0.8270 -1.9127
 9784TIP3   OH250842   4.307   3.090  14.497  0.0675  0.1986  0.1816
 9784TIP3    H150843   4.391   3.112  14.537 -0.3044  0.7212  0.6824
 9784TIP3    H250844   4.312   3.126  14.409  0.4458  0.0433  0.1358
 9785TIP3   OH250845   3.539   1.405  11.595 -0.5140 -0.4518  0.1494
 9785TIP3    H150846   3.538   1.496  11.564  1.1376  0.1486  1.7008
 9785TIP3    H250847   3.534   1.412  11.690  1.8544 -1.8517  0.4496
 9786TIP3   OH250848   4.909   4.969   5.087  0.1807 -0.2157 -0.4918
 9786TIP3    H150849   4.858   5.007   5.014  0.3113 -2.4914 -1.8641
 9786TIP3    H250850   4.995   4.952   5.049  0.2567 -1.4202  0.1760
 9787TIP3   OH250851   3.903   1.822   5.353 -0.0241  0.5827 -0.2255
 9787TIP3    H150852   3.916   1.824   5.258  1.0162 -0.0428 -0.1113
 9787TIP3    H250853   3.921   1.912   5.381  0.7600  0.5232 -0.5041
 9788TIP3   OH250854   6.272   2.606   5.933  0.0622  0.3727  0.0030
 9788TIP3    H150855   6.318   2.620   5.850  0.0927 -2.2149 -0.5012
 9788TIP3    H250856   6.331   2.549   5.984 -0.2530  1.3765  1.5622
 9789TIP3   OH250857   4.416   6.763   2.449 -0.5368 -0.9249 -0.5471
 9789TIP3    H150858   4.432   6.728   2.361  2.4754  1.0275 -0.9190
 9789TIP3    H250859   4.495   6.740   2.498 -0.8608  0.5981  0.7656
 9790TIP3   OH250860   1.892   0.385   5.261 -0.2479  0.2189  0.8108
 9790TIP3    H150861   1.969   0.403   5.316 -0.4156  1.3028  0.7186
 9790TIP3    H250862   1.839   0.324   5.313  1.4170 -1.8782  0.1877
 9791TIP3   OH250863   3.256   0.466  10.408 -0.3833 -0.1266  0.7539
 9791TIP3    H150864   3.289   0.533  10.469 -0.1640  1.6391 -1.1708
 9791TIP3    H250865   3.168   0.497  10.385  0.7364  1.1993 -2.3101
 9792TIP3   OH250866   1.193   6.360  12.444 -0.1440  0.0946  0.0578
 9792TIP3    H150867   1.221   6.296  12.378 -1.3414 -0.0139 -0.3729
 9792TIP3    H250868   1.102   6.378  12.423 -0.2618  0.8210  1.0926
 9793TIP3   OH250869   3.672   0.564   4.439 -0.3254  0.2591 -0.0542
 9793TIP3    H150870   3.742   0.507   4.407 -0.1046  0.6182 -0.2036
 9793TIP3    H250871   3.680   0.559   4.535 -0.8690 -0.6616 -0.0358
 9794TIP3   OH250872   1.561   3.213  12.564  0.2783  1.1831 -0.0972
 9794TIP3    H150873   1.484   3.249  12.518 -1.6590  1.1002  2.8293
 9794TIP3    H250874   1.576   3.129  12.521 -1.2096  1.2562 -0.8567
 9795TIP3   OH250875   5.224   3.922  16.906 -0.2006 -0.1440  0.0014
 9795TIP3    H150876   5.171   3.863  16.958  0.5850 -1.5058 -0.6759
 9795TIP3    H250877   5.168   3.946  16.832 -0.0882 -1.1752 -0.4463
 9796TIP3   OH250878   5.209   4.810  14.141  0.4953  0.1184 -0.1465
 9796TIP3    H150879   5.233   4.901  14.160  0.0945  0.2260 -0.1271
 9796TIP3    H250880   5.181   4.812  14.050 -2.0684  0.5952  0.5470
 9797TIP3   OH250881   4.889   4.145   2.922 -0.6182  0.7191  0.6231
 9797TIP3    H150882   4.879   4.054   2.951 -2.5628  0.3190 -1.0635
 9797TIP3    H250883   4.972   4.173   2.960  0.5209 -2.0670  0.4158
 9798TIP3   OH250884   0.289   6.494   5.353  0.3870 -0.0900 -0.1268
 9798TIP3    H150885   0.385   6.488   5.354  0.5091  1.2596 -1.2082
 9798TIP3    H250886   0.263   6.442   5.276  0.5371  2.2489 -1.8539
 9799TIP3   OH250887   3.100   4.981   4.144  0.3891 -0.0567 -0.1113
 9799TIP3    H150888   3.144   5.002   4.062  0.4708 -3.1205 -0.9398
 9799TIP3    H250889   3.046   4.904   4.125  0.0658 -0.6111  2.5923
 9800TIP3   OH250890   2.230   4.355   5.570 -0.2510  0.4698 -0.4861
 9800TIP3    H150891   2.176   4.299   5.514 -1.7963  0.8382  0.5706
 9800TIP3    H250892   2.168   4.414   5.612  0.8443  0.2242  1.5990
 9801TIP3   OH250893   2.512   2.154  12.931  0.4429  0.0752  0.4905
 9801TIP3    H150894   2.518   2.190  12.842 -0.5780  2.2284  1.2261
 9801TIP3    H250895   2.598   2.170  12.970 -0.2783  2.8440  1.1348
 9802TIP3   OH250896   6.506   5.500   6.801 -0.1839  0.0091 -0.1434
 9802TIP3    H150897   6.585   5.451   6.823  0.3193  0.9345  0.1811
 9802TIP3    H250898   6.536   5.590   6.790 -1.2908  0.4859  0.5690
 9803TIP3   OH250899   3.871   4.978   3.904  0.4176  0.1622 -0.0828
 9803TIP3    H150900   3.931   5.009   3.972  1.1994  1.3673 -1.2741
 9803TIP3    H250901   3.891   4.885   3.896  0.9472  0.1992  0.7018
 9804TIP3   OH250902   4.186   4.258   1.862 -0.1716 -0.2012 -0.0375
 9804TIP3    H150903   4.139   4.285   1.784  3.2191  0.7704 -1.9397
 9804TIP3    H250904   4.169   4.327   1.926 -1.6122 -0.1203 -0.4908
 9805TIP3   OH250905   4.700   5.085  16.883  0.9276  0.2277 -0.7792
 9805TIP3    H150906   4.622   5.094  16.829  0.7306  1.3902 -0.3191
 9805TIP3    H250907   4.734   4.998  16.861 -1.7225 -1.3041  0.6059
 9806TIP3   OH250908   6.236   5.866   1.007 -0.3426  0.1311  0.2385
 9806TIP3    H150909   6.203   5.858   0.917  0.5894  2.2690 -0.3454
 9806TIP3    H250910   6.327   5.836   1.002 -0.7436 -1.3088  0.8682
 9807TIP3   OH250911   1.547   0.954   5.549 -0.1370  0.1012 -0.2493
 9807TIP3    H150912   1.494   1.033   5.557 -0.4414 -0.1832  0.6739
 9807TIP3    H250913   1.551   0.919   5.638  1.9887  0.3412 -0.2133
 9808TIP3   OH250914   6.686   6.139   2.257 -0.0225  0.5862  0.2833
 9808TIP3    H150915   6.754   6.159   2.322  0.0518 -0.9591  0.7130
 9808TIP3    H250916   6.732   6.091   2.188 -0.3639  1.0231 -0.2524
 9809TIP3   OH250917   0.910   5.996   1.823  0.1412 -0.4519  0.0629
 9809TIP3    H150918   0.995   6.011   1.782 -0.7243 -0.2981 -1.7660
 9809TIP3    H250919   0.872   5.924   1.773 -0.7179 -0.6819  1.0161
 9810TIP3   OH250920   2.940   6.662  12.303 -0.2248 -0.0422 -0.0984
 9810TIP3    H150921   3.013   6.653  12.241  0.6591  0.9183  0.7584
 9810TIP3    H250922   2.912   6.753  12.293 -0.3676 -0.0068  0.5874
 9811TIP3   OH250923   1.506   6.818   3.239  0.0002 -0.1616  0.4868
 9811TIP3    H150924   1.433   6.822   3.302 -0.3646  2.3325  0.0306
 9811TIP3    H250925   1.576   6.869   3.280 -0.1904  1.3897 -0.9764
 9812TIP3   OH250926   0.029   0.051  11.000  0.1436  0.0674  0.2819
 9812TIP3    H150927   0.058   0.140  10.981  0.6116 -0.0159  0.5812
 9812TIP3    H250928  -0.064   0.059  11.022 -0.0300  0.3639 -0.5385
 9813TIP3   OH250929   0.001   4.932   2.084 -0.5307  0.8627  0.1864
 9813TIP3    H150930   0.070   4.901   2.143 -1.0538 -0.6853  0.0484
 9813TIP3    H250931  -0.046   4.998   2.134 -1.0912 -0.5593  1.6226
 9814TIP3   OH250932   4.153   3.132  13.012  0.7025  0.1388  0.2986
 9814TIP3    H150933   4.061   3.137  13.040 -0.1399 -0.5766 -2.0980
 9814TIP3    H250934   4.202   3.121  13.093 -1.4289 -0.4911  1.5790
 9815TIP3   OH250935   5.769   5.468   0.465  0.0146 -0.3665  0.2944
 9815TIP3    H150936   5.838   5.424   0.414  0.1727  0.5377 -0.2989
 9815TIP3    H250937   5.692   5.466   0.407 -0.5243 -1.5075  1.0156
 9816TIP3   OH250938   2.509   6.771   6.318 -0.0549 -0.1071 -0.2471
 9816TIP3    H150939   2.474   6.688   6.349 -0.2692  0.2713  0.5743
 9816TIP3    H250940   2.443   6.804   6.256  0.4118 -0.9102 -1.1863
 9817TIP3   OH250941   0.909   2.990   1.248  0.1645 -0.2451 -0.2667
 9817TIP3    H150942   0.999   2.992   1.216  0.4046 -1.1423  0.3198
 9817TIP3    H250943   0.855   3.002   1.170  0.7421 -1.9646 -0.9794
 9818TIP3   OH250944   5.548   4.100   2.720  0.0804 -0.2057  0.0616
 9818TIP3    H150945   5.471   4.125   2.772  0.6846 -1.4790  1.6608
 9818TIP3    H250946   5.614   4.077   2.785  1.3756 -0.4543 -1.2951
 9819TIP3   OH250947   6.812   0.912   4.806  0.1143 -0.2996 -0.2113
 9819TIP3    H150948   6.745   0.922   4.739 -0.6618  0.9539  0.6922
 9819TIP3    H250949   6.764   0.915   4.889  1.3312  2.2038  0.5375
 9820TIP3   OH250950   0.486   1.674   4.577  0.2413 -0.0729 -0.5343
 9820TIP3    H150951   0.500   1.750   4.520 -1.0033 -0.9461 -2.0652
 9820TIP3    H250952   0.398   1.686   4.612  0.7017  0.0530  0.6186
 9821TIP3   OH250953   5.518   5.360   5.258  0.3461 -0.2981 -0.1024
 9821TIP3    H150954   5.552   5.305   5.188 -0.2112  0.6028 -1.1193
 9821TIP3    H250955   5.530   5.309   5.338 -1.1303 -2.3476 -1.1066
 9822TIP3   OH250956   1.318   1.329   2.095 -0.1053 -0.3552 -0.0798
 9822TIP3    H150957   1.401   1.309   2.136  0.8405 -0.6320 -1.9980
 9822TIP3    H250958   1.287   1.408   2.138  1.7326  0.4202 -0.1068
 9823TIP3   OH250959   1.648   1.409  13.482  0.3603 -0.1409  0.0315
 9823TIP3    H150960   1.627   1.322  13.448  0.3382 -0.5578  1.0812
 9823TIP3    H250961   1.580   1.428  13.546  0.8170  0.3003  0.3994
 9824TIP3   OH250962   4.408   2.103   3.933  0.7611  0.2629 -0.0401
 9824TIP3    H150963   4.385   2.010   3.931  0.1152  0.3537  1.4925
 9824TIP3    H250964   4.498   2.106   3.901  0.6135 -0.8151 -0.6176
 9825TIP3   OH250965   2.628   1.309   0.131 -0.3051 -0.3021 -0.1595
 9825TIP3    H150966   2.572   1.261   0.070 -1.9205  0.7759  0.4092
 9825TIP3    H250967   2.630   1.398   0.097 -0.3743  0.0763  0.7902
 9826TIP3   OH250968   2.831   0.557   1.165  0.1700 -0.2144  0.2934
 9826TIP3    H150969   2.890   0.481   1.162  0.0867 -0.3158  1.0555
 9826TIP3    H250970   2.772   0.539   1.238  0.3429  0.7285  0.6807
 9827TIP3   OH250971   0.684   1.096   4.759 -0.3583  0.3729 -0.2424
 9827TIP3    H150972   0.668   1.152   4.835 -0.2130  0.4527 -0.2692
 9827TIP3    H250973   0.599   1.088   4.716 -0.8935 -1.2989  1.0172
 9828TIP3   OH250974   6.318   0.264  11.252  0.1339  0.4709  0.0807
 9828TIP3    H150975   6.402   0.240  11.291 -0.4225 -2.5524 -0.3486
 9828TIP3    H250976   6.254   0.243  11.320 -0.5119 -0.7917 -0.8908
 9829TIP3   OH250977   1.077   5.474  14.048  0.5425 -0.2052  0.1925
 9829TIP3    H150978   1.006   5.512  14.100 -0.2544 -0.2599 -0.8199
 9829TIP3    H250979   1.094   5.389  14.089 -0.9948 -0.8330 -0.4127
 9830TIP3   OH250980   1.215   2.707  12.919 -0.6105  0.8318 -0.3149
 9830TIP3    H150981   1.139   2.678  12.969  0.7460  0.3216  1.5803
 9830TIP3    H250982   1.257   2.773  12.974  0.0739  1.4760 -1.5413
 9831TIP3   OH250983   6.550   0.421  15.836  0.0686 -0.9160 -0.1795
 9831TIP3    H150984   6.486   0.490  15.851  0.1593 -0.9883  0.6003
 9831TIP3    H250985   6.499   0.340  15.837  0.0523 -0.9068 -0.4124
 9832TIP3   OH250986   4.436   0.053  12.174  0.0940 -0.1389  0.6154
 9832TIP3    H150987   4.365   0.094  12.124  1.0505  0.0860 -0.5944
 9832TIP3    H250988   4.391  -0.005  12.236 -1.1389 -0.1508 -0.2487
 9833TIP3   OH250989   3.386   2.325   4.162 -0.0951  0.0337  0.0666
 9833TIP3    H150990   3.291   2.323   4.153 -0.2605 -1.4644  1.6928
 9833TIP3    H250991   3.419   2.294   4.077 -1.1544 -1.8252  0.2844
 9834TIP3   OH250992   2.183   5.942   6.105  0.3941 -0.0319 -0.3234
 9834TIP3    H150993   2.236   5.871   6.067 -2.0719 -2.1662 -0.0677
 9834TIP3    H250994   2.107   5.949   6.047 -1.1845 -0.1686  1.6313
 9835TIP3   OH250995   4.831   1.071  16.634 -0.3558  0.4485  0.3089
 9835TIP3    H150996   4.860   1.086  16.544 -2.2976  1.3730 -0.2124
 9835TIP3    H250997   4.736   1.058  16.627 -0.7169  1.6618  2.3232
 9836TIP3   OH250998   5.362   5.472   1.154  0.7357  0.2929 -0.0689
 9836TIP3    H150999   5.331   5.556   1.188 -1.9912 -0.4082 -0.6310
 9836TIP3    H251000   5.364   5.415   1.230  0.2947  0.2656 -0.0732
 9837TIP3   OH251001   3.462   4.999   1.354 -0.2291 -0.3150 -0.3291
 9837TIP3    H151002   3.529   5.059   1.385 -0.4435 -0.8226  1.1613
 9837TIP3    H251003   3.505   4.914   1.351 -1.0722 -0.8578  1.7431
 9838TIP3   OH251004   4.822   0.415   0.528 -0.1601  0.5142  0.7035
 9838TIP3    H151005   4.748   0.472   0.505  0.1688  1.3274  1.5891
 9838TIP3    H251006   4.896   0.475   0.535  0.7407 -0.3698 -0.7619
 9839TIP3   OH251007   4.387   4.917  14.230  0.4016  0.7914  0.2727
 9839TIP3    H151008   4.360   4.882  14.315  0.3121  0.4639  0.1125
 9839TIP3    H251009   4.416   5.006  14.249  1.2489  0.4186  0.7998
 9840TIP3   OH251010   3.655   4.255  10.562 -0.0902  0.7313  0.1176
 9840TIP3    H151011   3.665   4.198  10.486  1.8128  0.8235  0.2306
 9840TIP3    H251012   3.595   4.208  10.620 -0.7717  0.1894 -1.0022
 9841TIP3   OH251013   2.085   6.570   0.860 -0.0425  0.3372 -0.7349
 9841TIP3    H151014   2.173   6.557   0.826  0.2589  0.9854 -0.2268
 9841TIP3    H251015   2.052   6.646   0.811 -0.1329  0.3950 -0.5852
 9842TIP3   OH251016   2.547   5.474  14.362 -0.9407  0.5265 -0.5425
 9842TIP3    H151017   2.471   5.423  14.331 -1.1476  0.1724  0.5235
 9842TIP3    H251018   2.610   5.469  14.290  0.1700 -3.5491  0.4484
 9843TIP3   OH251019   6.122   0.736   0.308 -0.2894  0.3663  0.1225
 9843TIP3    H151020   6.028   0.721   0.317 -0.4401  0.4586 -1.1191
 9843TIP3    H251021   6.160   0.648   0.307 -0.1960  0.3553  2.0117
 9844TIP3   OH251022   0.505   5.379  12.595 -0.2984  0.8220  0.2217
 9844TIP3    H151023   0.587   5.342  12.563  0.3625  1.1221  1.5252
 9844TIP3    H251024   0.448   5.303  12.608 -0.4680  0.6629 -1.2641
 9845TIP3   OH251025   5.846   4.676   5.284  0.2861  0.0760  0.2093
 9845TIP3    H151026   5.798   4.681   5.201 -0.2173 -0.3472  0.4727
 9845TIP3    H251027   5.781   4.695   5.351  0.1349 -1.9071  0.6817
 9846TIP3   OH251028   1.276   4.195   2.025 -0.4787 -0.1608  0.7386
 9846TIP3    H151029   1.221   4.274   2.030 -0.0365  0.3526 -1.3989
 9846TIP3    H251030   1.213   4.123   2.030 -1.2580  0.3977 -0.3641
 9847TIP3   OH251031   2.586   1.142   1.009  0.5005  0.2307  0.1313
 9847TIP3    H151032   2.655   1.147   0.942  0.9139 -0.7369  0.4658
 9847TIP3    H251033   2.520   1.205   0.980  0.5591 -0.3330 -1.3153
 9848TIP3   OH251034   6.110   6.610   6.138  0.0388  0.1094  0.1242
 9848TIP3    H151035   6.060   6.644   6.213  0.5037  0.4563  0.2802
 9848TIP3    H251036   6.060   6.640   6.061  0.4391  1.1580  0.2621
 9849TIP3   OH251037   4.290   5.919   2.470 -0.2990 -0.2852  0.3825
 9849TIP3    H151038   4.366   5.894   2.522  0.1699  1.2832  0.5260
 9849TIP3    H251039   4.326   5.948   2.386 -0.6542  1.0082  0.6520
 9850TIP3   OH251040   3.400   2.204  15.896 -0.1935 -0.0181 -0.3079
 9850TIP3    H151041   3.374   2.208  15.988 -0.9416 -0.2679 -0.4980
 9850TIP3    H251042   3.495   2.207  15.897 -0.2247  1.5607  0.3913
 9851TIP3   OH251043   5.270   3.854   5.787 -0.5332 -0.1169 -0.6943
 9851TIP3    H151044   5.258   3.819   5.699 -1.7518  0.0833 -0.6242
 9851TIP3    H251045   5.207   3.925   5.793  0.1886  0.4831  0.0297
 9852TIP3   OH251046   2.384   1.082   5.961 -1.0196  0.1990  0.1529
 9852TIP3    H151047   2.426   1.149   5.907 -0.5285 -0.0699  0.1978
 9852TIP3    H251048   2.341   1.132   6.031 -1.0606  0.4984 -0.0844
 9853TIP3   OH251049   2.994   5.676  11.387 -0.1909  0.2472 -0.1036
 9853TIP3    H151050   3.070   5.658  11.443 -1.4018 -2.7553  0.7422
 9853TIP3    H251051   2.989   5.772  11.384  1.4551  0.5455  2.8446
 9854TIP3   OH251052   4.079   1.440  16.039  0.1614  0.2784 -0.3184
 9854TIP3    H151053   4.144   1.509  16.050 -0.2631  0.4312  1.4828
 9854TIP3    H251054   4.041   1.457  15.953  0.5128  1.9102 -0.1826
 9855TIP3   OH251055   1.078   1.406  17.150 -0.2427 -0.2218 -0.4743
 9855TIP3    H151056   1.109   1.460  17.077  0.2158 -0.8081 -0.7279
 9855TIP3    H251057   1.060   1.321  17.110 -3.2653  0.3532 -0.5592
 9856TIP3   OH251058   6.281   6.727  15.686  0.4982  0.3868 -0.1027
 9856TIP3    H151059   6.260   6.820  15.682 -0.6570  0.1714  0.7101
 9856TIP3    H251060   6.197   6.683  15.682  0.9575 -0.5902  0.5847
 9857TIP3   OH251061   1.115   5.658   1.370 -0.1106  0.1636  0.0559
 9857TIP3    H151062   1.161   5.742   1.361 -1.1497  0.6909 -0.4888
 9857TIP3    H251063   1.096   5.632   1.280 -1.2006  0.1440  0.2788
 9858TIP3   OH251064   6.215   2.007  16.199  0.4362  0.4716 -0.6962
 9858TIP3    H151065   6.221   1.993  16.293 -0.1740 -0.7830 -0.8297
 9858TIP3    H251066   6.289   2.064  16.179  1.4681 -0.4594  0.3217
 9859TIP3   OH251067   1.634   6.678   1.213  0.0979  0.8497 -0.2758
 9859TIP3    H151068   1.715   6.728   1.206 -0.2516  1.7060  1.2480
 9859TIP3    H251069   1.658   6.602   1.266  0.2025  0.3638 -1.0061
 9860TIP3   OH251070   0.177   1.061   1.808 -0.0466  0.4617 -0.7229
 9860TIP3    H151071   0.190   1.113   1.729  0.3060 -0.2752 -1.1665
 9860TIP3    H251072   0.265   1.053   1.845 -0.0720  0.0684 -0.7419
 9861TIP3   OH251073   0.297   2.445   5.409 -0.0304 -0.3980  0.5148
 9861TIP3    H151074   0.230   2.411   5.468 -0.4111  1.0744  0.9663
 9861TIP3    H251075   0.376   2.449   5.463  0.1009 -0.8498  0.3646
 9862TIP3   OH251076   2.934   4.563  15.949 -0.0818 -0.1438 -1.2143
 9862TIP3    H151077   2.933   4.480  15.996  0.2117 -0.6900 -2.1368
 9862TIP3    H251078   2.870   4.551  15.878  0.3762  0.1952 -1.6969
 9863TIP3   OH251079   3.751   5.873   0.073 -0.5315 -0.2600  0.1662
 9863TIP3    H151080   3.778   5.929   0.146  2.5646  0.1929 -1.1618
 9863TIP3    H251081   3.768   5.784   0.104 -0.2695 -0.1410  0.3742
 9864TIP3   OH251082   1.496   3.064  15.249 -0.1779 -0.4459 -0.6715
 9864TIP3    H151083   1.493   3.137  15.187 -2.4993 -1.4790 -1.9338
 9864TIP3    H251084   1.411   3.067  15.292 -0.6241 -2.7824 -1.2844
 9865TIP3   OH251085   6.368   6.598   4.524  0.2138 -0.3901  0.0283
 9865TIP3    H151086   6.331   6.686   4.526 -2.6434 -1.4857 -0.5441
 9865TIP3    H251087   6.350   6.562   4.611  0.6199 -0.7158 -0.0141
 9866TIP3   OH251088   5.848   0.228   4.085  0.6583 -0.0769 -0.0087
 9866TIP3    H151089   5.926   0.270   4.049 -0.1650  2.2105  0.6320
 9866TIP3    H251090   5.881   0.156   4.138  2.1941 -0.2662 -1.1530
 9867TIP3   OH251091   3.951   5.379  15.107  0.1619 -0.3755 -0.3953
 9867TIP3    H151092   3.911   5.328  15.177  0.0513  0.9588  0.5469
 9867TIP3    H251093   3.910   5.346  15.027 -0.0082 -1.6363  0.2018
 9868TIP3   OH251094   6.674   4.299  15.063  0.2258 -0.4671  0.5617
 9868TIP3    H151095   6.679   4.204  15.053 -0.6050 -0.3874 -0.9799
 9868TIP3    H251096   6.654   4.331  14.975 -1.2720  0.9907  1.3636
 9869TIP3   OH251097   4.987   2.419  15.828  0.4351 -0.3111 -0.4571
 9869TIP3    H151098   5.018   2.385  15.743  0.7176  1.1090 -0.9454
 9869TIP3    H251099   5.023   2.507  15.833 -0.1686 -0.1212  0.8411
 9870TIP3   OH251100   3.263   3.615   6.469 -0.0286  1.0164 -0.1190
 9870TIP3    H151101   3.301   3.570   6.394 -0.6324 -0.6679  0.5534
 9870TIP3    H251102   3.170   3.625   6.447 -0.0123  1.4470 -0.0169
 9871TIP3   OH251103   2.049   4.552  12.098  0.4956  0.0700 -0.0002
 9871TIP3    H151104   2.088   4.508  12.024 -1.4852 -0.2921 -0.9018
 9871TIP3    H251105   2.111   4.540  12.170  1.8720 -0.6353 -1.2730
 9872TIP3   OH251106   5.635   5.978  13.951  0.4665  0.2809 -0.4025
 9872TIP3    H151107   5.608   6.067  13.975 -1.0885 -0.8277  2.4090
 9872TIP3    H251108   5.555   5.937  13.919  0.7255 -0.6251  0.0829
 9873TIP3   OH251109   4.767   3.817   1.193 -0.1899  0.8307 -0.3197
 9873TIP3    H151110   4.731   3.875   1.126 -0.6166  3.5872  2.1067
 9873TIP3    H251111   4.835   3.869   1.236 -0.9544 -0.1878  2.3398
 9874TIP3   OH251112   2.910   0.708  16.553 -0.2229 -0.3153 -0.4094
 9874TIP3    H151113   2.953   0.655  16.619  1.5825  0.6200 -0.7764
 9874TIP3    H251114   2.819   0.679  16.554  0.0315 -1.1627  1.6038
 9875TIP3   OH251115   4.344   4.649  12.585  0.1280  0.3130 -0.1163
 9875TIP3    H151116   4.267   4.601  12.616  0.1993  0.0379 -0.3626
 9875TIP3    H251117   4.410   4.581  12.570 -0.4610  0.2014 -2.6157
 9876TIP3   OH251118   0.819   6.443   0.428 -0.2110 -0.3533 -0.0801
 9876TIP3    H151119   0.818   6.393   0.510 -0.7745  1.2533  0.9402
 9876TIP3    H251120   0.736   6.422   0.385 -1.0692  0.6875  1.0022
 9877TIP3   OH251121   0.017   6.317   6.329  0.2990  0.3382 -0.2162
 9877TIP3    H151122  -0.002   6.229   6.296  1.7967 -0.4447  0.8890
 9877TIP3    H251123   0.069   6.302   6.408  0.7399  2.2347 -0.1082
 9878TIP3   OH251124   3.674   1.237   0.832  0.0194 -0.4582  0.3503
 9878TIP3    H151125   3.674   1.206   0.741  0.5763  0.7998 -0.1120
 9878TIP3    H251126   3.657   1.159   0.884 -1.2446 -1.0588 -0.8761
 9879TIP3   OH251127   4.508   1.184   5.556 -0.0833 -0.4251  0.0755
 9879TIP3    H151128   4.463   1.174   5.472 -1.1370  0.0772  0.5597
 9879TIP3    H251129   4.548   1.098   5.572 -0.9333 -0.9116 -0.3496
 9880TIP3   OH251130   6.815   3.122   0.722 -0.6345  0.6303 -0.4849
 9880TIP3    H151131   6.766   3.200   0.745  2.5646  2.3184  1.2459
 9880TIP3    H251132   6.898   3.155   0.687 -0.1224 -2.0351 -2.0893
 9881TIP3   OH251133   2.907   2.225  12.080 -0.3228 -0.0760 -0.1327
 9881TIP3    H151134   2.952   2.146  12.051 -0.5533  0.5281 -2.2762
 9881TIP3    H251135   2.946   2.295  12.028 -1.6420  0.8976  0.1519
 9882TIP3   OH251136   5.410   0.602   5.640  0.1204  0.3225 -0.3554
 9882TIP3    H151137   5.335   0.584   5.696 -0.1395 -3.1888 -1.6075
 9882TIP3    H251138   5.378   0.666   5.576 -1.3457  0.0132  0.0511
 9883TIP3   OH251139   6.403   3.860  14.625 -0.1762 -0.0305 -0.2030
 9883TIP3    H151140   6.406   3.783  14.683  0.7829 -0.8973 -1.3655
 9883TIP3    H251141   6.318   3.854  14.582 -0.2468 -0.2474 -0.0348
 9884TIP3   OH251142   3.146   2.362   5.003  0.4224  0.2394 -0.2487
 9884TIP3    H151143   3.220   2.423   4.995 -0.3010  1.0452 -1.2400
 9884TIP3    H251144   3.173   2.299   5.069  2.3741 -0.0309 -1.2316
 9885TIP3   OH251145   1.724   5.678  14.712 -0.1068  0.2071 -0.3401
 9885TIP3    H151146   1.668   5.638  14.779  0.6609  1.5991  1.2055
 9885TIP3    H251147   1.665   5.698  14.640 -1.4715  0.8403  0.8993
 9886TIP3   OH251148   1.771   2.586   0.039 -0.2007  0.4615 -0.0109
 9886TIP3    H151149   1.771   2.657  -0.025 -1.3974 -0.5580 -1.1857
 9886TIP3    H251150   1.818   2.514  -0.005 -2.9861 -1.0465 -0.7647
 9887TIP3   OH251151   1.219   1.252   3.927 -0.2173  0.2071 -0.0744
 9887TIP3    H151152   1.311   1.279   3.928 -0.2841  0.4151  0.3048
 9887TIP3    H251153   1.177   1.311   3.864  0.0419 -0.3352 -0.7780
 9888TIP3   OH251154   1.857   5.306  16.733 -0.4309 -0.2389  0.1882
 9888TIP3    H151155   1.779   5.309  16.679 -0.3847 -0.6033  0.0976
 9888TIP3    H251156   1.832   5.254  16.809 -0.2529 -0.4218  0.1220
 9889TIP3   OH251157   0.610   5.526  14.347 -0.0305 -0.5191  0.3609
 9889TIP3    H151158   0.515   5.525  14.358 -0.0228 -0.2132  0.4597
 9889TIP3    H251159   0.643   5.479  14.424 -0.1779 -2.2606 -0.5849
 9890TIP3   OH251160   4.917   1.741   0.281 -0.1409 -0.1871 -0.4066
 9890TIP3    H151161   4.966   1.805   0.333 -1.8193  0.8555 -0.0560
 9890TIP3    H251162   4.874   1.686   0.345 -0.1574 -0.5281 -0.7070
 9891TIP3   OH251163   6.075   2.883   4.888 -0.2827  0.4550  0.2981
 9891TIP3    H151164   6.170   2.872   4.899 -0.1024  0.9910 -0.5780
 9891TIP3    H251165   6.061   2.876   4.794 -1.3170 -0.9695  0.5140
 9892TIP3   OH251166   5.526   0.409   3.187  0.7594 -0.3190  0.2752
 9892TIP3    H151167   5.486   0.327   3.156 -1.2485 -0.1129  2.1092
 9892TIP3    H251168   5.477   0.478   3.143 -1.3688 -0.0537  2.8254
 9893TIP3   OH251169   5.895   6.304  15.677 -0.6943  0.1359 -0.1323
 9893TIP3    H151170   5.880   6.220  15.722  1.3992 -1.0196 -1.3923
 9893TIP3    H251171   5.819   6.315  15.621 -1.4345 -0.4544  0.7234
 9894TIP3   OH251172   0.646   1.666   3.060 -0.1786  0.3960 -0.1699
 9894TIP3    H151173   0.662   1.713   2.978 -1.8662  1.5046  0.0634
 9894TIP3    H251174   0.563   1.620   3.046 -0.8518  1.1349  1.0790
 9895TIP3   OH251175   4.251   5.556  15.636 -0.1239  0.2808  0.4237
 9895TIP3    H151176   4.215   5.632  15.590 -0.4629 -0.3522 -0.3724
 9895TIP3    H251177   4.344   5.575  15.645 -0.4370  1.4218  1.4823
 9896TIP3   OH251178   5.711   6.343  14.402  0.9184  0.5074  0.5330
 9896TIP3    H151179   5.642   6.371  14.462 -0.9758 -2.8845  0.1846
 9896TIP3    H251180   5.684   6.376  14.317  0.6871  0.6912  0.6777
 9897TIP3   OH251181   3.444   6.284   3.583 -0.2226 -0.5351 -0.4109
 9897TIP3    H151182   3.360   6.238   3.580  0.7359 -2.5000  0.7367
 9897TIP3    H251183   3.510   6.217   3.565  1.1423  0.9198 -1.1417
 9898TIP3   OH251184   5.080   4.098  10.787  0.0412 -0.2040  0.4341
 9898TIP3    H151185   5.172   4.072  10.797 -0.0610 -0.4220  0.8239
 9898TIP3    H251186   5.043   4.087  10.875 -0.8037 -1.8754 -0.1026
 9899TIP3   OH251187   0.054   0.078   3.623  0.1947  0.6919  0.3344
 9899TIP3    H151188   0.127   0.110   3.676 -0.6052  0.2912  1.7610
 9899TIP3    H251189  -0.007   0.042   3.688 -0.2438 -1.0326 -0.9701
 9900TIP3   OH251190   2.102   3.492   5.389 -0.6435 -0.4067 -0.1584
 9900TIP3    H151191   2.064   3.552   5.324 -2.2850 -0.8648  0.3364
 9900TIP3    H251192   2.194   3.520   5.396 -1.1128  1.4231 -0.6401
 9901TIP3   OH251193   2.561   2.215   4.572  0.5826 -0.3779 -0.3088
 9901TIP3    H151194   2.552   2.255   4.659  0.8927  0.5391 -0.6843
 9901TIP3    H251195   2.655   2.214   4.555  0.6078 -1.5992 -0.1736
 9902TIP3   OH251196   4.449   2.411   2.501  0.1512  0.6705 -0.5084
 9902TIP3    H151197   4.454   2.339   2.439 -2.4244  0.4567 -0.5996
 9902TIP3    H251198   4.416   2.371   2.582 -4.0945  1.9437 -1.3388
 9903TIP3   OH251199   1.581   1.818   2.939 -0.3188  0.0503 -0.1458
 9903TIP3    H151200   1.637   1.891   2.967  0.6784 -0.6910 -0.1421
 9903TIP3    H251201   1.516   1.858   2.881 -0.6176  1.1430  0.8967
 9904TIP3   OH251202   2.942   6.590   4.723 -0.0300  0.0825  0.1120
 9904TIP3    H151203   2.939   6.683   4.744 -0.5598 -0.3469  2.1519
 9904TIP3    H251204   2.923   6.546   4.806  0.3174 -1.8513 -0.7800
 9905TIP3   OH251205   4.613   3.682  15.890 -0.0624  0.1687 -0.0775
 9905TIP3    H151206   4.707   3.697  15.887 -0.1825  0.8040 -1.8323
 9905TIP3    H251207   4.581   3.744  15.956  0.8881 -1.1902  1.7393
 9906TIP3   OH251208   4.041   3.541   0.044  0.3065 -0.0737 -1.0611
 9906TIP3    H151209   4.039   3.450   0.016  0.7852 -0.1866 -0.7298
 9906TIP3    H251210   3.999   3.589  -0.027 -0.9849 -0.6852 -0.7452
 9907TIP3   OH251211   2.396   5.704   2.103 -0.0781 -0.3744  0.6946
 9907TIP3    H151212   2.430   5.747   2.182 -0.5547 -2.2162  1.9875
 9907TIP3    H251213   2.455   5.629   2.090  1.5843  1.3112 -2.3142
 9908TIP3   OH251214   5.209   3.350  16.399 -0.0866  0.4739 -0.4934
 9908TIP3    H151215   5.294   3.380  16.368 -0.9365  0.7447 -2.8124
 9908TIP3    H251216   5.224   3.323  16.490  1.7970  3.3294  0.1946
 9909TIP3   OH251217   0.211   3.025   4.058  0.2736 -0.9479 -0.1052
 9909TIP3    H151218   0.211   3.015   3.963 -2.0098 -0.4169 -0.2380
 9909TIP3    H251219   0.164   3.107   4.073  0.1957 -1.2558  1.4906
 9910TIP3   OH251220   5.757   4.832  13.843 -0.9864  0.1392 -0.2860
 9910TIP3    H151221   5.736   4.821  13.751 -3.8857 -0.7432  0.3692
 9910TIP3    H251222   5.824   4.766  13.861 -1.5434 -0.7573 -1.4227
 9911TIP3   OH251223   5.836   3.996   3.811  0.4010  0.2015  0.2494
 9911TIP3    H151224   5.777   3.995   3.886  0.2440 -0.6332  0.1181
 9911TIP3    H251225   5.811   4.074   3.762 -0.2679  0.1175  0.4475
 9912TIP3   OH251226   1.170   2.183   2.281 -0.0040 -0.2074 -0.2006
 9912TIP3    H151227   1.184   2.096   2.318  0.0047  0.6613  2.0310
 9912TIP3    H251228   1.258   2.218   2.268 -0.0098 -0.2910 -0.4596
 9913TIP3   OH251229   1.176   4.814   1.734  0.7677 -0.0613 -0.0540
 9913TIP3    H151230   1.142   4.872   1.802  1.8946 -0.8298  1.2262
 9913TIP3    H251231   1.219   4.743   1.783  2.4780 -0.1316 -1.5516
 9914TIP3   OH251232   3.650   1.062  11.586 -0.1877 -0.2368 -0.2764
 9914TIP3    H151233   3.715   1.046  11.653 -0.4789 -0.9659 -0.1658
 9914TIP3    H251234   3.680   1.012  11.510 -0.5153 -0.4289 -0.2834
 9915TIP3   OH251235   0.488   0.352   3.472  0.0046  0.0149 -0.2097
 9915TIP3    H151236   0.556   0.288   3.451 -2.4725 -2.3702 -1.4040
 9915TIP3    H251237   0.512   0.429   3.420  1.1787 -1.1580 -1.5054
 9916TIP3   OH251238   4.509   0.610  13.327 -0.2149  0.3228 -0.2417
 9916TIP3    H151239   4.544   0.698  13.338 -0.9922  0.5030  0.9640
 9916TIP3    H251240   4.449   0.598  13.401 -1.1048 -0.7415 -1.0956
 9917TIP3   OH251241   4.035   0.385   1.885 -0.4289 -0.0191  0.1494
 9917TIP3    H151242   4.071   0.427   1.963 -1.7340  0.2670  0.6293
 9917TIP3    H251243   3.951   0.349   1.914 -1.5379  1.1563 -1.3868
 9918TIP3   OH251244   5.115   3.700  11.463 -0.0256 -0.9979  0.2740
 9918TIP3    H151245   5.125   3.644  11.540  0.4510  0.0427  0.9985
 9918TIP3    H251246   5.089   3.785  11.498  0.0617 -0.5395 -0.7309
 9919TIP3   OH251247   0.070   3.007  16.389  0.1297 -0.3764  0.3300
 9919TIP3    H151248   0.146   3.033  16.440  0.4576 -0.4904 -0.0908
 9919TIP3    H251249   0.089   3.037  16.300 -0.8083  0.5703  0.4332
 9920TIP3   OH251250   0.460   2.598  15.367 -0.4290  0.4135 -0.1385
 9920TIP3    H151251   0.372   2.573  15.394 -1.4746  2.7185 -1.1999
 9920TIP3    H251252   0.482   2.673  15.423  0.7186  0.1136 -0.1577
 9921TIP3   OH251253   3.270   4.677   2.365 -0.7365  0.0463  0.4893
 9921TIP3    H151254   3.314   4.601   2.325 -1.7969  0.0715 -0.7686
 9921TIP3    H251255   3.297   4.673   2.457  2.7163  0.6440 -0.3458
 9922TIP3   OH251256   3.161   4.232   3.757 -0.5854  0.6459 -0.1924
 9922TIP3    H151257   3.107   4.160   3.790 -0.5503  0.4883 -0.4746
 9922TIP3    H251258   3.111   4.310   3.777 -0.5462  0.5563  0.2692
 9923TIP3   OH251259   4.040   6.015   3.777 -0.0895 -0.1115  0.4755
 9923TIP3    H151260   4.045   6.101   3.735  0.3373  0.0666  0.8777
 9923TIP3    H251261   4.102   6.021   3.850 -1.4019 -0.1279  1.6390
 9924TIP3   OH251262   6.547   1.127  16.031 -0.2166 -0.5120  0.0529
 9924TIP3    H151263   6.519   1.197  16.090 -2.7764 -0.8522 -0.6242
 9924TIP3    H251264   6.626   1.092  16.071  0.0606  1.5098  1.4076
 9925TIP3   OH251265   2.812   0.780  15.691  0.1388 -0.1192 -0.0205
 9925TIP3    H151266   2.875   0.800  15.622 -1.7705  0.3050 -1.7183
 9925TIP3    H251267   2.779   0.865  15.720  0.8691 -0.2970  1.4025
 9926TIP3   OH251268   6.667   1.502   0.030 -0.1969  0.9009  0.3890
 9926TIP3    H151269   6.749   1.547   0.048 -0.1306  0.6245  0.8160
 9926TIP3    H251270   6.602   1.572   0.025 -0.0194  1.0829  0.5789
 9927TIP3   OH251271   1.826   0.737   0.509  0.0608 -0.1291 -0.0888
 9927TIP3    H151272   1.734   0.760   0.520 -0.1153 -0.1220 -1.4534
 9927TIP3    H251273   1.826   0.659   0.454  0.8554 -0.6405  0.5987
 9928TIP3   OH251274   2.221   1.828   0.250 -0.2811  0.2447  0.0754
 9928TIP3    H151275   2.272   1.834   0.331  1.7343  0.3560 -1.1292
 9928TIP3    H251276   2.197   1.736   0.243 -1.2336  0.3899  1.2171
 9929TIP3   OH251277   2.375   5.759   3.956  0.8790  0.3456  0.0907
 9929TIP3    H151278   2.361   5.847   3.921  1.6331  0.0616 -0.9927
 9929TIP3    H251279   2.464   5.737   3.929  0.5929 -0.8551  0.0916
 9930TIP3   OH251280   2.748   4.896   4.652 -0.8341  0.3720 -0.5751
 9930TIP3    H151281   2.791   4.813   4.674  0.3212  1.5480  2.0335
 9930TIP3    H251282   2.671   4.871   4.600 -0.5740 -2.3241  0.2154
 9931TIP3   OH251283   1.118   3.641  13.815  0.2113  0.3867  0.1218
 9931TIP3    H151284   1.098   3.547  13.814  1.1480  0.1693  0.2993
 9931TIP3    H251285   1.062   3.679  13.748 -0.3409 -0.2664  0.2058
 9932TIP3   OH251286   4.055   6.764  14.246  0.3864  0.1406  0.2945
 9932TIP3    H151287   4.101   6.686  14.213  0.6158  0.1142  0.6672
 9932TIP3    H251288   4.016   6.803  14.168 -0.4767 -0.8356  0.2143
 9933TIP3   OH251289   6.298   2.200  11.470 -0.1415  0.2969  0.4944
 9933TIP3    H151290   6.275   2.219  11.379  2.2158 -2.3752 -0.8164
 9933TIP3    H251291   6.367   2.263  11.492  1.4987 -0.9790 -0.7521
 9934TIP3   OH251292   3.537   2.793  16.105  0.6363  0.2302  0.1466
 9934TIP3    H151293   3.580   2.862  16.157 -0.2230  0.9976 -0.1336
 9934TIP3    H251294   3.447   2.791  16.138  0.1299  0.5876 -1.1641
 9935TIP3   OH251295   1.517   5.964   1.567 -0.0486 -0.1046  0.5175
 9935TIP3    H151296   1.568   5.994   1.491  0.3799  1.3017  1.3172
 9935TIP3    H251297   1.524   6.036   1.630 -0.4108 -1.2275  1.8930
 9936TIP3   OH251298   3.738   1.787   1.886 -0.5649  0.6821  0.1356
 9936TIP3    H151299   3.663   1.820   1.935 -0.9460 -0.5447  0.4103
 9936TIP3    H251300   3.814   1.828   1.929 -0.9490  0.2742  1.2528
 9937TIP3   OH251301   4.382   1.239  12.147 -0.3776  0.8399  0.5032
 9937TIP3    H151302   4.296   1.204  12.129 -0.1295 -0.1432  1.1473
 9937TIP3    H251303   4.436   1.211  12.073  0.0926 -1.1932  1.5527
 9938TIP3   OH251304   3.378   5.453  12.389 -0.6187 -0.5742 -0.4418
 9938TIP3    H151305   3.354   5.381  12.447 -0.6113 -0.3269 -0.1335
 9938TIP3    H251306   3.444   5.502  12.437  0.1744 -0.9718 -1.0874
 9939TIP3   OH251307   2.817   3.397  11.776 -0.2841  0.0866 -0.4704
 9939TIP3    H151308   2.884   3.329  11.773 -0.5181 -0.1669 -0.0753
 9939TIP3    H251309   2.865   3.476  11.800 -0.0580 -0.0011 -0.6247
 9940TIP3   OH251310   2.425   4.100  13.566  0.1487 -0.1321  0.5177
 9940TIP3    H151311   2.515   4.103  13.597  0.2055 -1.1458  0.4743
 9940TIP3    H251312   2.432   4.069  13.475 -0.1050  1.6502 -0.1558
 9941TIP3   OH251313   3.545   0.291  13.916  0.0436  0.1860 -0.7189
 9941TIP3    H151314   3.557   0.233  13.992 -0.8709 -1.9198 -2.1012
 9941TIP3    H251315   3.634   0.313  13.888  0.4107 -0.7377 -0.2956
 9942TIP3   OH251316   0.580   0.444   6.194  0.3415 -0.0386 -0.0493
 9942TIP3    H151317   0.506   0.403   6.148  0.1740  0.7015 -0.4599
 9942TIP3    H251318   0.556   0.441   6.286 -0.2598  0.3009 -0.1887
 9943TIP3   OH251319   2.855   4.203  11.026 -0.1066  0.0079 -0.3318
 9943TIP3    H151320   2.767   4.185  10.994 -0.8070  0.0982  1.3848
 9943TIP3    H251321   2.857   4.162  11.113  0.7178  1.9936  0.6439
 9944TIP3   OH251322   3.623   6.751  11.349 -0.1418  0.0583 -0.6468
 9944TIP3    H151323   3.638   6.781  11.439 -0.5577  0.1896 -0.6210
 9944TIP3    H251324   3.537   6.785  11.326  0.3527  0.8449 -1.4288
 9945TIP3   OH251325   3.217   3.796  12.930  0.7571 -0.1995  0.0877
 9945TIP3    H151326   3.228   3.734  13.002  0.4446 -0.0137  0.2994
 9945TIP3    H251327   3.191   3.878  12.973 -2.5568 -0.8486 -0.3978
 9946TIP3   OH251328   6.199   1.982   2.479  0.4106  0.3578  0.1139
 9946TIP3    H151329   6.217   1.995   2.572 -0.2033  0.8965  0.1676
 9946TIP3    H251330   6.130   2.046   2.459  0.1518 -0.1298 -0.5832
 9947TIP3   OH251331   5.501   0.907  12.149  0.0321  0.1033  0.0899
 9947TIP3    H151332   5.577   0.849  12.139 -0.6670 -0.7846 -0.2826
 9947TIP3    H251333   5.517   0.979  12.089  0.5797 -0.0873  0.0038
 9948TIP3   OH251334   6.635   4.242  12.573  0.2047 -0.2427  0.0877
 9948TIP3    H151335   6.681   4.274  12.651 -1.4611  1.2736  0.5017
 9948TIP3    H251336   6.706   4.217  12.514  1.5294 -0.5545  1.7055
 9949TIP3   OH251337   6.651   4.950   1.515  0.1557 -0.4120  0.1523
 9949TIP3    H151338   6.713   4.916   1.579  0.6118 -0.5380 -0.3487
 9949TIP3    H251339   6.702   4.961   1.435 -0.2080  0.5322  0.0291
 9950TIP3   OH251340   5.566   3.503   5.323 -0.4234 -0.1500 -0.3259
 9950TIP3    H151341   5.510   3.474   5.250 -0.2102  1.2204 -1.0634
 9950TIP3    H251342   5.650   3.460   5.308 -0.8839 -1.2497  0.1073
 9951TIP3   OH251343   6.324   1.201   0.675 -0.2259 -0.2122  0.3347
 9951TIP3    H151344   6.361   1.113   0.677 -0.1951 -0.2533 -0.9370
 9951TIP3    H251345   6.360   1.240   0.595  2.1554  2.0312  2.3101
 9952TIP3   OH251346   2.400   3.956   0.988 -0.4578 -0.3999 -0.0742
 9952TIP3    H151347   2.402   4.019   1.060 -1.3607 -0.4211 -0.0205
 9952TIP3    H251348   2.327   3.898   1.008 -1.7617  0.5500 -1.7790
 9953TIP3   OH251349   3.346   6.394  11.714  0.1173 -0.1427  0.1908
 9953TIP3    H151350   3.319   6.480  11.746 -0.2489  0.8837 -2.5835
 9953TIP3    H251351   3.282   6.372  11.647 -0.5704 -3.2598  1.6609
 9954TIP3   OH251352   6.597   2.470  13.536 -0.5050 -0.1439  0.4344
 9954TIP3    H151353   6.543   2.455  13.458  0.9043 -0.2378 -0.5617
 9954TIP3    H251354   6.686   2.450  13.507  0.0305 -0.2696  2.1138
 9955TIP3   OH251355   3.536   3.101   5.652 -0.2535 -0.3713  0.2210
 9955TIP3    H151356   3.460   3.102   5.593 -0.3264 -1.5618  0.2662
 9955TIP3    H251357   3.518   3.029   5.713  1.6975 -1.8885 -0.8770
 9956TIP3   OH251358   0.983   5.348  13.746 -0.4100  0.0812  0.5532
 9956TIP3    H151359   1.049   5.390  13.691 -0.6092 -0.9769 -0.5292
 9956TIP3    H251360   1.003   5.255  13.742 -1.8652 -0.2473  0.3254
 9957TIP3   OH251361   6.709   5.789   0.387 -0.8522 -0.3373 -0.2348
 9957TIP3    H151362   6.688   5.703   0.424  0.8746 -0.6498  0.1131
 9957TIP3    H251363   6.662   5.851   0.442 -0.1694 -0.9335  1.0713
 9958TIP3   OH251364   4.444   1.593   1.652 -0.6827  0.3280  0.1968
 9958TIP3    H151365   4.486   1.646   1.584 -1.6282 -0.5871 -1.1563
 9958TIP3    H251366   4.391   1.655   1.702 -0.0443  1.0052  0.0523
 9959TIP3   OH251367   3.678   6.684   1.975  0.0127  0.0923 -0.3204
 9959TIP3    H151368   3.680   6.684   1.879 -1.9652  1.5710 -0.4192
 9959TIP3    H251369   3.593   6.648   1.998  0.2203  0.3036  0.8588
 9960TIP3   OH251370   1.344   0.947   1.320 -0.2155 -0.7099 -0.1427
 9960TIP3    H151371   1.254   0.966   1.348 -0.7761 -0.2192 -2.1643
 9960TIP3    H251372   1.388   1.031   1.321 -0.1613 -0.7341 -0.4455
 9961TIP3   OH251373   5.000   4.216  13.745 -0.1732  0.7334 -0.1525
 9961TIP3    H151374   4.943   4.150  13.783  0.8641 -0.0461  0.0891
 9961TIP3    H251375   4.987   4.206  13.650  1.9632 -1.7472 -0.3003
 9962TIP3   OH251376   2.979   2.994   5.642  0.5908  0.6163  0.4798
 9962TIP3    H151377   2.930   3.045   5.706 -1.4759 -2.1932  1.3261
 9962TIP3    H251378   3.048   2.951   5.694 -1.1766 -1.7792  1.0197
 9963TIP3   OH251379   0.582   3.762   4.133  0.4859 -0.0277  0.0073
 9963TIP3    H151380   0.646   3.708   4.087 -0.7143 -0.8659 -0.7379
 9963TIP3    H251381   0.509   3.702   4.153 -0.1654  0.9355  0.6386
 9964TIP3   OH251382   1.828   4.745  12.723 -0.1584 -0.6924  0.2818
 9964TIP3    H151383   1.734   4.760  12.712  0.0732  1.0748  0.4867
 9964TIP3    H251384   1.858   4.817  12.779  1.4247 -0.8865 -0.2661
 9965TIP3   OH251385   5.019   3.962  14.405 -0.5604 -0.0256 -0.5481
 9965TIP3    H151386   4.935   4.006  14.391  0.0635  1.7511  0.9629
 9965TIP3    H251387   4.996   3.881  14.452 -1.4101  0.7180  0.3673
 9966TIP3   OH251388   5.055   6.552  15.816 -0.2323  0.6350  0.3692
 9966TIP3    H151389   5.050   6.596  15.731 -0.7166  1.0185  0.5894
 9966TIP3    H251390   5.138   6.505  15.814 -0.4700  0.2326 -0.5068
 9967TIP3   OH251391   4.718   5.637   1.777  0.0708  0.7451 -0.4913
 9967TIP3    H151392   4.663   5.656   1.853  0.2225 -1.6363  0.3142
 9967TIP3    H251393   4.769   5.560   1.803  1.6835  1.1396 -2.2589
 9968TIP3   OH251394   5.934   5.492  14.090  0.0403 -0.3196  0.3205
 9968TIP3    H151395   5.953   5.545  14.013 -1.9151 -1.6609 -1.1929
 9968TIP3    H251396   5.921   5.404  14.055 -1.7611 -0.8116  2.0631
 9969TIP3   OH251397   0.982   1.002  13.070  0.3832 -0.0799 -0.1959
 9969TIP3    H151398   0.905   1.052  13.095 -0.3244  0.2711 -2.7597
 9969TIP3    H251399   1.025   1.056  13.003  4.8393  1.3734  3.2979
 9970TIP3   OH251400   3.971   5.806  13.619  0.2113 -0.3657  0.2522
 9970TIP3    H151401   3.891   5.754  13.612  1.0187 -1.4552 -2.3755
 9970TIP3    H251402   3.942   5.895  13.633 -1.5852 -0.5375 -1.8614
 9971TIP3   OH251403   6.071   1.109  13.294 -0.3350 -0.0907 -0.3891
 9971TIP3    H151404   6.096   1.086  13.205  1.5032 -1.3401  0.3669
 9971TIP3    H251405   6.126   1.185  13.316 -1.0229  0.4221 -0.4260
 9972TIP3   OH251406   4.459   3.974  16.940 -0.1465  0.2608  0.2175
 9972TIP3    H151407   4.549   4.007  16.944 -0.0931  0.0693  0.6112
 9972TIP3    H251408   4.467   3.880  16.956 -0.1393 -0.2519 -2.3624
 9973TIP3   OH251409   6.038   0.226   2.709  0.1881 -0.0300 -0.0773
 9973TIP3    H151410   6.091   0.249   2.633  0.6351  1.1797  0.5617
 9973TIP3    H251411   6.076   0.277   2.781  0.3255 -1.7823  1.1670
 9974TIP3   OH251412   4.658   5.890  12.835  0.4059 -0.1078 -0.3513
 9974TIP3    H151413   4.747   5.897  12.870  0.0328 -0.4504  0.7119
 9974TIP3    H251414   4.645   5.796  12.823 -0.5644 -0.2784  1.6138
 9975TIP3   OH251415   2.748   5.950  15.050  0.3356  0.6983 -0.2137
 9975TIP3    H151416   2.744   5.966  15.145  0.6171  2.6487 -0.4854
 9975TIP3    H251417   2.767   6.036  15.012  0.6478 -0.1211 -2.0249
 9976TIP3   OH251418   6.177   2.312   4.137  0.0060 -0.2039 -0.2348
 9976TIP3    H151419   6.143   2.228   4.169  0.4812 -1.1484 -2.1111
 9976TIP3    H251420   6.098   2.362   4.116 -0.2851 -0.0716  1.0779
 9977TIP3   OH251421   2.406   3.939  16.205  0.6020  0.1836  1.0894
 9977TIP3    H151422   2.345   3.915  16.135 -0.5517  1.9206  1.4428
 9977TIP3    H251423   2.380   3.885  16.279  0.5512 -0.2398  0.7666
 9978TIP3   OH251424   3.969   3.183  11.285  0.0810 -0.0115 -0.5183
 9978TIP3    H151425   4.010   3.223  11.209  2.7104 -1.0834  0.2140
 9978TIP3    H251426   3.979   3.248  11.354 -1.2485  0.4974 -0.7942
 9979TIP3   OH251427   5.980   0.131   3.196  0.4040  0.0553  0.2741
 9979TIP3    H151428   5.984   0.216   3.240 -0.3400  0.6646 -0.7672
 9979TIP3    H251429   5.908   0.085   3.240 -0.1247  0.5309 -0.0865
 9980TIP3   OH251430   2.068   4.534   2.106 -0.0170 -0.3449 -0.4134
 9980TIP3    H151431   2.030   4.610   2.062 -0.5176 -0.9292 -1.0315
 9980TIP3    H251432   1.999   4.468   2.102 -0.0996 -0.3994  1.3437
 9981TIP3   OH251433   3.762   4.854  17.087 -0.2744  0.8178 -0.5372
 9981TIP3    H151434   3.673   4.842  17.054 -0.2618 -0.2389 -0.2464
 9981TIP3    H251435   3.795   4.765  17.099  0.3819  1.1778  0.5158
 9982TIP3   OH251436   4.278   1.707   4.129 -0.1529  0.0804 -0.2965
 9982TIP3    H151437   4.323   1.623   4.122 -1.1800 -0.3864 -1.6297
 9982TIP3    H251438   4.348   1.772   4.125  0.6823 -0.6839  1.0375
 9983TIP3   OH251439   2.349   6.140   3.479  0.3477 -0.3621 -0.0395
 9983TIP3    H151440   2.261   6.135   3.516  0.6378 -1.6503  0.5172
 9983TIP3    H251441   2.356   6.063   3.422 -0.2779  1.8145 -3.3263
 9984TIP3   OH251442   0.562   4.027  15.079  0.1163 -0.5033  0.0023
 9984TIP3    H151443   0.590   3.949  15.127  1.2129  0.1690  0.4723
 9984TIP3    H251444   0.606   4.020  14.995 -1.6858 -1.6014 -0.9228
 9985TIP3   OH251445   1.171   6.713  16.827  0.0982  0.7705 -0.2664
 9985TIP3    H151446   1.203   6.795  16.865 -0.2862  0.1892  1.4000
 9985TIP3    H251447   1.229   6.645  16.862 -0.7510  0.1253 -0.0680
 9986TIP3   OH251448   5.850   0.083   2.574  0.2369 -0.3248  0.1031
 9986TIP3    H151449   5.814   0.171   2.572 -0.7049 -0.7107 -1.9289
 9986TIP3    H251450   5.936   0.093   2.614  0.9150  1.8091 -1.7346
 9987TIP3   OH251451   2.987   3.476   5.301 -0.0755 -0.0329  0.0452
 9987TIP3    H151452   3.006   3.533   5.227  2.9645  1.0803  1.5225
 9987TIP3    H251453   3.065   3.422   5.311 -1.5857 -2.2714  0.6891
 9988TIP3   OH251454   0.437   3.238  11.438 -0.2115 -0.0226  0.1462
 9988TIP3    H151455   0.487   3.283  11.370  0.8531  0.1675  1.0167
 9988TIP3    H251456   0.351   3.223  11.400 -0.0588  1.2757 -0.7488
 9989TIP3   OH251457   3.938   4.797   4.132  0.2510 -0.4046  0.3813
 9989TIP3    H151458   4.024   4.812   4.170 -0.6183  0.9072  2.0042
 9989TIP3    H251459   3.932   4.702   4.121  1.6102 -0.5782  0.9454
 9990TIP3   OH251460   4.397   3.979   1.176 -0.0091  0.0149  0.3545
 9990TIP3    H151461   4.439   4.010   1.257 -0.2734 -1.6779  1.1909
 9990TIP3    H251462   4.344   4.053   1.147 -0.2093  0.5401  1.9569
 9991TIP3   OH251463   5.315   5.667   1.885 -0.2848 -0.1639 -0.1748
 9991TIP3    H151464   5.298   5.724   1.810  0.3740  0.1753 -0.0742
 9991TIP3    H251465   5.401   5.695   1.918  0.1910 -1.3869 -0.2848
 9992TIP3   OH251466   4.579   0.116   2.638 -0.0785 -0.0306 -0.2128
 9992TIP3    H151467   4.627   0.165   2.706  0.2509  0.2729 -0.6541
 9992TIP3    H251468   4.488   0.116   2.668  0.0883 -0.0412  0.3082
 9993TIP3   OH251469   5.263   4.846  11.069  0.2374  0.2630 -0.2197
 9993TIP3    H151470   5.315   4.824  10.992  0.1006  0.3039 -0.3249
 9993TIP3    H251471   5.173   4.851  11.037 -0.4559 -3.5207  0.5972
 9994TIP3   OH251472   0.691   3.785   2.380  0.2152 -0.3305  0.0109
 9994TIP3    H151473   0.641   3.856   2.421  1.6537  1.5829 -1.3251
 9994TIP3    H251474   0.677   3.797   2.286  2.2437 -0.3637 -0.3499
 9995TIP3   OH251475   1.660   0.025  10.591 -0.1644  0.3088 -0.5661
 9995TIP3    H151476   1.735   0.074  10.626  0.0347  0.7193 -1.5441
 9995TIP3    H251477   1.660  -0.056  10.642 -1.6697  2.0126  2.4755
 9996TIP3   OH251478   2.068   2.877  11.818  0.1184  0.1044  0.5508
 9996TIP3    H151479   1.984   2.833  11.808  0.3717 -0.2990  0.1976
 9996TIP3    H251480   2.070   2.941  11.746  0.9312 -1.2024 -0.6446
 9997TIP3   OH251481   4.207   4.615  12.854  0.0709  0.0093 -0.2846
 9997TIP3    H151482   4.266   4.541  12.843  0.5842  0.1208  1.4921
 9997TIP3    H251483   4.145   4.587  12.921  1.3208  1.7212  1.7248
 9998TIP3   OH251484   1.612   3.052   2.887 -0.4254  0.1526  0.5491
 9998TIP3    H151485   1.576   3.094   2.809  0.5303  0.1485  0.0954
 9998TIP3    H251486   1.536   3.036   2.943 -0.8691  2.3241  0.6715
 9999TIP3   OH251487   1.610   0.905  13.315 -0.4032 -0.4398 -0.1492
 9999TIP3    H151488   1.656   0.830  13.352 -0.0876 -0.3708 -0.4000
 9999TIP3    H251489   1.543   0.927  13.380  0.0328 -0.4229  0.2948
10000TIP3   OH251490   0.328   2.900   4.650  0.7735 -0.6471 -0.0435
10000TIP3    H151491   0.410   2.931   4.689 -0.4341  3.7299 -0.4139
10000TIP3    H251492   0.260   2.925   4.713 -0.4840 -1.7505 -0.9070
10001TIP3   OH251493   2.911   6.126  12.992  0.0294 -0.2103  0.7192
10001TIP3    H151494   2.819   6.142  13.013 -0.1905 -0.5658  0.0480
10001TIP3    H251495   2.909   6.086  12.905  0.9299  1.4454 -0.1189
10002TIP3   OH251496   6.050   4.689   3.368 -0.3024 -0.5762 -0.0176
10002TIP3    H151497   5.973   4.633   3.356 -1.4107  1.2197 -1.8928
10002TIP3    H251498   6.088   4.697   3.280  0.3501  0.8705  0.3633
10003TIP3   OH251499   0.498   0.478   1.050  0.7126 -0.2043 -0.1259
10003TIP3    H151500   0.547   0.399   1.071 -0.2756 -0.2094  2.5243
10003TIP3    H251501   0.411   0.464   1.089 -0.0292  1.4933 -1.0491
10004TIP3   OH251502   2.831   5.320  15.008 -0.2711  0.3579  0.0868
10004TIP3    H151503   2.754   5.349  14.959 -0.5918 -1.3480 -0.4776
10004TIP3    H251504   2.872   5.254  14.952 -0.3199 -1.2406  1.8417
10005TIP3   OH251505   4.715   0.084  13.051 -0.0692  0.1123  0.8699
10005TIP3    H151506   4.669   0.107  13.131 -0.6074  0.1142  0.5625
10005TIP3    H251507   4.682  -0.003  13.028  0.6336 -0.2113  1.0510
10006TIP3   OH251508   4.223   2.795   1.396  0.1309  0.3459 -0.5912
10006TIP3    H151509   4.201   2.740   1.471  0.0303 -1.3471 -1.8141
10006TIP3    H251510   4.317   2.807   1.401  0.5585 -2.0818 -1.6553
10007TIP3   OH251511   1.386   3.758   1.969  0.1606 -0.5935  0.2000
10007TIP3    H151512   1.458   3.815   1.995 -0.5974 -0.2793  1.7230
10007TIP3    H251513   1.308   3.814   1.975 -0.4998 -1.5600  0.9045
10008TIP3   OH251514   6.630   4.234   4.354  0.7164 -0.2327 -0.4025
10008TIP3    H151515   6.620   4.247   4.260  0.1021  1.3107 -0.1623
10008TIP3    H251516   6.708   4.180   4.363  1.4120  0.4968 -1.7597
10009TIP3   OH251517   3.266   3.916  10.967 -0.3829 -0.1920  0.2141
10009TIP3    H151518   3.269   3.861  10.888 -1.4358  2.7400 -2.0725
10009TIP3    H251519   3.355   3.949  10.977 -0.5473  0.5837 -0.7116
10010TIP3   OH251520   2.583   2.018   3.660  0.2077  0.2110  0.4699
10010TIP3    H151521   2.569   1.923   3.658 -0.7074  0.3277 -1.2788
10010TIP3    H251522   2.671   2.030   3.624 -0.8184  0.1054 -2.3321
10011TIP3   OH251523   4.143   0.867   0.326  0.5216  0.0865 -0.4979
10011TIP3    H151524   4.130   0.779   0.362 -0.6167  0.7781  0.9152
10011TIP3    H251525   4.234   0.888   0.348  0.4463 -0.2896  0.2445
10012TIP3   OH251526   0.548   5.492   1.467 -0.3502  0.5077  0.6887
10012TIP3    H151527   0.477   5.523   1.524  0.1266  0.6825  1.2014
10012TIP3    H251528   0.515   5.506   1.378 -1.9295 -1.6226  0.8512
10013TIP3   OH251529   0.703   6.286   5.412 -0.3930  0.1809 -0.1517
10013TIP3    H151530   0.660   6.354   5.359 -2.0214 -0.2578  0.5415
10013TIP3    H251531   0.639   6.266   5.481  1.5561  0.5984  1.9068
10014TIP3   OH251532   1.433   3.531  15.357 -0.5542  0.3235  0.3123
10014TIP3    H151533   1.440   3.617  15.314  1.7313 -2.0993 -5.1105
10014TIP3    H251534   1.501   3.533  15.424  1.5163  1.9683 -1.6543
10015TIP3   OH251535   4.498   1.820   1.265  0.3578  0.1843  0.7447
10015TIP3    H151536   4.579   1.829   1.317  0.8197  0.0651  0.0643
10015TIP3    H251537   4.428   1.834   1.328  0.9166  0.8656  1.2476
10016TIP3   OH251538   3.692   6.638   1.544  0.2206 -0.2680  0.7837
10016TIP3    H151539   3.622   6.692   1.581  0.5743 -1.1795  2.9685
10016TIP3    H251540   3.697   6.665   1.452 -2.3071  0.5084  0.7901
10017TIP3   OH251541   4.370   6.579   1.362  0.0178 -0.1691  0.1541
10017TIP3    H151542   4.393   6.577   1.455 -0.3714 -0.3095  0.2493
10017TIP3    H251543   4.352   6.672   1.345  0.7381 -0.0441  0.0541
10018TIP3   OH251544   0.567   1.758   2.382  0.2274  0.2282 -0.1183
10018TIP3    H151545   0.516   1.690   2.340 -1.0281  0.9672  0.1571
10018TIP3    H251546   0.625   1.792   2.313  1.3951 -1.5551 -0.0761
10019TIP3   OH251547   1.920   5.943   4.253  0.9772 -0.2591 -0.0761
10019TIP3    H151548   1.825   5.954   4.256  0.7613 -1.6473 -0.8433
10019TIP3    H251549   1.937   5.897   4.171  2.6269  2.4784 -1.4018
10020TIP3   OH251550   0.264   5.536   1.436  0.2476  0.2175 -0.8513
10020TIP3    H151551   0.233   5.457   1.391 -0.3184  1.1063 -2.0768
10020TIP3    H251552   0.186   5.591   1.444  0.3658  0.1378  1.1533
10021TIP3   OH251553   6.483   6.169   5.436  0.2807  0.2595  0.7539
10021TIP3    H151554   6.535   6.222   5.376  0.2169  0.7664  1.1408
10021TIP3    H251555   6.546   6.106   5.472  0.1633 -0.5265 -0.3846
10022TIP3   OH251556   2.128   6.353   2.396 -0.0140  0.3200 -0.4708
10022TIP3    H151557   2.036   6.327   2.386 -0.0337 -0.5440  1.5573
10022TIP3    H251558   2.163   6.292   2.461  1.2250  2.4726  0.9799
10023TIP3   OH251559   6.711   1.900  13.152  0.2524  0.3219  0.5543
10023TIP3    H151560   6.652   1.825  13.159  0.8472 -0.5219 -2.3694
10023TIP3    H251561   6.794   1.868  13.189 -0.4342  0.8037  2.6524
10024TIP3   OH251562   1.613   3.343  13.406  0.5130  0.2366  0.0464
10024TIP3    H151563   1.550   3.414  13.417  1.4418  0.9617  0.9622
10024TIP3    H251564   1.680   3.379  13.347  0.5515 -0.1805 -0.1640
10025TIP3   OH251565   3.041   2.589  15.345  0.6762  0.4784 -0.0163
10025TIP3    H151566   3.010   2.554  15.428  1.1872  1.4292  0.5862
10025TIP3    H251567   3.087   2.670  15.368  0.0390  1.2446 -1.3060
10026TIP3   OH251568   3.021   2.196  16.749 -0.2341  0.0429  0.4210
10026TIP3    H151569   3.061   2.195  16.836  2.6849  0.2047 -0.7925
10026TIP3    H251570   3.075   2.135  16.697 -0.1128  1.9795 -1.9176
10027TIP3   OH251571   5.214   3.534  17.016  0.4624  0.1428 -0.0672
10027TIP3    H151572   5.191   3.478  16.942 -0.4876 -1.5023  1.4089
10027TIP3    H251573   5.303   3.562  16.997 -0.1478  0.8015 -2.4130
10028TIP3   OH251574   6.184   3.804  15.676  0.0955  0.0195  0.3843
10028TIP3    H151575   6.091   3.786  15.661 -0.2976  0.5230  2.0460
10028TIP3    H251576   6.200   3.888  15.633 -0.6957  0.8354  1.6274
10029TIP3   OH251577   3.594   1.358   0.430  0.5270  0.0721  0.2371
10029TIP3    H151578   3.517   1.384   0.480  0.2773  0.4481 -0.3387
10029TIP3    H251579   3.593   1.413   0.352  0.9843 -0.4129 -0.1262
10030TIP3   OH251580   1.473   4.938  14.395  0.8234 -0.2876 -0.3565
10030TIP3    H151581   1.435   4.872  14.452  1.7043 -0.0057  0.5696
10030TIP3    H251582   1.510   5.004  14.454 -1.5965  2.0091 -1.1848
10031TIP3   OH251583   3.093   4.054  10.573  0.2434  0.5424  0.0981
10031TIP3    H151584   3.184   4.037  10.551 -0.6492 -2.9287 -1.5363
10031TIP3    H251585   3.044   4.031  10.494 -2.1234  2.3955  0.8696
10032TIP3   OH251586   3.842   4.594  16.573 -0.1163  0.2311 -0.5193
10032TIP3    H151587   3.881   4.677  16.601  2.5472 -1.6502  1.8691
10032TIP3    H251588   3.787   4.567  16.647 -0.1433 -0.6134 -0.8382
10033TIP3   OH251589   4.764   4.072   3.890  0.1219  0.2237 -0.4588
10033TIP3    H151590   4.716   4.051   3.809 -1.7610 -0.7409  0.8374
10033TIP3    H251591   4.729   4.157   3.917 -0.9576 -0.5087  0.5230
10034TIP3   OH251592   1.717   5.147  16.139  0.4779 -0.3107 -0.1640
10034TIP3    H151593   1.691   5.062  16.105  1.3144 -0.7490  0.2659
10034TIP3    H251594   1.786   5.178  16.080  0.7071 -0.2782  0.1174
10035TIP3   OH251595   2.410   0.715   6.077  0.0314 -0.2743  0.4982
10035TIP3    H151596   2.414   0.619   6.075  0.2340 -0.2699  0.6965
10035TIP3    H251597   2.390   0.736   6.168 -0.0916 -0.1300  0.4380
10036TIP3   OH251598   5.526   4.368   5.735  0.0330  0.1962  0.2817
10036TIP3    H151599   5.568   4.452   5.749 -1.1544  0.6954  0.9202
10036TIP3    H251600   5.536   4.352   5.641  0.7478  0.7734  0.2518
10037TIP3   OH251601   1.452   6.759  15.177  0.0265 -0.3854  0.0991
10037TIP3    H151602   1.485   6.769  15.088  0.4109 -1.0336  0.1654
10037TIP3    H251603   1.393   6.834  15.189 -0.4371 -0.5833 -0.8799
10038TIP3   OH251604   6.186   5.269   4.373 -0.3360  0.0925 -0.1718
10038TIP3    H151605   6.150   5.353   4.403 -0.3140  0.3911 -0.9736
10038TIP3    H251606   6.176   5.271   4.278 -1.3261 -1.2917 -0.1178
10039TIP3   OH251607   4.530   1.864   4.145  0.5360  0.1190 -0.0047
10039TIP3    H151608   4.539   1.891   4.237  1.3637 -0.6533  0.1522
10039TIP3    H251609   4.619   1.867   4.110  0.0690  1.6143 -1.1552
10040TIP3   OH251610   2.972   4.847  14.409 -0.2584 -0.0159 -0.9774
10040TIP3    H151611   2.914   4.776  14.436 -1.4664  0.1196 -2.9709
10040TIP3    H251612   3.047   4.803  14.369  0.1295 -0.1681 -0.1069
10041TIP3   OH251613   2.832   2.112   2.919 -0.2692 -0.9427  0.0832
10041TIP3    H151614   2.846   2.182   2.854 -1.6528  0.9476  1.6991
10041TIP3    H251615   2.920   2.090   2.949  0.1635  0.8185  0.2140
10042TIP3   OH251616   4.137   4.841  15.530  0.5193  0.4101  0.5714
10042TIP3    H151617   4.210   4.796  15.573  0.1980 -0.2824  0.4023
10042TIP3    H251618   4.136   4.928  15.570 -0.0901 -0.3752  2.3439
10043TIP3   OH251619   4.301   5.916  11.193 -0.1592  0.2824  0.0017
10043TIP3    H151620   4.338   6.003  11.209  1.0212 -0.2200  0.1168
10043TIP3    H251621   4.277   5.918  11.101  1.3448  0.2227 -0.4188
10044TIP3   OH251622   6.196   5.322   2.135 -0.2843  1.0276  0.1843
10044TIP3    H151623   6.136   5.337   2.063 -0.8913 -0.9141  0.2426
10044TIP3    H251624   6.155   5.253   2.187  2.1811 -0.7562 -0.0544
10045TIP3   OH251625   1.033   1.551  13.962  0.8272  0.2707  0.1925
10045TIP3    H151626   0.987   1.483  13.912  2.1538 -0.6712  0.1983
10045TIP3    H251627   0.981   1.630  13.948  0.0291 -0.4275 -0.9919
10046TIP3   OH251628   1.676   3.814  16.263  0.1383 -0.4688 -0.1725
10046TIP3    H151629   1.692   3.867  16.341 -0.0787  0.0585 -0.4847
10046TIP3    H251630   1.691   3.873  16.190 -1.8811 -0.3012 -0.5156
10047TIP3   OH251631   2.715   4.935  11.741  0.2312  0.0014  0.3252
10047TIP3    H151632   2.777   4.912  11.672 -0.4036 -0.8172  0.0074
10047TIP3    H251633   2.648   4.867  11.736 -0.7041  0.8748  0.6428
10048TIP3   OH251634   6.121   0.214   5.598  0.3880  0.2440  0.4989
10048TIP3    H151635   6.070   0.151   5.649 -2.1860  0.8884 -1.0574
10048TIP3    H251636   6.055   0.259   5.544  2.2964  3.0873  0.3146
10049TIP3   OH251637   1.576   0.509  10.740  0.3733 -0.2805  0.0187
10049TIP3    H151638   1.519   0.583  10.761 -0.2865 -1.1052  1.2477
10049TIP3    H251639   1.521   0.452  10.685  1.3526  0.7876 -2.1834
10050TIP3   OH251640   1.790   6.393  11.978  0.4504 -0.3177  0.0335
10050TIP3    H151641   1.763   6.335  12.049  2.9498 -1.4527  0.1411
10050TIP3    H251642   1.759   6.479  12.004  0.6359 -0.8425  2.1280
10051TIP3   OH251643   6.311   0.183   2.226  0.0747  0.0039 -0.2580
10051TIP3    H151644   6.396   0.186   2.270 -0.6936 -0.0400  1.3158
10051TIP3    H251645   6.295   0.090   2.212  0.0048 -0.0300  0.0374
10052TIP3   OH251646   5.965   4.197  15.230  0.2092 -0.6572 -0.4042
10052TIP3    H151647   6.000   4.284  15.247 -0.3992 -0.4730 -0.0728
10052TIP3    H251648   5.921   4.204  15.145 -2.3274  0.1534  0.8788
10053TIP3   OH251649   0.578   2.121   1.660 -0.0851 -0.0962  0.1110
10053TIP3    H151650   0.586   2.035   1.702 -2.3080 -0.0737  0.7502
10053TIP3    H251651   0.625   2.180   1.719 -3.1549 -0.0583  2.8340
10054TIP3   OH251652   1.313   0.482  16.270  0.0185  0.3759 -0.0435
10054TIP3    H151653   1.246   0.486  16.337 -0.7850 -0.2604 -0.7776
10054TIP3    H251654   1.265   0.488  16.187  0.7482 -1.0338 -0.6119
10055TIP3   OH251655   4.707   3.427   5.351  0.2938 -0.1255 -0.0711
10055TIP3    H151656   4.777   3.490   5.371  0.8207 -0.2838 -1.3413
10055TIP3    H251657   4.750   3.341   5.358 -0.0785 -0.2864  0.2865
10056TIP3   OH251658   5.697   4.897   6.693 -0.2700  0.0333 -0.6193
10056TIP3    H151659   5.671   4.919   6.604 -0.8776  1.3320 -0.1597
10056TIP3    H251660   5.779   4.850   6.684  0.5548  1.6277 -1.7941
10057TIP3   OH251661   1.295   2.158   4.844  0.1184 -0.5549 -0.6872
10057TIP3    H151662   1.213   2.127   4.884 -0.4384 -0.0513 -1.4035
10057TIP3    H251663   1.364   2.117   4.895 -0.5359  0.7614  1.3639
10058TIP3   OH251664   6.616   2.307  15.940 -0.6152 -0.2747 -0.1385
10058TIP3    H151665   6.696   2.307  15.993 -1.2814 -2.5932  0.9930
10058TIP3    H251666   6.646   2.296  15.850  0.3324 -2.5845  0.4094
10059TIP3   OH251667   6.654   0.137   0.360 -0.3413 -0.2406 -0.3976
10059TIP3    H151668   6.707   0.176   0.289  1.5832  0.7742  1.4779
10059TIP3    H251669   6.693   0.051   0.373 -0.4157 -0.2580 -0.2971
10060TIP3   OH251670   5.067   1.436   0.152 -0.1009  0.5052 -1.0471
10060TIP3    H151671   5.092   1.527   0.166 -0.6491  0.7385 -1.5371
10060TIP3    H251672   4.992   1.422   0.210 -0.2530  0.4815 -1.2460
10061TIP3   OH251673   6.805   0.702   4.154  0.0894  0.1568 -0.3145
10061TIP3    H151674   6.772   0.791   4.148 -1.7188 -0.4940 -0.8586
10061TIP3    H251675   6.781   0.674   4.243  0.7551  0.2326 -0.1042
10062TIP3   OH251676   4.710   4.048  15.803  0.2473  0.4280 -0.3460
10062TIP3    H151677   4.639   3.994  15.839  2.4128 -0.1902  3.5208
10062TIP3    H251678   4.667   4.104  15.739 -3.5266 -0.5931  1.0290
10063TIP3   OH251679   4.408   4.878   0.544  0.0071  0.3168 -0.6584
10063TIP3    H151680   4.489   4.860   0.591  0.2243 -1.7699 -1.7155
10063TIP3    H251681   4.360   4.938   0.601  1.8099  0.7586  0.4792
10064TIP3   OH251682   4.608   0.938   5.524 -0.1290 -0.6577 -0.0161
10064TIP3    H151683   4.648   0.852   5.535 -1.1009 -1.0202  0.8871
10064TIP3    H251684   4.548   0.928   5.450 -2.6725 -1.7604  2.0246
10065TIP3   OH251685   1.232   3.023   5.605  0.0035  0.4604 -0.2795
10065TIP3    H151686   1.199   3.055   5.521 -1.8991 -0.0064  0.2393
10065TIP3    H251687   1.233   3.100   5.661  0.4040  0.5980 -0.4739
10066TIP3   OH251688   3.191   0.640  13.424  0.4037  0.2025 -0.1238
10066TIP3    H151689   3.164   0.711  13.366  2.3674  0.2075 -1.1106
10066TIP3    H251690   3.199   0.564  13.367  1.6164  0.0222  0.2692
10067TIP3   OH251691   3.190   4.661  16.474  0.0043  0.0003 -0.3381
10067TIP3    H151692   3.270   4.709  16.453 -0.1241 -0.3685 -1.8402
10067TIP3    H251693   3.149   4.645  16.388 -0.3482 -2.1086  0.1785
10068TIP3   OH251694   5.570   0.698  13.662 -0.1154 -0.8296 -0.2584
10068TIP3    H151695   5.545   0.724  13.751  2.8544  2.1347 -0.0746
10068TIP3    H251696   5.642   0.636  13.674  0.0782 -0.6712 -0.5833
10069TIP3   OH251697   6.607   1.502   3.715  0.0697  0.0692  0.2424
10069TIP3    H151698   6.560   1.480   3.796 -1.3614 -1.3755 -0.9131
10069TIP3    H251699   6.540   1.535   3.656  0.8163 -0.2934 -0.8492
10070TIP3   OH251700   4.061   0.384   2.432  0.1600 -0.0650 -0.4300
10070TIP3    H151701   4.025   0.340   2.509  0.9384  1.6374  0.9658
10070TIP3    H251702   4.079   0.473   2.461 -3.0562  1.9104 -3.5573
10071TIP3   OH251703   1.652   3.621   2.181  0.0634  0.1317 -0.1529
10071TIP3    H151704   1.709   3.565   2.233 -0.4277 -2.1734 -1.9743
10071TIP3    H251705   1.614   3.564   2.115 -4.0186  1.5900  0.6139
10072TIP3   OH251706   3.374   3.139  16.896  0.2059 -0.3149 -0.7382
10072TIP3    H151707   3.441   3.207  16.906 -0.2698  0.3275 -1.8393
10072TIP3    H251708   3.424   3.059  16.881  0.7425  0.1761 -1.6428
10073TIP3   OH251709   1.203   6.536   0.721 -0.1783 -0.4741 -0.0125
10073TIP3    H151710   1.247   6.454   0.743 -0.7673 -0.1185  3.0094
10073TIP3    H251711   1.110   6.519   0.735 -0.2495  0.8538  1.5313
10074TIP3   OH251712   6.026   5.964   4.255  0.3307  0.0813  0.6466
10074TIP3    H151713   6.020   5.983   4.161  0.2503  0.0782  0.6507
10074TIP3    H251714   6.119   5.953   4.272  0.2871 -0.6725  0.4183
10075TIP3   OH251715   6.156   4.882  16.890 -0.1728 -0.3819 -0.2044
10075TIP3    H151716   6.129   4.826  16.818  1.8491 -1.5263 -0.1357
10075TIP3    H251717   6.127   4.836  16.969 -3.2302  1.3094 -0.1443
10076TIP3   OH251718   0.811   2.067   5.068  0.3700 -0.2196 -0.0752
10076TIP3    H151719   0.727   2.105   5.094  0.2684 -0.8114  0.5227
10076TIP3    H251720   0.788   2.000   5.004  0.5099  0.4594 -0.8390
10077TIP3   OH251721   1.791   3.427  12.189  0.2408 -0.2606  0.0181
10077TIP3    H151722   1.821   3.486  12.120 -0.7493 -1.6775 -1.7086
10077TIP3    H251723   1.696   3.439  12.191  0.1443 -1.0041  0.3798
10078TIP3   OH251724   4.528   4.420  13.937 -0.7043  0.3039 -0.2046
10078TIP3    H151725   4.508   4.492  13.997  0.0604  0.2485  0.1362
10078TIP3    H251726   4.621   4.431  13.917 -1.4164  1.7159 -3.2805
10079TIP3   OH251727   4.532   0.822   4.765 -0.4216  0.0593  0.2808
10079TIP3    H151728   4.555   0.836   4.674  0.6513 -0.6231  0.4296
10079TIP3    H251729   4.472   0.894   4.786  1.4758  1.8836 -0.1743
10080TIP3   OH251730   1.539   0.559  11.645 -0.6069  0.0361 -0.1789
10080TIP3    H151731   1.509   0.648  11.662 -1.3572  0.0560 -1.5181
10080TIP3    H251732   1.551   0.555  11.550  0.3145 -1.0197 -0.0456
10081TIP3   OH251733   4.885   3.258   1.243 -0.0738 -0.6025 -0.0305
10081TIP3    H151734   4.933   3.330   1.285 -0.5026 -0.8227  0.8649
10081TIP3    H251735   4.832   3.220   1.314 -0.7557 -1.0417 -0.7594
10082TIP3   OH251736   3.596   4.519   0.648 -0.2312  0.4559  0.0404
10082TIP3    H151737   3.605   4.434   0.691 -2.6522  0.7353  1.3084
10082TIP3    H251738   3.615   4.502   0.556 -2.7143 -1.9972 -0.1487
10083TIP3   OH251739   3.056   5.471   1.261  0.6397 -0.0785  0.5617
10083TIP3    H151740   3.121   5.406   1.235  0.3450 -0.9767  1.9578
10083TIP3    H251741   3.007   5.488   1.181  0.9772 -1.2808  0.0646
10084TIP3   OH251742   5.736   3.100  11.238  0.1266 -0.4339 -0.6912
10084TIP3    H151743   5.777   3.165  11.295  1.2811 -1.7162 -0.0057
10084TIP3    H251744   5.804   3.078  11.174 -0.3620 -0.7330 -1.1166
10085TIP3   OH251745   3.692   4.635  11.864 -0.2484  0.2697  0.4399
10085TIP3    H151746   3.633   4.686  11.809 -0.1269  0.8628  0.8566
10085TIP3    H251747   3.770   4.622  11.809 -1.0231 -1.1533 -0.3911
10086TIP3   OH251748   0.835   1.872   2.569 -0.6752 -0.3558 -0.5975
10086TIP3    H151749   0.774   1.807   2.605 -0.4358 -0.4388 -0.3435
10086TIP3    H251750   0.809   1.954   2.610  0.3837 -0.6537  0.7391
10087TIP3   OH251751   2.917   4.099   0.686 -0.6886 -0.5584 -0.0849
10087TIP3    H151752   2.895   4.192   0.689 -1.4137 -0.7369  0.3295
10087TIP3    H251753   2.866   4.060   0.757  0.7833 -1.0306  0.7660
10088TIP3   OH251754   5.279   2.707   0.003  0.2775 -0.2914 -0.1405
10088TIP3    H151755   5.334   2.759  -0.055 -2.0690  0.8237 -1.4907
10088TIP3    H251756   5.287   2.750   0.088 -0.8056  1.7132 -0.9998
10089TIP3   OH251757   5.687   2.486  10.670 -0.5874  0.5087  0.7728
10089TIP3    H151758   5.686   2.443  10.584  0.3878  1.0192  0.4982
10089TIP3    H251759   5.736   2.566  10.656 -1.6153  1.2859  1.4950
10090TIP3   OH251760   6.696   6.586   3.036 -0.1513  0.0661 -0.0199
10090TIP3    H151761   6.618   6.640   3.022  0.7173  1.5130  0.4896
10090TIP3    H251762   6.740   6.586   2.951  0.4799  1.2604  0.2733
10091TIP3   OH251763   2.080   2.648   1.690  0.6543 -0.4869 -0.0288
10091TIP3    H151764   1.993   2.641   1.651  0.4955  1.1871 -0.0622
10091TIP3    H251765   2.125   2.714   1.637  1.7058 -0.8348  0.4082
10092TIP3   OH251766   5.219   5.624   5.472 -0.3671 -0.0896 -0.3588
10092TIP3    H151767   5.128   5.613   5.502 -0.8090  1.9331 -0.7947
10092TIP3    H251768   5.253   5.696   5.526  0.9499 -0.7209 -0.3082
10093TIP3   OH251769   3.219   6.824   5.583 -0.0527  0.5407 -1.2134
10093TIP3    H151770   3.248   6.896   5.527  1.2602  1.2959  0.3512
10093TIP3    H251771   3.256   6.844   5.669  0.3648 -2.0411 -0.7201
10094TIP3   OH251772   0.773   2.607   0.690  0.1701 -0.2338 -0.1784
10094TIP3    H151773   0.786   2.517   0.720 -0.2836 -0.1327  0.3258
10094TIP3    H251774   0.861   2.638   0.668  0.6091 -0.1231  1.5867
10095TIP3   OH251775   3.222   3.204  12.393  0.4009  0.2708  0.3613
10095TIP3    H151776   3.186   3.292  12.401 -0.7842 -0.1970  0.3586
10095TIP3    H251777   3.299   3.215  12.337  0.1857  1.2796  0.2461
10096TIP3   OH251778   4.651   4.574  16.833 -0.2919  0.0036 -0.4618
10096TIP3    H151779   4.598   4.522  16.774  0.4522 -1.9933  0.5277
10096TIP3    H251780   4.619   4.663  16.823 -0.7870 -0.4069 -3.1497
10097TIP3   OH251781   0.033   6.419  13.824  0.6837  1.0286 -0.1453
10097TIP3    H151782   0.104   6.464  13.779 -0.9697  2.6288 -1.2901
10097TIP3    H251783  -0.042   6.427  13.765  0.1867 -3.2703 -0.4577
10098TIP3   OH251784   5.420   2.787  15.329 -0.3397  0.6443  0.6057
10098TIP3    H151785   5.387   2.877  15.324  2.4277  1.7064 -0.4648
10098TIP3    H251786   5.437   2.763  15.238  1.5033  0.0989  1.0569
10099TIP3   OH251787   2.779   5.773  16.894 -1.2849  0.3958 -0.1028
10099TIP3    H151788   2.757   5.700  16.952  1.1165 -0.5841 -0.2960
10099TIP3    H251789   2.800   5.845  16.954 -2.0915  0.4434  0.1315
10100TIP3   OH251790   6.364   0.796   5.803 -0.2752 -0.1377  0.1151
10100TIP3    H151791   6.362   0.883   5.842  0.9759 -0.0028 -0.0833
10100TIP3    H251792   6.305   0.802   5.728 -0.8306  0.2980  0.5823
10101TIP3   OH251793   2.902   0.023   1.962 -0.6573  0.5789 -0.1596
10101TIP3    H151794   2.816   0.064   1.973 -0.5279  1.0800 -0.9446
10101TIP3    H251795   2.925   0.040   1.871  0.0431 -0.0142 -0.0980
10102TIP3   OH251796   0.205   0.431   3.946  0.4117 -0.1697  0.0271
10102TIP3    H151797   0.111   0.447   3.936  0.9404  2.1380 -2.3974
10102TIP3    H251798   0.235   0.501   4.004  0.8104 -0.1989 -0.1410
10103TIP3   OH251799   4.571   2.648   0.872  0.1534  0.5673 -0.0321
10103TIP3    H151800   4.488   2.653   0.919  0.7953  2.0378  1.0359
10103TIP3    H251801   4.551   2.680   0.784 -0.5534  0.1866 -0.0112
10104TIP3   OH251802   5.843   4.517   0.710 -0.2946  0.0509  0.0493
10104TIP3    H151803   5.901   4.580   0.753  2.7150 -1.9806 -0.7123
10104TIP3    H251804   5.778   4.494   0.777  0.5380  1.4668  1.4118
10105TIP3   OH251805   2.273   2.839   1.975  0.1445  0.0099  0.6013
10105TIP3    H151806   2.322   2.758   1.961  0.2863 -0.0470  1.3851
10105TIP3    H251807   2.289   2.861   2.067  1.4029  1.7624  0.0279
10106TIP3   OH251808   1.869   5.269   1.629  0.1181 -0.1336  0.5256
10106TIP3    H151809   1.868   5.310   1.542  1.5688 -1.0196  0.0456
10106TIP3    H251810   1.822   5.186   1.617 -0.1978  0.0177  0.7302
10107TIP3   OH251811   4.815   2.471  10.308 -0.2369  0.2986 -0.2950
10107TIP3    H151812   4.904   2.444  10.328  0.2736  0.9458 -1.5898
10107TIP3    H251813   4.764   2.390  10.312  0.1071  0.1129  1.7811
10108TIP3   OH251814   0.128   1.883   0.553 -0.0061 -0.0871 -0.5296
10108TIP3    H151815   0.033   1.887   0.554 -0.1600 -2.4815  1.0239
10108TIP3    H251816   0.151   1.896   0.461 -1.8637 -0.1691 -1.0512
10109TIP3   OH251817   0.489   1.432   3.676  0.4219 -0.2437  0.6352
10109TIP3    H151818   0.566   1.486   3.659  0.3948 -0.1636  0.7651
10109TIP3    H251819   0.516   1.343   3.652 -0.2642  0.1560 -1.8609
10110TIP3   OH251820   5.028   4.393  16.478 -0.4256  0.2780 -0.4372
10110TIP3    H151821   5.034   4.307  16.520 -2.3402  0.3343  0.0486
10110TIP3    H251822   4.935   4.415  16.481  0.0489  2.5384 -0.2381
10111TIP3   OH251823   4.644   0.140  13.360  0.0287  0.0269 -0.6434
10111TIP3    H151824   4.643   0.234  13.341  0.4630  0.0024 -0.7914
10111TIP3    H251825   4.698   0.132  13.438  0.3626 -0.1468 -0.8887
10112TIP3   OH251826   5.996   5.092   4.762  0.0278 -0.1085 -0.1840
10112TIP3    H151827   5.931   5.030   4.730 -1.9159  0.9254  1.5510
10112TIP3    H251828   5.972   5.176   4.723 -0.1229  0.4216  1.0035
10113TIP3   OH251829   3.996   2.199   4.892 -0.0426 -0.2698  0.0553
10113TIP3    H151830   4.038   2.275   4.852  0.8278 -2.3722 -3.4699
10113TIP3    H251831   3.904   2.209   4.870  0.2674 -0.8334 -1.6773
10114TIP3   OH251832   3.646   6.187  14.474 -0.7954  0.0209 -0.2497
10114TIP3    H151833   3.641   6.239  14.554 -0.4555  1.0708 -0.8895
10114TIP3    H251834   3.559   6.149  14.465 -0.3651 -1.5449  1.5252
10115TIP3   OH251835   5.430   3.305   3.371  0.6204  0.0404 -0.0953
10115TIP3    H151836   5.360   3.245   3.395  0.6564 -0.1446 -0.4451
10115TIP3    H251837   5.429   3.372   3.440  0.6708 -0.4338  0.3758
10116TIP3   OH251838   3.715   6.274   5.907 -0.1815  0.1161 -0.6033
10116TIP3    H151839   3.763   6.347   5.867 -0.0012 -0.2237 -1.0115
10116TIP3    H251840   3.664   6.315   5.977  1.6909  0.3019  0.7193
10117TIP3   OH251841   6.709   0.507  15.592 -0.2625  0.3511  0.1605
10117TIP3    H151842   6.684   0.474  15.679 -2.2139 -1.2810 -0.9114
10117TIP3    H251843   6.805   0.505  15.593 -0.0791  2.7130  3.0462
10118TIP3   OH251844   1.096   0.898   3.094  0.4346 -0.2515  0.0434
10118TIP3    H151845   1.030   0.951   3.139 -0.2805 -1.6492  0.6966
10118TIP3    H251846   1.165   0.885   3.159 -0.3677 -1.8444  0.6532
10119TIP3   OH251847   0.859   4.377  15.999  0.8430 -0.4714 -0.0917
10119TIP3    H151848   0.940   4.358  15.952  0.5566 -1.4741 -0.2048
10119TIP3    H251849   0.826   4.291  16.026 -0.8039 -0.1897 -1.0787
10120TIP3   OH251850   4.296   2.534   3.369  0.0666 -0.1334  0.9727
10120TIP3    H151851   4.232   2.597   3.334  0.2059 -0.7649 -0.4422
10120TIP3    H251852   4.309   2.563   3.459 -2.3531 -0.0753  1.3882
10121TIP3   OH251853   4.226   6.354  14.108  0.1877  0.1886  0.0431
10121TIP3    H151854   4.290   6.292  14.074 -0.9492 -0.9013 -0.1893
10121TIP3    H251855   4.142   6.318  14.082 -0.5195  1.8072 -0.0321
10122TIP3   OH251856   6.395   1.676   0.780  0.1988  0.4847  0.1943
10122TIP3    H151857   6.405   1.585   0.808 -1.2592  0.1082 -0.4169
10122TIP3    H251858   6.480   1.716   0.798  0.8418 -0.9733  0.5467
10123TIP3   OH251859   4.459   4.530  15.183 -0.1321  0.1346 -0.0199
10123TIP3    H151860   4.492   4.599  15.125 -2.4736  0.2751 -1.3101
10123TIP3    H251861   4.435   4.576  15.263  0.9128  0.3357  0.1930
10124TIP3   OH251862   0.951   1.108  15.177  0.5707 -0.1574  0.2520
10124TIP3    H151863   1.006   1.030  15.164  0.6972  0.0567 -0.5709
10124TIP3    H251864   1.004   1.166  15.231  0.6333 -0.4792  0.5415
10125TIP3   OH251865   6.355   1.728  11.867 -0.3771 -0.2273 -0.0704
10125TIP3    H151866   6.437   1.723  11.818 -0.3987  0.3402 -0.1803
10125TIP3    H251867   6.312   1.644  11.852 -0.9069  0.3314 -1.9732
10126TIP3   OH251868   0.089   5.262  12.690  0.0437 -0.1141 -0.2266
10126TIP3    H151869   0.151   5.279  12.761 -0.1595  1.2607 -0.3428
10126TIP3    H251870   0.103   5.334  12.629 -2.5391  0.9892  0.3642
10127TIP3   OH251871   2.392   3.676  11.325  0.6422 -0.5158 -0.5819
10127TIP3    H151872   2.353   3.750  11.279 -1.5515 -0.6510  0.8835
10127TIP3    H251873   2.486   3.687  11.313  0.3537  2.0834 -1.0388
10128TIP3   OH251874   6.729   1.454   3.274  0.1505  0.0307  0.7754
10128TIP3    H151875   6.720   1.549   3.264  2.9330  0.3404  0.5059
10128TIP3    H251876   6.755   1.442   3.365  1.4492 -0.2891  0.3820
10129TIP3   OH251877   2.902   4.080  12.510  0.0164 -0.0245  0.3377
10129TIP3    H151878   2.992   4.106  12.529 -0.6909  2.2494  0.8414
10129TIP3    H251879   2.871   4.039  12.590  1.0494 -2.3693 -0.3670
10130TIP3   OH251880   4.421   4.540  15.799 -0.6867 -0.3241  0.3554
10130TIP3    H151881   4.425   4.465  15.859 -1.2009 -1.3549 -0.8590
10130TIP3    H251882   4.507   4.542  15.758 -0.6126 -0.1292  0.5174
10131TIP3   OH251883   6.198   2.373   0.143  0.3472 -0.2946 -0.0289
10131TIP3    H151884   6.138   2.383   0.069  0.8129 -1.8741 -0.6730
10131TIP3    H251885   6.261   2.445   0.133  0.1257 -0.2064 -0.8999
10132TIP3   OH251886   6.245   2.561   1.682 -0.4899  0.4031 -0.0738
10132TIP3    H151887   6.184   2.490   1.665 -0.3180 -0.2816  1.8821
10132TIP3    H251888   6.190   2.640   1.684 -0.7312  0.3094 -1.8632
10133TIP3   OH251889   5.367   3.889  12.352  0.5355  0.2985 -0.6676
10133TIP3    H151890   5.298   3.862  12.290  1.6106 -2.9521 -0.6161
10133TIP3    H251891   5.448   3.883  12.302  1.2364 -0.5985  0.5209
10134TIP3   OH251892   2.420   6.677  13.981 -0.0382 -0.3754 -0.4185
10134TIP3    H151893   2.368   6.639  13.910  0.0603  1.2270 -1.3960
10134TIP3    H251894   2.464   6.602  14.021 -1.2935 -1.5016 -1.0485
10135TIP3   OH251895   6.081   4.393  15.400 -0.6030  0.3154  0.0441
10135TIP3    H151896   6.041   4.309  15.422 -1.6080  0.9655  0.7524
10135TIP3    H251897   6.159   4.397  15.457  0.2835 -0.7583 -1.0351
10136TIP3   OH251898   2.004   2.531  14.939 -0.5121 -0.5900 -0.2354
10136TIP3    H151899   1.932   2.490  14.987 -2.0489  1.1954 -0.8818
10136TIP3    H251900   1.977   2.525  14.847  0.9110 -1.2381 -0.6286
10137TIP3   OH251901   4.770   5.892  15.790 -0.5359 -0.0985 -0.2964
10137TIP3    H151902   4.826   5.843  15.730 -0.5275  0.7902 -1.0246
10137TIP3    H251903   4.747   5.828  15.857  2.0719 -0.2983  0.5551
10138TIP3   OH251904   6.183   1.263  11.659  0.0300 -0.1516 -0.0669
10138TIP3    H151905   6.162   1.218  11.577 -0.6658 -0.1922  0.1318
10138TIP3    H251906   6.112   1.240  11.718  1.1302 -1.1004  0.9472
10139TIP3   OH251907   5.519   2.461   3.004  0.2698  0.3572 -0.0139
10139TIP3    H151908   5.429   2.486   3.025  0.5208  0.3844  1.0702
10139TIP3    H251909   5.563   2.454   3.089  1.7692  2.1144 -0.5813
10140TIP3   OH251910   3.024   6.814  16.021 -0.1785  0.5871  0.2444
10140TIP3    H151911   3.028   6.753  16.095 -0.9320  0.3511  0.0960
10140TIP3    H251912   3.093   6.878  16.039  1.5393 -1.0406 -0.2496
10141TIP3   OH251913   0.835   2.419  16.467 -0.4551 -0.0378  0.9897
10141TIP3    H151914   0.779   2.496  16.466 -0.9553 -0.3919  1.4269
10141TIP3    H251915   0.909   2.443  16.410 -1.9389 -0.2524 -1.1586
10142TIP3   OH251916   6.472   1.040   3.644 -0.1392  0.3736  0.2181
10142TIP3    H151917   6.555   1.085   3.654  1.2775 -1.5965 -1.7355
10142TIP3    H251918   6.429   1.084   3.571 -0.3027  0.6668  0.4888
10143TIP3   OH251919   4.812   3.800   0.560  0.2013  0.4114  0.0733
10143TIP3    H151920   4.849   3.834   0.478 -0.5378 -0.9632 -0.8809
10143TIP3    H251921   4.731   3.850   0.572 -0.0037  0.1930 -0.3776
10144TIP3   OH251922   4.633   3.539  11.523  0.4347  0.4365  0.3716
10144TIP3    H151923   4.701   3.567  11.461  0.2226  0.3419  0.0945
10144TIP3    H251924   4.661   3.451  11.550 -0.9567 -0.7838 -1.8252
10145TIP3   OH251925   4.524   4.888   3.344 -0.2679  0.2236  0.9585
10145TIP3    H151926   4.559   4.812   3.391  1.3209  0.6127  0.4735
10145TIP3    H251927   4.560   4.880   3.256 -0.3627  1.3527  0.8068
10146TIP3   OH251928   0.806   2.724  11.312  0.1812 -0.2107  0.2744
10146TIP3    H151929   0.780   2.806  11.352 -0.0985 -0.6462  0.9910
10146TIP3    H251930   0.893   2.742  11.274 -1.2277  1.3807 -2.5273
10147TIP3   OH251931   1.301   1.184   0.561  0.3731  0.2198  0.1479
10147TIP3    H151932   1.299   1.260   0.620  0.0042  0.4297 -0.1381
10147TIP3    H251933   1.232   1.127   0.593 -0.1641  0.5611 -0.3825
10148TIP3   OH251934   1.597   4.125   5.190 -0.0930 -0.4481 -0.2686
10148TIP3    H151935   1.681   4.171   5.197 -0.8984  0.8728  1.8659
10148TIP3    H251936   1.534   4.195   5.171 -0.9266 -1.1814 -0.2349
10149TIP3   OH251937   3.477   3.597  17.034  0.5172 -0.1686  1.0923
10149TIP3    H151938   3.511   3.686  17.036 -1.6796  0.8144 -0.6979
10149TIP3    H251939   3.457   3.576  17.125  0.2488  1.5172  1.4458
10150TIP3   OH251940   6.368   3.106  15.029 -0.0283  0.4355 -0.0691
10150TIP3    H151941   6.311   3.076  15.101 -0.7399 -0.2277 -0.8880
10150TIP3    H251942   6.447   3.053  15.038 -1.3755 -2.0771 -1.6743
10151TIP3   OH251943   0.428   3.667   4.947 -0.0241 -0.5638 -0.0436
10151TIP3    H151944   0.521   3.646   4.946 -0.3093 -2.0554  1.1029
10151TIP3    H251945   0.395   3.633   4.864  0.2652 -1.0548  0.0400
10152TIP3   OH251946   0.912   1.295   3.868  0.0252  0.1603  0.4682
10152TIP3    H151947   0.990   1.318   3.818 -0.8197  1.7055 -0.2033
10152TIP3    H251948   0.898   1.370   3.925 -1.1521  0.0373  0.3508
10153TIP3   OH251949   4.034   2.690  16.153  0.1538  0.3305  0.3627
10153TIP3    H151950   4.029   2.723  16.063  1.8410  3.2384  1.2009
10153TIP3    H251951   4.128   2.686  16.172 -0.1669  1.5448  2.5163
10154TIP3   OH251952   5.700   1.280   5.890  0.1835  0.4945 -0.3409
10154TIP3    H151953   5.647   1.336   5.833 -0.5944 -0.8281 -0.9662
10154TIP3    H251954   5.707   1.329   5.972 -1.7564  0.8747 -0.3539
10155TIP3   OH251955   0.327   3.125   0.132  0.4561  0.5618  0.0838
10155TIP3    H151956   0.282   3.044   0.154  0.1689  0.4736 -0.7669
10155TIP3    H251957   0.417   3.098   0.112  0.5130  0.5384  0.3663
10156TIP3   OH251958   1.612   0.368   4.832 -0.4959  0.1218 -0.3720
10156TIP3    H151959   1.686   0.307   4.826 -0.9895 -0.4219 -1.1213
10156TIP3    H251960   1.628   0.417   4.913 -1.2391 -2.5598  1.5405
10157TIP3   OH251961   2.690   2.131  15.452 -0.1834 -0.6571 -0.4152
10157TIP3    H151962   2.687   2.037  15.465 -1.8685 -0.5452  0.3490
10157TIP3    H251963   2.762   2.161  15.508  0.8361 -1.5307 -1.2156
10158TIP3   OH251964   3.829   3.045  13.630  0.0730  0.3432 -0.5982
10158TIP3    H151965   3.739   3.014  13.641  0.3616  0.0431  1.1016
10158TIP3    H251966   3.883   2.969  13.651  0.7707  0.2415 -2.5077
10159TIP3   OH251967   5.876   6.385   4.315 -0.1108 -0.1295  0.4915
10159TIP3    H151968   5.952   6.383   4.258 -1.6993  0.6330 -1.7877
10159TIP3    H251969   5.883   6.304   4.366  0.3693 -1.9506 -2.2490
10160TIP3   OH251970   2.613   6.412   5.594 -0.0884 -0.2910 -0.0831
10160TIP3    H151971   2.554   6.385   5.524 -1.7528  2.0026  0.2900
10160TIP3    H251972   2.583   6.500   5.617  2.5071  0.3510  1.2598
10161TIP3   OH251973   4.471   4.469   5.820  0.6194  0.2180 -0.3600
10161TIP3    H151974   4.464   4.562   5.796  2.3512  0.6591  0.6409
10161TIP3    H251975   4.406   4.457   5.889  0.6854  0.8214 -0.1844
10162TIP3   OH251976   3.284   6.795  15.082  0.3130 -0.2680 -0.4708
10162TIP3    H151977   3.277   6.705  15.050 -0.3533 -1.3875  2.5331
10162TIP3    H251978   3.203   6.810  15.130  1.3467  1.1250  0.9511
10163TIP3   OH251979   4.308   6.397   4.185  0.2897 -0.3204 -0.3552
10163TIP3    H151980   4.224   6.438   4.207 -0.2966 -1.1667 -0.9355
10163TIP3    H251981   4.321   6.417   4.092  1.0336  0.3128 -0.1225
10164TIP3   OH251982   6.435   5.949   4.752 -0.1786  0.1618 -0.0496
10164TIP3    H151983   6.346   5.968   4.722  0.0552  0.6168 -0.4557
10164TIP3    H251984   6.452   5.860   4.720 -0.5082  0.0520  0.0772
10165TIP3   OH251985   0.494   5.421   0.169  0.1978 -0.1023 -0.0479
10165TIP3    H151986   0.479   5.340   0.217  0.2455 -0.9227 -1.3757
10165TIP3    H251987   0.409   5.445   0.133  0.1042  0.6604  0.6400
10166TIP3   OH251988   0.757   5.341   1.992  0.1081  0.1702 -0.0715
10166TIP3    H151989   0.753   5.265   2.050 -1.1023  0.7543  0.6744
10166TIP3    H251990   0.718   5.311   1.910 -0.5997  0.0334  0.3022
10167TIP3   OH251991   1.217   3.472  13.003  0.6228 -0.6981 -0.0792
10167TIP3    H151992   1.302   3.434  12.979 -0.0685 -0.7500 -2.7313
10167TIP3    H251993   1.195   3.530  12.931 -1.0236  0.3470  1.1890
10168TIP3   OH251994   5.251   2.338  13.208  0.5573  0.0225 -0.3148
10168TIP3    H151995   5.225   2.400  13.276  0.9729  0.7729 -0.8289
10168TIP3    H251996   5.195   2.359  13.134  1.2350  0.3219 -0.7569
10169TIP3   OH251997   6.310   6.318   2.289 -0.0537  0.3570  0.2843
10169TIP3    H151998   6.220   6.346   2.268 -0.2921 -0.0531  0.7386
10169TIP3    H251999   6.300   6.259   2.364  0.7310  1.3732  1.2207
10170TIP3   OH252000   2.590   0.462  15.051  0.9944 -0.3093 -0.3145
10170TIP3    H152001   2.561   0.550  15.026 -1.0295 -1.0565 -0.7764
10170TIP3    H252002   2.631   0.474  15.137  1.3149  1.1572 -0.6391
10171TIP3   OH252003   5.959   4.113  11.675 -0.0749  0.0266 -0.0638
10171TIP3    H152004   5.993   4.046  11.616 -1.8935 -0.4343 -0.6474
10171TIP3    H252005   5.998   4.195  11.643  1.2190 -0.5649 -0.0747
10172TIP3   OH252006   1.206   5.958  14.662 -0.1488 -0.2350  0.2893
10172TIP3    H152007   1.241   6.019  14.727  0.1844 -1.1504  0.9904
10172TIP3    H252008   1.113   5.980  14.656  0.4166  2.0247 -1.3784
10173TIP3   OH252009   2.207   6.749   4.913  0.0656  0.2236  0.3905
10173TIP3    H152010   2.229   6.671   4.862 -0.2960  0.3296  0.0636
10173TIP3    H252011   2.172   6.811   4.849 -1.2336  0.0328  0.8740
10174TIP3   OH252012   2.923   3.544   2.752  0.4910 -0.6694 -0.2509
10174TIP3    H152013   2.864   3.484   2.707  1.0894 -0.9275 -0.7023
10174TIP3    H252014   2.870   3.622   2.768 -0.0050 -0.9396 -0.5371
10175TIP3   OH252015   2.396   2.150  14.264  0.4327 -0.0966  0.0982
10175TIP3    H152016   2.458   2.079  14.278  2.0594  1.1725 -0.4397
10175TIP3    H252017   2.356   2.131  14.179  1.0749 -0.1994 -0.1807
10176TIP3   OH252018   3.568   4.417  11.650  0.4338 -0.1634  0.0708
10176TIP3    H152019   3.621   4.363  11.708  3.0351 -0.3901 -2.3301
10176TIP3    H252020   3.492   4.363  11.629  1.3837 -1.6010  0.2619
10177TIP3   OH252021   5.888   6.052  15.756  0.2507  0.9028  0.5635
10177TIP3    H152022   5.811   5.997  15.763  0.1443  0.8056 -0.9879
10177TIP3    H252023   5.942   6.029  15.832 -0.2864 -0.5450  0.5227
10178TIP3   OH252024   0.596   5.453  11.925  0.3797  0.1790  0.5721
10178TIP3    H152025   0.509   5.462  11.886 -0.2088  0.3404  1.8780
10178TIP3    H252026   0.589   5.376  11.982  1.1379  0.1184  0.6005
10179TIP3   OH252027   2.938   5.195   2.813 -0.0626 -0.3957  0.4802
10179TIP3    H152028   2.845   5.173   2.811 -0.5146  1.1004  2.2416
10179TIP3    H252029   2.975   5.149   2.738 -2.1851 -1.1448 -0.1849
10180TIP3   OH252030   5.241   1.141   0.548  0.5915 -0.5697  0.1109
10180TIP3    H152031   5.253   1.133   0.453 -0.6381 -1.2591  0.0028
10180TIP3    H252032   5.265   1.056   0.583  1.6250 -0.1339  0.4993
10181TIP3   OH252033   5.578   0.702  10.879  0.4688  0.4759  0.6334
10181TIP3    H152034   5.650   0.717  10.940  2.6918 -1.4440 -1.3468
10181TIP3    H252035   5.532   0.626  10.914  2.0680 -0.9615 -0.2441
10182TIP3   OH252036   5.279   5.502   5.865  0.7206  0.4038 -0.0106
10182TIP3    H152037   5.268   5.413   5.901  1.9680  0.3592  0.3158
10182TIP3    H252038   5.206   5.552   5.903 -0.5830 -0.6881 -0.9815
10183TIP3   OH252039   0.396   3.881  14.541  0.2331  0.3005 -0.0073
10183TIP3    H152040   0.432   3.900  14.455  1.3358 -0.1846  0.3246
10183TIP3    H252041   0.374   3.788  14.538  0.5612  0.2100  0.3281
10184TIP3   OH252042   5.197   3.697  16.107  0.3248  0.0339 -0.5398
10184TIP3    H152043   5.171   3.726  16.195 -1.4955 -0.6692 -0.7879
10184TIP3    H252044   5.125   3.726  16.050  1.3361  0.2305 -1.7656
10185TIP3   OH252045   2.380   0.200   6.735  0.5547  0.5671 -0.2065
10185TIP3    H152046   2.453   0.223   6.678  0.7856  1.1148  0.3013
10185TIP3    H252047   2.382   0.104   6.740  0.7395  0.5376 -0.8375
10186TIP3   OH252048   4.738   4.778  14.892  0.3421  0.6720 -0.9395
10186TIP3    H152049   4.659   4.776  14.947  0.4579  2.2145 -0.6843
10186TIP3    H252050   4.707   4.813  14.808  0.4296 -0.4015 -1.4311
10187TIP3   OH252051   5.204   2.722  15.143  0.4016  0.1899  0.2666
10187TIP3    H152052   5.267   2.764  15.083  0.7205 -0.7148 -0.0505
10187TIP3    H252053   5.181   2.640  15.100 -0.7654  0.3627  0.5410
10188TIP3   OH252054   2.624   4.067   3.894 -0.3851  0.0226  0.4664
10188TIP3    H152055   2.641   4.155   3.926  0.3389  0.2606 -0.5083
10188TIP3    H252056   2.529   4.059   3.894 -0.4850  1.0371 -0.0084
10189TIP3   OH252057   0.671   6.554  15.551  0.1460  0.2606 -0.2497
10189TIP3    H152058   0.715   6.631  15.516 -1.6938  1.4382 -0.1028
10189TIP3    H252059   0.729   6.522  15.620  1.2703  1.1011 -0.7932
10190TIP3   OH252060   4.778   4.840   1.457 -0.0726  0.3528 -0.0605
10190TIP3    H152061   4.726   4.774   1.503 -1.7156  1.3958 -0.3382
10190TIP3    H252062   4.717   4.881   1.396  1.1552  1.4583 -0.6032
10191TIP3   OH252063   3.885   6.533  11.633  0.1697  0.0853  0.0281
10191TIP3    H152064   3.790   6.525  11.635  0.3119 -4.2831  0.1294
10191TIP3    H252065   3.905   6.559  11.543 -1.0947 -1.0253 -0.6101
10192TIP3   OH252066   2.239   0.524  13.528  0.5310 -0.3011 -0.2072
10192TIP3    H152067   2.292   0.444  13.528 -0.5385 -1.0265  0.2285
10192TIP3    H252068   2.151   0.495  13.505  0.0347  0.6839  0.3702
10193TIP3   OH252069   1.423   0.293   3.169 -0.2653  0.2703  0.2702
10193TIP3    H152070   1.362   0.240   3.221  0.7621 -0.1573  1.0773
10193TIP3    H252071   1.455   0.233   3.102  1.2476 -0.3218  1.4631
10194TIP3   OH252072   5.871   4.081   5.737  0.3837  0.2977  0.2035
10194TIP3    H152073   5.914   4.120   5.813 -0.0753  0.9129  0.1639
10194TIP3    H252074   5.808   4.019   5.774 -0.8616  1.6329  0.4203
10195TIP3   OH252075   3.352   0.059  15.798  0.6574  0.4046  0.0156
10195TIP3    H152076   3.266   0.098  15.814  0.1927 -0.5080 -0.2014
10195TIP3    H252077   3.371   0.009  15.877  1.8711  2.0987  0.8720
10196TIP3   OH252078   3.742   4.795   0.159 -0.0105  0.3162 -0.0400
10196TIP3    H152079   3.756   4.877   0.112 -0.8944  0.2766 -0.4060
10196TIP3    H252080   3.821   4.783   0.212  0.0707  1.4647  0.1196
10197TIP3   OH252081   2.083   3.137  10.900  0.1268  0.6896 -0.5422
10197TIP3    H152082   2.177   3.141  10.921  0.6745 -0.5571 -2.4675
10197TIP3    H252083   2.080   3.095  10.814 -2.2259  0.6411 -0.4892
10198TIP3   OH252084   4.898   4.862   4.167  0.4298 -0.2330  0.4946
10198TIP3    H152085   4.824   4.807   4.140  1.3219 -0.8700 -0.7472
10198TIP3    H252086   4.856   4.942   4.201 -0.8379 -0.4095 -0.5471
10199TIP3   OH252087   2.393   5.427   6.092 -0.5357 -0.0126 -0.0914
10199TIP3    H152088   2.406   5.413   6.186 -1.0572  0.4795  0.0605
10199TIP3    H252089   2.443   5.506   6.073 -1.4833  0.6388  0.0503
10200TIP3   OH252090   6.342   2.776   4.819 -0.8008  0.5175  0.1223
10200TIP3    H152091   6.349   2.759   4.725 -0.5800  0.0783  0.2177
10200TIP3    H252092   6.391   2.858   4.832  0.0476  0.0335  0.0160
10201TIP3   OH252093   1.594   1.096  12.204  0.3051  0.0218  0.3553
10201TIP3    H152094   1.662   1.100  12.137  0.0131 -1.8563 -0.1094
10201TIP3    H252095   1.636   1.133  12.282  0.8747  1.5969 -0.6432
10202TIP3   OH252096   2.309   0.773  10.894  0.5444 -0.2500  0.1186
10202TIP3    H152097   2.297   0.792  10.801  0.6157  1.4217  0.4209
10202TIP3    H252098   2.373   0.702  10.896  0.4546 -0.3814 -1.1053
10203TIP3   OH252099   2.949   5.906  12.571 -0.3914  0.3697 -0.2548
10203TIP3    H152100   2.887   5.918  12.643 -0.4713 -0.2783 -0.2124
10203TIP3    H252101   2.896   5.907  12.492 -0.7313 -2.0367 -0.1211
10204TIP3   OH252102   1.741   2.912  10.968  0.2468 -0.0097 -0.5369
10204TIP3    H152103   1.802   2.884  10.900 -0.8575 -1.4770 -0.9790
10204TIP3    H252104   1.666   2.853  10.959 -0.4783  0.5888  1.1384
10205TIP3   OH252105   5.455   2.165  14.415 -0.1697 -0.1499  0.0743
10205TIP3    H152106   5.409   2.165  14.499 -0.9326 -0.7687 -0.3196
10205TIP3    H252107   5.519   2.094  14.423  1.3855  1.3002  0.9496
10206TIP3   OH252108   6.204   4.817   1.811 -0.0806  0.1098  0.8661
10206TIP3    H152109   6.281   4.873   1.822  0.3112 -0.1614 -0.3901
10206TIP3    H252110   6.217   4.745   1.874 -0.2681  1.0560  2.0187
10207TIP3   OH252111   2.678   0.120  16.366  0.4271  0.2608  0.3599
10207TIP3    H152112   2.588   0.090  16.376  0.6205 -0.2634  0.5119
10207TIP3    H252113   2.691   0.181  16.438  1.2880 -2.2392  2.4423
10208TIP3   OH252114   3.342   3.137  16.092 -0.7237  0.2099  0.3971
10208TIP3    H152115   3.333   3.154  16.186  0.2625 -1.0414  0.7391
10208TIP3    H252116   3.424   3.180  16.068 -0.4975 -0.2564  0.3215
10209TIP3   OH252117   1.233   3.372   3.125 -0.4056 -0.0954 -0.3190
10209TIP3    H152118   1.290   3.397   3.198  1.6380  0.4312 -1.9984
10209TIP3    H252119   1.272   3.415   3.049 -2.7092 -0.2777 -1.6843
10210TIP3   OH252120   2.557   1.564  10.891  0.4538  0.2628 -0.0526
10210TIP3    H152121   2.528   1.481  10.854  1.9010 -0.2350 -0.1263
10210TIP3    H252122   2.536   1.558  10.984  1.1646 -0.4718  0.0645
10211TIP3   OH252123   5.120   0.323  14.288  0.6016 -0.7020  0.3213
10211TIP3    H152124   5.028   0.349  14.290  0.0611 -2.4441 -0.3913
10211TIP3    H252125   5.162   0.382  14.350 -0.9242  0.3636  0.4012
10212TIP3   OH252126   5.294   5.063  13.307 -0.3170 -0.1726  0.1150
10212TIP3    H152127   5.321   4.989  13.252 -0.4108  0.5186 -0.8866
10212TIP3    H252128   5.207   5.040  13.339 -1.1384  0.2629 -1.6745
10213TIP3   OH252129   5.095   6.437   3.211  0.1331  0.3444 -0.2201
10213TIP3    H152130   5.062   6.454   3.123  1.5639  0.2294 -0.7910
10213TIP3    H252131   5.152   6.361   3.202  0.7050  0.6438  0.7152
10214TIP3   OH252132   5.231   1.504  10.163 -0.1926  0.1399 -0.2026
10214TIP3    H152133   5.200   1.455  10.239 -1.3833  0.6036 -0.3679
10214TIP3    H252134   5.231   1.441  10.091 -2.1554  0.4558 -0.5187
10215TIP3   OH252135   5.666   1.452  14.317 -0.1119 -0.9982 -0.2022
10215TIP3    H152136   5.618   1.434  14.236 -0.5522 -1.4862  0.1651
10215TIP3    H252137   5.636   1.539  14.344  0.1212 -0.7868 -0.6221
10216TIP3   OH252138   6.700   2.493   4.157 -0.0437 -0.1448 -0.0653
10216TIP3    H152139   6.775   2.540   4.193 -1.0152  0.7025  0.9365
10216TIP3    H252140   6.667   2.441   4.230 -0.2613 -0.7470 -0.5814
10217TIP3   OH252141   4.914   5.775  12.075 -0.5340  0.1127  0.7638
10217TIP3    H152142   4.892   5.759  11.983  1.4242 -1.8825  0.5550
10217TIP3    H252143   4.832   5.759  12.122 -1.5566  1.1108 -0.5829
10218TIP3   OH252144   5.451   4.981   3.658 -0.0598  0.1868 -0.3597
10218TIP3    H152145   5.510   5.000   3.584  1.4880  0.4606  0.8751
10218TIP3    H252146   5.373   5.032   3.640  1.2013  2.1016 -0.6991
10219TIP3   OH252147   1.092   2.253  15.738 -0.0576  1.1873 -0.2947
10219TIP3    H152148   1.178   2.260  15.698  1.4832 -0.5751  2.3812
10219TIP3    H252149   1.095   2.314  15.812 -0.4570 -0.0694  0.7876
10220TIP3   OH252150   2.516   0.506  14.234 -0.0812  0.0206  0.7560
10220TIP3    H152151   2.495   0.580  14.291  0.1951  1.1505 -0.5529
10220TIP3    H252152   2.494   0.537  14.146  0.9254 -1.1194  0.0722
10221TIP3   OH252153   6.374   5.096   0.478 -0.1763  0.3094  0.6470
10221TIP3    H152154   6.334   5.058   0.400 -0.2547 -0.4289  1.0344
10221TIP3    H252155   6.335   5.183   0.485  2.0752  1.6340 -1.8237
10222TIP3   OH252156   4.196   4.404  13.511  0.2552 -0.2343 -0.6017
10222TIP3    H152157   4.238   4.418  13.595  0.3113 -1.1352 -0.4640
10222TIP3    H252158   4.260   4.434  13.446  1.6911 -2.6781 -0.4578
10223TIP3   OH252159   3.289   3.977   1.985 -0.2115  0.1477  0.2524
10223TIP3    H152160   3.258   4.065   2.008 -0.1351 -0.3322  2.4740
10223TIP3    H252161   3.209   3.924   1.982 -0.2171  0.1973 -0.6798
10224TIP3   OH252162   1.798   4.985   1.214  0.2285  0.5220 -0.3200
10224TIP3    H152163   1.880   4.954   1.252  0.0075  0.3410  0.0185
10224TIP3    H252164   1.815   4.990   1.120  0.6107  0.4385 -0.2553
10225TIP3   OH252165   0.458   3.965   1.235  0.0617 -0.2845  0.4284
10225TIP3    H152166   0.454   3.909   1.313 -0.6759  0.7979  1.2047
10225TIP3    H252167   0.371   4.006   1.231 -0.2274 -0.9674 -1.4857
10226TIP3   OH252168   1.458   6.297  16.223 -0.1143 -0.2332  0.0850
10226TIP3    H152169   1.543   6.325  16.257 -1.3635  1.3810  2.1046
10226TIP3    H252170   1.408   6.377  16.214 -1.5577 -1.1888 -0.7722
10227TIP3   OH252171   0.304   6.243   2.958  0.5666 -0.1565  0.1408
10227TIP3    H152172   0.398   6.234   2.946  0.2297 -1.8194 -1.6311
10227TIP3    H252173   0.276   6.304   2.889  0.0179 -1.7518 -1.0979
10228TIP3   OH252174   0.354   4.260   4.557 -0.3959  0.1071 -0.3238
10228TIP3    H152175   0.285   4.209   4.602  0.2882  0.0268  0.6724
10228TIP3    H252176   0.430   4.202   4.557 -0.0257  0.5877 -0.4698
10229TIP3   OH252177   6.308   0.421  12.290 -0.7476  0.6324 -0.6106
10229TIP3    H152178   6.400   0.439  12.308 -0.5471 -1.4933  0.8384
10229TIP3    H252179   6.303   0.326  12.277 -2.7852  0.6153 -0.1590
10230TIP3   OH252180   6.075   0.062   3.502  0.2782 -0.0827  0.4549
10230TIP3    H152181   6.017   0.108   3.564  1.7591 -0.6509  2.3611
10230TIP3    H252182   6.157   0.053   3.549  1.1776 -1.4492 -1.2770
10231TIP3   OH252183   4.344   3.270  12.777  0.2932  0.1234 -0.0717
10231TIP3    H152184   4.388   3.235  12.854  0.3470 -1.2208 -0.6821
10231TIP3    H252185   4.287   3.339  12.811  0.8793  0.0675  1.0598
10232TIP3   OH252186   3.464   2.909   3.354  0.4620 -0.1538 -0.3643
10232TIP3    H152187   3.509   2.826   3.364  0.6223 -0.0694 -0.3739
10232TIP3    H252188   3.512   2.970   3.410 -0.0848 -0.2292  0.1966
10233TIP3   OH252189   4.763   3.536   1.833 -0.0371  0.2686 -0.0695
10233TIP3    H152190   4.846   3.540   1.880  0.5019  1.4282 -1.0724
10233TIP3    H252191   4.705   3.596   1.881 -0.5811 -1.1312  1.0976
10234TIP3   OH252192   5.442   2.934   3.384 -0.1712  0.2908  0.1157
10234TIP3    H152193   5.478   2.924   3.296  0.3624  1.8518  0.1215
10234TIP3    H252194   5.387   3.012   3.379 -1.8885 -0.8300  0.6454
10235TIP3   OH252195   2.769   3.216  14.452 -0.6833  0.2916 -0.3926
10235TIP3    H152196   2.805   3.267  14.524 -1.5491 -1.7696  1.6248
10235TIP3    H252197   2.815   3.132  14.458 -4.0765 -1.6658  0.9291
10236TIP3   OH252198   1.230   4.613  16.366  0.6095  0.0559  0.0955
10236TIP3    H152199   1.167   4.559  16.318  1.5144 -0.9743  0.0167
10236TIP3    H252200   1.193   4.701  16.363 -1.8818 -0.8297  1.8394
10237TIP3   OH252201   6.285   6.249  16.654 -0.1551 -0.1650  0.1545
10237TIP3    H152202   6.302   6.298  16.573 -0.3073 -0.1658  0.1229
10237TIP3    H252203   6.234   6.174  16.627  0.5564 -0.6479  0.1225
10238TIP3   OH252204   5.012   5.447  14.058 -0.1285 -0.0416 -0.5716
10238TIP3    H152205   4.916   5.450  14.065 -0.1209  1.3298 -0.7238
10238TIP3    H252206   5.041   5.410  14.141 -0.7620  0.5289 -0.0786
10239TIP3   OH252207   2.079   5.636   0.252 -0.1655 -0.7131 -0.1660
10239TIP3    H152208   2.050   5.612   0.340 -1.7313 -1.3105 -0.8091
10239TIP3    H252209   2.000   5.629   0.198  0.8425 -0.7303 -1.6991
10240TIP3   OH252210   4.435   1.833   4.473  0.1240 -0.1393  0.4187
10240TIP3    H152211   4.377   1.892   4.521  2.2550  1.7560  0.8711
10240TIP3    H252212   4.518   1.882   4.466  1.2916 -2.1868 -1.2464
10241TIP3   OH252213   4.383   3.139  13.735 -0.1402  0.5336 -0.2743
10241TIP3    H152214   4.294   3.165  13.759 -0.3610 -0.3739 -0.0943
10241TIP3    H252215   4.379   3.044  13.725  0.9784  0.3829  0.4855
10242TIP3   OH252216   1.971   2.457  11.904  0.1191 -0.3215 -0.4976
10242TIP3    H152217   2.026   2.476  11.980 -3.1510 -1.2057  2.3342
10242TIP3    H252218   2.004   2.375  11.869  1.9147  0.2963 -0.3527
10243TIP3   OH252219   2.440   5.144   3.023 -0.8209  0.0907 -0.2370
10243TIP3    H152220   2.430   5.165   2.930 -0.6054 -0.4624 -0.3897
10243TIP3    H252221   2.531   5.165   3.043 -0.8152  0.0265 -0.1952
10244TIP3   OH252222   5.759   2.659  15.373 -0.5329 -0.2219  0.4307
10244TIP3    H152223   5.736   2.734  15.428  0.8326 -0.0103  0.7567
10244TIP3    H252224   5.680   2.640  15.324 -1.9192 -0.5873  2.6396
10245TIP3   OH252225   4.585   6.619  17.190  0.5248 -0.1919  0.1224
10245TIP3    H152226   4.589   6.527  17.166 -2.6417 -0.0494 -1.5755
10245TIP3    H252227   4.586   6.620  17.286  3.8486 -1.6090  0.2398
10246TIP3   OH252228   0.195   3.412   5.597  0.1721  0.1868  0.3407
10246TIP3    H152229   0.189   3.433   5.691  0.3019  0.5266  0.2742
10246TIP3    H252230   0.202   3.317   5.594 -2.1890 -0.0748  0.5791
10247TIP3   OH252231   0.943   3.489   5.175 -0.3928  0.0794  0.4382
10247TIP3    H152232   0.863   3.534   5.149 -0.0122  1.4602  1.5675
10247TIP3    H252233   0.981   3.543   5.244  1.7212 -0.3172 -0.3159
10248TIP3   OH252234   3.343   0.581   1.942 -0.2289 -0.2819  0.2374
10248TIP3    H152235   3.374   0.656   1.994 -1.1606 -1.8244  3.2493
10248TIP3    H252236   3.253   0.606   1.918  0.1650  0.3968 -0.5770
10249TIP3   OH252237   1.201   3.252  13.439 -0.4106 -0.0508  0.0655
10249TIP3    H152238   1.196   3.334  13.390 -0.1973 -0.3910 -0.5298
10249TIP3    H252239   1.118   3.248  13.487 -0.1735  0.8126  0.5915
10250TIP3   OH252240   1.360   2.150  15.106 -0.0781 -0.1777  0.5008
10250TIP3    H152241   1.414   2.218  15.145 -2.2870  1.0649  1.5877
10250TIP3    H252242   1.305   2.196  15.042 -1.5659 -0.9014  1.1973
10251TIP3   OH252243   5.585   0.246  12.040 -0.3618 -1.0682 -0.3664
10251TIP3    H152244   5.490   0.238  12.037 -0.6276  1.0353  0.7866
10251TIP3    H252245   5.601   0.338  12.060  1.9622 -1.0199 -2.0413
10252TIP3   OH252246   4.420   1.865   0.685  0.4078 -0.5359  1.1657
10252TIP3    H152247   4.431   1.946   0.735  0.2033 -0.0292  0.4065
10252TIP3    H252248   4.401   1.799   0.751 -0.6107  0.2681  1.7110
10253TIP3   OH252249   5.081   5.755  12.264 -0.1741 -0.5367 -0.3049
10253TIP3    H152250   5.019   5.744  12.192 -1.1090 -0.1020  0.4204
10253TIP3    H252251   5.134   5.830  12.237 -0.8370 -0.0655 -0.3316
10254TIP3   OH252252   3.458   1.967  16.827 -0.8818 -0.0064  0.2990
10254TIP3    H152253   3.516   1.957  16.752 -2.5978  0.0973 -1.1070
10254TIP3    H252254   3.511   2.008  16.895  1.2059 -1.6736 -0.2244
10255TIP3   OH252255   2.622   5.118   6.390  0.3812 -0.1338  0.3719
10255TIP3    H152256   2.536   5.077   6.397  0.5097 -0.7466 -1.2350
10255TIP3    H252257   2.684   5.044   6.389  0.7230  0.1436 -1.0024
10256TIP3   OH252258   5.288   1.079  15.548  0.6614 -0.0154 -0.0658
10256TIP3    H152259   5.268   0.995  15.590  1.0239 -0.2905 -0.4413
10256TIP3    H252260   5.376   1.068  15.513  0.6154  0.4369 -0.3286
10257TIP3   OH252261   2.342   4.866  13.271  0.1591  0.3040  0.4209
10257TIP3    H152262   2.309   4.923  13.340 -1.1863 -1.0625  0.9571
10257TIP3    H252263   2.269   4.857  13.210 -0.2738 -2.1761  1.2212
10258TIP3   OH252264   1.434   4.817  13.719 -0.8389  0.0312  0.4618
10258TIP3    H152265   1.527   4.821  13.741 -0.7242  0.0062 -0.0021
10258TIP3    H252266   1.428   4.856  13.631 -1.3335  0.4657  0.6773
10259TIP3   OH252267   5.795   6.709  12.903  0.0595 -0.1264 -0.0195
10259TIP3    H152268   5.776   6.633  12.956 -0.8826  0.0158 -0.1313
10259TIP3    H252269   5.784   6.679  12.813 -0.8000  0.2445 -0.0536
10260TIP3   OH252270   3.017   1.887   2.641  0.5891 -0.3727  0.0535
10260TIP3    H152271   2.964   1.959   2.608 -0.6145 -0.6493  1.3126
10260TIP3    H252272   2.984   1.810   2.595 -0.3593 -0.5967  1.0881
10261TIP3   OH252273   2.827   2.677  12.204  0.0109 -0.4596  0.1559
10261TIP3    H152274   2.817   2.585  12.177  0.9866  0.0614 -2.1647
10261TIP3    H252275   2.790   2.727  12.132  1.6845  1.0297  0.2747
10262TIP3   OH252276   6.130   5.663   2.387  0.4445  0.5553 -0.4831
10262TIP3    H152277   6.174   5.579   2.381  2.0826  1.4489 -1.4500
10262TIP3    H252278   6.050   5.653   2.335 -1.3888 -1.5111  2.3859
10263TIP3   OH252279   4.388   2.506  15.820 -0.7641 -1.0074 -1.0882
10263TIP3    H152280   4.370   2.431  15.763 -1.7044  0.4882 -2.9099
10263TIP3    H252281   4.321   2.570  15.795  1.9514  1.6921 -2.0714
10264TIP3   OH252282   3.821   0.018  13.306  0.0373 -0.2445 -1.2276
10264TIP3    H152283   3.776  -0.056  13.346  0.7874  0.2671  0.6733
10264TIP3    H252284   3.774   0.095  13.337 -0.2763  0.1406 -2.5777
10265TIP3   OH252285   2.810   0.388  16.512  0.0212 -0.3144  0.5550
10265TIP3    H152286   2.891   0.403  16.562 -1.0839  0.6004  2.1610
10265TIP3    H252287   2.823   0.437  16.431  1.3046 -0.6754  0.5161
10266TIP3   OH252288   0.012   2.549   4.628  0.2854  0.0473 -0.0886
10266TIP3    H152289  -0.011   2.458   4.647  0.5107  0.3903  1.9814
10266TIP3    H252290   0.103   2.557   4.658  0.8736  0.5229 -1.8706
10267TIP3   OH252291   4.174   4.992  16.716 -0.3588  0.1540  0.1091
10267TIP3    H152292   4.207   5.032  16.797  1.9196 -1.5898  0.1232
10267TIP3    H252293   4.191   5.057  16.648 -1.6817  1.3560  0.8633
10268TIP3   OH252294   2.060   4.874   1.232  0.6613  0.6204  0.4545
10268TIP3    H152295   2.061   4.873   1.136  0.4314  0.1454  0.4548
10268TIP3    H252296   2.120   4.804   1.258 -0.2608 -0.1235  0.6422
10269TIP3   OH252297   1.458   1.268  13.837 -0.0672 -0.3362 -0.0679
10269TIP3    H152298   1.459   1.332  13.766 -2.7059 -0.4304 -0.2952
10269TIP3    H252299   1.398   1.306  13.902  2.0670 -0.3723  2.0380
10270TIP3   OH252300   6.452   3.803  13.095  0.0413  0.2385  0.2520
10270TIP3    H152301   6.470   3.882  13.045  1.1427  0.3297  0.7646
10270TIP3    H252302   6.530   3.748  13.082 -0.4179 -0.4762  0.4439
10271TIP3   OH252303   6.650   5.477  13.796  0.0920 -0.0400 -0.2647
10271TIP3    H152304   6.555   5.482  13.786 -0.2046 -2.4013  0.6886
10271TIP3    H252305   6.684   5.498  13.709 -1.3290  0.2530 -0.7840
10272TIP3   OH252306   2.508   3.848   4.337 -0.1735 -0.0450  0.5290
10272TIP3    H152307   2.449   3.846   4.412 -0.8978  0.1766 -0.0225
10272TIP3    H252308   2.479   3.924   4.286 -0.2652 -0.7109 -0.4254
10273TIP3   OH252309   3.090   5.837   4.643 -0.3023  0.6899  0.0587
10273TIP3    H152310   3.077   5.869   4.554 -2.1053  2.8509  0.9997
10273TIP3    H252311   3.103   5.917   4.695  0.9820 -0.5215  1.7307
10274TIP3   OH252312   3.241   3.990   4.934  0.7343 -0.4775  0.4812
10274TIP3    H152313   3.154   3.973   4.898  0.1267 -1.7434  2.3637
10274TIP3    H252314   3.225   4.034   5.017  1.8800 -0.7580  0.8775
10275TIP3   OH252315   2.320   1.239   3.603 -0.4012 -0.5433 -0.3317
10275TIP3    H152316   2.340   1.192   3.685  0.9897  2.0226  0.9389
10275TIP3    H252317   2.392   1.216   3.545 -0.2955 -0.8131 -0.0985
10276TIP3   OH252318   2.519   6.399   5.933  0.8092 -0.2581  0.2764
10276TIP3    H152319   2.475   6.451   5.867 -0.6305  1.7685  2.6377
10276TIP3    H252320   2.454   6.335   5.962  1.8227 -1.9604 -0.9985
10277TIP3   OH252321   6.586   3.110  12.630 -0.4660  0.3323 -0.0204
10277TIP3    H152322   6.655   3.153  12.579 -0.3801  0.2717  0.0431
10277TIP3    H252323   6.574   3.026  12.587  0.5637 -0.2928  0.8407
10278TIP3   OH252324   6.096   3.263   3.744 -0.0083 -0.3286  0.1264
10278TIP3    H152325   6.171   3.219   3.784  0.3180  0.7047  0.6895
10278TIP3    H252326   6.122   3.355   3.740 -1.1719  0.0114  0.1470
10279TIP3   OH252327   2.854   3.495  15.321 -0.3159  0.0613 -0.3528
10279TIP3    H152328   2.843   3.452  15.236 -1.8770  2.0419 -1.2561
10279TIP3    H252329   2.843   3.588  15.302 -0.0884  0.6278  1.9535
10280TIP3   OH252330   0.466   4.175  16.088  0.4041 -0.2312 -0.4644
10280TIP3    H152331   0.531   4.169  16.159  0.7233 -0.8316 -0.7899
10280TIP3    H252332   0.385   4.145  16.128  0.9542 -2.2904 -0.7777
10281TIP3   OH252333   5.283   1.273   2.470  0.4790 -0.3817 -0.1223
10281TIP3    H152334   5.277   1.251   2.377 -0.0397  0.2745 -0.2480
10281TIP3    H252335   5.227   1.350   2.481  1.0924 -0.0216  0.5983
10282TIP3   OH252336   2.051   3.072  11.262  0.7214 -0.1429  0.2459
10282TIP3    H152337   2.035   3.165  11.247  0.0406 -0.3593 -0.4246
10282TIP3    H252338   2.138   3.069  11.302  0.2111  0.8790  1.5198
10283TIP3   OH252339   2.727   5.393  16.390 -0.4812 -0.8350  0.4083
10283TIP3    H152340   2.806   5.341  16.403 -0.7765 -1.1288  1.0724
10283TIP3    H252341   2.673   5.339  16.332  0.2439 -0.1504 -0.9579
10284TIP3   OH252342   3.055   1.870   0.614 -0.3588 -0.2036  0.2115
10284TIP3    H152343   3.017   1.952   0.582  1.4765  0.3403 -0.7228
10284TIP3    H252344   3.072   1.885   0.706 -0.2128  0.3970  0.0891
10285TIP3   OH252345   6.362   6.449   5.713  0.3657 -0.1983 -0.2734
10285TIP3    H152346   6.312   6.384   5.664  0.6540 -0.3499 -0.3649
10285TIP3    H252347   6.453   6.435   5.686  0.4962 -0.1271  0.1257
10286TIP3   OH252348   4.748   3.320  13.975  0.0667  0.3571 -0.0179
10286TIP3    H152349   4.742   3.290  14.066  0.1223  0.3599 -0.0135
10286TIP3    H252350   4.693   3.399  13.973 -2.0341 -1.0283 -0.5679
10287TIP3   OH252351   0.398   6.477  15.532 -1.1152  0.4403 -0.2785
10287TIP3    H152352   0.367   6.565  15.554 -0.4465  0.1144  2.2802
10287TIP3    H252353   0.493   6.486  15.524 -0.8631 -0.2623  1.4965
10288TIP3   OH252354   0.767   2.772  13.010  0.0124 -0.4432  0.1537
10288TIP3    H152355   0.724   2.748  12.928 -0.6409 -0.6600  0.5503
10288TIP3    H252356   0.696   2.774  13.074  0.5095 -0.2355  0.7063
10289TIP3   OH252357   3.357   6.668   1.403 -0.2092 -0.4555  0.1096
10289TIP3    H152358   3.383   6.759   1.417 -0.5978 -0.1415 -1.0934
10289TIP3    H252359   3.342   6.634   1.491 -3.3729  1.6374  0.5356
10290TIP3   OH252360   6.677   1.386  14.718 -0.3625 -0.4911  0.8132
10290TIP3    H152361   6.640   1.298  14.722  0.0582 -0.7800 -0.9849
10290TIP3    H252362   6.601   1.444  14.721 -0.6985 -0.9381  1.0059
10291TIP3   OH252363   3.657   2.209   1.996  0.0321 -0.2738  0.0211
10291TIP3    H152364   3.577   2.156   1.987  0.6235 -0.9949 -1.3408
10291TIP3    H252365   3.630   2.296   1.966 -0.0234 -0.7639 -1.4362
10292TIP3   OH252366   5.306   1.097   2.858  0.7339  0.1625 -0.1219
10292TIP3    H152367   5.269   1.185   2.859 -1.0303 -0.5483  1.1324
10292TIP3    H252368   5.254   1.048   2.921  0.9999 -2.0602 -1.5124
10293TIP3   OH252369   3.934   5.981  12.390  0.2260  0.1566 -0.2049
10293TIP3    H152370   3.892   5.981  12.476  3.1911  0.7938  1.3716
10293TIP3    H252371   3.905   5.900  12.348 -0.5795 -0.6288  1.7715
10294TIP3   OH252372   4.370   1.372   0.587  0.1289 -0.1442 -0.0530
10294TIP3    H152373   4.395   1.459   0.555 -0.0904  0.6531  1.7898
10294TIP3    H252374   4.330   1.329   0.511  3.3638 -0.0013 -2.0319
10295TIP3   OH252375   1.400   2.680   2.968  0.5095  0.3109 -0.2002
10295TIP3    H152376   1.306   2.694   2.957  0.4111 -1.3761 -2.0929
10295TIP3    H252377   1.407   2.638   3.054 -0.4833  0.3781 -0.0719
10296TIP3   OH252378   4.186   3.249  15.037  0.3057 -0.6926 -0.4605
10296TIP3    H152379   4.101   3.205  15.045  0.1365 -0.1185  1.0287
10296TIP3    H252380   4.228   3.203  14.964 -0.9094 -1.5872 -0.6480
10297TIP3   OH252381   4.409   5.271  16.905 -0.1978  0.3917 -0.1213
10297TIP3    H152382   4.409   5.202  16.838  1.2158  0.3717 -0.1289
10297TIP3    H252383   4.342   5.332  16.876 -3.0733 -1.9818  0.9801
10298TIP3   OH252384   2.249   5.296  13.380 -0.4535  0.0679 -0.2110
10298TIP3    H152385   2.215   5.221  13.429  0.7200  0.4361  1.2451
10298TIP3    H252386   2.191   5.368  13.403 -0.5913 -0.0187 -0.2843
10299TIP3   OH252387   5.479   5.166  15.765  0.0808  0.1177  0.4154
10299TIP3    H152388   5.515   5.128  15.685 -1.2887 -1.1028  0.3261
10299TIP3    H252389   5.500   5.103  15.834 -3.0015 -1.4321  0.1108
10300TIP3   OH252390   3.107   2.868  15.457 -0.1466 -0.0266  0.1041
10300TIP3    H152391   3.177   2.881  15.521  0.0247  2.5328 -0.4860
10300TIP3    H252392   3.027   2.894  15.502 -0.3263 -0.2910 -0.0607
10301TIP3   OH252393   2.114   3.771   0.087 -0.4177  0.1155  0.0615
10301TIP3    H152394   2.023   3.799   0.098 -0.7832 -0.9979 -0.0328
10301TIP3    H252395   2.116   3.730   0.000  0.7078  2.1204 -0.9444
10302TIP3   OH252396   0.919   1.996   0.431  0.2755  0.1562 -0.1074
10302TIP3    H152397   0.871   1.963   0.354  0.8613 -0.6137 -0.1534
10302TIP3    H252398   0.853   2.001   0.500  0.3503 -2.2155  0.2171
10303TIP3   OH252399   6.013   3.489  15.031  0.5965 -0.3457  0.2077
10303TIP3    H152400   5.964   3.539  15.096  0.0581 -3.5077  2.4779
10303TIP3    H252401   5.951   3.476  14.959 -0.5282 -0.8162  1.2281
10304TIP3   OH252402   2.896   6.122   2.973  0.2767 -0.3093 -0.0828
10304TIP3    H152403   2.982   6.090   2.946  0.2905  1.1333 -1.9593
10304TIP3    H252404   2.900   6.217   2.960 -1.4265 -0.1428  0.2980
10305TIP3   OH252405   3.693   6.243   0.418 -0.8512 -0.3066  0.6022
10305TIP3    H152406   3.667   6.267   0.507  2.1339  1.2536  1.1889
10305TIP3    H252407   3.713   6.326   0.375 -0.0772 -1.1619 -0.7823
10306TIP3   OH252408   1.108   2.393   3.732 -0.3810  0.0725  0.3645
10306TIP3    H152409   1.133   2.316   3.784 -0.7724  0.5671  1.3106
10306TIP3    H252410   1.096   2.462   3.796  1.3531  1.3287 -0.5950
10307TIP3   OH252411   4.578   5.796   6.922  0.0716 -0.9938  0.1273
10307TIP3    H152412   4.636   5.728   6.956  1.8828  0.9679  1.2005
10307TIP3    H252413   4.626   5.835   6.849  0.9583  1.6698  1.9685
10308TIP3   OH252414   5.995   6.595   2.379 -0.0684  1.0274 -0.5651
10308TIP3    H152415   5.934   6.668   2.382 -0.3484  0.7634  0.9143
10308TIP3    H252416   5.962   6.533   2.444  0.6524 -0.0196 -1.1718
10309TIP3   OH252417   3.186   2.211   2.636  0.1135  0.0004 -0.6739
10309TIP3    H152418   3.146   2.143   2.690  0.3407  0.9666  0.7620
10309TIP3    H252419   3.259   2.244   2.688  2.0893 -0.8505 -2.6901
10310TIP3   OH252420   2.263   4.867  14.493 -0.4669  0.7013  0.1998
10310TIP3    H152421   2.351   4.905  14.488 -1.0570  1.9355 -2.2213
10310TIP3    H252422   2.275   4.785  14.541  1.5988  1.8554  1.8471
10311TIP3   OH252423   2.383   3.415  15.169  0.1455  0.6253  0.8364
10311TIP3    H152424   2.453   3.412  15.103 -1.2144  1.8015 -0.7692
10311TIP3    H252425   2.308   3.451  15.121 -1.4135 -0.1313  2.6265
10312TIP3   OH252426   1.976   2.380   2.601 -0.2121  0.0957 -0.2001
10312TIP3    H152427   2.048   2.319   2.583  0.1259 -0.8141  3.5309
10312TIP3    H252428   2.008   2.464   2.567  2.1592 -0.5326  0.2624
10313TIP3   OH252429   3.243   3.569   1.985 -0.0721 -1.1922 -0.2903
10313TIP3    H152430   3.289   3.645   1.948  1.8265 -1.2924  1.6104
10313TIP3    H252431   3.307   3.498   1.980 -0.5222 -1.7341  1.1103
10314TIP3   OH252432   4.821   0.650  14.467  0.1066 -0.0853  0.3599
10314TIP3    H152433   4.744   0.694  14.432 -0.5846 -1.2058  0.4365
10314TIP3    H252434   4.796   0.558  14.473  0.7903 -0.1817  2.2357
10315TIP3   OH252435   1.634   4.239  11.799 -0.2689  0.1595  0.4378
10315TIP3    H152436   1.729   4.249  11.798 -0.2036 -0.3720  0.5680
10315TIP3    H252437   1.620   4.157  11.848 -0.6426 -1.2470 -1.8655
10316TIP3   OH252438   0.761   1.568  16.385 -0.6815  0.3388 -0.2283
10316TIP3    H152439   0.810   1.499  16.339  0.2950  0.3983  0.6719
10316TIP3    H252440   0.768   1.644  16.327 -0.3345  0.1360 -0.4611
10317TIP3   OH252441   1.308   0.418   5.728 -0.4901 -0.2122 -0.3757
10317TIP3    H152442   1.321   0.325   5.709 -0.7193 -0.7452  1.7941
10317TIP3    H252443   1.355   0.432   5.811  0.3856  1.8554 -1.1515
10318TIP3   OH252444   4.201   5.384   5.078  0.3567 -0.4202 -0.2987
10318TIP3    H152445   4.145   5.391   5.155  1.1441  0.8974  0.1839
10318TIP3    H252446   4.142   5.399   5.004 -0.0540  0.3354  0.1661
10319TIP3   OH252447   4.339   6.128   0.774  0.0167  0.0851  0.1995
10319TIP3    H152448   4.286   6.120   0.694  1.7431 -1.1260 -0.8888
10319TIP3    H252449   4.413   6.184   0.748  0.7316 -0.5393  0.8609
10320TIP3   OH252450   0.111   2.634   0.813  0.0798 -0.6710 -0.1786
10320TIP3    H152451   0.124   2.606   0.904 -1.7327 -2.0272 -0.2709
10320TIP3    H252452   0.074   2.722   0.820 -0.2621 -0.8560  0.4240
10321TIP3   OH252453   6.607   4.628  14.208  0.1680  0.2156  0.6285
10321TIP3    H152454   6.555   4.642  14.287 -0.2050 -0.2556  0.4727
10321TIP3    H252455   6.601   4.711  14.161 -0.3423  0.2087  0.6721
10322TIP3   OH252456   1.169   5.724   1.951 -0.3427 -0.2129 -0.1877
10322TIP3    H152457   1.112   5.648   1.950  2.1797 -2.2907  1.5695
10322TIP3    H252458   1.223   5.715   1.872  0.7746 -0.9828  0.6376
10323TIP3   OH252459   0.250   6.690  15.906 -0.1088  0.3116 -0.2319
10323TIP3    H152460   0.168   6.680  15.859 -0.1684 -0.9521  0.0961
10323TIP3    H252461   0.280   6.778  15.885 -1.8879  1.0687  0.2139
10324TIP3   OH252462   5.943   4.807  14.768 -0.5143  0.4909 -0.3959
10324TIP3    H152463   5.864   4.785  14.817  0.0264 -1.2398 -0.2338
10324TIP3    H252464   5.961   4.729  14.715  1.3832  0.6125 -0.0002
10325TIP3   OH252465   4.738   4.670   2.722  0.4441  0.3387 -0.0256
10325TIP3    H152466   4.785   4.615   2.659  0.7145  0.8306 -0.2534
10325TIP3    H252467   4.673   4.717   2.669  1.1014  1.2419 -0.0524
10326TIP3   OH252468   4.681   1.784  14.857  0.0646  0.2553 -0.0796
10326TIP3    H152469   4.622   1.857  14.875 -0.5153 -0.1119 -0.4606
10326TIP3    H252470   4.761   1.826  14.825 -0.0049  0.7556  0.3881
10327TIP3   OH252471   0.323   4.243  14.802 -0.0178 -0.6507 -0.3184
10327TIP3    H152472   0.309   4.149  14.815 -0.2917 -0.8248 -1.7098
10327TIP3    H252473   0.320   4.280  14.890 -0.5761 -1.8570  0.1932
10328TIP3   OH252474   1.536   5.229  13.411 -0.2149 -0.5898 -0.2069
10328TIP3    H152475   1.514   5.322  13.417 -1.6738 -0.9163 -0.1394
10328TIP3    H252476   1.553   5.215  13.317  0.3411 -0.1964 -0.1699
10329TIP3   OH252477   6.334   3.940  16.553 -0.1543  0.2125  0.3506
10329TIP3    H152478   6.311   3.958  16.644 -0.7942 -3.9250  1.2056
10329TIP3    H252479   6.265   3.984  16.502 -0.4086  1.6809  1.8633
10330TIP3   OH252480   1.666   5.508   4.033 -0.4798 -0.3434 -0.3586
10330TIP3    H152481   1.701   5.500   4.122 -2.7530  1.4352  0.8200
10330TIP3    H252482   1.654   5.602   4.021 -1.1198 -0.6243 -2.1946
10331TIP3   OH252483   3.736   6.438   3.786 -0.0486 -0.5398 -0.3494
10331TIP3    H152484   3.813   6.383   3.772  1.1247  1.2043 -1.2107
10331TIP3    H252485   3.761   6.493   3.861 -0.9927 -0.8335  0.1881
10332TIP3   OH252486   0.063   2.183  15.293  0.1545 -0.0565 -0.0477
10332TIP3    H152487   0.082   2.185  15.387  0.9564  1.0596 -0.2180
10332TIP3    H252488   0.106   2.103  15.262  1.8874  0.7558  0.1453
10333TIP3   OH252489   6.213   1.816   0.259 -0.2929 -0.1757  0.4727
10333TIP3    H152490   6.142   1.794   0.198  0.2804 -0.5238 -0.0897
10333TIP3    H252491   6.216   1.912   0.258  0.2007 -0.1876 -0.6436
10334TIP3   OH252492   2.468   3.572   2.891  0.0029  1.0172  0.4856
10334TIP3    H152493   2.503   3.486   2.914  0.3847  1.2451  0.7590
10334TIP3    H252494   2.395   3.586   2.951  0.7204  1.4188  1.2840
10335TIP3   OH252495   2.769   4.576  15.034  0.3069  0.0837  0.1097
10335TIP3    H152496   2.828   4.648  15.054 -0.9461  0.8040  1.4850
10335TIP3    H252497   2.810   4.530  14.962  2.1518  0.9797  0.5275
10336TIP3   OH252498   4.294   2.915  13.963  0.4745  0.0115 -0.2299
10336TIP3    H152499   4.288   2.835  14.013  2.1627 -1.1304 -1.7081
10336TIP3    H252500   4.347   2.892  13.886 -0.4412  2.0984 -1.6028
10337TIP3   OH252501   2.024   2.398   5.437 -0.4737  0.0051  0.2858
10337TIP3    H152502   2.015   2.470   5.375  0.0460  1.4482  1.7928
10337TIP3    H252503   2.106   2.416   5.483 -1.4503 -0.2800  2.2430
10338TIP3   OH252504   4.300   2.296  15.685 -0.1217 -0.4922 -0.9126
10338TIP3    H152505   4.307   2.235  15.611  1.2192 -1.6754  0.1307
10338TIP3    H252506   4.283   2.239  15.760  1.5299  0.3681  0.1589
10339TIP3   OH252507   4.250   0.120  16.894  0.6498  0.1529 -0.0255
10339TIP3    H152508   4.287   0.120  16.805  0.3589  0.8430 -0.1546
10339TIP3    H252509   4.204   0.203  16.900 -0.9853 -0.7312  0.1000
10340TIP3   OH252510   2.484   0.158  10.531 -0.3125  0.2202 -0.4986
10340TIP3    H152511   2.558   0.116  10.574 -0.1772  1.9994  1.1036
10340TIP3    H252512   2.523   0.228  10.479 -0.6341 -0.8645 -2.3205
10341TIP3   OH252513   3.166   1.476  13.545  0.3959  0.1106  0.1774
10341TIP3    H152514   3.086   1.523  13.567  2.4010  4.4715 -0.8715
10341TIP3    H252515   3.219   1.479  13.625 -0.2247 -2.6147  0.8177
10342TIP3   OH252516   0.675   6.241  12.138  0.2732  0.2440  0.1012
10342TIP3    H152517   0.701   6.171  12.198  1.9177  1.0225  0.3377
10342TIP3    H252518   0.646   6.196  12.059 -1.5640 -0.7912  1.2875
10343TIP3   OH252519   3.853   1.462  14.008  0.0809 -0.2435 -0.5615
10343TIP3    H152520   3.911   1.387  13.997  1.5781  0.7758 -0.0227
10343TIP3    H252521   3.783   1.431  14.065 -0.0189 -1.5510 -1.3534
10344TIP3   OH252522   2.566   4.983  13.158  0.2152  0.6613 -0.0215
10344TIP3    H152523   2.475   4.965  13.180 -0.5565  0.3380 -3.0391
10344TIP3    H252524   2.616   4.917  13.206 -0.7877  2.2966  3.5909
10345TIP3   OH252525   3.358   0.040   2.166  0.2322 -0.5838 -0.6846
10345TIP3    H152526   3.382  -0.029   2.227  2.0832 -1.0521 -1.8407
10345TIP3    H252527   3.320  -0.006   2.091  0.4560 -0.2668 -1.0010
10346TIP3   OH252528   0.713   6.189   3.522 -0.1060 -0.3765  0.0964
10346TIP3    H152529   0.667   6.269   3.546 -1.5122 -1.4117  1.0214
10346TIP3    H252530   0.802   6.218   3.500 -1.0891  1.6562 -1.5111
10347TIP3   OH252531   2.115   4.089   4.359  0.2141 -0.3725  0.0546
10347TIP3    H152532   2.031   4.104   4.403 -1.2225  0.3588 -2.7458
10347TIP3    H252533   2.138   4.173   4.321  3.0238 -0.1863  1.9103
10348TIP3   OH252534   6.030   0.795   4.332 -0.4498  0.1843 -0.2734
10348TIP3    H152535   5.992   0.857   4.269 -0.6845 -0.9392 -1.2910
10348TIP3    H252536   6.100   0.844   4.374 -2.6536  2.1700  1.3230
10349TIP3   OH252537   5.916   0.979   3.188  0.3699 -0.1268 -0.1735
10349TIP3    H152538   5.879   0.891   3.194  2.8837 -1.1772  0.8828
10349TIP3    H252539   5.905   1.015   3.276  3.7703 -1.3764  0.9227
10350TIP3   OH252540   6.730   6.004   1.864 -0.6612 -0.9066  0.2591
10350TIP3    H152541   6.726   6.014   1.959 -2.1757  0.0093  0.1334
10350TIP3    H252542   6.736   5.910   1.850 -2.5281 -1.2075  1.2299
10351TIP3   OH252543   6.450   5.465   4.430 -0.1294 -0.3913  0.2568
10351TIP3    H152544   6.534   5.460   4.475  0.8114 -0.3210 -1.4105
10351TIP3    H252545   6.434   5.376   4.399  0.3037 -0.0213 -1.0871
10352TIP3   OH252546   5.059   6.685  13.683  0.2370 -0.3450  0.4440
10352TIP3    H152547   4.965   6.669  13.695  0.4507 -2.1712 -0.0129
10352TIP3    H252548   5.080   6.640  13.601  1.3184  0.9335 -0.0127
10353TIP3   OH252549   6.685   4.269  12.099 -0.3189  0.3053  0.0247
10353TIP3    H152550   6.714   4.341  12.155 -1.5366  0.9091 -0.0760
10353TIP3    H252551   6.617   4.308  12.044 -0.4037 -0.7232 -0.6227
10354TIP3   OH252552   3.208   4.707  12.410 -0.6450 -0.2079  0.4459
10354TIP3    H152553   3.185   4.622  12.374  1.0654 -0.3520 -0.4481
10354TIP3    H252554   3.157   4.770  12.359 -0.0923 -0.5696 -0.5734
10355TIP3   OH252555   1.089   2.918  11.896 -0.1524  0.0941 -0.3787
10355TIP3    H152556   1.125   2.830  11.905  0.1859  0.1428 -1.1396
10355TIP3    H252557   1.025   2.910  11.825  0.5021  0.6247 -1.0570
10356TIP3   OH252558   2.744   2.179   1.950  0.3440 -0.3701  0.3647
10356TIP3    H152559   2.718   2.112   2.013  0.0760 -0.4819  0.1366
10356TIP3    H252560   2.684   2.167   1.876  0.2661  0.1461  0.3409
10357TIP3   OH252561   6.024   6.377   0.781 -0.5464  0.1433  0.1752
10357TIP3    H152562   6.008   6.342   0.693  0.2920  2.4300 -0.9849
10357TIP3    H252563   5.948   6.434   0.797 -0.1594  0.5868  0.4463
10358TIP3   OH252564   3.156   3.901   3.484  0.3343  1.0643 -0.1796
10358TIP3    H152565   3.069   3.879   3.451 -0.5658  1.1332  2.0021
10358TIP3    H252566   3.209   3.913   3.405 -0.9761 -1.4417 -1.5559
10359TIP3   OH252567   4.463   2.870  12.946  0.0695  0.4056 -0.1143
10359TIP3    H152568   4.543   2.830  12.913 -0.4554 -1.9860  1.2057
10359TIP3    H252569   4.442   2.820  13.025 -2.6635  0.9675 -0.3559
10360TIP3   OH252570   4.143   4.924   0.139  0.1237 -0.4539 -0.1798
10360TIP3    H152571   4.194   4.992   0.095 -0.3751 -0.7243 -1.2150
10360TIP3    H252572   4.145   4.948   0.231  0.9186  0.3212 -0.3844
10361TIP3   OH252573   6.232   2.242  11.213  0.3104  0.8915 -0.4123
10361TIP3    H152574   6.248   2.186  11.137 -1.8391 -1.6587  0.8791
10361TIP3    H252575   6.215   2.328  11.175  2.5651  0.5191 -2.5508
10362TIP3   OH252576   2.375   1.477   0.787  0.0643  0.4940 -0.2670
10362TIP3    H152577   2.409   1.555   0.830 -0.0884  0.7879 -0.6718
10362TIP3    H252578   2.302   1.509   0.734  1.2573  0.4137 -2.0383
10363TIP3   OH252579   1.189   6.497   3.469  0.0995 -0.4662  0.5060
10363TIP3    H152580   1.226   6.428   3.524 -0.4371 -0.4212  0.9296
10363TIP3    H252581   1.154   6.451   3.392  0.0341 -0.6311  0.6338
10364TIP3   OH252582   0.085   4.237  11.236  0.6560  0.1165  0.2391
10364TIP3    H152583   0.015   4.265  11.176  0.9277 -1.1160 -0.7023
10364TIP3    H252584   0.059   4.272  11.321 -1.0743 -0.2172 -0.1040
10365TIP3   OH252585   5.753   3.242  15.133 -0.9195 -0.2183 -0.7786
10365TIP3    H152586   5.815   3.294  15.183 -1.0581 -0.0229 -0.8116
10365TIP3    H252587   5.737   3.164  15.187  0.0875 -0.7328 -1.1999
10366TIP3   OH252588   4.130   1.893   3.220 -0.6976  0.0131 -0.0609
10366TIP3    H152589   4.121   1.983   3.191 -0.4419  0.8831  2.3059
10366TIP3    H252590   4.071   1.843   3.163 -0.3524  1.5443 -1.8394
10367TIP3   OH252591   0.307   2.264  12.988  0.0556 -0.1285  0.2945
10367TIP3    H152592   0.371   2.323  13.027 -0.1533 -0.7355  1.5919
10367TIP3    H252593   0.278   2.208  13.060  0.8465 -2.3833 -1.0224
10368TIP3   OH252594   0.670   2.348   0.500  0.6334  0.2842 -0.1788
10368TIP3    H152595   0.576   2.345   0.488  0.6677 -0.4245 -0.2756
10368TIP3    H252596   0.684   2.330   0.593  0.6637  0.5928 -0.1221
10369TIP3   OH252597   4.137   3.368   0.452  0.0928  0.4067 -0.0079
10369TIP3    H152598   4.221   3.364   0.497 -0.5488  1.6665  1.3548
10369TIP3    H252599   4.103   3.279   0.458  0.4142  0.3499  1.2591
10370TIP3   OH252600   0.151   2.143  16.547  0.2466 -0.4683 -0.0256
10370TIP3    H152601   0.195   2.069  16.506  1.9019 -0.3505  1.4306
10370TIP3    H252602   0.217   2.182  16.605 -0.7553  1.7581 -0.2473
10371TIP3   OH252603   6.345   2.584   0.054 -0.2820 -0.5644  0.1536
10371TIP3    H152604   6.362   2.551  -0.034  0.2298 -0.0790  0.0627
10371TIP3    H252605   6.321   2.676   0.041  2.3214  0.2717  0.6820
10372TIP3   OH252606   1.506   6.205   5.765  0.2250  0.0757  0.2222
10372TIP3    H152607   1.551   6.149   5.702 -0.6270  0.7649 -1.0414
10372TIP3    H252608   1.422   6.161   5.781 -0.7363  1.2656 -1.2942
10373TIP3   OH252609   2.733   0.316   3.386 -0.0697  0.0605  0.3860
10373TIP3    H152610   2.706   0.362   3.466  0.5784  0.1781  0.5366
10373TIP3    H252611   2.711   0.224   3.404 -0.0909  0.1123  0.6292
10374TIP3   OH252612   2.741   2.421  12.935 -0.2575 -0.3191 -0.0530
10374TIP3    H152613   2.730   2.383  13.022 -0.0355 -1.5982 -0.5709
10374TIP3    H252614   2.825   2.388  12.905 -1.6535 -2.4104 -1.9756
10375TIP3   OH252615   6.074   0.236  13.576  0.6001 -0.5386  0.5528
10375TIP3    H152616   6.024   0.199  13.503  0.8217 -1.2325  0.7473
10375TIP3    H252617   6.148   0.281  13.535 -1.3123  2.4847  0.0763
10376TIP3   OH252618   5.575   4.161   1.428  0.2518  0.4331 -0.1538
10376TIP3    H152619   5.623   4.186   1.507 -0.4866  0.5518  0.2706
10376TIP3    H252620   5.494   4.211   1.433 -0.4925 -0.7334 -0.1857
10377TIP3   OH252621   5.481   0.304  14.812 -0.2201 -0.5125 -0.6751
10377TIP3    H152622   5.544   0.374  14.796  0.6786 -0.8560  1.1790
10377TIP3    H252623   5.533   0.224  14.814 -0.8262 -0.9058 -0.0508
10378TIP3   OH252624   3.630   3.861  11.559  0.3878 -0.0477 -0.0364
10378TIP3    H152625   3.699   3.829  11.618 -0.9116  0.5256  1.8925
10378TIP3    H252626   3.576   3.784  11.542 -0.7788  0.2894  1.8153
10379TIP3   OH252627   4.928   3.733  16.880  0.1697  0.5165  0.1162
10379TIP3    H152628   4.900   3.808  16.933 -1.5597  0.7486 -1.0652
10379TIP3    H252629   4.876   3.660  16.913  0.8769  0.1063  0.3537
10380TIP3   OH252630   5.047   1.457   4.740 -0.1218  0.0344  0.0802
10380TIP3    H152631   5.036   1.474   4.647 -0.0640  0.0018  0.0674
10380TIP3    H252632   4.958   1.452   4.775 -0.1365  1.4595  0.2828
10381TIP3   OH252633   3.342   3.894   2.367 -0.0466  0.0323 -0.3968
10381TIP3    H152634   3.366   3.951   2.294 -1.6288  0.4869 -0.5908
10381TIP3    H252635   3.353   3.948   2.445 -0.9902  0.4318 -0.5339
10382TIP3   OH252636   3.406   2.049  13.257  0.4208  0.4195  0.0872
10382TIP3    H152637   3.433   2.034  13.166 -1.2518  0.8349 -0.5209
10382TIP3    H252638   3.368   1.967  13.285  0.2091  0.5336  0.1359
10383TIP3   OH252639   4.942   6.168   4.079  0.7975  0.2568 -0.2735
10383TIP3    H152640   4.891   6.209   4.149  0.8767  1.0362 -0.6600
10383TIP3    H252641   4.923   6.221   4.001 -3.8333 -3.7254 -2.4143
10384TIP3   OH252642   5.746   0.752  12.078  0.1731  0.3615  0.0533
10384TIP3    H152643   5.840   0.749  12.060  0.2028  1.0192  0.0845
10384TIP3    H252644   5.722   0.661  12.094  0.9998  0.2919  1.0075
10385TIP3   OH252645   6.651   6.190   3.578  0.4516  0.1465  0.1129
10385TIP3    H152646   6.713   6.144   3.634 -1.3766 -1.1594  1.1483
10385TIP3    H252647   6.570   6.139   3.583 -0.4322  1.1845 -2.0334
10386TIP3   OH252648   2.952   6.823  12.958  0.3303 -0.2433  0.5708
10386TIP3    H152649   2.873   6.815  13.011 -0.4692  1.1481 -0.3478
10386TIP3    H252650   2.994   6.903  12.989  0.6221 -0.2068  0.0937
10387TIP3   OH252651   4.577   3.450   3.370 -0.6649  0.1489 -0.0534
10387TIP3    H152652   4.503   3.504   3.396 -1.5389 -1.1074  0.1489
10387TIP3    H252653   4.584   3.463   3.275  1.6971  3.6991  0.4243
10388TIP3   OH252654   0.012   5.830  13.122  0.6802 -0.8102 -0.4825
10388TIP3    H152655   0.037   5.738  13.134  2.5334 -0.1993  0.7605
10388TIP3    H252656   0.095   5.877  13.118 -0.2036  1.1182  1.5311
10389TIP3   OH252657   3.753   1.145   2.875  0.0485 -0.0674 -0.4254
10389TIP3    H152658   3.740   1.067   2.929 -1.3849  0.2229 -0.3092
10389TIP3    H252659   3.670   1.192   2.881  0.7820  1.3140 -0.7524
10390TIP3   OH252660   3.754   0.039  10.675 -0.6613  0.1400  0.0316
10390TIP3    H152661   3.728  -0.053  10.672  0.9640 -0.3803  0.5496
10390TIP3    H252662   3.837   0.038  10.724  0.4309  1.6150 -1.6706
10391TIP3   OH252663   6.576   2.627  14.346 -0.0423 -0.1785  0.5436
10391TIP3    H152664   6.626   2.549  14.324 -0.3576 -0.1985 -0.1405
10391TIP3    H252665   6.517   2.639  14.271 -0.6781  0.1483  1.0853
10392TIP3   OH252666   0.610   0.152   1.971  0.5798 -0.3358  0.3713
10392TIP3    H152667   0.536   0.192   2.017 -0.4004 -1.5573 -0.0866
10392TIP3    H252668   0.601   0.182   1.881  0.1875 -1.0661  0.1564
10393TIP3   OH252669   4.789   3.393  14.749  1.2033 -0.3296 -0.0890
10393TIP3    H152670   4.838   3.311  14.758  0.3513 -0.8024  0.5213
10393TIP3    H252671   4.699   3.369  14.774  0.3628  0.1933 -2.3911
10394TIP3   OH252672   1.570   2.693   4.023  0.7211  0.1021  0.0481
10394TIP3    H152673   1.636   2.691   4.093  0.4639 -0.1883  0.2787
10394TIP3    H252674   1.552   2.602   4.003  1.4906  0.1717 -1.0613
10395TIP3   OH252675   3.532   0.380  16.199 -0.0776 -0.1429 -0.0946
10395TIP3    H152676   3.622   0.407  16.216 -0.8215  1.5477  1.4952
10395TIP3    H252677   3.505   0.430  16.123 -0.1253  0.4843  0.3290
10396TIP3   OH252678   5.950   5.450  15.828 -0.0079  0.3417 -0.2861
10396TIP3    H152679   6.027   5.471  15.775 -1.8581  2.2988 -2.4450
10396TIP3    H252680   5.904   5.384  15.777 -1.1210  1.2192 -0.4470
10397TIP3   OH252681   5.878   0.549  14.285 -0.2300 -0.0955  0.2356
10397TIP3    H152682   5.944   0.481  14.279 -0.5006 -0.3130 -0.2422
10397TIP3    H252683   5.815   0.516  14.349  0.0944  0.0963  0.6645
10398TIP3   OH252684   5.574   3.776   1.204  0.2496  0.7303  0.7158
10398TIP3    H152685   5.503   3.803   1.263  0.0979  1.1764  0.3339
10398TIP3    H252686   5.532   3.765   1.119  0.2646 -0.9256  0.8837
10399TIP3   OH252687   2.947   3.902   4.336 -0.3226 -0.0911 -0.0685
10399TIP3    H152688   2.955   3.907   4.241  0.3220  2.3071  0.0489
10399TIP3    H252689   3.036   3.911   4.368 -0.6595  0.4429  0.7628
10400TIP3   OH252690   0.511   3.917  15.824 -0.3533 -0.2050  0.0005
10400TIP3    H152691   0.472   4.003  15.807 -0.0810 -0.2227 -0.7292
10400TIP3    H252692   0.604   3.929  15.808 -0.3828 -0.7685 -0.6543
10401TIP3   OH252693   1.818   3.816  16.890 -0.4742 -1.1180 -0.0361
10401TIP3    H152694   1.857   3.732  16.867  1.3942 -0.6166  1.0480
10401TIP3    H252695   1.883   3.858  16.947 -1.3506  1.0667 -0.5362
10402TIP3   OH252696   6.412   6.305  10.966 -0.0441 -0.5178  0.2847
10402TIP3    H152697   6.415   6.235  11.032 -1.4494 -1.9466 -1.0761
10402TIP3    H252698   6.321   6.304  10.936  0.3369  0.7746 -0.9629
10403TIP3   OH252699   4.086   3.866   0.227 -0.4715 -0.0496 -0.0591
10403TIP3    H152700   4.095   3.784   0.275 -1.0473  0.2400  0.5622
10403TIP3    H252701   4.010   3.852   0.170 -0.0656 -0.2359 -0.5518
10404TIP3   OH252702   5.100   5.705  16.865 -0.0473  0.9914 -0.1593
10404TIP3    H152703   5.074   5.793  16.889 -2.0095  0.7156 -1.0597
10404TIP3    H252704   5.050   5.648  16.923 -0.8569  0.4473 -1.3522
10405TIP3   OH252705   3.848   3.451   1.269  0.4072  0.0557 -0.0866
10405TIP3    H152706   3.865   3.491   1.354 -0.6214 -1.6520  0.9746
10405TIP3    H252707   3.923   3.395   1.253  1.7794  2.1524 -1.5080
10406TIP3   OH252708   4.065   4.185  16.866 -0.1686  0.6221  0.3660
10406TIP3    H152709   4.004   4.232  16.809 -0.6117 -0.3045  0.0706
10406TIP3    H252710   4.151   4.204  16.827 -0.4844 -0.2444 -0.8237
10407TIP3   OH252711   0.446   3.670   5.589  0.1615 -0.2585  0.1885
10407TIP3    H152712   0.358   3.652   5.556 -0.1474  2.1892 -0.5395
10407TIP3    H252713   0.447   3.632   5.676 -1.5347 -0.5883  0.1061
10408TIP3   OH252714   6.598   3.823  12.754  0.3368 -0.0855 -0.0552
10408TIP3    H152715   6.550   3.901  12.727  0.0936  0.3365  1.4955
10408TIP3    H252716   6.605   3.770  12.674 -0.7526  0.8511 -0.8043
10409TIP3   OH252717   6.732   1.372  17.005 -0.1811  0.1799 -0.1966
10409TIP3    H152718   6.710   1.425  17.082  0.7169  2.1024 -1.1807
10409TIP3    H252719   6.799   1.311  17.036 -0.1079  0.6732  0.6471
10410TIP3   OH252720   2.982   3.674   6.427  0.2083  0.5769  0.1087
10410TIP3    H152721   2.907   3.715   6.385 -0.1655 -0.0565  0.1556
10410TIP3    H252722   2.945   3.620   6.496  0.5957 -0.7544 -0.6762
10411TIP3   OH252723   5.546   2.285  14.164  0.2659 -0.4249 -0.2360
10411TIP3    H152724   5.491   2.230  14.220  0.7951  0.0265  0.7759
10411TIP3    H252725   5.572   2.229  14.092 -1.2125 -0.7537 -0.5467
10412TIP3   OH252726   0.839   2.110  16.982 -0.0844  0.9341 -0.5021
10412TIP3    H152727   0.773   2.169  17.020 -1.3305  0.9034 -2.4713
10412TIP3    H252728   0.861   2.050  17.053 -0.7714  2.1174  0.7643
10413TIP3   OH252729   2.808   3.210   4.441 -0.1883 -0.1852 -0.2607
10413TIP3    H152730   2.782   3.169   4.523 -1.5561 -0.5365 -0.8432
10413TIP3    H252731   2.831   3.137   4.383 -2.4131 -0.1991 -1.2249
10414TIP3   OH252732   4.544   6.777   3.062 -0.1910 -0.0965 -0.2126
10414TIP3    H152733   4.637   6.774   3.041 -0.3114 -1.0145 -0.6453
10414TIP3    H252734   4.521   6.870   3.056  0.9730  0.3042  1.1868
10415TIP3   OH252735   3.100   4.526   6.511 -0.5610  0.0087  0.3924
10415TIP3    H152736   3.095   4.585   6.436 -1.5016 -1.7337 -0.9726
10415TIP3    H252737   3.169   4.564   6.566  0.5768  1.0263 -1.6206
10416TIP3   OH252738   6.678   5.276   6.855 -0.3535 -0.4022 -0.5706
10416TIP3    H152739   6.759   5.244   6.815 -0.3341  1.3257 -2.0202
10416TIP3    H252740   6.609   5.221   6.817 -0.1927  0.3396 -1.9646
10417TIP3   OH252741   0.637   2.121   3.020  0.1712 -0.4545  0.3303
10417TIP3    H152742   0.555   2.160   2.991  0.1307 -0.4504  0.4467
10417TIP3    H252743   0.647   2.042   2.967  0.7699  0.2499 -0.6206
10418TIP3   OH252744   2.384   5.913   3.358 -0.1756  0.5478 -0.4079
10418TIP3    H152745   2.295   5.879   3.345  0.3104 -1.9379  1.8334
10418TIP3    H252746   2.441   5.843   3.326  0.9961  1.8571 -1.2660
10419TIP3   OH252747   3.054   0.050  11.854  0.2128 -0.2498 -0.0166
10419TIP3    H152748   3.082   0.132  11.893  1.1967 -0.7714  0.3857
10419TIP3    H252749   3.048   0.069  11.760 -0.3252  0.4785  0.1555
10420TIP3   OH252750   1.857   3.624   1.188 -0.5094  0.0383 -0.0591
10420TIP3    H152751   1.816   3.701   1.149 -1.4161 -0.6240 -0.4293
10420TIP3    H252752   1.871   3.564   1.114 -0.1762 -0.3237  0.2909
10421TIP3   OH252753   5.400   1.113   3.886  0.4187 -0.3270  1.5215
10421TIP3    H152754   5.357   1.063   3.817  0.4188 -1.9014  2.6122
10421TIP3    H252755   5.493   1.094   3.877  0.3641 -1.0222  2.2947
10422TIP3   OH252756   6.723   3.535   1.316 -0.1665 -0.0884  0.1750
10422TIP3    H152757   6.713   3.443   1.290  2.4068  0.1081 -1.9124
10422TIP3    H252758   6.663   3.582   1.258  0.9263 -0.2231 -1.1180
10423TIP3   OH252759   6.394   0.966  16.268  0.3412  0.9195  0.3091
10423TIP3    H152760   6.437   1.043  16.305 -0.1256  1.5034 -0.3284
10423TIP3    H252761   6.454   0.937  16.199  1.4024 -0.4035  1.7199
10424TIP3   OH252762   3.268   6.130   2.701 -0.2481 -0.7455  0.1213
10424TIP3    H152763   3.175   6.148   2.717 -0.7240  0.9885 -3.5243
10424TIP3    H252764   3.314   6.204   2.740 -0.3229 -1.5418  1.8188
10425TIP3   OH252765   2.474   1.462   1.958 -0.2709 -0.3558  0.1637
10425TIP3    H152766   2.505   1.477   1.869  1.0933 -1.3183  0.4451
10425TIP3    H252767   2.552   1.437   2.007 -0.7958  1.1926  1.9093
10426TIP3   OH252768   2.244   6.260   1.824 -0.2583  0.5458 -1.2755
10426TIP3    H152769   2.192   6.240   1.902 -1.6315  1.0715 -2.0234
10426TIP3    H252770   2.304   6.329   1.851 -0.9739  0.9799 -0.7697
10427TIP3   OH252771   1.809   2.461  12.358  0.3176 -0.4916 -0.2399
10427TIP3    H152772   1.762   2.428  12.282  0.8198  0.5402 -1.0283
10427TIP3    H252773   1.859   2.536  12.325  2.1676 -1.2577  0.6335
10428TIP3   OH252774   3.246   1.865  14.364  0.1527  0.3996 -0.0146
10428TIP3    H152775   3.271   1.951  14.329  1.2841  0.8173  1.6654
10428TIP3    H252776   3.174   1.883  14.424 -0.2732  0.0241 -0.4075
10429TIP3   OH252777   4.629   3.260   2.252 -0.2002 -0.0476 -0.4844
10429TIP3    H152778   4.573   3.223   2.184 -0.3616  0.4521 -0.6279
10429TIP3    H252779   4.718   3.249   2.218 -0.2802  0.1901 -0.7700
10430TIP3   OH252780   5.634   0.949   3.838  0.3522  0.3556 -0.1867
10430TIP3    H152781   5.715   0.940   3.788 -0.0446 -0.1071 -0.7533
10430TIP3    H252782   5.644   0.888   3.911  0.9355  1.0413  0.3271
10431TIP3   OH252783   5.371   1.773   6.651 -0.5253 -0.3464 -0.1532
10431TIP3    H152784   5.327   1.715   6.589 -1.4477 -1.2969  1.3275
10431TIP3    H252785   5.442   1.720   6.687 -3.4003 -2.0352  3.7581
10432TIP3   OH252786   2.362   6.144   0.479 -0.4062  0.1927  0.0443
10432TIP3    H152787   2.295   6.159   0.413 -0.0784 -0.4235 -0.4481
10432TIP3    H252788   2.358   6.049   0.496 -1.0000  0.4541  1.4782
10433TIP3   OH252789   5.550   5.945  11.265  0.4941 -0.7849  0.3382
10433TIP3    H152790   5.552   5.899  11.348  1.7162 -0.6336  0.4132
10433TIP3    H252791   5.588   5.883  11.202  1.2919 -0.2478  0.2684
10434TIP3   OH252792   1.809   0.482  11.719 -0.3996 -0.0522  0.0179
10434TIP3    H152793   1.743   0.538  11.679  0.8196 -0.0900 -2.1979
10434TIP3    H252794   1.848   0.537  11.788  0.2641  1.6196 -1.6029
10435TIP3   OH252795   2.129   0.352   2.161  0.6119 -0.8436  0.6418
10435TIP3    H152796   2.196   0.331   2.096  1.4849 -0.2883  1.3480
10435TIP3    H252797   2.112   0.445   2.150  3.4975  0.2358  3.5776
10436TIP3   OH252798   4.506   4.187  13.603  0.0877  0.1013  0.1809
10436TIP3    H152799   4.595   4.152  13.612  0.0569 -0.3276 -0.9668
10436TIP3    H252800   4.453   4.136  13.665  0.0931 -1.7842 -1.2618
10437TIP3   OH252801   6.348   0.453   4.480  0.8773  0.0141 -0.4194
10437TIP3    H152802   6.419   0.491   4.533  0.8572  0.8947 -0.9956
10437TIP3    H252803   6.393   0.409   4.409  0.8568  1.2217 -1.2121
10438TIP3   OH252804   1.139   5.300   2.532  1.0137 -0.4963 -0.1009
10438TIP3    H152805   1.066   5.314   2.471 -0.3274  0.2521  1.6037
10438TIP3    H252806   1.207   5.360   2.502 -0.3420  1.2743  0.2189
10439TIP3   OH252807   3.901   6.321   1.702 -0.0711  0.8455 -0.4683
10439TIP3    H152808   3.982   6.371   1.712  0.5616 -0.4735  2.1300
10439TIP3    H252809   3.904   6.257   1.774 -2.7481 -0.2036 -1.1667
10440TIP3   OH252810   2.612   5.112   1.735 -0.1259  0.2940 -0.2256
10440TIP3    H152811   2.667   5.157   1.670 -0.2146  0.8803  0.1004
10440TIP3    H252812   2.551   5.180   1.766 -1.0101 -0.3335 -0.5477
10441TIP3   OH252813   4.724   2.035  13.543  0.1864 -0.2293 -0.0575
10441TIP3    H152814   4.741   2.110  13.485  1.9937  0.7102  1.5698
10441TIP3    H252815   4.673   2.072  13.615 -1.1200 -1.1535 -0.4917
10442TIP3   OH252816   3.512   3.484   4.369 -0.4039 -0.0562  0.2877
10442TIP3    H152817   3.504   3.577   4.392 -0.9583  0.2042 -0.8559
10442TIP3    H252818   3.602   3.476   4.334 -0.1470 -0.0874  0.9497
10443TIP3   OH252819   3.437   0.720   3.214  0.5443  0.4473  0.0164
10443TIP3    H152820   3.420   0.812   3.235  0.7708  0.0548  2.2373
10443TIP3    H252821   3.353   0.686   3.185  0.1853  1.0846  0.2775
10444TIP3   OH252822   0.154   1.153   3.762 -0.4883  0.3267  0.0841
10444TIP3    H152823   0.196   1.124   3.843 -0.9866  1.2209  0.6851
10444TIP3    H252824   0.118   1.239   3.784  1.1472  1.5203 -1.6922
10445TIP3   OH252825   4.412   6.689   0.928 -0.3743 -0.0748 -0.2085
10445TIP3    H152826   4.481   6.753   0.912  0.9058 -1.6347 -1.2355
10445TIP3    H252827   4.455   6.604   0.918 -2.4090 -1.1092 -0.7566
10446TIP3   OH252828   1.506   1.173   3.901  0.0667  0.1122 -0.1221
10446TIP3    H152829   1.602   1.167   3.905 -0.0248 -1.7552  0.6696
10446TIP3    H252830   1.481   1.110   3.834 -0.5694  2.0982 -1.8600
10447TIP3   OH252831   3.223   0.378  13.313 -0.1485 -0.5085  0.1106
10447TIP3    H152832   3.232   0.348  13.223 -1.2793 -0.3905 -0.0516
10447TIP3    H252833   3.288   0.327  13.362 -0.7808 -1.9059 -0.4622
10448TIP3   OH252834   3.363   1.682  15.147  0.3789 -0.4608  0.1289
10448TIP3    H152835   3.428   1.748  15.123 -1.3390  1.6959  1.0520
10448TIP3    H252836   3.396   1.643  15.228  1.7177 -1.2706 -0.7556
10449TIP3   OH252837   1.123   6.466  15.841 -0.7505  0.0112 -0.1002
10449TIP3    H152838   1.140   6.489  15.932 -2.5083 -0.9756  0.5250
10449TIP3    H252839   1.165   6.535  15.790  0.6735  0.3218  1.4272
10450TIP3   OH252840   6.098   6.733  16.630 -0.0299  0.2615 -0.4957
10450TIP3    H152841   6.037   6.807  16.622  0.5318  0.7558 -0.2854
10450TIP3    H252842   6.182   6.774  16.651  0.6439 -0.3167 -1.9383
10451TIP3   OH252843   1.886   4.725  11.248 -0.1109 -0.0705  0.6339
10451TIP3    H152844   1.818   4.717  11.181  2.1594  1.4735 -2.0349
10451TIP3    H252845   1.896   4.819  11.261  2.0971 -0.2198  0.3015
10452TIP3   OH252846   1.389   5.038   0.308  0.0058  0.3978  0.3411
10452TIP3    H152847   1.299   5.011   0.325  0.0256  0.6968  0.9662
10452TIP3    H252848   1.426   4.968   0.254 -1.0896  1.0661 -1.3487
10453TIP3   OH252849   1.096   5.108  13.690 -0.0597 -0.2747  0.6868
10453TIP3    H152850   1.092   5.104  13.595 -1.3358  1.7914  0.5948
10453TIP3    H252851   1.045   5.033  13.720 -0.6106 -0.2945 -0.2671
10454TIP3   OH252852   6.142   4.406   0.808 -0.8546 -0.1711 -0.0258
10454TIP3    H152853   6.080   4.477   0.792 -0.5143  0.0420 -0.4071
10454TIP3    H252854   6.157   4.408   0.902 -1.1508  0.0074  0.0185
10455TIP3   OH252855   5.283   5.719   1.240 -0.1103 -0.8847 -0.6621
10455TIP3    H152856   5.207   5.775   1.229 -0.1344 -0.8551 -0.3295
10455TIP3    H252857   5.353   5.778   1.269 -0.1978 -1.0673 -0.0751
10456TIP3   OH252858   3.699   6.589  10.911  0.3322 -0.0605 -0.4415
10456TIP3    H152859   3.738   6.584  10.824 -0.9272 -0.5839 -0.9873
10456TIP3    H252860   3.735   6.513  10.958  1.3195  0.4442 -0.3526
10457TIP3   OH252861   6.429   4.210   3.871  0.8781  0.5177  0.3508
10457TIP3    H152862   6.358   4.222   3.934  0.8523  0.5554  0.3149
10457TIP3    H252863   6.455   4.119   3.880 -0.7226 -0.1613 -1.2620
10458TIP3   OH252864   0.283   1.553  13.461  0.7597 -0.4974  0.0218
10458TIP3    H152865   0.303   1.583  13.372 -0.0867  0.1841  0.0348
10458TIP3    H252866   0.213   1.488  13.449 -0.0251  0.2805  0.2262
10459TIP3   OH252867   0.897   1.278  12.746  0.0306  0.2209  0.8946
10459TIP3    H152868   0.888   1.354  12.803 -2.1764 -0.6975  1.9035
10459TIP3    H252869   0.839   1.296  12.672 -0.5181 -0.4502  1.1494
10460TIP3   OH252870   3.514   5.074   3.981 -0.4098 -0.5776  0.5577
10460TIP3    H152871   3.553   5.029   3.906 -1.6629 -1.0232  0.1350
10460TIP3    H252872   3.453   5.137   3.941  0.9102  1.1510  1.1463
10461TIP3   OH252873   1.959   4.081  16.567  0.1190  0.1172  0.5539
10461TIP3    H152874   1.958   4.159  16.513 -0.7640 -0.0584  0.3017
10461TIP3    H252875   2.044   4.083  16.611  0.6500  0.5051 -0.4758
10462TIP3   OH252876   3.519   4.924   0.975 -0.5419 -0.1744  0.2040
10462TIP3    H152877   3.455   4.861   1.008 -0.1875 -0.0611  1.1183
10462TIP3    H252878   3.565   4.877   0.905 -1.1224 -0.4980  0.0256
10463TIP3   OH252879   4.124   0.043   0.163  0.7379 -0.2885 -0.3732
10463TIP3    H152880   4.037   0.047   0.204  0.6010 -0.7599 -0.6035
10463TIP3    H252881   4.125  -0.041   0.117  1.7623 -0.8741  0.6488
10464TIP3   OH252882   3.466   3.747  15.085  0.1784  0.1802  0.2685
10464TIP3    H152883   3.425   3.661  15.074  4.0998 -1.7664 -0.9882
10464TIP3    H252884   3.442   3.795  15.007 -1.8547  0.2238  0.8601
10465TIP3   OH252885   1.964   6.321  11.076 -0.1734  0.3509 -0.0047
10465TIP3    H152886   1.958   6.256  11.146  1.1081  0.1218 -0.0896
10465TIP3    H252887   1.962   6.269  10.995 -1.3938  0.5983 -0.1641
10466TIP3   OH252888   5.545   1.186   2.517  0.4043 -0.6834  0.3739
10466TIP3    H152889   5.603   1.262   2.508 -0.7214 -0.0246 -2.4009
10466TIP3    H252890   5.457   1.221   2.502 -0.2929 -2.3261  0.4164
10467TIP3   OH252891   6.215   0.321  11.947 -0.2148 -0.2530  0.3451
10467TIP3    H152892   6.202   0.322  11.852 -0.2718  2.8435  0.2942
10467TIP3    H252893   6.271   0.244  11.962  1.5635  0.3257 -2.4714
10468TIP3   OH252894   2.991   1.305  12.002  0.2284 -0.1042 -0.2001
10468TIP3    H152895   2.918   1.286  11.943 -0.8480 -0.3661  1.1538
10468TIP3    H252896   3.069   1.300  11.947 -0.8509  1.6871 -2.0635
10469TIP3   OH252897   4.169   0.829   2.057 -0.1047 -0.0603  0.1546
10469TIP3    H152898   4.119   0.824   1.976  0.8593  0.8474 -0.5228
10469TIP3    H252899   4.106   0.864   2.121 -0.7682 -0.4306 -0.2787
10470TIP3   OH252900   5.087   6.246  14.503 -0.3869  0.3097 -0.1262
10470TIP3    H152901   5.165   6.240  14.558  1.1529  2.5624 -1.8944
10470TIP3    H252902   5.097   6.175  14.439 -0.3346 -0.0242  0.2441
10471TIP3   OH252903   1.553   3.814  11.003 -0.2265 -0.4574  0.4557
10471TIP3    H152904   1.539   3.828  11.096 -1.7352  1.2223  0.0274
10471TIP3    H252905   1.467   3.830  10.963  0.7399  0.5202 -1.3748
10472TIP3   OH252906   1.734   0.753  11.936 -0.4444 -0.1219  0.1565
10472TIP3    H152907   1.661   0.809  11.910  1.0498  1.9983  0.2692
10472TIP3    H252908   1.795   0.757  11.862 -0.1869 -1.4358  0.2768
10473TIP3   OH252909   5.364   2.241  12.860  0.5168 -0.0257 -0.2282
10473TIP3    H152910   5.386   2.240  12.767  1.2032 -2.0175 -0.0973
10473TIP3    H252911   5.382   2.152  12.890  1.8369  0.9262  2.1592
10474TIP3   OH252912   5.875   5.343   4.636  0.0117 -0.3120  0.7391
10474TIP3    H152913   5.906   5.421   4.591  1.7285 -1.2545  0.1987
10474TIP3    H252914   5.831   5.292   4.568 -0.2244 -0.2775  0.8654
10475TIP3   OH252915   5.382   2.434  15.372 -0.1652  0.0036 -0.7302
10475TIP3    H152916   5.394   2.510  15.429  0.3905  0.2933 -1.2209
10475TIP3    H252917   5.298   2.449  15.329 -0.1146  0.2772 -0.7326
10476TIP3   OH252918   5.228   5.293   0.995  0.4524  0.4398 -0.1832
10476TIP3    H152919   5.185   5.361   0.944  0.5347  0.9367  0.4017
10476TIP3    H252920   5.263   5.339   1.072  1.1684 -0.1214 -0.1611
10477TIP3   OH252921   3.020   4.077  13.951 -0.7671  0.4457  0.4873
10477TIP3    H152922   3.032   4.034  13.866 -0.0114 -2.6135  1.9929
10477TIP3    H252923   3.107   4.109  13.974 -0.2807 -1.3809  1.3480
10478TIP3   OH252924   1.338   0.323   0.918  0.5517  0.3259  0.1887
10478TIP3    H152925   1.314   0.391   0.854  0.3619  0.6808  0.6307
10478TIP3    H252926   1.278   0.251   0.901  0.2920  0.5446  0.1733
10479TIP3   OH252927   0.347   1.055   3.572 -0.3479  0.0175 -0.4762
10479TIP3    H152928   0.372   0.963   3.576  0.9725  0.2842 -1.7756
10479TIP3    H252929   0.267   1.060   3.624 -1.3698 -2.1597 -1.7147
10480TIP3   OH252930   1.171   0.730   4.066 -0.0844  0.4323 -0.3151
10480TIP3    H152931   1.133   0.669   4.129  0.7861  1.3756  1.1963
10480TIP3    H252932   1.212   0.798   4.120 -1.4495  2.6635 -1.8837
10481TIP3   OH252933   2.651   5.792   5.441  0.0463 -0.1145 -0.2112
10481TIP3    H152934   2.650   5.828   5.530 -0.1909  0.1345 -0.3121
10481TIP3    H252935   2.559   5.775   5.421 -0.1380  1.7164 -1.1532
10482TIP3   OH252936   3.886   0.762  11.139 -0.0046  0.1571 -0.0889
10482TIP3    H152937   3.866   0.855  11.134 -1.8157 -0.1945 -0.1438
10482TIP3    H252938   3.931   0.742  11.057  1.8390  1.2533  0.5943
10483TIP3   OH252939   5.169   6.079   2.390  0.4646 -0.1071  0.1259
10483TIP3    H152940   5.075   6.063   2.386  0.6905 -2.3231  1.7418
10483TIP3    H252941   5.201   6.057   2.302 -0.3405 -0.9887  0.0328
10484TIP3   OH252942   1.841   1.508  14.960 -0.0958  0.3583 -0.5012
10484TIP3    H152943   1.866   1.599  14.976  0.2010  0.2179 -0.1403
10484TIP3    H252944   1.760   1.513  14.910 -0.3525  0.8148 -0.0429
10485TIP3   OH252945   6.629   5.322   3.452  0.1988 -0.3672  0.5250
10485TIP3    H152946   6.619   5.417   3.456  0.4574 -0.1793 -1.9790
10485TIP3    H252947   6.682   5.301   3.529  0.6080  1.5763  0.8374
10486TIP3   OH252948   5.991   5.343   0.127 -0.1590  0.4205  0.0804
10486TIP3    H152949   5.918   5.392   0.090  0.3046  1.0112 -0.0610
10486TIP3    H252950   5.950   5.269   0.172 -0.9034  1.1924  0.6899
10487TIP3   OH252951   1.545   1.194   4.339 -0.3597 -0.0243 -0.6405
10487TIP3    H152952   1.623   1.178   4.285 -1.0957  0.3209 -1.8200
10487TIP3    H252953   1.524   1.108   4.376  1.3673  0.1195  0.8185
10488TIP3   OH252954   6.752   2.574   5.169  0.4524  0.0288  0.1703
10488TIP3    H152955   6.723   2.492   5.208  0.2034 -0.2911 -0.6675
10488TIP3    H252956   6.843   2.584   5.198  1.4525 -2.0025 -2.0140
10489TIP3   OH252957   3.374   1.666   1.325 -0.3285 -0.0610 -0.0203
10489TIP3    H152958   3.332   1.662   1.410  0.9124 -1.6066  0.5865
10489TIP3    H252959   3.468   1.666   1.344 -0.0209 -0.5902 -1.3566
10490TIP3   OH252960   3.844   3.366   4.881 -0.0652  0.2457 -0.0719
10490TIP3    H152961   3.905   3.352   4.953 -0.8654  1.0330  0.7831
10490TIP3    H252962   3.793   3.284   4.877 -0.4802  0.4617  0.7183
10491TIP3   OH252963   4.229   2.409   5.748  0.5021 -0.1052 -0.1716
10491TIP3    H152964   4.310   2.366   5.775  1.3987  0.7391 -1.3986
10491TIP3    H252965   4.169   2.337   5.727  0.6176 -0.7489  1.5370
10492TIP3   OH252966   6.779   0.190  15.510 -0.8738  0.8609  0.2702
10492TIP3    H152967   6.843   0.242  15.462 -0.0971 -1.1723 -1.0564
10492TIP3    H252968   6.694   0.222  15.480 -0.4204 -0.2624 -2.5364
10493TIP3   OH252969   5.947   0.709  14.517 -0.0989 -0.4325 -0.2590
10493TIP3    H152970   5.896   0.670  14.446  0.0281  0.1675 -0.6844
10493TIP3    H252971   5.890   0.703  14.593 -1.5672  1.8158 -1.0797
10494TIP3   OH252972   5.100   3.048  16.372  0.2820 -0.1401  0.3368
10494TIP3    H152973   5.025   3.007  16.415 -2.2858  2.0578 -1.6766
10494TIP3    H252974   5.101   3.138  16.407  0.7244  0.4258 -1.0794
10495TIP3   OH252975   3.968   1.077   3.302 -0.4327  0.1373  0.8016
10495TIP3    H152976   3.982   1.033   3.218 -0.9629  1.9398 -0.2894
10495TIP3    H252977   4.056   1.095   3.334 -0.0916  2.6828 -1.2248
10496TIP3   OH252978   3.466   2.187  13.516  0.5705  0.1554 -0.1083
10496TIP3    H152979   3.380   2.221  13.539  0.4645 -0.4231  0.3575
10496TIP3    H252980   3.463   2.176  13.421 -0.2998 -1.0146  0.0408
10497TIP3   OH252981   0.628   4.961  15.434  0.6299  0.0085  0.1342
10497TIP3    H152982   0.584   5.041  15.405  2.0611  0.4749 -0.8524
10497TIP3    H252983   0.570   4.924  15.500 -1.7841  0.0015 -1.8447
10498TIP3   OH252984   3.059   1.073   4.067 -0.1397  0.6975  0.1225
10498TIP3    H152985   2.993   1.131   4.027  0.8341  0.1375 -2.5006
10498TIP3    H252986   3.010   0.998   4.098 -0.8461  0.5404 -1.3030
10499TIP3   OH252987   5.966   6.783   4.850  0.0699 -0.0394 -0.1573
10499TIP3    H152988   6.031   6.853   4.858  0.4626 -0.3262 -0.7244
10499TIP3    H252989   5.882   6.827   4.865  0.4235  0.1955  1.3584
10500TIP3   OH252990   4.756   1.426   6.811 -0.9740  0.1148 -0.1967
10500TIP3    H152991   4.761   1.330   6.813 -0.3868  0.1442  0.6771
10500TIP3    H252992   4.669   1.447   6.845 -1.8170 -0.1326 -2.1075
10501TIP3   OH252993   5.334   3.245   4.030 -0.3434  0.6928 -0.0240
10501TIP3    H152994   5.419   3.210   4.005 -1.0129 -1.1962  0.1181
10501TIP3    H252995   5.278   3.230   3.953 -1.4522 -1.6533  1.1246
10502TIP3   OH252996   5.858   3.822  12.168 -0.3160  0.1284  0.1556
10502TIP3    H152997   5.860   3.910  12.206  1.0509  0.5056 -0.7213
10502TIP3    H252998   5.885   3.765  12.240  0.7699  0.6640  0.1937
10503TIP3   OH252999   3.794   0.273  14.592  0.0922 -0.0841 -0.0171
10503TIP3    H153000   3.842   0.355  14.604 -2.4860  1.4065  0.8942
10503TIP3    H253001   3.729   0.273  14.662  0.1500 -3.0707  0.1505
10504TIP3   OH253002   6.049   2.652  12.615  0.0977  0.0415 -0.3153
10504TIP3    H153003   6.038   2.746  12.604 -0.8645 -0.0858 -0.5009
10504TIP3    H253004   6.053   2.618  12.526 -2.2522 -0.3800 -0.3053
10505TIP3   OH253005   2.027   5.176  12.103  0.1505 -1.1489  0.5628
10505TIP3    H153006   2.021   5.149  12.195  1.1043 -2.1248  0.3507
10505TIP3    H253007   2.015   5.095  12.053 -0.0977 -0.6678 -0.1681
10506TIP3   OH253008   5.531   5.906   5.253  0.2162 -0.6465  0.3799
10506TIP3    H153009   5.591   5.850   5.303 -0.4494 -2.0883 -0.3548
10506TIP3    H253010   5.445   5.890   5.294 -0.4032 -2.1100 -1.3281
10507TIP3   OH253011   1.400   4.484   0.193 -0.2646  0.1829 -0.1774
10507TIP3    H153012   1.435   4.492   0.104  1.4530  1.9106  0.5634
10507TIP3    H253013   1.306   4.467   0.181 -0.6933  3.2743 -2.3774
10508TIP3   OH253014   3.513   3.274   2.957  0.5121 -0.0313 -0.4342
10508TIP3    H153015   3.600   3.301   2.985  0.0846  1.5760 -0.5877
10508TIP3    H253016   3.527   3.186   2.920  1.5335 -1.0855  2.2154
10509TIP3   OH253017   5.804   2.927   3.338 -0.2424  0.0340 -0.0030
10509TIP3    H153018   5.896   2.905   3.347 -0.4749 -1.5294 -1.0267
10509TIP3    H253019   5.768   2.920   3.427  0.3830 -0.5592  0.2097
10510TIP3   OH253020   1.330   6.755   2.843  0.6469 -0.9451 -0.3771
10510TIP3    H153021   1.317   6.767   2.749  0.5801 -0.9350 -0.3670
10510TIP3    H253022   1.329   6.661   2.857  0.7192 -0.9486 -0.3951
10511TIP3   OH253023   0.391   5.676  11.618 -0.0286 -0.7398  0.5034
10511TIP3    H153024   0.390   5.769  11.639  1.7225 -0.7162  0.6357
10511TIP3    H253025   0.308   5.660  11.574 -0.4349  0.8393  0.6580
10512TIP3   OH253026   2.948   1.375   2.193  0.3978  0.4119  1.0173
10512TIP3    H153027   3.002   1.418   2.126  0.6874 -0.5520  0.6162
10512TIP3    H253028   2.985   1.405   2.276  0.6652  0.8432  0.7495
10513TIP3   OH253029   6.202   2.657   2.625 -0.1828 -0.0656  0.2792
10513TIP3    H153030   6.292   2.688   2.631 -0.7054  1.7820 -0.6283
10513TIP3    H253031   6.151   2.734   2.600 -2.3584 -0.5589  2.7460
10514TIP3   OH253032   5.360   4.014   0.176  0.5286 -0.1454 -0.1591
10514TIP3    H153033   5.410   4.035   0.255 -0.6751  0.3716  0.4976
10514TIP3    H253034   5.314   4.096   0.155 -1.0424 -0.9430  0.0403
10515TIP3   OH253035   2.075   5.739   5.685  0.6056  0.0331  0.3286
10515TIP3    H153036   2.052   5.830   5.701  0.9782  0.1771  0.0714
10515TIP3    H253037   2.107   5.707   5.769  1.4734  0.4490  0.1686
10516TIP3   OH253038   4.532   4.416  12.890  0.0685  0.3111 -0.3609
10516TIP3    H153039   4.602   4.447  12.948 -0.7540  2.9237 -0.6400
10516TIP3    H253040   4.454   4.418  12.945 -0.1964 -0.2119 -0.7217
10517TIP3   OH253041   5.904   1.416  11.996  0.1983 -0.6419  0.2081
10517TIP3    H153042   5.864   1.391  12.080  0.6301 -2.3816 -0.0816
10517TIP3    H253043   5.977   1.355  11.985  0.0998 -0.4865 -1.4732
10518TIP3   OH253044   3.152   5.579  17.079 -0.4407  0.0282  0.8536
10518TIP3    H153045   3.160   5.514  17.009 -0.9360 -0.7139  1.4668
10518TIP3    H253046   3.204   5.654  17.049 -0.0438 -0.5633  0.0343
10519TIP3   OH253047   3.347   4.700   1.114 -0.0592  0.0923 -0.2134
10519TIP3    H153048   3.291   4.690   1.037  0.1902  0.8118 -0.5042
10519TIP3    H253049   3.291   4.679   1.188  0.0735 -2.0202 -0.6476
10520TIP3   OH253050   3.387   0.667  12.499 -0.6647  0.7948  0.0795
10520TIP3    H153051   3.405   0.692  12.408  0.3346  0.6592  0.2360
10520TIP3    H253052   3.455   0.604  12.521 -0.3086  1.5571  1.2461
10521TIP3   OH253053   6.360   2.639   6.365 -0.3491  0.5040 -0.5548
10521TIP3    H153054   6.361   2.726   6.327 -1.0207  1.4454  1.4349
10521TIP3    H253055   6.270   2.609   6.356 -0.2399  0.2294 -0.7636
10522TIP3   OH253056   1.761   0.302  12.618 -0.1535  0.2156  0.4727
10522TIP3    H153057   1.810   0.377  12.653  1.2624  0.0568 -1.0861
10522TIP3    H253058   1.753   0.320  12.525  0.2926 -1.6077  0.0412
10523TIP3   OH253059   0.677   2.193  12.871  0.2941 -0.8819  0.9145
10523TIP3    H153060   0.700   2.183  12.963  1.5015 -2.2415  0.5182
10523TIP3    H253061   0.584   2.173  12.866  0.5315 -2.3027  1.6660
10524TIP3   OH253062   4.630   1.397   3.054  0.2143 -0.0602 -0.7576
10524TIP3    H153063   4.616   1.401   3.149 -0.7241 -0.0352 -0.8817
10524TIP3    H253064   4.659   1.307   3.038 -1.8050 -0.7886 -0.6778
10525TIP3   OH253065   1.769   1.956  16.966 -0.1272  0.0901  0.0294
10525TIP3    H153066   1.763   1.867  17.000 -1.5897 -0.5753 -1.7402
10525TIP3    H253067   1.843   1.995  17.012  0.9467 -2.2340  0.4282
10526TIP3   OH253068   3.290   1.270  14.486  0.4950  0.2603 -0.2092
10526TIP3    H153069   3.246   1.326  14.421 -1.5198 -2.1772 -1.0891
10526TIP3    H253070   3.369   1.240  14.441  0.6051  0.8570 -0.4309
10527TIP3   OH253071   3.970   0.382   5.615  0.2013 -0.6865 -0.7068
10527TIP3    H153072   3.960   0.293   5.580 -0.2373 -0.7457 -0.4317
10527TIP3    H253073   3.976   0.437   5.537  0.2958 -0.9374 -0.8787
10528TIP3   OH253074   1.631   4.919  16.005  0.2018  0.3740 -0.3869
10528TIP3    H153075   1.658   4.829  15.989 -0.7808  0.0038 -0.0572
10528TIP3    H253076   1.564   4.912  16.073  0.1769  1.3644 -0.2949
10529TIP3   OH253077   2.847   4.773   5.707 -0.0189 -0.2896 -0.4726
10529TIP3    H153078   2.874   4.693   5.752 -0.0606  0.1616  0.3683
10529TIP3    H253079   2.850   4.750   5.614  0.7359 -1.0216 -0.2776
10530TIP3   OH253080   5.064   5.621   5.202 -0.6712  0.7936  0.0017
10530TIP3    H153081   4.985   5.566   5.205  0.3556 -0.7562 -0.2139
10530TIP3    H253082   5.091   5.630   5.293  0.1523 -0.6132 -0.0743
10531TIP3   OH253083   0.791   4.849   2.595 -0.5112  0.0168  0.3972
10531TIP3    H153084   0.820   4.940   2.590  0.3853 -0.2111  1.1187
10531TIP3    H253085   0.861   4.804   2.643 -2.1763 -0.4860  2.5487
10532TIP3   OH253086   0.743   4.014  12.528  0.1770 -0.0701 -0.2883
10532TIP3    H153087   0.731   3.947  12.594 -0.5374  1.7805  1.5697
10532TIP3    H253088   0.659   4.018  12.482  0.1665 -0.3172 -0.2896
10533TIP3   OH253089   1.109   3.350   0.621 -0.3677 -0.2566  0.5201
10533TIP3    H153090   1.131   3.274   0.675  0.2454  0.1819  0.9077
10533TIP3    H253091   1.048   3.316   0.556  1.4814 -1.5625 -0.6194
10534TIP3   OH253092   2.633   3.156  11.718  0.1743 -0.3508  0.0248
10534TIP3    H153093   2.555   3.210  11.730 -0.4298 -1.6065  2.3642
10534TIP3    H253094   2.623   3.119  11.630 -1.4453  0.1586 -0.0412
10535TIP3   OH253095   0.023   6.693  11.192  0.1094  0.9473  0.2669
10535TIP3    H153096   0.007   6.769  11.136 -0.1584  1.5801  1.1912
10535TIP3    H253097   0.063   6.629  11.133 -1.4377  1.0594 -1.0042
10536TIP3   OH253098   4.146   5.616   4.585  0.3410  0.2496  0.3945
10536TIP3    H153099   4.052   5.608   4.572  0.1095  3.3573 -0.5629
10536TIP3    H253100   4.157   5.691   4.643  2.2526  0.4464 -0.1446
10537TIP3   OH253101   5.228   0.879   4.762 -0.0914  0.3490 -0.4032
10537TIP3    H153102   5.261   0.947   4.820  1.3227 -1.0759  0.5491
10537TIP3    H253103   5.171   0.826   4.818 -0.7909  0.4490 -1.0084
10538TIP3   OH253104   0.211   3.188   6.563 -0.0991  0.1534  0.7586
10538TIP3    H153105   0.296   3.152   6.586  0.2197  1.0537  1.0406
10538TIP3    H253106   0.230   3.257   6.500 -0.6708 -0.0043  0.4083
10539TIP3   OH253107   0.645   0.507   2.593 -0.1140  0.2980  0.3760
10539TIP3    H153108   0.611   0.476   2.676 -0.2593 -2.2842 -0.5543
10539TIP3    H253109   0.741   0.506   2.604 -0.1124 -0.5761  0.3746
10540TIP3   OH253110   4.945   0.809  12.670 -0.5320 -0.1670 -0.5557
10540TIP3    H153111   4.917   0.737  12.726 -0.2849 -0.8276 -1.2616
10540TIP3    H253112   4.922   0.781  12.581  1.3935 -0.3004 -1.0747
10541TIP3   OH253113   0.804   5.224   6.265  0.2062 -0.2961 -0.0561
10541TIP3    H153114   0.764   5.307   6.288  1.4170  0.5233 -0.8200
10541TIP3    H253115   0.779   5.165   6.337 -0.1353  0.8735  0.8172
10542TIP3   OH253116   4.789   4.900   1.916  0.0536  0.2477  0.1273
10542TIP3    H153117   4.738   4.825   1.887 -0.3128  0.4687  0.1876
10542TIP3    H253118   4.860   4.908   1.852  1.0157 -1.0881  0.9870
10543TIP3   OH253119   6.659   5.847   3.470 -0.5223  0.2190  0.8541
10543TIP3    H153120   6.626   5.758   3.484 -0.7748  0.2972  0.7628
10543TIP3    H253121   6.607   5.880   3.396  1.8880 -0.7905 -1.4685
10544TIP3   OH253122   5.797   4.886   4.582 -0.1829  0.2584  0.1242
10544TIP3    H153123   5.792   4.937   4.501 -3.0205 -1.3716 -0.8837
10544TIP3    H253124   5.849   4.809   4.559 -2.2676 -0.9714 -0.7168
10545TIP3   OH253125   6.571   6.787   5.810 -0.2018  0.1489 -0.2005
10545TIP3    H153126   6.521   6.866   5.829  1.7934  1.1061  1.5379
10545TIP3    H253127   6.611   6.763   5.894  2.9611  0.0392 -1.5767
10546TIP3   OH253128   6.136   4.471   1.075  0.6702  0.2735 -0.4768
10546TIP3    H153129   6.044   4.489   1.059 -0.1966 -2.1765  1.3199
10546TIP3    H253130   6.157   4.521   1.154  0.1899 -1.0282  0.4933
10547TIP3   OH253131   0.634   3.804   1.465 -0.3749  0.1547 -0.0207
10547TIP3    H153132   0.575   3.734   1.437  0.9235 -0.0728 -2.5006
10547TIP3    H253133   0.720   3.762   1.472  0.2454  1.2764 -0.5657
10548TIP3   OH253134   1.044   5.236  13.031 -0.3083  0.4527  0.3920
10548TIP3    H153135   0.975   5.253  13.095  0.2085  0.9440  0.8285
10548TIP3    H253136   1.012   5.160  12.982 -1.4793  1.1023  0.1129
10549TIP3   OH253137   6.313   1.422  13.035  0.0080 -0.1078  0.2300
10549TIP3    H153138   6.228   1.379  13.029 -0.3664  0.5890  0.4934
10549TIP3    H253139   6.299   1.510  13.000  0.4331  0.2696  0.9830
10550TIP3   OH253140   2.175   3.226   1.284 -0.1421 -0.4173 -0.0851
10550TIP3    H153141   2.198   3.263   1.369 -2.1778 -2.2353  1.3661
10550TIP3    H253142   2.091   3.266   1.262 -0.2301 -0.8991 -0.6479
10551TIP3   OH253143   4.011   1.789   4.078 -0.3428 -0.4127  0.1058
10551TIP3    H153144   4.103   1.765   4.076  0.2371  1.2405  2.6598
10551TIP3    H253145   4.010   1.883   4.060 -1.2850 -0.0173  1.9573
10552TIP3   OH253146   2.538   0.416   5.663 -0.1532 -0.5808 -0.1854
10552TIP3    H153147   2.581   0.501   5.668  1.8481 -1.4750 -0.8544
10552TIP3    H253148   2.467   0.420   5.727 -0.2360  1.6333 -0.3593
10553TIP3   OH253149   3.458   3.703   6.137 -0.0995  0.0434  0.2133
10553TIP3    H153150   3.430   3.660   6.056  1.6846 -1.8284  0.5213
10553TIP3    H253151   3.535   3.754   6.112 -0.9719  1.4626  0.2895
10554TIP3   OH253152   4.856   5.163  15.130  0.0143  0.0660 -0.1270
10554TIP3    H153153   4.820   5.233  15.184  2.3405  0.7882  0.6241
10554TIP3    H253154   4.823   5.181  15.042 -0.7637  1.1303  0.3592
10555TIP3   OH253155   0.535   2.623  10.918  0.3846  0.7584 -0.4744
10555TIP3    H153156   0.481   2.702  10.927 -0.8918  0.0359 -1.3558
10555TIP3    H253157   0.559   2.620  10.825 -3.6669 -2.2805 -1.7393
10556TIP3   OH253158   0.172   1.257   1.607  0.4153 -0.0120  0.5094
10556TIP3    H153159   0.120   1.267   1.527  0.2573 -0.6489  0.5271
10556TIP3    H253160   0.257   1.295   1.585  0.5294 -0.6313 -0.1231
10557TIP3   OH253161   6.522   6.164  15.558  0.5114  0.6767 -0.3572
10557TIP3    H153162   6.480   6.154  15.473 -0.4054 -0.9452  0.2362
10557TIP3    H253163   6.485   6.244  15.594 -0.6101  0.3158 -0.6663
10558TIP3   OH253164   4.209   3.387   4.450  0.1896  0.0034 -0.2911
10558TIP3    H153165   4.116   3.372   4.439  0.0608  0.3334  0.3054
10558TIP3    H253166   4.227   3.465   4.396 -0.6579  2.2882  2.4462
10559TIP3   OH253167   0.105   5.157   3.950 -0.0020 -0.0712 -0.0211
10559TIP3    H153168   0.052   5.119   3.880  0.9741  0.0188 -0.8368
10559TIP3    H253169   0.188   5.109   3.946  1.3574  2.1788 -1.2403
10560TIP3   OH253170   4.208   2.997  16.779 -0.4201  0.6091  0.0779
10560TIP3    H153171   4.166   2.965  16.859 -1.4572  0.3916 -0.5379
10560TIP3    H253172   4.181   2.936  16.711  1.4348  0.0777 -0.2566
10561TIP3   OH253173   2.066   5.766   1.064  0.2002 -0.4342 -0.5542
10561TIP3    H153174   2.147   5.794   1.021  0.5133 -0.6785 -0.1252
10561TIP3    H253175   2.012   5.732   0.993  0.3054  0.1183 -0.9045
10562TIP3   OH253176   4.121   6.125  13.256 -0.3733 -0.6730 -0.3497
10562TIP3    H153177   4.184   6.053  13.257  0.0262 -0.4787 -3.1195
10562TIP3    H253178   4.169   6.200  13.292 -0.2941 -1.3822  1.0908
10563TIP3   OH253179   3.599   3.772   2.689  0.3749 -0.5348 -0.0885
10563TIP3    H153180   3.522   3.826   2.708  0.2015 -1.1604  1.1053
10563TIP3    H253181   3.657   3.829   2.639  0.4471  0.9653  1.6172
10564TIP3   OH253182   4.565   4.136   0.336  0.1021  0.7220 -0.2639
10564TIP3    H153183   4.471   4.144   0.354  0.0293  0.6911 -0.6328
10564TIP3    H253184   4.594   4.063   0.392  0.0530  1.1976  0.3950
10565TIP3   OH253185   3.924   6.347   2.751 -0.5428 -0.0453  0.0691
10565TIP3    H153186   4.012   6.346   2.714  0.0841  1.5996  1.3793
10565TIP3    H253187   3.903   6.255   2.765  1.6268 -0.4488  1.1449
10566TIP3   OH253188   3.177   4.411   0.173 -0.2629  0.1643 -0.2212
10566TIP3    H153189   3.131   4.493   0.153  0.5700  0.8800  0.6758
10566TIP3    H253190   3.267   4.439   0.191  0.4442 -1.1495 -1.5108
10567TIP3   OH253191   1.697   0.865   6.073  0.3175  0.2900 -0.7331
10567TIP3    H153192   1.767   0.821   6.025  1.1031  2.1355 -1.3634
10567TIP3    H253193   1.740   0.939   6.115 -1.0714  0.8328 -0.2238
10568TIP3   OH253194   1.726   1.545  13.276  0.5877 -0.0408  0.5325
10568TIP3    H153195   1.715   1.485  13.202  0.0435 -0.0468  0.6211
10568TIP3    H253196   1.689   1.499  13.351 -0.7692  0.8105  0.4073
10569TIP3   OH253197   1.194   6.151  13.298 -0.0128 -0.3113  0.2660
10569TIP3    H153198   1.282   6.115  13.307 -0.7900 -2.6322 -0.7774
10569TIP3    H253199   1.173   6.141  13.205 -1.7718 -0.8573  0.6807
10570TIP3   OH253200   4.764   5.655  13.725  0.0379 -0.5008 -0.1312
10570TIP3    H153201   4.841   5.620  13.680  0.1242 -1.1485  0.4973
10570TIP3    H253202   4.726   5.579  13.770 -0.5397 -0.0408  0.1694
10571TIP3   OH253203   2.776   1.171  10.753 -0.3561 -0.3817  0.0325
10571TIP3    H153204   2.798   1.103  10.689  0.9894 -0.2989  0.3724
10571TIP3    H253205   2.809   1.137  10.836  0.4263  0.7155  0.1895
10572TIP3   OH253206   0.019   3.416  13.587  0.8093 -0.3596  0.2080
10572TIP3    H153207   0.102   3.422  13.635  0.9202 -0.5561  0.0405
10572TIP3    H253208  -0.045   3.393  13.654  0.7083  0.7663  0.5280
10573TIP3   OH253209   2.143   4.736  11.156 -0.5916  0.0548  0.5214
10573TIP3    H153210   2.140   4.791  11.077 -1.1695  1.1641  1.2949
10573TIP3    H253211   2.052   4.718  11.177 -0.6667  2.5713  2.8036
10574TIP3   OH253212   5.771   4.683  14.502 -0.4879 -0.4490 -0.0049
10574TIP3    H153213   5.729   4.664  14.586 -0.4289 -0.8974 -0.0749
10574TIP3    H253214   5.840   4.617  14.494  0.0106  0.0675 -0.0506
10575TIP3   OH253215   4.512   4.518   1.164 -0.5536  0.5307 -0.1299
10575TIP3    H153216   4.569   4.504   1.088  0.2183 -1.9806  0.8123
10575TIP3    H253217   4.499   4.613   1.167  3.4164  1.2602 -0.5314
10576TIP3   OH253218   1.035   2.524   4.633  0.1937  0.2234 -0.5182
10576TIP3    H153219   1.024   2.433   4.661 -0.6402  0.6742  0.7228
10576TIP3    H253220   1.129   2.534   4.620  0.8389  0.2071  3.1425
10577TIP3   OH253221   4.287   5.239   0.330 -0.0829 -0.2240  0.6154
10577TIP3    H153222   4.318   5.278   0.412 -1.2036  1.4293  0.2954
10577TIP3    H253223   4.274   5.147   0.352  3.6906 -0.8095  1.1128
10578TIP3   OH253224   6.234   0.314   2.495 -0.2088  0.0598 -0.3756
10578TIP3    H153225   6.328   0.304   2.480 -0.1884 -1.1137  0.4591
10578TIP3    H253226   6.223   0.407   2.515  0.6889  0.3180 -1.0137
10579TIP3   OH253227   2.774   0.232  15.406  0.1066 -0.1121  0.3693
10579TIP3    H153228   2.806   0.217  15.318  1.2019  0.0798  0.7212
10579TIP3    H253229   2.681   0.250  15.395  0.4578  1.0960 -0.8671
10580TIP3   OH253230   4.242   1.944  14.259  0.1120  0.0634 -0.2933
10580TIP3    H153231   4.241   2.027  14.306  0.0669 -0.1263  0.0420
10580TIP3    H253232   4.161   1.900  14.286  0.0797 -0.0427 -0.5568
10581TIP3   OH253233   4.165   4.677   5.607 -0.7338 -0.0952 -0.7991
10581TIP3    H153234   4.168   4.585   5.583  0.3147 -0.3889  0.3306
10581TIP3    H253235   4.085   4.687   5.659 -0.4132 -0.5704 -0.2058
10582TIP3   OH253236   3.050   0.119  11.300 -0.1253  0.3568  0.1246
10582TIP3    H153237   3.075   0.110  11.208 -0.1546 -2.4760  0.3124
10582TIP3    H253238   2.955   0.107  11.301 -0.1752  0.7490  0.4999
10583TIP3   OH253239   5.755   2.031  14.761  0.6299  0.0617 -0.3645
10583TIP3    H153240   5.699   2.079  14.822  1.1417  0.6628 -0.3576
10583TIP3    H253241   5.818   2.097  14.730  1.4464 -0.6476 -0.2344
10584TIP3   OH253242   1.574   0.966  16.458  0.0452  0.1218 -0.1474
10584TIP3    H153243   1.500   1.005  16.505 -0.2398  0.9003 -1.2073
10584TIP3    H253244   1.538   0.941  16.373  0.5032 -1.4554  0.0873
10585TIP3   OH253245   4.590   2.859  16.040 -0.2112  0.0148 -0.2220
10585TIP3    H153246   4.648   2.863  16.116  0.9258 -0.9518 -1.0065
10585TIP3    H253247   4.568   2.766  16.032 -2.0905  0.3662  0.1769
10586TIP3   OH253248   1.951   1.818  14.464 -0.7400 -0.0718  0.4738
10586TIP3    H153249   1.874   1.869  14.488  0.2235  0.7991  1.9223
10586TIP3    H253250   2.022   1.857  14.515  0.7386 -0.6216 -1.0576
10587TIP3   OH253251   6.382   3.968  12.088 -0.2918  0.4029  0.1089
10587TIP3    H153252   6.293   3.949  12.119  0.3205  0.5535  2.0670
10587TIP3    H253253   6.401   4.055  12.121 -0.3339  1.5229 -2.5556
10588TIP3   OH253254   6.755   1.648   2.257 -0.6535  0.3291 -0.2951
10588TIP3    H153255   6.765   1.664   2.351 -0.7910  1.4323 -0.4519
10588TIP3    H253256   6.791   1.561   2.243  1.0262  0.8666  0.4952
10589TIP3   OH253257   2.428   0.956  16.150  0.5996 -0.2023 -0.0235
10589TIP3    H153258   2.379   0.894  16.095 -0.4344 -0.7046  1.4156
10589TIP3    H253259   2.510   0.911  16.171 -0.4956 -1.5142  1.7208
10590TIP3   OH253260   5.592   1.581   0.206 -0.3750  0.3451  0.1515
10590TIP3    H153261   5.629   1.585   0.118  0.9785  0.2168  0.6806
10590TIP3    H253262   5.619   1.664   0.247  1.2400 -0.6650  1.2457
10591TIP3   OH253263   0.041   4.582   6.342  0.3878  0.3554 -0.2705
10591TIP3    H153264  -0.053   4.601   6.344  0.0199 -1.2991 -0.2026
10591TIP3    H253265   0.054   4.520   6.413  1.5543  0.5769 -0.2747
10592TIP3   OH253266   5.245   3.846   2.781  0.3978  0.0563 -0.9226
10592TIP3    H153267   5.221   3.754   2.793  1.5550 -0.2130 -0.5407
10592TIP3    H253268   5.205   3.870   2.697 -0.4474 -0.6010 -0.7239
10593TIP3   OH253269   0.515   2.532  12.504  0.5817  0.1282  0.7797
10593TIP3    H153270   0.584   2.556  12.442  0.3554  0.7437  0.7589
10593TIP3    H253271   0.448   2.489  12.451 -0.3199  1.9976  0.2905
10594TIP3   OH253272   2.249   1.295   6.173 -0.8482  0.2291 -0.2187
10594TIP3    H153273   2.261   1.335   6.087  0.0612  0.6610  0.0952
10594TIP3    H253274   2.159   1.318   6.197 -0.9613  0.4834 -0.8640
10595TIP3   OH253275   0.749   2.536   3.153  0.7088 -0.5711 -0.5123
10595TIP3    H153276   0.655   2.530   3.137  0.5985  0.5713 -0.4043
10595TIP3    H253277   0.771   2.455   3.199 -0.2178 -0.8418 -0.5206
10596TIP3   OH253278   2.343   5.698   5.929 -0.1543  0.0152  0.4868
10596TIP3    H153279   2.429   5.683   5.969  0.5877  0.6329 -0.7985
10596TIP3    H253280   2.341   5.637   5.854 -0.3450  0.8195 -0.1762
10597TIP3   OH253281   5.150   3.198   2.052 -0.6330  0.0495 -0.6476
10597TIP3    H153282   5.134   3.273   1.994 -0.0740  0.9630  0.3464
10597TIP3    H253283   5.233   3.218   2.095 -0.6865 -0.9531 -0.0482
10598TIP3   OH253284   6.015   2.864  13.540  0.2865  0.2911  0.4862
10598TIP3    H153285   6.105   2.845  13.514 -0.1362  0.0699 -0.9012
10598TIP3    H253286   5.988   2.935  13.482 -1.0919 -1.0137 -0.5414
10599TIP3   OH253287   5.419   5.409   2.310 -0.0461  0.7675 -0.1919
10599TIP3    H153288   5.359   5.428   2.383  1.3071 -1.7910  1.7434
10599TIP3    H253289   5.364   5.368   2.244 -0.6787 -0.6363  1.1374
10600TIP3   OH253290   1.289   5.886  10.826 -0.4950 -0.4702 -0.1950
10600TIP3    H153291   1.284   5.881  10.730 -1.5811  0.4559 -0.1989
10600TIP3    H253292   1.198   5.883  10.855 -0.1211 -3.1680  0.9830
10601TIP3   OH253293   5.338   3.980   3.218  0.6679 -0.5202 -0.5127
10601TIP3    H153294   5.311   3.946   3.303 -0.2864  0.9189 -0.1976
10601TIP3    H253295   5.415   3.928   3.194  1.6005 -0.2787  1.7130
10602TIP3   OH253296   0.653   2.553   0.048  0.5453 -0.2433 -0.2705
10602TIP3    H153297   0.618   2.562  -0.041 -1.0166 -0.8262  0.2607
10602TIP3    H253298   0.576   2.559   0.105  1.5947  0.8253  1.1053
10603TIP3   OH253299   5.226   1.123   4.933  0.0911  0.4704 -0.2241
10603TIP3    H153300   5.146   1.170   4.956  1.5700  2.4460  1.2975
10603TIP3    H253301   5.284   1.190   4.898  1.1370 -0.8851 -1.2089
10604TIP3   OH253302   0.825   5.701   6.390 -0.0859 -0.6826  0.0477
10604TIP3    H153303   0.910   5.701   6.433 -0.1721 -2.0176  0.2866
10604TIP3    H253304   0.798   5.609   6.392 -1.4939 -0.2959 -0.0957
10605TIP3   OH253305   3.060   4.974  11.228 -0.2847  0.0052 -0.2344
10605TIP3    H153306   3.114   5.046  11.195 -1.7357  1.3737  0.2277
10605TIP3    H253307   3.107   4.943  11.305  0.4584  0.3340 -0.5435
10606TIP3   OH253308   1.817   5.743  11.807 -0.1009  0.1797  0.1432
10606TIP3    H153309   1.862   5.819  11.842 -0.8424  0.8347 -0.2942
10606TIP3    H253310   1.757   5.778  11.741 -1.2304 -0.6474  0.6797
10607TIP3   OH253311   1.474   1.563  16.015  0.4382  0.7215 -0.1915
10607TIP3    H153312   1.384   1.552  15.985  0.4279 -0.8098  0.3272
10607TIP3    H253313   1.499   1.477  16.049  2.3262  0.9193 -0.9549
10608TIP3   OH253314   4.981   3.990  15.834 -0.0981 -0.1410  0.5210
10608TIP3    H153315   4.887   4.012  15.834 -0.4049 -1.4040  0.5648
10608TIP3    H253316   4.983   3.895  15.834  1.2024 -0.1306 -0.7897
10609TIP3   OH253317   6.386   1.617  14.972  0.0432 -0.1155  0.1043
10609TIP3    H153318   6.396   1.539  14.917  0.7779  0.5034 -0.6505
10609TIP3    H253319   6.303   1.655  14.945 -0.4542 -0.7610  0.6621
10610TIP3   OH253320   4.085   3.606   0.316  0.4484 -0.3466 -0.0451
10610TIP3    H153321   4.063   3.571   0.230 -0.0377  0.8582 -0.4206
10610TIP3    H253322   4.109   3.528   0.367 -3.3906 -1.7070  0.0249
10611TIP3   OH253323   6.647   0.487   2.305 -0.2946  0.1042  0.0254
10611TIP3    H153324   6.723   0.533   2.341  0.6144 -1.0261 -0.3868
10611TIP3    H253325   6.640   0.520   2.215 -0.7938  0.7884  0.3043
10612TIP3   OH253326   3.380   3.877  16.240 -0.7061  0.1294 -0.2871
10612TIP3    H153327   3.290   3.899  16.219 -0.2101  3.3451  0.3967
10612TIP3    H253328   3.392   3.906  16.330  0.7856 -1.0749 -0.0499
10613TIP3   OH253329   6.262   5.032  13.411 -0.0622 -0.0154  0.2326
10613TIP3    H153330   6.207   4.978  13.355 -0.9871 -0.6010  1.6489
10613TIP3    H253331   6.205   5.104  13.439  1.2762  2.0301 -1.9767
10614TIP3   OH253332   0.707   3.048  12.441  0.4229  0.0351 -0.0971
10614TIP3    H153333   0.636   3.106  12.412  0.4232  0.2071  0.2370
10614TIP3    H253334   0.697   2.969  12.389 -0.1646 -0.0354  0.1260
10615TIP3   OH253335   4.408   6.502  15.094 -0.2961  0.2445 -0.2497
10615TIP3    H153336   4.406   6.579  15.152  0.8902 -2.2402  3.4763
10615TIP3    H253337   4.446   6.534  15.013  0.2268  3.5585  1.1196
10616TIP3   OH253338   3.686   2.741   0.470  0.2778  0.2833 -0.2013
10616TIP3    H153339   3.612   2.691   0.437  0.9322  1.6880 -4.4535
10616TIP3    H253340   3.664   2.759   0.562 -5.0755  1.2746 -1.3167
10617TIP3   OH253341   4.599   6.229  16.915 -0.0083 -0.0893  0.1522
10617TIP3    H153342   4.625   6.305  16.863  1.4188  1.2016  2.5664
10617TIP3    H253343   4.527   6.189  16.866 -2.8914  4.4940  0.1136
10618TIP3   OH253344   4.412   2.121  16.243  0.1941 -0.1794  0.4489
10618TIP3    H153345   4.417   2.029  16.217  0.4220  0.4176 -1.8503
10618TIP3    H253346   4.500   2.155  16.227  0.0755  0.4757  1.1504
10619TIP3   OH253347   1.643   0.444  16.837 -0.0262  0.0349  0.2707
10619TIP3    H153348   1.558   0.401  16.838  0.7167 -1.6009 -1.2603
10619TIP3    H253349   1.659   0.466  16.745  0.7272  1.3718  0.6791
10620TIP3   OH253350   2.191   1.610   4.531  0.0551  0.3519  0.4267
10620TIP3    H153351   2.178   1.526   4.486 -2.2053 -0.0528  1.6972
10620TIP3    H253352   2.103   1.641   4.550  0.8018  3.2529 -0.3281
10621TIP3   OH253353   2.730   1.890  13.061 -0.0144 -0.3542  0.8020
10621TIP3    H153354   2.732   1.958  12.993 -0.4942 -0.6764  0.4531
10621TIP3    H253355   2.700   1.936  13.139  1.9451  0.3416  1.2019
10622TIP3   OH253356   4.061   4.880   0.620  0.6005  0.7180 -0.1252
10622TIP3    H153357   4.028   4.901   0.707 -0.1890 -0.9566  0.0233
10622TIP3    H253358   4.049   4.785   0.613  0.9330  0.7856 -1.9393
10623TIP3   OH253359   3.907   2.568   5.266 -0.0102  0.3830 -0.3649
10623TIP3    H153360   3.993   2.585   5.227 -0.4279  0.2147 -1.4098
10623TIP3    H253361   3.888   2.477   5.242 -1.8198  1.3136 -2.9219
10624TIP3   OH253362   3.849   6.260   5.034 -0.0090 -0.5272  0.0294
10624TIP3    H153363   3.889   6.250   4.948 -0.6868 -1.1243 -0.2231
10624TIP3    H253364   3.884   6.344   5.066 -0.0379 -0.1067 -0.9768
10625TIP3   OH253365   2.196   0.217   1.241 -0.1794  0.4147  0.0462
10625TIP3    H153366   2.210   0.296   1.294 -0.7797  1.5948 -1.4906
10625TIP3    H253367   2.217   0.244   1.152  0.1021 -1.3270 -0.4549
10626TIP3   OH253368   2.296   4.164  15.894 -0.1780 -0.4980 -0.2044
10626TIP3    H153369   2.277   4.255  15.918 -2.0345 -0.6524 -0.9614
10626TIP3    H253370   2.392   4.158  15.898  0.1099  1.9067 -1.5215
10627TIP3   OH253371   4.723   3.257   0.271  0.3230  0.1916 -0.9814
10627TIP3    H153372   4.669   3.330   0.300  1.0430  1.2808 -2.2761
10627TIP3    H253373   4.813   3.290   0.276  0.7154 -0.8492 -0.9323
10628TIP3   OH253374   5.485   3.436  10.778 -1.0762 -0.2000  0.1922
10628TIP3    H153375   5.491   3.341  10.789 -0.4799 -0.3404 -1.1028
10628TIP3    H253376   5.410   3.447  10.719 -0.0447 -0.0182 -1.1229
10629TIP3   OH253377   3.230   4.133  16.961 -0.4268 -0.0211 -0.1626
10629TIP3    H153378   3.181   4.209  16.992  0.5163  0.8692 -0.8042
10629TIP3    H253379   3.199   4.120  16.871  1.4513  1.4252 -1.0892
10630TIP3   OH253380   4.987   2.384   3.783 -0.6148 -0.3078 -0.0285
10630TIP3    H153381   4.902   2.406   3.822 -0.3201  1.7305 -0.4034
10630TIP3    H253382   4.965   2.352   3.695 -0.9995  0.5247 -0.2467
10631TIP3   OH253383   1.343   1.349  14.328 -0.5340  0.2898 -0.5930
10631TIP3    H153384   1.353   1.442  14.351  0.1185  0.1818 -0.4278
10631TIP3    H253385   1.323   1.350  14.235 -0.9468  0.6144 -0.5082
10632TIP3   OH253386   1.380   0.242   5.082  0.3080  0.1242  0.2296
10632TIP3    H153387   1.323   0.183   5.132  0.4464  0.1897  0.4650
10632TIP3    H253388   1.328   0.322   5.071 -0.0203 -0.1681 -0.4024
10633TIP3   OH253389   1.711   1.124   5.887  0.2478  0.0361 -0.3599
10633TIP3    H153390   1.767   1.163   5.954  1.1798 -2.4583  0.4513
10633TIP3    H253391   1.771   1.071   5.834 -0.7222  0.7365 -2.2572
10634TIP3   OH253392   1.519   6.387   5.469  0.2917  0.1309  0.9267
10634TIP3    H153393   1.442   6.346   5.506 -0.2017  0.6784  0.5375
10634TIP3    H253394   1.543   6.331   5.395  1.9210 -1.5679  2.6241
10635TIP3   OH253395   1.524   4.834   1.961  0.4510 -0.3611  0.2483
10635TIP3    H153396   1.514   4.781   2.040  0.7121  0.2754  0.7210
10635TIP3    H253397   1.452   4.898   1.966 -0.5820 -1.3964 -0.9178
10636TIP3   OH253398   3.456   3.158  12.852  0.4095 -0.2762 -0.1455
10636TIP3    H153399   3.462   3.254  12.850  0.3483 -0.2807 -0.5765
10636TIP3    H253400   3.512   3.129  12.781  1.8213 -0.6420  1.0598
10637TIP3   OH253401   3.525   1.002   1.279  0.4861  0.3309 -0.7222
10637TIP3    H153402   3.569   1.062   1.339 -1.9203  1.7388 -0.2052
10637TIP3    H253403   3.461   1.057   1.233  0.2230 -1.2939 -2.4465
10638TIP3   OH253404   3.668   0.621  13.107 -0.2316 -0.2140  0.3047
10638TIP3    H153405   3.596   0.679  13.132  0.3886  1.4631 -1.5252
10638TIP3    H253406   3.652   0.602  13.014  1.8416  0.4929 -0.2435
10639TIP3   OH253407   5.221   0.041  15.396 -0.4501 -0.2122 -0.1893
10639TIP3    H153408   5.206   0.129  15.430  2.6535  0.6502 -0.7451
10639TIP3    H253409   5.196  -0.017  15.468 -1.6409  1.1289  0.5433
10640TIP3   OH253410   6.805   1.857   1.017  0.1750 -0.7801  0.1075
10640TIP3    H153411   6.839   1.931   1.066 -0.6683 -1.0112  1.0911
10640TIP3    H253412   6.822   1.781   1.074  0.0154 -1.1840 -0.3745
10641TIP3   OH253413   3.380   4.368  12.659 -1.0040 -0.1522  0.8107
10641TIP3    H153414   3.351   4.457  12.640  0.2611  0.3143  0.9217
10641TIP3    H253415   3.468   4.379  12.696  0.0968 -1.5514 -1.1684
10642TIP3   OH253416   5.104   0.939  12.844 -0.0948  0.5947 -0.1481
10642TIP3    H153417   5.064   0.892  12.771  0.9864 -1.8497  0.7319
10642TIP3    H253418   5.030   0.970  12.896 -0.9108 -1.5022  0.0267
10643TIP3   OH253419   4.835   6.801  15.972  0.0684 -0.3938  0.1188
10643TIP3    H153420   4.804   6.720  15.933 -2.0720  0.5515 -0.2932
10643TIP3    H253421   4.757   6.839  16.014  0.6890  1.9836 -0.7063
10644TIP3   OH253422   4.193   5.045  12.558  0.4332 -0.0828  0.1731
10644TIP3    H153423   4.168   4.953  12.554 -1.6249  0.4759 -1.2628
10644TIP3    H253424   4.159   5.075  12.642  0.7538 -0.5226  0.4648
10645TIP3   OH253425   5.391   3.208  12.111 -0.0587 -0.0975 -0.2188
10645TIP3    H153426   5.467   3.251  12.151  0.0848  0.8575 -1.4483
10645TIP3    H253427   5.326   3.278  12.102 -0.9383 -0.8093  0.4006
10646TIP3   OH253428   3.781   3.051   2.545  0.2988  0.0567 -0.1268
10646TIP3    H153429   3.834   3.120   2.584 -0.6019 -0.7577  2.7756
10646TIP3    H253430   3.698   3.094   2.524  0.1192  0.1008  0.6598
10647TIP3   OH253431   1.518   5.498  13.687 -0.1023 -0.0193 -0.3597
10647TIP3    H153432   1.502   5.417  13.736  0.9401 -0.2781 -0.4364
10647TIP3    H253433   1.559   5.557  13.751 -0.2683  0.2257 -0.4776
10648TIP3   OH253434   1.201   1.451   1.091 -0.1179  0.2592  0.7074
10648TIP3    H153435   1.273   1.454   1.154 -1.3880  3.6433  2.2544
10648TIP3    H253436   1.125   1.425   1.142 -1.0521  2.4365  0.5325
10649TIP3   OH253437   4.810   3.963  17.036  0.0577 -0.1499 -0.0211
10649TIP3    H153438   4.886   3.978  17.091  0.3913 -0.7287 -0.3061
10649TIP3    H253439   4.767   4.048  17.030  0.2585  0.0142  0.7650
10650TIP3   OH253440   4.577   4.890   4.683  0.4491  0.5589  0.3026
10650TIP3    H153441   4.666   4.918   4.660  1.1140 -1.0333  0.8091
10650TIP3    H253442   4.563   4.924   4.771  1.2397 -0.5993  0.9022
10651TIP3   OH253443   0.503   4.526  11.784 -0.1982  0.1963 -0.2982
10651TIP3    H153444   0.499   4.513  11.878 -0.5364  1.3046 -0.1473
10651TIP3    H253445   0.469   4.446  11.746  0.2889 -0.4029  0.5105
10652TIP3   OH253446   1.366   0.717   2.991  0.2322 -0.2194 -0.0530
10652TIP3    H153447   1.433   0.648   2.992 -0.6833 -1.1328  1.2703
10652TIP3    H253448   1.351   0.734   2.898  0.2448 -2.0632 -0.4360
10653TIP3   OH253449   4.258   1.173  17.119 -0.3633  0.2656 -0.2939
10653TIP3    H153450   4.244   1.152  17.026  0.3647 -2.2408  0.0904
10653TIP3    H253451   4.223   1.098  17.166  0.6071  0.8223  1.3938
10654TIP3   OH253452   2.121   3.768   3.039  0.4604  0.3202  0.8224
10654TIP3    H153453   2.210   3.792   3.065  0.7523  0.5250 -0.3345
10654TIP3    H253454   2.068   3.844   3.063  0.8425  0.7998  0.1693
10655TIP3   OH253455   4.365   1.629   5.067  0.6431 -0.1532  0.6905
10655TIP3    H153456   4.350   1.708   5.119  0.1611  0.0354  0.2678
10655TIP3    H253457   4.455   1.604   5.087  0.8870  0.6569  0.6235
10656TIP3   OH253458   6.458   1.967   0.365  0.4482 -0.0339 -0.1796
10656TIP3    H153459   6.432   2.006   0.448  1.5408  1.5072 -0.5186
10656TIP3    H253460   6.390   1.996   0.303  0.5100  0.1951 -0.1426
10657TIP3   OH253461   4.089   0.947   4.289 -0.3201 -0.1954  0.0946
10657TIP3    H153462   4.034   0.982   4.219  2.4003 -0.7384 -2.5697
10657TIP3    H253463   4.172   0.927   4.245  2.1419  0.8553  3.8392
10658TIP3   OH253464   4.297   1.345   1.815  0.6725  0.6114 -0.8614
10658TIP3    H153465   4.245   1.283   1.867  1.4133  0.2077 -0.5848
10658TIP3    H253466   4.385   1.308   1.816  0.9346  1.2098 -1.4511
10659TIP3   OH253467   0.196   6.736   4.531  0.3150  0.0678  0.3008
10659TIP3    H153468   0.196   6.647   4.568 -1.1458 -1.1316 -2.3168
10659TIP3    H253469   0.284   6.746   4.494 -0.2469 -1.3760 -1.5929
10660TIP3   OH253470   4.116   6.714  16.978  0.0952  0.3857 -0.4544
10660TIP3    H153471   4.168   6.789  16.948  1.4598 -0.8040 -1.2279
10660TIP3    H253472   4.177   6.663  17.031 -0.6297 -0.4735 -0.4222
10661TIP3   OH253473   6.100   1.609  15.984 -0.1780 -0.2436  0.2478
10661TIP3    H153474   6.066   1.614  16.073 -0.8727 -0.9130  0.0354
10661TIP3    H253475   6.037   1.660  15.932  1.1868  1.6778  0.3747
10662TIP3   OH253476   6.175   3.255   2.905 -0.0887 -0.3504  0.2949
10662TIP3    H153477   6.225   3.189   2.856 -0.3551 -1.4779  1.4743
10662TIP3    H253478   6.131   3.205   2.974 -0.1019  1.1057  1.3967
10663TIP3   OH253479   5.699   1.485   4.115  0.7932 -0.1238 -0.1722
10663TIP3    H153480   5.736   1.521   4.035 -0.1888 -1.3721 -1.2306
10663TIP3    H253481   5.657   1.404   4.088 -0.2596 -0.1825  1.4737
10664TIP3   OH253482   4.080   3.925   5.399  0.3802 -0.1826  0.6017
10664TIP3    H153483   4.100   3.889   5.312  0.7994  0.9588  0.2081
10664TIP3    H253484   3.986   3.945   5.395  0.7982  1.8107 -0.3576
10665TIP3   OH253485   5.039   3.902   2.086 -0.3266 -0.4956 -0.7995
10665TIP3    H153486   5.100   3.830   2.097  0.0918 -0.1108 -0.5817
10665TIP3    H253487   5.089   3.980   2.109 -1.0901 -0.2359  0.0454
10666TIP3   OH253488   6.076   4.353  11.601  0.1527 -0.7718  0.0251
10666TIP3    H153489   6.072   4.446  11.622 -2.7247 -0.3355 -1.7820
10666TIP3    H253490   6.169   4.330  11.607  0.6266  1.4121  3.4254
10667TIP3   OH253491   5.624   2.714  15.736  0.2251  0.0128 -0.1507
10667TIP3    H153492   5.716   2.702  15.759  0.7679  1.8217 -1.2277
10667TIP3    H253493   5.582   2.736  15.819  0.7214 -0.8806  0.3582
10668TIP3   OH253494   3.610   1.133   1.663 -0.8228 -0.1657 -0.6434
10668TIP3    H153495   3.654   1.049   1.673 -0.8047 -0.1600 -0.6745
10668TIP3    H253496   3.648   1.188   1.732 -2.1253 -0.7110  0.5477
10669TIP3   OH253497   5.533   3.142   3.117  0.1824 -0.1237  0.2246
10669TIP3    H153498   5.521   3.198   3.194 -0.6748 -1.0493  0.7966
10669TIP3    H253499   5.604   3.083   3.142 -1.0604 -1.3895  0.9299
10670TIP3   OH253500   6.022   5.821  14.135 -0.3443 -0.6082  0.8598
10670TIP3    H153501   6.065   5.736  14.136  0.4888 -0.2830 -1.2306
10670TIP3    H253502   5.950   5.810  14.073  0.4055  0.4297 -0.2569
10671TIP3   OH253503   2.733   3.710   5.436  0.1413 -0.0332 -0.8864
10671TIP3    H153504   2.812   3.674   5.477 -1.6974 -0.9731  2.1401
10671TIP3    H253505   2.733   3.803   5.460 -0.2493 -0.2957  0.1685
10672TIP3   OH253506   4.014   0.915  15.097 -1.0251  0.9750 -0.6421
10672TIP3    H153507   4.011   0.820  15.107  0.7903  0.9654  0.2559
10672TIP3    H253508   4.036   0.948  15.184  0.8763  1.9968 -1.4386
10673TIP3   OH253509   0.022   2.312  11.552  0.3732  0.5300 -0.1505
10673TIP3    H153510  -0.051   2.266  11.512  0.8155 -0.4227  0.1036
10673TIP3    H253511  -0.017   2.364  11.622 -0.0299 -0.1955  0.1658
10674TIP3   OH253512   1.878   2.681  11.783 -0.9254 -0.0741  0.1110
10674TIP3    H153513   1.819   2.725  11.844 -1.0015  0.2701 -0.2008
10674TIP3    H253514   1.896   2.596  11.822 -0.8117  0.2245  0.7093
10675TIP3   OH253515   1.477   6.326  14.196 -0.1915 -0.1382  0.1027
10675TIP3    H153516   1.385   6.346  14.213 -0.0984  1.1587 -0.8022
10675TIP3    H253517   1.526   6.390  14.247  0.2548 -1.0339  0.8494
10676TIP3   OH253518   2.678   3.796   1.744 -0.3466  0.0851  0.0896
10676TIP3    H153519   2.613   3.725   1.745  0.5388 -0.8053  2.4451
10676TIP3    H253520   2.722   3.786   1.660 -1.2855 -1.1844 -0.2927
10677TIP3   OH253521   1.410   5.779  11.035  0.3917  0.7833  0.0712
10677TIP3    H153522   1.382   5.814  10.950  0.5295 -0.8503 -0.6730
10677TIP3    H253523   1.462   5.702  11.014 -1.1939 -0.8226  1.6708
10678TIP3   OH253524   3.335   3.848  13.437  0.0976 -0.0534 -0.3234
10678TIP3    H153525   3.350   3.917  13.372 -0.8947 -1.2416 -1.8975
10678TIP3    H253526   3.240   3.841  13.443  0.1744 -1.2107 -0.1502
10679TIP3   OH253527   0.115   0.415  15.656  0.1042 -0.2923 -0.0980
10679TIP3    H153528   0.175   0.350  15.620  1.3442 -0.0008  1.3448
10679TIP3    H253529   0.172   0.482  15.693 -1.1373  0.6855  0.1128
10680TIP3   OH253530   2.158   6.657  16.152 -0.6326  0.2457 -0.2755
10680TIP3    H153531   2.144   6.750  16.171 -0.3641 -0.1371  2.1858
10680TIP3    H253532   2.252   6.645  16.157 -0.7573 -0.4051  0.9553
10681TIP3   OH253533   6.273   2.812  10.812 -0.3877  0.0286 -0.2428
10681TIP3    H153534   6.265   2.717  10.822  0.8488 -0.0089  0.7826
10681TIP3    H253535   6.187   2.846  10.837 -0.3007 -0.7427  1.2732
10682TIP3   OH253536   6.277   5.291  14.085  0.2162  0.7514 -0.4977
10682TIP3    H153537   6.271   5.277  14.179 -0.5972  0.6772 -0.5575
10682TIP3    H253538   6.189   5.315  14.058  0.4055  0.6186 -1.2654
10683TIP3   OH253539   3.927   1.178  12.669 -0.2894 -0.0311 -0.1202
10683TIP3    H153540   3.941   1.218  12.583 -1.0261 -0.0242 -0.2396
10683TIP3    H253541   3.939   1.084  12.654  1.4156  0.1120  0.1549
10684TIP3   OH253542   3.408   1.666  14.439 -0.5476  0.0102  0.0842
10684TIP3    H153543   3.368   1.607  14.375 -0.4648  0.1356 -0.0865
10684TIP3    H253544   3.335   1.717  14.474 -0.4887  0.5288 -0.5327
10685TIP3   OH253545   1.327   4.453   2.327 -0.1734 -0.6162  0.5371
10685TIP3    H153546   1.281   4.380   2.285 -3.6223  1.5346  0.1320
10685TIP3    H253547   1.269   4.480   2.398  2.1688  0.2671  2.2398
10686TIP3   OH253548   5.520   2.306  16.117 -0.0534 -0.1673  0.1693
10686TIP3    H153549   5.513   2.220  16.158 -1.1303  0.0746  0.5229
10686TIP3    H253550   5.436   2.348  16.134 -0.1566  0.3418 -1.4047
10687TIP3   OH253551   3.815   4.272  15.321 -0.2894 -0.3039  0.1852
10687TIP3    H153552   3.724   4.257  15.298  0.1423 -2.0455 -0.5325
10687TIP3    H253553   3.828   4.223  15.402 -0.0512  0.1361  0.4176
10688TIP3   OH253554   4.995   6.310   4.775 -0.4302  0.2084  0.5571
10688TIP3    H153555   5.089   6.318   4.791 -0.0880  0.6409 -1.3926
10688TIP3    H253556   4.977   6.216   4.780 -0.0252  0.1656  1.4628
10689TIP3   OH253557   0.261   1.709   2.252  0.0139 -0.0601 -0.2164
10689TIP3    H153558   0.231   1.663   2.330 -0.4674 -1.2706 -1.0712
10689TIP3    H253559   0.218   1.795   2.256 -1.4394 -0.7577 -0.0272
10690TIP3   OH253560   4.424   2.758  16.765  0.0744  0.2328  0.5146
10690TIP3    H153561   4.515   2.738  16.786  0.1583 -0.7024 -0.6115
10690TIP3    H253562   4.379   2.673  16.767 -0.5524  0.5434  0.1117
10691TIP3   OH253563   5.070   2.595   2.404 -0.1172  0.3721 -0.3369
10691TIP3    H153564   5.079   2.510   2.360 -2.3833 -0.6428  0.9796
10691TIP3    H253565   5.159   2.618   2.429  0.6127 -1.4219 -1.1097
10692TIP3   OH253566   4.911   0.486  15.190  0.0465 -0.2581 -0.2345
10692TIP3    H153567   4.880   0.398  15.209  1.2501 -0.6441  0.0166
10692TIP3    H253568   4.854   0.517  15.120  0.1939 -1.5868 -0.9668
10693TIP3   OH253569   1.295   1.359  15.671  0.6357  0.0157 -0.0030
10693TIP3    H153570   1.227   1.427  15.669  0.5560  0.0119  1.3870
10693TIP3    H253571   1.251   1.283  15.709  0.5523 -1.0593 -2.1045
10694TIP3   OH253572   2.499   2.348  12.296 -0.6851 -1.0085  0.2091
10694TIP3    H153573   2.492   2.262  12.255 -3.1779 -0.8633  0.1822
10694TIP3    H253574   2.460   2.336  12.383 -3.7643  0.6074 -0.7812
10695TIP3   OH253575   5.669   5.057  13.563  0.2877  0.8707  0.2456
10695TIP3    H153576   5.714   5.140  13.580  0.1282  0.9494  0.2841
10695TIP3    H253577   5.579   5.072  13.592  0.2703  0.6674  0.2967
10696TIP3   OH253578   4.438   0.950  15.498  0.1019 -0.7706 -0.1489
10696TIP3    H153579   4.416   0.979  15.587 -0.3854  1.5738 -0.9655
10696TIP3    H253580   4.498   1.016  15.465 -1.8488 -0.0268 -2.4916
10697TIP3   OH253581   5.179   6.696   0.802  0.4800 -0.1248 -0.1921
10697TIP3    H153582   5.101   6.722   0.851  0.0566  1.6537 -1.7207
10697TIP3    H253583   5.238   6.661   0.869 -0.2134  1.8573  1.5607
10698TIP3   OH253584   4.119   3.106   2.471  0.1505  0.0364  0.4254
10698TIP3    H153585   4.075   3.145   2.547  1.8761  0.2040  1.3826
10698TIP3    H253586   4.136   3.179   2.412  0.1997  0.1602  0.5922
10699TIP3   OH253587   0.625   2.641  14.860  0.2852  0.1459 -0.4169
10699TIP3    H153588   0.545   2.626  14.809 -0.2004  1.7487 -0.1658
10699TIP3    H253589   0.599   2.622  14.951 -0.2040  1.8492 -0.1617
10700TIP3   OH253590   2.321   5.987  14.993  0.1907 -0.0502 -0.2301
10700TIP3    H153591   2.229   6.011  14.984 -0.1119 -1.2085 -0.4024
10700TIP3    H253592   2.369   6.068  14.975 -0.8291  1.0596  1.7001
10701TIP3   OH253593   5.732   1.003   0.786  0.6335  0.0712 -0.4782
10701TIP3    H153594   5.658   0.943   0.799  0.2386  1.0534  2.5539
10701TIP3    H253595   5.809   0.947   0.791  0.1939 -0.7766 -2.3627
10702TIP3   OH253596   6.319   0.919  13.059  0.3698  0.4778  0.1620
10702TIP3    H153597   6.226   0.914  13.038  0.3778  1.2273 -0.0862
10702TIP3    H253598   6.323   0.956  13.147  0.4381  0.9936 -0.0498
10703TIP3   OH253599   3.923   0.277   0.828  0.6443 -0.7439 -0.3447
10703TIP3    H153600   3.993   0.292   0.893 -1.3236  0.4254  1.6399
10703TIP3    H253601   3.903   0.364   0.794 -1.4283 -0.6580  0.9310
10704TIP3   OH253602   0.715   1.189  13.951 -0.0033  0.1705 -0.2212
10704TIP3    H153603   0.772   1.112  13.952  0.1351  0.2516  1.4806
10704TIP3    H253604   0.760   1.253  13.896  2.1107  0.5853  1.8199
10705TIP3   OH253605   4.308   2.517   5.473 -0.0829 -0.2129 -0.1794
10705TIP3    H153606   4.294   2.490   5.564  1.3671  0.4527  0.2558
10705TIP3    H253607   4.308   2.435   5.424  0.4313 -0.6965  0.6089
10706TIP3   OH253608   4.380   3.059  10.617 -0.1794 -0.0360 -0.1390
10706TIP3    H153609   4.305   3.037  10.673  1.5966 -0.2799  2.3112
10706TIP3    H253610   4.385   3.154  10.621 -0.1392 -0.0439  0.0337
10707TIP3   OH253611   0.410   5.986  11.427  0.4512 -0.0023 -0.3576
10707TIP3    H153612   0.330   5.936  11.413 -1.5862  3.0697 -0.8765
10707TIP3    H253613   0.422   5.988  11.522  1.1818 -2.1862 -0.3632
10708TIP3   OH253614   6.539   2.688  11.530 -0.4025 -0.3900 -0.1219
10708TIP3    H153615   6.511   2.723  11.445 -3.1516  2.0830  1.6005
10708TIP3    H253616   6.627   2.725  11.543 -0.7220  0.7997 -1.1056
10709TIP3   OH253617   5.725   1.650  17.174 -0.4595 -0.1625  0.5644
10709TIP3    H153618   5.736   1.745  17.180 -0.3666 -0.1187 -0.1492
10709TIP3    H253619   5.694   1.635  17.085  0.4888 -0.8815  0.3269
10710TIP3   OH253620   3.402   1.777   4.214  0.2009 -0.1257 -0.4641
10710TIP3    H153621   3.431   1.747   4.128 -0.9952 -0.4462 -0.7675
10710TIP3    H253622   3.460   1.731   4.276  0.1434 -0.9910 -1.0406
10711TIP3   OH253623   1.211   1.719   1.993  0.0788  0.0138 -0.1307
10711TIP3    H153624   1.234   1.803   1.954 -2.1204  0.6253 -0.2466
10711TIP3    H253625   1.236   1.655   1.927  0.2192  0.7003 -0.7630
10712TIP3   OH253626   0.959   6.447   0.784  0.1372  0.4438 -0.1206
10712TIP3    H153627   0.871   6.480   0.765  0.0656 -0.3635 -1.2456
10712TIP3    H253628   0.954   6.418   0.875 -0.5016  1.2162  0.1039
10713TIP3   OH253629   3.051   2.209  17.030  0.0941  0.1036 -0.5317
10713TIP3    H153630   2.963   2.221  16.994 -0.0467 -0.5345 -0.4274
10713TIP3    H253631   3.046   2.250  17.117 -0.0238  0.2987 -0.6305
10714TIP3   OH253632   2.146   5.573   3.564  0.2412 -0.5721  0.4993
10714TIP3    H153633   2.216   5.543   3.507 -0.3679 -1.4120  0.1723
10714TIP3    H253634   2.163   5.666   3.577 -0.0020 -0.2000 -1.6165
10715TIP3   OH253635   4.712   2.875   3.701 -0.4268 -0.1818 -0.1275
10715TIP3    H153636   4.643   2.895   3.764  0.6950  0.0585  1.0581
10715TIP3    H253637   4.702   2.782   3.683  0.1575 -0.6006  1.5690
10716TIP3   OH253638   4.789   4.245   0.500  0.1534  0.0392  0.2473
10716TIP3    H153639   4.838   4.323   0.525  0.1981  0.6120 -1.4878
10716TIP3    H253640   4.736   4.273   0.425  0.4805 -1.6769 -0.6918
10717TIP3   OH253641   6.431   2.683  15.310 -0.1791  0.2057 -0.0268
10717TIP3    H153642   6.392   2.608  15.357 -1.0081  1.4168  1.3043
10717TIP3    H253643   6.358   2.722  15.262 -0.1530  1.1695  0.6835
10718TIP3   OH253644   2.710   1.009  17.064  0.1242 -0.4163  0.0145
10718TIP3    H153645   2.721   0.927  17.016  0.1124 -0.7621  0.5828
10718TIP3    H253646   2.799   1.039  17.082  0.1285 -0.1057 -0.5192
10719TIP3   OH253647   6.739   5.048   0.689 -0.0003  0.1593 -0.3125
10719TIP3    H153648   6.783   5.133   0.691 -2.0891  1.3881 -2.0885
10719TIP3    H253649   6.684   5.047   0.767 -1.5824  1.4554 -1.3458
10720TIP3   OH253650   0.724   3.314  13.360  0.0626 -0.6835 -0.3610
10720TIP3    H153651   0.731   3.409  13.348  1.9531 -0.6347  0.8003
10720TIP3    H253652   0.723   3.302  13.455  0.6017 -1.8554 -0.4873
10721TIP3   OH253653   4.864   2.876   4.856 -0.4246  0.2175  0.1237
10721TIP3    H153654   4.800   2.871   4.785 -0.5838 -1.3297  0.3569
10721TIP3    H253655   4.831   2.817   4.923 -0.4886  1.9424  1.6970
10722TIP3   OH253656   4.811   5.230  11.121 -0.5607  0.0087  0.3038
10722TIP3    H153657   4.897   5.197  11.096  0.0781  1.8886 -0.1489
10722TIP3    H253658   4.753   5.203  11.049 -0.0070  0.1351 -0.1943
10723TIP3   OH253659   3.148   1.017   0.815 -0.9892 -0.0556  0.2322
10723TIP3    H153660   3.234   1.056   0.801 -0.5599 -0.1700  2.1815
10723TIP3    H253661   3.107   1.073   0.881 -1.6931 -0.9819  0.6020
10724TIP3   OH253662   2.852   0.263  11.009  0.0098 -0.2478 -0.6001
10724TIP3    H153663   2.866   0.338  11.067  1.8565  1.3021 -2.8479
10724TIP3    H253664   2.939   0.227  10.995 -0.0940  0.3776 -3.4534
10725TIP3   OH253665   4.216   0.933  13.970 -0.1438 -0.0380  0.5157
10725TIP3    H153666   4.306   0.927  14.002 -0.5410  2.1922  2.2569
10725TIP3    H253667   4.222   0.991  13.894 -0.1289  0.3058  0.7760
10726TIP3   OH253668   5.673   2.211  11.413 -0.1882 -0.4071  0.4838
10726TIP3    H153669   5.733   2.269  11.459  0.0233  1.5207 -1.9985
10726TIP3    H253670   5.589   2.256  11.415 -0.1905 -0.3126 -0.8753
10727TIP3   OH253671   2.100   2.821   0.799 -0.0841 -0.0684 -0.4082
10727TIP3    H153672   2.142   2.765   0.864  2.8219  0.0274 -2.0279
10727TIP3    H253673   2.054   2.760   0.741 -2.6197 -0.1570  1.5471
10728TIP3   OH253674   3.281   5.263   4.769 -0.4366  0.4175  0.4030
10728TIP3    H153675   3.241   5.315   4.838 -1.0015 -0.3526  0.6698
10728TIP3    H253676   3.214   5.258   4.701 -1.4495 -2.0971  1.4517
10729TIP3   OH253677   0.114   6.517  14.897  0.0555  0.3238  0.0219
10729TIP3    H153678   0.119   6.566  14.979 -1.0584 -0.1866  0.4278
10729TIP3    H253679   0.192   6.462  14.897  1.6411  2.4842 -0.7403
10730TIP3   OH253680   5.249   6.025   2.143 -0.3676  0.0702  0.4284
10730TIP3    H153681   5.251   6.112   2.104 -0.0844 -0.0257  0.2239
10730TIP3    H253682   5.340   6.008   2.170 -0.8745  0.9702  3.0169
10731TIP3   OH253683   4.311   6.353  14.768 -0.1578 -0.7327  0.5266
10731TIP3    H153684   4.402   6.328  14.783 -0.1507 -1.2370 -0.3011
10731TIP3    H253685   4.316   6.423  14.703 -0.3329 -0.2772  0.9900
10732TIP3   OH253686   1.937   2.635   0.712  0.3300 -0.1965  0.4213
10732TIP3    H153687   1.919   2.587   0.793 -0.0506 -0.2813  0.2869
10732TIP3    H253688   1.858   2.685   0.695  0.5946  0.2051  0.3640
10733TIP3   OH253689   4.860   4.992  16.098  0.2498 -0.0765  0.1379
10733TIP3    H153690   4.863   4.978  16.003 -1.0955 -0.2514  0.1080
10733TIP3    H253691   4.767   4.988  16.120  0.5788 -0.5126  1.5413
10734TIP3   OH253692   5.431   6.167  11.160  0.0913  0.1611  0.2388
10734TIP3    H153693   5.471   6.250  11.187 -1.0016  0.0468  2.4178
10734TIP3    H253694   5.495   6.100  11.186  0.3319  0.2420 -0.1540
10735TIP3   OH253695   2.129   1.254  10.164  0.0382  0.1267 -0.6322
10735TIP3    H153696   2.140   1.309  10.085 -1.6082  1.6078  0.0999
10735TIP3    H253697   2.217   1.244  10.198  0.9235 -1.2625 -3.0901
10736TIP3   OH253698   2.632   1.574  13.428 -0.1110 -0.2006 -0.0179
10736TIP3    H153699   2.607   1.483  13.414 -0.2723 -0.3981  1.4703
10736TIP3    H253700   2.626   1.614  13.341 -1.2289 -1.3107 -0.4722
10737TIP3   OH253701   1.157   3.615  14.239 -0.2246  0.7287  0.3980
10737TIP3    H153702   1.106   3.538  14.217  0.7107  0.2316 -0.1067
10737TIP3    H253703   1.105   3.689  14.207 -0.3828  0.1970 -0.6136
10738TIP3   OH253704   6.439   6.328   2.918  0.0888 -0.3525  0.4193
10738TIP3    H153705   6.480   6.356   3.000  2.1604 -1.9726  0.0225
10738TIP3    H253706   6.512   6.302   2.862 -1.3655 -0.9178 -1.3301
10739TIP3   OH253707   6.172   4.798   0.119 -0.0928 -0.2124  0.6627
10739TIP3    H153708   6.086   4.837   0.105  0.1471 -0.0187 -0.2771
10739TIP3    H253709   6.154   4.717   0.169 -0.9397 -0.8236 -0.5952
10740TIP3   OH253710   1.143   4.938  12.191 -0.0618 -0.5860  0.4029
10740TIP3    H153711   1.206   4.987  12.245 -0.6236  1.6918 -0.8574
10740TIP3    H253712   1.172   4.952  12.101 -1.0938 -1.3940 -0.0831
10741TIP3   OH253713   3.999   6.725   1.312 -0.4543  0.5330 -0.4106
10741TIP3    H153714   3.983   6.790   1.244 -0.7244  0.1678 -0.7009
10741TIP3    H253715   3.955   6.760   1.390  0.1678  1.1315 -0.3178
10742TIP3   OH253716   6.813   2.756  11.508  0.3493 -0.1760 -0.6770
10742TIP3    H153717   6.871   2.831  11.499 -1.3928  1.0304 -3.5853
10742TIP3    H253718   6.862   2.683  11.471  1.0951  0.1153 -0.2785
10743TIP3   OH253719   0.379   2.822  14.428 -0.2009  0.0109 -0.1053
10743TIP3    H153720   0.407   2.840  14.518  0.6860  1.2225 -0.5997
10743TIP3    H253721   0.448   2.768  14.391  0.3074  0.9608 -0.5751
10744TIP3   OH253722   1.758   2.777  14.221  0.3913  0.1319  0.3062
10744TIP3    H153723   1.749   2.829  14.301 -0.1399 -1.7192  1.4973
10744TIP3    H253724   1.669   2.749  14.200  0.5470  0.4842 -0.8668
10745TIP3   OH253725   4.827   5.392   1.867 -0.2604  0.1472  0.2174
10745TIP3    H153726   4.915   5.427   1.877  0.2026 -1.5584  3.6084
10745TIP3    H253727   4.840   5.303   1.833 -0.8129  0.3375 -0.5368
10746TIP3   OH253728   3.889   1.257  13.254 -0.0974  0.8575 -0.0829
10746TIP3    H153729   3.795   1.255  13.238 -0.1971 -1.2125  0.5420
10746TIP3    H253730   3.917   1.166  13.251  1.8048  1.3718  0.3162
10747TIP3   OH253731   6.068   2.915   3.625  0.1557 -0.1886 -0.2673
10747TIP3    H153732   5.989   2.871   3.656 -1.8580  3.0680 -0.3036
10747TIP3    H253733   6.093   2.868   3.546 -2.6860 -0.4548 -1.0901
10748TIP3   OH253734   3.478   3.707  15.656  0.4098  0.5078 -0.3661
10748TIP3    H153735   3.476   3.782  15.715  0.9124  0.9282 -0.8847
10748TIP3    H253736   3.417   3.644  15.696  0.8113  0.7509  0.6477
10749TIP3   OH253737   3.762   0.524  15.621 -0.6021 -0.5546  0.6523
10749TIP3    H153738   3.739   0.563  15.705 -0.8959 -1.5433  1.0535
10749TIP3    H253739   3.837   0.575  15.589  1.0034 -1.5340  2.6030
10750TIP3   OH253740   1.820   1.852   0.764  0.6095  0.1041  0.5756
10750TIP3    H153741   1.788   1.790   0.829 -0.0649  0.3398  0.4847
10750TIP3    H253742   1.773   1.829   0.684  2.1244 -0.7864 -0.0958
10751TIP3   OH253743   1.735   0.261  16.072  0.8146 -0.2050 -0.2401
10751TIP3    H153744   1.702   0.203  16.004 -2.0885  0.3067  0.5803
10751TIP3    H253745   1.767   0.203  16.140 -1.4065 -0.9293  0.2741
10752TIP3   OH253746   3.279   6.455   5.060 -0.4723  0.0549  0.6688
10752TIP3    H153747   3.354   6.427   5.007  0.4957  0.4753  1.7827
10752TIP3    H253748   3.314   6.523   5.116 -2.1678  1.6339 -0.1131
10753TIP3   OH253749   2.270   2.849   5.125 -0.4046  0.2975 -0.3045
10753TIP3    H153750   2.360   2.825   5.147 -0.8038 -1.6763 -0.7155
10753TIP3    H253751   2.275   2.943   5.104  1.5691  0.1903 -0.4582
10754TIP3   OH253752   0.537   2.706  13.152  0.1813 -0.3339 -0.8278
10754TIP3    H153753   0.606   2.725  13.215  0.1542  1.4506 -1.3070
10754TIP3    H253754   0.511   2.791  13.118 -0.8956 -1.1408 -2.1050
10755TIP3   OH253755   3.620   6.244   0.694  0.1030 -0.4244 -0.1655
10755TIP3    H153756   3.671   6.190   0.754 -1.7038 -0.7510  1.1693
10755TIP3    H253757   3.605   6.325   0.743 -1.3652 -0.6814 -0.1421
10756TIP3   OH253758   2.018   4.313   1.086  0.1168 -0.7740  0.4873
10756TIP3    H153759   1.952   4.284   1.149 -0.3214  0.3501  0.5738
10756TIP3    H253760   1.967   4.337   1.008  0.2483  1.2758  0.9764
10757TIP3   OH253761   3.412   1.008   3.247  0.0444  0.0024  0.6139
10757TIP3    H153762   3.393   1.098   3.218  0.0189 -0.2955 -0.3409
10757TIP3    H253763   3.403   1.011   3.342 -0.6562  0.8503  0.5384
10758TIP3   OH253764   5.846   1.467   1.266  0.6536  0.1583 -0.2575
10758TIP3    H153765   5.899   1.453   1.189 -0.2868 -0.2616 -0.8455
10758TIP3    H253766   5.906   1.457   1.340  1.3812 -0.2659 -0.9021
10759TIP3   OH253767   3.182   1.559  14.663  0.0099 -0.5465  0.2749
10759TIP3    H153768   3.161   1.612  14.740 -0.3011 -0.3754  0.0765
10759TIP3    H253769   3.100   1.516  14.641  0.2892 -1.1991  0.4977
10760TIP3   OH253770   4.850   2.257   1.252 -0.2518 -0.4946  0.0840
10760TIP3    H153771   4.807   2.206   1.322  0.7384 -1.2530  0.1591
10760TIP3    H253772   4.858   2.345   1.289 -2.4513 -0.1020 -0.2406
10761TIP3   OH253773   4.477   3.602  11.741 -0.1093  0.3687  0.3708
10761TIP3    H153774   4.521   3.577  11.660  1.1332 -0.4848  1.2617
10761TIP3    H253775   4.480   3.523  11.795 -0.7398  0.9722  1.3264
10762TIP3   OH253776   6.439   2.554   2.944  0.1080  0.1905 -0.2915
10762TIP3    H153777   6.462   2.492   2.874  0.9029 -0.3237  0.4079
10762TIP3    H253778   6.371   2.510   2.994  1.6647 -0.7733  1.0600
10763TIP3   OH253779   3.348   2.438  11.790 -0.2962  0.4089  0.1681
10763TIP3    H153780   3.338   2.389  11.872 -0.5249  2.1195  1.2059
10763TIP3    H253781   3.346   2.371  11.722  1.4663 -1.2537  1.6225
10764TIP3   OH253782   4.239   0.118  13.136  0.6269 -0.2269  0.0745
10764TIP3    H153783   4.265   0.203  13.172 -0.8160  0.3761 -0.2494
10764TIP3    H253784   4.306   0.057  13.168 -0.3251  0.3193  3.5304
10765TIP3   OH253785   2.074   0.926   4.755  0.5514  0.7224  0.2526
10765TIP3    H153786   2.021   1.005   4.750 -0.7508 -0.1308  0.0773
10765TIP3    H253787   2.066   0.898   4.846  1.2591  0.9505  0.3886
10766TIP3   OH253788   4.824   5.310   5.560  0.0434  0.6079  0.2969
10766TIP3    H153789   4.893   5.257   5.521 -1.2183 -0.7556 -0.1326
10766TIP3    H253790   4.822   5.283   5.652  0.8660  1.5304  0.6082
10767TIP3   OH253791   1.114   0.969   3.885  0.1883 -0.1216  0.3829
10767TIP3    H153792   1.156   0.905   3.942  2.2980  1.4344  0.6927
10767TIP3    H253793   1.128   1.053   3.929  1.6173  1.1008 -2.2133
10768TIP3   OH253794   3.015   4.392  15.242 -0.7903  0.0515  0.4092
10768TIP3    H153795   3.041   4.371  15.332  0.0642  0.2691  0.2281
10768TIP3    H253796   2.968   4.315  15.212  1.7082 -1.4223 -0.0251
10769TIP3   OH253797   4.579   0.582  16.311 -0.1573  0.1605 -0.3649
10769TIP3    H153798   4.502   0.623  16.350  0.2877  0.6529  0.0149
10769TIP3    H253799   4.595   0.504  16.365  1.1940  1.4915  1.2914
10770TIP3   OH253800   3.322   0.808  12.128  0.8441 -0.8814  0.6301
10770TIP3    H153801   3.330   0.856  12.045  0.9767  1.3689  1.8821
10770TIP3    H253802   3.232   0.774  12.127  0.7803 -0.7210 -0.3234
10771TIP3   OH253803   6.232   6.804   5.906 -0.0785 -0.3925  0.7001
10771TIP3    H153804   6.260   6.877   5.850 -0.6394  1.1884  2.3682
10771TIP3    H253805   6.141   6.825   5.929  0.2027 -0.8582  2.3659
10772TIP3   OH253806   3.278   5.570   2.166 -0.0003  0.0685  0.1287
10772TIP3    H153807   3.208   5.557   2.230 -1.4355  1.9273 -0.9483
10772TIP3    H253808   3.250   5.520   2.090 -1.4539  2.5710 -1.1290
10773TIP3   OH253809   2.789   1.178   6.463 -0.1608  0.3483  0.4874
10773TIP3    H153810   2.782   1.258   6.411 -0.1037  1.6401  2.3661
10773TIP3    H253811   2.881   1.152   6.453  0.1455  1.2497  0.8672
10774TIP3   OH253812   0.086   5.942  15.409  0.3113  0.5531 -0.8201
10774TIP3    H153813   0.135   5.901  15.338 -1.4655 -2.2441 -0.5511
10774TIP3    H253814   0.152   5.991  15.459  2.5128 -1.6037 -1.4533
10775TIP3   OH253815   2.478   3.474   4.545 -0.4937 -0.3664 -0.9205
10775TIP3    H153816   2.548   3.503   4.486 -1.1000 -0.9312 -1.9675
10775TIP3    H253817   2.436   3.555   4.574  0.7720 -0.0112 -0.0368
10776TIP3   OH253818   4.057   2.192   2.122 -0.2219  0.3166  0.5741
10776TIP3    H153819   4.028   2.281   2.142  0.5157  0.5970  0.4520
10776TIP3    H253820   4.029   2.178   2.032 -1.4694 -0.0648  1.0058
10777TIP3   OH253821   1.401   4.819   3.630 -0.4739  0.0998  0.1825
10777TIP3    H153822   1.457   4.840   3.705 -0.3618  1.2948 -0.2117
10777TIP3    H253823   1.335   4.759   3.666 -0.9778  1.3538  1.4804
10778TIP3   OH253824   0.555   6.539   3.012  0.3751 -0.1535  0.2606
10778TIP3    H153825   0.468   6.556   3.049  0.3511 -1.8333  1.0447
10778TIP3    H253826   0.582   6.624   2.977 -1.7754  0.3206 -0.4513
10779TIP3   OH253827   3.167   1.047   4.447  0.1168 -0.1218  0.1665
10779TIP3    H153828   3.104   1.020   4.514  0.8793 -2.0693  0.1715
10779TIP3    H253829   3.173   0.971   4.388 -1.1060  1.7707 -2.6192
10780TIP3   OH253830   5.133   4.406   2.064  0.0106  0.0781 -0.0372
10780TIP3    H153831   5.194   4.437   1.997 -2.1290 -1.3335 -2.8121
10780TIP3    H253832   5.125   4.312   2.048 -1.5265 -0.0931  1.4315
10781TIP3   OH253833   1.685   3.220  11.964  0.0837 -0.3919  0.2425
10781TIP3    H153834   1.763   3.236  11.909  0.4032 -1.8747  0.2171
10781TIP3    H253835   1.620   3.186  11.903 -0.4919  0.5236  0.3274
10782TIP3   OH253836   3.630   2.407   5.461 -0.1485 -0.1370  0.3058
10782TIP3    H153837   3.584   2.377   5.539  0.9288 -0.7393  0.7284
10782TIP3    H253838   3.705   2.349   5.453  2.8410  3.1138  1.9287
10783TIP3   OH253839   2.975   4.762  16.633 -0.5446 -0.4564 -0.2832
10783TIP3    H153840   2.934   4.676  16.627 -0.8496 -0.1988 -2.6015
10783TIP3    H253841   3.047   4.760  16.570  0.9290  0.2454  1.2916
10784TIP3   OH253842   2.217   1.310   2.402  0.4218  0.1494  0.0879
10784TIP3    H153843   2.300   1.346   2.431  1.0782 -0.2654 -1.1701
10784TIP3    H253844   2.220   1.319   2.306  0.3678 -2.6199 -0.2489
10785TIP3   OH253845   0.215   0.421   1.141  0.2147 -0.0249  0.2689
10785TIP3    H153846   0.151   0.351   1.129  0.5465 -0.1111 -1.1684
10785TIP3    H253847   0.187   0.491   1.082  0.4804  0.6427  0.9098
10786TIP3   OH253848   3.820   1.933  13.445  0.4131  0.1516 -0.0652
10786TIP3    H153849   3.838   1.840  13.455  0.7450  0.1996 -0.2006
10786TIP3    H253850   3.740   1.948  13.495  0.2089 -0.2594 -0.2653
10787TIP3   OH253851   3.930   5.083   1.574 -0.0167  0.3681 -0.2697
10787TIP3    H153852   3.991   5.009   1.569 -0.2002  0.2756 -1.6412
10787TIP3    H253853   3.956   5.130   1.653  1.6911  0.2189 -0.6952
10788TIP3   OH253854   4.004   6.128   4.776 -0.5405 -0.1205 -0.4508
10788TIP3    H153855   3.942   6.057   4.795 -0.0777 -0.0383  1.7287
10788TIP3    H253856   4.090   6.089   4.791 -0.1748  0.3420 -1.3170
10789TIP3   OH253857   3.245   1.754  16.275  0.3463 -0.2712 -0.0681
10789TIP3    H153858   3.188   1.766  16.200  0.2593 -0.6369 -0.0627
10789TIP3    H253859   3.314   1.695  16.244 -0.6380 -1.8592  0.6091
10790TIP3   OH253860   5.647   3.642  12.801  0.3081  0.0313  0.4512
10790TIP3    H153861   5.596   3.637  12.720 -1.4383 -1.5184  1.5568
10790TIP3    H253862   5.681   3.731  12.802 -0.7154  0.5008 -1.3365
10791TIP3   OH253863   4.794   3.587  11.315  0.2624  0.3011  0.1718
10791TIP3    H153864   4.885   3.575  11.286  0.3836 -0.2065  0.7248
10791TIP3    H253865   4.769   3.673  11.283  0.1768 -0.4548 -1.9640
10792TIP3   OH253866   2.245   2.928  12.762  0.4432 -1.0050 -0.0137
10792TIP3    H153867   2.186   2.987  12.715  1.7545  0.0049 -0.4639
10792TIP3    H253868   2.232   2.843  12.721  1.0450 -0.2930 -1.7667
10793TIP3   OH253869   4.752   6.559  12.530  0.1573  0.1794 -0.7604
10793TIP3    H153870   4.801   6.577  12.611  0.8017 -1.9214 -0.6236
10793TIP3    H253871   4.807   6.596  12.460  0.3500  0.6526 -0.3651
10794TIP3   OH253872   2.843   4.961   0.597 -0.3190 -0.0764  0.7739
10794TIP3    H153873   2.750   4.962   0.620 -0.0238  5.9351  3.8410
10794TIP3    H253874   2.854   5.035   0.537  2.6070  0.5692  1.8946
10795TIP3   OH253875   4.322   4.651   2.024 -0.3633  0.0045 -0.2382
10795TIP3    H153876   4.399   4.611   2.065 -0.6163 -0.8812 -0.5988
10795TIP3    H253877   4.331   4.630   1.931  0.9535  3.2046 -0.9578
10796TIP3   OH253878   6.750   1.168   2.673 -0.0450  0.0746 -0.1486
10796TIP3    H153879   6.789   1.250   2.643  1.5668 -0.8534 -0.6937
10796TIP3    H253880   6.823   1.107   2.680 -0.8358 -0.7231  2.4438
10797TIP3   OH253881   0.217   2.278  15.993 -0.2181  0.3997  0.0469
10797TIP3    H153882   0.281   2.326  15.940 -0.4405 -0.5864 -1.1496
10797TIP3    H253883   0.144   2.339  16.004 -0.0498  0.7118 -0.5394
10798TIP3   OH253884   6.442   1.379   4.769 -0.3647 -0.4335  0.3581
10798TIP3    H153885   6.518   1.381   4.827  0.5638 -3.3653 -0.5773
10798TIP3    H253886   6.383   1.315   4.809  0.1985 -2.3630 -1.6639
10799TIP3   OH253887   3.962   4.529   4.174 -0.2765 -0.2179 -0.2339
10799TIP3    H153888   3.995   4.452   4.128 -0.7415 -0.8173  0.4089
10799TIP3    H253889   3.983   4.513   4.266 -3.2407 -1.1827  0.3893
10800TIP3   OH253890   1.982   5.533  16.301  0.0717 -0.4850  0.5595
10800TIP3    H153891   1.905   5.510  16.250  0.3079 -0.0558 -0.0130
10800TIP3    H253892   2.007   5.453  16.346 -1.3891 -0.3403  1.6853
10801TIP3   OH253893   0.884   3.924  16.869  0.4195  0.0383 -0.0863
10801TIP3    H153894   0.963   3.974  16.850  2.1441 -2.0790  1.1152
10801TIP3    H253895   0.882   3.855  16.803  1.2644 -1.6643  1.5685
10802TIP3   OH253896   3.086   3.968   2.988 -0.4333  0.2231 -0.0371
10802TIP3    H153897   3.174   4.006   2.995 -0.9040  1.1111  1.8810
10802TIP3    H253898   3.039   4.004   3.064 -2.4836 -0.1685 -1.0679
10803TIP3   OH253899   5.595   4.672   3.035  0.6192  0.8208 -0.3242
10803TIP3    H153900   5.673   4.717   3.067 -0.6391  2.8036  0.1527
10803TIP3    H253901   5.522   4.722   3.072 -0.8964 -1.3962 -0.1656
10804TIP3   OH253902   1.402   1.027   0.822 -0.1008  0.2507  0.2440
10804TIP3    H153903   1.400   0.972   0.901  2.0725  1.5485  1.3047
10804TIP3    H253904   1.380   1.115   0.854  0.8755  0.8085 -0.5633
10805TIP3   OH253905   1.198   2.264   0.270  0.2477 -0.7901 -0.4320
10805TIP3    H153906   1.197   2.227   0.182 -0.5209 -0.6218 -0.5023
10805TIP3    H253907   1.184   2.358   0.257 -1.9313 -1.0115 -0.0457
10806TIP3   OH253908   3.597   0.014   0.049  0.1234 -0.2598 -0.2582
10806TIP3    H153909   3.519   0.069   0.038 -2.1616 -2.8927  1.5742
10806TIP3    H253910   3.581  -0.062  -0.007  2.4947  0.0833 -1.5538
10807TIP3   OH253911   1.662   6.038  17.139  0.1155 -0.0834  0.0179
10807TIP3    H153912   1.725   5.986  17.189 -2.0845 -3.8869 -0.7525
10807TIP3    H253913   1.712   6.069  17.063  1.6393 -0.8380  0.6659
10808TIP3   OH253914   1.582   2.626   1.309  0.8404  0.3547 -0.0845
10808TIP3    H153915   1.662   2.584   1.339  1.2710  1.5374  0.5089
10808TIP3    H253916   1.603   2.720   1.309 -0.6015  0.6979  0.2872
10809TIP3   OH253917   6.343   1.279  16.772 -0.8639  0.1280  0.1653
10809TIP3    H153918   6.396   1.356  16.793 -1.0435  0.8709 -1.9371
10809TIP3    H253919   6.323   1.241  16.858 -0.8565  2.4578  1.2897
10810TIP3   OH253920   6.095   3.040  15.473  0.5257  0.0811 -0.0080
10810TIP3    H153921   6.117   2.994  15.554  0.8644  0.3964  0.0864
10810TIP3    H253922   6.030   3.105  15.499  0.4518  0.0159 -0.0336
10811TIP3   OH253923   6.650   3.001   0.536  0.0905 -0.1498  0.7482
10811TIP3    H153924   6.718   3.041   0.589  0.0910  0.2144  0.4827
10811TIP3    H253925   6.695   2.971   0.457 -0.2607  1.3892 -0.0909
10812TIP3   OH253926   5.408   3.617   5.529 -1.1275 -0.1283 -0.5071
10812TIP3    H153927   5.385   3.702   5.490 -1.4007 -0.1731 -0.4449
10812TIP3    H253928   5.469   3.578   5.467 -1.0108  0.1111 -0.5418
10813TIP3   OH253929   5.192   1.422  12.423  0.6143  0.3908  0.0051
10813TIP3    H153930   5.224   1.332  12.417 -1.2670 -0.3813  0.8046
10813TIP3    H253931   5.248   1.471  12.362  1.2518 -1.4262 -0.9670
10814TIP3   OH253932   6.326   3.253  14.612 -0.2479  0.4924  0.4470
10814TIP3    H153933   6.396   3.318  14.613  0.5786 -0.3745  1.4500
10814TIP3    H253934   6.340   3.205  14.530 -1.2955  1.9895 -0.6491
10815TIP3   OH253935   4.055   4.793  12.682  0.0883 -0.1728  0.6413
10815TIP3    H153936   4.113   4.733  12.729  0.4061 -0.0514  0.4125
10815TIP3    H253937   4.032   4.745  12.602  2.3184  0.9051 -0.7612
10816TIP3   OH253938   1.141   6.780   0.088 -0.1905 -0.0749  0.0788
10816TIP3    H153939   1.096   6.825   0.017  0.3513 -1.2917 -1.0917
10816TIP3    H253940   1.188   6.849   0.135 -2.3189  1.0620  0.6646
10817TIP3   OH253941   6.570   1.948   3.470  0.1810 -0.3717  0.5290
10817TIP3    H153942   6.655   1.964   3.511 -0.8594 -0.4922  2.8784
10817TIP3    H253943   6.513   2.014   3.509 -0.2528  1.8601 -3.3263
10818TIP3   OH253944   0.420   6.400  13.335  0.1984 -0.6002 -0.2448
10818TIP3    H153945   0.394   6.485  13.372 -1.5121 -1.4472  0.5866
10818TIP3    H253946   0.475   6.423  13.260  1.6055  1.2161  1.2432
10819TIP3   OH253947   3.069   2.367   4.439 -0.7732 -0.3407 -0.3683
10819TIP3    H153948   3.129   2.295   4.455  0.6748  0.8589 -0.1509
10819TIP3    H253949   3.020   2.342   4.361 -1.8043 -2.4540  0.8660
10820TIP3   OH253950   1.494   2.780   3.329  0.0609 -0.0438 -0.6956
10820TIP3    H153951   1.587   2.775   3.308 -0.0825  0.5646 -1.5228
10820TIP3    H253952   1.461   2.691   3.315  0.6859 -0.4954  0.5231
10821TIP3   OH253953   0.667   0.651   0.924 -0.5941 -0.2529 -0.6929
10821TIP3    H153954   0.598   0.609   0.974  1.3532 -3.5598 -0.4601
10821TIP3    H253955   0.743   0.593   0.934  1.3958  1.6451 -3.2406
10822TIP3   OH253956   4.968   4.032  12.711 -0.8004  1.1188 -0.1416
10822TIP3    H153957   5.025   4.014  12.637  1.0524 -1.3684  1.7138
10822TIP3    H253958   4.905   3.960  12.711  1.1066 -0.7695  2.2388
10823TIP3   OH253959   6.067   0.703   3.498  0.1817 -0.2619  0.2693
10823TIP3    H153960   6.017   0.697   3.416  0.9984 -1.5830 -0.1673
10823TIP3    H253961   6.080   0.797   3.511 -0.4732 -0.0010 -0.8047
10824TIP3   OH253962   4.866   1.168  13.546 -0.2233 -0.2279  0.4400
10824TIP3    H153963   4.945   1.195  13.500 -1.5654  2.8255 -0.3114
10824TIP3    H253964   4.819   1.113  13.483  0.0862  0.1132 -0.0926
10825TIP3   OH253965   1.874   3.286  16.965 -0.6443  0.1984  0.3875
10825TIP3    H153966   1.786   3.287  17.003 -1.0633 -0.9678 -0.4668
10825TIP3    H253967   1.888   3.195  16.940  1.2655  0.1426  1.4695
10826TIP3   OH253968   5.503   3.853  16.865 -0.1266 -0.0775 -0.1759
10826TIP3    H153969   5.437   3.892  16.808  0.0985  1.0435  0.3175
10826TIP3    H253970   5.497   3.902  16.946 -0.0304 -1.2653  0.5735
10827TIP3   OH253971   3.217   1.551  17.155  0.1303  0.2033  0.3531
10827TIP3    H153972   3.209   1.488  17.083 -0.9268  1.3415 -0.5872
10827TIP3    H253973   3.263   1.626  17.116 -0.1086  0.6807  0.9769
10828TIP3   OH253974   0.344   4.928   0.498 -0.9590  0.4581  0.6733
10828TIP3    H153975   0.427   4.926   0.546  0.9327  2.1319 -2.1949
10828TIP3    H253976   0.362   4.880   0.417 -2.5428  1.4889 -0.3427
10829TIP3   OH253977   3.514   6.197  12.982  0.0591 -0.1820  0.2394
10829TIP3    H153978   3.503   6.245  13.064  2.9092 -0.5929  0.9412
10829TIP3    H253979   3.563   6.256  12.926  0.2389 -0.8345 -0.2942
10830TIP3   OH253980   6.799   5.838  16.137 -0.1822  0.0822 -0.5539
10830TIP3    H153981   6.804   5.902  16.065 -1.5015  1.0866  0.2112
10830TIP3    H253982   6.744   5.880  16.203  1.5043 -0.5403  1.3592
10831TIP3   OH253983   0.217   4.108  16.233  0.1478 -0.3042  0.0319
10831TIP3    H153984   0.153   4.045  16.264 -0.6877  0.5612  0.1238
10831TIP3    H253985   0.165   4.183  16.202  1.0551 -0.0744 -1.0471
10832TIP3   OH253986   0.950   6.362  12.311  0.0791 -0.4550  0.3106
10832TIP3    H153987   0.855   6.365  12.298  0.1982 -0.8043 -0.7366
10832TIP3    H253988   0.986   6.388  12.227  0.9212  1.0130  1.1008
10833TIP3   OH253989   4.930   3.442   0.835  0.0366  0.0308  0.3742
10833TIP3    H153990   4.982   3.508   0.789 -0.5647  0.0045 -0.3740
10833TIP3    H253991   4.868   3.411   0.769 -1.1419  0.2969  1.3317
10834TIP3   OH253992   6.333   5.579  11.079 -0.1331  0.0171  0.2676
10834TIP3    H153993   6.267   5.645  11.055  0.2110  0.1730 -0.2762
10834TIP3    H253994   6.286   5.517  11.135 -1.3219 -1.0243 -1.7650
10835TIP3   OH253995   6.101   5.153   5.317  0.2477 -0.1321  0.6432
10835TIP3    H153996   6.007   5.155   5.329  0.3068 -0.1018  1.1107
10835TIP3    H253997   6.121   5.063   5.291  0.2273 -0.4600  1.7070
10836TIP3   OH253998   3.953   6.580   4.514  0.5952 -0.2201 -0.0512
10836TIP3    H153999   3.979   6.574   4.606  0.2252 -0.6567  0.0272
10836TIP3    H254000   3.878   6.522   4.506  0.9539 -0.5962 -0.7518
10837TIP3   OH254001   5.101   5.245   1.289  0.2116  0.3987  0.1300
10837TIP3    H154002   5.174   5.262   1.348 -1.4126 -0.9902  2.7287
10837TIP3    H254003   5.024   5.281   1.334 -1.0972 -0.7029 -1.1234
10838TIP3   OH254004   4.433   4.412  13.352  0.3854  0.5505  0.1238
10838TIP3    H154005   4.483   4.418  13.433 -0.4330 -0.5950  0.7342
10838TIP3    H254006   4.478   4.346  13.300  2.3078  2.9103 -1.4380
10839TIP3   OH254007   0.790   3.423   2.121 -0.0883 -0.2430 -0.2468
10839TIP3    H154008   0.879   3.449   2.146 -0.8569  0.1818  2.2948
10839TIP3    H254009   0.739   3.431   2.201 -2.0418 -2.3500 -1.1636
10840TIP3   OH254010   1.921   3.964   3.118  0.0060  0.7482  0.8508
10840TIP3    H154011   1.861   3.897   3.085 -1.4157  2.2095  0.3530
10840TIP3    H254012   1.933   3.941   3.211 -0.1389 -0.3969  0.6047
10841TIP3   OH254013   1.322   3.856  13.108  0.4172  0.6600 -0.0327
10841TIP3    H154014   1.391   3.911  13.142  0.1423  1.2014 -0.3392
10841TIP3    H254015   1.308   3.886  13.018 -0.8984  1.2502  0.3368
10842TIP3   OH254016   0.133   0.456   2.236 -0.3546 -0.3000 -0.3447
10842TIP3    H154017   0.174   0.408   2.308 -2.1851 -2.1339 -0.4248
10842TIP3    H254018   0.108   0.540   2.274  0.6319 -0.3791  0.5258
10843TIP3   OH254019   1.679   6.643   0.476  0.0740 -0.4175 -0.0518
10843TIP3    H154020   1.704   6.706   0.543 -1.2990  0.9074 -0.7362
10843TIP3    H254021   1.639   6.571   0.525  0.0105  0.0588  0.6110
10844TIP3   OH254022   4.758   1.349  13.322  0.2014 -0.6721  0.2087
10844TIP3    H154023   4.802   1.387  13.398  1.2058 -0.5768 -0.3992
10844TIP3    H254024   4.767   1.254  13.333  1.8961 -0.6530 -0.6252
10845TIP3   OH254025   6.362   0.107  16.991  0.3479 -0.2619  0.2927
10845TIP3    H154026   6.276   0.073  17.017  1.1292 -2.2425  0.4370
10845TIP3    H254027   6.369   0.086  16.898  0.5719  0.1238  0.2210
10846TIP3   OH254028   4.168   1.424   4.803 -0.4588  0.2572 -0.1961
10846TIP3    H154029   4.264   1.432   4.799 -0.4773  1.1037  0.8032
10846TIP3    H254030   4.142   1.414   4.711  0.5055  1.0421 -0.5788
10847TIP3   OH254031   4.274   6.064   4.908  0.0998  0.2183  0.1199
10847TIP3    H154032   4.239   6.124   4.974  1.2393  1.7921 -0.6153
10847TIP3    H254033   4.348   6.112   4.870  0.4434 -1.2802 -1.2080
10848TIP3   OH254034   0.092   1.271   2.004  0.6534  0.1855 -0.9109
10848TIP3    H154035   0.149   1.207   1.962  1.2634  0.3304 -0.3269
10848TIP3    H254036   0.125   1.356   1.973  0.9544  0.2824 -0.3464
10849TIP3   OH254037   4.984   6.428   1.760  0.3155 -0.3175 -0.1209
10849TIP3    H154038   5.075   6.433   1.791  1.2033  0.5516 -2.6416
10849TIP3    H254039   4.938   6.497   1.808  1.7549  1.3477 -1.0226
10850TIP3   OH254040   5.028   3.033   1.367 -0.0294 -0.2412 -0.6283
10850TIP3    H154041   4.968   3.026   1.293 -0.1335 -2.3636 -0.3941
10850TIP3    H254042   5.105   2.982   1.342  0.2497 -0.3664  0.4221
10851TIP3   OH254043   5.327   2.104  13.742  0.1611  0.0538 -0.1643
10851TIP3    H154044   5.336   2.148  13.658 -0.3308  1.1622  0.3411
10851TIP3    H254045   5.240   2.128  13.774  0.7453  0.5677  1.1469
10852TIP3   OH254046   1.359   0.359   4.724 -0.6386 -0.2182 -0.3714
10852TIP3    H154047   1.328   0.270   4.743 -0.7150 -0.0433  0.3353
10852TIP3    H254048   1.448   0.361   4.761 -1.0540  0.3505  0.6226
10853TIP3   OH254049   1.000   3.898   3.393 -0.2054 -0.3284 -0.4547
10853TIP3    H154050   0.918   3.945   3.376 -0.1139  0.1265  0.2956
10853TIP3    H254051   1.054   3.916   3.316 -0.2841  0.5763 -0.3110
10854TIP3   OH254052   2.223   1.447   6.718 -0.0722 -0.2933 -0.6327
10854TIP3    H154053   2.206   1.541   6.718 -1.3723 -0.4867 -2.7229
10854TIP3    H254054   2.311   1.439   6.682 -0.2736  0.0772 -1.2128
10855TIP3   OH254055   0.609   4.056  16.368 -0.3698  0.0619 -0.0287
10855TIP3    H154056   0.573   3.974  16.335 -1.0647 -0.0902  1.0375
10855TIP3    H254057   0.684   4.029  16.421 -1.2684 -0.0225  1.2576
10856TIP3   OH254058   4.308   4.106  15.706  0.0622  0.4758  0.1769
10856TIP3    H154059   4.351   4.024  15.729 -2.6802 -1.6380 -1.6808
10856TIP3    H254060   4.376   4.156  15.659  2.0633 -0.2215  2.1695
10857TIP3   OH254061   1.405   0.843   3.497 -0.9575 -0.2959 -0.3042
10857TIP3    H154062   1.477   0.905   3.510 -1.5565  0.4312 -0.3767
10857TIP3    H254063   1.400   0.832   3.402  0.0021 -1.5066 -0.2434
10858TIP3   OH254064   5.676   4.170   0.341 -0.3376  0.0754  0.6312
10858TIP3    H154065   5.627   4.239   0.385 -2.2160  1.5462 -3.3170
10858TIP3    H254066   5.761   4.209   0.323 -0.9040  0.9222 -0.3346
10859TIP3   OH254067   3.087   0.353  13.844  0.5933 -0.8764  0.3820
10859TIP3    H154068   3.177   0.384  13.835  1.0125 -2.0520  0.2775
10859TIP3    H254069   3.035   0.413  13.791  1.1776  0.3758  1.1896
10860TIP3   OH254070   2.207   2.948  12.408 -0.5447 -0.3385 -0.1187
10860TIP3    H154071   2.137   2.997  12.451  0.3549 -0.7614  1.9470
10860TIP3    H254072   2.202   2.975  12.316 -1.9632  1.3488  0.3919
10861TIP3   OH254073   6.716   5.096  16.488 -0.4529  0.1447 -0.1745
10861TIP3    H154074   6.755   5.048  16.561  0.6072  1.6314  0.2830
10861TIP3    H254075   6.699   5.028  16.422 -1.7366 -1.2876  1.5167
10862TIP3   OH254076   3.253   5.741   1.174  0.1832  0.5140  0.0684
10862TIP3    H154077   3.159   5.737   1.188 -0.0103  0.7582 -1.0740
10862TIP3    H254078   3.289   5.772   1.257 -0.9308  2.3037 -0.0679
10863TIP3   OH254079   1.113   6.026   0.750  0.0351  0.2830 -0.4772
10863TIP3    H154080   1.097   6.078   0.829 -1.4136  0.7870 -1.0865
10863TIP3    H254081   1.194   5.978   0.770  0.7651  1.8483  0.5656
10864TIP3   OH254082   5.778   1.053   1.247  0.4273 -0.2485 -0.4651
10864TIP3    H154083   5.716   1.016   1.310  0.3482  2.0880  0.9758
10864TIP3    H254084   5.864   1.030   1.281  0.3801  0.8111  0.4467
10865TIP3   OH254085   4.689   6.377  12.304 -0.7695  0.2418 -0.6376
10865TIP3    H154086   4.641   6.448  12.347 -0.2492  1.3574 -1.8448
10865TIP3    H254087   4.749   6.345  12.371 -2.3231 -0.3624  0.5182
10866TIP3   OH254088   2.409   0.749  13.526 -0.3004 -0.1895 -0.1493
10866TIP3    H154089   2.419   0.755  13.431 -0.1770 -0.2259 -0.1382
10866TIP3    H254090   2.350   0.675  13.538 -0.0603 -0.3872 -0.1832
10867TIP3   OH254091   5.519   2.981  13.680  0.0401 -0.4504 -0.4860
10867TIP3    H154092   5.609   2.984  13.712 -0.4932  0.8989  1.0216
10867TIP3    H254093   5.510   3.061  13.628 -1.1104  1.0824  1.9002
10868TIP3   OH254094   0.423   4.258  16.681 -0.0852 -0.0642 -0.1963
10868TIP3    H154095   0.470   4.177  16.702  0.5160 -0.4895 -2.7880
10868TIP3    H254096   0.331   4.230  16.672 -0.3032  0.0717  1.3546
10869TIP3   OH254097   0.231   5.445  11.153  0.0256  0.4590  0.2739
10869TIP3    H154098   0.155   5.410  11.198  0.3129 -0.2313  0.2351
10869TIP3    H254099   0.195   5.499  11.083 -0.4613 -0.8293 -0.5115
10870TIP3   OH254100   0.647   6.682  16.342  0.0897  0.1736 -0.0540
10870TIP3    H154101   0.677   6.752  16.284 -2.0361 -0.1208 -1.6389
10870TIP3    H254102   0.556   6.704  16.361  0.4459 -0.2607  2.4710
10871TIP3   OH254103   1.593   2.220  17.074 -0.3975 -0.2527 -0.0255
10871TIP3    H154104   1.659   2.170  17.122 -0.3551 -1.8192 -1.6409
10871TIP3    H254105   1.644   2.285  17.025 -0.3255  0.3409  0.7951
10872TIP3   OH254106   4.360   6.197   1.621  0.4450 -0.0211 -0.1811
10872TIP3    H154107   4.280   6.247   1.602 -1.3312 -2.5640  0.0963
10872TIP3    H254108   4.406   6.191   1.538 -0.4130  0.2510 -0.6824
10873TIP3   OH254109   0.502   1.586  17.077  0.2854 -0.2671  0.1596
10873TIP3    H154110   0.571   1.569  17.013  1.5453 -0.9014  1.6243
10873TIP3    H254111   0.443   1.647  17.032  2.2887  1.0780 -0.8304
10874TIP3   OH254112   6.257   0.968  15.587 -0.1860  0.1189 -0.1817
10874TIP3    H154113   6.200   1.041  15.564 -0.7227  0.9450  3.1646
10874TIP3    H254114   6.217   0.930  15.665  1.3863 -2.2637 -0.4236
10875TIP3   OH254115   5.195   0.690  16.281 -0.1799  0.1556 -0.3655
10875TIP3    H154116   5.192   0.636  16.203 -1.2023 -0.1703 -0.1114
10875TIP3    H254117   5.275   0.742  16.271 -0.5166  0.4281 -1.8154
10876TIP3   OH254118   2.897   3.513  14.811  0.2639  0.0546 -0.2570
10876TIP3    H154119   2.859   3.427  14.829  1.1339  0.0482  1.8101
10876TIP3    H254120   2.987   3.506  14.843  0.0887  1.9844  0.7772
10877TIP3   OH254121   0.722   3.539  16.344 -0.2180 -0.0144  0.6662
10877TIP3    H154122   0.800   3.544  16.399 -0.6395 -0.9780  1.3782
10877TIP3    H254123   0.699   3.630  16.327  1.0080  0.2806  0.5104
10878TIP3   OH254124   6.208   4.691   1.569 -0.6953  0.2465 -0.1384
10878TIP3    H154125   6.160   4.608   1.571 -2.4813  1.2343 -0.0956
10878TIP3    H254126   6.207   4.722   1.659  1.8362 -0.6365  0.2824
10879TIP3   OH254127   2.551   5.564  16.199  0.1793 -0.3760 -0.1708
10879TIP3    H154128   2.615   5.552  16.128  0.0900 -0.0187 -0.3133
10879TIP3    H254129   2.547   5.659  16.211 -0.7748 -0.3537 -0.5737
10880TIP3   OH254130   3.279   1.313  15.154 -0.2782 -1.0211 -0.5465
10880TIP3    H154131   3.349   1.253  15.127  1.8607  2.1843 -2.7591
10880TIP3    H254132   3.219   1.315  15.079 -0.1014 -0.0701 -0.6641
10881TIP3   OH254133   5.398   5.786   2.714  0.4768  0.7261  0.0779
10881TIP3    H154134   5.316   5.825   2.683  1.0567  1.2642 -0.8383
10881TIP3    H254135   5.371   5.720   2.777 -0.6855  0.6069 -0.5210
10882TIP3   OH254136   0.398   5.518   4.785 -0.0335 -0.3873 -0.0218
10882TIP3    H154137   0.475   5.467   4.759 -0.6466 -0.6589 -1.4384
10882TIP3    H254138   0.384   5.498   4.877  2.0678  0.3083  0.4981
10883TIP3   OH254139   6.598   0.940  17.139 -0.3940 -0.1637  0.3544
10883TIP3    H154140   6.581   1.016  17.194 -3.9004 -1.0207  0.6931
10883TIP3    H254141   6.511   0.908  17.115  0.9710 -2.1365 -2.5098
10884TIP3   OH254142   3.183   2.286  15.737  0.5589  0.5012 -0.1858
10884TIP3    H154143   3.218   2.317  15.654  0.4749  0.2341 -0.3212
10884TIP3    H254144   3.258   2.249  15.783  0.2778 -1.0408 -0.9154
10885TIP3   OH254145   2.056   2.794  14.811  0.2420  0.1254  0.0057
10885TIP3    H154146   2.084   2.718  14.862  1.4729 -0.4627 -1.4652
10885TIP3    H254147   2.012   2.756  14.735 -0.3046  0.9337 -0.0857
10886TIP3   OH254148   4.714   5.344  13.202  0.0137  0.6176 -0.6532
10886TIP3    H154149   4.806   5.372  13.208  0.1433  0.0626  0.0699
10886TIP3    H254150   4.665   5.416  13.241  0.0551  1.2718 -1.7460
10887TIP3   OH254151   2.958   6.435   3.174  0.3197  0.0504 -0.9447
10887TIP3    H154152   2.935   6.525   3.197 -0.7018 -0.1429 -1.1787
10887TIP3    H254153   3.043   6.442   3.131  0.4030  0.8612 -0.6625
10888TIP3   OH254154   0.478   3.227  12.496 -0.0373  0.0568  0.2238
10888TIP3    H154155   0.470   3.275  12.578 -0.6081  0.4686 -0.0677
10888TIP3    H254156   0.433   3.145  12.512 -0.8639  0.4713  0.0679
10889TIP3   OH254157   4.597   2.916   2.393  0.0765  0.2233  0.2264
10889TIP3    H154158   4.576   2.824   2.410  1.1312 -0.2355 -0.8409
10889TIP3    H254159   4.596   2.924   2.298 -1.9080  1.8083  0.3242
10890TIP3   OH254160   6.607   6.644  15.072 -0.1367  0.8966 -0.7242
10890TIP3    H154161   6.588   6.723  15.122  0.0602  0.3081  0.3048
10890TIP3    H254162   6.522   6.604  15.057 -0.1785  0.9775 -0.7030
10891TIP3   OH254163   2.333   0.752   1.067  0.8112  0.8484  0.5376
10891TIP3    H154164   2.371   0.830   1.107  2.5825 -0.0103  0.6103
10891TIP3    H254165   2.401   0.719   1.008 -0.0559 -0.4182  0.1916
10892TIP3   OH254166   4.158   0.871   4.911  0.3276  0.1743 -0.0922
10892TIP3    H154167   4.183   0.834   4.827  1.9036  0.5268  0.1928
10892TIP3    H254168   4.067   0.897   4.899  0.2635 -0.5330 -1.4102
10893TIP3   OH254169   5.038   4.188  12.138  0.3172 -0.0389  0.7992
10893TIP3    H154170   5.090   4.233  12.072 -0.9306 -0.8736 -0.8218
10893TIP3    H254171   5.053   4.238  12.219  2.1542  0.7948 -0.0077
10894TIP3   OH254172   6.363   5.884   1.815 -0.4255  0.6979 -0.0119
10894TIP3    H154173   6.368   5.856   1.724  1.9313 -2.5951  0.9784
10894TIP3    H254174   6.304   5.821   1.857 -0.4894  1.4110  1.0316
10895TIP3   OH254175   3.355   4.635  13.664  0.4228  0.1641  0.4996
10895TIP3    H154176   3.307   4.553  13.675 -0.8752  0.8943  0.4377
10895TIP3    H254177   3.446   4.612  13.683  0.2409 -1.5003 -0.4407
10896TIP3   OH254178   6.177   2.106   5.087 -0.2207 -0.2243  0.0965
10896TIP3    H154179   6.226   2.107   5.169  2.7909  1.2074 -1.5718
10896TIP3    H254180   6.212   2.179   5.037 -1.8511 -1.1148 -2.5802
10897TIP3   OH254181   4.141   1.865   0.127  0.3095 -0.7358  0.2013
10897TIP3    H154182   4.143   1.937   0.190  1.1404 -0.2221 -0.3894
10897TIP3    H254183   4.177   1.790   0.175  0.9738 -0.3377  0.3448
10898TIP3   OH254184   4.396   2.003  12.332 -0.2793  0.0869  0.1331
10898TIP3    H154185   4.365   2.011  12.422 -0.4478 -2.1269  0.3292
10898TIP3    H254186   4.370   1.915  12.305  1.8892 -0.2173 -1.2454
10899TIP3   OH254187   3.042   0.930  12.860 -0.3159  0.3513  0.2667
10899TIP3    H154188   2.960   0.978  12.850 -0.3223  0.2914  0.0220
10899TIP3    H254189   3.090   0.947  12.779 -0.7670 -0.9170 -0.2911
10900TIP3   OH254190   6.361   2.280  17.034 -0.1678 -0.0841  0.3382
10900TIP3    H154191   6.436   2.231  16.999 -0.8868 -1.1893  0.2808
10900TIP3    H254192   6.389   2.372  17.030  1.6707 -0.5239  1.5162
10901TIP3   OH254193   3.231   4.275   2.982  0.1774 -0.2636 -0.3776
10901TIP3    H154194   3.277   4.240   3.058 -1.4008  0.7286  1.1170
10901TIP3    H254195   3.272   4.231   2.907  1.3289 -1.8049  1.0637
10902TIP3   OH254196   4.806   2.939  10.802  0.4919  0.3016 -0.0020
10902TIP3    H154197   4.883   2.974  10.758 -0.0133 -0.9329 -1.9977
10902TIP3    H254198   4.839   2.869  10.857  0.7792 -0.6534 -1.3443
10903TIP3   OH254199   2.036   4.258   3.702 -0.2641  0.0199  1.0025
10903TIP3    H154200   2.110   4.226   3.651  0.7472  2.3087  0.9198
10903TIP3    H254201   1.967   4.274   3.637  0.1952  0.6514  0.6624
10904TIP3   OH254202   6.210   0.541  13.055  0.2449  0.7489  0.1941
10904TIP3    H154203   6.182   0.628  13.082 -0.2554  1.3233 -1.9500
10904TIP3    H254204   6.179   0.533  12.965 -1.2082 -2.3163  0.8473
10905TIP3   OH254205   1.568   0.110  12.697  0.6821  1.0332  0.2845
10905TIP3    H154206   1.576   0.017  12.672  0.7785  1.3844 -1.0644
10905TIP3    H254207   1.645   0.152  12.659 -0.1107  1.9197 -0.3792
10906TIP3   OH254208   2.141   5.338   3.117 -0.1555 -0.1568  0.1849
10906TIP3    H154209   2.209   5.282   3.155  1.4663  1.4180 -0.2746
10906TIP3    H254210   2.090   5.278   3.062  0.7772 -1.4296  0.6495
10907TIP3   OH254211   0.571   0.569   0.669 -0.5105 -0.5636  1.3106
10907TIP3    H154212   0.507   0.639   0.658 -0.6787 -0.9516 -0.4851
10907TIP3    H254213   0.634   0.604   0.732 -1.3309  0.6565  1.4818
10908TIP3   OH254214   5.206   5.237  13.940  0.0419 -0.0324  0.1861
10908TIP3    H154215   5.271   5.265  14.005  1.9321 -2.1621 -0.6505
10908TIP3    H254216   5.130   5.292  13.957  1.2537  1.0240  2.7200
10909TIP3   OH254217   1.018   5.913   2.058  0.6408  0.1480 -0.3784
10909TIP3    H154218   0.980   5.941   1.975 -0.3845 -0.4208 -0.1076
10909TIP3    H254219   1.082   5.846   2.033 -0.3308 -0.7008 -0.6522
10910TIP3   OH254220   2.645   3.380   2.570 -0.2069 -0.0115 -0.0249
10910TIP3    H154221   2.689   3.334   2.642 -0.2529  0.3032  0.2067
10910TIP3    H254222   2.716   3.419   2.520 -0.0951 -1.1945 -0.8298
10911TIP3   OH254223   5.082   5.095   5.270 -0.2306  0.7169  0.3773
10911TIP3    H154224   5.124   5.176   5.239  0.6261 -0.7078 -2.5683
10911TIP3    H254225   5.026   5.068   5.197 -2.1347 -0.3076  2.1151
10912TIP3   OH254226   0.193   4.413  11.932  0.6016 -0.5515  0.3511
10912TIP3    H154227   0.115   4.398  11.878 -1.1438 -2.4026  3.1298
10912TIP3    H254228   0.238   4.329  11.932  1.6722  0.0071  0.2015
10913TIP3   OH254229   3.498   4.887   4.218 -0.4271 -0.1266 -0.2154
10913TIP3    H154230   3.582   4.898   4.262 -0.8090  1.9922  0.1236
10913TIP3    H254231   3.509   4.934   4.135 -1.5078  0.9526  0.2204
10914TIP3   OH254232   1.901   0.729  11.460  0.0777  0.4310  0.2347
10914TIP3    H154233   1.822   0.752  11.411 -0.7336 -0.6576  0.9685
10914TIP3    H254234   1.880   0.752  11.551  0.4431 -0.2473  0.4955
10915TIP3   OH254235   2.658   4.053  16.223 -0.2599 -0.2346  0.0292
10915TIP3    H154236   2.644   4.093  16.309  1.5230 -1.5295  0.9738
10915TIP3    H254237   2.577   4.004  16.207 -0.3901 -0.4538  1.2477
10916TIP3   OH254238   6.774   2.020  16.255  0.3559  0.3802 -0.4718
10916TIP3    H154239   6.716   2.097  16.257 -0.1613  0.0347 -1.4087
10916TIP3    H254240   6.731   1.959  16.195  1.7609  0.1668 -1.3105
10917TIP3   OH254241   4.911   4.299  12.669 -0.3973 -0.4828 -0.1976
10917TIP3    H154242   4.919   4.204  12.669 -1.5611 -0.5993  0.8480
10917TIP3    H254243   4.962   4.328  12.744  1.2801 -0.1046 -1.4065
10918TIP3   OH254244   6.531   0.586  12.279 -0.2241  0.3610  0.6376
10918TIP3    H154245   6.602   0.620  12.334 -0.2962  1.9625 -0.2319
10918TIP3    H254246   6.517   0.653  12.213 -2.2771 -0.1218  0.5301
10919TIP3   OH254247   4.446   6.180  16.323 -0.1497 -0.0166 -0.3330
10919TIP3    H154248   4.536   6.152  16.307 -0.3241 -0.0977 -1.2188
10919TIP3    H254249   4.413   6.204  16.237 -1.0165 -0.0901 -0.0290
10920TIP3   OH254250   1.558   6.562   6.095  0.6638 -0.0266  0.3954
10920TIP3    H154251   1.519   6.534   6.178 -0.9443  2.2545  0.5004
10920TIP3    H254252   1.636   6.507   6.085 -0.5311 -2.1725  2.0817
10921TIP3   OH254253   4.374   5.552  11.385  0.8262  0.3243  0.3195
10921TIP3    H154254   4.411   5.478  11.433  0.1355  0.7226  1.4989
10921TIP3    H254255   4.401   5.537  11.294  0.3521 -1.5884  0.4516
10922TIP3   OH254256   1.470   1.724   0.679  0.2299 -0.1336  0.6886
10922TIP3    H154257   1.421   1.689   0.753 -0.5326 -1.1743 -0.2744
10922TIP3    H254258   1.445   1.668   0.605  1.2143  0.6740 -0.2879
10923TIP3   OH254259   3.619   6.259  16.783  0.3392  0.4674  0.1323
10923TIP3    H154260   3.676   6.321  16.829 -0.9095  2.5487 -0.9363
10923TIP3    H254261   3.662   6.247  16.698  1.2939 -1.2980  0.8263
10924TIP3   OH254262   2.518   5.434  17.158 -0.2336 -0.2512 -0.5765
10924TIP3    H154263   2.433   5.395  17.141 -0.9218 -0.9269  3.4273
10924TIP3    H254264   2.566   5.367  17.206  1.9672  0.7194 -1.2827
10925TIP3   OH254265   2.754   1.340   1.806 -0.7207  0.0491  0.5085
10925TIP3    H154266   2.818   1.288   1.855 -1.0687 -0.9102 -0.0249
10925TIP3    H254267   2.739   1.417   1.861  1.1999  0.5147  0.4511
10926TIP3   OH254268   1.999   0.741  15.408  0.1635  0.2164 -0.1749
10926TIP3    H154269   1.984   0.650  15.436  0.9175  0.0232 -0.3796
10926TIP3    H254270   1.912   0.781  15.411 -0.2630 -0.6456 -0.5485
10927TIP3   OH254271   5.093   2.337  16.961  0.0980 -0.1168  0.4086
10927TIP3    H154272   5.045   2.337  16.878  0.7017 -1.7763  0.0196
10927TIP3    H254273   5.027   2.360  17.027 -0.5695  0.4236 -0.4295
10928TIP3   OH254274   6.323   6.823  13.504  0.0021 -0.1320 -0.4691
10928TIP3    H154275   6.231   6.827  13.479  0.3287 -2.3945 -2.3624
10928TIP3    H254276   6.344   6.912  13.533 -2.6809  0.5021 -0.2368
10929TIP3   OH254277   2.717   6.026   2.041 -0.2060 -0.1089  0.0243
10929TIP3    H154278   2.704   6.053   1.950  0.3386  1.4311  0.3856
10929TIP3    H254279   2.782   6.087   2.076  0.3741 -1.3217  1.1672
10930TIP3   OH254280   4.779   2.733   3.413  0.5347  0.3526 -0.0954
10930TIP3    H154281   4.860   2.774   3.384  0.4321  0.3672 -0.3610
10930TIP3    H254282   4.714   2.759   3.348 -0.3060  2.5102  1.4608
10931TIP3   OH254283   4.916   4.525  14.589  0.2510  0.4678  0.5750
10931TIP3    H154284   4.947   4.557  14.674  0.0651 -0.5616  1.0462
10931TIP3    H254285   4.991   4.536  14.531  1.0418 -0.6406  1.3557
10932TIP3   OH254286   6.586   1.985   5.062  0.0134 -0.3277  0.2319
10932TIP3    H154287   6.583   2.074   5.097  2.1574  0.3951 -1.2429
10932TIP3    H254288   6.574   1.996   4.968  1.4024 -1.4648 -0.1068
10933TIP3   OH254289   6.642   0.714   3.303 -0.6074 -0.4530  0.4311
10933TIP3    H154290   6.638   0.669   3.219 -2.5814 -1.6158  1.0842
10933TIP3    H254291   6.552   0.745   3.318 -0.1475  0.2892  1.8291
10934TIP3   OH254292   5.842   3.483  11.562 -0.0636 -0.2163 -0.4832
10934TIP3    H154293   5.913   3.547  11.553 -0.5734  0.5620  0.7839
10934TIP3    H254294   5.770   3.521  11.512 -0.0010 -0.3680 -0.6890
10935TIP3   OH254295   2.472   0.510   2.841  0.0063  0.4867  0.0790
10935TIP3    H154296   2.405   0.462   2.889  1.1425  0.7768  2.0449
10935TIP3    H254297   2.505   0.574   2.904  2.5845 -0.0714 -0.6190
10936TIP3   OH254298   5.968   4.354   6.598 -0.3141 -0.7246  0.1650
10936TIP3    H154299   6.002   4.413   6.665 -0.2476  0.2985 -0.7397
10936TIP3    H254300   5.962   4.269   6.642 -0.4540 -0.0498  1.5211
10937TIP3   OH254301   3.293   1.795   4.534  0.0854 -0.0936 -0.0468
10937TIP3    H154302   3.227   1.846   4.582 -0.2081 -1.3434  0.9443
10937TIP3    H254303   3.255   1.781   4.448 -0.2785  0.4787  0.0149
10938TIP3   OH254304   0.108   3.803   3.065 -0.1489 -0.5306  0.1948
10938TIP3    H154305   0.171   3.743   3.023 -2.6391 -1.7419 -2.1127
10938TIP3    H254306   0.085   3.758   3.146  0.2202 -1.2376 -0.0731
10939TIP3   OH254307   2.082   6.159  16.519  0.7520 -0.0551  0.0518
10939TIP3    H154308   2.096   6.253  16.516  1.1152 -0.0673  0.9994
10939TIP3    H254309   2.167   6.122  16.542  0.3792 -0.5356  0.7051
10940TIP3   OH254310   6.617   1.228  12.601  0.0148 -0.4393 -0.2366
10940TIP3    H154311   6.526   1.206  12.581  0.1838 -1.6675  0.2873
10940TIP3    H254312   6.668   1.179  12.537  0.3398 -0.1062 -0.2354
10941TIP3   OH254313   5.685   0.585   4.273 -0.1155 -0.2660  0.7405
10941TIP3    H154314   5.637   0.503   4.266 -0.0815 -0.3582  1.4772
10941TIP3    H254315   5.645   0.629   4.349 -0.0296  0.3229  0.4479
10942TIP3   OH254316   0.928   1.518   3.440 -0.2929 -0.1635  0.0935
10942TIP3    H154317   0.936   1.429   3.473 -0.2547 -0.0196  0.4831
10942TIP3    H254318   0.880   1.510   3.358  1.3424 -0.7462 -0.8527
10943TIP3   OH254319   0.632   4.542  14.405  0.1925  0.3953  0.0741
10943TIP3    H154320   0.687   4.513  14.478  0.2046 -0.3913 -0.2402
10943TIP3    H254321   0.691   4.590  14.348  0.1612  1.1132  0.6286
10944TIP3   OH254322   5.470   1.246  13.525 -0.3021  0.6950  0.0670
10944TIP3    H154323   5.546   1.283  13.568  0.7477  1.0118 -1.9286
10944TIP3    H254324   5.440   1.315  13.466 -1.1087 -0.0159 -0.3855
10945TIP3   OH254325   3.421   6.005   5.538  0.4398 -0.0730  0.9186
10945TIP3    H154326   3.418   5.912   5.519  0.7204  0.2135 -0.6202
10945TIP3    H254327   3.332   6.037   5.519  1.4174  0.7493 -3.1211
10946TIP3   OH254328   2.957   6.133   2.693 -0.7563  0.4576  0.1435
10946TIP3    H154329   2.898   6.189   2.743 -2.8031 -0.9395 -0.5482
10946TIP3    H254330   2.914   6.047   2.693  0.7152 -0.3436 -1.4119
10947TIP3   OH254331   0.074   0.052   0.207  0.1298 -1.2127 -0.5202
10947TIP3    H154332   0.143   0.050   0.273  0.8480  1.5522 -1.0921
10947TIP3    H254333   0.032  -0.034   0.215  0.4509 -1.2231  3.1983
10948TIP3   OH254334   6.011   0.218   6.266 -0.5694 -0.1022 -0.0893
10948TIP3    H154335   5.989   0.161   6.339 -0.3538  2.0685  1.7865
10948TIP3    H254336   5.941   0.284   6.265  0.6802  1.2830 -0.2595
10949TIP3   OH254337   1.127   0.316  11.239 -0.4328 -0.1708  0.3609
10949TIP3    H154338   1.206   0.261  11.234  0.1765  0.7964 -3.6110
10949TIP3    H254339   1.156   0.395  11.285  0.3249 -0.7034  0.8182
10950TIP3   OH254340   2.215   6.467  13.890 -0.7073  0.4107 -0.3808
10950TIP3    H154341   2.194   6.537  13.828 -1.4567 -0.1977 -0.8353
10950TIP3    H254342   2.176   6.389  13.851 -0.6536 -0.0980  0.5656
10951TIP3   OH254343   6.472   5.618  12.648  0.6865  0.0018  0.2695
10951TIP3    H154344   6.552   5.572  12.670 -0.4169 -1.3642  1.6174
10951TIP3    H254345   6.501   5.699  12.606  2.7973  0.2127  1.9842
10952TIP3   OH254346   5.562   0.063  12.342  0.2888  0.2625  0.5982
10952TIP3    H154347   5.605   0.099  12.420  1.4775  1.5363 -0.5832
10952TIP3    H254348   5.599   0.113  12.269 -1.5430 -0.1859 -0.7108
10953TIP3   OH254349   4.812   2.757  11.006  0.1914  0.3009  0.1228
10953TIP3    H154350   4.791   2.760  11.100  0.6452  0.1233  0.2310
10953TIP3    H254351   4.846   2.669  10.992 -1.4760 -0.2745 -0.5639
10954TIP3   OH254352   4.892   2.385  14.193  0.1467  0.1676  0.6478
10954TIP3    H154353   4.931   2.311  14.146 -0.7999  1.3829 -2.2742
10954TIP3    H254354   4.800   2.385  14.166 -0.2311  1.5561  1.7907
10955TIP3   OH254355   4.018   4.717   5.871 -0.0775  0.2496 -0.4701
10955TIP3    H154356   3.965   4.793   5.896  0.5654  0.2894  0.8505
10955TIP3    H254357   4.108   4.743   5.887  0.1101 -1.0817  0.9429
10956TIP3   OH254358   6.282   6.094   2.451 -0.2088 -0.5631  0.5293
10956TIP3    H154359   6.318   6.064   2.534  0.3399 -1.1021  0.1104
10956TIP3    H254360   6.276   6.015   2.397  0.5351 -0.0531 -0.3315
10957TIP3   OH254361   1.857   3.372   4.836  0.1679 -0.0172  0.5423
10957TIP3    H154362   1.832   3.286   4.803 -0.5856  0.8674 -1.3102
10957TIP3    H254363   1.938   3.393   4.789 -0.2239  0.7164  0.1757
10958TIP3   OH254364   6.621   2.292   6.158  0.0135 -0.2108 -0.5337
10958TIP3    H154365   6.674   2.212   6.155 -0.7280 -0.7320  0.0631
10958TIP3    H254366   6.681   2.358   6.193  0.0640 -0.9727  0.8734
10959TIP3   OH254367   3.117   6.185   3.974 -0.2404 -0.1978  0.7255
10959TIP3    H154368   3.133   6.191   3.880  1.4863  0.8795  1.0321
10959TIP3    H254369   3.085   6.272   3.999 -0.5359 -0.4252  1.1612
10960TIP3   OH254370   3.517   2.609   3.379  0.3024 -0.2238  0.3868
10960TIP3    H154371   3.492   2.521   3.351 -2.1922  0.2629  0.8512
10960TIP3    H254372   3.605   2.598   3.416  0.3803 -2.3566 -0.2817
10961TIP3   OH254373   2.072   2.595   2.444  0.1159 -0.1832  0.0735
10961TIP3    H154374   2.073   2.669   2.504  1.2989 -0.5650  0.5435
10961TIP3    H254375   2.155   2.601   2.396 -1.3946  0.9678 -2.6382
10962TIP3   OH254376   1.705   4.071  10.882 -0.2270  0.0533  0.7283
10962TIP3    H154377   1.629   4.121  10.853  1.4874  2.0829 -0.5057
10962TIP3    H254378   1.670   3.984  10.902 -2.5107  0.2220 -1.9247
10963TIP3   OH254379   4.925   6.789  13.400 -0.4506  0.1404 -0.3734
10963TIP3    H154380   5.011   6.828  13.384 -0.2324  0.6255  1.6958
10963TIP3    H254381   4.873   6.859  13.439 -1.4228 -0.4734 -0.5218
10964TIP3   OH254382   4.638   5.135   2.030  0.2135 -0.1998  0.0444
10964TIP3    H154383   4.643   5.146   2.125 -0.2183 -2.6891  0.4288
10964TIP3    H254384   4.687   5.054   2.013 -1.0319 -0.6468 -1.6482
10965TIP3   OH254385   4.772   1.260  17.036  0.6024 -0.0574  0.5358
10965TIP3    H154386   4.807   1.320  17.102  1.1590 -0.5451  0.7025
10965TIP3    H254387   4.820   1.282  16.956  0.5939 -0.0817  0.5247
10966TIP3   OH254388   5.861   5.582   5.467 -0.3535 -0.9666 -0.0647
10966TIP3    H154389   5.887   5.542   5.384  1.5809 -0.3474  0.2112
10966TIP3    H254390   5.935   5.636   5.493 -1.1697 -0.6385  1.7645
10967TIP3   OH254391   2.868   6.800  12.699 -0.0554 -0.1375 -0.4995
10967TIP3    H154392   2.918   6.881  12.697  0.9157 -0.5372  2.6273
10967TIP3    H254393   2.892   6.759  12.782 -2.8192 -2.1630 -0.5604
10968TIP3   OH254394   5.071   4.005   3.616 -0.1812 -0.0798  0.1562
10968TIP3    H154395   5.025   4.087   3.633  1.4416  1.0335 -0.5670
10968TIP3    H254396   5.002   3.943   3.594 -1.5081  0.8890  1.3846
10969TIP3   OH254397   5.010   4.211   3.405 -0.0924 -0.1309 -0.1047
10969TIP3    H154398   5.006   4.117   3.422  0.7473 -0.1419  0.0665
10969TIP3    H254399   4.945   4.249   3.464  1.6301 -0.3276  2.0351
10970TIP3   OH254400   0.421   5.789   2.475  0.3328  0.4339 -0.3562
10970TIP3    H154401   0.509   5.765   2.448  0.6554  1.3167 -0.1076
10970TIP3    H254402   0.431   5.822   2.564 -0.4101 -0.4629  0.0799
10971TIP3   OH254403   5.894   4.261  13.315  0.4309  0.1063 -0.2598
10971TIP3    H154404   5.869   4.345  13.355  0.6351 -1.1638  2.8733
10971TIP3    H254405   5.845   4.196  13.365  0.5836 -1.7094 -2.3387
10972TIP3   OH254406   1.253   4.499   0.804 -0.4646  0.2688  0.2780
10972TIP3    H154407   1.225   4.584   0.770 -1.3914 -0.1491 -0.0286
10972TIP3    H254408   1.258   4.512   0.899 -1.2310  0.4959  0.2930
10973TIP3   OH254409   1.957   4.974  11.274 -0.4512 -0.2558 -0.7080
10973TIP3    H154410   1.910   5.035  11.215 -1.6694  0.6272  1.0806
10973TIP3    H254411   2.045   5.011  11.281 -0.9181  0.8250 -0.3465
10974TIP3   OH254412   2.437   4.706   2.994  0.6441  1.1125 -0.1961
10974TIP3    H154413   2.514   4.696   2.939 -0.4378  0.0881 -1.5796
10974TIP3    H254414   2.408   4.617   3.012 -0.8146  1.4852 -0.5747
10975TIP3   OH254415   6.193   3.148   1.087 -0.1593  0.9485 -0.0819
10975TIP3    H154416   6.184   3.146   1.182 -0.3224 -0.3256 -0.1132
10975TIP3    H254417   6.116   3.197   1.057 -0.3453  0.9644  0.4085
10976TIP3   OH254418   2.654   4.422   3.400  0.3734  0.0500  0.8822
10976TIP3    H154419   2.734   4.441   3.448  1.4126 -1.1232 -0.3070
10976TIP3    H254420   2.669   4.459   3.312 -0.9237  0.9283  0.9876
10977TIP3   OH254421   2.668   6.417   5.286  0.3613  0.2036  0.6536
10977TIP3    H154422   2.715   6.433   5.368  0.4989  2.1661  0.2349
10977TIP3    H254423   2.621   6.498   5.269 -0.4786 -0.5334 -0.6974
10978TIP3   OH254424   3.246   3.434   1.325 -0.2682  0.4432 -0.0984
10978TIP3    H154425   3.156   3.402   1.329 -0.6006  1.4200  1.0896
10978TIP3    H254426   3.277   3.428   1.416  1.0667 -0.4064 -0.5849
10979TIP3   OH254427   4.974   0.358  14.662 -0.1890 -0.6474 -0.5852
10979TIP3    H154428   5.042   0.425  14.654  0.6559 -1.2710  0.9059
10979TIP3    H254429   5.020   0.275  14.654 -0.5219 -1.1180  1.5861
10980TIP3   OH254430   3.459   3.433   2.248  0.3922 -0.0984  0.0801
10980TIP3    H154431   3.493   3.396   2.166 -1.4462  0.2952 -0.9041
10980TIP3    H254432   3.503   3.518   2.254 -0.0481  0.2194 -0.9334
10981TIP3   OH254433   1.637   1.749  16.112  0.2455  0.2944  0.0101
10981TIP3    H154434   1.577   1.682  16.079 -1.1679  1.8098 -0.6006
10981TIP3    H254435   1.636   1.818  16.046  1.5501  1.0141  0.7005
10982TIP3   OH254436   0.188   1.053  16.037 -0.3287  0.0831  0.2092
10982TIP3    H154437   0.208   1.011  15.953  0.6200 -0.5323  0.7191
10982TIP3    H254438   0.123   1.120  16.016  0.2933  0.3055 -1.1048
10983TIP3   OH254439   1.076   1.407   0.202 -0.3645 -0.7516  0.2841
10983TIP3    H154440   1.077   1.414   0.107  0.5738 -1.7914  0.1986
10983TIP3    H254441   1.044   1.318   0.219 -3.4034  0.3581  1.0517
10984TIP3   OH254442   3.426   1.944  12.331 -0.0332  0.2139  0.1254
10984TIP3    H154443   3.363   1.875  12.350 -0.1601  0.9064  2.4760
10984TIP3    H254444   3.511   1.901  12.340 -0.1284 -0.0811 -0.3457
10985TIP3   OH254445   5.884   1.638  12.590  0.1847 -0.1391  0.5482
10985TIP3    H154446   5.913   1.663  12.678 -1.3933  0.6241  0.8704
10985TIP3    H254447   5.800   1.682  12.578 -0.4927 -1.6536 -0.6578
10986TIP3   OH254448   0.428   0.578   3.176 -0.1063  0.4050 -0.2540
10986TIP3    H154449   0.494   0.585   3.245  0.8913  2.4511 -1.3234
10986TIP3    H254450   0.345   0.576   3.223  0.6019 -0.0077  1.0529
10987TIP3   OH254451   2.732   1.915  13.726  0.0647 -0.0612 -0.4153
10987TIP3    H154452   2.719   1.878  13.639  1.8372 -1.5819 -0.0969
10987TIP3    H254453   2.810   1.971  13.716  1.2790 -1.5194  0.4978
10988TIP3   OH254454   3.212   5.991  15.320 -0.0217  0.3113  0.2640
10988TIP3    H154455   3.302   5.986  15.290  0.2395 -1.3925  1.1842
10988TIP3    H254456   3.218   6.037  15.404 -0.0982  0.7551  0.0271
10989TIP3   OH254457   3.411   5.336   1.901  0.3366  0.6858 -0.2197
10989TIP3    H154458   3.423   5.261   1.843 -2.0650  0.2551 -0.2780
10989TIP3    H254459   3.384   5.297   1.985 -0.6192  1.4545 -0.1564
10990TIP3   OH254460   2.919   3.208   5.849  0.1364 -0.1091  0.1285
10990TIP3    H154461   2.950   3.243   5.933  0.7993 -1.4796  0.4779
10990TIP3    H254462   2.824   3.213   5.854  0.1806  2.3674 -0.1703
10991TIP3   OH254463   2.072   4.139  17.197 -0.2104  0.6501 -0.0837
10991TIP3    H154464   2.070   4.212  17.260 -0.5041 -0.6496  1.4938
10991TIP3    H254465   1.989   4.146  17.149 -0.8701  0.6000  0.9999
10992TIP3   OH254466   1.079   5.420   0.612 -0.1439 -0.1954  0.1662
10992TIP3    H154467   1.009   5.366   0.574  1.4043 -2.8144  0.7929
10992TIP3    H254468   1.115   5.468   0.537 -1.2577 -0.3860 -0.5159
10993TIP3   OH254469   3.304   3.948  10.432 -0.3368  0.2193  0.1936
10993TIP3    H154470   3.395   3.922  10.446 -0.2256  0.9611  0.9142
10993TIP3    H254471   3.254   3.867  10.438  0.4348 -0.4920 -1.9772
10994TIP3   OH254472   0.995   0.119   1.871 -0.4122 -0.4279 -0.4772
10994TIP3    H154473   0.983   0.104   1.964  1.8268  0.8870  0.0982
10994TIP3    H254474   1.006   0.031   1.834 -1.0314 -0.9406  0.5300
10995TIP3   OH254475   6.729   2.041   6.189  0.0842  0.0269  0.0691
10995TIP3    H154476   6.656   1.992   6.228  0.1659 -0.3305 -0.2211
10995TIP3    H254477   6.806   2.007   6.234 -0.0978  2.1831  2.2270
10996TIP3   OH254478   6.226   4.470   5.463  0.0904  0.2701 -0.3731
10996TIP3    H154479   6.163   4.469   5.391 -1.0111 -3.1835  0.4855
10996TIP3    H254480   6.308   4.439   5.425 -0.3416 -0.9878 -0.3189
10997TIP3   OH254481   1.853   4.569   3.917 -0.4907 -0.2701  0.5069
10997TIP3    H154482   1.877   4.661   3.920  0.1329 -0.4633  2.6602
10997TIP3    H254483   1.929   4.526   3.877  0.4114 -0.1548  2.0155
10998TIP3   OH254484   2.788   0.318  11.622 -0.5227  0.1942 -0.5668
10998TIP3    H154485   2.849   0.248  11.599 -1.5994 -0.5151 -1.3368
10998TIP3    H254486   2.824   0.356  11.702  1.0197 -0.0822 -1.0965
10999TIP3   OH254487   4.871   2.551   3.183  0.3444  0.3573  0.0797
10999TIP3    H154488   4.803   2.592   3.237 -0.7025 -1.5439  0.2661
10999TIP3    H254489   4.891   2.618   3.117 -1.8378  0.9282 -0.0916
11000TIP3   OH254490   2.277   2.436   0.209  0.0348 -0.0642  0.2666
11000TIP3    H154491   2.228   2.484   0.141  1.1351 -1.0284 -1.2873
11000TIP3    H254492   2.331   2.502   0.251  1.1905  0.2112 -1.5218
11001TIP3   OH254493   1.013   4.786   6.165  0.2203 -0.2848  0.1926
11001TIP3    H154494   0.989   4.843   6.092  0.2003  0.8856  1.0770
11001TIP3    H254495   0.990   4.837   6.243 -0.3196 -1.7445  1.0200
11002TIP3   OH254496   0.440   0.032   0.811 -0.2929 -0.1155 -0.1582
11002TIP3    H154497   0.388   0.091   0.865  1.4218  1.5811 -0.2905
11002TIP3    H254498   0.432   0.067   0.722 -1.5470 -1.7791 -0.7643
11003TIP3   OH254499   5.416   2.615  16.591  0.4096 -0.5537 -0.2061
11003TIP3    H154500   5.386   2.690  16.641  1.2133 -0.2792 -0.1244
11003TIP3    H254501   5.505   2.599  16.621  1.2129  0.1206 -2.0812
11004TIP3   OH254502   6.203   3.125   3.150  0.0173  0.0465  0.3584
11004TIP3    H154503   6.210   3.211   3.191  0.3996  1.1385 -1.8832
11004TIP3    H254504   6.292   3.102   3.126 -0.4719  1.0870 -2.9300
11005TIP3   OH254505   3.188   3.756   5.436 -0.3926 -0.1588  0.3651
11005TIP3    H154506   3.102   3.726   5.407 -0.1928 -1.1703  0.7691
11005TIP3    H254507   3.178   3.851   5.446 -1.9979 -0.4394  2.1001
11006TIP3   OH254508   2.370   3.202  14.257  0.3336 -0.7967  0.2041
11006TIP3    H154509   2.433   3.272  14.269  1.5948 -1.8607  0.0935
11006TIP3    H254510   2.376   3.150  14.337 -0.6843 -0.6988  0.3498
11007TIP3   OH254511   6.183   2.392   2.594 -0.5782 -0.0670  0.2731
11007TIP3    H154512   6.238   2.373   2.670  0.6901  0.3591 -0.5092
11007TIP3    H254513   6.157   2.483   2.604 -0.9457 -0.1964  0.5151
11008TIP3   OH254514   2.059   5.786  16.983  0.4786  0.2570  0.0173
11008TIP3    H154515   2.022   5.829  16.906 -1.3991  0.2355  0.8410
11008TIP3    H254516   2.140   5.834  17.000  1.0529  0.1041 -2.0737
11009TIP3   OH254517   5.504   6.703  14.589  0.3287  0.3781  0.4639
11009TIP3    H154518   5.466   6.791  14.588 -0.4558  0.0504  0.3544
11009TIP3    H254519   5.439   6.649  14.544  0.1120 -0.5329  1.8246
11010TIP3   OH254520   6.210   0.526  16.069 -0.2872  0.4624  0.2163
11010TIP3    H154521   6.223   0.620  16.063 -0.0945  0.3416 -2.5576
11010TIP3    H254522   6.116   0.514  16.054 -0.2337  0.1846  0.0883
11011TIP3   OH254523   6.582   1.099   6.430 -0.0055  0.1835 -0.4286
11011TIP3    H154524   6.512   1.038   6.406 -0.1395  0.0504  0.2975
11011TIP3    H254525   6.626   1.057   6.503  0.6407  0.4169 -0.6756
11012TIP3   OH254526   0.520   3.536  13.951  0.4786  0.2631 -0.0999
11012TIP3    H154527   0.425   3.532  13.961  0.2864  1.6307 -1.1435
11012TIP3    H254528   0.548   3.445  13.959 -1.0121 -0.2726 -0.5912
11013TIP3   OH254529   3.019   6.415  13.658  0.1602 -0.5774  0.3935
11013TIP3    H154530   2.982   6.341  13.706 -2.2637  1.3474  1.8004
11013TIP3    H254531   3.073   6.461  13.723  0.8216 -0.5633 -0.1601
11014TIP3   OH254532   5.295   2.398  15.860  0.0001 -0.3655 -0.2773
11014TIP3    H154533   5.302   2.392  15.956  2.5505  2.0540 -0.1730
11014TIP3    H254534   5.236   2.472  15.846 -1.1083 -1.2863 -0.6668
11015TIP3   OH254535   5.611   5.249  13.186  0.3809  0.6414 -0.0049
11015TIP3    H154536   5.664   5.174  13.214 -1.9867 -1.1908 -0.1047
11015TIP3    H254537   5.553   5.214  13.119  0.6300  3.1319 -1.6438
11016TIP3   OH254538   2.856   3.234   1.666 -0.1198 -0.5075  0.6085
11016TIP3    H154539   2.907   3.283   1.730  1.0574  0.0581 -0.7257
11016TIP3    H254540   2.776   3.285   1.655  0.5971  0.5466  0.0826
11017TIP3   OH254541   3.654   5.393  10.874 -0.2080 -0.5583 -0.0578
11017TIP3    H154542   3.580   5.338  10.849  0.4214 -1.9241  0.9413
11017TIP3    H254543   3.639   5.413  10.966 -0.9317  1.8578 -0.6138
11018TIP3   OH254544   0.094   3.664   0.554 -0.2577 -0.2171 -0.6967
11018TIP3    H154545   0.037   3.724   0.601  1.1570 -0.5099  1.5717
11018TIP3    H254546   0.034   3.605   0.507 -1.6792  1.8376 -1.5969
11019TIP3   OH254547   5.362   4.363   4.515 -0.5098  0.2305  1.0275
11019TIP3    H154548   5.405   4.361   4.429 -0.9073  1.0608  0.8036
11019TIP3    H254549   5.271   4.342   4.496 -0.8172  1.4291  1.0946
11020TIP3   OH254550   5.566   5.152   4.150  0.0088  0.3701 -0.4006
11020TIP3    H154551   5.539   5.063   4.128 -0.5089  0.4466 -0.0694
11020TIP3    H254552   5.637   5.140   4.213  1.2680  0.1556 -1.8037
11021TIP3   OH254553   5.011   6.072  15.919 -0.3747  0.3543 -0.5752
11021TIP3    H154554   4.961   5.993  15.902 -0.5366  0.6309 -1.4282
11021TIP3    H254555   5.061   6.087  15.839 -0.4069  1.1589 -0.4561
11022TIP3   OH254556   5.727   2.325   0.225 -0.3874  0.1640  0.2559
11022TIP3    H154557   5.713   2.353   0.315 -0.6623 -1.2775  0.6896
11022TIP3    H254558   5.645   2.283   0.199  0.4142 -1.3906  0.1112
11023TIP3   OH254559   2.624   5.781   0.983 -0.3455  0.7529  0.0690
11023TIP3    H154560   2.580   5.740   0.909 -1.6672 -0.2035  1.3447
11023TIP3    H254561   2.565   5.852   1.010  0.3733  1.4277 -0.0710
11024TIP3   OH254562   1.687   5.842   1.099  0.2311 -0.2544 -0.1474
11024TIP3    H154563   1.711   5.820   1.189  0.5623 -0.4145 -0.2720
11024TIP3    H254564   1.655   5.760   1.061  1.6063 -0.5840 -0.6563
11025TIP3   OH254565   4.252   2.363   4.733  0.4217 -0.0617  0.3611
11025TIP3    H154566   4.191   2.435   4.750  0.9660  0.6785 -0.7029
11025TIP3    H254567   4.335   2.407   4.713  0.1565 -0.8397 -2.9494
11026TIP3   OH254568   2.087   0.919  14.258 -0.1007 -0.0331  0.0787
11026TIP3    H154569   2.173   0.912  14.299 -0.3880  1.8720  1.1588
11026TIP3    H254570   2.037   0.975  14.317 -0.6772  2.6165 -2.6474
11027TIP3   OH254571   6.506   2.925  13.458  0.2025  0.4655 -0.6785
11027TIP3    H154572   6.477   2.848  13.508 -1.7565  1.0011 -0.9343
11027TIP3    H254573   6.565   2.970  13.518  0.5888 -0.6858 -0.1487
11028TIP3   OH254574   2.657   0.653   0.641  0.1518  0.2489  0.3704
11028TIP3    H154575   2.624   0.651   0.551 -0.7254 -1.9714  0.6717
11028TIP3    H254576   2.732   0.593   0.641 -0.3632 -0.4266  1.2659
11029TIP3   OH254577   1.568   1.519  12.343  0.1657  0.2467  0.5072
11029TIP3    H154578   1.560   1.601  12.295  0.9491 -0.5637 -1.1099
11029TIP3    H254579   1.521   1.455  12.289  0.5901 -0.6005  1.1154
11030TIP3   OH254580   5.392   3.078   0.608 -0.1577  0.5174 -0.0813
11030TIP3    H154581   5.482   3.098   0.636 -0.0622 -1.4083  1.1678
11030TIP3    H254582   5.389   3.107   0.516  2.4953 -1.4392 -0.9100
11031TIP3   OH254583   4.816   1.785  10.939 -0.0062 -0.1426 -0.1744
11031TIP3    H154584   4.863   1.844  10.998  0.5950  0.7045 -1.4535
11031TIP3    H254585   4.841   1.814  10.852  0.4672 -2.4282 -0.8541
11032TIP3   OH254586   2.276   2.192   4.693 -0.5298 -0.5235  0.0437
11032TIP3    H154587   2.324   2.274   4.679  0.3688 -1.1832 -0.9114
11032TIP3    H254588   2.324   2.149   4.764  0.1942 -1.0802 -0.7596
11033TIP3   OH254589   0.106   3.153   5.664 -0.2970 -0.8266  0.2444
11033TIP3    H154590   0.127   3.078   5.720 -2.1291 -0.5289  1.4299
11033TIP3    H254591   0.011   3.152   5.656 -0.6040  2.2910  1.7486
11034TIP3   OH254592   2.977   5.266  16.336 -0.3618 -0.3116  0.2933
11034TIP3    H154593   3.058   5.239  16.379  0.3078  0.0055 -0.7241
11034TIP3    H254594   3.001   5.347  16.290 -1.2131 -0.2913 -0.1285
11035TIP3   OH254595   4.521   2.047  16.829  0.4158 -0.1712 -0.5952
11035TIP3    H154596   4.602   2.074  16.787 -0.3525 -0.7142 -2.5439
11035TIP3    H254597   4.546   1.973  16.885  1.5082  0.7121  0.1090
11036TIP3   OH254598   5.497   2.893   2.461 -1.0164  0.0955  0.2692
11036TIP3    H154599   5.529   2.969   2.412 -1.0901 -0.2070 -0.2624
11036TIP3    H254600   5.402   2.899   2.456 -1.0457  0.5451  1.1458
11037TIP3   OH254601   3.364   3.505  16.042  0.5609 -0.2115  0.1381
11037TIP3    H154602   3.300   3.518  16.112 -0.4346  0.5637 -0.8772
11037TIP3    H254603   3.427   3.576  16.055 -0.0306  0.3867 -0.1720
11038TIP3   OH254604   3.127   6.253  14.257 -0.3271 -0.2694  0.0950
11038TIP3    H154605   3.135   6.175  14.201 -1.0110  0.3434 -0.8890
11038TIP3    H254606   3.034   6.258  14.278 -0.4902  0.9155 -0.8099
11039TIP3   OH254607   1.425   5.207   6.318 -0.1947 -0.1186 -0.7710
11039TIP3    H154608   1.466   5.121   6.319  1.7342  0.7099  1.6223
11039TIP3    H254609   1.496   5.268   6.336 -1.7613  1.8557 -0.8819
11040TIP3   OH254610   1.603   2.179  16.676  0.0340  0.2581  0.4940
11040TIP3    H154611   1.516   2.141  16.660  1.0917 -1.7107 -0.9842
11040TIP3    H254612   1.614   2.244  16.607 -0.5170  1.0190  1.1052
11041TIP3   OH254613   4.087   6.301   4.587  0.4442 -0.1166  0.0241
11041TIP3    H154614   4.059   6.227   4.642  1.7791 -1.6283 -1.2585
11041TIP3    H254615   4.005   6.335   4.552 -0.2429 -0.6535  1.0242
11042TIP3   OH254616   3.667   4.543  12.453 -0.3930  0.5802  0.6346
11042TIP3    H154617   3.741   4.496  12.491  0.3541  2.1252  1.1733
11042TIP3    H254618   3.650   4.499  12.370  0.7674 -0.1435  0.7639
11043TIP3   OH254619   2.435   0.224   5.056  0.7578  0.4458 -0.1000
11043TIP3    H154620   2.445   0.281   4.980 -0.4073  0.3968 -0.3130
11043TIP3    H254621   2.359   0.260   5.102  1.2694  0.2998  0.8873
11044TIP3   OH254622   5.293   2.116  14.158 -0.0934  0.7280  0.3280
11044TIP3    H154623   5.304   2.080  14.246 -2.3734 -0.0731  0.3675
11044TIP3    H254624   5.318   2.045  14.099 -0.4213  0.5704  0.3718
11045TIP3   OH254625   6.794   0.771  15.394 -0.7476  0.2686  0.3757
11045TIP3    H154626   6.740   0.709  15.443  1.3381 -1.4902  0.6490
11045TIP3    H254627   6.786   0.743  15.303  0.4070 -0.6802  0.5285
11046TIP3   OH254628   1.061   4.604  16.652 -0.0937  0.1863 -0.2441
11046TIP3    H154629   0.999   4.568  16.715 -2.5793  1.0516 -2.0604
11046TIP3    H254630   1.083   4.690  16.688 -0.6780  0.2604 -0.0490
11047TIP3   OH254631   6.078   4.526   5.230  0.6629  0.3619 -0.2064
11047TIP3    H154632   6.130   4.571   5.164  1.0315  2.3119  1.3477
11047TIP3    H254633   6.023   4.594   5.268 -0.3568 -0.9433  0.7472
11048TIP3   OH254634   0.807   2.687  16.389 -0.2364  0.2954 -0.1346
11048TIP3    H154635   0.806   2.698  16.294  0.0062 -1.0598 -0.3151
11048TIP3    H254636   0.715   2.685  16.414 -0.3458 -0.9674 -0.5706
11049TIP3   OH254637   3.554   5.114   2.986 -0.0754  0.3655  0.4347
11049TIP3    H154638   3.567   5.020   2.973 -1.9354  0.3306 -1.8141
11049TIP3    H254639   3.584   5.154   2.904  2.7048  2.0420  2.1338
11050TIP3   OH254640   1.952   0.809   5.246  0.1120  0.0047 -0.3169
11050TIP3    H154641   1.884   0.771   5.302 -0.0531  0.6553 -0.0680
11050TIP3    H254642   1.986   0.883   5.297 -0.3601  0.8888 -1.2622
11051TIP3   OH254643   6.021   4.533  14.500  0.2196 -0.0630  0.2062
11051TIP3    H154644   6.070   4.597  14.448  0.1261 -0.2724 -0.1424
11051TIP3    H254645   6.026   4.452  14.449  1.1503 -0.5919  1.0887
11052TIP3   OH254646   6.573   4.691  11.926 -0.4986  0.0006  0.1117
11052TIP3    H154647   6.544   4.771  11.970  1.3292 -0.2194  1.8205
11052TIP3    H254648   6.664   4.710  11.900  0.1119 -1.6460  0.9460
11053TIP3   OH254649   5.131   0.911  14.833 -0.0388  0.4768 -0.2658
11053TIP3    H154650   5.195   0.919  14.904 -0.8650  0.8427  0.4602
11053TIP3    H254651   5.051   0.949  14.869 -0.4739  0.6643 -1.4057
11054TIP3   OH254652   3.155   6.052   2.967  0.2879  0.0214 -0.3030
11054TIP3    H154653   3.196   6.130   3.003  1.3097 -0.5373 -0.2273
11054TIP3    H254654   3.227   6.000   2.932 -0.5231 -0.1493 -1.8176
11055TIP3   OH254655   0.670   3.036   5.743 -0.6669 -0.5115  0.1940
11055TIP3    H154656   0.715   3.015   5.825 -1.3992  3.1685  1.7198
11055TIP3    H254657   0.741   3.052   5.681  0.1419  1.5317  1.5446
11056TIP3   OH254658   5.994   2.655  10.942 -0.0385 -0.3176  0.5649
11056TIP3    H154659   6.022   2.746  10.941  0.8591 -0.5839  0.9190
11056TIP3    H254660   6.033   2.616  10.863 -1.7014 -0.0436 -0.4517
11057TIP3   OH254661   6.131   5.415   3.851 -0.3494 -0.2762  0.0929
11057TIP3    H154662   6.083   5.361   3.788  0.1475  1.0393 -1.4861
11057TIP3    H254663   6.063   5.456   3.904 -0.7260 -2.6532  1.5761
11058TIP3   OH254664   4.858   5.846   5.171 -0.0417 -0.0504  0.0767
11058TIP3    H154665   4.913   5.797   5.232  2.0319  1.1971 -0.7052
11058TIP3    H254666   4.804   5.901   5.228  0.4461 -0.3256  0.8335
11059TIP3   OH254667   0.318   5.879  13.100  0.1899  0.0390  0.5148
11059TIP3    H154668   0.324   5.899  13.193  0.3843 -1.1289  0.7752
11059TIP3    H254669   0.408   5.865  13.072  0.0064 -1.8312  0.7058
11060TIP3   OH254670   5.413   3.435  13.160  0.4482 -0.2932 -0.6206
11060TIP3    H154671   5.357   3.357  13.150  0.7731 -0.5240 -0.6445
11060TIP3    H254672   5.490   3.403  13.207  0.5070  0.0518 -0.4825
11061TIP3   OH254673   2.451   0.431   2.130  0.4301 -0.0455 -0.1640
11061TIP3    H154674   2.438   0.516   2.088 -0.4873  0.3272  0.8414
11061TIP3    H254675   2.429   0.367   2.062  0.2558  0.5270 -0.6526
11062TIP3   OH254676   1.464   1.439   3.120 -0.0669 -0.2647 -0.3339
11062TIP3    H154677   1.531   1.380   3.083  1.0361  0.9810 -0.3946
11062TIP3    H254678   1.382   1.390   3.111  0.8875 -2.0810  0.2427
11063TIP3   OH254679   5.712   2.645   5.147  0.3383  0.7953  0.3532
11063TIP3    H154680   5.796   2.646   5.101 -0.4540 -1.4875 -1.3443
11063TIP3    H254681   5.733   2.613   5.235  1.2120 -0.1745 -0.1856
11064TIP3   OH254682   6.721   6.415  12.392 -0.1564  0.0247  0.2011
11064TIP3    H154683   6.644   6.465  12.366  1.4866  2.2389 -0.8149
11064TIP3    H254684   6.788   6.482  12.408  1.6572 -1.8059  0.6920
11065TIP3   OH254685   4.937   5.534  17.023 -0.4484 -0.1813 -0.6142
11065TIP3    H154686   4.955   5.486  17.104  0.0692 -0.0212 -0.6333
11065TIP3    H254687   4.858   5.494  16.988 -2.7166  1.8787  1.6867
11066TIP3   OH254688   1.968   6.378   5.126  1.0065  0.0661  0.0572
11066TIP3    H154689   1.925   6.366   5.041 -1.9387  1.6880  1.1822
11066TIP3    H254690   2.043   6.433   5.107  0.3470  0.4868 -1.4974
11067TIP3   OH254691   1.274   0.227  12.998 -0.8589 -0.6603  0.4871
11067TIP3    H154692   1.226   0.280  13.062 -1.6796  1.4959 -1.7099
11067TIP3    H254693   1.320   0.292  12.944  1.7384 -2.4943  0.3105
11068TIP3   OH254694   5.315   3.734  14.829 -0.1265  0.1338  0.1407
11068TIP3    H154695   5.256   3.797  14.871  1.3737  1.3934  0.4456
11068TIP3    H254696   5.367   3.699  14.901  0.7693  0.4481 -0.3442
11069TIP3   OH254697   3.460   5.085  13.025 -0.5819 -0.0429 -0.5476
11069TIP3    H154698   3.376   5.113  13.060 -0.9508  0.6378 -1.8958
11069TIP3    H254699   3.491   5.019  13.086 -1.4180  0.7258  0.7412
11070TIP3   OH254700   1.846   6.651  14.820  0.7963  0.4260  0.0974
11070TIP3    H154701   1.936   6.684  14.832  1.9682 -2.3400 -0.3203
11070TIP3    H254702   1.833   6.650  14.725 -0.0670  1.6390  0.1778
11071TIP3   OH254703   0.799   3.557   2.980 -0.0016 -0.4635  0.2323
11071TIP3    H154704   0.802   3.510   3.063  1.3733 -0.6283  0.1014
11071TIP3    H254705   0.880   3.608   2.977 -0.3958  0.1374 -0.6618
11072TIP3   OH254706   6.582   5.953  15.157 -0.4771 -0.1678 -0.1696
11072TIP3    H154707   6.622   5.867  15.147 -1.0948 -0.3713 -1.0278
11072TIP3    H254708   6.641   6.012  15.109  1.3614  0.3925  2.5022
11073TIP3   OH254709   3.168   3.277  15.864  0.1778  0.2611 -0.3664
11073TIP3    H154710   3.258   3.270  15.897 -0.3212  0.7153  1.2191
11073TIP3    H254711   3.116   3.293  15.943 -1.4795 -1.3551 -1.0816
11074TIP3   OH254712   4.111   4.670  15.772 -0.4385 -0.6391  0.0301
11074TIP3    H154713   4.103   4.730  15.846  0.6855  0.8167 -0.9631
11074TIP3    H254714   4.198   4.632  15.780 -0.2193 -0.3012 -0.6392
11075TIP3   OH254715   6.003   3.164   3.507 -0.1713 -0.7114  0.4046
11075TIP3    H154716   5.999   3.076   3.546 -0.3577 -0.8446  0.0864
11075TIP3    H254717   6.038   3.219   3.577 -1.4087 -0.7577  1.0829
11076TIP3   OH254718   4.357   2.235   5.440  0.0500 -0.1390  0.4638
11076TIP3    H154719   4.432   2.229   5.499 -0.9264  0.0880  1.7642
11076TIP3    H254720   4.298   2.166   5.470 -0.3063 -0.2659 -0.5032
11077TIP3   OH254721   6.526   3.694  11.710  0.4757 -0.2599  0.4394
11077TIP3    H154722   6.602   3.740  11.673 -0.5938  1.2206 -0.0342
11077TIP3    H254723   6.492   3.754  11.776  0.2734 -1.3393  1.3361
11078TIP3   OH254724   0.421   4.774  11.717  0.3135  0.4822  0.3002
11078TIP3    H154725   0.461   4.797  11.633 -1.6680  0.5667 -0.6915
11078TIP3    H254726   0.432   4.679  11.724 -1.1640  0.1683 -1.0401
11079TIP3   OH254727   1.701   4.635   3.548  0.0895  0.6664  0.8848
11079TIP3    H154728   1.713   4.728   3.528 -0.4743  0.3514 -1.1214
11079TIP3    H254729   1.734   4.589   3.471  0.4900 -0.8214  1.9061
11080TIP3   OH254730   0.070   0.796   3.924 -0.4782 -0.1609  0.1478
11080TIP3    H154731   0.064   0.743   4.003  0.7068  1.2239  1.2353
11080TIP3    H254732   0.096   0.735   3.855  1.7820 -0.9029  1.5467
11081TIP3   OH254733   3.756   5.792   2.257 -0.7455  0.0333 -0.0250
11081TIP3    H154734   3.755   5.808   2.351  0.3059 -2.8553  0.5967
11081TIP3    H254735   3.678   5.739   2.241 -1.2839  1.0731 -0.9440
11082TIP3   OH254736   6.504   6.052  16.025 -0.2583  0.6962  0.0302
11082TIP3    H154737   6.525   6.034  15.934  3.2051 -0.8990  0.9790
11082TIP3    H254738   6.501   5.966  16.067 -1.9937  1.3754  1.4626
11083TIP3   OH254739   1.596   3.622  12.363  0.0352 -0.6060 -0.0031
11083TIP3    H154740   1.567   3.594  12.276  0.9057  0.6594 -0.7236
11083TIP3    H254741   1.602   3.540  12.414  1.3282 -1.5992 -1.6663
11084TIP3   OH254742   1.025   4.534  16.167 -0.7820  0.2859  0.0407
11084TIP3    H154743   0.953   4.490  16.122 -1.2058  2.1399 -1.1980
11084TIP3    H254744   1.004   4.627  16.162  1.1037  0.8100  0.7199
11085TIP3   OH254745   3.511   0.476   4.692 -0.3950  0.6100  0.0047
11085TIP3    H154746   3.532   0.424   4.770  1.8646 -0.5625 -1.3000
11085TIP3    H254747   3.499   0.412   4.623 -0.3068  1.7126 -1.0559
11086TIP3   OH254748   1.336   5.908   3.702  0.2298  0.0610  0.0444
11086TIP3    H154749   1.271   5.855   3.748 -0.0903  0.5423  0.1498
11086TIP3    H254750   1.310   5.903   3.610 -0.7033  1.2478  0.2105
11087TIP3   OH254751   6.401   2.507  15.915 -0.2093  0.3217  0.2240
11087TIP3    H154752   6.468   2.575  15.915  0.8711 -0.7104  0.6375
11087TIP3    H254753   6.442   2.432  15.958 -1.9642 -0.0310  1.4091
11088TIP3   OH254754   0.984   2.113   2.063 -0.2811  0.5271 -0.1160
11088TIP3    H154755   1.032   2.099   2.145 -1.9972 -0.1014  0.8460
11088TIP3    H254756   0.892   2.098   2.087 -0.6590 -1.7594 -2.5914
11089TIP3   OH254757   4.349   4.926  11.332 -0.3073  0.3789 -0.0019
11089TIP3    H154758   4.330   4.842  11.375 -0.8002  0.2858 -0.3946
11089TIP3    H254759   4.439   4.946  11.358 -0.0432 -0.4783 -0.2336
11090TIP3   OH254760   6.703   1.219  16.738  0.5070 -0.0880  0.1115
11090TIP3    H154761   6.784   1.168  16.742  1.0814  0.8871  1.8313
11090TIP3    H254762   6.723   1.301  16.782 -1.5293  0.0340  0.9561
11091TIP3   OH254763   3.838   0.420   3.232 -0.3728 -0.4100 -0.2953
11091TIP3    H154764   3.835   0.335   3.188 -1.3758  0.0398 -1.1209
11091TIP3    H254765   3.838   0.398   3.325 -1.0177 -1.3105 -0.4971
11092TIP3   OH254766   2.233   2.573  14.666  0.7488 -0.3884  0.1737
11092TIP3    H154767   2.158   2.514  14.674 -2.1195  2.9026  0.0900
11092TIP3    H254768   2.255   2.572  14.573  0.4262 -0.9759  0.1021
11093TIP3   OH254769   5.858   1.829   1.866  0.2916 -0.1365 -0.2847
11093TIP3    H154770   5.921   1.845   1.937 -0.8256 -0.1977  0.7559
11093TIP3    H254771   5.907   1.848   1.786  1.9056 -1.0144  0.4295
11094TIP3   OH254772   0.855   2.983   0.592  0.5098  0.4969 -0.1959
11094TIP3    H154773   0.841   3.059   0.536  2.8186  0.3408 -1.1002
11094TIP3    H254774   0.891   2.916   0.533  0.5964 -0.5521  0.9937
11095TIP3   OH254775   5.580   4.592   3.426  0.1369 -0.2029  0.2964
11095TIP3    H154776   5.637   4.669   3.435 -0.8037  0.5124  0.3221
11095TIP3    H254777   5.502   4.625   3.382 -0.1662 -1.2180  0.0378
11096TIP3   OH254778   3.099   0.439  11.113  0.6229  0.8493  0.4042
11096TIP3    H154779   3.132   0.501  11.047  2.2020  0.7435  1.0576
11096TIP3    H254780   3.116   0.353  11.075 -1.7427  0.7210 -0.5882
11097TIP3   OH254781   0.616   4.492   1.456 -0.6924 -0.1545 -0.2686
11097TIP3    H154782   0.525   4.511   1.477 -0.1547  1.6350  0.6437
11097TIP3    H254783   0.644   4.565   1.400  0.1846 -0.6683 -0.5313
11098TIP3   OH254784   0.837   0.463  15.525 -0.0993  0.0641 -0.3776
11098TIP3    H154785   0.801   0.447  15.438  0.5094  1.4171 -0.9112
11098TIP3    H254786   0.929   0.482  15.510 -0.0332  0.5212  0.5330
11099TIP3   OH254787   6.050   5.560   2.729 -0.0446 -0.1764  0.2506
11099TIP3    H154788   6.074   5.503   2.802  0.8433 -0.2877 -0.1072
11099TIP3    H254789   6.046   5.647   2.767  0.1954 -0.2640  0.4837
11100TIP3   OH254790   0.096   6.689  12.904  0.0970 -0.4799 -0.0755
11100TIP3    H154791   0.033   6.663  12.971 -0.3320  0.0494 -0.2623
11100TIP3    H254792   0.176   6.710  12.952 -0.0814 -0.5053  0.2318
11101TIP3   OH254793   0.642   1.639   3.549  0.7107  0.4417  0.7243
11101TIP3    H154794   0.578   1.627   3.480  0.8503 -1.4183  0.8458
11101TIP3    H254795   0.722   1.596   3.516  0.9432  0.0082  1.7787
11102TIP3   OH254796   5.876   5.746   1.091 -0.8699  0.2373  0.2199
11102TIP3    H154797   5.969   5.728   1.081 -0.8997 -2.2469  2.8483
11102TIP3    H254798   5.835   5.713   1.011  0.2855 -1.3396  0.2411
11103TIP3   OH254799   0.165   5.509   4.148  0.0791  0.4296 -0.3010
11103TIP3    H154800   0.236   5.571   4.167  0.7140  0.1243 -1.5339
11103TIP3    H254801   0.092   5.565   4.121 -0.1771  0.7458  0.9879
11104TIP3   OH254802   2.628   0.594  16.027  0.5112  0.3299 -0.1097
11104TIP3    H154803   2.676   0.588  16.109  1.3495  0.2088 -0.5976
11104TIP3    H254804   2.615   0.503  15.999 -0.1692  0.3523  0.1031
11105TIP3   OH254805   3.171   5.039   0.613 -0.8111  0.1083  0.0058
11105TIP3    H154806   3.266   5.025   0.604 -0.4673  2.6248 -1.1380
11105TIP3    H254807   3.144   4.975   0.678  1.2551 -2.2482 -1.2606
11106TIP3   OH254808   0.604   6.264  14.826 -0.1344 -0.4360  0.1094
11106TIP3    H154809   0.577   6.215  14.748 -0.8397  0.8165 -0.4528
11106TIP3    H254810   0.607   6.198  14.896 -0.4775 -1.3840 -0.7535
11107TIP3   OH254811   5.292   4.893  12.993  0.0250  0.1437  0.1174
11107TIP3    H154812   5.211   4.878  12.945 -0.4187  0.1563  0.8516
11107TIP3    H254813   5.359   4.850  12.941 -0.5924 -0.6871 -0.0080
11108TIP3   OH254814   0.735   6.675   4.679  0.1839 -0.6833  0.0987
11108TIP3    H154815   0.748   6.690   4.773  0.2779  0.4776 -0.0957
11108TIP3    H254816   0.655   6.723   4.657  0.2309 -0.8418 -0.4421
11109TIP3   OH254817   4.303   0.356   4.030  0.2941  0.1201 -0.2769
11109TIP3    H154818   4.261   0.271   4.027 -0.6347  0.4086  2.2477
11109TIP3    H254819   4.375   0.345   4.092  1.2913  0.7484 -1.2839
11110TIP3   OH254820   1.127   3.172  13.772  0.0543  0.0876  0.0336
11110TIP3    H154821   1.160   3.084  13.754  1.2466  0.7857 -1.4245
11110TIP3    H254822   1.191   3.210  13.833  0.1237  0.3162 -0.1809
11111TIP3   OH254823   2.587   6.056  12.287 -0.3552  0.1496  0.0564
11111TIP3    H154824   2.498   6.091  12.278 -1.6972 -3.1703 -1.0683
11111TIP3    H254825   2.583   6.000  12.364  0.6552 -0.2679 -0.1843
11112TIP3   OH254826   5.065   0.198   5.768  0.1665 -0.0952 -0.4289
11112TIP3    H154827   4.973   0.227   5.771  0.3543  0.9308 -2.6494
11112TIP3    H254828   5.107   0.246   5.839 -0.5936  1.2029 -0.8142
11113TIP3   OH254829   2.192   0.923   6.799 -0.2842 -0.2639  0.6616
11113TIP3    H154830   2.101   0.937   6.772  0.2323 -0.1304 -1.1943
11113TIP3    H254831   2.218   1.008   6.836 -0.6283  0.0093  0.2954
11114TIP3   OH254832   2.451   3.593  10.435 -0.2539  0.3412  0.1448
11114TIP3    H154833   2.407   3.598  10.520  1.2617 -0.1570  0.9830
11114TIP3    H254834   2.413   3.515  10.394 -0.0618 -0.1734  0.9216
11115TIP3   OH254835   2.732   1.301   3.356  0.1354 -0.0717  0.1426
11115TIP3    H154836   2.727   1.384   3.309 -0.0258  0.3095  0.8115
11115TIP3    H254837   2.713   1.235   3.290  0.5171  0.3999 -0.4613
11116TIP3   OH254838   3.323   5.169  14.805  0.1839  0.7422 -0.1923
11116TIP3    H154839   3.275   5.096  14.764  1.4480 -1.4757  2.0083
11116TIP3    H254840   3.267   5.196  14.877  0.9561  0.0437  0.6813
11117TIP3   OH254841   4.061   5.453  15.452  0.3335 -0.5171  0.2707
11117TIP3    H154842   4.118   5.494  15.517  1.1970 -0.2148 -0.6503
11117TIP3    H254843   4.025   5.377  15.496 -0.9382  0.9522  1.8758
11118TIP3   OH254844   3.980   2.781   3.665  0.3246 -0.3954 -0.1322
11118TIP3    H154845   4.057   2.761   3.612 -0.3314 -1.1478 -0.8417
11118TIP3    H254846   4.010   2.773   3.756  1.1864 -0.2131 -0.3941
11119TIP3   OH254847   3.361   2.521  13.365  0.2491  0.4146  0.4724
11119TIP3    H154848   3.436   2.562  13.321  1.1137 -0.5459  1.0027
11119TIP3    H254849   3.334   2.451  13.306  1.2849 -0.7479  1.3109
11120TIP3   OH254850   6.479   0.031  14.784 -0.5445 -0.5432  0.1934
11120TIP3    H154851   6.568  -0.002  14.773 -0.7223 -1.0963  0.4164
11120TIP3    H254852   6.423  -0.042  14.758 -0.9510  0.4508 -2.0376
11121TIP3   OH254853   6.212   2.455  15.432 -0.0203 -0.1142 -0.1408
11121TIP3    H154854   6.129   2.494  15.459  0.9726  1.4453  0.8513
11121TIP3    H254855   6.249   2.419  15.513  0.6901  0.0600 -0.3767
11122TIP3   OH254856   4.789   4.489  15.117 -0.4184  0.2096 -0.5191
11122TIP3    H154857   4.754   4.409  15.155  1.1284  0.2375  1.1159
11122TIP3    H254858   4.844   4.460  15.045  2.1057 -0.5248  1.5422
11123TIP3   OH254859   5.449   1.069  13.053 -0.1512  0.1521 -0.0478
11123TIP3    H154860   5.441   1.165  13.052  1.3878  0.3904  2.2525
11123TIP3    H254861   5.473   1.046  12.963 -2.6435  1.6489 -1.1922
11124TIP3   OH254862   6.818   3.531  15.984  0.3019 -0.5465  0.2133
11124TIP3    H154863   6.735   3.488  16.005  0.0497 -0.1261  0.0877
11124TIP3    H254864   6.801   3.624  15.998  0.8355 -0.4798  0.4590
11125TIP3   OH254865   3.780   3.879   5.801 -0.0570 -0.0411  0.0181
11125TIP3    H154866   3.843   3.950   5.812  0.0597 -0.1268 -0.0987
11125TIP3    H254867   3.814   3.827   5.728  0.1444 -0.5222  0.4504
11126TIP3   OH254868   6.227   0.767   1.806 -0.1836  0.2930  0.1804
11126TIP3    H154869   6.230   0.851   1.853 -1.1153  0.0785  0.6505
11126TIP3    H254870   6.198   0.704   1.872  1.3127 -0.5687  0.0360
11127TIP3   OH254871   4.863   5.731  10.965 -0.6008 -0.2818 -0.0272
11127TIP3    H154872   4.879   5.668  10.895 -0.1386  0.5490 -0.7046
11127TIP3    H254873   4.856   5.815  10.919 -0.0483  0.3133  0.9407
11128TIP3   OH254874   4.019   5.191  13.514 -0.0397  0.3103  0.0297
11128TIP3    H154875   3.978   5.116  13.556 -1.1354  1.0018  0.2328
11128TIP3    H254876   4.066   5.235  13.584  0.5831 -0.1599 -0.0848
11129TIP3   OH254877   1.991   0.075   2.037 -0.2046  0.1405  0.1185
11129TIP3    H154878   1.956   0.131   2.106  0.2891 -1.4273  1.7141
11129TIP3    H254879   1.916   0.058   1.980 -0.6042  1.5276  0.1861
11130TIP3   OH254880   3.751   2.493   3.779  0.2032 -0.3184  0.2260
11130TIP3    H154881   3.845   2.480   3.769  0.2180  0.2288 -0.4465
11130TIP3    H254882   3.724   2.426   3.842  0.9928 -0.6497  0.2276
11131TIP3   OH254883   4.274   2.935   4.298 -0.3431  0.2138  0.6627
11131TIP3    H154884   4.362   2.905   4.322 -1.5953 -2.3075  2.5556
11131TIP3    H254885   4.239   2.972   4.379 -0.7636  1.9817 -0.3004
11132TIP3   OH254886   5.510   3.074  11.389  0.3680 -0.0226  0.0510
11132TIP3    H154887   5.587   3.055  11.335 -1.2284 -0.4658 -2.1937
11132TIP3    H254888   5.519   3.167  11.411  0.8938  0.2684 -1.3144
11133TIP3   OH254889   6.390   3.918   3.686 -0.5893  0.1013  0.0083
11133TIP3    H154890   6.418   3.934   3.776 -2.1835 -0.2342  0.5874
11133TIP3    H254891   6.464   3.871   3.646  0.3108  0.6315  0.9976
11134TIP3   OH254892   1.858   4.013   0.726  0.0821  0.1936  0.1206
11134TIP3    H154893   1.945   4.012   0.766  1.2238  0.6312 -2.1896
11134TIP3    H254894   1.836   4.106   0.717  1.2889  0.2796 -3.0185
11135TIP3   OH254895   4.668   5.172  12.861 -0.1298  0.0641  0.2144
11135TIP3    H154896   4.619   5.121  12.796 -0.8383  1.4641 -0.3872
11135TIP3    H254897   4.739   5.212  12.812 -0.1787  0.4624  0.4621
11136TIP3   OH254898   4.503   5.476  15.135 -0.5512  0.3061 -0.1550
11136TIP3    H154899   4.521   5.519  15.219 -1.6412 -0.4906  0.5052
11136TIP3    H254900   4.436   5.411  15.155 -0.0421 -0.6441 -1.4472
11137TIP3   OH254901   3.838   2.717  12.056  0.3319  0.1014  0.7215
11137TIP3    H154902   3.814   2.799  12.098 -1.1734 -0.2613  0.6325
11137TIP3    H254903   3.791   2.718  11.972  1.1078 -0.4045  0.2666
11138TIP3   OH254904   6.757   4.254   3.490  0.2885 -0.3639 -0.4295
11138TIP3    H154905   6.680   4.269   3.545  0.6148 -0.9883  0.1996
11138TIP3    H254906   6.799   4.177   3.527  1.0759 -0.1877 -0.9386
11139TIP3   OH254907   2.564   5.900  13.606 -0.0130 -0.1354 -0.0379
11139TIP3    H154908   2.635   5.888  13.669  0.3699  0.0858 -0.4236
11139TIP3    H254909   2.518   5.979  13.636  2.1327  1.9427 -1.8157
11140TIP3   OH254910   6.111   3.133  14.769  0.7051 -0.3946 -0.2472
11140TIP3    H154911   6.147   3.159  14.684  2.6546 -1.0647  0.2963
11140TIP3    H254912   6.106   3.214  14.819  0.4341 -0.1325 -0.6971
11141TIP3   OH254913   4.747   2.866  11.948 -0.1325 -0.4748 -0.1325
11141TIP3    H154914   4.740   2.932  12.017 -0.1259  1.0006 -1.4853
11141TIP3    H254915   4.675   2.886  11.888  0.6343 -0.8957 -1.2318
11142TIP3   OH254916   3.998   2.252  12.407  0.2104  0.3370  0.5022
11142TIP3    H154917   3.933   2.286  12.468  1.5809  0.5881  1.8897
11142TIP3    H254918   4.080   2.292  12.435  1.0125 -0.1623 -1.0445
11143TIP3   OH254919   1.636   0.056  12.965 -0.3339  0.2897 -0.1511
11143TIP3    H154920   1.637   0.091  12.876  0.4855 -0.6824 -0.5465
11143TIP3    H254921   1.699   0.111  13.012 -0.3962  0.4933 -0.3051
11144TIP3   OH254922   3.059   1.563   5.701 -0.0968  0.7977 -0.2525
11144TIP3    H154923   3.143   1.608   5.689  0.8756 -0.6802  0.6733
11144TIP3    H254924   3.044   1.518   5.618  0.8435 -0.1863  0.0873
11145TIP3   OH254925   4.417   4.075   1.436  0.9099 -0.3467 -0.3685
11145TIP3    H154926   4.437   4.048   1.526  0.5781  3.5056  1.0257
11145TIP3    H254927   4.321   4.080   1.433  0.9646  0.7929 -0.5000
11146TIP3   OH254928   6.262   6.115  14.887  0.3893 -0.5988  0.3140
11146TIP3    H154929   6.244   6.043  14.826 -1.2021 -0.1656  0.2257
11146TIP3    H254930   6.357   6.120  14.891  0.5278 -1.4734 -1.1499
11147TIP3   OH254931   6.317   1.079   2.843  0.0212  0.1554 -0.3151
11147TIP3    H154932   6.282   1.032   2.918  0.4627  0.2769 -0.0229
11147TIP3    H254933   6.242   1.123   2.805 -0.2231  0.0256  0.0105
11148TIP3   OH254934   2.429   3.081  14.528 -0.2975  0.0322 -0.5411
11148TIP3    H154935   2.366   3.050  14.594  0.2294 -0.2337 -0.1574
11148TIP3    H254936   2.513   3.049  14.559  0.0878  0.7578 -0.8262
11149TIP3   OH254937   6.014   3.381   4.391 -0.2418  0.0210  0.3098
11149TIP3    H154938   5.971   3.303   4.355  0.5247 -0.3835  0.2474
11149TIP3    H254939   6.075   3.347   4.456  1.8746  0.3183 -1.3977
11150TIP3   OH254940   6.803   3.920   4.874 -0.5619 -0.0612 -0.0007
11150TIP3    H154941   6.824   3.840   4.826 -1.8492 -0.3665 -0.0916
11150TIP3    H254942   6.752   3.973   4.812 -0.4788  0.4452  0.3532
11151TIP3   OH254943   1.757   6.322  13.895  0.4127  0.1278 -0.0084
11151TIP3    H154944   1.781   6.405  13.937  1.6671 -0.1619 -0.1108
11151TIP3    H254945   1.743   6.262  13.969 -1.6387  0.6875  0.1142
11152TIP3   OH254946   1.742   3.102  12.758 -0.1849 -0.2761 -0.4091
11152TIP3    H154947   1.669   3.156  12.727 -0.1978  0.3452  0.6729
11152TIP3    H254948   1.706   3.051  12.831 -0.1872 -1.8271 -1.4298
11153TIP3   OH254949   3.257   4.849   3.838  0.1856  0.1505 -0.0803
11153TIP3    H154950   3.265   4.817   3.748 -3.7137  1.8294 -1.2370
11153TIP3    H254951   3.312   4.926   3.842  1.2860 -0.5887 -0.6264
11154TIP3   OH254952   6.340   2.443  12.281  0.0345 -0.2628  0.2552
11154TIP3    H154953   6.382   2.456  12.196  2.3013  3.1001  1.6853
11154TIP3    H254954   6.411   2.423  12.341 -1.1508 -0.0427  1.8055
11155TIP3   OH254955   1.282   2.870  13.137 -0.3233  0.1941  0.3100
11155TIP3    H154956   1.284   2.832  13.225 -0.4665  0.7128  0.5360
11155TIP3    H254957   1.318   2.957  13.147 -0.6863  0.3927 -0.0792
11156TIP3   OH254958   6.341   0.285   3.683  0.0495 -0.2090 -0.0048
11156TIP3    H154959   6.345   0.346   3.757 -0.1715 -0.5856  0.3177
11156TIP3    H254960   6.298   0.335   3.614  0.8947  0.3836 -0.1125
11157TIP3   OH254961   6.542   4.857   2.826 -0.1651  0.0052 -0.2070
11157TIP3    H154962   6.530   4.860   2.731 -2.1810 -1.2311 -0.0553
11157TIP3    H254963   6.528   4.948   2.855  0.4637  0.3894 -1.0623
11158TIP3   OH254964   5.435   1.462  15.773 -0.0023  0.5632 -0.1726
11158TIP3    H154965   5.378   1.445  15.849  0.1738  0.3359 -0.0888
11158TIP3    H254966   5.390   1.420  15.700  0.3647 -0.1647  0.0103
11159TIP3   OH254967   2.886   1.440  12.907 -0.2297  0.0143  0.0576
11159TIP3    H154968   2.886   1.522  12.957 -0.9474  0.2490 -0.3191
11159TIP3    H254969   2.802   1.400  12.927  0.4413 -1.0625  0.9032
11160TIP3   OH254970   3.890   3.157  15.139 -0.6580  0.0246  0.1564
11160TIP3    H154971   3.899   3.162  15.044 -1.7870  0.7810  0.0705
11160TIP3    H254972   3.801   3.125  15.153  0.1441 -2.0022  0.9581
11161TIP3   OH254973   1.246   5.640  16.445 -0.0233  0.6250  0.6319
11161TIP3    H154974   1.174   5.700  16.467 -0.2667  0.1038  1.2941
11161TIP3    H254975   1.224   5.559  16.491  0.3816  0.0729 -0.1230
11162TIP3   OH254976   6.486   2.682   5.318 -0.0288  0.8224 -0.0523
11162TIP3    H154977   6.472   2.750   5.385  1.2365 -0.1293  1.2472
11162TIP3    H254978   6.575   2.651   5.334  0.8631  1.4741 -3.0916
11163TIP3   OH254979   1.623   1.141   6.533  0.0102 -0.8477  0.2851
11163TIP3    H154980   1.615   1.105   6.621  1.1550  3.5893  2.4813
11163TIP3    H254981   1.679   1.079   6.487  0.0654 -2.9369  2.9077
11164TIP3   OH254982   5.261   6.715  14.156 -0.3263 -0.4999 -0.1881
11164TIP3    H154983   5.319   6.778  14.200  0.8748 -1.0520 -0.9515
11164TIP3    H254984   5.173   6.747  14.176  0.2488  1.6673 -0.8763
11165TIP3   OH254985   4.572   0.040   0.123 -0.0707  0.4238 -0.2182
11165TIP3    H154986   4.504   0.036   0.056  0.2668 -0.8681 -0.5045
11165TIP3    H254987   4.527   0.019   0.204  0.0210 -0.7077 -0.4483
11166TIP3   OH254988   2.646   2.270  16.184 -0.3427  0.7877 -0.1160
11166TIP3    H154989   2.622   2.187  16.224  3.7930  0.5409  2.4626
11166TIP3    H254990   2.675   2.247  16.095 -1.6491 -0.0264 -0.3597
11167TIP3   OH254991   1.335   1.197  16.891 -0.1193  0.9921 -0.3546
11167TIP3    H154992   1.389   1.122  16.911  0.1331  1.3184  0.1995
11167TIP3    H254993   1.346   1.211  16.797 -0.7533 -0.1098 -0.6141
11168TIP3   OH254994   4.437   5.357   5.869  0.1948 -0.0918  0.0817
11168TIP3    H154995   4.436   5.395   5.781 -1.2939 -0.2533 -0.0093
11168TIP3    H254996   4.345   5.334   5.885  0.8017 -2.2153  0.7533
11169TIP3   OH254997   6.221   3.027  16.710  0.0800  0.1282 -0.5133
11169TIP3    H154998   6.296   2.988  16.666 -0.2829 -0.3646 -0.7052
11169TIP3    H254999   6.145   2.985  16.669 -0.2532 -0.6811  0.8783
11170TIP3   OH255000   6.228   0.799   5.578  1.0445 -0.1485 -0.5585
11170TIP3    H155001   6.135   0.788   5.595  1.0841 -1.0150 -0.8625
11170TIP3    H255002   6.232   0.853   5.499  0.8358  1.3148  0.3851
11171TIP3   OH255003   5.534   3.843   3.101 -0.2090 -0.0523 -0.0705
11171TIP3    H155004   5.617   3.798   3.119 -0.0232  0.5790  0.7384
11171TIP3    H255005   5.521   3.832   3.007  1.4065  0.8392 -0.4387
11172TIP3   OH255006   5.875   5.730   3.447  0.9610  0.2324 -0.8171
11172TIP3    H155007   5.824   5.748   3.526  0.2730  2.0551 -1.6264
11172TIP3    H255008   5.932   5.657   3.472 -0.9260 -0.8435  0.6021
11173TIP3   OH255009   6.533   3.843  15.695 -0.1729 -0.2317 -0.2765
11173TIP3    H155010   6.592   3.893  15.752 -2.5397  1.4996  0.8056
11173TIP3    H255011   6.570   3.854  15.607  1.7317 -0.2032  0.4753
11174TIP3   OH255012   4.226   0.274   0.299 -0.0130 -0.3415 -0.8435
11174TIP3    H155013   4.197   0.192   0.257  1.9687 -1.7533  0.3970
11174TIP3    H255014   4.307   0.251   0.342 -0.3723  1.8542  1.1660
11175TIP3   OH255015   3.166   1.235  13.441  0.1144 -0.3290 -0.3386
11175TIP3    H155016   3.173   1.322  13.481 -0.7232 -0.1138 -0.6434
11175TIP3    H255017   3.206   1.246  13.354 -1.4318  0.1984 -1.0217
11176TIP3   OH255018   4.882   2.961   1.164  0.1395  0.4486  0.7667
11176TIP3    H155019   4.831   2.886   1.131  1.8900 -1.1476  1.5127
11176TIP3    H255020   4.903   3.012   1.086 -0.8245  0.0073  0.1948
11177TIP3   OH255021   0.431   6.130   5.248 -0.2208 -0.3517 -0.2182
11177TIP3    H155022   0.437   6.040   5.215  2.6045 -0.4922  0.4113
11177TIP3    H255023   0.407   6.120   5.340 -0.8512 -0.3865 -0.3819
11178TIP3   OH255024   2.066   5.555   2.921  0.3358  0.5761 -0.4253
11178TIP3    H155025   1.974   5.545   2.897  0.1820  0.9148  0.0047
11178TIP3    H255026   2.083   5.483   2.980  0.7716 -0.3798 -1.6839
11179TIP3   OH255027   3.905   4.065  11.828  0.0525  0.1993 -0.0006
11179TIP3    H155028   3.872   3.981  11.796 -0.2077  0.0920  0.5316
11179TIP3    H255029   3.840   4.093  11.893  0.5865  0.3836  0.4612
11180TIP3   OH255030   5.563   3.075  16.298 -0.3689 -0.0178 -0.1243
11180TIP3    H155031   5.546   3.129  16.221 -1.7742  1.3028  1.0551
11180TIP3    H255032   5.478   3.037  16.320 -0.4016  1.0394  1.7873
11181TIP3   OH255033   2.701   2.544  12.417 -0.3351  0.3783 -0.5438
11181TIP3    H155034   2.727   2.614  12.357  0.0778  0.6012 -0.1092
11181TIP3    H255035   2.685   2.469  12.360  1.1332  0.2768 -0.8535
11182TIP3   OH255036   4.171   3.666  11.956 -0.0416 -0.0246  0.4055
11182TIP3    H155037   4.188   3.703  12.043  2.5847 -0.4286  0.1302
11182TIP3    H255038   4.214   3.727  11.896 -0.6887 -0.4694 -0.5236
11183TIP3   OH255039   1.965   0.558   3.347  0.5523 -0.1980 -0.1989
11183TIP3    H155040   1.882   0.515   3.323 -0.0769  0.0489  1.3934
11183TIP3    H255041   2.033   0.500   3.311 -0.2835 -0.3046 -1.7039
11184TIP3   OH255042   0.491   4.720  10.682 -0.7506  0.0250  0.5821
11184TIP3    H155043   0.580   4.696  10.709 -1.2407 -0.4199  1.8774
11184TIP3    H255044   0.469   4.656  10.614 -0.1681 -0.0171  0.4284
11185TIP3   OH255045   0.583   2.168  17.139 -0.2237 -0.4481 -0.2346
11185TIP3    H155046   0.568   2.078  17.169 -0.0835 -0.2422  0.4540
11185TIP3    H255047   0.495   2.205  17.133 -0.2255 -0.3392  0.4011
11186TIP3   OH255048   2.655   6.430   1.181 -0.0642  0.3349 -0.0401
11186TIP3    H155049   2.628   6.447   1.091  0.6524  0.6801 -0.1943
11186TIP3    H255050   2.576   6.398   1.224 -0.0403 -1.4071 -1.2043
11187TIP3   OH255051   5.485   0.570   4.732 -0.2180 -0.2317 -0.4582
11187TIP3    H155052   5.572   0.555   4.695 -0.1109 -0.2980 -0.1773
11187TIP3    H255053   5.501   0.589   4.824 -0.4642  0.2127 -0.5061
11188TIP3   OH255054   0.823   1.303  13.151  0.5611 -0.0115 -0.0763
11188TIP3    H155055   0.870   1.348  13.081  2.4942  1.3076  1.9458
11188TIP3    H255056   0.865   1.333  13.232 -0.6729 -2.4822  1.6106
11189TIP3   OH255057   4.755   1.814   0.620  0.0719  0.3288 -0.1513
11189TIP3    H155058   4.843   1.852   0.616 -0.0569  0.6485  0.0750
11189TIP3    H255059   4.696   1.888   0.631 -0.3719  0.2698 -1.8154
11190TIP3   OH255060   2.660   5.422   2.394 -0.0090 -0.0747 -0.1945
11190TIP3    H155061   2.660   5.332   2.427 -0.5601  0.4448  1.2636
11190TIP3    H255062   2.634   5.413   2.302 -2.9372 -1.1995  0.6368
11191TIP3   OH255063   4.882   2.164   2.203 -0.5059  0.5564  0.2366
11191TIP3    H155064   4.913   2.246   2.242 -0.9703  0.3020  1.1838
11191TIP3    H255065   4.816   2.191   2.140  0.1284  0.9736 -0.2587
11192TIP3   OH255066   2.708   1.324   5.417 -0.4415  0.2821  0.2597
11192TIP3    H155067   2.713   1.293   5.507  0.6847  1.3579  0.5867
11192TIP3    H255068   2.742   1.252   5.364  0.2195  0.1797  0.8197
11193TIP3   OH255069   2.251   6.110   1.451  0.3199  0.3187 -0.5331
11193TIP3    H155070   2.206   6.094   1.533  4.5696  0.5574  2.1596
11193TIP3    H255071   2.202   6.181   1.410 -1.0404  1.4213  2.6605
11194TIP3   OH255072   2.424   1.422  11.124 -0.3702  0.1315 -0.0129
11194TIP3    H155073   2.393   1.361  11.191  0.9232 -0.0029  0.4952
11194TIP3    H255074   2.463   1.494  11.174 -0.0975  0.4073 -0.6145
11195TIP3   OH255075   1.337   5.718   3.239  0.1986 -0.1353  0.0575
11195TIP3    H155076   1.418   5.758   3.272  0.8880 -1.4132 -0.0123
11195TIP3    H255077   1.358   5.691   3.150  0.1896 -1.7863  0.5294
11196TIP3   OH255078   6.270   6.464  12.176 -0.0631  0.3091 -0.0630
11196TIP3    H155079   6.184   6.486  12.212  0.7764  0.8764  1.7193
11196TIP3    H255080   6.296   6.385  12.224 -0.0119 -0.4641 -1.3243
11197TIP3   OH255081   5.422   0.993   3.289 -0.0989 -0.6786 -0.4264
11197TIP3    H155082   5.431   0.934   3.364  1.9559 -0.6200 -0.5606
11197TIP3    H255083   5.425   0.935   3.213 -0.6218 -0.6063 -0.5043
11198TIP3   OH255084   3.250   4.255  15.883  0.0463 -0.2503 -0.4053
11198TIP3    H155085   3.339   4.240  15.915 -0.3203  0.4744  1.0196
11198TIP3    H255086   3.249   4.347  15.857 -0.3617 -0.1856 -0.1728
11199TIP3   OH255087   6.379   5.351  13.399 -0.4477 -0.2156  0.0667
11199TIP3    H155088   6.428   5.312  13.326 -0.9642  0.7031 -0.7990
11199TIP3    H255089   6.289   5.321  13.386 -1.0076  1.7465 -1.0350
11200TIP3   OH255090   5.785   6.709  14.668 -0.5261 -0.2831 -0.1660
11200TIP3    H155091   5.697   6.715  14.631 -0.6182 -1.5750 -0.2143
11200TIP3    H255092   5.780   6.633  14.727  0.5399 -0.3335 -0.1284
11201TIP3   OH255093   3.476   3.806  14.781 -0.1620  0.4600  0.0049
11201TIP3    H155094   3.443   3.891  14.753  0.4865  0.2004 -1.6496
11201TIP3    H255095   3.471   3.751  14.703  2.9230  0.0518 -0.0265
11202TIP3   OH255096   0.486   1.506   6.140 -0.6192 -0.2969  0.1112
11202TIP3    H155097   0.400   1.466   6.157 -1.6729  2.0665  0.8055
11202TIP3    H255098   0.481   1.536   6.050 -0.1198 -1.0251 -0.1676
11203TIP3   OH255099   5.578   4.072  13.017  0.5861  0.3097  0.1259
11203TIP3    H155100   5.504   4.127  13.043 -0.0765  0.5515 -2.0683
11203TIP3    H255101   5.655   4.123  13.043 -0.0179  2.1410 -1.3851
11204TIP3   OH255102   0.243   3.216   3.603 -0.3947  0.1756 -0.0938
11204TIP3    H155103   0.231   3.226   3.697  2.2684  2.1690  0.1390
11204TIP3    H255104   0.209   3.297   3.565  0.1239  0.1468 -0.6520
11205TIP3   OH255105   2.469   1.552   4.465  0.4499 -0.6676  0.5345
11205TIP3    H155106   2.379   1.572   4.491  0.0923  0.7043 -1.4970
11205TIP3    H255107   2.524   1.603   4.524 -0.2205  0.4798  0.1927
11206TIP3   OH255108   0.588   5.738  13.066  0.4123  0.0421  0.0067
11206TIP3    H155109   0.621   5.701  13.148  0.7396 -0.3562 -0.3025
11206TIP3    H255110   0.662   5.784  13.028  0.1370  0.6182  0.1516
11207TIP3   OH255111   5.954   6.777   1.118  0.0663 -0.0353 -0.0771
11207TIP3    H155112   5.893   6.733   1.178 -0.5712  0.4908 -0.3199
11207TIP3    H255113   5.920   6.758   1.031  1.2551 -1.1875 -0.3191
11208TIP3   OH255114   0.196   4.052   4.690 -0.1561 -0.1350  0.0499
11208TIP3    H155115   0.116   4.011   4.724 -1.6259 -0.5643 -3.4971
11208TIP3    H255116   0.267   4.003   4.730 -1.7155 -1.4289  1.3802
11209TIP3   OH255117   4.566   4.218   0.070  0.2429 -0.2447  0.0533
11209TIP3    H155118   4.574   4.165   0.149 -0.6013  0.0945  0.3688
11209TIP3    H255119   4.562   4.308   0.101  2.9770  0.1698 -0.5375
11210TIP3   OH255120   2.959   6.163  15.443 -0.1685 -0.3610  0.1197
11210TIP3    H155121   2.962   6.221  15.367 -1.0550 -0.2711  0.1425
11210TIP3    H255122   3.044   6.175  15.486  0.1725 -0.0837 -0.6073
11211TIP3   OH255123   1.502   0.859  14.788 -0.1937  0.2469  0.6627
11211TIP3    H155124   1.436   0.894  14.727  1.1627  2.0062  0.1253
11211TIP3    H255125   1.493   0.914  14.866 -0.2511 -0.3843  1.1069
11212TIP3   OH255126   2.732   1.606  16.598  0.0661 -0.2005  0.1370
11212TIP3    H155127   2.639   1.583  16.596  0.1943 -0.7355  0.2611
11212TIP3    H255128   2.770   1.548  16.664  0.4639  0.1124  0.1866
11213TIP3   OH255129   2.444   6.641   3.054  0.6073 -0.1480  0.5846
11213TIP3    H155130   2.437   6.646   3.149  1.4419 -0.7727  0.6885
11213TIP3    H255131   2.398   6.718   3.022 -0.5763 -0.4679  1.4566
11214TIP3   OH255132   1.987   6.746  14.461 -0.0135 -0.3141  0.2364
11214TIP3    H155133   2.014   6.798  14.537 -0.8724  2.3353 -1.1307
11214TIP3    H255134   2.069   6.713  14.425  0.6236  0.4167  0.9660
11215TIP3   OH255135   4.005   2.515  14.865  0.0989  0.6691  0.1472
11215TIP3    H155136   3.994   2.548  14.775  0.0772 -0.2226 -0.1850
11215TIP3    H255137   4.089   2.551  14.893 -0.0772  1.2776 -0.0846
11216TIP3   OH255138   3.129   4.643   0.675 -0.3736 -0.1765  0.2454
11216TIP3    H155139   3.084   4.604   0.600 -0.7387 -0.1364  0.4378
11216TIP3    H255140   3.213   4.672   0.641 -0.7028  0.2128 -0.2417
11217TIP3   OH255141   2.403   2.253   1.347 -0.4103  0.3974 -0.1769
11217TIP3    H155142   2.474   2.232   1.286 -1.1466  3.1075 -2.1019
11217TIP3    H255143   2.338   2.185   1.331  1.3390 -1.7421  1.1402
11218TIP3   OH255144   1.144   3.145   2.284 -0.4426  0.3306 -0.1374
11218TIP3    H155145   1.159   3.135   2.378 -0.9866  0.3178 -0.0455
11218TIP3    H255146   1.225   3.117   2.243  0.2481  1.5158  0.3776
11219TIP3   OH255147   0.073   5.559   0.735 -0.0166 -0.1118  0.3945
11219TIP3    H155148   0.108   5.634   0.687  0.7992  0.4900  1.8720
11219TIP3    H255149  -0.021   5.576   0.740 -0.1593 -0.2950 -1.1248
11220TIP3   OH255150   5.571   4.181  16.028  0.2043  0.1013  0.2707
11220TIP3    H155151   5.657   4.219  16.047 -0.6087  0.3970  4.1809
11220TIP3    H255152   5.563   4.108  16.090 -0.9320 -2.3789 -2.5859
11221TIP3   OH255153   2.077   2.760  10.490 -0.4250  0.3443  0.5488
11221TIP3    H155154   2.137   2.809  10.434 -0.9754 -0.1326 -0.4922
11221TIP3    H255155   2.088   2.799  10.577  0.1437  1.3890  0.0303
11222TIP3   OH255156   6.788   6.184  13.945  0.6913 -0.8776 -0.8844
11222TIP3    H155157   6.714   6.169  13.886  0.0201  0.2982 -0.3797
11222TIP3    H255158   6.838   6.254  13.904  0.4209 -0.3044 -0.2459
11223TIP3   OH255159   1.483   6.135   2.232 -0.1031  0.2400  0.1938
11223TIP3    H155160   1.555   6.160   2.174  0.1995  0.0172  0.4710
11223TIP3    H255161   1.491   6.040   2.240  1.4330  0.4879  2.6248
11224TIP3   OH255162   5.564   5.746  11.031 -0.4905 -0.4346 -0.1810
11224TIP3    H155163   5.570   5.650  11.031 -2.9598 -0.6458 -0.1780
11224TIP3    H255164   5.640   5.774  10.979  0.8791 -2.2994  0.6755
11225TIP3   OH255165   5.063   4.018   3.159 -0.2974  0.4280  0.6792
11225TIP3    H155166   5.113   3.943   3.128  0.1871  1.4798 -1.2887
11225TIP3    H255167   5.127   4.072   3.205  0.7744  2.1637 -2.5152
11226TIP3   OH255168   1.930   6.759  11.284  0.3497 -0.2844  0.2897
11226TIP3    H155169   1.994   6.829  11.296 -0.7518  0.7092  0.5980
11226TIP3    H255170   1.958   6.690  11.344  2.3299 -0.7987 -1.1238
11227TIP3   OH255171   3.200   1.616  11.446  0.6562  0.6700 -0.1541
11227TIP3    H155172   3.188   1.610  11.540 -1.3544  0.6223 -0.3677
11227TIP3    H255173   3.213   1.709  11.428  0.0305  0.8083  0.0877
11228TIP3   OH255174   1.443   1.654   1.526 -0.2398 -0.7231  0.3168
11228TIP3    H155175   1.352   1.682   1.521 -0.0759 -0.1181  0.6960
11228TIP3    H255176   1.478   1.700   1.602  0.4303 -0.8206  0.0692
11229TIP3   OH255177   1.450   0.018   4.589 -0.2762  0.1413  0.1539
11229TIP3    H155178   1.538   0.015   4.626 -0.2895 -0.8068  0.1286
11229TIP3    H255179   1.455   0.085   4.520  0.6760 -0.5595 -0.4736
11230TIP3   OH255180   6.379   2.595   3.482  0.5919 -0.1616 -0.0893
11230TIP3    H155181   6.307   2.658   3.485  0.1819 -0.6608  1.2567
11230TIP3    H255182   6.364   2.545   3.401 -1.1057 -0.8570  0.6147
11231TIP3   OH255183   1.817   6.216  16.662 -0.1324 -0.1799  0.2167
11231TIP3    H155184   1.745   6.159  16.689 -0.0482  0.1948  1.2931
11231TIP3    H255185   1.877   6.159  16.614  0.8792 -1.4983  2.8715
11232TIP3   OH255186   0.707   2.875   2.221  0.2515  0.4161  0.2228
11232TIP3    H155187   0.710   2.964   2.188 -1.6843  1.7688  3.2684
11232TIP3    H255188   0.797   2.855   2.246  0.5264  1.9799  0.5856
11233TIP3   OH255189   2.722   0.823  15.363 -0.0742  0.0264  0.3647
11233TIP3    H155190   2.632   0.826  15.396 -0.9637 -1.4107 -1.7024
11233TIP3    H255191   2.734   0.907  15.317 -1.1204 -0.5606 -1.0504
11234TIP3   OH255192   1.764   3.403  10.690  0.0452  0.3996 -0.1220
11234TIP3    H155193   1.756   3.314  10.726 -0.1303  0.2941 -0.4195
11234TIP3    H255194   1.845   3.437  10.729 -0.2904  0.3907  0.5895
11235TIP3   OH255195   4.295   6.055  14.792 -0.0067  0.2670  0.1123
11235TIP3    H155196   4.355   5.981  14.805  0.2674  0.2178 -1.3504
11235TIP3    H255197   4.352   6.131  14.785 -0.0155  0.1310 -2.0084
11236TIP3   OH255198   3.583   5.399   0.638 -0.3645 -0.0232  0.0410
11236TIP3    H155199   3.655   5.454   0.669 -0.2522  0.7564 -1.5288
11236TIP3    H255200   3.507   5.428   0.688  0.4247 -1.0709  1.9482
11237TIP3   OH255201   2.036   6.133  14.290 -0.3693 -0.1313 -0.4549
11237TIP3    H155202   2.113   6.097  14.246  0.3947  2.0536 -1.0605
11237TIP3    H255203   2.036   6.092  14.377  2.0915  0.5592 -0.0710
11238TIP3   OH255204   1.356   1.240  11.499  0.4018 -0.2969  0.6251
11238TIP3    H155205   1.428   1.205  11.446  0.9103  0.1277  1.0290
11238TIP3    H255206   1.390   1.322  11.535 -0.6131  0.4001  0.0588
11239TIP3   OH255207   3.466   0.941  16.999  0.4115  0.0704  0.1174
11239TIP3    H155208   3.508   1.026  16.986  0.6966 -0.0915 -0.0050
11239TIP3    H255209   3.510   0.882  16.938  1.3554 -0.5486  1.3447
11240TIP3   OH255210   5.425   4.519   0.325 -0.0376  0.0855 -0.2645
11240TIP3    H155211   5.477   4.463   0.384 -0.9506  0.2220  0.6961
11240TIP3    H255212   5.490   4.577   0.284  0.7669 -0.8623 -0.3525
11241TIP3   OH255213   1.525   2.541  16.242  0.5126  0.1474  0.3819
11241TIP3    H155214   1.542   2.634  16.261  0.2989  0.3046 -0.1823
11241TIP3    H255215   1.606   2.509  16.203  0.2549  0.3574 -0.3470
11242TIP3   OH255216   3.702   0.208  15.537 -0.0764  0.0362  0.2876
11242TIP3    H155217   3.607   0.204  15.549 -0.2443  1.2215 -0.4295
11242TIP3    H255218   3.727   0.294  15.571  0.4786  0.4151 -1.0134
11243TIP3   OH255219   2.698   3.686  14.910  0.0685  0.0800  0.0718
11243TIP3    H155220   2.770   3.638  14.870  0.1123  1.0779 -1.0913
11243TIP3    H255221   2.727   3.777  14.910 -0.5447  0.2848  1.0569
11244TIP3   OH255222   5.998   2.946  16.557  0.2684 -0.1723  1.1582
11244TIP3    H155223   6.010   2.905  16.471 -0.2301 -2.9026  2.2683
11244TIP3    H255224   5.935   3.017  16.542  0.3774 -0.4492 -0.7675
11245TIP3   OH255225   2.783   2.617   1.895 -0.3113  0.1114  0.3106
11245TIP3    H155226   2.717   2.647   1.833 -0.9519 -1.7082  0.0247
11245TIP3    H255227   2.867   2.636   1.854 -0.7110  0.1089 -0.5135
11246TIP3   OH255228   1.644   1.547   1.701 -0.3822  0.0177 -0.0499
11246TIP3    H155229   1.712   1.523   1.764 -0.6967 -0.4719  0.1068
11246TIP3    H255230   1.691   1.590   1.630  0.1461 -0.6772 -0.1339
11247TIP3   OH255231   4.953   6.336   5.670 -0.1070 -0.1344 -0.1210
11247TIP3    H155232   4.975   6.331   5.576  0.6633 -2.1383  0.1036
11247TIP3    H255233   5.034   6.366   5.711  0.8980 -3.0644  0.2413
11248TIP3   OH255234   0.378   5.707   0.704 -0.3689 -0.7078 -0.2975
11248TIP3    H155235   0.312   5.733   0.768 -0.1486 -0.2652 -0.2448
11248TIP3    H255236   0.437   5.783   0.698 -0.6081 -0.5966 -1.3272
11249TIP3   OH255237   1.381   4.095  15.126  0.1856 -0.0837  1.0275
11249TIP3    H155238   1.470   4.066  15.145  0.7169  1.0325  0.3252
11249TIP3    H255239   1.391   4.175  15.074 -1.2022 -0.9419 -0.6943
11250TIP3   OH255240   4.634   3.995   0.608  0.9145  0.5207 -0.3253
11250TIP3    H155241   4.567   4.062   0.622  0.0995  0.6030 -3.8427
11250TIP3    H255242   4.716   4.045   0.600  0.7130  0.8342 -0.4380
11251TIP3   OH255243   5.499   0.373  11.738 -0.1238 -0.0023 -0.2841
11251TIP3    H155244   5.506   0.387  11.832 -0.0300 -3.1018  0.2769
11251TIP3    H255245   5.414   0.411  11.714 -0.6389 -0.1197  1.2731
11252TIP3   OH255246   1.990   4.140  15.423 -0.0212  0.7464 -0.1424
11252TIP3    H155247   2.066   4.088  15.400 -1.2223 -0.7770 -0.8336
11252TIP3    H255248   2.023   4.205  15.485  1.6546 -0.4324  0.2509
11253TIP3   OH255249   5.936   4.186   1.937  0.0317 -0.4721 -0.5539
11253TIP3    H155250   5.928   4.092   1.918  1.4036 -1.3102  2.4519
11253TIP3    H255251   5.872   4.201   2.006 -2.3308  1.6175 -2.9861
11254TIP3   OH255252   5.218   3.416  10.723 -0.7474 -0.0827  0.0473
11254TIP3    H155253   5.228   3.333  10.771  2.6480 -0.2497 -0.6647
11254TIP3    H255254   5.175   3.392  10.641 -0.1493 -1.1117  0.0140
11255TIP3   OH255255   1.106   4.319   1.079  0.5028  0.0130 -0.4592
11255TIP3    H155256   1.033   4.271   1.041 -0.8808  1.2835  0.4517
11255TIP3    H255257   1.176   4.255   1.088 -1.1267 -1.7429  0.3687
11256TIP3   OH255258   2.660   4.742  12.572  0.1069  0.0831  1.0946
11256TIP3    H155259   2.724   4.701  12.513 -0.6373  0.6641 -0.1536
11256TIP3    H255260   2.713   4.783  12.640  1.0223 -0.1617  0.5491
11257TIP3   OH255261   6.404   1.078  11.659 -0.1491  0.3080  0.3298
11257TIP3    H155262   6.449   1.058  11.742 -1.2860 -1.3936  0.5755
11257TIP3    H255263   6.343   1.149  11.682 -0.9267 -0.5883  1.1561
11258TIP3   OH255264   3.542   0.286   3.033  0.2633  0.2662  0.3088
11258TIP3    H155265   3.479   0.237   2.981  0.4614  0.9219 -0.5656
11258TIP3    H255266   3.620   0.231   3.035 -0.5348 -0.9041  2.0342
11259TIP3   OH255267   5.758   4.751  11.259  0.0545 -0.1020 -0.1024
11259TIP3    H155268   5.809   4.808  11.317  0.2638  0.1811 -0.5547
11259TIP3    H255269   5.812   4.744  11.180 -1.3066  1.5326 -1.2496
11260TIP3   OH255270   0.972   6.613  13.934  0.3679 -0.7320 -0.4815
11260TIP3    H155271   0.892   6.662  13.917 -0.3330 -1.4942  0.5249
11260TIP3    H255272   0.997   6.577  13.849 -0.6890 -0.9884 -0.6964
11261TIP3   OH255273   1.791   2.627  16.361 -0.2308  0.2695  0.3505
11261TIP3    H155274   1.799   2.687  16.435 -1.4398  0.7057  0.1420
11261TIP3    H255275   1.845   2.666  16.292  0.0970  0.3809  0.6714
11262TIP3   OH255276   1.035   4.374   5.211  0.2518  0.0414 -0.0348
11262TIP3    H155277   0.990   4.298   5.175  1.3118 -0.0721 -1.1878
11262TIP3    H255278   1.024   4.443   5.145  3.5045 -0.6012 -1.4590
11263TIP3   OH255279   3.193   4.164   5.843  0.4543  0.0115 -0.7177
11263TIP3    H155280   3.160   4.082   5.806 -0.5674  1.2808 -2.7869
11263TIP3    H255281   3.115   4.218   5.855  0.9172  0.2198  2.0709
11264TIP3   OH255282   4.622   0.577   3.165  0.0080  0.5331 -0.3226
11264TIP3    H155283   4.546   0.571   3.107  0.3356 -2.4369 -0.6189
11264TIP3    H255284   4.592   0.538   3.248  1.0734 -0.3901 -0.3463
11265TIP3   OH255285   0.588   3.127  13.719 -0.0750 -0.3788  0.2776
11265TIP3    H155286   0.553   3.082  13.796 -1.3314  1.3897  0.8008
11265TIP3    H255287   0.658   3.069  13.687 -1.0594 -2.2683  1.3631
11266TIP3   OH255288   4.398   1.214  11.118 -0.0391  0.6170 -0.2541
11266TIP3    H155289   4.310   1.177  11.128  0.5728 -0.3874  1.9036
11266TIP3    H255290   4.436   1.165  11.044 -0.7170 -0.1418 -0.1174
11267TIP3   OH255291   4.530   2.124   5.916  0.0799 -0.1591  0.2463
11267TIP3    H155292   4.505   2.087   6.001 -3.4695 -0.5445 -0.8030
11267TIP3    H255293   4.596   2.190   5.938  0.2076 -1.0629  3.1266
11268TIP3   OH255294   3.555   5.862   2.451  1.2602  0.8280 -0.3961
11268TIP3    H155295   3.527   5.770   2.454  1.5207  0.7604  1.9632
11268TIP3    H255296   3.503   5.901   2.381 -1.7808 -0.2446  1.1153
11269TIP3   OH255297   5.666   3.855   4.266  0.3156  0.2536  0.0111
11269TIP3    H155298   5.611   3.777   4.254 -0.8711  1.0266  0.2398
11269TIP3    H255299   5.753   3.820   4.283 -0.2045 -1.0328  0.1966
11270TIP3   OH255300   0.488   5.281  15.862  0.5955 -0.6867  0.0931
11270TIP3    H155301   0.472   5.335  15.785  1.3136 -3.3856 -2.1124
11270TIP3    H255302   0.575   5.309  15.893 -0.5744  1.8809  1.3710
11271TIP3   OH255303   5.673   4.373   0.020 -0.0998 -0.2010  0.1280
11271TIP3    H155304   5.597   4.357  -0.036  1.1109 -0.8785 -1.4294
11271TIP3    H255305   5.697   4.286   0.053 -1.6153  0.3427  2.9414
11272TIP3   OH255306   1.122   0.296   2.420 -0.5149 -0.1098 -0.1633
11272TIP3    H155307   1.100   0.386   2.444  0.9253 -0.1749  1.6283
11272TIP3    H255308   1.072   0.242   2.482 -0.0417 -0.4706 -0.0883
11273TIP3   OH255309   0.203   1.571   5.221 -0.2920  0.5590  0.1492
11273TIP3    H155310   0.249   1.488   5.210 -1.2912  0.0240 -0.1640
11273TIP3    H255311   0.121   1.559   5.172 -1.0507  1.2391  1.2087
11274TIP3   OH255312   1.533   3.154  13.219 -0.1943 -0.1474  0.3516
11274TIP3    H155313   1.440   3.177  13.218 -0.1620  0.1020 -1.7883
11274TIP3    H255314   1.574   3.223  13.272 -1.1940 -0.1830  1.2019
11275TIP3   OH255315   1.564   6.081  14.621  1.1138 -0.0869  0.3991
11275TIP3    H155316   1.635   6.049  14.676 -0.0593 -1.0031  1.4656
11275TIP3    H255317   1.577   6.036  14.537  0.9878 -1.4004  1.0517
11276TIP3   OH255318   1.377   4.861  17.090  0.2098 -0.2338  0.4558
11276TIP3    H155319   1.395   4.955  17.082 -1.1616  0.1317  1.2864
11276TIP3    H255320   1.282   4.856  17.099  0.4293 -1.5257  2.6909
11277TIP3   OH255321   3.931   1.351   5.548  0.4610 -0.2020 -0.2615
11277TIP3    H155322   3.845   1.351   5.590  0.1446  1.2688 -0.8297
11277TIP3    H255323   3.985   1.409   5.602  0.6685  0.0115 -0.6867
11278TIP3   OH255324   4.275   2.684  17.143 -0.2951 -0.5195  0.3835
11278TIP3    H155325   4.329   2.629  17.200 -1.3072 -0.7398  1.1698
11278TIP3    H255326   4.241   2.752  17.201  2.7328  2.4597 -0.9514
11279TIP3   OH255327   4.888   4.461  15.846  0.0354  0.6125 -0.2292
11279TIP3    H155328   4.936   4.490  15.924 -0.8472 -0.2719  0.6533
11279TIP3    H255329   4.940   4.496  15.773  2.5918 -1.0736  0.6356
11280TIP3   OH255330   3.490   4.214  16.014 -0.0520 -0.3276 -0.2423
11280TIP3    H155331   3.549   4.152  15.971  1.7568  0.2863  1.2223
11280TIP3    H255332   3.494   4.190  16.107 -2.3273 -0.3936 -0.1222
11281TIP3   OH255333   5.504   4.637   0.895 -0.5619 -0.0948  0.8517
11281TIP3    H155334   5.511   4.655   0.989  1.8526  1.1408  0.5170
11281TIP3    H255335   5.518   4.722   0.853  0.7580 -0.9814 -0.6341
11282TIP3   OH255336   3.131   0.458  12.347 -0.1511  0.3067 -0.0430
11282TIP3    H155337   3.126   0.363  12.362 -0.0348  0.1744 -0.7876
11282TIP3    H255338   3.072   0.496  12.412 -0.4557 -0.2991  0.0414
11283TIP3   OH255339   6.701   5.643  11.829 -0.1879  0.3516  0.1704
11283TIP3    H155340   6.637   5.698  11.875 -0.3896 -0.0598  0.3895
11283TIP3    H255341   6.727   5.578  11.894  0.7990  0.7876  0.2244
11284TIP3   OH255342   6.045   3.753   3.430 -0.1192 -0.2398 -0.5070
11284TIP3    H155343   6.016   3.662   3.432  1.2497 -0.7080  1.8151
11284TIP3    H255344   6.127   3.750   3.380  2.0329 -1.1093  2.7855
11285TIP3   OH255345   2.437   6.278  13.225 -0.2932 -0.3244 -0.1045
11285TIP3    H155346   2.483   6.282  13.309 -1.0213  2.1837  0.2577
11285TIP3    H255347   2.344   6.283  13.248 -0.5127  0.1179 -1.0315
11286TIP3   OH255348   2.445   5.993   0.227  0.0527  0.4346  0.1093
11286TIP3    H155349   2.409   5.977   0.315  0.7363  1.4395  0.5942
11286TIP3    H255350   2.419   5.916   0.176 -1.8011  0.6014  0.7258
11287TIP3   OH255351   1.052   6.446  13.115  0.2128 -0.4878  0.4323
11287TIP3    H155352   0.979   6.404  13.070  0.2962  0.5978 -0.7516
11287TIP3    H255353   1.031   6.435  13.208 -0.9660 -1.0226  0.1282
11288TIP3   OH255354   0.539   0.975  12.278 -0.5125 -0.5144 -0.4389
11288TIP3    H155355   0.515   0.924  12.356  3.3977 -1.8449  0.1176
11288TIP3    H255356   0.609   1.032  12.308  0.6107 -0.5501 -2.8279
11289TIP3   OH255357   0.814   4.550  14.819 -0.0272 -0.1447  0.4415
11289TIP3    H155358   0.794   4.514  14.733  0.0799 -1.5777  0.9897
11289TIP3    H255359   0.736   4.533  14.871  0.1261  0.1947  0.7865
11290TIP3   OH255360   3.647   4.413   2.890 -0.3056 -0.3831  0.1005
11290TIP3    H155361   3.610   4.332   2.855 -1.1985 -0.2982  0.8110
11290TIP3    H255362   3.649   4.473   2.815 -1.1105 -0.5653 -0.0779
11291TIP3   OH255363   6.169   2.894  14.381 -0.2068 -0.2369  0.1428
11291TIP3    H155364   6.087   2.943  14.378 -0.5660 -0.8373 -0.1093
11291TIP3    H255365   6.144   2.805  14.357  0.0837 -1.0268  2.4690
11292TIP3   OH255366   5.232   1.417   5.605 -0.2754  0.0872  0.0020
11292TIP3    H155367   5.303   1.477   5.631 -0.2171 -0.1909  0.4908
11292TIP3    H255368   5.153   1.456   5.643 -0.1450 -0.4904  0.8850
11293TIP3   OH255369   5.233   5.059   1.160  0.4156 -0.6987 -0.4659
11293TIP3    H155370   5.194   4.972   1.167 -0.9430 -0.1207 -0.4878
11293TIP3    H255371   5.170   5.118   1.202  0.4827  0.4954 -1.9300
11294TIP3   OH255372   2.465   4.862  16.185 -0.0284 -0.0430  0.2813
11294TIP3    H155373   2.503   4.892  16.267 -0.8956 -1.2214  1.1510
11294TIP3    H255374   2.484   4.768  16.181  1.5819  0.2943 -1.7775
11295TIP3   OH255375   4.050   1.390   6.048  0.2037 -0.0863 -0.3510
11295TIP3    H155376   4.115   1.360   6.112 -0.0247  0.6284  0.2252
11295TIP3    H255377   3.968   1.348   6.075 -0.1124  0.9856  0.4453
11296TIP3   OH255378   1.873   0.127   5.565  0.0712 -0.3665  0.2002
11296TIP3    H155379   1.968   0.123   5.574  0.2381  1.9620  0.0101
11296TIP3    H255380   1.840   0.100   5.651  0.8706 -1.4379  0.1920
11297TIP3   OH255381   3.667   4.593   3.780  0.0069  0.3168  0.0682
11297TIP3    H155382   3.618   4.620   3.857  0.2543  2.6813 -0.5189
11297TIP3    H255383   3.756   4.624   3.796  0.3904 -0.3938 -0.5905
11298TIP3   OH255384   2.369   5.429   1.604  0.0261  0.3304  0.2207
11298TIP3    H155385   2.421   5.457   1.679  0.4287 -0.7140  0.3495
11298TIP3    H255386   2.302   5.371   1.641 -0.5463  0.7778 -0.0851
11299TIP3   OH255387   3.888   4.161   1.897 -0.5911  0.2859  0.1389
11299TIP3    H155388   3.888   4.161   1.993  1.6368 -0.2765  0.2011
11299TIP3    H255389   3.863   4.250   1.874  4.2271  2.3875  1.5090
11300TIP3   OH255390   3.556   0.188  16.879 -0.5906 -0.4189  0.5624
11300TIP3    H155391   3.579   0.250  16.948 -1.4459 -0.9544  1.3481
11300TIP3    H255392   3.499   0.238  16.820 -0.5919 -0.2206  0.7323
11301TIP3   OH255393   2.954   1.555   1.571 -0.5184  0.5327  0.2173
11301TIP3    H155394   3.046   1.562   1.547 -0.6077 -1.2278 -0.8354
11301TIP3    H255395   2.933   1.639   1.611  1.9603  0.4071  1.9935
11302TIP3   OH255396   5.178   4.653  13.121 -0.3710 -0.1362  0.1802
11302TIP3    H155397   5.215   4.733  13.084  1.9566 -0.5549  1.4699
11302TIP3    H255398   5.216   4.582  13.069  0.2330 -0.5486  1.1594
11303TIP3   OH255399   5.674   5.454   1.648 -0.4422 -0.5800 -0.2483
11303TIP3    H155400   5.717   5.379   1.689 -0.9865 -0.3813  0.7277
11303TIP3    H255401   5.596   5.469   1.701  0.7476  2.0517  0.9757
11304TIP3   OH255402   2.999   1.211  16.434 -0.2753 -0.3958 -0.0681
11304TIP3    H155403   3.080   1.220  16.483 -1.5000  1.4248  1.7884
11304TIP3    H255404   2.962   1.127  16.463  0.8545 -1.2146 -0.8938
11305TIP3   OH255405   2.906   5.773   6.006  0.0780 -0.5790 -0.4443
11305TIP3    H155406   2.961   5.757   6.083 -1.6650 -1.1921  0.7375
11305TIP3    H255407   2.831   5.823   6.040 -0.3212 -0.1480 -1.9017
11306TIP3   OH255408   5.133   2.881   0.414 -0.2002 -0.1570 -0.0862
11306TIP3    H155409   5.052   2.868   0.462  1.3584  1.1981  3.2716
11306TIP3    H255410   5.202   2.864   0.478  2.1435  0.7649 -2.1771
11307TIP3   OH255411   5.129   1.185   5.486 -0.0157  0.1036 -0.4737
11307TIP3    H155412   5.144   1.278   5.505 -0.7905  0.0097  0.6793
11307TIP3    H255413   5.034   1.177   5.481  0.0758 -0.3528 -2.1346
11308TIP3   OH255414   4.696   5.448   2.576  0.0953  0.5119 -0.3419
11308TIP3    H155415   4.702   5.474   2.668  0.5754 -1.1070  0.1171
11308TIP3    H255416   4.608   5.410   2.568  0.8843 -1.5943  0.1314
11309TIP3   OH255417   4.587   1.987  10.346  0.2377  0.3653 -0.6539
11309TIP3    H155418   4.503   1.957  10.311  0.3826  0.2093 -0.8697
11309TIP3    H255419   4.625   1.910  10.387  0.2022  0.4754 -0.4152
11310TIP3   OH255420   3.433   5.054  14.121 -0.0170 -0.7271  0.7831
11310TIP3    H155421   3.367   5.068  14.189 -0.7131 -1.6911  0.3246
11310TIP3    H255422   3.433   5.135  14.071 -0.7277 -0.6482  0.9021
11311TIP3   OH255423   2.520   5.013  16.429  0.3540 -0.3942 -0.2465
11311TIP3    H155424   2.537   5.106  16.440 -0.3857 -0.3608  0.9205
11311TIP3    H255425   2.605   4.971  16.441  0.7939  0.1583 -1.3607
11312TIP3   OH255426   6.311   4.682  16.521  0.7279  0.0739  0.0730
11312TIP3    H155427   6.240   4.639  16.569  0.1531  0.7843 -0.1373
11312TIP3    H255428   6.312   4.638  16.436 -0.3867  0.9864 -0.4338
11313TIP3   OH255429   2.976   5.894   0.806 -0.1464  0.7189  0.2538
11313TIP3    H155430   2.969   5.990   0.802  0.8924  0.7733 -1.1828
11313TIP3    H255431   3.065   5.878   0.838  0.1613  0.2572 -0.7924
11314TIP3   OH255432   0.908   5.343  16.778  0.1005  0.8455 -0.3494
11314TIP3    H155433   0.973   5.306  16.718 -1.0255  0.2438 -1.2571
11314TIP3    H255434   0.865   5.266  16.817 -0.5321  1.2127 -0.3083
11315TIP3   OH255435   4.699   0.101  16.284 -0.3910 -0.3306 -0.6380
11315TIP3    H155436   4.644   0.065  16.353 -0.2077 -1.2653 -0.9653
11315TIP3    H255437   4.644   0.101  16.206 -0.3186 -0.0936 -0.6929
11316TIP3   OH255438   2.991   6.710   1.385  0.0649  0.2045 -0.3827
11316TIP3    H155439   3.002   6.794   1.431 -2.9790  1.2027 -1.2529
11316TIP3    H255440   2.961   6.650   1.453  2.9329 -0.5304  0.4039
11317TIP3   OH255441   6.610   3.957   0.082 -0.4145 -0.6474  0.1022
11317TIP3    H155442   6.645   3.897   0.017  1.6003  1.3752 -0.8050
11317TIP3    H255443   6.657   3.936   0.162  1.0849  0.3822 -0.4814
11318TIP3   OH255444   5.486   5.070   1.322 -0.1766 -0.2163 -0.2297
11318TIP3    H155445   5.551   5.096   1.256  0.0222  1.0537  0.4354
11318TIP3    H255446   5.402   5.079   1.278  0.0379 -1.2050 -0.8806
11319TIP3   OH255447   5.292   5.593   2.887 -0.3691 -0.1815  0.0134
11319TIP3    H155448   5.347   5.521   2.917  1.8724  0.8008 -1.4556
11319TIP3    H255449   5.284   5.651   2.963  1.7937  0.2973 -0.0691
11320TIP3   OH255450   2.951   0.359   3.935 -0.0225  0.4575 -0.2217
11320TIP3    H155451   2.895   0.434   3.915 -0.6978 -0.5484 -2.3636
11320TIP3    H255452   3.034   0.378   3.892  0.0672  0.3137 -0.1146
11321TIP3   OH255453   0.823   3.190  15.843  0.2255 -0.7360  0.5821
11321TIP3    H155454   0.866   3.253  15.900 -2.6886  2.6590 -0.6000
11321TIP3    H255455   0.822   3.231  15.757 -1.0995 -2.7848 -0.4760
11322TIP3   OH255456   4.198   5.225   3.076  0.0526  0.2207 -0.3320
11322TIP3    H155457   4.211   5.136   3.107 -0.0929  0.0864 -0.6556
11322TIP3    H255458   4.103   5.231   3.059  0.1434  0.2584 -0.8451
11323TIP3   OH255459   3.374   2.087   3.995 -0.6227  0.6285 -0.4626
11323TIP3    H155460   3.338   2.097   3.907 -0.3662 -2.0729 -0.9425
11323TIP3    H255461   3.298   2.096   4.053 -1.1546  0.3271 -1.0972
11324TIP3   OH255462   0.702   1.457  13.696 -0.0117 -0.2536  0.2017
11324TIP3    H155463   0.761   1.471  13.622 -0.4669 -0.5574 -0.2268
11324TIP3    H255464   0.622   1.422  13.657  0.1369 -1.4973  0.9435
11325TIP3   OH255465   1.490   4.219  13.823 -0.4691 -0.3020 -0.2022
11325TIP3    H155466   1.492   4.257  13.735 -1.6619  0.6500  0.1470
11325TIP3    H255467   1.397   4.202  13.839 -0.0979 -2.0481  0.2417
11326TIP3   OH255468   6.702   2.440  14.624 -0.2126 -0.0316 -0.0892
11326TIP3    H155469   6.776   2.408  14.676  0.3054  2.2489  0.6989
11326TIP3    H255470   6.654   2.361  14.599  1.3778 -1.4300  1.0699
11327TIP3   OH255471   6.043   1.629   0.981 -0.4691 -0.4126 -0.1166
11327TIP3    H155472   6.084   1.641   1.067 -0.1563 -1.0674 -0.1681
11327TIP3    H255473   6.021   1.717   0.952  0.5079 -0.0881  0.1075
11328TIP3   OH255474   4.116   4.336  13.203  0.1312 -0.4073 -0.2394
11328TIP3    H155475   4.125   4.249  13.166 -0.4080 -0.7600  0.4370
11328TIP3    H255476   4.118   4.322  13.298 -0.0969  0.2964 -0.1253
11329TIP3   OH255477   3.111   2.732   0.164  0.0072  0.5350 -0.3294
11329TIP3    H155478   3.199   2.768   0.156  0.4455  0.1248  1.9465
11329TIP3    H255479   3.113   2.680   0.245 -2.7496  1.8245  0.7168
11330TIP3   OH255480   3.964   5.385   1.292  0.1034 -0.0506  0.1985
11330TIP3    H155481   4.059   5.389   1.304  0.2088 -0.5795 -0.3767
11330TIP3    H255482   3.949   5.424   1.206 -0.2978  0.8329  0.6591
11331TIP3   OH255483   0.705   2.872  12.198 -0.3361  0.1345 -0.2551
11331TIP3    H155484   0.616   2.844  12.177 -0.3983 -1.6386  1.9020
11331TIP3    H255485   0.760   2.826  12.134 -0.8668 -0.0639 -0.5799
11332TIP3   OH255486   2.516   2.133  12.142 -0.0488 -0.1116 -0.1446
11332TIP3    H155487   2.582   2.075  12.180  0.4094  0.4627 -0.0618
11332TIP3    H255488   2.552   2.158  12.057 -0.4747 -0.3446 -0.3965
11333TIP3   OH255489   2.167   1.186  15.703  0.4527  0.2822  0.3298
11333TIP3    H155490   2.195   1.268  15.662  0.3530  0.3302  0.3568
11333TIP3    H255491   2.094   1.211  15.760  1.8092  0.5449  2.0413
11334TIP3   OH255492   5.886   1.320   5.103 -0.0288  0.3810  0.3071
11334TIP3    H155493   5.933   1.237   5.111 -2.0692 -0.8988 -0.2470
11334TIP3    H255494   5.955   1.387   5.106  1.7069 -1.3175  0.4392
11335TIP3   OH255495   2.387   2.272  11.847  0.6438  0.2899  0.3062
11335TIP3    H155496   2.478   2.243  11.858  0.2144 -0.8506  1.0072
11335TIP3    H255497   2.375   2.337  11.917  1.0156  0.7027 -0.0075
11336TIP3   OH255498   1.649   1.570  15.802  0.3132 -0.3560 -0.4378
11336TIP3    H155499   1.595   1.574  15.881  0.5112 -0.6779 -0.2811
11336TIP3    H255500   1.609   1.501  15.749  0.1601 -0.1162 -0.6373
11337TIP3   OH255501   5.018   1.352   0.530 -0.1760 -0.1180  0.2080
11337TIP3    H155502   5.099   1.303   0.544 -0.8751 -1.3678  0.0590
11337TIP3    H255503   4.970   1.300   0.465 -1.3214  0.3096  0.6934
11338TIP3   OH255504   4.919   5.729  13.346 -0.1879  0.1952  0.0557
11338TIP3    H155505   4.905   5.814  13.387 -3.2422 -0.1826 -0.0082
11338TIP3    H255506   4.940   5.670  13.419  2.0276  0.9147  0.0893
11339TIP3   OH255507   5.707   0.460  12.168  0.1360 -0.7050 -0.1172
11339TIP3    H155508   5.660   0.478  12.249 -0.3694  0.0479 -0.5677
11339TIP3    H255509   5.800   0.465  12.192 -0.0097 -0.7951  0.4711
11340TIP3   OH255510   6.700   2.148  16.584  0.3752 -0.0953  0.7185
11340TIP3    H155511   6.679   2.055  16.587  0.5124 -0.0953  1.8367
11340TIP3    H255512   6.796   2.151  16.580  0.3904 -0.0648 -3.2159
11341TIP3   OH255513   1.065   1.445   4.457  0.2707 -0.0699  0.4971
11341TIP3    H155514   1.102   1.526   4.492 -0.2259  0.7124 -0.7160
11341TIP3    H255515   1.123   1.421   4.385  1.8794 -2.2236  2.3520
11342TIP3   OH255516   0.219   5.951   5.051 -0.1257  0.3326  0.1820
11342TIP3    H155517   0.314   5.961   5.041  0.0768 -0.6215  0.9520
11342TIP3    H255518   0.201   5.864   5.016 -1.0132  1.1753 -1.5971
11343TIP3   OH255519   5.587   3.994   1.794  0.0236 -0.2150 -0.1211
11343TIP3    H155520   5.503   3.948   1.794 -0.6232  0.9207 -0.4104
11343TIP3    H255521   5.636   3.954   1.722 -0.1702 -1.0452  0.2012
11344TIP3   OH255522   6.422   4.930  13.612 -0.5909 -0.1008  0.6724
11344TIP3    H155523   6.468   5.008  13.645 -1.5301  0.0629  1.6353
11344TIP3    H255524   6.385   4.959  13.528 -3.5730  1.5870  2.3738
11345TIP3   OH255525   2.230   5.347  17.168 -0.7107  0.2326 -0.0004
11345TIP3    H155526   2.137   5.366  17.175 -0.6373  0.4626  0.3513
11345TIP3    H255527   2.259   5.329  17.257 -0.5832 -0.6358 -0.2115
11346TIP3   OH255528   4.002   5.626  15.240 -0.3504  0.2301 -0.1631
11346TIP3    H155529   4.011   5.549  15.297 -0.8087  0.3282  0.0496
11346TIP3    H255530   3.992   5.590  15.152  1.6625  0.0974 -0.3966
11347TIP3   OH255531   5.997   5.127   2.607 -0.1788  0.1188 -0.3296
11347TIP3    H155532   5.923   5.124   2.546  0.2708 -2.5360 -0.8698
11347TIP3    H255533   6.023   5.035   2.618  2.1228  0.8399  0.9727
11348TIP3   OH255534   2.014   4.991   4.472  0.3070 -0.4047  0.9693
11348TIP3    H155535   2.035   5.032   4.556 -0.0848 -0.0419  0.8932
11348TIP3    H255536   2.058   5.047   4.407 -0.4588  0.0612  0.8449
11349TIP3   OH255537   0.931   3.980   3.031  0.1518 -0.3146 -0.2387
11349TIP3    H155538   0.845   3.978   3.074  0.0975  0.3862 -0.3081
11349TIP3    H255539   0.983   4.041   3.083 -0.1529  1.1288 -1.5879
11350TIP3   OH255540   3.855   1.213   4.919 -0.1720  0.7208  0.4604
11350TIP3    H155541   3.818   1.300   4.931  0.5389  0.7465  3.0700
11350TIP3    H255542   3.949   1.226   4.927  0.0715 -0.0716 -0.8788
11351TIP3   OH255543   2.353   5.849  12.809 -0.0734 -0.6584 -0.0378
11351TIP3    H155544   2.271   5.834  12.855 -0.2526 -0.2512 -0.2171
11351TIP3    H255545   2.376   5.764  12.771 -0.3028 -0.8196  0.1866
11352TIP3   OH255546   4.911   0.187  13.830 -0.3732  0.2456  0.1420
11352TIP3    H155547   4.977   0.247  13.863 -0.3886  0.4356 -0.1669
11352TIP3    H255548   4.867   0.153  13.908  1.7302 -1.8173  0.5473
11353TIP3   OH255549   5.567   3.492  14.463  0.5534  0.1018 -0.3946
11353TIP3    H155550   5.625   3.553  14.417  0.4478  0.7649  0.3314
11353TIP3    H255551   5.498   3.472  14.399  1.4731 -0.5719 -1.2163
11354TIP3   OH255552   3.691   3.090  15.446  0.3392 -0.6782  0.4594
11354TIP3    H155553   3.676   3.130  15.360 -1.4728 -1.1155  0.5381
11354TIP3    H255554   3.709   3.164  15.504 -0.4340 -0.2012  0.1008
11355TIP3   OH255555   5.237   5.222   2.666  0.4263  0.4706 -0.3935
11355TIP3    H155556   5.264   5.160   2.598 -0.1176  1.0082 -1.1059
11355TIP3    H255557   5.145   5.239   2.649 -0.3147 -0.9595  1.7133
11356TIP3   OH255558   1.014   6.680   1.962  0.0536  0.6080  0.3918
11356TIP3    H155559   0.944   6.619   1.940  0.5885  0.0445  0.2356
11356TIP3    H255560   1.048   6.649   2.047  0.4548  0.5649  0.2198
11357TIP3   OH255561   6.035   2.176   0.808 -0.0040 -0.1815 -0.7413
11357TIP3    H155562   6.009   2.262   0.842  1.2336 -0.2095  0.3794
11357TIP3    H255563   6.101   2.195   0.742  0.0261 -0.2591 -0.7339
11358TIP3   OH255564   5.121   6.661   4.515  0.2558  0.0919  0.3177
11358TIP3    H155565   5.066   6.629   4.587  1.6875 -0.7205  1.0938
11358TIP3    H255566   5.080   6.625   4.436 -0.8455  0.2876  0.7762
11359TIP3   OH255567   6.095   1.951  10.629 -0.0373  0.2538 -0.4809
11359TIP3    H155568   6.011   1.906  10.628 -0.3319  0.7949 -1.7145
11359TIP3    H255569   6.118   1.962  10.536  1.8963 -0.8097 -0.1939
11360TIP3   OH255570   4.257   0.430   4.535  0.1821 -0.0283  0.0959
11360TIP3    H155571   4.349   0.416   4.557 -0.2628  0.1016  2.2988
11360TIP3    H255572   4.239   0.520   4.564 -0.6516 -0.0762 -0.2342
11361TIP3   OH255573   1.548   2.682  16.561  0.5188  0.5107 -0.2400
11361TIP3    H155574   1.553   2.776  16.578  1.2339  0.1595  1.7559
11361TIP3    H255575   1.637   2.650  16.577  0.2546 -0.5370 -0.7617
11362TIP3   OH255576   4.639   1.542  11.211 -0.1856  0.0900 -0.3096
11362TIP3    H155577   4.695   1.464  11.216 -1.6547 -1.2113 -2.4152
11362TIP3    H255578   4.683   1.606  11.267  0.7854 -2.3887  2.0221
11363TIP3   OH255579   4.806   3.181   5.394 -0.2829 -0.0478  0.2108
11363TIP3    H155580   4.877   3.157   5.335 -0.1794 -0.5476  0.5434
11363TIP3    H255581   4.728   3.143   5.354 -0.3690  0.4978 -0.1524
11364TIP3   OH255582   0.520   6.765   6.731 -0.4160 -0.3798 -0.2415
11364TIP3    H155583   0.494   6.693   6.674 -1.1221  0.1913 -0.6521
11364TIP3    H255584   0.616   6.763   6.729 -0.4284 -0.7859 -0.9171
11365TIP3   OH255585   2.330   0.523   4.179  0.0727  0.0811 -0.3484
11365TIP3    H155586   2.420   0.542   4.153  0.7894 -1.9557  0.4095
11365TIP3    H255587   2.292   0.608   4.198  2.0265  0.9694 -0.1021
11366TIP3   OH255588   3.086   2.675  10.439 -0.2176 -0.3995  0.3313
11366TIP3    H155589   3.026   2.723  10.382 -0.4057 -1.0731 -0.0485
11366TIP3    H255590   3.115   2.600  10.387 -0.7831 -1.3112  1.2836
11367TIP3   OH255591   0.115   4.678   4.600 -0.4779 -0.3629  0.6880
11367TIP3    H155592   0.071   4.603   4.558 -2.6503  1.4793 -0.5444
11367TIP3    H255593   0.207   4.670   4.574 -0.7350 -2.3119  0.2148
11368TIP3   OH255594   2.920   4.869   1.774 -0.3889  0.5506  0.4184
11368TIP3    H155595   2.904   4.915   1.692  0.2018 -0.0702 -0.0623
11368TIP3    H255596   2.893   4.779   1.758  1.6090 -0.0695  0.2006
11369TIP3   OH255597   1.069   4.177   5.777  0.1583  0.1172 -0.0150
11369TIP3    H155598   1.033   4.172   5.688 -0.1087  1.2300  0.0169
11369TIP3    H255599   1.158   4.144   5.768 -0.6576 -2.1505 -0.1977
11370TIP3   OH255600   5.649   6.413   2.195 -0.1529  0.4450  0.0879
11370TIP3    H155601   5.598   6.413   2.114 -1.6412  0.0269  0.9854
11370TIP3    H255602   5.724   6.468   2.176 -2.4397  3.7101 -0.3824
11371TIP3   OH255603   5.314   1.415  11.689 -0.7637  0.6309  0.1270
11371TIP3    H155604   5.221   1.436  11.695 -0.8696 -0.2505  2.0010
11371TIP3    H255605   5.316   1.323  11.662 -0.3598  1.2426 -2.1764
11372TIP3   OH255606   3.678   0.619   0.732  0.0883  0.4506 -0.0206
11372TIP3    H155607   3.710   0.699   0.689 -1.6019  1.1209 -0.1121
11372TIP3    H255608   3.669   0.643   0.824 -2.6744  1.2090 -0.3927
11373TIP3   OH255609   5.804   5.014   2.376 -0.2568  0.0051 -0.3090
11373TIP3    H155610   5.800   4.947   2.308 -0.3786 -0.1614 -0.1387
11373TIP3    H255611   5.736   4.989   2.438 -0.0005  0.0381 -0.0153
11374TIP3   OH255612   6.516   5.738  13.237  0.7315  0.2854  0.1629
11374TIP3    H155613   6.600   5.771  13.267  0.5091  1.2120 -0.2041
11374TIP3    H255614   6.533   5.707  13.148  1.1375 -1.4452  0.7987
11375TIP3   OH255615   4.800   3.955   6.266  0.0345  0.1265  0.1893
11375TIP3    H155616   4.766   3.978   6.353 -1.3159  0.1280 -0.3156
11375TIP3    H255617   4.828   3.863   6.276 -0.2419  0.0812  0.5829
11376TIP3   OH255618   3.490   2.068  15.627 -0.1196 -0.5350 -0.7885
11376TIP3    H155619   3.580   2.037  15.638  0.4628  1.1632 -0.4330
11376TIP3    H255620   3.453   2.066  15.715 -0.5450 -1.5353 -0.9850
11377TIP3   OH255621   3.823   1.177   2.598  0.1461 -0.9151 -0.0646
11377TIP3    H155622   3.771   1.114   2.549 -0.0469 -0.4459 -0.4707
11377TIP3    H255623   3.792   1.169   2.688 -1.1624 -0.1210 -0.4271
11378TIP3   OH255624   4.005   1.925   3.560  0.2066 -0.6499  0.3257
11378TIP3    H155625   3.926   1.887   3.522  1.1280 -0.1260 -2.3653
11378TIP3    H255626   3.979   1.954   3.647 -2.0934 -1.9593  0.1391
11379TIP3   OH255627   1.882   1.447   1.512 -0.4256 -0.3775  0.0261
11379TIP3    H155628   1.837   1.530   1.496 -1.0247 -0.7221 -0.1229
11379TIP3    H255629   1.949   1.468   1.577 -1.1158  0.0513  0.6184
11380TIP3   OH255630   2.101   5.108   4.744  0.3196 -0.5648 -0.9751
11380TIP3    H155631   2.095   5.201   4.725  0.4298 -0.2449  0.4370
11380TIP3    H255632   2.193   5.086   4.732  0.5584 -0.1629  0.0095
11381TIP3   OH255633   2.005   2.626  13.049  0.3535 -0.7493  0.4849
11381TIP3    H155634   1.978   2.565  13.117  0.2847 -2.0933 -0.6834
11381TIP3    H255635   2.091   2.595  13.022  1.3017  1.0241  1.3585
11382TIP3   OH255636   6.149   0.107  12.223  0.3550  0.7707  0.1588
11382TIP3    H155637   6.215   0.122  12.291 -0.6323 -0.9052  1.5713
11382TIP3    H255638   6.199   0.085  12.145  1.4954  0.8392  0.8532
11383TIP3   OH255639   3.931   0.360  15.830 -0.2688 -0.4081 -0.0233
11383TIP3    H155640   3.918   0.289  15.893  0.9006  0.0708  0.7920
11383TIP3    H255641   3.849   0.364  15.781 -1.4868 -0.3487  1.9240
11384TIP3   OH255642   5.143   4.466   2.351  0.4468 -0.1468 -0.0640
11384TIP3    H155643   5.231   4.432   2.366  0.7663  0.6179 -0.2002
11384TIP3    H255644   5.113   4.421   2.272 -0.2722 -2.2880  1.3246
11385TIP3   OH255645   1.325   1.637  11.791  0.3611  0.1170  0.2552
11385TIP3    H155646   1.408   1.668  11.825  0.3911 -1.0899  1.3528
11385TIP3    H255647   1.290   1.711  11.740  2.1756  0.5653 -0.4014
11386TIP3   OH255648   6.266   5.334  15.544  0.2522 -0.2057  0.3140
11386TIP3    H155649   6.275   5.298  15.455  0.6935  0.8156 -0.0607
11386TIP3    H255650   6.296   5.263  15.601 -0.8042 -1.1850 -0.2899
11387TIP3   OH255651   5.625   4.097  12.190 -0.3204  0.0825 -0.5322
11387TIP3    H155652   5.687   4.091  12.263  0.7555  1.9293 -1.2455
11387TIP3    H255653   5.680   4.112  12.113 -1.5273 -0.5370 -1.5479
11388TIP3   OH255654   3.508   5.946   4.479 -0.0508  0.0270 -0.0322
11388TIP3    H155655   3.546   5.978   4.560 -0.5438  1.6815 -0.4135
11388TIP3    H255656   3.576   5.892   4.440  1.1341  1.2171  0.3052
11389TIP3   OH255657   5.419   0.508  13.029  0.4223 -0.5448 -0.0619
11389TIP3    H155658   5.491   0.453  12.998  1.1328 -0.5454  1.4518
11389TIP3    H255659   5.461   0.592  13.052 -0.5685  0.5241 -1.9281
11390TIP3   OH255660   1.509   6.342  11.731  0.1499  0.1487 -0.1256
11390TIP3    H155661   1.568   6.268  11.742  1.6130  1.3432  0.4386
11390TIP3    H255662   1.511   6.361  11.637  0.7372  0.2346 -0.0964
11391TIP3   OH255663   2.491   4.620  15.213 -0.2285 -0.5134 -0.2429
11391TIP3    H155664   2.500   4.651  15.303  2.4965 -0.8121 -0.3176
11391TIP3    H255665   2.527   4.692  15.160 -2.0448 -0.2270 -1.1495
11392TIP3   OH255666   0.715   3.652   1.216  0.4660  0.2724 -0.3787
11392TIP3    H155667   0.771   3.616   1.147  1.2878 -0.2516  0.5458
11392TIP3    H255668   0.717   3.746   1.202  2.5881  0.3875  0.3652
11393TIP3   OH255669   5.605   5.579   2.203  0.8716 -0.3594 -0.0393
11393TIP3    H155670   5.675   5.522   2.171  0.9518 -0.3401  0.1029
11393TIP3    H255671   5.551   5.522   2.257  0.1618 -0.6451 -1.0181
11394TIP3   OH255672   0.533   6.544   1.235  0.3327  0.4295 -0.0232
11394TIP3    H155673   0.574   6.490   1.302 -0.0036  0.5521  0.2846
11394TIP3    H255674   0.599   6.551   1.166  0.5915  0.1083  0.1914
11395TIP3   OH255675   1.150   1.445  14.985  0.1141 -0.0038 -0.1170
11395TIP3    H155676   1.118   1.437  14.895  1.8069  0.5833 -0.8149
11395TIP3    H255677   1.073   1.473  15.035 -1.0875 -1.2679 -1.1859
11396TIP3   OH255678   0.244   3.959   5.521  0.0244 -0.0243 -0.0958
11396TIP3    H155679   0.247   3.971   5.426 -2.2623  0.1337 -0.2009
11396TIP3    H255680   0.172   3.897   5.534 -0.9752  1.4202  1.6227
11397TIP3   OH255681   4.425   6.779  13.291 -0.2405  0.0362 -0.1144
11397TIP3    H155682   4.468   6.859  13.320 -0.5962  1.0855 -2.2514
11397TIP3    H255683   4.494   6.713  13.295  0.7744  1.0199 -0.6142
11398TIP3   OH255684   0.313   1.590  14.129  0.3316  0.0073 -0.2154
11398TIP3    H155685   0.300   1.672  14.177  0.4032  0.4610 -0.9563
11398TIP3    H255686   0.381   1.610  14.065 -2.2050  0.5279 -2.9819
11399TIP3   OH255687   2.547   5.405  11.051  0.2962 -0.1509  0.1008
11399TIP3    H155688   2.623   5.347  11.053 -0.1467 -0.8779 -1.7656
11399TIP3    H255689   2.560   5.460  10.974  0.4292  1.9127  1.5360
11400TIP3   OH255690   3.937   4.172   0.652  0.9948  0.3985  0.0890
11400TIP3    H155691   4.008   4.228   0.684  0.1915  1.1199  0.6801
11400TIP3    H255692   3.981   4.097   0.614  2.0697  0.1554  1.6797
11401TIP3   OH255693   4.472   4.972  12.627 -0.1105 -0.1140  0.4721
11401TIP3    H155694   4.425   5.049  12.595 -0.6764  0.2675  2.1319
11401TIP3    H255695   4.403   4.908  12.646  0.1659 -0.1658  1.3273
11402TIP3   OH255696   3.219   5.284  13.889  0.7213 -0.1252 -0.3210
11402TIP3    H155697   3.296   5.285  13.946 -0.7354  1.1754  1.7946
11402TIP3    H255698   3.234   5.354  13.826  0.4397  1.5415  1.3752
11403TIP3   OH255699   4.773   5.343  15.331  0.5587  0.3678 -0.4305
11403TIP3    H155700   4.687   5.303  15.335  0.9536 -0.4428  0.0910
11403TIP3    H255701   4.810   5.333  15.419  0.8932  1.3836 -0.4338
11404TIP3   OH255702   1.749   0.267   2.985  0.0080 -0.5979 -0.3179
11404TIP3    H155703   1.812   0.265   2.913  1.6897  0.0104  1.0609
11404TIP3    H255704   1.702   0.184   2.978 -0.0192 -0.4653 -2.2174
11405TIP3   OH255705   2.945   2.996   1.220  0.1260  0.0397 -0.7925
11405TIP3    H155706   2.855   3.025   1.232  0.5128  1.5673 -1.3343
11405TIP3    H255707   2.998   3.073   1.240  1.2923 -0.6957 -0.9574
11406TIP3   OH255708   6.016   0.996  14.450  0.2172 -0.1658 -0.7238
11406TIP3    H155709   6.026   0.961  14.539  1.2702  0.3652 -0.6135
11406TIP3    H255710   6.063   0.934  14.395  0.7468  0.2278 -0.7251
11407TIP3   OH255711   2.232   1.319   5.416 -0.3529  0.2728 -0.4195
11407TIP3    H155712   2.236   1.291   5.507 -1.3842  1.4014 -0.0034
11407TIP3    H255713   2.285   1.399   5.414 -1.3210  0.9264 -0.5250
11408TIP3   OH255714   4.965   3.542   1.128  0.2926 -0.4613  0.7757
11408TIP3    H155715   4.890   3.596   1.152  0.4880 -0.9378  2.5563
11408TIP3    H255716   5.041   3.598   1.142  0.3386 -0.2441 -0.2565
11409TIP3   OH255717   1.270   2.609  13.718 -0.0695 -0.1680 -0.9804
11409TIP3    H155718   1.273   2.528  13.666 -0.5529  0.1505 -1.5205
11409TIP3    H255719   1.256   2.579  13.808  0.6716 -0.7222 -1.0358
11410TIP3   OH255720   5.427   6.124   0.404 -0.6004  0.2516  0.2240
11410TIP3    H155721   5.455   6.036   0.380 -0.6582  0.3576 -0.2265
11410TIP3    H255722   5.451   6.132   0.497  0.0058  0.0042  0.0890
11411TIP3   OH255723   2.344   2.650   0.727  0.2701  0.2605  0.3786
11411TIP3    H155724   2.288   2.664   0.651 -0.3745  1.2745  1.0228
11411TIP3    H255725   2.430   2.632   0.690 -0.1068  0.4156 -0.6008
11412TIP3   OH255726   0.719   6.052  13.484  0.4456  0.1059  0.6164
11412TIP3    H155727   0.755   6.092  13.405  0.3595 -0.4586  0.2825
11412TIP3    H255728   0.684   5.968  13.454  0.4490 -0.1309  1.2618
11413TIP3   OH255729   1.714   3.742  14.351  0.5170 -0.0948  0.0004
11413TIP3    H155730   1.732   3.682  14.423  1.5263 -1.5658 -1.4032
11413TIP3    H255731   1.619   3.739  14.340  0.6023 -2.2231 -0.6144
11414TIP3   OH255732   3.983   0.820  16.493 -0.4952  0.1693  0.0537
11414TIP3    H155733   4.018   0.742  16.535  0.5662  0.1045 -0.9190
11414TIP3    H255734   4.010   0.813  16.401 -0.5304  1.5880 -0.0916
11415TIP3   OH255735   1.902   4.853   5.433  0.0755 -0.2733 -0.1383
11415TIP3    H155736   1.929   4.770   5.394  1.1082 -0.0969  0.1701
11415TIP3    H255737   1.957   4.861   5.512 -1.2131 -0.1162  0.7774
11416TIP3   OH255738   5.509   0.538  16.363 -0.3226 -0.5601  0.1886
11416TIP3    H155739   5.517   0.504  16.273 -1.7432 -0.6836  0.0868
11416TIP3    H255740   5.453   0.475  16.407 -0.1847 -0.1342  0.9814
11417TIP3   OH255741   0.404   3.721   1.668 -0.4957 -0.0148 -0.0498
11417TIP3    H155742   0.485   3.769   1.647 -0.7790  0.2726 -0.4982
11417TIP3    H255743   0.428   3.666   1.742 -0.0850  0.6169  0.2963
11418TIP3   OH255744   5.792   0.103  12.144 -0.4948 -0.1270  0.7451
11418TIP3    H155745   5.853   0.165  12.184  0.4862 -0.3188 -0.4178
11418TIP3    H255746   5.728   0.159  12.099 -0.8753  0.0604  1.4946
11419TIP3   OH255747   2.945   6.066   5.945 -0.0286  0.3059  0.1392
11419TIP3    H155748   3.007   6.023   6.004 -0.4341 -0.6728 -0.1207
11419TIP3    H255749   2.934   6.004   5.873 -1.2590  0.4736  0.1577
11420TIP3   OH255750   2.065   0.806   3.895  0.5338  0.4152 -0.2377
11420TIP3    H155751   2.105   0.724   3.925  2.1547  1.1196 -0.3337
11420TIP3    H255752   1.971   0.789   3.895  0.6944 -0.8079  1.6750
11421TIP3   OH255753   0.403   5.028   2.164 -0.4476 -0.1539 -0.1815
11421TIP3    H155754   0.414   5.039   2.069  0.1910  0.0586 -0.0845
11421TIP3    H255755   0.465   4.959   2.188  0.0279  0.3987  0.2171
11422TIP3   OH255756   1.166   4.762   0.718 -0.3405  0.0831  0.1559
11422TIP3    H155757   1.221   4.784   0.643 -0.6658  0.5904  0.0576
11422TIP3    H255758   1.077   4.767   0.684 -0.5475  1.3713  0.8165
11423TIP3   OH255759   2.767   4.346   1.874 -0.3107  0.0421 -0.2651
11423TIP3    H155760   2.820   4.276   1.912 -0.8497  0.4488  1.3504
11423TIP3    H255761   2.687   4.303   1.845  0.0713 -0.2683 -0.8648
11424TIP3   OH255762   4.831   6.765   4.386 -0.3148 -0.2445  0.0035
11424TIP3    H155763   4.834   6.672   4.366 -1.2780 -0.7612  1.9761
11424TIP3    H255764   4.921   6.789   4.408 -0.1459 -0.8523 -0.0148
11425TIP3   OH255765   4.006   5.480  13.431 -0.0484  0.0137  0.1276
11425TIP3    H155766   3.958   5.496  13.512 -2.0293 -2.0142 -0.5530
11425TIP3    H255767   4.014   5.385  13.425  0.6468  0.1411 -1.7213
11426TIP3   OH255768   5.806   0.354  11.879 -0.0444 -0.0272 -0.4031
11426TIP3    H155769   5.807   0.391  11.967  0.0383  0.8111 -0.7448
11426TIP3    H255770   5.730   0.295  11.878  0.3023 -0.5069  0.4031
11427TIP3   OH255771   2.762   2.762   3.114  0.0949  0.2479 -0.1882
11427TIP3    H155772   2.781   2.673   3.143  1.3563  0.2282 -1.0064
11427TIP3    H255773   2.739   2.753   3.021 -1.3407  0.6129  0.1030
11428TIP3   OH255774   6.444   6.091   5.783  0.1664 -0.1050  0.1310
11428TIP3    H155775   6.495   6.162   5.744 -1.9849  0.7529 -1.3026
11428TIP3    H255776   6.425   6.121   5.872 -0.1612  0.8319 -0.2448
11429TIP3   OH255777   1.890   4.568   1.356 -0.0856  0.8214  0.5371
11429TIP3    H155778   1.844   4.532   1.280 -0.8358  0.2578  1.2450
11429TIP3    H255779   1.966   4.613   1.319 -0.1118  0.0366 -0.5045
11430TIP3   OH255780   0.101   5.846  10.955 -0.0580 -0.0771  0.0279
11430TIP3    H155781   0.134   5.915  10.898 -0.9862  0.6653  0.3621
11430TIP3    H255782   0.016   5.878  10.986 -0.2479 -1.1122  0.6516
11431TIP3   OH255783   3.742   3.212  10.534  0.1362  0.0501 -0.1479
11431TIP3    H155784   3.736   3.299  10.575 -0.6907  0.1740 -0.5130
11431TIP3    H255785   3.820   3.217  10.478  0.9288  0.0748  0.9233
11432TIP3   OH255786   6.582   2.347  13.166 -0.2400  0.0436 -0.2211
11432TIP3    H155787   6.510   2.385  13.216 -0.3230 -1.4525  0.8862
11432TIP3    H255788   6.656   2.348  13.227 -0.4775 -2.2927  0.1937
11433TIP3   OH255789   6.698   6.439  16.642 -0.0150  0.6763  0.2769
11433TIP3    H155790   6.771   6.476  16.691 -0.4551 -0.4142  1.8253
11433TIP3    H255791   6.717   6.345  16.639 -2.2170  0.0714  2.3845
11434TIP3   OH255792   6.444   0.380   2.015 -0.5646 -0.0865  0.3004
11434TIP3    H155793   6.375   0.400   1.952 -0.6303 -1.0422  0.0430
11434TIP3    H255794   6.424   0.433   2.092 -1.4181 -0.1338  0.1140
11435TIP3   OH255795   3.377   2.955  17.152  0.5463  0.1518 -0.1662
11435TIP3    H155796   3.347   2.918  17.069  1.7814  1.9209 -1.4809
11435TIP3    H255797   3.302   3.005  17.184 -0.4412 -1.7239  0.6076
11436TIP3   OH255798   2.829   3.422  10.540 -0.2161 -0.7613  0.0541
11436TIP3    H155799   2.803   3.496  10.486 -0.2433 -1.2244 -0.5803
11436TIP3    H255800   2.922   3.437  10.558 -0.1356 -0.7544 -0.3666
11437TIP3   OH255801   1.795   4.004  16.095 -0.2887 -0.7638  0.5139
11437TIP3    H155802   1.850   4.060  16.040 -0.2120 -1.3344 -0.0022
11437TIP3    H255803   1.709   4.045  16.092 -0.8323 -1.8920 -1.7716
11438TIP3   OH255804   4.808   5.503  14.501 -0.3307  0.5127  0.3010
11438TIP3    H155805   4.877   5.534  14.441 -1.0284  3.0288  0.6588
11438TIP3    H255806   4.735   5.481  14.444 -0.0023  0.0306  0.0590
11439TIP3   OH255807   0.107   2.579  12.048 -0.5226  0.3731 -0.0815
11439TIP3    H155808   0.123   2.599  11.956  1.4057  0.7306  0.2962
11439TIP3    H255809   0.123   2.485  12.055 -2.6128 -0.0715 -0.4465
11440TIP3   OH255810   5.258   0.788  11.273 -0.4292 -0.2589  0.3891
11440TIP3    H155811   5.183   0.746  11.231 -1.9911  1.2083  1.5611
11440TIP3    H255812   5.244   0.882  11.258  0.1557  0.1519  2.2085
11441TIP3   OH255813   1.127   1.787  13.061 -0.4860  0.6657  0.1225
11441TIP3    H155814   1.177   1.868  13.051 -0.2574  1.0139  3.1304
11441TIP3    H255815   1.194   1.719  13.072 -0.6881  0.2059 -1.3285
11442TIP3   OH255816   3.771   3.876  12.403  0.1504 -0.2193 -0.7316
11442TIP3    H155817   3.850   3.859  12.352  1.0174  2.1007 -0.2830
11442TIP3    H255818   3.748   3.967  12.382 -1.5332 -0.3601  0.3021
11443TIP3   OH255819   3.607   3.556   1.368  0.2639  0.5714 -0.1711
11443TIP3    H155820   3.696   3.524   1.354  0.1990  0.4472 -0.2974
11443TIP3    H255821   3.594   3.623   1.301 -0.1583 -0.2434 -0.9170
11444TIP3   OH255822   0.466   5.740   6.019 -0.6609  0.4954 -0.7438
11444TIP3    H155823   0.481   5.791   5.940  0.7306  1.1503 -0.1015
11444TIP3    H255824   0.430   5.803   6.082  0.0055  0.4498 -0.2966
11445TIP3   OH255825   4.336   0.618   3.925 -0.2761  0.2689  0.2586
11445TIP3    H155826   4.268   0.615   3.857  0.5823 -0.1926 -0.5937
11445TIP3    H255827   4.333   0.531   3.965 -1.1038  0.6855  1.1767
11446TIP3   OH255828   0.936   2.890   5.682  0.3259  0.6119  0.1554
11446TIP3    H155829   0.935   2.815   5.741  1.1779  1.0512  0.7417
11446TIP3    H255830   1.014   2.939   5.706 -1.0907  2.6344  0.9729
11447TIP3   OH255831   2.308   0.468  15.011  0.3105  0.2682 -0.4123
11447TIP3    H155832   2.268   0.547  14.973  0.6927  0.1128 -1.1527
11447TIP3    H255833   2.401   0.488  15.012  0.3699 -0.0288 -0.2472
11448TIP3   OH255834   1.583   0.854   5.793 -0.3272  0.8909 -0.2148
11448TIP3    H155835   1.597   0.934   5.843 -0.6260  0.7346  0.1213
11448TIP3    H255836   1.657   0.798   5.814  0.1347  1.2548 -0.8156
11449TIP3   OH255837   4.201   4.251  15.218 -0.5637 -0.3997 -0.6286
11449TIP3    H155838   4.144   4.188  15.173 -0.0696 -1.5609  0.3199
11449TIP3    H255839   4.205   4.219  15.308  0.4113  0.5055 -0.3340
11450TIP3   OH255840   5.235   0.424   5.107  0.4990  0.1010 -0.5976
11450TIP3    H155841   5.150   0.419   5.064  0.0463  0.4406  0.2321
11450TIP3    H255842   5.296   0.384   5.045 -0.4507 -1.2147 -0.7183
11451TIP3   OH255843   4.814   0.787   5.751  0.2128  0.3733  0.4754
11451TIP3    H155844   4.809   0.816   5.841 -1.0187  0.8732  0.2603
11451TIP3    H255845   4.864   0.705   5.755 -0.4379  0.0164  1.6989
11452TIP3   OH255846   4.165   5.460   6.661  0.4967 -0.4602  0.3541
11452TIP3    H155847   4.255   5.468   6.694  1.4408 -0.4632 -1.9916
11452TIP3    H255848   4.173   5.405   6.583 -1.1835  1.2345 -1.1134
11453TIP3   OH255849   5.901   3.944  16.430 -0.1417 -0.7856  0.5230
11453TIP3    H155850   5.828   3.992  16.469  0.0067 -1.0304  1.1099
11453TIP3    H255851   5.899   3.858  16.471 -0.9666 -1.6320 -1.1802
11454TIP3   OH255852   4.037   5.812  16.550  0.5590  0.4678 -0.2506
11454TIP3    H155853   3.987   5.885  16.514 -1.0973 -1.2970 -1.7563
11454TIP3    H255854   4.112   5.803  16.490  0.5048  0.6389 -0.3440
11455TIP3   OH255855   0.286   4.614   0.369 -0.0819  0.0690  0.4268
11455TIP3    H155856   0.198   4.651   0.369  0.8793  2.6329  2.6907
11455TIP3    H255857   0.327   4.649   0.290 -0.8784 -0.7205 -0.3621
11456TIP3   OH255858   6.462   2.646   0.322 -0.1004 -0.1134 -0.5494
11456TIP3    H155859   6.412   2.648   0.240  0.4437 -0.2116 -0.8892
11456TIP3    H255860   6.504   2.560   0.322 -0.4828 -0.3090  0.0750
11457TIP3   OH255861   4.576   0.240   3.991 -0.3033 -0.1603  0.3469
11457TIP3    H155862   4.527   0.218   4.070  0.3233 -2.7065  0.1354
11457TIP3    H255863   4.658   0.278   4.023 -0.5299 -0.1199  0.8847
11458TIP3   OH255864   6.608   1.833  14.625 -0.3428  0.1968  0.2846
11458TIP3    H155865   6.646   1.802  14.543  1.8131  3.7047 -0.2406
11458TIP3    H255866   6.673   1.810  14.692 -0.2837  0.6526  0.3879
11459TIP3   OH255867   3.323   3.375  14.436  0.1998 -0.5989  0.5184
11459TIP3    H155868   3.263   3.412  14.371  1.1759 -0.0701 -0.0996
11459TIP3    H255869   3.287   3.289  14.456 -0.6685 -0.3597  0.0379
11460TIP3   OH255870   5.786   2.231   4.719  0.1762  0.8690 -0.6364
11460TIP3    H155871   5.699   2.220   4.758  0.9309 -2.4442  0.4049
11460TIP3    H255872   5.846   2.197   4.786  2.2001  1.8938 -1.8455
11461TIP3   OH255873   6.279   1.612  15.658  0.3458 -0.4037  0.1826
11461TIP3    H155874   6.228   1.580  15.733  0.8486 -1.0048  0.2729
11461TIP3    H255875   6.221   1.602  15.583 -0.6661  1.4160  0.6405
11462TIP3   OH255876   2.936   5.068  10.957  0.4121 -0.3448  0.3879
11462TIP3    H155877   2.956   5.010  11.030 -2.0982  0.2724  1.6730
11462TIP3    H255878   2.851   5.039  10.925 -0.5229  1.9890  0.5023
11463TIP3   OH255879   4.932   1.790   3.840 -0.1679 -0.0934  0.2293
11463TIP3    H155880   4.879   1.837   3.775 -1.9825 -0.2105  1.5223
11463TIP3    H255881   4.944   1.703   3.802  0.9603  0.5805 -1.0255
11464TIP3   OH255882   1.807   0.048  17.062 -1.1774  0.2422  0.2634
11464TIP3    H155883   1.792   0.052  17.156  0.4248  0.6260  0.5249
11464TIP3    H255884   1.890   0.092  17.049 -0.3744 -1.5316 -1.0860
11465TIP3   OH255885   6.628   0.011  16.483  0.5391 -0.0183  0.7021
11465TIP3    H155886   6.607   0.105  16.490 -0.1523  0.0758 -1.8470
11465TIP3    H255887   6.703  -0.000  16.541  0.4262  2.0349  1.3439
11466TIP3   OH255888   3.870   6.027  14.839 -0.0859 -0.3199 -0.4988
11466TIP3    H155889   3.899   5.940  14.867  3.1544  0.4998 -0.8684
11466TIP3    H255890   3.872   6.079  14.919  0.4970 -0.0342 -0.6896
11467TIP3   OH255891   4.879   1.689  14.557  0.9408 -0.0506 -0.2112
11467TIP3    H155892   4.938   1.697  14.483  0.9288 -1.2872 -0.3766
11467TIP3    H255893   4.797   1.729  14.528  1.6320  1.5691 -0.0192
11468TIP3   OH255894   2.389   2.460   4.646  0.5387 -0.7996 -0.6353
11468TIP3    H155895   2.482   2.444   4.631  0.9111 -2.2248  2.4106
11468TIP3    H255896   2.377   2.553   4.625  2.5947 -0.6366 -1.2911
11469TIP3   OH255897   0.452   6.041  17.039 -0.6579 -0.2192  0.3176
11469TIP3    H155898   0.504   5.986  16.980  1.6897  2.0773  0.0917
11469TIP3    H255899   0.505   6.050  17.117  0.7135  4.1787 -0.8279
11470TIP3   OH255900   2.693   1.286   2.748 -0.0903 -0.5882 -0.0877
11470TIP3    H155901   2.601   1.284   2.773  0.0850  3.3651  1.6148
11470TIP3    H255902   2.739   1.253   2.825  0.0132  2.3012  1.2039
11471TIP3   OH255903   6.671   6.125   0.461 -0.0483  0.3407  0.0704
11471TIP3    H155904   6.631   6.203   0.499  0.7607  0.0834  1.5173
11471TIP3    H255905   6.664   6.058   0.529  3.3258  0.4570  0.7306
11472TIP3   OH255906   1.871   6.338   3.595  0.3216  0.1277 -0.2405
11472TIP3    H155907   1.858   6.333   3.500 -0.2935  1.1156 -0.2274
11472TIP3    H255908   1.842   6.426   3.618 -2.2668 -1.0115  1.2836
11473TIP3   OH255909   5.341   1.697   2.210  0.0411 -0.3045  0.2619
11473TIP3    H155910   5.312   1.608   2.191 -2.0101  0.3979 -0.1448
11473TIP3    H255911   5.328   1.745   2.129  1.5797  0.2983  0.3334
11474TIP3   OH255912   5.565   2.845   2.082  0.0563 -0.0137  0.1032
11474TIP3    H155913   5.478   2.810   2.066 -0.4063  0.3613  1.6210
11474TIP3    H255914   5.599   2.794   2.156  1.7869 -1.2113 -1.4113
11475TIP3   OH255915   1.680   4.436   2.213 -0.0021 -0.4879 -0.7633
11475TIP3    H155916   1.672   4.454   2.306 -0.4035  2.8468 -1.3283
11475TIP3    H255917   1.623   4.361   2.197 -0.2883 -0.8141  1.5625
11476TIP3   OH255918   0.018   1.045  15.444 -0.0765 -0.3130 -0.4783
11476TIP3    H155919  -0.018   0.962  15.411  1.3550 -0.6086 -1.3619
11476TIP3    H255920   0.109   1.026  15.464 -0.3888  0.3650  1.9528
11477TIP3   OH255921   3.745   3.859  13.525 -0.1240  0.0900  0.3507
11477TIP3    H155922   3.799   3.909  13.586 -1.0266  0.9620  0.4742
11477TIP3    H255923   3.790   3.868  13.441 -0.8482  2.1631  0.1153
11478TIP3   OH255924   2.926   6.168   0.817 -0.6613  0.7141  0.4361
11478TIP3    H155925   2.977   6.245   0.794  0.2990  0.0893  0.4411
11478TIP3    H255926   2.878   6.194   0.896 -1.0958  1.6173 -0.1060
11479TIP3   OH255927   5.266   2.697   2.552 -0.1446  0.0913  0.0613
11479TIP3    H155928   5.227   2.780   2.523  0.1911  0.4307  0.5786
11479TIP3    H255929   5.299   2.715   2.640 -1.8729 -1.1463  1.0183
11480TIP3   OH255930   6.025   1.110   6.435  0.2340 -0.8639  0.0472
11480TIP3    H155931   6.109   1.091   6.395  0.5346 -0.9670  0.7250
11480TIP3    H255932   5.973   1.031   6.421 -0.0936 -0.4523 -1.2207
11481TIP3   OH255933   0.991   2.410   6.264 -0.0070 -0.0378 -0.0914
11481TIP3    H155934   1.041   2.486   6.293 -1.0193  0.7919 -0.4449
11481TIP3    H255935   1.055   2.352   6.223  0.8440  0.4204  0.5747
11482TIP3   OH255936   5.016   5.815  14.103  0.0752  0.1097  0.6532
11482TIP3    H155937   4.934   5.766  14.091 -1.2950  1.8993  2.1965
11482TIP3    H255938   5.054   5.820  14.015 -1.4212 -0.8367 -0.0848
11483TIP3   OH255939   4.929   2.275   3.106 -0.0051  0.8102 -0.2216
11483TIP3    H155940   4.891   2.361   3.126 -1.1310  0.0067  1.3741
11483TIP3    H255941   4.948   2.237   3.192  0.4485 -0.5466 -0.8953
11484TIP3   OH255942   0.145   1.512  11.986  0.4202 -0.2058 -0.0043
11484TIP3    H155943   0.084   1.438  11.980 -2.2445  1.7159  1.3024
11484TIP3    H255944   0.231   1.471  11.991 -0.9768 -3.2972  1.7289
11485TIP3   OH255945   0.525   5.495  13.382  0.3290 -0.5217 -0.2418
11485TIP3    H155946   0.523   5.507  13.476 -0.0943 -1.3496 -0.1385
11485TIP3    H255947   0.468   5.564  13.347  0.9021  0.1175  0.0531
11486TIP3   OH255948   3.692   0.287   3.500  0.0368  0.4463  0.1004
11486TIP3    H155949   3.776   0.334   3.508  0.2606  0.1590 -0.4671
11486TIP3    H255950   3.638   0.323   3.569  0.8887  0.0888  0.9787
11487TIP3   OH255951   5.574   2.222   4.895 -0.7292 -0.0039 -0.3118
11487TIP3    H155952   5.503   2.261   4.947 -0.4771  0.3496 -0.2275
11487TIP3    H255953   5.561   2.128   4.904 -1.5048  0.0584 -0.7370
11488TIP3   OH255954   5.580   1.984  15.322 -0.3891 -0.5022 -0.0962
11488TIP3    H155955   5.552   1.934  15.245 -0.4052  0.1359 -0.5121
11488TIP3    H255956   5.516   2.055  15.329  0.7159  0.5813 -0.6584
11489TIP3   OH255957   3.232   5.103  11.033  0.2965  0.9781  0.2094
11489TIP3    H155958   3.286   5.038  11.079 -0.3907  1.1479  1.2971
11489TIP3    H255959   3.207   5.060  10.951 -1.0583 -0.5959  1.3846
11490TIP3   OH255960   0.189   3.787  11.960 -0.5464 -0.0779 -0.5392
11490TIP3    H155961   0.146   3.803  11.876 -0.5326 -0.7990 -0.6855
11490TIP3    H255962   0.195   3.692  11.967  1.7868 -0.0179 -0.9038
11491TIP3   OH255963   4.109   6.604   0.069  0.5332 -0.6555 -0.6986
11491TIP3    H155964   4.069   6.521   0.095  1.0758 -1.2755 -1.7670
11491TIP3    H255965   4.090   6.611  -0.025  0.5010  0.4291 -0.6173
11492TIP3   OH255966   2.735   1.959  12.201 -0.2306 -0.1806 -0.6100
11492TIP3    H155967   2.712   1.868  12.219  0.7079 -0.3785 -0.3214
11492TIP3    H255968   2.824   1.968  12.236 -0.7885  1.1974  0.5154
11493TIP3   OH255969   2.429   3.519  14.477  0.0793 -0.2375 -0.1363
11493TIP3    H155970   2.365   3.503  14.408 -0.0033  1.0610 -0.3725
11493TIP3    H255971   2.408   3.606  14.510  1.2204 -0.1286  0.3420
11494TIP3   OH255972   3.585   6.501   4.243 -0.2614  0.0264  0.4727
11494TIP3    H155973   3.572   6.517   4.336 -1.5658 -1.4845  0.6020
11494TIP3    H255974   3.559   6.409   4.231  1.9884 -0.4986 -0.9881
11495TIP3   OH255975   1.766   3.826   4.629  0.1311 -0.4573  0.1652
11495TIP3    H155976   1.678   3.790   4.633 -0.3118  0.5544 -0.2294
11495TIP3    H255977   1.776   3.874   4.712  0.1938 -0.3148  0.0753
11496TIP3   OH255978   0.264   3.874  11.135  0.0115  0.6834 -0.4050
11496TIP3    H155979   0.204   3.933  11.091  0.2838 -0.0994 -1.8803
11496TIP3    H255980   0.307   3.928  11.201 -2.3956  1.2395  0.8299
11497TIP3   OH255981   0.259   0.473  13.683 -0.0338 -0.7368 -0.0264
11497TIP3    H155982   0.205   0.407  13.726 -0.7215  0.7194  1.4747
11497TIP3    H255983   0.196   0.532  13.641  0.4016  0.2880  0.7019
11498TIP3   OH255984   0.954   0.896  15.477 -0.0262 -0.4298 -0.4367
11498TIP3    H155985   0.871   0.859  15.449 -0.3653  0.8100 -1.1446
11498TIP3    H255986   0.996   0.924  15.396  1.3316 -1.4989 -0.1415
11499TIP3   OH255987   4.248   2.631   2.170  0.5487  0.6157  0.4469
11499TIP3    H155988   4.268   2.538   2.164  0.7064  0.7191 -1.1620
11499TIP3    H255989   4.153   2.636   2.159  0.5294  0.6405  0.6225
11500TIP3   OH255990   0.941   5.173   3.828  0.3762  0.2818 -0.0285
11500TIP3    H155991   0.855   5.194   3.863 -0.4325 -2.5229 -0.1388
11500TIP3    H255992   0.924   5.118   3.752  2.2491 -0.3145 -0.0828
11501TIP3   OH255993   5.481   2.169   2.579  0.0459 -0.0856 -0.0068
11501TIP3    H155994   5.440   2.192   2.662  1.6793  1.7157  0.3881
11501TIP3    H255995   5.463   2.076   2.567 -0.7893 -0.2284  2.0358
11502TIP3   OH255996   3.489   2.503   2.934  0.0988  0.0936  0.2348
11502TIP3    H155997   3.535   2.570   2.985  0.4936  0.8011 -1.0063
11502TIP3    H255998   3.537   2.498   2.852  0.2961 -2.0124  0.4190
11503TIP3   OH255999   4.720   2.004  14.204 -0.4448  0.0234  0.2077
11503TIP3    H156000   4.669   1.971  14.130 -1.9917 -0.1870  1.3283
11503TIP3    H256001   4.704   2.099  14.204 -1.7748 -0.1641  1.1837
11504TIP3   OH256002   2.633   3.466   1.353  0.1865 -0.1733  0.3301
11504TIP3    H156003   2.568   3.460   1.284 -0.5969  0.4911  0.9914
11504TIP3    H256004   2.697   3.529   1.321  0.2733 -0.4832 -0.1228
11505TIP3   OH256005   4.955   6.317   5.146  0.3340  0.1408 -0.0057
11505TIP3    H156006   4.968   6.300   5.240  0.0865  0.8595  0.1624
11505TIP3    H256007   4.998   6.243   5.103  1.3543  0.3281  0.6420
11506TIP3   OH256008   2.320   2.554   1.754  0.2504  0.2734 -0.1692
11506TIP3    H156009   2.234   2.594   1.747  0.9212  1.8827  0.2446
11506TIP3    H256010   2.341   2.558   1.847 -0.4061 -2.8186  0.2168
11507TIP3   OH256011   5.429   4.990   1.595 -0.2863  0.1537  0.1462
11507TIP3    H156012   5.438   5.031   1.508  0.3404 -1.2787 -0.5024
11507TIP3    H256013   5.337   5.003   1.618 -0.3360  1.0338 -0.4951
11508TIP3   OH256014   3.574   4.979  12.578 -0.0220 -0.9779  0.6258
11508TIP3    H156015   3.544   4.977  12.488  0.1180 -2.5483  0.5949
11508TIP3    H256016   3.670   4.983  12.572 -0.0405  1.0429  0.7389
11509TIP3   OH256017   1.396   2.368  16.081  0.2723 -0.7771  0.4891
11509TIP3    H156018   1.393   2.422  16.001  0.9700  0.4519  1.2566
11509TIP3    H256019   1.443   2.422  16.144  0.9432 -2.2881  1.3307
11510TIP3   OH256020   6.743   0.712  11.392 -0.0216  0.5013 -0.5800
11510TIP3    H156021   6.823   0.660  11.399 -0.8440 -0.7390 -0.1375
11510TIP3    H256022   6.725   0.740  11.482 -2.2937 -2.7312  0.1631
11511TIP3   OH256023   0.001   1.679  11.297  0.3235 -1.0618  0.1742
11511TIP3    H156024   0.040   1.683  11.385 -0.5607  0.6794  0.5307
11511TIP3    H256025   0.070   1.713  11.239 -0.5455  2.1708  0.8247
11512TIP3   OH256026   5.928   3.026  14.312 -0.0076  0.3686 -0.2274
11512TIP3    H156027   5.854   3.086  14.310  1.3104  2.0419 -0.1372
11512TIP3    H256028   5.897   2.952  14.365 -1.4139  1.2888  0.2730
11513TIP3   OH256029   0.411   0.370  12.968  0.3098  0.5993  0.5565
11513TIP3    H156030   0.391   0.289  12.920  1.6912 -0.7201  2.1047
11513TIP3    H256031   0.427   0.435  12.899 -4.2449  0.6183 -0.8117
11514TIP3   OH256032   0.182   1.770   4.331  0.2968  0.0305  0.3814
11514TIP3    H156033   0.216   1.683   4.349  0.0870 -0.7134 -2.3270
11514TIP3    H256034   0.103   1.755   4.278  0.7793  1.8390 -0.9631
11515TIP3   OH256035   2.537   5.500   5.254 -0.3366  0.3845  0.0535
11515TIP3    H156036   2.445   5.522   5.236 -0.7044 -0.3327  0.9891
11515TIP3    H256037   2.571   5.471   5.169 -1.4146 -0.8079 -0.0118
11516TIP3   OH256038   5.961   2.260  11.085 -0.0998  0.3597 -0.3618
11516TIP3    H156039   5.866   2.252  11.097  0.0344 -1.8897 -0.3366
11516TIP3    H256040   5.998   2.206  11.155  1.2328  1.4044 -0.2180
11517TIP3   OH256041   0.105   0.434   4.401  0.1672  0.6321 -0.3257
11517TIP3    H156042   0.190   0.418   4.442  0.6704  0.5087 -1.3821
11517TIP3    H256043   0.094   0.529   4.406  0.0518  0.5901  0.3967
11518TIP3   OH256044   5.088   0.554   1.350  0.2339 -0.2332  0.3639
11518TIP3    H156045   5.110   0.571   1.258  0.7240  1.4644  0.7650
11518TIP3    H256046   5.168   0.572   1.398  0.2588 -2.0362  1.0713
11519TIP3   OH256047   0.280   4.038  14.033  0.1662 -0.3411 -0.1744
11519TIP3    H156048   0.359   4.078  14.069  0.5278 -0.4371 -0.8362
11519TIP3    H256049   0.216   4.041  14.104  1.3896 -2.1681  1.0809
11520TIP3   OH256050   1.749   3.582  16.552  0.2003  0.0653 -0.2935
11520TIP3    H156051   1.679   3.632  16.595  1.7254  2.0897 -0.0160
11520TIP3    H256052   1.812   3.648  16.525  0.3951 -1.3190 -3.7291
11521TIP3   OH256053   3.783   4.301   6.107  0.3163  0.0673 -0.0282
11521TIP3    H156054   3.758   4.260   6.189 -1.3899 -2.7083 -1.7872
11521TIP3    H256055   3.710   4.359   6.085  0.7728  0.8106  0.3696
11522TIP3   OH256056   0.742   6.053  12.306  0.1007  0.0887 -0.5331
11522TIP3    H156057   0.764   5.969  12.266  0.6126 -0.6536  1.2127
11522TIP3    H256058   0.821   6.077  12.355 -0.9109  0.2621  1.0975
11523TIP3   OH256059   3.879   2.164   2.468  0.2449  0.1207 -0.1366
11523TIP3    H156060   3.849   2.243   2.513 -1.2038 -1.2704  1.4743
11523TIP3    H256061   3.847   2.175   2.378 -0.5605  1.0420  0.2444
11524TIP3   OH256062   4.514   1.239   1.279 -0.3433  0.2293  0.6908
11524TIP3    H156063   4.467   1.157   1.264  1.6587 -0.6724 -1.4179
11524TIP3    H256064   4.468   1.281   1.351 -2.4125 -1.9912  0.7894
11525TIP3   OH256065   3.754   5.909  14.231 -0.2491  0.3586 -0.4074
11525TIP3    H156066   3.804   5.973  14.180 -1.9175  0.8562 -1.4964
11525TIP3    H256067   3.664   5.939  14.224 -0.8220 -1.0113  0.7633
11526TIP3   OH256068   0.190   3.426   0.792  0.2195 -0.3392  0.0803
11526TIP3    H156069   0.248   3.487   0.747 -2.2584  2.7068  0.6589
11526TIP3    H256070   0.154   3.371   0.723 -0.4583  1.5671 -1.1687
11527TIP3   OH256071   5.047   6.263   1.218  0.3376  0.2707  0.0643
11527TIP3    H156072   5.012   6.207   1.287  1.3216 -1.1796 -0.5749
11527TIP3    H256073   5.133   6.291   1.251 -0.5264  2.2489  0.7955
11528TIP3   OH256074   6.261   1.116   0.273 -0.5917  0.6438  0.0705
11528TIP3    H156075   6.168   1.123   0.250 -0.2858  1.0093 -1.1026
11528TIP3    H256076   6.276   1.189   0.333 -0.6556  1.7207 -1.1790
11529TIP3   OH256077   4.335   4.146  16.750 -0.1562 -0.5541 -0.3503
11529TIP3    H156078   4.361   4.085  16.820  0.0862 -0.2436 -0.1700
11529TIP3    H256079   4.281   4.092  16.692 -0.7692 -0.6962  0.3287
11530TIP3   OH256080   3.534   0.094   1.572  0.3823 -0.0336 -0.2417
11530TIP3    H156081   3.597   0.155   1.611  1.0252 -0.0652 -1.2031
11530TIP3    H256082   3.475   0.072   1.644  0.4352  1.3243  0.2598
11531TIP3   OH256083   1.454   0.636  12.577  0.2192  0.0122  0.2519
11531TIP3    H156084   1.451   0.660  12.670  1.6968  0.9521  0.0906
11531TIP3    H256085   1.408   0.708  12.533 -0.7212 -0.5693  0.2549
11532TIP3   OH256086   1.935   1.580   0.458 -0.4342 -0.3705 -0.3399
11532TIP3    H156087   1.904   1.533   0.380  0.3448  1.1865 -1.6620
11532TIP3    H256088   1.856   1.599   0.508 -0.7468 -3.3041  0.4338
11533TIP3   OH256089   6.556   3.861  13.778  0.0225  0.0499 -0.4450
11533TIP3    H156090   6.524   3.774  13.756 -2.2924  1.0968 -1.6912
11533TIP3    H256091   6.582   3.899  13.694  0.2170  0.8262 -0.0457
11534TIP3   OH256092   6.486   6.169  13.524 -0.2251  0.3043 -0.3306
11534TIP3    H156093   6.488   6.233  13.453  2.1612  0.0472 -0.5819
11534TIP3    H256094   6.395   6.170  13.554 -0.8026  2.0452 -1.8901
11535TIP3   OH256095   0.338   3.852  14.930 -0.5989  0.4270 -0.2259
11535TIP3    H156096   0.260   3.903  14.909 -1.1747 -0.1324  0.5100
11535TIP3    H256097   0.340   3.851  15.026  0.7385  1.0733 -0.2266
11536TIP3   OH256098   3.558   3.388  13.225  0.4889  0.6591 -0.2469
11536TIP3    H156099   3.527   3.467  13.269 -0.8064  0.9243 -1.5345
11536TIP3    H256100   3.652   3.403  13.212  0.5352  1.3502  0.7653
11537TIP3   OH256101   1.676   0.908   1.485 -0.4716  0.2615 -0.4627
11537TIP3    H156102   1.703   0.998   1.472 -0.5605  0.2306 -0.8726
11537TIP3    H256103   1.595   0.900   1.435 -1.7464  0.5987  1.4289
11538TIP3   OH256104   2.789   4.352   5.532  0.3249 -0.2329 -0.5290
11538TIP3    H156105   2.868   4.405   5.521 -0.6458  1.4905  0.3827
11538TIP3    H256106   2.752   4.381   5.616 -1.0639 -1.2762 -0.7468
11539TIP3   OH256107   2.794   1.634  10.759  0.3134  0.6998  0.2769
11539TIP3    H156108   2.715   1.599  10.801 -0.0838  1.5143  0.2366
11539TIP3    H256109   2.796   1.593  10.673  0.1709  0.3502  0.4370
11540TIP3   OH256110   6.659   2.321   5.256  0.1822 -0.2858 -0.9819
11540TIP3    H156111   6.567   2.320   5.232 -0.0632  2.4268 -0.5047
11540TIP3    H256112   6.663   2.274   5.340 -1.2099  1.4183  0.1086
11541TIP3   OH256113   2.857   3.272   2.189 -0.8766 -0.1375  0.7128
11541TIP3    H156114   2.836   3.222   2.111 -0.6981 -0.3557  0.8032
11541TIP3    H256115   2.948   3.249   2.209 -1.0763 -0.4704  1.2674
11542TIP3   OH256116   5.205   3.872   4.838 -0.1963 -0.4141  0.1164
11542TIP3    H156117   5.153   3.952   4.832 -1.0737 -0.9565  0.2453
11542TIP3    H256118   5.295   3.902   4.849 -0.5706  0.5540  0.6319
11543TIP3   OH256119   2.709   4.034   0.854  0.0376  0.0649  0.0161
11543TIP3    H156120   2.647   4.092   0.897  0.1029  1.4885 -1.6885
11543TIP3    H256121   2.659   3.955   0.833 -1.4056  1.3887 -1.7975
11544TIP3   OH256122   6.004   1.676  12.843  0.1443  0.3944 -0.1938
11544TIP3    H156123   6.062   1.752  12.842 -0.6520  1.0119  0.3468
11544TIP3    H256124   5.926   1.705  12.890 -1.2260  0.0181 -2.1347
11545TIP3   OH256125   1.844   1.294  17.008 -0.5461 -0.2442 -0.2056
11545TIP3    H156126   1.850   1.351  17.085 -1.5599 -0.4336  0.0204
11545TIP3    H256127   1.924   1.242  17.011 -0.6978 -0.4385  0.8821
11546TIP3   OH256128   4.701   2.217   1.969  0.3845  0.1347 -0.2590
11546TIP3    H156129   4.643   2.266   1.910  0.3075 -1.0400 -1.2077
11546TIP3    H256130   4.771   2.185   1.912  1.5445  0.8389  0.7182
11547TIP3   OH256131   3.198   3.133  12.812 -0.3957  0.2325 -0.2250
11547TIP3    H156132   3.291   3.128  12.834  0.2607 -0.2955 -2.8073
11547TIP3    H256133   3.190   3.212  12.760 -0.4606 -1.8305 -3.6103
11548TIP3   OH256134   4.338   1.213   2.951 -0.2256 -0.5320  0.3481
11548TIP3    H156135   4.319   1.287   2.894  0.0208 -0.5034  0.3034
11548TIP3    H256136   4.278   1.145   2.923  0.8709 -1.0137 -0.9057
11549TIP3   OH256137   3.451   5.829   1.815  0.2424  0.1542 -0.2084
11549TIP3    H156138   3.476   5.757   1.872  0.5298  0.0045 -0.5199
11549TIP3    H256139   3.391   5.790   1.751  0.0669  0.2821 -0.1260
11550TIP3   OH256140   6.607   4.729   5.006  0.3263 -0.1055  0.5328
11550TIP3    H156141   6.665   4.796   4.970  0.0254  0.2724  0.7352
11550TIP3    H256142   6.525   4.741   4.958 -0.3720  0.9992  1.9226
11551TIP3   OH256143   1.128   2.015   4.646  0.3459 -0.0712  0.9448
11551TIP3    H156144   1.190   2.035   4.715  0.5477 -0.9951  1.0509
11551TIP3    H256145   1.103   1.924   4.662 -2.0465  0.6328  1.6791
11552TIP3   OH256146   3.597   3.247   4.690  0.1176 -0.1640 -0.8520
11552TIP3    H156147   3.531   3.313   4.672 -0.1165  0.1793  1.0810
11552TIP3    H256148   3.567   3.203   4.769  0.6438 -2.1164 -1.6636
11553TIP3   OH256149   1.850   0.127  10.792  0.3067 -0.5778 -0.2798
11553TIP3    H156150   1.805   0.048  10.823 -1.3904 -0.3780 -2.0006
11553TIP3    H256151   1.797   0.200  10.824  0.7890 -0.2222 -0.2791
11554TIP3   OH256152   6.442   6.662   1.221  0.2058 -0.0444  0.1225
11554TIP3    H156153   6.528   6.646   1.261 -0.4864 -2.3412  0.8366
11554TIP3    H256154   6.448   6.618   1.136 -0.3001 -0.2945  0.2171
11555TIP3   OH256155   2.735   4.709   4.376 -0.1906 -0.3208 -0.0436
11555TIP3    H156156   2.648   4.748   4.368 -0.1639 -0.4712 -1.1662
11555TIP3    H256157   2.733   4.633   4.318 -0.3828 -2.3126  2.3940
11556TIP3   OH256158   0.042   5.888   2.509  0.2122  0.0726  0.3071
11556TIP3    H156159  -0.007   5.861   2.586  1.7227 -1.2311  0.8876
11556TIP3    H256160  -0.020   5.879   2.436 -0.9074  0.2311  1.2140
11557TIP3   OH256161   2.358   5.482  15.020 -0.3601 -0.3147 -0.1382
11557TIP3    H156162   2.305   5.414  14.978  2.2802 -3.5821  1.2981
11557TIP3    H256163   2.331   5.563  14.979 -3.0865 -2.3315 -2.7394
11558TIP3   OH256164   2.700   5.411   4.537 -0.4642 -0.2440 -0.4429
11558TIP3    H156165   2.618   5.445   4.573  0.3827 -1.4327  3.0336
11558TIP3    H256166   2.709   5.453   4.452 -3.5547  1.6186  0.0150
11559TIP3   OH256167   1.292   0.146   3.384 -0.7410  0.5779 -0.6380
11559TIP3    H156168   1.366   0.109   3.432 -0.2587  2.3495  0.0692
11559TIP3    H256169   1.255   0.073   3.335 -0.0805 -0.8887  0.9732
11560TIP3   OH256170   2.334   5.921  16.492 -0.1983 -0.0005 -0.2291
11560TIP3    H156171   2.331   5.885  16.403  2.4342  1.4778 -1.0174
11560TIP3    H256172   2.383   5.857  16.543 -2.1728 -1.1110  0.3740
11561TIP3   OH256173   1.810   4.552   1.802  0.4517  0.5400 -0.0423
11561TIP3    H156174   1.790   4.557   1.895 -0.6888 -2.6146  0.0052
11561TIP3    H256175   1.896   4.512   1.797  0.4711  0.6132 -0.3406
11562TIP3   OH256176   5.355   6.248  15.398 -0.1166  0.1903  0.6338
11562TIP3    H156177   5.306   6.212  15.324  1.3988  0.2482 -0.4378
11562TIP3    H256178   5.330   6.341  15.400  0.8962  0.5203 -0.7322
11563TIP3   OH256179   3.655   2.302  15.997 -0.0010 -0.1727 -0.0512
11563TIP3    H156180   3.750   2.306  16.002  0.0274  0.3073 -0.7577
11563TIP3    H256181   3.625   2.345  16.077  0.3848  1.5541 -0.7883
11564TIP3   OH256182   5.349   6.790   0.614  0.1512  0.4684 -0.1591
11564TIP3    H156183   5.376   6.881   0.624  1.3396  0.1815 -0.5442
11564TIP3    H256184   5.346   6.756   0.703  3.4183 -0.0908 -0.1506
11565TIP3   OH256185   0.439   1.708   3.832 -0.5394  0.4560 -0.0160
11565TIP3    H156186   0.384   1.638   3.796 -0.4105 -1.0150  2.4776
11565TIP3    H256187   0.518   1.663   3.863 -0.0264  1.8542  0.7835
11566TIP3   OH256188   3.594   0.271  10.688  0.4717 -0.1050  0.1129
11566TIP3    H156189   3.647   0.191  10.682  1.3898  0.5622 -1.1136
11566TIP3    H256190   3.651   0.333  10.734  0.2454  0.2205 -0.0443
11567TIP3   OH256191   0.771   1.852  15.294  0.2763  0.1101 -1.0431
11567TIP3    H156192   0.851   1.852  15.347 -1.9300 -2.5502  2.7275
11567TIP3    H256193   0.763   1.763  15.261 -0.9168  0.4514 -1.7645
11568TIP3   OH256194   1.859   5.823  14.284  0.3177 -0.0800 -0.4846
11568TIP3    H156195   1.877   5.903  14.333  0.5196  0.7171 -1.8362
11568TIP3    H256196   1.938   5.770  14.293  0.5956  0.3355 -0.4896
11569TIP3   OH256197   1.816   2.392   4.186  0.2216  0.0985  0.6071
11569TIP3    H156198   1.853   2.474   4.220  2.1383  0.4710 -2.0658
11569TIP3    H256199   1.757   2.420   4.117  0.1296 -0.7671  0.3303
11570TIP3   OH256200   1.582   6.238   0.088  0.0618  0.0598 -0.1290
11570TIP3    H156201   1.615   6.159   0.046 -0.9531 -0.0324 -0.7691
11570TIP3    H256202   1.614   6.309   0.033  0.7333  0.0913  0.2877
11571TIP3   OH256203   0.539   2.623   4.923 -0.1298 -1.0380 -1.3093
11571TIP3    H156204   0.623   2.579   4.926  0.8299  0.4396 -3.5174
11571TIP3    H256205   0.500   2.595   4.840 -0.8918 -0.1662 -1.2718
11572TIP3   OH256206   4.301   1.739  10.995  0.5294 -0.1195 -0.4675
11572TIP3    H156207   4.312   1.814  11.052  0.4230 -1.1062  0.9087
11572TIP3    H256208   4.389   1.721  10.960  1.2995 -1.3541  1.8654
11573TIP3   OH256209   5.788   5.831   2.639  0.0566 -0.3516 -0.2817
11573TIP3    H156210   5.802   5.740   2.612  0.4799  0.5205 -3.4482
11573TIP3    H256211   5.719   5.863   2.581 -1.3774  0.9009  2.0026
11574TIP3   OH256212   4.660   2.503  16.580 -0.2194  0.0777  0.8685
11574TIP3    H156213   4.686   2.455  16.502 -1.3118  0.6161  0.1495
11574TIP3    H256214   4.736   2.497  16.638  1.9407  2.3290 -1.4334
11575TIP3   OH256215   1.217   5.401  12.858 -0.2333  0.5130  0.2281
11575TIP3    H156216   1.211   5.493  12.885 -0.4116 -0.0385  2.2024
11575TIP3    H256217   1.152   5.356  12.912  1.7016 -1.1965  1.2617
11576TIP3   OH256218   5.942   0.177  14.101  0.2037  0.3994  0.4598
11576TIP3    H156219   5.988   0.254  14.066  0.2747 -0.0481 -0.4476
11576TIP3    H256220   5.991   0.154  14.180  0.2318  1.2322  0.6936
11577TIP3   OH256221   3.850   1.390  15.009  0.4079  0.0840 -0.2690
11577TIP3    H156222   3.863   1.403  14.915 -0.1882 -0.4370 -0.4322
11577TIP3    H256223   3.766   1.431  15.028  0.3616 -0.1140 -0.0342
11578TIP3   OH256224   6.390   1.422  11.741 -0.1905  0.3741  0.3836
11578TIP3    H156225   6.309   1.377  11.714 -0.3582  0.3274  0.9565
11578TIP3    H256226   6.446   1.417  11.664 -0.4367 -0.2894  0.2371
11579TIP3   OH256227   0.341   4.679  14.361 -0.3263 -0.2601 -0.1275
11579TIP3    H156228   0.332   4.765  14.402 -0.2275  0.1455 -0.9338
11579TIP3    H256229   0.435   4.661  14.362 -0.5014 -1.5274  2.3226
11580TIP3   OH256230   1.696   4.729  11.503 -0.3510  0.3141 -0.3834
11580TIP3    H156231   1.689   4.661  11.569  1.8170 -0.8596 -1.2596
11580TIP3    H256232   1.681   4.683  11.420  2.1152  0.6177 -1.0687
11581TIP3   OH256233   2.044   4.035  11.349  0.4278 -0.2004  0.2506
11581TIP3    H156234   1.999   3.951  11.363 -0.5358  0.1755 -0.4468
11581TIP3    H256235   2.115   4.014  11.289  1.0347 -0.7544  1.1393
11582TIP3   OH256236   0.130   1.020  15.148 -0.0508 -0.1301 -0.6921
11582TIP3    H156237   0.205   1.036  15.091 -0.4151 -0.6890 -1.3593
11582TIP3    H256238   0.077   1.100  15.141  0.5490  0.3243 -0.0967
11583TIP3   OH256239   3.208   0.398   4.333 -0.2464  0.4743  0.1914
11583TIP3    H156240   3.188   0.492   4.330 -1.6593  0.2629  1.8536
11583TIP3    H256241   3.172   0.364   4.251  0.7612  1.4350 -0.6883
11584TIP3   OH256242   4.322   4.152  13.288  0.2168  0.4889  0.5073
11584TIP3    H156243   4.326   4.244  13.311  0.1220  0.5348  0.3435
11584TIP3    H256244   4.409   4.133  13.251 -0.8021  1.4000 -2.7175
11585TIP3   OH256245   1.821   5.558   2.745  0.2748  0.0752 -0.2817
11585TIP3    H156246   1.787   5.615   2.676  2.3429 -0.7075 -2.0773
11585TIP3    H256247   1.751   5.494   2.760 -0.9329  1.3513 -0.2778
11586TIP3   OH256248   6.816   2.226  12.313  0.3649 -0.2851 -0.2313
11586TIP3    H156249   6.820   2.322  12.313  0.8926 -0.2842  1.0936
11586TIP3    H256250   6.849   2.200  12.227 -1.6794  0.7528 -1.4123
11587TIP3   OH256251   4.220   0.803  12.242  0.2263 -0.2177  0.3654
11587TIP3    H156252   4.262   0.883  12.273  0.0567  0.1646 -0.3836
11587TIP3    H256253   4.293   0.743  12.225  0.5527  0.6879 -1.6256
11588TIP3   OH256254   0.391   6.813   5.355  0.3224  0.4472 -0.1182
11588TIP3    H156255   0.415   6.720   5.362 -0.0113  0.1538 -2.1594
11588TIP3    H256256   0.440   6.856   5.424  0.1015 -1.3124  1.2257
11589TIP3   OH256257   1.825   2.622  11.071 -0.2367 -0.7262 -0.0510
11589TIP3    H156258   1.864   2.701  11.035  0.2951 -1.1146 -0.3519
11589TIP3    H256259   1.771   2.588  11.000 -1.9909  0.3621  0.7059
11590TIP3   OH256260   0.544   0.074   3.746  0.2173 -0.5542  0.0887
11590TIP3    H156261   0.612   0.031   3.694  1.5028  0.5094  0.8055
11590TIP3    H256262   0.475   0.008   3.754  2.7645 -3.2547  2.5571
11591TIP3   OH256263   1.819   6.405  11.379  0.2478 -0.3304  0.2113
11591TIP3    H156264   1.828   6.339  11.449  0.6668 -1.0777 -0.5301
11591TIP3    H256265   1.886   6.470  11.398  0.8864 -0.9406  0.0588
11592TIP3   OH256266   5.434   1.172  16.848  0.0097  0.3141 -0.5201
11592TIP3    H156267   5.469   1.172  16.759  0.4716  1.5450 -0.3632
11592TIP3    H256268   5.445   1.263  16.878  1.3214 -0.4012  1.3684
11593TIP3   OH256269   3.910   0.834  14.350  0.0641  0.8115 -0.1935
11593TIP3    H156270   3.888   0.870  14.264 -1.6728 -0.9631 -0.5771
11593TIP3    H256271   3.919   0.911  14.406 -0.6289  1.9463 -1.5548
11594TIP3   OH256272   6.463   5.185  15.862 -0.1552 -0.0254  0.1932
11594TIP3    H156273   6.534   5.241  15.830 -1.6451  0.7733 -1.9873
11594TIP3    H256274   6.488   5.163  15.952  0.2416  4.7725  1.5495
11595TIP3   OH256275   5.588   4.953   6.431  0.1615  0.4256 -0.2237
11595TIP3    H156276   5.504   4.915   6.460  0.1403  1.8411  1.7767
11595TIP3    H256277   5.566   5.000   6.351 -0.8539  0.3440 -0.0084
11596TIP3   OH256278   3.675   5.496   3.170  0.8083  0.5515 -0.4944
11596TIP3    H156279   3.710   5.537   3.091 -0.9567  2.2311 -0.4683
11596TIP3    H256280   3.634   5.568   3.219  0.7083 -0.6675  1.3205
11597TIP3   OH256281   0.076   3.590  15.701 -0.2162 -0.6035 -0.0922
11597TIP3    H156282   0.145   3.654  15.683  0.7276 -1.9686 -1.6724
11597TIP3    H256283   0.065   3.594  15.796  0.3921  1.2748 -0.0551
11598TIP3   OH256284   1.271   1.721   3.239  0.2808  0.2660  0.0785
11598TIP3    H156285   1.264   1.815   3.224 -1.6195  0.0732 -0.5556
11598TIP3    H256286   1.350   1.695   3.192  1.0541  1.5745  0.5821
11599TIP3   OH256287   6.077   0.086  14.313  0.0497  0.6262 -0.3464
11599TIP3    H156288   6.090  -0.007  14.296 -1.6785  0.4816 -1.0859
11599TIP3    H256289   6.073   0.093  14.409 -1.4377 -0.3423 -0.3046
11600TIP3   OH256290   0.425   2.491   4.154 -0.1992  0.1084  0.4320
11600TIP3    H156291   0.506   2.528   4.189 -0.7077  2.2185 -0.4365
11600TIP3    H256292   0.378   2.460   4.231  0.3012  1.2994  1.2588
11601TIP3   OH256293   5.397   6.574   2.674 -0.2075  0.1170 -0.3712
11601TIP3    H156294   5.456   6.598   2.603  2.4293 -0.5432  1.4721
11601TIP3    H256295   5.412   6.640   2.742 -2.1310  0.3158 -0.0582
11602TIP3   OH256296   2.740   5.540   4.290 -0.1045  0.4418 -0.9661
11602TIP3    H156297   2.834   5.533   4.275  0.0405 -0.8275  0.3714
11602TIP3    H256298   2.701   5.471   4.236 -0.6386  2.7693 -3.8660
11603TIP3   OH256299   1.473   4.539  13.873  0.2650  0.6924 -0.1761
11603TIP3    H156300   1.550   4.555  13.929  2.1545  1.1859 -2.7396
11603TIP3    H256301   1.483   4.601  13.801 -1.0269 -1.1325 -2.0364
11604TIP3   OH256302   3.494   2.090   5.352  0.2772  0.0871 -1.2036
11604TIP3    H156303   3.439   2.164   5.377  0.5325 -0.1073  0.0105
11604TIP3    H256304   3.485   2.084   5.257  0.9796  2.2671 -1.4665
11605TIP3   OH256305   0.973   2.954  12.732  0.4305  0.3139  0.1954
11605TIP3    H156306   0.883   2.937  12.762  0.3735  1.2094  0.5558
11605TIP3    H256307   0.983   2.897  12.656 -0.6873  0.6906 -0.2648
11606TIP3   OH256308   3.276   5.597   1.846 -0.1682 -0.1710 -0.3479
11606TIP3    H156309   3.273   5.591   1.750  0.9906 -0.9608 -0.3604
11606TIP3    H256310   3.335   5.526   1.872  3.3645  2.8519  0.6397
11607TIP3   OH256311   5.486   5.681  15.076  0.1254  0.3290 -0.2350
11607TIP3    H156312   5.483   5.765  15.122 -1.6062 -0.2774  0.8811
11607TIP3    H256313   5.438   5.697  14.995  0.2792  0.5567 -0.2836
11608TIP3   OH256314   1.335   2.862   3.942 -0.6420 -0.4077  0.5794
11608TIP3    H156315   1.373   2.941   3.902 -2.1350  0.3582  0.5959
11608TIP3    H256316   1.411   2.808   3.966  0.3731  0.3871 -0.7068
11609TIP3   OH256317   0.199   5.357  15.591 -0.0904 -0.3682  0.1024
11609TIP3    H156318   0.175   5.380  15.502 -0.4250  0.0059  0.2842
11609TIP3    H256319   0.192   5.261  15.594 -0.8593 -0.3217 -0.0513
11610TIP3   OH256320   6.343   1.138  14.441  0.6022  0.4550  0.2271
11610TIP3    H156321   6.312   1.093  14.362  0.3704 -0.9769  1.1051
11610TIP3    H256322   6.337   1.231  14.419  0.2673  0.0923 -1.3345
11611TIP3   OH256323   3.266   3.089   0.893 -0.4300  0.1229 -0.0796
11611TIP3    H156324   3.238   3.121   0.978 -0.4506 -0.0752 -0.0102
11611TIP3    H256325   3.187   3.089   0.840 -0.1915  1.4069 -0.4740
11612TIP3   OH256326   3.057   5.878  12.982 -0.4587  0.0258 -0.2586
11612TIP3    H156327   3.031   5.967  12.956 -1.9384 -0.4425 -0.5126
11612TIP3    H256328   3.033   5.873  13.075 -1.1221 -0.3424 -0.4397
11613TIP3   OH256329   4.469   6.596   1.619 -0.3119  0.7275 -0.6652
11613TIP3    H156330   4.477   6.525   1.683 -2.4825  1.3040  0.3451
11613TIP3    H256331   4.482   6.676   1.670 -0.8124  1.1597 -1.2018
11614TIP3   OH256332   4.171   1.141   3.636 -0.0702 -0.0390  0.1783
11614TIP3    H156333   4.121   1.064   3.660 -2.3815  0.6108 -1.9952
11614TIP3    H256334   4.192   1.128   3.543 -0.3537  1.7928 -0.1952
11615TIP3   OH256335   6.809   4.027  13.183  0.3994 -0.0974 -0.0167
11615TIP3    H156336   6.809   3.974  13.263  1.8257  0.8578  0.6574
11615TIP3    H256337   6.889   4.000  13.137 -0.7382 -1.1128 -1.4855
11616TIP3   OH256338   6.249   4.144  11.826  0.3801 -0.3392 -0.8617
11616TIP3    H156339   6.236   4.226  11.874  1.9474 -1.5866  2.0022
11616TIP3    H256340   6.339   4.147  11.797 -0.1367 -0.2497 -2.5323
11617TIP3   OH256341   4.061   3.289  17.188 -0.2872  0.1384  0.3452
11617TIP3    H156342   4.152   3.258  17.194 -0.9942 -1.9759  1.0539
11617TIP3    H256343   4.011   3.226  17.240 -2.1300  1.4633  0.2584
11618TIP3   OH256344   0.856   6.612   4.421 -0.1068 -0.2859  0.5384
11618TIP3    H156345   0.768   6.587   4.392  0.2799 -1.0998  0.0445
11618TIP3    H256346   0.847   6.626   4.515 -0.3800 -2.1867  0.8312
11619TIP3   OH256347   1.677   2.956  13.702  0.0961  0.2057  0.0965
11619TIP3    H156348   1.588   2.961  13.666 -0.4894 -0.1535  1.4072
11619TIP3    H256349   1.687   3.037  13.752 -0.3573 -0.6817  1.7275
11620TIP3   OH256350   0.518   3.691  14.819  0.3005  0.1876  0.0644
11620TIP3    H156351   0.441   3.738  14.851 -0.0084  0.6551 -1.2757
11620TIP3    H256352   0.485   3.642  14.744  1.2335  0.0885 -0.2850
11621TIP3   OH256353   6.523   4.352  15.713  0.7079 -0.1215 -0.0088
11621TIP3    H156354   6.589   4.379  15.776  0.5144  0.1527  0.0796
11621TIP3    H256355   6.544   4.400  15.633  1.8215 -1.5493 -0.6273
11622TIP3   OH256356   5.537   5.966  14.732  0.6286  0.1700  0.0249
11622TIP3    H156357   5.539   5.870  14.734 -0.2363  0.1259 -0.6421
11622TIP3    H256358   5.558   5.993  14.821 -0.8989 -0.6861  0.6688
11623TIP3   OH256359   6.653   2.172   1.183 -0.2363  0.1417  0.1963
11623TIP3    H156360   6.592   2.105   1.153 -0.5302  0.2701  0.5072
11623TIP3    H256361   6.667   2.153   1.276 -1.1639  1.1429  0.5621
11624TIP3   OH256362   2.724   2.542   2.525 -0.2576  0.6134 -0.1900
11624TIP3    H156363   2.642   2.588   2.506 -0.1284  0.9227 -0.0022
11624TIP3    H256364   2.790   2.587   2.472  0.2507  1.9663  1.4782
11625TIP3   OH256365   4.645   3.612  14.723 -0.4419  0.2740 -0.2112
11625TIP3    H156366   4.715   3.550  14.743  0.8031  1.8574  0.5174
11625TIP3    H256367   4.575   3.591  14.785  0.3934  0.2610  0.7489
11626TIP3   OH256368   3.174   6.297  13.078 -0.4587 -0.1867  0.2565
11626TIP3    H156369   3.084   6.281  13.104 -0.3721 -1.5566 -0.2263
11626TIP3    H256370   3.222   6.219  13.105  0.6688  0.6584  0.8157
11627TIP3   OH256371   3.232   2.771   2.937  0.2631 -0.0093 -0.0429
11627TIP3    H156372   3.264   2.721   3.013  0.7609 -1.0669 -0.9210
11627TIP3    H256373   3.143   2.797   2.961  0.7946  0.6261  1.3469
11628TIP3   OH256374   6.204   5.204  15.815 -0.2264 -0.7675  0.3738
11628TIP3    H156375   6.290   5.198  15.857  0.5906 -0.1378 -1.1168
11628TIP3    H256376   6.190   5.298  15.801  0.1404 -0.9972 -1.8724
11629TIP3   OH256377   0.138   5.270   1.566  0.5318  0.7069 -0.3165
11629TIP3    H156378   0.161   5.257   1.474  0.9823 -3.1991  0.2016
11629TIP3    H256379   0.050   5.307   1.564 -0.0294 -0.6045 -2.3625
11630TIP3   OH256380   6.296   5.852  14.759  0.0395  0.3016  0.3518
11630TIP3    H156381   6.249   5.901  14.692  0.1660  0.1025  0.1177
11630TIP3    H256382   6.333   5.777  14.713  1.4623  0.9946  0.3113
11631TIP3   OH256383   0.923   3.913   2.207  0.6236 -0.1304  0.0501
11631TIP3    H156384   0.891   3.832   2.167  1.8496 -0.7328  0.2405
11631TIP3    H256385   0.843   3.960   2.232 -0.1280 -1.7751  0.9398
11632TIP3   OH256386   3.718   3.074  15.814  0.4721  0.1477  0.2291
11632TIP3    H156387   3.790   3.096  15.874  1.4471  1.7996 -1.4478
11632TIP3    H256388   3.640   3.106  15.859  0.7722 -1.2331  1.8619
11633TIP3   OH256389   0.689   2.305  12.249 -0.4550  0.1508  0.7354
11633TIP3    H156390   0.724   2.229  12.202  0.2155 -0.2714  1.8722
11633TIP3    H256391   0.610   2.329  12.200  0.0909 -0.3953 -0.4619
11634TIP3   OH256392   3.500   2.399  12.262  0.2057  0.1277 -0.1003
11634TIP3    H156393   3.515   2.479  12.213  0.4739  0.6755  0.8576
11634TIP3    H256394   3.487   2.428  12.352 -2.5600 -0.6211 -0.1605
11635TIP3   OH256395   6.648   3.780  15.334 -0.3676 -0.1994  0.1754
11635TIP3    H156396   6.736   3.804  15.305  0.6144 -0.1716  2.8947
11635TIP3    H256397   6.646   3.684  15.328  0.0149 -0.2295  0.5221
11636TIP3   OH256398   4.000   3.805  12.239 -0.3580 -0.1410 -0.2836
11636TIP3    H156399   3.952   3.774  12.162 -2.5537 -0.4994  1.1359
11636TIP3    H256400   4.031   3.725  12.281  0.5477  0.0397 -0.5750
11637TIP3   OH256401   3.996   2.362   1.161  0.5360 -0.0611 -0.0486
11637TIP3    H156402   3.930   2.303   1.197  1.2982 -1.3116 -0.6247
11637TIP3    H256403   4.020   2.419   1.235 -0.3607 -0.3298  0.4664
11638TIP3   OH256404   3.305   0.564   1.651  0.5348  0.5508  0.4459
11638TIP3    H156405   3.215   0.578   1.680 -0.0430 -0.8566 -0.5581
11638TIP3    H256406   3.351   0.533   1.729  0.3301  1.8864  1.1221
11639TIP3   OH256407   5.462   2.597  16.975  0.0504 -0.0344 -0.4008
11639TIP3    H156408   5.502   2.596  17.062 -0.8279 -0.0599  0.0120
11639TIP3    H256409   5.484   2.512  16.937  0.4991  0.0060 -0.2284
11640TIP3   OH256410   0.644   4.944   2.011 -0.2999 -0.2276 -0.5134
11640TIP3    H156411   0.706   4.950   1.938  0.1815 -0.9745 -0.1809
11640TIP3    H256412   0.607   4.856   2.004  1.1565 -1.0425  1.2087
11641TIP3   OH256413   3.793   6.005   0.307  0.0266  0.0230  0.1877
11641TIP3    H156414   3.837   5.984   0.390 -0.4602  0.2622  0.5111
11641TIP3    H256415   3.741   6.083   0.327 -2.6112 -1.7055  0.5555
11642TIP3   OH256416   3.054   5.160   3.265 -0.0123 -0.7230  0.2909
11642TIP3    H156417   3.067   5.069   3.241 -0.5314 -0.6862 -0.1510
11642TIP3    H256418   3.103   5.210   3.200  0.1440 -0.6775  0.4412
11643TIP3   OH256419   6.524   4.074   1.444 -0.7954 -0.0549 -0.1506
11643TIP3    H156420   6.598   4.045   1.497 -1.1900  0.3296  0.6393
11643TIP3    H256421   6.455   4.094   1.508 -1.3181  0.3325 -0.8154
11644TIP3   OH256422   2.334   0.925   5.637 -0.3476  0.2567 -0.2753
11644TIP3    H156423   2.389   0.924   5.716  0.2001  1.1934 -0.6255
11644TIP3    H256424   2.377   0.866   5.576 -1.2026 -1.0987  0.3814
11645TIP3   OH256425   3.503   2.409   0.931  0.8819 -0.4762  0.1621
11645TIP3    H156426   3.559   2.341   0.895  0.8407  0.1167 -1.0674
11645TIP3    H256427   3.445   2.363   0.992  1.1570 -1.4651 -0.3032
11646TIP3   OH256428   0.759   1.165   0.778  0.3282  0.0891  0.0842
11646TIP3    H156429   0.769   1.224   0.852 -1.5538 -1.0049  1.2972
11646TIP3    H256430   0.737   1.081   0.818 -2.0427 -0.2412 -1.7478
11647TIP3   OH256431   3.737   3.862  16.486 -0.2316  0.2439  0.3005
11647TIP3    H156432   3.695   3.776  16.485  1.0435 -0.5096  2.4843
11647TIP3    H256433   3.768   3.875  16.397 -0.2329 -1.7172 -0.0344
11648TIP3   OH256434   2.781   3.830   4.535  0.1199 -0.7691  0.4975
11648TIP3    H156435   2.837   3.854   4.461  0.1513 -1.1262  0.4000
11648TIP3    H256436   2.693   3.859   4.509  0.1974 -0.5431  0.4884
11649TIP3   OH256437   0.460   3.175   2.272  0.5547  0.5433 -0.3401
11649TIP3    H156438   0.431   3.247   2.329  0.5236 -0.7141  1.2937
11649TIP3    H256439   0.446   3.096   2.324 -1.1199 -0.8632 -2.7521
11650TIP3   OH256440   3.466   6.332   3.930  0.0196 -0.0555 -0.8409
11650TIP3    H156441   3.560   6.328   3.914  0.1614  0.1176 -0.0997
11650TIP3    H256442   3.426   6.314   3.845  0.7181 -0.7210 -1.0368
11651TIP3   OH256443   5.819   4.812  16.091 -0.3075  0.1593 -0.2904
11651TIP3    H156444   5.880   4.786  16.160 -2.1550 -0.1835  1.3048
11651TIP3    H256445   5.771   4.886  16.129 -0.3227  0.9996 -1.8451
11652TIP3   OH256446   3.667   4.917  12.022 -0.1314 -0.7003 -0.2515
11652TIP3    H156447   3.697   4.929  12.112 -0.8437 -1.0159  0.0376
11652TIP3    H256448   3.572   4.908  12.030 -0.6653  2.6876 -1.3673
11653TIP3   OH256449   1.797   2.040   3.027 -0.1803 -0.1050 -0.2228
11653TIP3    H156450   1.866   2.042   3.093 -1.1305  0.8585  0.7820
11653TIP3    H256451   1.832   2.093   2.955 -0.0108  0.7345  0.4502
11654TIP3   OH256452   0.585   6.158  15.572  0.2206 -0.0753 -0.3374
11654TIP3    H156453   0.664   6.103  15.574 -1.0223 -1.9960 -0.8477
11654TIP3    H256454   0.565   6.174  15.664  0.8811 -0.0709 -0.1884
11655TIP3   OH256455   3.316   1.444   0.473 -0.5188  0.4404  0.3870
11655TIP3    H156456   3.253   1.468   0.404  0.9556 -0.5790 -1.3921
11655TIP3    H256457   3.326   1.524   0.524 -0.6799  1.6685 -1.4045
11656TIP3   OH256458   0.921   1.584   5.057  0.0388 -0.6094  0.0933
11656TIP3    H156459   0.924   1.513   5.121 -2.7980 -0.0390  0.9816
11656TIP3    H256460   0.907   1.539   4.973  0.7579 -1.1937  0.2703
11657TIP3   OH256461   0.510   0.164   1.462 -0.2824  0.4854 -0.3765
11657TIP3    H156462   0.464   0.245   1.438 -0.5967  1.0533  1.8893
11657TIP3    H256463   0.462   0.095   1.417 -0.1846  1.4942 -2.1296
11658TIP3   OH256464   4.051   2.306  12.789  0.4051 -0.3647 -0.0732
11658TIP3    H156465   4.074   2.399  12.793 -0.1960 -0.2580  1.5131
11658TIP3    H256466   3.962   2.305  12.755 -0.1323 -0.2396  1.2790
11659TIP3   OH256467   5.048   0.531   5.405 -0.4752 -0.0116  0.3112
11659TIP3    H156468   5.069   0.623   5.418 -0.5721  0.2018 -0.9772
11659TIP3    H256469   5.019   0.501   5.491 -2.1860  1.6142  0.3508
11660TIP3   OH256470   2.290   2.249  14.543 -0.1173 -0.0913 -0.0504
11660TIP3    H156471   2.209   2.245  14.492 -0.2110  1.3376 -0.0541
11660TIP3    H256472   2.264   2.229  14.632 -0.1895 -1.2026 -0.3008
11661TIP3   OH256473   0.969   5.674  16.847 -0.4450 -0.2837  0.7744
11661TIP3    H156474   0.962   5.746  16.910  0.7530  0.0538  0.5373
11661TIP3    H256475   0.901   5.692  16.782 -0.3075  0.5098  0.8417
11662TIP3   OH256476   1.762   6.493  12.509  0.1047  0.1276  0.8449
11662TIP3    H156477   1.819   6.519  12.438 -0.2825  0.0567  0.5021
11662TIP3    H256478   1.798   6.410  12.540  1.0776  0.8313  1.6501
11663TIP3   OH256479   4.059   0.099   5.540 -0.3033 -0.3290  0.5588
11663TIP3    H156480   4.136   0.096   5.484  0.4565  0.0667  1.5517
11663TIP3    H256481   3.985   0.110   5.480  0.6019  1.3928 -0.3098
11664TIP3   OH256482   0.996   3.546  11.619  0.3507  0.6413  0.1541
11664TIP3    H156483   1.015   3.478  11.683  0.9534  0.8050  0.1517
11664TIP3    H256484   1.013   3.629  11.665  2.5486  0.7479 -0.7233
11665TIP3   OH256485   4.505   0.246  12.387  0.1185 -0.7714  0.2031
11665TIP3    H156486   4.495   0.152  12.371 -0.0400 -1.0094  1.6001
11665TIP3    H256487   4.416   0.279  12.395  0.1529 -1.1292  2.9569
11666TIP3   OH256488   0.758   4.623   2.430 -0.0797  1.2769  0.7535
11666TIP3    H156489   0.761   4.703   2.482 -1.4153  2.0964 -0.3692
11666TIP3    H256490   0.669   4.590   2.441  0.4019  0.0331  1.0582
11667TIP3   OH256491   6.362   0.863   0.378  0.2073  0.1373  0.5651
11667TIP3    H156492   6.277   0.818   0.377 -0.3467  1.1413  0.8463
11667TIP3    H256493   6.349   0.938   0.320  0.5977  0.8360  1.3814
11668TIP3   OH256494   3.855   5.095   1.234  0.2140  0.4044  0.0648
11668TIP3    H156495   3.887   5.015   1.194  1.3205  1.4562 -1.2536
11668TIP3    H256496   3.854   5.159   1.163 -0.1972  1.6837  1.1743
11669TIP3   OH256497   4.634   2.841  14.041  0.4268 -0.2709 -0.0220
11669TIP3    H156498   4.631   2.921  13.989  2.5160  1.1995  1.9253
11669TIP3    H256499   4.709   2.793  14.006 -0.1377 -0.8606 -0.4461
11670TIP3   OH256500   5.621   6.219  14.677  0.2768 -0.6282  0.0279
11670TIP3    H156501   5.590   6.158  14.743 -0.8304  0.6176  0.7136
11670TIP3    H256502   5.710   6.190  14.657  0.3308 -1.5306  1.4365
11671TIP3   OH256503   1.581   0.011  16.090  0.1101  0.3901  0.1448
11671TIP3    H156504   1.646   0.046  16.152 -0.1931 -0.1894  0.7965
11671TIP3    H256505   1.553  -0.072  16.128  0.6694 -0.4907 -1.2804
11672TIP3   OH256506   0.932   6.827  16.873  0.4647 -0.6284 -0.3543
11672TIP3    H156507   0.958   6.917  16.889 -1.2575 -0.2192  0.3049
11672TIP3    H256508   1.013   6.777  16.880  0.8657  0.2866  3.7033
11673TIP3   OH256509   4.646   5.088  11.331  0.3131 -0.0828  0.1910
11673TIP3    H156510   4.726   5.126  11.367  1.5841 -0.9272 -1.5708
11673TIP3    H256511   4.677   5.011  11.283 -1.7001 -1.0265  0.3338
11674TIP3   OH256512   6.254   4.288  12.221  0.2202 -0.3419 -0.5738
11674TIP3    H156513   6.330   4.345  12.233  0.2776 -0.5151 -0.0958
11674TIP3    H256514   6.250   4.236  12.302 -1.3484  0.7762  0.1134
11675TIP3   OH256515   0.150   0.058  13.658  0.4123  0.6073  0.4383
11675TIP3    H156516   0.224   0.024  13.707  1.3558 -1.0466 -1.9539
11675TIP3    H256517   0.179   0.059  13.567 -2.5168 -0.2135 -0.6203
11676TIP3   OH256518   1.307   1.978  17.108  0.7170  0.3207  0.3652
11676TIP3    H156519   1.229   2.034  17.101  0.1047 -0.3123  1.7116
11676TIP3    H256520   1.368   2.030  17.160  0.2205 -0.1437  1.4514
11677TIP3   OH256521   1.137   6.372   4.300  0.2155 -0.0246  0.0629
11677TIP3    H156522   1.213   6.429   4.316  1.0416 -0.6224 -1.4745
11677TIP3    H256523   1.164   6.287   4.335  1.0358 -0.6986 -2.0465
11678TIP3   OH256524   6.370   0.805  11.502 -0.5715 -0.3295  0.3902
11678TIP3    H156525   6.305   0.858  11.549 -1.9536  0.2215 -1.9885
11678TIP3    H256526   6.344   0.715  11.519  0.4783 -0.2903  2.6525
11679TIP3   OH256527   1.554   2.071   4.052  0.0796  0.2205  0.2976
11679TIP3    H156528   1.643   2.079   4.017  0.5313  0.8872  1.5382
11679TIP3    H256529   1.497   2.082   3.976  1.0495 -0.6135 -0.5890
11680TIP3   OH256530   0.091   5.615   6.159 -0.3939 -0.1058 -0.1222
11680TIP3    H156531   0.135   5.691   6.196 -0.3224 -0.4152  0.4457
11680TIP3    H256532   0.155   5.577   6.098 -1.0288  1.2063 -1.6666
11681TIP3   OH256533   6.209   2.376  10.609  0.1558  0.7086 -0.5576
11681TIP3    H156534   6.163   2.301  10.648 -0.7138  0.7093 -1.5422
11681TIP3    H256535   6.302   2.355  10.617 -0.0860 -0.8042 -1.4271
11682TIP3   OH256536   2.370   3.286  16.305 -0.1908 -0.0587 -0.3406
11682TIP3    H156537   2.290   3.316  16.349  0.2515 -0.7912  1.0327
11682TIP3    H256538   2.396   3.359  16.249 -1.9775  0.0814 -1.0728
11683TIP3   OH256539   2.324   5.540   0.785  0.0118  0.6574 -0.3060
11683TIP3    H156540   2.380   5.486   0.841 -0.6956  1.1046  0.8627
11683TIP3    H256541   2.262   5.477   0.747  0.2975  0.3908 -0.3381
11684TIP3   OH256542   2.796   2.238  12.375 -0.1305  0.0295  0.1932
11684TIP3    H156543   2.879   2.248  12.421 -0.4039  3.1379  0.2015
11684TIP3    H256544   2.821   2.213  12.286  1.3524  4.9596 -1.0908
11685TIP3   OH256545   4.812   2.712   1.013 -0.3001  0.2470 -0.3754
11685TIP3    H156546   4.722   2.688   1.033  0.4449 -2.0014  0.6423
11685TIP3    H256547   4.833   2.664   0.933  0.7177 -1.3074  0.7733
11686TIP3   OH256548   4.715   1.767   1.961 -0.1998  0.4446  0.9167
11686TIP3    H156549   4.721   1.724   2.046  2.0598  1.5900  1.4277
11686TIP3    H256550   4.747   1.702   1.899  0.0788  0.2697  1.2373
11687TIP3   OH256551   3.755   1.183  14.554 -0.3711  0.0670 -0.2890
11687TIP3    H156552   3.731   1.267  14.515  0.1178 -0.6145 -2.2089
11687TIP3    H256553   3.732   1.192  14.646 -0.7017  2.1513 -0.5116
11688TIP3   OH256554   4.809   2.504   1.768  0.0076 -0.1198  0.4388
11688TIP3    H156555   4.872   2.462   1.826  0.3812 -0.6193 -0.3293
11688TIP3    H256556   4.760   2.563   1.826 -1.0063 -2.0874  1.6877
11689TIP3   OH256557   3.690   4.982  16.388 -0.0602  0.0110 -0.2714
11689TIP3    H156558   3.631   5.029  16.328 -0.0999  0.3729  0.0505
11689TIP3    H256559   3.631   4.937  16.448 -0.0352  1.8526  1.2161
11690TIP3   OH256560   2.474   4.478  13.654 -0.0427 -0.0530  0.5668
11690TIP3    H156561   2.518   4.429  13.725 -2.8621 -0.9795  1.8174
11690TIP3    H256562   2.394   4.511  13.694 -1.4706 -0.0940 -2.0598
11691TIP3   OH256563   2.975   5.234   0.664  0.2897 -0.1147 -0.2390
11691TIP3    H156564   2.917   5.301   0.700  0.7283 -0.4604  1.1955
11691TIP3    H256565   2.926   5.153   0.673 -0.1814 -0.0300 -1.8350
11692TIP3   OH256566   6.763   0.436  13.529  0.3320 -0.8838 -0.0088
11692TIP3    H156567   6.754   0.350  13.569  0.3734 -1.2828 -0.8421
11692TIP3    H256568   6.674   0.459  13.501  0.1103 -0.1479  1.1927
11693TIP3   OH256569   4.832   5.124   4.495 -0.4286 -0.5114 -0.4856
11693TIP3    H156570   4.865   5.039   4.524 -0.0487 -0.2743 -0.2186
11693TIP3    H256571   4.787   5.160   4.571 -2.7029 -1.4915 -1.2619
11694TIP3   OH256572   2.901   5.092  15.183  0.0375 -0.0745  0.3924
11694TIP3    H156573   2.911   5.187  15.184  1.6991 -0.2138  1.5706
11694TIP3    H256574   2.808   5.077  15.199 -0.1267  1.3448  0.8651
11695TIP3   OH256575   5.452   0.854   3.068 -0.0593  0.1115  0.0018
11695TIP3    H156576   5.457   0.903   2.985  1.6283 -0.9458 -0.5565
11695TIP3    H256577   5.512   0.781   3.056 -0.3886 -0.5020  1.8947
11696TIP3   OH256578   5.430   0.295   1.628  0.4858  0.4442 -0.1938
11696TIP3    H156579   5.392   0.313   1.714 -0.3021  0.1902 -0.4781
11696TIP3    H256580   5.512   0.346   1.627  0.7321  0.1131  0.8655
11697TIP3   OH256581   2.127   3.392  13.887 -0.0265  0.4407  0.2838
11697TIP3    H156582   2.145   3.299  13.872  0.7833  0.2527  2.1888
11697TIP3    H256583   2.107   3.426  13.799  0.3632 -1.3620 -0.5631
11698TIP3   OH256584   6.253   6.451  14.065  0.3136  0.1935  0.0536
11698TIP3    H156585   6.270   6.372  14.015  0.2328 -0.8279  1.5697
11698TIP3    H256586   6.337   6.471  14.107  0.6419  1.5908 -1.2093
11699TIP3   OH256587   2.539   3.596  15.521 -0.4500  0.0910  0.4571
11699TIP3    H156588   2.563   3.505  15.533 -0.1473  0.0467 -0.4065
11699TIP3    H256589   2.622   3.641  15.507 -0.7585  0.0577 -1.7970
11700TIP3   OH256590   2.471   4.888  12.119 -0.2048 -0.4697 -0.2643
11700TIP3    H156591   2.491   4.802  12.156  0.8806  0.0727  0.4845
11700TIP3    H256592   2.419   4.870  12.041  0.2001 -1.8062 -0.2404
11701TIP3   OH256593   5.298   2.423   0.018 -0.1314 -0.0709  0.7429
11701TIP3    H156594   5.380   2.408  -0.030 -0.0920  1.5998  0.2291
11701TIP3    H256595   5.263   2.505  -0.018 -2.7249 -1.3984  0.0379
11702TIP3   OH256596   2.515   1.994   0.238  0.0888 -0.0728  0.2702
11702TIP3    H156597   2.423   1.982   0.215 -0.0422 -0.2471  0.8517
11702TIP3    H256598   2.557   2.025   0.158 -0.7329  1.2892  0.3399
11703TIP3   OH256599   3.429   0.776   5.376 -0.1152  0.1402  0.1136
11703TIP3    H156600   3.497   0.732   5.427 -2.5712 -2.2659  1.5447
11703TIP3    H256601   3.381   0.828   5.440 -3.1321 -2.7783  0.4415
11704TIP3   OH256602   4.059   4.752  16.978  0.3054  0.2461  0.1483
11704TIP3    H156603   4.030   4.723  17.064 -0.8835  2.4973  0.5785
11704TIP3    H256604   4.121   4.822  16.996 -1.0655  1.7598 -0.7819
11705TIP3   OH256605   2.356   2.772  12.264 -0.6591  0.3549 -0.3709
11705TIP3    H156606   2.373   2.816  12.181 -1.2186  0.5554 -0.3837
11705TIP3    H256607   2.290   2.826  12.307 -0.1310  0.4340  0.3614
11706TIP3   OH256608   2.438   6.606   4.179 -0.4722 -0.1945  0.0511
11706TIP3    H156609   2.412   6.517   4.155 -1.3116  0.0876 -0.0945
11706TIP3    H256610   2.390   6.624   4.260 -0.2683  0.1170  0.1028
11707TIP3   OH256611   5.558   5.087  14.198  0.1112  0.1799 -0.0948
11707TIP3    H156612   5.606   5.124  14.124  0.5922 -2.3585 -1.1657
11707TIP3    H256613   5.592   5.133  14.275  0.5731  1.9370 -1.2788
11708TIP3   OH256614   4.935   5.662   6.077  0.0063 -0.0822 -0.3319
11708TIP3    H156615   5.027   5.677   6.055 -0.5994 -0.0531 -3.2345
11708TIP3    H256616   4.926   5.697   6.166  3.2011 -1.8857  0.8763
11709TIP3   OH256617   0.595   0.833  14.201  0.2205 -0.4907 -0.1033
11709TIP3    H156618   0.508   0.817  14.165  0.9461 -1.1159 -1.6328
11709TIP3    H256619   0.640   0.884  14.134  1.1616 -0.4806  0.5150
11710TIP3   OH256620   4.661   0.451   2.101  0.3096  0.1528  0.7002
11710TIP3    H156621   4.697   0.528   2.145 -1.5502  1.1556  0.5856
11710TIP3    H256622   4.641   0.390   2.171  1.0239  0.1136  0.8727
11711TIP3   OH256623   6.431   4.362   0.729 -0.4960 -0.4731  0.1024
11711TIP3    H156624   6.462   4.296   0.666 -1.0937  0.2184 -0.9367
11711TIP3    H256625   6.336   4.361   0.720 -0.6423 -0.7860  1.4504
11712TIP3   OH256626   3.761   0.673  14.896 -0.4809  0.0306  0.3256
11712TIP3    H156627   3.726   0.741  14.840  0.2405  0.8785  0.8735
11712TIP3    H256628   3.856   0.684  14.890 -0.3820 -0.0398  1.4736
11713TIP3   OH256629   6.036   5.680  11.346  0.5176  0.0131  0.1883
11713TIP3    H156630   6.100   5.660  11.414 -0.8718  0.9723  1.8695
11713TIP3    H256631   6.085   5.731  11.281  1.3804  1.0988  1.6403
11714TIP3   OH256632   0.710   3.126  12.715 -0.1670 -0.4662 -0.2643
11714TIP3    H156633   0.761   3.079  12.650 -0.6343  0.4227 -1.2975
11714TIP3    H256634   0.623   3.134  12.677  0.3439  2.9534 -1.1094
11715TIP3   OH256635   6.187   4.484   4.272  0.3245  0.2775  0.6014
11715TIP3    H156636   6.127   4.464   4.344  1.9197  0.7448  2.1637
11715TIP3    H256637   6.131   4.503   4.197 -1.4035 -1.0743  1.4763
11716TIP3   OH256638   4.586   1.330   1.735 -0.3202  0.1953  0.3986
11716TIP3    H156639   4.680   1.318   1.748 -0.1602 -0.5779 -1.2363
11716TIP3    H256640   4.578   1.421   1.707 -0.1112  0.3482  0.8135
11717TIP3   OH256641   3.397   2.559  13.949  0.2766  0.0752 -0.1852
11717TIP3    H156642   3.396   2.546  13.854  2.6431 -0.8772 -0.1534
11717TIP3    H256643   3.310   2.533  13.978 -0.1448 -0.6374 -1.9872
11718TIP3   OH256644   3.055   3.127   3.330  0.0975  0.3805  0.2219
11718TIP3    H156645   3.141   3.125   3.289 -0.6352 -0.2557 -1.3846
11718TIP3    H256646   3.064   3.072   3.408  0.6969 -1.1918 -0.9151
11719TIP3   OH256647   1.970   4.124  10.965 -0.0706  0.1140  0.0556
11719TIP3    H156648   1.884   4.108  10.926 -0.9845  1.7707  1.2755
11719TIP3    H256649   2.011   4.038  10.970 -2.0039 -0.8400  0.2415
11720TIP3   OH256650   3.857   3.560  10.962 -0.1653  0.4522 -0.5639
11720TIP3    H156651   3.941   3.578  11.005 -0.3208  1.3438 -0.6095
11720TIP3    H256652   3.801   3.633  10.988 -0.6159  0.4022 -1.3600
11721TIP3   OH256653   5.433   6.708  14.948  0.0201 -0.6040  0.1130
11721TIP3    H156654   5.439   6.792  14.901 -1.0293 -0.8464 -0.4669
11721TIP3    H256655   5.462   6.729  15.036  1.2224  0.0453 -0.4022
11722TIP3   OH256656   1.945   5.977  10.919 -0.5464  0.4412  0.2953
11722TIP3    H156657   1.971   5.921  10.846 -0.7300 -0.8036  1.1447
11722TIP3    H256658   1.940   6.065  10.882 -0.3121 -0.1109 -1.1027
11723TIP3   OH256659   4.144   3.530  13.902 -0.1775  0.1970  0.0630
11723TIP3    H156660   4.070   3.579  13.940  0.0798  0.1424  0.6489
11723TIP3    H256661   4.182   3.484  13.977  0.7080  0.5514 -0.1606
11724TIP3   OH256662   6.485   3.927   4.391 -0.0712  0.0508 -0.2186
11724TIP3    H156663   6.436   4.007   4.371  1.2749  0.7907 -0.7067
11724TIP3    H256664   6.546   3.917   4.318 -0.7327 -1.8814 -0.5508
11725TIP3   OH256665   4.130   5.387   0.058 -0.1393 -0.4240 -0.4533
11725TIP3    H156666   4.104   5.451   0.125  2.1593 -1.3487  1.4606
11725TIP3    H256667   4.220   5.409   0.037 -0.1406 -1.4717 -1.7255
11726TIP3   OH256668   1.718   4.925   0.394 -0.1205  0.1868  0.5868
11726TIP3    H156669   1.752   4.986   0.329 -0.9483  0.5052  0.4401
11726TIP3    H256670   1.639   4.888   0.354  1.3262 -2.3928 -0.1045
11727TIP3   OH256671   2.047   1.980   5.431  0.3281 -0.5187 -0.1233
11727TIP3    H156672   1.959   1.951   5.406  0.9969 -1.0258 -2.0123
11727TIP3    H256673   2.103   1.951   5.360  1.6925  1.8264 -0.0851
11728TIP3   OH256674   6.431   0.166   3.423 -0.6274  0.2350 -0.1281
11728TIP3    H156675   6.384   0.232   3.474 -1.2218 -0.3252  0.0619
11728TIP3    H256676   6.446   0.094   3.484  1.9800  1.0313  0.3121
11729TIP3   OH256677   1.165   0.102  14.512 -0.2190 -0.1288  0.2376
11729TIP3    H156678   1.161   0.030  14.575 -2.1316 -0.1006  0.2043
11729TIP3    H256679   1.126   0.066  14.432 -1.1425  0.8890  0.2053
11730TIP3   OH256680   2.302   2.189  16.168 -0.3914  0.5498 -0.4661
11730TIP3    H156681   2.217   2.186  16.212 -0.3752  0.0479 -0.4688
11730TIP3    H256682   2.299   2.269  16.116 -0.7917  0.6260 -0.3282
11731TIP3   OH256683   5.755   3.568  13.045 -0.7138  0.0570 -0.4164
11731TIP3    H156684   5.725   3.597  12.958  1.1159  3.3643 -0.1045
11731TIP3    H256685   5.716   3.631  13.105  0.7770 -0.1102  0.7713
11732TIP3   OH256686   4.498   5.684   4.881  0.1576  0.3742 -0.5748
11732TIP3    H156687   4.440   5.734   4.939  0.7912 -0.5472  0.9181
11732TIP3    H256688   4.520   5.605   4.932  1.1624 -0.2242 -1.8801
11733TIP3   OH256689   3.227   1.632   3.902 -0.3931 -0.3615  0.5563
11733TIP3    H156690   3.203   1.572   3.832 -0.3177 -1.1809  1.2133
11733TIP3    H256691   3.227   1.578   3.981  2.1954 -0.0925  0.8045
11734TIP3   OH256692   1.402   5.755   4.192 -0.0100  0.9145 -0.2874
11734TIP3    H156693   1.307   5.747   4.199  0.0806 -0.0294  0.0133
11734TIP3    H256694   1.420   5.744   4.098  0.0762 -2.8284  0.0233
11735TIP3   OH256695   5.723   4.479  11.716  0.1281  0.1051 -0.4150
11735TIP3    H156696   5.741   4.421  11.790 -0.1363  2.8870  2.0422
11735TIP3    H256697   5.808   4.517  11.693 -0.1315  1.1464  0.2519
11736TIP3   OH256698   4.021   4.853  15.246  0.8828 -0.3643  0.0005
11736TIP3    H156699   3.933   4.873  15.277  0.5630  1.9635 -2.1188
11736TIP3    H256700   4.078   4.874  15.320 -0.2524 -1.4581  1.2443
11737TIP3   OH256701   2.208   0.144   3.581 -0.1235 -0.3355 -0.2927
11737TIP3    H156702   2.168   0.185   3.658 -0.4118  0.5878 -0.9120
11737TIP3    H256703   2.295   0.183   3.575  0.9618 -2.3607  1.0674
11738TIP3   OH256704   2.155   5.561   5.205 -0.2845  0.1405 -0.1038
11738TIP3    H156705   2.181   5.596   5.290 -1.2003  1.0349 -0.1684
11738TIP3    H256706   2.076   5.610   5.182  0.9078  1.1793 -2.2852
11739TIP3   OH256707   6.773   3.551  16.619 -0.2200 -0.6294  0.3421
11739TIP3    H156708   6.798   3.534  16.710 -0.0437  0.9183  0.6224
11739TIP3    H256709   6.703   3.617  16.626 -0.1794 -0.4754 -0.6375
11740TIP3   OH256710   2.735   1.283   5.011 -0.1587 -0.3608  0.3162
11740TIP3    H156711   2.816   1.276   4.959 -0.1995  0.5448  0.1137
11740TIP3    H256712   2.669   1.311   4.948 -0.7328 -1.5027  0.4001
11741TIP3   OH256713   5.477   0.110   2.360  0.0347 -0.2322  0.1264
11741TIP3    H156714   5.545   0.176   2.344 -0.5514 -0.1085 -2.1053
11741TIP3    H256715   5.484   0.049   2.287  0.2981 -2.5028  1.9405
11742TIP3   OH256716   0.017   3.118   4.304  0.1478 -0.5896  0.1886
11742TIP3    H156717   0.111   3.101   4.315  0.2229  0.4966  1.4296
11742TIP3    H256718  -0.023   3.032   4.313  0.9581 -0.9371  0.6746
11743TIP3   OH256719   3.534   0.425   1.126 -0.0096  0.4453  0.3374
11743TIP3    H156720   3.476   0.447   1.200  0.4822 -0.3850  0.9923
11743TIP3    H256721   3.475   0.391   1.059 -0.2091 -1.8937  1.5769
11744TIP3   OH256722   4.957   5.018   3.187  0.0680  0.1551  0.1034
11744TIP3    H156723   4.943   5.085   3.253 -1.7506  0.7468 -0.8310
11744TIP3    H256724   5.029   5.052   3.133 -0.5874  1.1734 -0.1357
11745TIP3   OH256725   4.648   1.833  15.406  0.4409 -0.5177 -0.2712
11745TIP3    H156726   4.715   1.767  15.388 -0.6711 -2.1536  1.3109
11745TIP3    H256727   4.664   1.861  15.496  0.3064  0.7044 -0.6006
11746TIP3   OH256728   2.268   1.697  11.526 -0.3155 -0.3541  0.2211
11746TIP3    H156729   2.311   1.781  11.545  0.2295 -0.5281 -0.2270
11746TIP3    H256730   2.339   1.633  11.529 -0.7511 -0.8247  0.6958
11747TIP3   OH256731   5.297   0.688  15.130  0.3433 -0.1914 -0.0056
11747TIP3    H156732   5.307   0.612  15.072  0.7282 -0.2607  0.1446
11747TIP3    H256733   5.254   0.653  15.208  0.9054 -0.3494  0.2401
11748TIP3   OH256734   1.854   6.298   0.424 -0.0002  0.6390  0.4058
11748TIP3    H156735   1.763   6.269   0.426  0.4977 -0.9954  0.5210
11748TIP3    H256736   1.875   6.303   0.331  0.3395 -0.8880  0.3737
11749TIP3   OH256737   1.789   2.708   1.012 -0.4936  0.9407 -0.5057
11749TIP3    H156738   1.824   2.743   1.094 -0.6770  1.1848 -0.5301
11749TIP3    H256739   1.828   2.621   1.005  1.3983  1.7843 -1.3085
11750TIP3   OH256740   4.339   5.848   5.029 -0.1056 -0.0022 -0.3270
11750TIP3    H156741   4.326   5.929   4.979  1.3298 -0.3837 -1.4057
11750TIP3    H256742   4.380   5.877   5.111 -0.6677  0.4647 -0.2108
11751TIP3   OH256743   3.148   1.173   2.571 -0.8925  0.0371 -0.0856
11751TIP3    H156744   3.059   1.136   2.572 -0.8349 -0.1184 -0.5964
11751TIP3    H256745   3.199   1.111   2.518 -0.2060 -0.4913  1.1462
11752TIP3   OH256746   3.005   2.003  12.259 -0.2013  0.5241 -0.3885
11752TIP3    H156747   2.995   1.969  12.348 -1.2653 -0.2388 -0.7724
11752TIP3    H256748   3.074   2.068  12.266 -0.9024  1.1652  1.1874
11753TIP3   OH256749   0.174   1.924  15.296 -0.2454 -0.2559  0.5776
11753TIP3    H156750   0.134   1.863  15.358  2.0197 -1.0735  1.3325
11753TIP3    H256751   0.165   1.881  15.210  0.2276 -1.1013  0.9361
11754TIP3   OH256752   4.684   4.794  16.203  0.0172 -0.7436  0.3055
11754TIP3    H156753   4.709   4.743  16.281 -2.4124 -0.9683  1.0124
11754TIP3    H256754   4.603   4.753  16.173  0.8540 -0.6046 -2.3683
11755TIP3   OH256755   1.058   1.089  11.981  0.3974 -0.3470 -0.5524
11755TIP3    H156756   1.010   1.171  11.967  0.7333 -0.2737 -1.3476
11755TIP3    H256757   1.095   1.098  12.069 -1.5037 -0.6562  0.3348
11756TIP3   OH256758   4.564   3.149  16.204 -0.0046  0.2175 -0.1567
11756TIP3    H156759   4.580   3.183  16.116 -0.4594 -0.0391 -0.3379
11756TIP3    H256760   4.469   3.153  16.215 -0.3085 -2.7227 -0.8894
11757TIP3   OH256761   3.649   2.638  16.700 -0.1671 -0.1447  0.3542
11757TIP3    H156762   3.603   2.591  16.770 -1.0065  2.3802  1.6107
11757TIP3    H256763   3.612   2.726  16.701  1.9322  0.8582 -1.2783
11758TIP3   OH256764   2.948   2.277   4.819  0.0675 -0.9753 -0.3484
11758TIP3    H156765   2.949   2.182   4.834  0.4948 -0.9783 -0.4056
11758TIP3    H256766   3.005   2.313   4.886 -0.6383 -0.6872  0.1150
11759TIP3   OH256767   1.809   2.471   4.705  0.3463 -0.5685  0.3872
11759TIP3    H156768   1.742   2.403   4.693 -0.2533 -0.3365  2.0318
11759TIP3    H256769   1.892   2.425   4.697  0.0206 -0.9061 -1.4777
11760TIP3   OH256770   3.078   1.592  10.739  0.2874 -0.3575 -0.3358
11760TIP3    H156771   3.100   1.618  10.650  0.0329  0.4519 -0.1708
11760TIP3    H256772   2.988   1.623  10.752  0.6443  0.3801  0.5055
11761TIP3   OH256773   2.466   4.473   1.931  0.0923 -0.9208  0.0247
11761TIP3    H156774   2.501   4.399   1.882 -0.0433 -1.5653  0.8822
11761TIP3    H256775   2.414   4.434   2.001  0.3985 -0.0303  0.7795
11762TIP3   OH256776   1.740   5.203  13.659 -0.1558 -0.3765 -0.4224
11762TIP3    H156777   1.667   5.214  13.598 -0.2458  0.2901 -0.2062
11762TIP3    H256778   1.818   5.221  13.605 -0.0774 -1.9002 -0.8559
11763TIP3   OH256779   6.427   6.515  15.832  0.1305 -0.6876 -0.0728
11763TIP3    H156780   6.363   6.579  15.803  1.4859  0.4511 -0.6619
11763TIP3    H256781   6.396   6.487  15.918 -0.8406  0.2608 -0.0987
11764TIP3   OH256782   4.785   5.733  12.578 -0.1542 -0.2914  0.7082
11764TIP3    H156783   4.867   5.694  12.547 -0.8314  0.1901 -1.9838
11764TIP3    H256784   4.809   5.820  12.608  0.3395 -0.1748 -0.0161
11765TIP3   OH256785   4.562   3.204   1.199 -0.0747 -0.7397 -0.3466
11765TIP3    H156786   4.605   3.187   1.283 -0.0569 -2.4814 -0.6755
11765TIP3    H256787   4.624   3.259   1.151  1.6033 -2.7127 -0.5887
11766TIP3   OH256788   4.277   2.664  14.463 -0.0470  0.1987  0.5017
11766TIP3    H156789   4.361   2.676  14.418 -0.1668  0.8499  0.4504
11766TIP3    H256790   4.228   2.744  14.445 -1.5231 -1.0307 -1.2358
11767TIP3   OH256791   2.497   4.047  13.126 -0.0757 -0.7593 -0.1781
11767TIP3    H156792   2.526   4.026  13.215  1.1746  0.7676 -0.1846
11767TIP3    H256793   2.578   4.059  13.077 -0.7087 -3.1149 -1.9652
11768TIP3   OH256794   1.063   0.259   5.946 -0.3919  0.1487  0.4125
11768TIP3    H156795   1.082   0.321   5.876 -0.1010 -1.3694 -0.9066
11768TIP3    H256796   1.149   0.237   5.982 -0.4979  0.5424  0.9113
11769TIP3   OH256797   6.467   5.133  15.517  0.2503  0.2160 -1.1023
11769TIP3    H156798   6.529   5.156  15.586 -1.9463  0.3146  0.9535
11769TIP3    H256799   6.522   5.105  15.444  2.6949 -0.3602  0.8317
11770TIP3   OH256800   2.159   6.315  13.321 -0.5422 -0.1301 -0.8152
11770TIP3    H156801   2.141   6.335  13.413 -2.0894  1.2077 -1.3848
11770TIP3    H256802   2.073   6.302  13.281  0.1555 -2.8586 -1.6708
11771TIP3   OH256803   1.686   2.088   5.563  0.2253  0.6300  0.1957
11771TIP3    H156804   1.617   2.105   5.627 -0.7338 -0.0499 -0.6139
11771TIP3    H256805   1.762   2.137   5.595 -1.6676  4.6006 -0.7731
11772TIP3   OH256806   1.597   2.158  16.083 -0.2687 -0.2300 -0.5635
11772TIP3    H156807   1.516   2.208  16.084 -1.3021 -1.8314 -0.0918
11772TIP3    H256808   1.618   2.143  16.175  1.6483  1.7424 -0.5990
11773TIP3   OH256809   1.792   5.384  11.296  0.1781 -0.3869 -0.2552
11773TIP3    H156810   1.816   5.443  11.224  1.1916 -0.4662  0.0046
11773TIP3    H256811   1.875   5.360  11.336 -0.2620 -1.6564 -0.0722
11774TIP3   OH256812   5.468   1.640  15.534 -0.2179  0.0922  0.0951
11774TIP3    H156813   5.451   1.601  15.620  0.3823  0.6216  0.4674
11774TIP3    H256814   5.425   1.726  15.538 -0.0115  0.2023 -0.0603
11775TIP3   OH256815   2.510   1.046  14.570 -0.1435 -0.1015 -0.0397
11775TIP3    H156816   2.487   1.135  14.546 -0.8973 -0.1234  0.5507
11775TIP3    H256817   2.586   1.025  14.516  0.2709  1.0272  0.0854
11776TIP3   OH256818   2.559   1.523   5.908  0.2197  0.0122  0.3107
11776TIP3    H156819   2.532   1.566   5.989  0.8696  2.9482 -0.8933
11776TIP3    H256820   2.643   1.564   5.886 -0.4554  0.1326 -2.3756
11777TIP3   OH256821   0.690   5.374   4.828 -0.2551  0.6003 -0.0715
11777TIP3    H156822   0.643   5.315   4.770 -1.0854  1.7846 -0.6495
11777TIP3    H256823   0.714   5.320   4.903 -2.8296  0.0129  0.4132
11778TIP3   OH256824   5.182   5.344  12.790 -0.2788 -0.1767 -0.1438
11778TIP3    H156825   5.249   5.309  12.848  0.6363 -1.6394 -1.9818
11778TIP3    H256826   5.231   5.375  12.713 -1.5096  0.9756 -0.4931
11779TIP3   OH256827   2.280   3.644   3.790 -0.2810  0.3049  0.1865
11779TIP3    H156828   2.276   3.657   3.885  0.1716 -0.3087  0.2981
11779TIP3    H256829   2.237   3.721   3.753  0.8224  1.2790  0.8495
11780TIP3   OH256830   1.007   5.505  12.160  0.7870 -0.4567  0.7402
11780TIP3    H156831   1.066   5.578  12.143  1.5185 -1.1247  0.3428
11780TIP3    H256832   1.021   5.445  12.087 -1.2910 -0.0813 -0.0213
11781TIP3   OH256833   2.018   2.619   5.977 -0.7073  0.0019 -0.2096
11781TIP3    H156834   2.035   2.650   5.887  0.3005  0.4901  0.1321
11781TIP3    H256835   2.035   2.696   6.032 -1.5853 -0.2182  0.3871
11782TIP3   OH256836   5.674   4.954  17.056 -0.3183  0.2485 -0.6673
11782TIP3    H156837   5.722   4.906  16.989 -0.7725 -1.9199  0.4931
11782TIP3    H256838   5.586   4.917  17.054 -0.3054  0.0512  1.1948
11783TIP3   OH256839   5.540   3.660  14.669  0.0079  0.2541 -0.3701
11783TIP3    H156840   5.539   3.590  14.603  2.4395 -0.7496  0.5464
11783TIP3    H256841   5.449   3.669  14.696 -0.9973  0.3143 -3.4151
11784TIP3   OH256842   0.896   1.710  14.369  0.4961 -0.0451  0.2274
11784TIP3    H156843   0.872   1.695  14.460 -0.9729 -1.8793 -0.3976
11784TIP3    H256844   0.903   1.622  14.331  1.7976  0.6587 -1.2610
11785TIP3   OH256845   3.082   0.636   4.190  0.1741  0.0044 -0.3624
11785TIP3    H156846   3.151   0.698   4.212 -0.0951  0.9094 -1.8551
11785TIP3    H256847   3.099   0.614   4.098 -0.4080 -1.2667 -0.1835
11786TIP3   OH256848   4.505   1.919   5.476  0.7256 -0.3298 -0.0826
11786TIP3    H156849   4.524   1.883   5.563  0.9927  1.3237  0.5815
11786TIP3    H256850   4.412   1.942   5.480  0.0560 -2.4918 -1.1338
11787TIP3   OH256851   2.169   2.215   1.107  0.4215 -0.3001 -0.0122
11787TIP3    H156852   2.207   2.131   1.136  0.6356 -0.3461 -0.4246
11787TIP3    H256853   2.229   2.246   1.039  0.8101  0.5946  0.7063
11788TIP3   OH256854   1.522   4.796   0.246 -0.4104  0.3643 -0.3285
11788TIP3    H156855   1.604   4.767   0.206 -0.8040  0.1745 -1.0155
11788TIP3    H256856   1.455   4.743   0.204 -0.7464 -0.6352  1.3863
11789TIP3   OH256857   0.363   6.765   1.361  0.6439 -0.0490  0.1309
11789TIP3    H156858   0.415   6.692   1.326 -0.2130 -0.0564 -1.1803
11789TIP3    H256859   0.313   6.725   1.432  1.7851 -0.2263  0.8671
11790TIP3   OH256860   1.715   3.984  11.910  0.5239  0.3889 -0.8845
11790TIP3    H156861   1.749   3.932  11.836  1.5505 -3.0031  1.7005
11790TIP3    H256862   1.793   4.023  11.949  0.1482  1.1357 -0.8798
11791TIP3   OH256863   5.264   3.357   3.094 -0.3484  0.5186  0.0463
11791TIP3    H156864   5.236   3.391   3.179  1.1594  0.4844  0.5870
11791TIP3    H256865   5.210   3.280   3.079 -0.3176  0.2697  1.1922
11792TIP3   OH256866   4.787   2.060   6.147 -0.1362 -0.6437  0.0444
11792TIP3    H156867   4.830   2.135   6.189  0.6011 -1.8759  1.5802
11792TIP3    H256868   4.695   2.069   6.171 -0.0359 -0.2947  0.3022
11793TIP3   OH256869   1.947   3.508   5.061  0.2360  0.3630  0.2966
11793TIP3    H156870   1.939   3.446   5.134  2.2482  1.0317  1.1651
11793TIP3    H256871   1.923   3.458   4.983 -2.8914 -0.1479  1.4207
11794TIP3   OH256872   5.703   6.084   1.210 -0.4005 -0.0557 -0.0590
11794TIP3    H156873   5.777   6.107   1.154  0.9297 -3.6128  0.0329
11794TIP3    H256874   5.640   6.043   1.150  0.3985 -2.5447  0.7137
11795TIP3   OH256875   1.212   2.405  16.723 -0.1315  0.1232  0.3051
11795TIP3    H156876   1.118   2.397  16.738 -0.0342  0.2331  0.9858
11795TIP3    H256877   1.226   2.498  16.706 -0.2797 -0.0380 -0.7986
11796TIP3   OH256878   2.574   2.991  10.977  0.1173 -0.0742  0.2789
11796TIP3    H156879   2.524   2.996  11.059 -2.1868  0.1555 -1.0408
11796TIP3    H256880   2.508   3.004  10.908  1.9507 -0.3334 -1.6277
11797TIP3   OH256881   2.801   3.945  14.983  0.1143 -0.4236  0.0132
11797TIP3    H156882   2.772   3.953  14.892  0.9441  1.0622 -0.1608
11797TIP3    H256883   2.848   4.027  15.000 -0.0355 -0.6736  1.7895
11798TIP3   OH256884   6.008   5.271  16.050 -0.3816  0.3620  0.6517
11798TIP3    H156885   5.929   5.224  16.078 -0.2029  1.0303  2.3487
11798TIP3    H256886   5.992   5.290  15.957 -1.2980 -1.3275  0.4158
11799TIP3   OH256887   1.261   1.371  14.046  0.4899  0.8266  0.2639
11799TIP3    H156888   1.189   1.322  14.005 -0.0912 -0.9109  3.0572
11799TIP3    H256889   1.233   1.463  14.040 -0.9452  0.3758 -0.5615
11800TIP3   OH256890   5.235   3.269  14.966 -0.5217  0.1823 -0.2657
11800TIP3    H156891   5.328   3.266  14.987 -0.7644  0.2603  0.9247
11800TIP3    H256892   5.193   3.293  15.049 -1.5826  0.3541 -0.8332
11801TIP3   OH256893   5.628   3.177  10.943 -0.0015  0.2096  0.0122
11801TIP3    H156894   5.711   3.133  10.960 -1.1787 -1.6458  1.4075
11801TIP3    H256895   5.606   3.150  10.854  0.5871  0.1794 -0.1305
11802TIP3   OH256896   1.071   0.853   2.816  0.2326 -0.1333  0.1646
11802TIP3    H156897   1.090   0.859   2.910  0.7736  2.2583 -0.0319
11802TIP3    H256898   1.022   0.933   2.797  0.6649 -0.2694 -1.6916
11803TIP3   OH256899   6.112   5.344   1.156 -0.2654  0.4925  0.3236
11803TIP3    H156900   6.069   5.259   1.164  0.8083 -0.3023 -1.7287
11803TIP3    H256901   6.198   5.332   1.197 -1.0166  1.3763  2.2722
11804TIP3   OH256902   2.262   2.526   2.810 -0.4087 -0.3271  0.5570
11804TIP3    H156903   2.269   2.608   2.760  1.7355  0.7073  2.3527
11804TIP3    H256904   2.199   2.546   2.880  0.9513  0.2565  1.6729
11805TIP3   OH256905   5.548   2.192  16.516  0.2374 -0.1471  0.2276
11805TIP3    H156906   5.572   2.124  16.453 -0.2408 -0.8809  0.8305
11805TIP3    H256907   5.630   2.240  16.532  0.7830 -1.1341  0.4670
11806TIP3   OH256908   2.703   6.815  11.536  0.0957  0.8683  0.4057
11806TIP3    H156909   2.697   6.896  11.487 -1.6305  1.1885  1.0773
11806TIP3    H256910   2.619   6.771  11.522  0.8872 -0.6992  0.2624
11807TIP3   OH256911   6.088   6.714   0.672 -0.2047  0.5015 -0.0948
11807TIP3    H156912   6.026   6.727   0.600  0.4230 -0.7661 -0.9042
11807TIP3    H256913   6.172   6.741   0.636  0.0648  0.1431  0.2532
11808TIP3   OH256914   6.801   3.146  15.106 -0.4934 -0.6839  0.1597
11808TIP3    H156915   6.866   3.089  15.065 -0.4742 -0.4236 -0.1767
11808TIP3    H256916   6.725   3.090  15.122 -0.2613 -0.9421  0.3696
11809TIP3   OH256917   5.742   0.192   1.488  0.1625  0.1571 -0.0044
11809TIP3    H156918   5.724   0.264   1.548 -0.9166 -0.0124 -0.1032
11809TIP3    H256919   5.838   0.190   1.481  0.2583  0.8452  0.8850
11810TIP3   OH256920   1.298   3.030  17.065 -0.4528 -0.5210  0.5191
11810TIP3    H156921   1.208   3.060  17.078 -0.0468  1.6715 -1.2646
11810TIP3    H256922   1.343   3.053  17.146 -1.3108 -1.0348  1.1649
11811TIP3   OH256923   3.194   0.048   4.493  0.0805 -0.2809 -1.0882
11811TIP3    H156924   3.149  -0.003   4.426 -0.3666 -0.2804 -0.7937
11811TIP3    H256925   3.287   0.035   4.475 -0.0210 -1.6631 -0.6590
11812TIP3   OH256926   0.438   2.775   1.598 -0.4677 -0.2374  0.1436
11812TIP3    H156927   0.397   2.689   1.584  0.1323 -0.6778  1.0645
11812TIP3    H256928   0.373   2.824   1.649  0.1912 -1.0020  1.7745
11813TIP3   OH256929   2.106   4.634  14.190  0.2455  0.1767 -0.2967
11813TIP3    H156930   2.116   4.599  14.279 -0.1354 -0.2771 -0.4246
11813TIP3    H256931   2.194   4.632  14.153  0.3946  0.2966  0.0472
11814TIP3   OH256932   2.911   6.316   3.505  0.0997 -0.1024 -0.3963
11814TIP3    H156933   2.945   6.339   3.419 -0.2421 -1.0170 -0.7870
11814TIP3    H256934   2.894   6.222   3.500 -2.0871  0.2231 -0.1161
11815TIP3   OH256935   4.041   3.124   4.739 -0.5266 -0.2980  0.6405
11815TIP3    H156936   4.026   3.094   4.828 -0.6522  0.3965  0.8640
11815TIP3    H256937   4.098   3.200   4.749 -0.4308 -0.2987  0.1191
11816TIP3   OH256938   1.763   1.173  13.833 -0.2197 -0.1325  0.4457
11816TIP3    H156939   1.667   1.170  13.841 -0.8221  1.2414 -3.6794
11816TIP3    H256940   1.784   1.266  13.834  1.1734 -0.4274  1.5830
11817TIP3   OH256941   2.137   3.560  16.535  0.2233 -0.7906  0.3666
11817TIP3    H156942   2.086   3.640  16.540 -1.9647 -1.9523 -1.3383
11817TIP3    H256943   2.174   3.559  16.446  3.4193  0.0218  1.5433
11818TIP3   OH256944   0.880   1.667   0.861  0.4069  0.0203 -0.0796
11818TIP3    H156945   0.928   1.688   0.781 -1.2194  1.2858 -0.7633
11818TIP3    H256946   0.929   1.712   0.930 -0.6706  2.7883 -0.9924
11819TIP3   OH256947   0.901   1.844  16.201 -0.5191 -0.4417 -0.3163
11819TIP3    H156948   0.907   1.909  16.131 -0.3747  1.6152  1.5149
11819TIP3    H256949   0.812   1.809  16.193 -0.5273 -0.2213 -1.4604
11820TIP3   OH256950   5.190   4.349  13.036  0.4390  0.4172  0.4110
11820TIP3    H156951   5.102   4.337  13.071  0.1422 -0.7720 -0.6980
11820TIP3    H256952   5.244   4.286  13.085  0.4542  0.3272  0.2775
11821TIP3   OH256953   1.082   5.764   0.485 -0.6324 -0.3470  0.2169
11821TIP3    H156954   1.007   5.706   0.477 -0.7726  0.0305 -1.8479
11821TIP3    H256955   1.052   5.848   0.450 -0.1350  0.7362  2.2302
11822TIP3   OH256956   6.011   4.600   2.861 -0.3762  0.7919  0.4196
11822TIP3    H156957   5.997   4.549   2.781  3.2467  0.3206 -0.0486
11822TIP3    H256958   5.979   4.542   2.931  1.9456 -1.4812 -0.2545
11823TIP3   OH256959   0.285   5.739   7.108 -0.0321  0.3216 -0.2360
11823TIP3    H156960   0.266   5.812   7.166  0.2104 -0.5674  0.9942
11823TIP3    H256961   0.203   5.721   7.063 -0.7470 -0.1998  1.2430
11824TIP3   OH256962   4.967   3.541   2.037 -0.1579  0.4244 -0.7114
11824TIP3    H156963   4.949   3.586   2.119  0.3807  0.0967 -0.4074
11824TIP3    H256964   5.038   3.592   1.997  0.0880  0.1601 -0.6185
11825TIP3   OH256965   6.030   1.152  11.078  0.0146  0.0722  0.3079
11825TIP3    H156966   6.014   1.086  11.144 -0.7293 -1.6269 -1.4861
11825TIP3    H256967   5.944   1.170  11.040  0.5003  0.5701 -0.5844
11826TIP3   OH256968   4.811   2.985   2.917 -0.0940 -0.0912  0.0198
11826TIP3    H156969   4.849   3.034   2.844  0.1048 -0.5664 -0.1960
11826TIP3    H256970   4.739   3.041   2.948  1.3459  1.2793  1.0522
11827TIP3   OH256971   2.209   3.386   3.658 -0.2491  0.5061 -0.2176
11827TIP3    H156972   2.276   3.437   3.703 -0.6820 -0.1710  1.2655
11827TIP3    H256973   2.128   3.434   3.674 -0.6120 -0.4342  0.9463
11828TIP3   OH256974   5.329   6.543  16.342  0.4216  0.6180 -0.5242
11828TIP3    H156975   5.322   6.602  16.417 -0.5987 -1.2775  0.9922
11828TIP3    H256976   5.414   6.501  16.353 -0.1055 -0.3235  0.1603
11829TIP3   OH256977   5.707   5.683  16.263 -0.6421  0.2962 -0.1987
11829TIP3    H156978   5.699   5.778  16.255  1.1146  0.4307 -0.9325
11829TIP3    H256979   5.746   5.656  16.179  1.8467 -0.6345  1.1508
11830TIP3   OH256980   1.279   6.514  16.611  0.0545 -0.2537 -0.3790
11830TIP3    H156981   1.282   6.471  16.697 -0.3358  0.8555  0.2187
11830TIP3    H256982   1.236   6.598  16.628  1.9597  0.9667 -1.2409
11831TIP3   OH256983   6.547   5.627   4.186 -0.1989  0.1606 -0.6737
11831TIP3    H156984   6.502   5.561   4.134 -0.2752  0.5778 -1.1443
11831TIP3    H256985   6.526   5.604   4.277  0.6703 -1.0848 -0.7776
11832TIP3   OH256986   0.402   0.253  16.664 -0.0441 -0.4861 -0.1105
11832TIP3    H156987   0.392   0.192  16.737 -0.8767 -0.6776 -0.3732
11832TIP3    H256988   0.318   0.251  16.619  0.5634 -0.6444 -1.2906
11833TIP3   OH256989   1.835   4.455  16.041 -0.3107 -0.0811 -0.2893
11833TIP3    H156990   1.862   4.466  16.133  1.3783 -0.7181 -0.6689
11833TIP3    H256991   1.743   4.433  16.046 -0.1417 -0.5881  1.2955
11834TIP3   OH256992   4.197   3.501   2.159 -0.1094 -0.5020  0.2573
11834TIP3    H156993   4.160   3.435   2.100  1.6536 -0.1131 -1.3752
11834TIP3    H256994   4.290   3.502   2.138  0.2176  1.1446  1.6188
11835TIP3   OH256995   2.926   1.394  11.598 -0.7574 -0.3983  0.3447
11835TIP3    H156996   2.929   1.458  11.527 -2.9650 -1.3854 -0.7483
11835TIP3    H256997   2.974   1.435  11.670 -0.8248  1.8133 -0.8035
11836TIP3   OH256998   0.836   3.012  13.883  0.1697 -0.2271  0.0661
11836TIP3    H156999   0.834   2.951  13.957  1.1290 -0.6390 -0.2343
11836TIP3    H257000   0.895   3.082  13.910 -0.7144  0.4399  0.3017
11837TIP3   OH257001   2.071   1.313   3.528 -0.2452 -0.4941  0.9492
11837TIP3    H157002   2.048   1.252   3.458 -2.1511 -0.5709  1.5870
11837TIP3    H257003   2.161   1.290   3.551  0.1688 -0.9699 -0.9310
11838TIP3   OH257004   0.426   6.600  16.149 -0.3782  0.5836 -0.2804
11838TIP3    H157005   0.420   6.658  16.073 -0.4083  0.8710 -0.0608
11838TIP3    H257006   0.348   6.619  16.200  0.7363  2.0374  0.9710
11839TIP3   OH257007   5.045   1.473   3.730  0.3998  0.2340  0.1740
11839TIP3    H157008   5.109   1.405   3.753 -1.2447 -1.8675 -1.0866
11839TIP3    H257009   5.091   1.528   3.666  0.7886 -1.7159 -1.3260
11840TIP3   OH257010   5.705   4.291   2.063 -0.2915  0.2196 -0.0901
11840TIP3    H157011   5.655   4.288   1.981 -1.2681 -5.0729  0.3558
11840TIP3    H257012   5.643   4.263   2.130  2.0831 -2.3461  1.2119
11841TIP3   OH257013   1.695   4.524   6.054  0.0331  0.4164 -0.4192
11841TIP3    H157014   1.669   4.610   6.021 -1.1651  1.1173  2.1053
11841TIP3    H257015   1.631   4.463   6.017 -1.7477  1.2850  1.0672
11842TIP3   OH257016   0.986   1.143  14.717  0.1897  0.1386  0.5721
11842TIP3    H157017   1.007   1.066  14.769 -0.5389 -0.9319 -0.6505
11842TIP3    H257018   0.992   1.113  14.626 -2.0776  0.9478  0.0855
11843TIP3   OH257019   4.974   6.030   4.805  0.4918  0.1853 -0.1715
11843TIP3    H157020   4.891   5.983   4.806 -0.2058  1.3258 -1.1219
11843TIP3    H257021   5.034   5.975   4.855 -1.4770  0.5501  2.7968
11844TIP3   OH257022   3.037   1.881   3.371 -0.4038 -0.7478  0.0729
11844TIP3    H157023   3.090   1.803   3.383  0.1661 -0.2284  1.0144
11844TIP3    H257024   3.075   1.925   3.296  0.6003 -0.3106  0.8233
11845TIP3   OH257025   2.004   1.126  11.468 -0.7473 -0.1995  0.1427
11845TIP3    H157026   2.069   1.081  11.414  2.0355  3.7114 -0.2319
11845TIP3    H257027   1.928   1.137  11.410  0.7942  0.7144 -1.8284
11846TIP3   OH257028   6.401   2.814  14.561 -0.6071  0.3451 -0.5295
11846TIP3    H157029   6.376   2.867  14.637 -0.5773  1.6360 -1.3929
11846TIP3    H257030   6.320   2.804  14.511  0.1679  3.3729 -2.6281
11847TIP3   OH257031   0.428   6.784   5.771  0.5683 -0.7919 -0.2114
11847TIP3    H157032   0.396   6.754   5.855 -0.7552 -1.1285 -0.8100
11847TIP3    H257033   0.353   6.777   5.712  0.9681  1.0533 -1.0318
11848TIP3   OH257034   5.079   1.870   5.605 -0.3429 -0.0722 -0.6701
11848TIP3    H157035   5.128   1.839   5.681 -1.1521 -0.9676 -0.4888
11848TIP3    H257036   5.112   1.819   5.532  0.0477  0.3968 -0.8235
11849TIP3   OH257037   6.678   4.683   0.076 -0.8472 -0.3848 -0.0213
11849TIP3    H157038   6.633   4.767   0.075  1.1433  0.7324 -0.3558
11849TIP3    H257039   6.704   4.668  -0.016  0.2953 -0.4859  0.2959
11850TIP3   OH257040   6.026   2.890   2.549  0.1696 -0.3572 -0.5342
11850TIP3    H157041   5.977   2.848   2.479 -0.4894 -2.2696  0.9946
11850TIP3    H257042   5.968   2.887   2.625  2.2041 -1.8626  1.1101
11851TIP3   OH257043   0.484   4.946  10.541  0.6850 -0.5416 -0.2204
11851TIP3    H157044   0.544   4.901  10.601  1.6283 -0.4027 -1.0390
11851TIP3    H257045   0.435   4.875  10.498  1.0114 -0.7038 -0.3229
11852TIP3   OH257046   6.462   4.489   4.212 -0.0923 -0.0389  0.1501
11852TIP3    H157047   6.498   4.417   4.160  0.5873 -0.4995  1.2260
11852TIP3    H257048   6.370   4.466   4.225  0.2704 -1.0530  1.0248
11853TIP3   OH257049   1.403   4.163  12.502 -0.1229 -0.1102  0.1811
11853TIP3    H157050   1.348   4.085  12.506 -0.3737  0.1149  1.9305
11853TIP3    H257051   1.417   4.188  12.594  2.1735  0.3523 -0.2141
11854TIP3   OH257052   4.634   4.481   0.903  0.2630  0.5323  0.3400
11854TIP3    H157053   4.684   4.400   0.895  1.0860  0.8292  1.9367
11854TIP3    H257054   4.698   4.550   0.882  0.0666  0.8415  0.7569
11855TIP3   OH257055   2.806   0.164  16.087 -0.2221  0.4196 -0.1064
11855TIP3    H157056   2.745   0.170  16.161  0.2979 -0.7892  0.4429
11855TIP3    H257057   2.892   0.150  16.129  0.1470  0.1931 -0.9311
11856TIP3   OH257058   0.791   0.045   0.499  0.0986 -0.0789 -0.3504
11856TIP3    H157059   0.720  -0.016   0.481 -0.1993 -0.3109  1.4632
11856TIP3    H257060   0.810   0.034   0.592  2.1261  0.3962 -0.6599
11857TIP3   OH257061   2.476   4.561   1.110  0.0886  0.0731 -0.0910
11857TIP3    H157062   2.414   4.488   1.102  0.7877 -0.3749 -1.8173
11857TIP3    H257063   2.484   4.596   1.021  1.0335  1.2002  0.4101
11858TIP3   OH257064   6.205   0.436   5.168  0.3552 -0.3630 -0.1177
11858TIP3    H157065   6.158   0.354   5.182 -2.0966  0.9899  0.0653
11858TIP3    H257066   6.151   0.503   5.210  1.9400  1.4516 -0.7911
11859TIP3   OH257067   3.055   6.752   0.607  0.2210 -0.7278  0.6515
11859TIP3    H157068   3.103   6.698   0.670  2.7913  0.3880 -0.2396
11859TIP3    H257069   3.110   6.829   0.593 -1.5620  0.3609 -0.9302
11860TIP3   OH257070   1.700   1.965   4.553  0.2356  0.0872 -0.1375
11860TIP3    H157071   1.734   1.963   4.463  0.6461  0.4956  0.0035
11860TIP3    H257072   1.778   1.958   4.608  0.0237  0.3181  0.1912
11861TIP3   OH257073   1.787   5.618  13.353  0.1498 -0.6050  0.1106
11861TIP3    H157074   1.832   5.607  13.437 -0.7437  0.5072  0.7581
11861TIP3    H257075   1.836   5.686  13.308  1.3731 -2.0398 -0.8447
11862TIP3   OH257076   4.644   4.595   4.302  0.2531 -0.1670  0.1013
11862TIP3    H157077   4.707   4.564   4.367  1.9372 -0.1335 -1.4515
11862TIP3    H257078   4.614   4.679   4.336  1.7061  0.2241  0.4657
11863TIP3   OH257079   0.820   1.916   4.780 -0.1870  0.0934 -0.3283
11863TIP3    H157080   0.799   1.986   4.719  0.1726  0.6665  0.1913
11863TIP3    H257081   0.888   1.865   4.736  1.9270  1.9582  0.5519
11864TIP3   OH257082   1.958   3.567  15.033  0.4858  0.2804 -0.1964
11864TIP3    H157083   2.054   3.557  15.037  0.6054  0.4005 -1.9829
11864TIP3    H257084   1.944   3.656  15.001 -0.2967  0.8935  1.7260
11865TIP3   OH257085   2.947   2.959  13.637  0.1804 -0.3222 -0.4799
11865TIP3    H157086   2.903   2.974  13.554  0.5360 -0.0305 -0.6213
11865TIP3    H257087   3.040   2.950  13.614  0.7921  3.0693  0.1503
11866TIP3   OH257088   2.824   2.035   2.527  0.3691  0.8712  0.0768
11866TIP3    H157089   2.791   2.124   2.539  0.4083  0.6909  1.6757
11866TIP3    H257090   2.768   1.980   2.581  1.6710  0.2327  0.8514
11867TIP3   OH257091   6.378   6.042   3.047 -0.5124  0.1422  0.1426
11867TIP3    H157092   6.470   6.058   3.027 -0.1521 -0.9713  0.8080
11867TIP3    H257093   6.351   6.117   3.100 -0.5559  1.4465 -1.6584
11868TIP3   OH257094   0.884   3.309   1.720 -0.0825 -0.0005 -0.1050
11868TIP3    H157095   0.869   3.237   1.781 -0.3944 -1.0313 -1.3543
11868TIP3    H257096   0.979   3.319   1.717 -0.0730  0.2494  0.7390
11869TIP3   OH257097   2.929   4.289  16.414 -0.2794  0.2437 -0.1589
11869TIP3    H157098   2.991   4.217  16.412  1.2438  1.4110  1.3834
11869TIP3    H257099   2.962   4.352  16.350  0.3430  0.9684  0.8253
11870TIP3   OH257100   0.041   4.951  15.542 -0.1491  0.3999  0.2470
11870TIP3    H157101  -0.008   4.868  15.547 -2.0831  1.5851  2.6599
11870TIP3    H257102   0.104   4.946  15.614  2.3256 -0.3559 -1.7765
11871TIP3   OH257103   1.334   5.688   4.488  0.0345 -0.9381 -0.0635
11871TIP3    H157104   1.426   5.695   4.515 -0.5201  0.9340  1.6185
11871TIP3    H257105   1.290   5.653   4.565 -1.0666  1.0090  0.2618
11872TIP3   OH257106   6.784   0.999   0.571  0.0657  0.0641 -1.4646
11872TIP3    H157107   6.717   1.057   0.604  0.9758  0.7576 -0.8012
11872TIP3    H257108   6.822   1.046   0.496  1.0028  0.4957 -0.7472
11873TIP3   OH257109   5.203   0.982   5.249  0.3658  0.3966 -0.1582
11873TIP3    H157110   5.160   1.064   5.225  0.3141  0.2966 -0.4069
11873TIP3    H257111   5.137   0.934   5.299  0.6462  0.8262  0.6432
11874TIP3   OH257112   2.975   5.171  15.583 -0.8066 -0.0007 -0.1403
11874TIP3    H157113   2.986   5.219  15.665 -3.1975 -0.2615  0.3801
11874TIP3    H257114   3.014   5.228  15.517 -1.5802  1.6526  0.7761
11875TIP3   OH257115   2.671   5.348  15.450  0.1551 -0.0505  0.1550
11875TIP3    H157116   2.735   5.395  15.397  0.7379 -0.5425  0.4087
11875TIP3    H257117   2.598   5.330  15.390  1.4126 -1.8857 -0.9313
11876TIP3   OH257118   6.418   3.316   2.403  0.2947 -0.2698  0.0613
11876TIP3    H157119   6.349   3.267   2.360 -1.9105  1.3175  1.5635
11876TIP3    H257120   6.489   3.321   2.338 -1.1909 -1.4903 -1.7395
11877TIP3   OH257121   4.372   0.584   2.017  0.2321  0.9204  0.3599
11877TIP3    H157122   4.339   0.522   2.082  1.9850  0.4737  0.8718
11877TIP3    H257123   4.423   0.646   2.068 -0.2904  1.9444 -0.3410
11878TIP3   OH257124   3.405   2.976  15.383 -0.2927  0.1292  0.1442
11878TIP3    H157125   3.354   3.054  15.362  1.0527  0.7370 -0.9917
11878TIP3    H257126   3.490   3.009  15.410  0.0511 -0.9243  0.4205
11879TIP3   OH257127   4.177   1.592  14.739 -0.0956  0.2374  0.0598
11879TIP3    H157128   4.139   1.665  14.690  1.2651  0.1808 -1.1561
11879TIP3    H257129   4.134   1.514  14.702  0.5890  0.2310 -0.7622
11880TIP3   OH257130   5.939   2.915   6.511  0.5761  0.1461  0.7437
11880TIP3    H157131   5.856   2.869   6.499  0.6396 -0.5580  2.6480
11880TIP3    H257132   5.938   2.985   6.445 -0.6174 -1.0641 -0.5835
11881TIP3   OH257133   2.163   0.652  12.130  0.2184  0.7707 -0.1048
11881TIP3    H157134   2.257   0.667  12.125  0.3604  1.7837  3.1645
11881TIP3    H257135   2.125   0.740  12.123 -0.3015  0.6307  0.8876
11882TIP3   OH257136   2.321   5.713   1.266 -0.1845  0.4111 -0.0235
11882TIP3    H157137   2.327   5.766   1.345 -1.2680  0.7541 -0.1552
11882TIP3    H257138   2.261   5.642   1.290 -0.0240  0.1663 -0.3423
11883TIP3   OH257139   6.451   3.476  14.493  0.0608  0.1954 -0.2574
11883TIP3    H157140   6.506   3.527  14.434  0.2425 -0.8117 -0.9862
11883TIP3    H257141   6.362   3.502  14.471  0.1097 -0.4238 -1.2269
11884TIP3   OH257142   2.314   6.194   6.040  0.2874 -0.2565  0.4207
11884TIP3    H157143   2.240   6.253   6.035  0.8407  0.3609 -1.7988
11884TIP3    H257144   2.288   6.127   6.103 -1.8247  0.3598  0.2620
11885TIP3   OH257145   6.710   0.960   2.246 -0.0494  0.2364 -0.0126
11885TIP3    H157146   6.615   0.957   2.255 -0.1786  1.3237 -0.8214
11885TIP3    H257147   6.743   0.949   2.336 -0.9719  0.7170  0.3961
11886TIP3   OH257148   6.051   2.793   0.160  0.0113  0.4967 -0.1313
11886TIP3    H157149   6.060   2.725   0.227  0.1174  1.1576  0.5363
11886TIP3    H257150   6.140   2.807   0.128 -0.3210 -1.6219 -2.2757
11887TIP3   OH257151   2.605   1.974  13.294  0.1387  0.3002  0.1316
11887TIP3    H157152   2.633   2.052  13.341  1.6971  0.0893 -0.3842
11887TIP3    H257153   2.516   1.957  13.326  0.5502  1.0664  1.8002
11888TIP3   OH257154   4.286   1.336   3.204  0.1960  0.2472 -0.5096
11888TIP3    H157155   4.333   1.306   3.126  2.6728 -0.5531  1.1698
11888TIP3    H257156   4.227   1.405   3.172  2.0877  0.8955 -2.8754
11889TIP3   OH257157   0.930   6.362  16.941 -0.0070  0.3418 -0.1541
11889TIP3    H157158   0.920   6.422  17.015 -1.2762 -1.3178  1.1166
11889TIP3    H257159   1.017   6.382  16.905 -0.7102  3.4490 -0.3646
11890TIP3   OH257160   4.003   1.430  11.135 -0.8502  0.0747 -0.0929
11890TIP3    H157161   4.057   1.496  11.178 -1.1516  0.6471 -0.5861
11890TIP3    H257162   4.004   1.355  11.196  0.4922  0.0710 -0.0920
11891TIP3   OH257163   4.620   4.728   3.128 -0.3099  0.4908 -0.6719
11891TIP3    H157164   4.670   4.692   3.202 -2.3291  1.8644  1.4912
11891TIP3    H257165   4.562   4.657   3.101 -1.0750  0.6362  0.5341
11892TIP3   OH257166   4.355   1.856  15.611 -0.5304 -0.0904 -0.3023
11892TIP3    H157167   4.391   1.771  15.587 -1.1478 -1.4038  2.8862
11892TIP3    H257168   4.429   1.903  15.650 -0.3449  0.6200 -1.4729
11893TIP3   OH257169   5.880   2.493  14.985 -0.7085  0.0720  0.6611
11893TIP3    H157170   5.901   2.560  15.049 -1.6983  0.9907  0.0666
11893TIP3    H257171   5.907   2.411  15.026  0.5081  0.8155  1.4112
11894TIP3   OH257172   5.287   1.209  12.056 -0.7120 -0.4821 -0.2302
11894TIP3    H157173   5.300   1.239  12.146 -0.1862  0.6222 -0.6555
11894TIP3    H257174   5.203   1.245  12.030 -0.1979  0.4526 -0.6546
11895TIP3   OH257175   2.168   5.862  11.457  0.1352 -0.2346  0.4873
11895TIP3    H157176   2.263   5.876  11.464  0.2849 -1.1454  0.5214
11895TIP3    H257177   2.156   5.771  11.484 -1.0822  0.5838  2.9650
11896TIP3   OH257178   4.930   1.908  11.808 -0.4545 -0.1962 -0.0322
11896TIP3    H157179   4.871   1.837  11.780 -0.0393 -1.7479  2.6317
11896TIP3    H257180   5.014   1.886  11.766 -0.8165 -0.1056 -0.8334
11897TIP3   OH257181   0.589   4.234   1.544 -0.2977 -0.1013 -0.0360
11897TIP3    H157182   0.632   4.184   1.475  0.0589 -0.5210  0.4801
11897TIP3    H257183   0.596   4.325   1.516  2.8096  0.1117  0.9568
11898TIP3   OH257184   5.700   1.401   2.563  0.6565  0.3868  0.6084
11898TIP3    H157185   5.689   1.456   2.641  0.4493 -0.3478  1.1031
11898TIP3    H257186   5.641   1.440   2.498 -0.9962 -0.3954  1.5770
11899TIP3   OH257187   6.666   3.154  16.503 -0.0881  0.6548  0.1793
11899TIP3    H157188   6.661   3.174  16.597  1.6444 -1.2507  0.7662
11899TIP3    H257189   6.731   3.215  16.469  1.1334 -0.2673  0.7879
11900TIP3   OH257190   0.752   3.406  12.605  0.0005 -0.4840 -0.5509
11900TIP3    H157191   0.760   3.313  12.582  1.5644 -0.6853  0.6301
11900TIP3    H257192   0.674   3.411  12.659  0.3365 -1.2701  0.0293
11901TIP3   OH257193   4.417   4.866   0.910  0.1451 -0.2046 -0.3314
11901TIP3    H157194   4.419   4.948   0.861 -1.2478  1.3597  2.0047
11901TIP3    H257195   4.402   4.799   0.844 -0.5554  1.6347 -2.1527
11902TIP3   OH257196   2.152   3.570  15.584 -0.4947  0.3581  0.2926
11902TIP3    H157197   2.204   3.504  15.538  0.9484  1.1255  0.7397
11902TIP3    H257198   2.107   3.617  15.514 -1.3609 -0.9334 -0.0417
11903TIP3   OH257199   3.920   5.691  14.161  0.3100 -0.1200 -0.4049
11903TIP3    H157200   3.841   5.738  14.187 -0.6060 -0.6467 -2.0901
11903TIP3    H257201   3.950   5.736  14.082  1.1139 -0.5581 -0.3624
11904TIP3   OH257202   3.805   4.843  11.084 -0.0412 -0.4763  0.5924
11904TIP3    H157203   3.757   4.886  11.013  1.1199 -0.3456 -0.1358
11904TIP3    H257204   3.750   4.768  11.108  0.2002 -1.3622 -1.4162
11905TIP3   OH257205   0.113   2.205   3.304  0.1171 -0.8981  0.5935
11905TIP3    H157206   0.190   2.225   3.358  0.8024  0.7487 -0.9209
11905TIP3    H257207   0.148   2.185   3.218 -1.1369 -0.3591 -0.0669
11906TIP3   OH257208   0.173   5.983  14.579 -0.0127  0.1420  0.0667
11906TIP3    H157209   0.108   5.957  14.514 -1.2340 -0.1613  1.3752
11906TIP3    H257210   0.233   6.041  14.531  0.5198 -1.8978 -1.9238
11907TIP3   OH257211   1.675   0.158   3.410  0.0066  0.2682  0.0902
11907TIP3    H157212   1.698   0.233   3.464 -1.3074  0.5017  0.3702
11907TIP3    H257213   1.742   0.156   3.342  0.9090  0.7894  0.9293
11908TIP3   OH257214   1.613   6.743  14.148 -0.5508  0.2495 -0.3572
11908TIP3    H157215   1.599   6.817  14.207 -0.7328 -1.9110  2.5699
11908TIP3    H257216   1.528   6.700  14.144 -0.0046 -0.8577 -0.3896
11909TIP3   OH257217   4.185   1.788  16.303  0.2121  0.4287  0.0646
11909TIP3    H157218   4.171   1.701  16.339  1.4918 -0.0781 -0.6011
11909TIP3    H257219   4.265   1.819  16.345 -0.1292  1.2040  0.1533
11910TIP3   OH257220   0.821   3.239  14.522 -0.0494  0.1247 -0.2788
11910TIP3    H157221   0.877   3.299  14.572 -2.0945  1.9101  0.0360
11910TIP3    H257222   0.789   3.291  14.449 -0.9290 -0.9724 -0.7065
11911TIP3   OH257223   1.597   2.223  11.520 -0.3692  0.3964 -0.0824
11911TIP3    H157224   1.571   2.179  11.601  0.4528 -1.0255 -0.5483
11911TIP3    H257225   1.679   2.267  11.542  0.0658 -0.3217 -0.2153
11912TIP3   OH257226   0.295   1.080   2.910 -0.2958 -0.1331 -0.0252
11912TIP3    H157227   0.245   1.070   2.991 -0.0235  3.0524  0.6531
11912TIP3    H257228   0.384   1.053   2.933 -0.2011  0.8345  0.7817
11913TIP3   OH257229   5.623   3.121   2.351 -0.3265  0.2140  0.0730
11913TIP3    H157230   5.654   3.184   2.285  1.1823  0.4316  0.9366
11913TIP3    H257231   5.703   3.077   2.381 -1.0617 -0.3449  1.2840
11914TIP3   OH257232   6.641   2.626  15.965  0.1037 -0.4878 -0.3666
11914TIP3    H157233   6.601   2.711  15.945  1.9294  0.4977 -0.0898
11914TIP3    H257234   6.654   2.628  16.060 -1.2297 -1.7656 -0.1188
11915TIP3   OH257235   4.748   0.486   1.598 -0.4016  0.6879  0.5566
11915TIP3    H157236   4.687   0.548   1.559 -0.2956  0.9012  0.7282
11915TIP3    H257237   4.707   0.461   1.681 -0.5750  0.3176  0.3595
11916TIP3   OH257238   3.945   2.784   0.782 -0.2821  0.7830  0.4785
11916TIP3    H157239   3.885   2.714   0.809  0.8630 -0.4662 -0.0985
11916TIP3    H257240   3.935   2.788   0.687  1.3250 -0.2054  0.2441
11917TIP3   OH257241   4.799   3.662   4.169  0.5766  0.3003  0.0774
11917TIP3    H157242   4.770   3.702   4.087 -0.0235 -0.9248 -0.3347
11917TIP3    H257243   4.883   3.621   4.147 -0.8615 -2.5023 -0.8059
11918TIP3   OH257244   2.009   5.765   2.548  0.9294 -0.1536 -0.3026
11918TIP3    H157245   2.080   5.703   2.561  2.0621  0.3335 -3.3864
11918TIP3    H257246   2.046   5.850   2.568  1.1157  0.0560 -1.4771
11919TIP3   OH257247   4.339   6.388   5.483  0.4554  0.9254  0.1274
11919TIP3    H157248   4.247   6.383   5.511  0.1356  2.4587 -0.5592
11919TIP3    H257249   4.342   6.462   5.423  2.5920  2.3916  1.8974
11920TIP3   OH257250   0.762   4.934   0.510  0.1808  0.5864 -0.0333
11920TIP3    H157251   0.673   4.932   0.545  0.1545  1.2807 -0.0625
11920TIP3    H257252   0.813   4.883   0.573  0.1229  1.7664  1.0067
11921TIP3   OH257253   0.741   0.225   5.917 -0.1287  0.5680  0.2178
11921TIP3    H157254   0.784   0.306   5.890  0.1137  0.6820  0.9395
11921TIP3    H257255   0.652   0.251   5.939  0.4365  0.9672  2.1590
11922TIP3   OH257256   3.048   3.854  13.376 -0.3570  0.7828 -0.1115
11922TIP3    H157257   3.080   3.858  13.286  0.1425  1.2954  0.0842
11922TIP3    H257258   2.953   3.848  13.368 -0.4734  2.6608 -0.6624
11923TIP3   OH257259   2.779   4.910   6.224 -0.2199  0.1566 -0.5776
11923TIP3    H157260   2.799   4.854   6.149  0.1194 -3.0547  1.6981
11923TIP3    H257261   2.861   4.912   6.274 -1.0710  0.2136  0.8619
11924TIP3   OH257262   3.276   4.628   4.012 -0.7533  0.1901 -0.7829
11924TIP3    H157263   3.243   4.666   4.094  0.0140  1.3973 -1.0105
11924TIP3    H257264   3.258   4.694   3.946  0.2786  0.0234 -1.2564
11925TIP3   OH257265   2.582   6.407  16.512 -0.2977  0.6838 -0.2151
11925TIP3    H157266   2.527   6.334  16.538 -0.5764  0.6830 -0.7793
11925TIP3    H257267   2.553   6.480  16.566  0.5754  0.1780  0.9779
11926TIP3   OH257268   5.089   3.180   0.509  0.3454  0.3853  0.7110
11926TIP3    H157269   5.086   3.275   0.499  1.0988  0.4591  1.1512
11926TIP3    H257270   5.172   3.154   0.468 -0.5149 -0.2626 -0.7284
11927TIP3   OH257271   1.557   0.121  12.120  0.4821 -0.7210 -0.1285
11927TIP3    H157272   1.505   0.098  12.044  1.0479 -0.8454 -0.4824
11927TIP3    H257273   1.647   0.124  12.088  0.6625 -0.2333  0.4137
11928TIP3   OH257274   6.316   1.377   2.942 -0.0640  0.1377  0.5878
11928TIP3    H157275   6.268   1.303   2.977 -2.5085 -0.0122 -2.6436
11928TIP3    H257276   6.368   1.340   2.870  0.3181  1.2492  0.2687
11929TIP3   OH257277   6.813   1.368   2.270  0.5246  0.5214 -0.0633
11929TIP3    H157278   6.836   1.321   2.190  1.5503  0.6554  0.1371
11929TIP3    H257279   6.718   1.361   2.276  0.6630 -1.7245  0.0843
11930TIP3   OH257280   4.279   6.779   4.400 -0.1535 -0.2588  0.1224
11930TIP3    H157281   4.212   6.840   4.367  0.2054 -0.4818 -1.0894
11930TIP3    H257282   4.232   6.697   4.414 -0.5487  0.1609  1.3260
11931TIP3   OH257283   4.015   1.273   0.562 -0.7120  0.2065  0.1757
11931TIP3    H157284   3.982   1.203   0.506  0.6648 -1.5494  1.4616
11931TIP3    H257285   4.070   1.229   0.627  3.1981  2.7572 -1.0645
11932TIP3   OH257286   0.531   5.930   2.057 -0.8529 -0.0456 -0.3132
11932TIP3    H157287   0.470   5.988   2.102  0.2779  0.1242  1.0661
11932TIP3    H257288   0.604   5.921   2.117 -0.6829 -2.3689 -0.7835
11933TIP3   OH257289   4.014   1.980  14.056  0.1035 -0.3966  0.2746
11933TIP3    H157290   3.953   1.981  14.131 -0.0515 -1.4123  0.1834
11933TIP3    H257291   4.024   1.887  14.036  0.9939 -0.1830 -0.2888
11934TIP3   OH257292   0.182   5.839  16.424  0.1562  0.2967  0.5063
11934TIP3    H157293   0.183   5.745  16.443 -0.1452 -0.1087 -1.3409
11934TIP3    H257294   0.204   5.845  16.331 -1.6740  1.9179  0.1209
11935TIP3   OH257295   5.925   2.294   1.071 -0.2655 -0.0418 -0.4960
11935TIP3    H157296   5.999   2.233   1.071 -1.3375 -1.4156 -0.4051
11935TIP3    H257297   5.925   2.331   1.160 -0.7564 -1.4698  0.1435
11936TIP3   OH257298   1.933   0.786   4.221 -0.0687 -0.1467  0.0307
11936TIP3    H157299   1.975   0.830   4.147  0.2339 -0.8272 -0.2153
11936TIP3    H257300   1.976   0.822   4.299 -1.2839  1.5438 -0.0188
11937TIP3   OH257301   3.857   6.480   5.806 -0.2341  0.0669  0.0681
11937TIP3    H157302   3.948   6.506   5.812 -0.6135  1.6015 -0.3143
11937TIP3    H257303   3.851   6.429   5.725  0.6745 -2.0507  1.2282
11938TIP3   OH257304   1.925   1.305  14.239  0.3187  0.1265 -0.3140
11938TIP3    H157305   1.909   1.380  14.296 -0.3040 -0.7583  0.7220
11938TIP3    H257306   1.903   1.229  14.293 -2.6268 -0.6984 -2.3894
11939TIP3   OH257307   5.346   0.247   2.652 -0.9183  0.9171  0.0298
11939TIP3    H157308   5.363   0.209   2.566 -0.7269 -0.3069  0.5954
11939TIP3    H257309   5.380   0.337   2.645  1.1973  0.1462 -0.4692
11940TIP3   OH257310   4.694   3.737  10.715 -0.1128  0.2466 -0.2387
11940TIP3    H157311   4.727   3.749  10.804 -0.5832 -0.2463  0.0096
11940TIP3    H257312   4.754   3.673  10.676 -1.7428 -2.0418  0.7994
11941TIP3   OH257313   5.318   1.364  10.881  0.3669  0.0917 -0.2807
11941TIP3    H157314   5.404   1.322  10.879  0.9483  0.9453  2.5212
11941TIP3    H257315   5.331   1.443  10.933 -1.5456  1.7806 -2.1888
11942TIP3   OH257316   5.447   2.735  14.667 -0.0600 -0.0713  0.8848
11942TIP3    H157317   5.506   2.659  14.676  3.1170  2.1767  0.8302
11942TIP3    H257318   5.459   2.765  14.577 -0.5236  1.0499  1.1785
11943TIP3   OH257319   3.292   4.333  15.091  0.1256  0.3599 -0.4940
11943TIP3    H157320   3.240   4.410  15.115 -1.4341 -0.6862 -0.3951
11943TIP3    H257321   3.318   4.350  15.000  2.1746  2.2256  0.3478
11944TIP3   OH257322   1.252   3.913  11.447 -0.0357  0.4537  0.2372
11944TIP3    H157323   1.244   3.937  11.354 -1.0752 -0.1049  0.1708
11944TIP3    H257324   1.195   3.975  11.493  1.2564  1.3842  0.6337
11945TIP3   OH257325   2.165   2.410  11.140 -0.7348  0.1986  0.2755
11945TIP3    H157326   2.087   2.355  11.146 -0.8575 -0.0171 -2.2494
11945TIP3    H257327   2.158   2.471  11.214 -1.4371 -2.0452  2.1695
11946TIP3   OH257328   4.681   5.567   2.310  0.5611  0.2254  0.4383
11946TIP3    H157329   4.728   5.491   2.277 -0.8164 -0.5748  0.2398
11946TIP3    H257330   4.685   5.558   2.405 -1.9308 -1.6916  0.4676
11947TIP3   OH257331   3.336   3.950   2.676 -0.4886  0.0140 -0.1284
11947TIP3    H157332   3.354   3.945   2.770  1.6613  0.6535 -0.4418
11947TIP3    H257333   3.241   3.942   2.669 -0.6525 -0.5969  2.0453
11948TIP3   OH257334   5.696   6.685   0.558  0.2167  0.5102  0.4608
11948TIP3    H157335   5.655   6.707   0.641  0.2089 -1.3591  0.9864
11948TIP3    H257336   5.636   6.720   0.492 -2.0141 -1.6724  1.2134
11949TIP3   OH257337   4.508   0.630   6.082  0.1287  0.5528 -0.4961
11949TIP3    H157338   4.428   0.623   6.134 -0.9968  2.2504 -1.8529
11949TIP3    H257339   4.579   0.609   6.142 -1.2656  0.0084  1.0174
11950TIP3   OH257340   5.677   1.405   3.221  0.0597 -0.2295  0.2773
11950TIP3    H157341   5.756   1.359   3.195  0.4599 -0.2415  1.4353
11950TIP3    H257342   5.630   1.343   3.277 -0.8139 -0.2518 -0.4603
11951TIP3   OH257343   2.984   5.364   2.303  0.5760 -0.6914 -0.2195
11951TIP3    H157344   2.953   5.452   2.326  1.2290 -0.6046  0.3823
11951TIP3    H257345   2.912   5.325   2.255 -0.5039 -0.5110  1.1732
11952TIP3   OH257346   3.604   6.559  14.337 -0.4811  0.0374  0.0277
11952TIP3    H157347   3.596   6.591  14.247 -0.3673 -1.8883 -0.7064
11952TIP3    H257348   3.698   6.562  14.355 -0.2105 -1.8228 -0.8349
11953TIP3   OH257349   4.724   4.759   1.134 -0.0306  0.1219 -0.4045
11953TIP3    H157350   4.633   4.787   1.145  1.0664  4.1525  0.0516
11953TIP3    H257351   4.739   4.765   1.040 -0.0528  0.1870 -0.4045
11954TIP3   OH257352   0.952   4.364  12.367  0.1190 -0.6010  0.9605
11954TIP3    H157353   0.953   4.394  12.458  2.8852 -1.3364  1.2773
11954TIP3    H257354   0.946   4.269  12.373 -1.1415 -0.5731  0.2933
11955TIP3   OH257355   1.845   6.694  10.858  0.1814 -0.5674 -0.5013
11955TIP3    H157356   1.897   6.674  10.935 -1.1187 -1.7183  0.1164
11955TIP3    H257357   1.827   6.609  10.818  0.3351 -0.0357 -1.7592
11956TIP3   OH257358   0.370   2.325   4.892 -0.3524 -0.2274 -0.1039
11956TIP3    H157359   0.447   2.347   4.841 -1.0226  3.7711  0.2766
11956TIP3    H257360   0.404   2.295   4.976  0.7411 -0.8894 -0.7612
11957TIP3   OH257361   1.255   5.932   4.836 -0.0722 -0.0190 -0.2251
11957TIP3    H157362   1.289   5.921   4.925 -3.1882  2.5008  1.4569
11957TIP3    H257363   1.317   5.992   4.794  0.2325  0.5823  1.0293
11958TIP3   OH257364   1.075   5.169  16.427 -0.5713 -0.8326  0.1255
11958TIP3    H157365   1.088   5.118  16.347 -0.9907 -0.5669 -0.1204
11958TIP3    H257366   0.981   5.188  16.428 -0.6962 -1.4443  1.0586
11959TIP3   OH257367   6.071   1.621  13.735  0.3428  0.3600 -0.6659
11959TIP3    H157368   6.137   1.594  13.799 -0.2769  0.6770  0.1206
11959TIP3    H257369   6.094   1.711  13.713 -0.0782  0.6184 -0.0595
11960TIP3   OH257370   5.499   5.472  15.937  0.5208  0.3417 -0.5036
11960TIP3    H157371   5.590   5.477  15.966  0.1203 -0.7090  1.0207
11960TIP3    H257372   5.450   5.517  16.005 -0.4897 -2.6044  0.9038
11961TIP3   OH257373   5.878   1.536   1.704 -0.0685  0.0899  0.4455
11961TIP3    H157374   5.900   1.593   1.778 -0.5705 -0.4345  1.0114
11961TIP3    H257375   5.950   1.472   1.701  1.6066  1.9179 -1.4835
11962TIP3   OH257376   6.500   0.583  17.087 -0.0206 -0.4590  0.9419
11962TIP3    H157377   6.570   0.617  17.032 -0.8229  0.2123  0.2931
11962TIP3    H257378   6.544   0.535  17.157  1.0174 -1.6491 -0.4868
11963TIP3   OH257379   5.107   3.300   2.576 -0.2448 -0.8636 -0.7667
11963TIP3    H157380   5.185   3.356   2.572  0.1139 -1.3433 -0.4906
11963TIP3    H257381   5.127   3.226   2.519 -0.9486 -0.4468 -1.5934
11964TIP3   OH257382   1.850   2.479  14.051 -0.4095  0.5472  0.0807
11964TIP3    H157383   1.769   2.433  14.075  0.9415 -1.6188  0.7879
11964TIP3    H257384   1.846   2.487  13.956 -0.7785 -0.9565 -0.0577
11965TIP3   OH257385   0.622   5.163  11.518  0.1364  0.9816 -0.0089
11965TIP3    H157386   0.702   5.182  11.468 -1.3854 -0.3788 -3.2129
11965TIP3    H257387   0.568   5.241  11.507 -0.3971  0.4901 -0.9683
11966TIP3   OH257388   2.783   0.970   0.161  0.0515 -0.5374 -0.0850
11966TIP3    H157389   2.782   1.040   0.226 -1.0416 -0.1683 -0.4756
11966TIP3    H257390   2.694   0.969   0.125 -0.4488 -3.1807  1.0113
11967TIP3   OH257391   6.097   3.535   4.089  0.2996  0.5021  0.1752
11967TIP3    H157392   6.084   3.622   4.126  0.6131  0.4283  0.4674
11967TIP3    H257393   6.011   3.493   4.095  0.1285  0.8195 -0.0467
11968TIP3   OH257394   0.354   2.906  15.296  0.0505  0.7820  0.2281
11968TIP3    H157395   0.301   2.928  15.373 -0.5567 -1.4622  0.5163
11968TIP3    H257396   0.307   2.834  15.254  2.1278 -0.3327 -0.3215
11969TIP3   OH257397   2.094   6.691   2.184  0.6812 -0.0912  0.4940
11969TIP3    H157398   2.034   6.737   2.125  1.6239  0.6773  0.1031
11969TIP3    H257399   2.036   6.646   2.247 -0.3567 -1.0353 -1.0606
11970TIP3   OH257400   6.775   5.514  12.062 -0.2218 -0.3682 -0.4253
11970TIP3    H157401   6.698   5.468  12.094  0.4327 -0.4111  1.1691
11970TIP3    H257402   6.847   5.452  12.075  0.4194  0.4873  0.2387
11971TIP3   OH257403   5.787   2.679  12.323 -0.8567 -0.4155  0.1993
11971TIP3    H157404   5.715   2.723  12.280 -1.5527 -1.5953  0.1252
11971TIP3    H257405   5.839   2.750  12.362 -1.8118  0.4644 -0.1002
11972TIP3   OH257406   1.200   5.325   5.855 -0.0403  0.3270  0.6266
11972TIP3    H157407   1.242   5.361   5.934  1.1332  0.7635 -0.1512
11972TIP3    H257408   1.249   5.365   5.783  0.1461 -1.4803 -0.3094
11973TIP3   OH257409   0.253   4.318   3.917  0.0148  0.3504  0.4451
11973TIP3    H157410   0.341   4.284   3.928 -0.1602  0.1215  1.2091
11973TIP3    H257411   0.259   4.410   3.946 -0.0612  0.2442  0.8070
11974TIP3   OH257412   0.972   2.332   2.467 -0.2766 -0.4227  0.0267
11974TIP3    H157413   1.060   2.296   2.478 -1.6279 -3.1835  4.6063
11974TIP3    H257414   0.973   2.414   2.518 -0.6018 -1.1632  1.2731
11975TIP3   OH257415   1.392   3.932   0.542  0.2856 -0.1573  0.0635
11975TIP3    H157416   1.350   3.884   0.613  0.9869  0.0931  0.6516
11975TIP3    H257417   1.391   4.023   0.571  3.7431 -0.4283  1.4222
11976TIP3   OH257418   4.679   3.939   4.817  0.4694  0.1358 -0.1860
11976TIP3    H157419   4.706   3.938   4.725 -0.5938  0.2862 -0.5182
11976TIP3    H257420   4.584   3.926   4.814  0.3332  0.8008  0.8590
11977TIP3   OH257421   6.605   1.081   3.253 -0.2319 -0.0612 -0.5409
11977TIP3    H157422   6.653   1.103   3.333 -0.4838  0.7051 -0.5981
11977TIP3    H257423   6.651   1.005   3.218 -0.4897 -0.8046  0.6645
11978TIP3   OH257424   4.782   4.474  13.877 -0.0136 -0.0880  0.4813
11978TIP3    H157425   4.844   4.411  13.841 -0.5761  0.2124 -1.0800
11978TIP3    H257426   4.772   4.540  13.809 -1.5858  0.1888  0.9330
11979TIP3   OH257427   4.849   2.633   0.744  0.0639  0.8444  0.0168
11979TIP3    H157428   4.838   2.697   0.674 -2.2240 -0.6114 -1.0973
11979TIP3    H257429   4.932   2.590   0.724  0.2854  1.6360 -0.8245
11980TIP3   OH257430   1.750   5.226  11.633  0.4519  0.4006  0.1804
11980TIP3    H157431   1.757   5.153  11.572  1.4826  1.2585 -0.7725
11980TIP3    H257432   1.828   5.279  11.616  0.8015  0.6527  2.2841
11981TIP3   OH257433   1.719   6.042   3.654 -0.1107 -0.2381  0.6384
11981TIP3    H157434   1.785   6.018   3.590 -2.0194  0.7064 -1.8357
11981TIP3    H257435   1.670   5.961   3.670  0.0213 -0.3539  0.4530
11982TIP3   OH257436   5.774   6.822   2.827 -0.0827  0.0661  0.8391
11982TIP3    H157437   5.772   6.825   2.732  1.4932 -1.1042  0.7449
11982TIP3    H257438   5.685   6.797   2.852 -0.4134  0.0194 -0.3239
11983TIP3   OH257439   1.155   4.813   6.735 -0.3927  0.0577 -0.6676
11983TIP3    H157440   1.230   4.844   6.684  1.3794 -1.4664  0.8189
11983TIP3    H257441   1.115   4.746   6.680  0.2039 -0.0834 -0.9475
11984TIP3   OH257442   4.828   1.297  14.781  0.2081  0.0727  0.3877
11984TIP3    H157443   4.783   1.362  14.834  1.0550 -1.0002  2.5780
11984TIP3    H257444   4.868   1.347  14.709 -1.3007  1.5370  0.5217
11985TIP3   OH257445   6.731   0.293  16.936 -0.2048  0.5520  0.2332
11985TIP3    H157446   6.710   0.355  17.006  0.7812 -0.0637  1.1075
11985TIP3    H257447   6.795   0.340  16.882  0.3899  0.3926  0.7792
11986TIP3   OH257448   3.302   5.085   3.117 -0.2473 -0.0696  0.0393
11986TIP3    H157449   3.243   5.057   3.048 -1.9308  2.2676  0.4171
11986TIP3    H257450   3.389   5.065   3.084 -1.1203 -1.4899 -1.5517
11987TIP3   OH257451   2.554   3.876   6.251  0.1343 -0.2832 -0.5525
11987TIP3    H157452   2.495   3.802   6.236 -0.3577  0.3232 -1.7163
11987TIP3    H257453   2.500   3.953   6.235  0.4775  0.3706  1.2328
11988TIP3   OH257454   4.822   4.652   4.743  0.1872 -0.0819 -0.1769
11988TIP3    H157455   4.755   4.642   4.810  0.8505  2.0616  0.9077
11988TIP3    H257456   4.905   4.634   4.789  0.6829  1.7982 -0.2638
11989TIP3   OH257457   6.155   4.034   4.745 -0.0643 -0.2057  0.2680
11989TIP3    H157458   6.161   3.977   4.668  0.1906 -0.6483  0.6075
11989TIP3    H257459   6.173   3.976   4.819 -0.1853  0.2411  0.6540
11990TIP3   OH257460   3.234   6.062   4.457 -0.1486  0.1041 -0.4260
11990TIP3    H157461   3.235   6.153   4.485  0.3272  0.4600 -1.5369
11990TIP3    H257462   3.326   6.038   4.451 -0.1870  0.2656 -2.2705
11991TIP3   OH257463   2.463   5.019   5.383  0.1022 -0.0435  0.2746
11991TIP3    H157464   2.451   5.045   5.291  0.3797  0.3606  0.3529
11991TIP3    H257465   2.379   4.980   5.407  0.5885 -1.8219 -0.6944
11992TIP3   OH257466   0.117   2.337  13.776  0.3078 -0.6231 -0.5298
11992TIP3    H157467   0.049   2.400  13.800  0.1289  0.0732 -2.7057
11992TIP3    H257468   0.182   2.345  13.845 -0.6201  0.5347  0.2593
11993TIP3   OH257469   1.137   5.696   3.774  0.0557  0.0503  0.0230
11993TIP3    H157470   1.164   5.605   3.787  0.0524  0.0164 -0.1966
11993TIP3    H257471   1.051   5.690   3.733 -0.0915  0.1554  0.3183
11994TIP3   OH257472   5.600   6.730   2.630  0.3373  0.7417 -0.1812
11994TIP3    H157473   5.679   6.678   2.614  0.8701  1.9686 -1.7371
11994TIP3    H257474   5.575   6.764   2.545 -0.0218  3.0080  0.7559
11995TIP3   OH257475   0.958   1.189   5.507  0.0262  0.4635 -0.0384
11995TIP3    H157476   1.012   1.122   5.549 -1.0200 -1.0725 -1.0201
11995TIP3    H257477   0.926   1.243   5.579 -0.5928 -1.2458  1.0436
11996TIP3   OH257478   4.201   0.072   5.778 -0.1273 -0.0344 -0.4452
11996TIP3    H157479   4.214  -0.023   5.782  0.4638  0.0755  1.2467
11996TIP3    H257480   4.136   0.085   5.710  1.1204 -1.4992 -2.0133
11997TIP3   OH257481   0.355   4.191   0.229 -0.3450  0.4289  0.3508
11997TIP3    H157482   0.290   4.126   0.202  2.5878 -1.9005 -1.6793
11997TIP3    H257483   0.359   4.253   0.157  2.2275 -1.6168 -1.4361
11998TIP3   OH257484   5.135   0.451   0.140 -0.3222 -0.4055  0.4170
11998TIP3    H157485   5.061   0.418   0.191 -1.2159  0.8204 -0.0421
11998TIP3    H257486   5.152   0.537   0.177  0.0867 -0.1797 -0.2885
11999TIP3   OH257487   5.408   4.762  15.097 -0.2663  0.3823  0.4101
11999TIP3    H157488   5.420   4.755  15.003 -1.7490  1.6367  0.0930
11999TIP3    H257489   5.443   4.848  15.119  1.6035 -0.5416  1.3225
12000TIP3   OH257490   3.131   0.537  15.723 -0.0536 -0.5212 -0.5230
12000TIP3    H157491   3.068   0.506  15.659  1.7654 -1.7093 -1.8347
12000TIP3    H257492   3.138   0.632  15.707  0.4009 -0.8066 -2.1300
12001TIP3   OH257493   1.535   0.224  17.195 -0.4545 -0.3935  0.5179
12001TIP3    H157494   1.590   0.274  17.133  1.1186 -0.1990  1.9753
12001TIP3    H257495   1.598   0.176  17.249 -1.7883 -0.9629  1.6269
12002TIP3   OH257496   2.521   2.776   2.524  0.5445 -0.4969 -0.0354
12002TIP3    H157497   2.518   2.798   2.431 -0.5211  0.1506  0.1375
12002TIP3    H257498   2.432   2.746   2.545  0.6667 -0.2788  0.8584
12003TIP3   OH257499   1.608   2.311  13.390 -0.1987  0.1876 -0.1034
12003TIP3    H157500   1.654   2.228  13.401 -1.1168 -0.4512 -0.9823
12003TIP3    H257501   1.515   2.288  13.392 -0.4700  0.9827 -1.7189
12004TIP3   OH257502   2.649   3.683  11.229 -0.9319  0.4114 -0.1703
12004TIP3    H157503   2.693   3.766  11.209  0.2687 -0.3507 -0.8603
12004TIP3    H257504   2.617   3.651  11.144 -0.3580 -0.3733 -0.1073
12005TIP3   OH257505   6.233   1.652   2.079 -0.1967 -0.3437  0.2340
12005TIP3    H157506   6.249   1.723   2.140 -1.1055 -0.6518  0.8629
12005TIP3    H257507   6.163   1.685   2.022  0.4192 -0.1815 -0.4374
12006TIP3   OH257508   0.822   5.662   2.913  0.1400 -0.2136 -0.3201
12006TIP3    H157509   0.896   5.607   2.891 -0.7645 -2.1386  1.0948
12006TIP3    H257510   0.815   5.656   3.009  0.6317  3.2940  0.0534
12007TIP3   OH257511   2.928   0.176   5.286  0.2310 -0.5969  0.2782
12007TIP3    H157512   2.989   0.157   5.215 -0.3698 -0.9852 -0.1315
12007TIP3    H257513   2.845   0.196   5.243 -0.4601 -2.0105  0.8915
12008TIP3   OH257514   3.005   5.139   4.339 -0.3413 -0.2197  0.2504
12008TIP3    H157515   2.933   5.123   4.401  0.8278 -0.7738  1.5080
12008TIP3    H257516   3.008   5.061   4.285 -1.4362  0.3090 -0.6318
12009TIP3   OH257517   2.180   2.402   0.670  0.5191 -0.0247  0.5228
12009TIP3    H157518   2.271   2.400   0.700  0.1685  0.7802  1.6886
12009TIP3    H257519   2.147   2.487   0.696  0.0479  0.6162 -1.8795
12010TIP3   OH257520   5.146   2.141  15.204 -0.2394  0.1232  0.3845
12010TIP3    H157521   5.228   2.114  15.245  0.1700 -0.1704 -0.5885
12010TIP3    H257522   5.089   2.064  15.212 -0.0868 -0.0084  0.2294
12011TIP3   OH257523   6.263   1.346  15.206  0.1302  0.6226  0.5882
12011TIP3    H157524   6.357   1.350  15.187 -0.4205  0.5471 -2.8772
12011TIP3    H257525   6.234   1.267  15.161 -1.8366  1.5023  0.2410
12012TIP3   OH257526   5.938   3.897  14.461  0.8402  0.0079  0.0236
12012TIP3    H157527   5.891   3.900  14.378 -0.2950  2.2107  0.6670
12012TIP3    H257528   6.023   3.859  14.439  0.6729  0.7676 -2.1900
12013TIP3   OH257529   2.837   0.517  16.251  0.0912  0.5092  0.0079
12013TIP3    H157530   2.886   0.599  16.247  1.5691 -0.3175  0.1586
12013TIP3    H257531   2.876   0.462  16.183 -0.1540 -0.4090  0.5798
12014TIP3   OH257532   2.839   0.497   2.021 -0.0737 -0.0172 -0.3353
12014TIP3    H157533   2.793   0.539   1.948  1.6852  0.6535 -1.1045
12014TIP3    H257534   2.931   0.520   2.008  0.2541  0.4849  2.3469
12015TIP3   OH257535   6.653   5.911   2.374  0.3999 -0.3115  0.4764
12015TIP3    H157536   6.657   6.006   2.379  0.2568 -0.3263  0.9508
12015TIP3    H257537   6.560   5.890   2.376  0.4021 -0.4367 -0.2968
12016TIP3   OH257538   3.540   3.906  12.576  0.1091 -0.3843 -0.0675
12016TIP3    H157539   3.577   3.837  12.520 -1.4485 -0.7488 -0.7024
12016TIP3    H257540   3.477   3.860  12.632 -0.6820  0.4582 -0.2484
12017TIP3   OH257541   0.411   4.800  15.745  0.1642 -0.2616 -0.5326
12017TIP3    H157542   0.404   4.765  15.656 -0.4278  1.6683 -1.2947
12017TIP3    H257543   0.323   4.830  15.765  0.7606  1.2969 -0.1590
12018TIP3   OH257544   3.623   4.198  11.331 -0.3088 -0.1934 -0.4047
12018TIP3    H157545   3.563   4.138  11.288 -2.5041  1.9933 -0.6221
12018TIP3    H257546   3.654   4.256  11.261 -0.8991  1.0077  0.2968
12019TIP3   OH257547   4.422   1.606  14.104 -0.2702  0.2056  0.4206
12019TIP3    H157548   4.480   1.632  14.176  0.4162  1.4357 -0.5360
12019TIP3    H257549   4.478   1.611  14.026 -1.4855  0.7227 -0.4400
12020TIP3   OH257550   3.667   1.239  15.379 -0.2132  0.1073 -0.2530
12020TIP3    H157551   3.699   1.161  15.424 -0.3149  0.3459  0.2417
12020TIP3    H257552   3.572   1.238  15.394  0.0114  1.4148  1.5326
12021TIP3   OH257553   3.182   0.999  16.953  0.3117  0.0461 -0.3277
12021TIP3    H157554   3.269   0.978  16.987  0.1739 -0.7546 -0.4330
12021TIP3    H257555   3.122   0.972  17.023  0.1199  0.0142 -0.5026
12022TIP3   OH257556   1.288   0.013  16.478 -0.0876  0.6691 -0.4366
12022TIP3    H157557   1.292  -0.049  16.406  1.4812 -0.6680  0.7079
12022TIP3    H257558   1.371   0.062  16.472  0.0541  0.5549  0.4123
12023TIP3   OH257559   0.123   0.180   1.500 -0.3361  0.1344  0.3348
12023TIP3    H157560   0.099   0.103   1.449  0.4778 -0.1635  0.3913
12023TIP3    H257561   0.188   0.226   1.446 -0.1444  0.2984  0.6967
12024TIP3   OH257562   2.020   1.837   1.254 -1.3113 -0.4304 -0.0426
12024TIP3    H157563   2.019   1.904   1.186 -0.3445  0.5897  0.9030
12024TIP3    H257564   1.965   1.766   1.219 -1.0457  0.1585 -1.7496
12025TIP3   OH257565   5.705   0.388   1.690 -0.4868  0.6371 -0.0468
12025TIP3    H157566   5.750   0.464   1.652  1.0472 -0.6353 -0.9082
12025TIP3    H257567   5.762   0.361   1.762  0.7977 -1.5915 -1.7644
12026TIP3   OH257568   5.266   6.286   4.860  0.2293 -0.1826  0.1031
12026TIP3    H157569   5.323   6.210   4.874  1.1253  0.3500 -0.5625
12026TIP3    H257570   5.251   6.320   4.948 -0.0292 -1.0126  0.3922
12027TIP3   OH257571   0.579   2.872   0.506  0.8478 -0.3274 -0.1056
12027TIP3    H157572   0.587   2.778   0.523 -1.7974 -0.6254 -0.1516
12027TIP3    H257573   0.665   2.908   0.529  1.0736 -2.3357  2.6350
12028TIP3   OH257574   5.711   3.218  15.589 -0.1154 -0.3983 -0.0143
12028TIP3    H157575   5.778   3.189  15.651 -1.2101 -3.3299 -0.0327
12028TIP3    H257576   5.754   3.212  15.504  0.1491 -0.4454  0.1212
12029TIP3   OH257577   6.802   2.563  13.756 -0.0433 -0.2200  0.1345
12029TIP3    H157578   6.834   2.583  13.668  0.3490 -0.2489  0.2686
12029TIP3    H257579   6.865   2.604  13.815  0.0342 -0.7204  0.4033
12030TIP3   OH257580   1.828   1.849   0.122 -0.2675 -0.0104 -0.1636
12030TIP3    H157581   1.760   1.856   0.055  0.2772  2.7449 -0.5475
12030TIP3    H257582   1.781   1.824   0.201 -1.3697 -0.3832 -0.9086
12031TIP3   OH257583   3.304   3.772  12.669  0.1424  0.4693  0.0323
12031TIP3    H157584   3.277   3.777  12.761  0.0545 -1.2011  0.1304
12031TIP3    H257585   3.222   3.775  12.620  0.1909  1.3879  0.0013
12032TIP3   OH257586   1.366   1.010   3.739  0.0678  0.1596  0.2024
12032TIP3    H157587   1.361   1.071   3.665  3.6281  0.3422 -0.0653
12032TIP3    H257588   1.282   1.019   3.783 -0.8832  2.6147 -1.8385
12033TIP3   OH257589   0.128   1.519  13.806  0.1920 -0.4820  0.5674
12033TIP3    H157590   0.102   1.600  13.850  0.3674  0.8351 -1.6064
12033TIP3    H257591   0.218   1.504  13.834  0.6093  0.8209 -0.0036
12034TIP3   OH257592   0.070   2.011  11.584  0.4659  0.0494  0.0381
12034TIP3    H157593   0.160   1.977  11.585 -0.1688 -1.9361  2.7832
12034TIP3    H257594   0.081   2.106  11.582  2.7421 -0.0601  1.9951
12035TIP3   OH257595   5.752   6.305  11.764  0.1599  0.3799 -0.4319
12035TIP3    H157596   5.844   6.333  11.772  0.0613  0.6857 -0.3649
12035TIP3    H257597   5.702   6.386  11.762 -0.1799  0.1974  0.3391
12036TIP3   OH257598   4.187   0.352  16.516 -0.6404  0.2549  0.6917
12036TIP3    H157599   4.144   0.437  16.525 -1.7420 -0.3498  1.3610
12036TIP3    H257600   4.187   0.336  16.422 -1.1483  0.6464  0.6158
12037TIP3   OH257601   4.853   4.528   1.824  0.1550 -0.2875  0.0831
12037TIP3    H157602   4.890   4.440   1.815 -1.2917 -0.8630 -0.4352
12037TIP3    H257603   4.856   4.545   1.918 -1.2877 -1.7026  0.4422
12038TIP3   OH257604   0.148   3.280  14.230 -0.4996 -0.3502 -0.1703
12038TIP3    H157605   0.100   3.355  14.266 -2.3879 -0.7464 -1.6990
12038TIP3    H257606   0.081   3.230  14.184  1.0990 -1.9537 -0.8185
12039TIP3   OH257607   6.501   1.098  11.398  1.0023  0.0913 -0.2066
12039TIP3    H157608   6.477   1.102  11.491  0.0963 -1.4890 -0.3246
12039TIP3    H257609   6.459   1.174  11.359 -2.3013 -1.4628 -0.0208
12040TIP3   OH257610   6.415   5.025  13.178  0.9546  0.5104  0.4303
12040TIP3    H157611   6.401   5.015  13.273  0.1606  0.9592  0.3672
12040TIP3    H257612   6.507   5.003  13.166  0.5383 -1.8435  0.9788
12041TIP3   OH257613   2.508   4.225   1.805 -0.3955 -0.0743 -0.0568
12041TIP3    H157614   2.413   4.235   1.803 -0.3025  0.7981 -1.8641
12041TIP3    H257615   2.530   4.192   1.718  1.0359  0.5462  0.0462
12042TIP3   OH257616   1.049   3.480  11.907 -0.0183 -0.4561  0.0194
12042TIP3    H157617   0.985   3.527  11.962  1.0120  0.8168  0.1877
12042TIP3    H257618   1.035   3.388  11.928 -0.3686 -0.0697  1.6583
12043TIP3   OH257619   1.061   5.844  13.540  0.2353 -0.0290 -0.1892
12043TIP3    H157620   1.068   5.842  13.444  0.1803  0.5056 -0.2057
12043TIP3    H257621   1.112   5.921  13.565 -0.7357  0.5159  0.1286
12044TIP3   OH257622   1.955   3.703   5.582 -0.1047  0.1794 -0.2131
12044TIP3    H157623   1.909   3.745   5.509  1.3185  0.3084 -1.0702
12044TIP3    H257624   2.009   3.636   5.541 -0.6080 -0.9512  0.9171
12045TIP3   OH257625   3.212   5.936   6.041  0.0765 -0.0560 -0.3791
12045TIP3    H157626   3.198   5.933   5.947  1.5948 -0.6141 -0.6220
12045TIP3    H257627   3.216   5.844   6.067 -0.4914  0.0944  0.2629
12046TIP3   OH257628   1.452   6.126   3.178 -0.4597 -0.2839  0.0884
12046TIP3    H157629   1.359   6.128   3.155 -0.5470  0.1657  0.4503
12046TIP3    H257630   1.472   6.033   3.190 -0.4805 -0.5059 -1.4440
12047TIP3   OH257631   4.529   2.472  12.083 -0.5929  0.0815 -0.0339
12047TIP3    H157632   4.575   2.485  12.166 -0.8370 -0.7155  0.2387
12047TIP3    H257633   4.571   2.395  12.044 -0.5105  0.4228 -0.6373
12048TIP3   OH257634   2.519   5.155  15.939  0.0984 -0.2012 -0.0775
12048TIP3    H157635   2.439   5.126  15.983 -0.7734  1.5844 -0.4083
12048TIP3    H257636   2.490   5.224  15.880  1.8582  0.2781 -0.4396
12049TIP3   OH257637   4.778   1.360  13.041  0.5975 -0.7951 -0.3706
12049TIP3    H157638   4.819   1.274  13.039  0.5603 -0.8444  0.4829
12049TIP3    H257639   4.770   1.381  13.134  1.3365  0.4783 -0.5611
12050TIP3   OH257640   3.070   5.421  16.132 -0.4624 -0.4098  0.5491
12050TIP3    H157641   3.052   5.339  16.085  0.9975  0.9856 -2.7624
12050TIP3    H257642   3.165   5.423  16.141 -0.3925  1.2737 -0.2211
12051TIP3   OH257643   3.476   4.541   3.078  0.0675  0.4174 -0.6134
12051TIP3    H157644   3.490   4.475   3.010 -0.9503  0.8132 -1.2410
12051TIP3    H257645   3.556   4.540   3.130 -0.1330 -1.7014 -0.2564
12052TIP3   OH257646   5.780   6.519   2.660 -0.0679 -0.3317  0.3386
12052TIP3    H157647   5.875   6.510   2.669  0.1207  0.7023 -0.4256
12052TIP3    H257648   5.753   6.442   2.611  0.2456 -1.0686  1.2998
12053TIP3   OH257649   2.753   1.680   4.299 -0.3984  0.1922 -0.2975
12053TIP3    H157650   2.710   1.636   4.372 -0.1420 -0.7470 -0.6902
12053TIP3    H257651   2.689   1.743   4.267 -1.3208 -0.8615 -0.5863
12054TIP3   OH257652   6.427   4.507  14.419  0.0888 -0.3948 -0.0301
12054TIP3    H157653   6.414   4.459  14.338  2.3958 -0.5352 -0.3820
12054TIP3    H257654   6.401   4.446  14.488  1.8501 -1.7956 -0.5214
12055TIP3   OH257655   2.139   2.266  11.733 -0.1654 -0.1990  0.3802
12055TIP3    H157656   2.092   2.187  11.759 -0.5691  0.6942  2.6134
12055TIP3    H257657   2.227   2.256  11.768 -0.4030  0.5815  1.2524
12056TIP3   OH257658   1.942   0.742  11.742 -0.1553 -0.3091  0.4556
12056TIP3    H157659   1.953   0.836  11.753 -1.5527 -0.1537  0.7577
12056TIP3    H257660   2.024   0.704  11.774  0.0291  0.7448  1.2858
12057TIP3   OH257661   0.506   1.553   0.133 -0.3844  0.4242 -0.1189
12057TIP3    H157662   0.497   1.563   0.039 -1.2045  0.0625 -0.0908
12057TIP3    H257663   0.586   1.501   0.145 -0.1824  0.6225 -0.6022
12058TIP3   OH257664   3.471   6.319  15.249  0.0040 -0.4684 -0.1640
12058TIP3    H157665   3.403   6.357  15.193  2.3372 -0.5209 -3.3352
12058TIP3    H257666   3.547   6.309  15.191  3.4557  1.4459  3.5108
12059TIP3   OH257667   1.650   4.879   5.573 -0.3217  0.3240  0.2407
12059TIP3    H157668   1.581   4.875   5.507 -0.4266  1.8979  0.2208
12059TIP3    H257669   1.728   4.848   5.528 -0.9595 -1.3479  0.2243
12060TIP3   OH257670   1.666   3.028  13.006 -0.3163 -0.0526  0.0021
12060TIP3    H157671   1.606   3.051  13.077 -0.9408 -1.1540 -0.1328
12060TIP3    H257672   1.737   3.092  13.011 -1.3796  1.1260  0.3308
12061TIP3   OH257673   3.511   0.110  15.036  0.2220  0.1821 -0.5239
12061TIP3    H157674   3.571   0.071  14.973 -1.4927  0.9398 -2.7586
12061TIP3    H257675   3.440   0.046  15.045  0.5510 -0.0192  0.8572
12062TIP3   OH257676   2.963   3.660   5.584 -0.2106  0.1800 -0.2519
12062TIP3    H157677   2.913   3.667   5.666 -0.9315  1.1231 -0.7591
12062TIP3    H257678   3.052   3.639   5.612  0.4627  4.0205  1.0830
12063TIP3   OH257679   0.532   0.479  14.529 -0.1285  0.1416  0.2579
12063TIP3    H157680   0.491   0.397  14.501  0.7737 -0.2498  0.0299
12063TIP3    H257681   0.463   0.545  14.520 -0.6650 -0.4725 -0.2344
12064TIP3   OH257682   5.527   0.352  14.376 -0.2718  0.4705 -0.6443
12064TIP3    H157683   5.560   0.270  14.339 -2.2610 -0.2672 -0.9530
12064TIP3    H257684   5.534   0.415  14.304 -1.2226 -0.1550 -1.3049
12065TIP3   OH257685   4.110   6.280  16.658  0.8067  0.6562 -0.2201
12065TIP3    H157686   4.069   6.356  16.701 -1.0920 -1.0493  1.1442
12065TIP3    H257687   4.085   6.289  16.566 -0.9814  0.7794  0.2309
12066TIP3   OH257688   2.861   5.263  14.353  0.0127 -0.1211 -0.1928
12066TIP3    H157689   2.944   5.256  14.306  0.8572  1.1704  1.0282
12066TIP3    H257690   2.803   5.310  14.293 -0.0242 -1.4800 -1.2535
12067TIP3   OH257691   3.541   1.994  11.574 -0.6480 -0.5027 -0.5441
12067TIP3    H157692   3.625   1.997  11.621 -1.6131  1.6498  1.2322
12067TIP3    H257693   3.543   2.072  11.518 -0.7916 -1.3988 -1.8357
12068TIP3   OH257694   0.995   3.888  15.311  0.0903  0.0594 -0.1139
12068TIP3    H157695   0.974   3.873  15.219  1.4590  1.6882 -0.7384
12068TIP3    H257696   1.045   3.970  15.311  1.3308 -0.6357  1.9097
12069TIP3   OH257697   1.843   2.853  12.483 -0.0846 -0.6012 -0.0307
12069TIP3    H157698   1.792   2.785  12.527 -2.2254  0.8201 -0.1899
12069TIP3    H257699   1.909   2.879  12.547 -0.6729 -1.2509  0.8602
12070TIP3   OH257700   2.756   6.490   2.407 -0.4969 -0.8039  0.7163
12070TIP3    H157701   2.829   6.462   2.351  1.0114  0.8427  1.7212
12070TIP3    H257702   2.699   6.540   2.349  0.1010 -0.6383  0.2559
12071TIP3   OH257703   2.959   6.427  12.466  0.4509 -0.2974  0.4457
12071TIP3    H157704   3.017   6.451  12.538  0.7296 -0.5779  0.3172
12071TIP3    H257705   2.937   6.510  12.423 -0.8371  0.0444  1.6866
12072TIP3   OH257706   6.531   6.212  14.873 -0.5993  0.4019 -0.1651
12072TIP3    H157707   6.535   6.232  14.780 -0.0471 -0.1395 -0.2659
12072TIP3    H257708   6.542   6.296  14.917 -2.7335  0.9511 -0.5827
12073TIP3   OH257709   0.051   0.655   5.873  0.3283  0.5943 -0.4508
12073TIP3    H157710  -0.013   0.721   5.900  0.6601  0.2870  1.2119
12073TIP3    H257711   0.084   0.619   5.955  1.8939  0.0187 -1.2924
12074TIP3   OH257712   0.299   4.410   0.042  0.3986 -0.1629 -0.6082
12074TIP3    H157713   0.281   4.421  -0.052 -2.3158 -1.1708 -0.2838
12074TIP3    H257714   0.229   4.457   0.086  1.9322  0.7481  0.9879
12075TIP3   OH257715   5.207   2.149   6.215  0.2000 -0.0563  0.2728
12075TIP3    H157716   5.146   2.080   6.192 -0.8405  0.8185  0.3214
12075TIP3    H257717   5.175   2.183   6.298  1.8114 -0.7632  1.2463
12076TIP3   OH257718   5.032   6.629  16.256 -0.0119  0.6818 -0.0121
12076TIP3    H157719   5.010   6.722  16.246 -0.0384  0.4643 -2.9200
12076TIP3    H257720   5.113   6.630  16.307 -0.6755  2.1952  1.1049
12077TIP3   OH257721   4.143   4.437   3.455  0.5314 -1.0182  1.0374
12077TIP3    H157722   4.145   4.365   3.392  0.0918 -1.1790  1.1996
12077TIP3    H257723   4.225   4.484   3.441  0.1349 -0.6448 -0.1281
12078TIP3   OH257724   2.651   1.873  15.076 -0.1965  0.0691 -0.2295
12078TIP3    H157725   2.656   1.965  15.053  0.6424 -0.6121 -3.1782
12078TIP3    H257726   2.717   1.861  15.145  1.5822  1.2192 -1.6577
12079TIP3   OH257727   0.516   6.227   5.615 -0.1110  0.1214 -0.1241
12079TIP3    H157728   0.444   6.175   5.580 -0.0492 -0.4046  0.4990
12079TIP3    H257729   0.476   6.309   5.642 -0.3846  0.0297 -0.2476
12080TIP3   OH257730   4.255   1.960  11.484 -0.5302  0.1448 -0.0644
12080TIP3    H157731   4.318   1.906  11.436 -2.5034 -1.3815 -1.0304
12080TIP3    H257732   4.190   1.985  11.419 -2.1950 -0.2760  1.3638
12081TIP3   OH257733   1.075   2.766  16.118 -0.0108  0.2278 -0.2489
12081TIP3    H157734   1.138   2.781  16.048 -0.9374  0.0568 -1.1509
12081TIP3    H257735   0.990   2.775  16.075 -0.6074  0.9047  1.0298
12082TIP3   OH257736   4.230   1.771   1.187 -0.4654 -0.1467  0.2982
12082TIP3    H157737   4.222   1.825   1.266  2.0062  0.2130  0.3940
12082TIP3    H257738   4.324   1.774   1.166 -0.2891 -3.8223 -0.1098
12083TIP3   OH257739   5.675   3.543  12.399  0.0364 -0.4918  0.0049
12083TIP3    H157740   5.767   3.544  12.372  0.0930 -1.4069  0.1394
12083TIP3    H257741   5.635   3.477  12.342 -0.0807 -1.6485  1.3796
12084TIP3   OH257742   5.295   5.151   0.309  0.6775 -0.2312  0.2972
12084TIP3    H157743   5.344   5.230   0.288  1.2150 -0.5650  0.2560
12084TIP3    H257744   5.245   5.174   0.387  1.9977 -0.2894  1.2054
12085TIP3   OH257745   1.528   4.856   4.296  0.2819  0.3347  0.4288
12085TIP3    H157746   1.606   4.909   4.313  0.6272  0.2525 -0.7637
12085TIP3    H257747   1.455   4.914   4.315  0.6523  1.0844 -0.3473
12086TIP3   OH257748   6.627   6.072  12.773 -0.2702 -0.1961  0.3603
12086TIP3    H157749   6.662   5.991  12.735 -2.6112 -0.4764 -1.3921
12086TIP3    H257750   6.699   6.106  12.826  2.0890 -1.4964 -1.7734
12087TIP3   OH257751   6.502   4.628   6.052 -0.0804 -0.1826  0.0094
12087TIP3    H157752   6.439   4.556   6.042 -1.0542  0.5149  0.9049
12087TIP3    H257753   6.494   4.654   6.143  1.1068  0.3095 -0.0189
12088TIP3   OH257754   6.300   5.845  15.062  0.5635  0.0787 -0.5579
12088TIP3    H157755   6.382   5.895  15.068  1.1000 -0.5467 -2.1685
12088TIP3    H257756   6.281   5.842  14.968  1.1044 -3.5310 -0.6799
12089TIP3   OH257757   4.567   1.644  10.966  0.4627 -0.0215 -0.3649
12089TIP3    H157758   4.644   1.695  10.940  0.7900 -0.4288 -0.2093
12089TIP3    H257759   4.587   1.614  11.055 -0.3447  0.7676  0.0920
12090TIP3   OH257760   5.084   2.036   2.052 -0.3598 -0.3700  0.0935
12090TIP3    H157761   5.018   2.056   2.119 -2.1384 -2.0629 -1.0462
12090TIP3    H257762   5.084   1.941   2.045  2.8518 -0.5173  0.5669
12091TIP3   OH257763   6.393   0.825   6.167 -0.3190  0.3293  0.0877
12091TIP3    H157764   6.412   0.732   6.155 -2.4858  0.1124 -2.3834
12091TIP3    H257765   6.451   0.852   6.239  0.5731 -2.8243  0.6952
12092TIP3   OH257766   5.790   6.674   6.279 -0.2152  0.4637 -0.5847
12092TIP3    H157767   5.743   6.749   6.315  0.1569  0.7813 -0.7539
12092TIP3    H257768   5.879   6.683   6.313 -0.3591 -0.3312  0.0283
12093TIP3   OH257769   0.972   3.724  14.751 -0.4622  0.3244 -0.4803
12093TIP3    H157770   0.918   3.679  14.816 -0.6879  1.2486 -0.0093
12093TIP3    H257771   0.956   3.817  14.768  1.1428  0.6098 -0.4503
12094TIP3   OH257772   0.864   6.178   1.147 -0.3050 -0.1898  0.1163
12094TIP3    H157773   0.869   6.102   1.205 -0.3161  1.1162  1.9371
12094TIP3    H257774   0.782   6.168   1.100 -0.7622 -0.8279  1.0273
12095TIP3   OH257775   5.497   2.873   5.989 -0.3260  0.0173 -0.7094
12095TIP3    H157776   5.455   2.788   6.002 -0.4152  0.3766  1.9316
12095TIP3    H257777   5.435   2.936   6.025  0.4083  1.0602 -1.2170
12096TIP3   OH257778   5.936   4.997   6.350 -0.1982  0.1473  0.1122
12096TIP3    H157779   5.874   4.925   6.345 -3.3269  2.4583  1.9823
12096TIP3    H257780   5.982   4.983   6.433  0.5891 -0.6547 -0.4455
12097TIP3   OH257781   1.826   5.870   0.050 -0.1247 -0.0555 -0.4334
12097TIP3    H157782   1.788   5.830   0.129 -0.7762  0.9740 -0.2006
12097TIP3    H257783   1.914   5.895   0.076 -0.0558 -0.4390 -0.2823
12098TIP3   OH257784   1.520   0.199   4.386 -0.2487 -0.4239  0.2790
12098TIP3    H157785   1.594   0.247   4.422 -0.0335  1.7463 -2.6186
12098TIP3    H257786   1.559   0.138   4.323 -0.8376 -0.0871 -0.4286
12099TIP3   OH257787   2.962   4.726  13.212 -0.1515 -0.2740  0.1221
12099TIP3    H157788   2.950   4.635  13.237  0.4451 -0.0060  1.4676
12099TIP3    H257789   3.055   4.743  13.226  0.1721 -0.0080 -2.0714
12100TIP3   OH257790   0.859   4.183   6.207 -0.5783  0.6153  0.4446
12100TIP3    H157791   0.914   4.191   6.286 -1.2082  0.0867  0.9514
12100TIP3    H257792   0.786   4.242   6.223 -1.0025  0.0808  0.5224
12101TIP3   OH257793   1.203   6.340  10.729  0.0291  0.2193 -0.4411
12101TIP3    H157794   1.268   6.270  10.716 -1.1287 -0.6431 -1.8961
12101TIP3    H257795   1.191   6.344  10.823  0.9946 -0.7421 -0.2545
12102TIP3   OH257796   5.112   1.467   6.136  0.0511 -0.0254 -0.1027
12102TIP3    H157797   5.187   1.479   6.194 -0.8537 -2.4022  1.7245
12102TIP3    H257798   5.078   1.556   6.122  1.7597  0.8470  1.0135
12103TIP3   OH257799   4.514   2.427   1.871 -0.0437  0.3498  0.3305
12103TIP3    H157800   4.447   2.421   1.940 -1.4350  1.0556 -0.8987
12103TIP3    H257801   4.502   2.514   1.833  1.8598  0.6416  0.3127
12104TIP3   OH257802   4.997   5.278   2.956 -0.8344 -0.3459  0.5213
12104TIP3    H157803   5.025   5.354   2.905 -1.1884 -0.5380  0.0324
12104TIP3    H257804   5.077   5.226   2.969 -0.4128  0.5497  1.6317
12105TIP3   OH257805   5.714   6.085  16.447  0.2367 -0.6412 -0.1279
12105TIP3    H157806   5.621   6.071  16.428  0.2620  0.5625 -1.3064
12105TIP3    H257807   5.722   6.179  16.462  1.2429 -0.7465  0.1029
12106TIP3   OH257808   6.584   2.105  12.427  1.3315 -0.1822 -0.0687
12106TIP3    H157809   6.677   2.109  12.406  1.5826  0.3989  1.0392
12106TIP3    H257810   6.581   2.065  12.515  0.6835  1.4023  0.6746
12107TIP3   OH257811   4.939   0.663   4.686 -0.2389 -0.1227  0.2209
12107TIP3    H157812   4.939   0.586   4.743 -1.7163 -0.3375 -0.0192
12107TIP3    H257813   4.953   0.737   4.745  0.5537 -0.5133  0.5384
12108TIP3   OH257814   3.079   0.527  14.102  0.3116 -0.2024 -0.5999
12108TIP3    H157815   3.039   0.443  14.080 -0.1300 -0.2680  0.3763
12108TIP3    H257816   3.166   0.505  14.136  0.2175 -0.2667 -0.3981
12109TIP3   OH257817   0.373   2.328   3.157  0.2602 -0.3918 -0.2783
12109TIP3    H157818   0.344   2.420   3.158  0.8013 -0.1602 -2.1071
12109TIP3    H257819   0.409   2.313   3.244  0.4173  1.2221 -0.0403
12110TIP3   OH257820   0.308   5.004  11.350  0.1004  0.2686 -0.2105
12110TIP3    H157821   0.233   4.954  11.316 -1.2886  1.4103  1.0516
12110TIP3    H257822   0.346   5.046  11.272 -0.8030 -0.0391 -0.8326
12111TIP3   OH257823   1.973   0.213  10.562 -0.0857 -0.2263 -0.4528
12111TIP3    H157824   1.981   0.308  10.569 -0.4265 -0.0635 -1.9895
12111TIP3    H257825   1.901   0.190  10.622 -1.4153  0.7542 -1.6337
12112TIP3   OH257826   1.826   0.479  11.214  0.1315  0.0937 -0.1200
12112TIP3    H157827   1.751   0.480  11.154  0.4824 -1.7720 -0.6554
12112TIP3    H257828   1.793   0.438  11.293  0.3943 -0.0512 -0.0839
12113TIP3   OH257829   6.508   3.214  15.383 -0.0961 -0.0283  0.4738
12113TIP3    H157830   6.526   3.170  15.300  0.4483  1.8713 -0.4801
12113TIP3    H257831   6.580   3.276  15.392  0.7631 -1.2814  3.2194
12114TIP3   OH257832   1.599   5.163  13.938  0.1123 -0.0483  0.1560
12114TIP3    H157833   1.690   5.189  13.955 -0.3702  2.4150 -0.6543
12114TIP3    H257834   1.595   5.150  13.843 -1.1345  3.6817 -0.4668
12115TIP3   OH257835   1.847   3.737   2.689  0.3658 -0.1167  0.4039
12115TIP3    H157836   1.920   3.764   2.744  0.9743 -1.2235  0.1811
12115TIP3    H257837   1.888   3.691   2.615 -0.4872  0.4881 -0.4627
12116TIP3   OH257838   0.052   4.506   5.332 -0.3611 -0.5196  0.2788
12116TIP3    H157839   0.053   4.597   5.302  0.2370  0.2430  2.4133
12116TIP3    H257840   0.054   4.454   5.252  1.0441  1.3420 -0.9831
12117TIP3   OH257841   3.053   5.843   3.876 -0.1849  0.2942  0.0645
12117TIP3    H157842   3.015   5.904   3.812 -0.0104  1.0508  0.6723
12117TIP3    H257843   3.144   5.831   3.846 -0.1927  0.4056 -0.0058
12118TIP3   OH257844   4.592   0.750  14.682  0.2328  0.0368 -0.9705
12118TIP3    H157845   4.576   0.764  14.589 -1.1926 -0.8858 -0.9094
12118TIP3    H257846   4.521   0.798  14.726  0.7160  0.2211 -0.3790
12119TIP3   OH257847   6.359   0.672  10.789  0.0828 -0.5893 -0.1643
12119TIP3    H157848   6.438   0.716  10.757  1.7002 -1.8478  1.9142
12119TIP3    H257849   6.292   0.696  10.725  2.3043 -0.1729 -2.5124
12120TIP3   OH257850   0.664   3.174   4.095  0.4146  0.1043  0.3115
12120TIP3    H157851   0.746   3.200   4.052  0.3347  1.0701  0.7236
12120TIP3    H257852   0.603   3.160   4.023  1.4348 -2.5952 -0.1499
12121TIP3   OH257853   6.689   0.319   5.129  0.4165  0.2885  0.3894
12121TIP3    H157854   6.712   0.232   5.163 -0.1655  0.0615  0.2174
12121TIP3    H257855   6.641   0.361   5.201 -1.1034 -0.3149 -0.2280
12122TIP3   OH257856   3.734   6.206  16.544  0.0647  0.2008  0.0134
12122TIP3    H157857   3.797   6.139  16.519 -0.1235 -1.2342  2.9560
12122TIP3    H257858   3.665   6.200  16.478 -0.1790 -2.9000  0.3974
12123TIP3   OH257859   3.987   5.674   3.881 -0.0809  0.1266  0.0736
12123TIP3    H157860   3.927   5.706   3.813  0.8804  1.3871 -0.2077
12123TIP3    H257861   4.066   5.648   3.833 -0.2498 -1.1995  0.4782
12124TIP3   OH257862   0.273   6.500   4.640  0.6752  0.0541  0.1222
12124TIP3    H157863   0.358   6.458   4.652  0.1565 -0.9747  0.3533
12124TIP3    H257864   0.216   6.429   4.611 -0.2571  0.5912  0.6100
12125TIP3   OH257865   0.837   1.859  14.893  0.1248  0.0144  0.0222
12125TIP3    H157866   0.829   1.953  14.879  2.1515  0.3458  0.7392
12125TIP3    H257867   0.897   1.851  14.968 -1.1022 -1.8272  0.8980
12126TIP3   OH257868   1.894   6.335   0.114  0.4371 -0.8674 -0.0745
12126TIP3    H157869   1.839   6.386   0.054 -0.3984  0.6632  1.8861
12126TIP3    H257870   1.974   6.317   0.064 -0.3727 -0.0018 -1.7551
12127TIP3   OH257871   0.620   3.255   4.489 -0.6498  0.0437 -0.7124
12127TIP3    H157872   0.642   3.321   4.423 -1.7455  0.6427 -0.5073
12127TIP3    H257873   0.597   3.177   4.438 -2.8907  0.9222 -1.1684
12128TIP3   OH257874   4.883   0.478  11.101  0.8688 -0.2906 -0.5395
12128TIP3    H157875   4.896   0.449  11.010  1.1406  1.5302 -1.1244
12128TIP3    H257876   4.821   0.551  11.094 -1.2140 -1.7942  1.0577
12129TIP3   OH257877   3.850   2.795   1.239  0.1178 -0.1361 -0.3046
12129TIP3    H157878   3.789   2.797   1.312 -0.1701 -0.6193 -0.5237
12129TIP3    H257879   3.839   2.880   1.196  0.5939  0.3105  0.4539
12130TIP3   OH257880   5.915   0.805  13.793 -0.3520  0.0628 -0.1695
12130TIP3    H157881   5.916   0.889  13.746 -0.4576  0.1256 -0.0598
12130TIP3    H257882   5.864   0.747  13.737  0.3772 -0.1554 -0.6326
12131TIP3   OH257883   2.626   1.875   6.110  0.3945  0.5370  0.2644
12131TIP3    H157884   2.655   1.926   6.034 -2.8539 -1.1507 -2.3836
12131TIP3    H257885   2.705   1.861   6.161  3.3137  0.1211 -3.8295
12132TIP3   OH257886   5.751   1.452  13.415  0.4417  0.4521 -0.2526
12132TIP3    H157887   5.829   1.467  13.362  1.4387 -0.0032  1.0249
12132TIP3    H257888   5.785   1.435  13.503 -1.0929  0.0692  0.2997
12133TIP3   OH257889   1.363   0.833   5.347 -0.1344 -0.0692 -0.7337
12133TIP3    H157890   1.396   0.743   5.352  0.6136  0.2222 -0.2019
12133TIP3    H257891   1.392   0.873   5.429 -0.3662  0.6871 -1.0173
12134TIP3   OH257892   6.020   5.921  13.810  0.4670  0.0672  0.0798
12134TIP3    H157893   5.974   5.947  13.730 -0.3529  1.4240  0.9504
12134TIP3    H257894   6.021   6.001  13.863 -0.8863 -1.3085  2.3106
12135TIP3   OH257895   5.784   1.156  10.476  0.1793 -0.2776 -0.4759
12135TIP3    H157896   5.793   1.251  10.486  0.6336 -0.3901  0.2593
12135TIP3    H257897   5.780   1.123  10.566 -1.4859 -0.8267 -0.7152
12136TIP3   OH257898   2.044   6.788   2.486 -0.1163  0.3975 -0.0831
12136TIP3    H157899   2.027   6.766   2.577 -1.0750 -2.4050 -0.8178
12136TIP3    H257900   1.985   6.730   2.436  1.4781  0.7058 -2.5096
12137TIP3   OH257901   1.053   0.671   3.835 -0.6284 -0.5678  0.3253
12137TIP3    H157902   1.118   0.656   3.903 -0.4156 -0.9902  0.0343
12137TIP3    H257903   0.970   0.641   3.873 -0.9221  1.2050  1.1965
12138TIP3   OH257904   2.069   2.250   3.497 -0.8425 -0.6295  0.4307
12138TIP3    H157905   2.005   2.250   3.568 -0.3809  0.7004  0.8632
12138TIP3    H257906   2.087   2.157   3.482 -1.9098 -0.9741  1.1691
12139TIP3   OH257907   3.828   3.067  17.083 -0.3636 -0.0815 -0.1481
12139TIP3    H157908   3.917   3.055  17.115 -0.9550 -1.3672  1.1434
12139TIP3    H257909   3.813   2.993  17.024 -0.7088 -0.0887 -0.0538
12140TIP3   OH257910   3.052   5.655   5.238 -0.0552  0.0420  0.1603
12140TIP3    H157911   3.006   5.657   5.322  0.1225  0.5876  0.2496
12140TIP3    H257912   2.995   5.705   5.179 -0.5747 -1.0111 -0.2584
12141TIP3   OH257913   0.822   4.733  14.233 -0.6112 -0.4570  0.5764
12141TIP3    H157914   0.748   4.704  14.179 -0.0140 -0.8520 -0.0560
12141TIP3    H257915   0.873   4.653  14.249 -0.3886 -0.2131  1.1076
12142TIP3   OH257916   4.917   0.696   1.541  0.3662  0.4575  0.4855
12142TIP3    H157917   4.962   0.655   1.467 -2.0369  1.9967 -2.0439
12142TIP3    H257918   4.856   0.629   1.572 -1.0045  0.8171 -1.2574
12143TIP3   OH257919   2.940   2.976  11.370 -0.3656  0.5423 -0.4631
12143TIP3    H157920   2.939   2.918  11.294  2.1370  1.6437 -1.4253
12143TIP3    H257921   2.990   2.928  11.436 -1.9133 -0.0991  0.3138
12144TIP3   OH257922   1.215   1.313   1.503  0.0400 -0.2839 -0.7160
12144TIP3    H157923   1.216   1.219   1.518 -1.2355 -0.1562  0.3714
12144TIP3    H257924   1.307   1.338   1.498  0.4205 -1.4079  0.2421
12145TIP3   OH257925   5.749   3.623   0.180 -0.0587 -0.2226  0.6177
12145TIP3    H157926   5.746   3.540   0.228 -0.0836 -1.5033 -1.4818
12145TIP3    H257927   5.663   3.631   0.140  0.9693 -1.0001 -1.9684
12146TIP3   OH257928   1.938   1.085   0.341  0.0427 -0.4223  0.5026
12146TIP3    H157929   2.008   1.118   0.397 -0.9582 -0.9094  2.1132
12146TIP3    H257930   1.908   1.005   0.384  1.0119 -2.3773 -2.1853
12147TIP3   OH257931   1.552   4.711   4.038 -0.7544  0.2251 -0.1811
12147TIP3    H157932   1.570   4.734   4.129 -2.2050  0.5287  0.0635
12147TIP3    H257933   1.628   4.742   3.989 -0.5844  1.3330  0.7519
12148TIP3   OH257934   0.103   4.074  13.850  0.1628  0.3920 -0.0369
12148TIP3    H157935   0.030   4.029  13.892 -0.2645  0.0532 -1.1359
12148TIP3    H257936   0.177   4.060  13.910  0.0322 -1.6981 -0.3002
12149TIP3   OH257937   6.082   2.931   3.258 -0.1914  0.4788 -0.5638
12149TIP3    H157938   6.115   2.867   3.194 -2.4662  0.2422 -1.6365
12149TIP3    H257939   6.131   3.011   3.240  1.3157 -0.4034 -0.5390
12150TIP3   OH257940   4.584   3.128  11.716  0.5028  0.1959  0.2727
12150TIP3    H157941   4.557   3.072  11.789 -0.4234 -0.8801 -0.8465
12150TIP3    H257942   4.558   3.079  11.638 -0.0319  2.0617 -0.7721
12151TIP3   OH257943   5.041   2.079  13.354 -0.0065 -0.8259  0.1885
12151TIP3    H157944   5.021   2.060  13.262  0.0732 -0.4395  0.0899
12151TIP3    H257945   4.987   2.155  13.375  1.0050 -0.0393  0.0478
12152TIP3   OH257946   1.078   0.723  14.145 -0.1550  0.2033  0.3465
12152TIP3    H157947   0.982   0.714  14.139  0.0109 -1.2260 -0.6872
12152TIP3    H257948   1.096   0.720  14.239 -0.9637 -1.8443  0.4913
12153TIP3   OH257949   1.534   4.135   0.676 -0.7271 -0.3147 -0.1661
12153TIP3    H157950   1.564   4.212   0.725  0.6368 -0.7666 -0.2425
12153TIP3    H257951   1.566   4.061   0.727  1.5338 -0.8157 -2.0924
12154TIP3   OH257952   0.809   2.381  14.648  0.6099 -0.3684  0.5530
12154TIP3    H157953   0.790   2.470  14.617  0.7127 -0.8244 -0.9006
12154TIP3    H257954   0.748   2.326  14.600 -0.4166 -0.9853  2.4741
12155TIP3   OH257955   4.625   0.853   4.506  0.3984  0.0802  0.4216
12155TIP3    H157956   4.694   0.786   4.509  0.0120 -0.4313 -1.0347
12155TIP3    H257957   4.672   0.936   4.505  0.9269 -0.1969  1.1302
12156TIP3   OH257958   0.770   6.555  14.571  0.6128  0.4680 -0.2132
12156TIP3    H157959   0.676   6.544  14.589  0.5620  2.2524  0.8770
12156TIP3    H257960   0.787   6.647  14.591  2.4173  0.4205 -1.3127
12157TIP3   OH257961   5.327   0.628   1.226  0.1678 -0.2374 -0.0465
12157TIP3    H157962   5.367   0.704   1.270 -1.1971  0.2651  0.4001
12157TIP3    H257963   5.324   0.561   1.294  0.6562 -0.4310 -0.2131
12158TIP3   OH257964   0.310   1.342  12.389  0.5961 -0.6570  0.1411
12158TIP3    H157965   0.353   1.364  12.471 -0.4141  4.1140 -0.3040
12158TIP3    H257966   0.374   1.364  12.321  0.4745 -2.0043 -0.4452
12159TIP3   OH257967   1.986   4.769  12.343 -0.6984 -0.8805  0.0327
12159TIP3    H157968   1.921   4.766  12.273 -0.7424 -1.6852  0.0999
12159TIP3    H257969   1.954   4.708  12.409  1.3176 -3.2290 -1.0097
12160TIP3   OH257970   4.968   0.044  13.013  0.0828  0.3964  0.2962
12160TIP3    H157971   4.978  -0.045  13.046  0.2254  0.7899  1.3311
12160TIP3    H257972   4.873   0.059  13.011  0.0865  0.5161  0.9345
12161TIP3   OH257973   5.285   5.187  12.311 -0.5028 -0.1646 -0.5265
12161TIP3    H157974   5.191   5.167  12.318 -0.5016  0.0803  0.3235
12161TIP3    H257975   5.326   5.131  12.378 -0.1825  0.6148 -0.0594
12162TIP3   OH257976   5.138   6.237  12.390  0.4725 -0.5650 -0.7828
12162TIP3    H157977   5.082   6.245  12.313 -2.1349  0.9600  1.1186
12162TIP3    H257978   5.109   6.157  12.433  0.0017 -0.0036 -0.0214
12163TIP3   OH257979   3.596   0.684   0.996  0.5572  0.2449  0.4075
12163TIP3    H157980   3.516   0.736   1.004  0.7747  0.9230 -1.2916
12163TIP3    H257981   3.581   0.607   1.051 -0.5187  1.2215  1.5294
12164TIP3   OH257982   1.777   4.635   2.657  0.4708  0.2305  0.0032
12164TIP3    H157983   1.830   4.592   2.725  1.8023  0.5627 -0.7715
12164TIP3    H257984   1.748   4.717   2.697  1.9775  0.8388 -0.0865
12165TIP3   OH257985   2.237   6.311   4.814 -0.3819  0.1379  0.7566
12165TIP3    H157986   2.270   6.372   4.881 -0.8864 -0.5754  1.6808
12165TIP3    H257987   2.311   6.296   4.756 -0.4459  2.2299  0.0410
12166TIP3   OH257988   4.324   3.048   5.257  0.0755 -0.1342  0.2459
12166TIP3    H157989   4.263   3.007   5.195  0.5381  0.4821 -0.6359
12166TIP3    H257990   4.312   2.998   5.338 -0.7084 -0.8117 -0.2629
12167TIP3   OH257991   5.213   2.551  12.527 -0.6575 -0.5294  0.1453
12167TIP3    H157992   5.216   2.456  12.538  0.2828 -0.4138  1.1283
12167TIP3    H257993   5.123   2.575  12.547 -1.5307 -1.4145 -2.3551
12168TIP3   OH257994   2.720   6.607   0.385  0.8134  0.0167 -0.5082
12168TIP3    H157995   2.697   6.633   0.474  0.6670 -3.7283  0.6814
12168TIP3    H257996   2.811   6.636   0.374  0.1796  2.4236 -0.0569
12169TIP3   OH257997   4.032   1.200  12.935  0.1297 -0.5354 -0.7717
12169TIP3    H157998   4.039   1.296  12.941  0.5892 -0.6583  1.7313
12169TIP3    H257999   3.972   1.185  12.862 -1.0944  1.7185 -0.3218
12170TIP3   OH258000   2.149   0.508   3.558  0.3706  0.2885  0.2929
12170TIP3    H158001   2.106   0.435   3.513  1.6886  0.1320 -0.7619
12170TIP3    H258002   2.095   0.584   3.537  0.2777  0.0049 -0.5316
12171TIP3   OH258003   0.964   5.421   4.276  0.1893  0.0756  0.2405
12171TIP3    H158004   0.951   5.499   4.331  1.8287  0.9847 -0.6034
12171TIP3    H258005   0.938   5.348   4.332 -0.0860  1.1202  1.5246
12172TIP3   OH258006   0.252   3.204   1.391  0.1891  0.0459  0.1683
12172TIP3    H158007   0.168   3.159   1.378 -0.3105  1.1067 -0.4696
12172TIP3    H258008   0.311   3.164   1.327 -0.0869 -0.0978 -0.0007
12173TIP3   OH258009   1.752   3.331  15.863  0.2397  0.0235 -0.5417
12173TIP3    H158010   1.695   3.380  15.922  1.7655  1.6368 -0.3099
12173TIP3    H258011   1.757   3.244  15.901  0.6716  0.8445  1.3878
12174TIP3   OH258012   2.853   3.906   6.049  0.6453  0.1551 -0.0877
12174TIP3    H158013   2.786   3.971   6.069  1.5812  0.8297  0.9615
12174TIP3    H258014   2.853   3.847   6.124  1.0966  0.0532 -0.1631
12175TIP3   OH258015   3.126   6.103   4.933  0.3329 -0.1958  0.3612
12175TIP3    H158016   3.183   6.141   4.866 -0.1607  2.5767  1.3579
12175TIP3    H258017   3.183   6.087   5.007  0.2484  0.2337  0.5201
12176TIP3   OH258018   2.870   0.849   5.237 -0.6822  0.0246  0.6780
12176TIP3    H158019   2.831   0.937   5.235 -0.2034  0.2303  0.2390
12176TIP3    H258020   2.952   0.861   5.286 -0.0817  0.0516 -0.2986
12177TIP3   OH258021   3.498   6.762  13.187 -0.0149  0.3472  0.4332
12177TIP3    H158022   3.518   6.695  13.120  1.6765  0.3758  0.8567
12177TIP3    H258023   3.403   6.760  13.194 -0.1842 -0.3154 -1.3055
12178TIP3   OH258024   0.343   4.126  15.515  0.5265 -0.0216  0.5086
12178TIP3    H158025   0.284   4.201  15.519  0.1941 -0.3258  1.4743
12178TIP3    H258026   0.406   4.148  15.446  0.3515  1.0803  0.6898
12179TIP3   OH258027   3.649   5.948   4.011  0.0490 -0.5197 -0.9505
12179TIP3    H158028   3.558   5.949   4.042 -0.1204  1.1865 -1.4202
12179TIP3    H258029   3.665   5.856   3.988 -0.8959 -1.2362  0.9879
12180TIP3   OH258030   0.168   5.512  11.545 -0.0805  0.5563  0.1952
12180TIP3    H158031   0.081   5.543  11.520  0.2412  0.3923 -1.2646
12180TIP3    H258032   0.167   5.419  11.521  0.5634  0.6048 -0.0232
12181TIP3   OH258033   4.293   4.413   1.499 -0.1866  0.0302  0.2037
12181TIP3    H158034   4.363   4.377   1.445 -0.9635 -0.6813 -0.3464
12181TIP3    H258035   4.257   4.484   1.447 -1.0128 -0.7314 -0.2916
12182TIP3   OH258036   3.734   3.528   4.668 -0.3973 -0.2699 -0.3040
12182TIP3    H158037   3.781   3.500   4.747 -1.9409  0.9039  1.0958
12182TIP3    H258038   3.720   3.447   4.619  0.2644 -1.0936  0.8188
12183TIP3   OH258039   0.860   0.020  13.354  0.0490 -0.0373 -0.2577
12183TIP3    H158040   0.874   0.093  13.414 -1.2630 -0.1239  0.1862
12183TIP3    H258041   0.915   0.040  13.278  0.9289  0.5968  0.5137
12184TIP3   OH258042   6.649   6.421   0.129 -0.5662  0.5311 -0.8141
12184TIP3    H158043   6.579   6.371   0.088 -0.7444  2.8284 -3.6716
12184TIP3    H258044   6.711   6.438   0.057  2.4972 -0.5460  1.3727
12185TIP3   OH258045   5.815   1.902  13.691 -0.1189  0.1716  0.8003
12185TIP3    H158046   5.753   1.974  13.677 -0.5667 -0.2928  0.3596
12185TIP3    H258047   5.763   1.834  13.733  0.3736  0.2050  1.4825
12186TIP3   OH258048   3.234   2.753  12.718  0.1591  0.5216 -0.2298
12186TIP3    H158049   3.298   2.794  12.661  3.4387  0.5740  3.0838
12186TIP3    H258050   3.205   2.675  12.671  1.0991  1.5927 -2.7162
12187TIP3   OH258051   3.521   3.718   1.128  0.2409  0.4262 -0.4743
12187TIP3    H158052   3.491   3.630   1.105 -0.0504 -0.2110  2.0289
12187TIP3    H258053   3.454   3.752   1.187  0.6629  2.0968 -0.8943
12188TIP3   OH258054   6.782   2.648   1.267  0.0843 -0.2701  0.7414
12188TIP3    H158055   6.862   2.699   1.257  0.9369 -1.1971  2.5113
12188TIP3    H258056   6.808   2.558   1.247 -0.7697 -0.4368  0.3361
12189TIP3   OH258057   5.968   1.221   3.077  0.2104  0.6848 -0.2170
12189TIP3    H158058   5.934   1.138   3.110 -0.1246  1.0733  0.4295
12189TIP3    H258059   5.892   1.263   3.036  0.4628  0.5169 -0.8692
12190TIP3   OH258060   5.388   3.444  16.221 -0.3447  0.0492 -0.0163
12190TIP3    H158061   5.433   3.527  16.238  0.0903 -0.2498  0.3217
12190TIP3    H258062   5.406   3.426  16.129  2.1842 -1.1894  0.6316
12191TIP3   OH258063   0.735   6.042   4.078  0.1025 -0.3098 -0.2182
12191TIP3    H158064   0.830   6.036   4.073  0.3062  0.0198  2.0558
12191TIP3    H258065   0.705   6.023   3.990  2.2596 -0.6826 -0.9335
12192TIP3   OH258066   0.583   2.396  13.412  0.4400 -0.1745  0.2159
12192TIP3    H158067   0.505   2.452  13.413  0.5283  0.1181  3.7772
12192TIP3    H258068   0.654   2.453  13.442  1.1704 -1.4310  0.9677
12193TIP3   OH258069   2.517   0.095  11.343 -0.1012 -0.5904 -0.3676
12193TIP3    H158070   2.438   0.149  11.348  0.0382 -0.4331  0.1762
12193TIP3    H258071   2.486   0.005  11.358  0.0346 -0.3516  1.6443
12194TIP3   OH258072   0.899   0.530  11.375 -0.4458  0.1258  0.5740
12194TIP3    H158073   0.867   0.543  11.285 -0.0852  0.2866  0.4702
12194TIP3    H258074   0.819   0.529  11.428 -0.6107  0.7905  0.3428
12195TIP3   OH258075   1.563   4.855   2.434 -0.1734  0.3569 -0.0912
12195TIP3    H158076   1.514   4.862   2.516  0.6639  0.9847  0.3615
12195TIP3    H258077   1.587   4.945   2.412  3.0819 -0.0914  1.1301
12196TIP3   OH258078   2.997   3.307  15.131 -0.2523 -0.1247  0.3215
12196TIP3    H158079   3.072   3.290  15.074 -0.3084  2.3386 -0.6330
12196TIP3    H258080   3.034   3.351  15.208 -0.2846 -2.6574  1.8979
12197TIP3   OH258081   6.556   2.198   5.813 -0.6303  0.1591  0.2421
12197TIP3    H158082   6.596   2.120   5.850  1.2853  0.4177 -1.1432
12197TIP3    H258083   6.582   2.269   5.873 -0.6854  0.0418  0.4070
12198TIP3   OH258084   5.385   5.504  13.777 -0.1527  0.2010 -1.1420
12198TIP3    H158085   5.358   5.415  13.757 -1.7411  0.7205 -1.5215
12198TIP3    H258086   5.412   5.541  13.692  0.3373  0.1273 -1.0169
12199TIP3   OH258087   3.127   5.311   5.443  0.0468  0.3387  0.4870
12199TIP3    H158088   3.186   5.360   5.385  0.0960 -1.7548 -1.3295
12199TIP3    H258089   3.051   5.368   5.452  2.1490  3.1404  2.8814
12200TIP3   OH258090   4.351   1.076   4.900  0.0692  0.2422 -0.2701
12200TIP3    H158091   4.279   1.018   4.925  1.6559 -1.0112  1.7010
12200TIP3    H258092   4.336   1.157   4.950  1.3304 -0.9720  2.2338
12201TIP3   OH258093   3.786   1.260   3.144 -1.0349 -0.2640  0.1901
12201TIP3    H158094   3.718   1.192   3.145 -1.9469  0.6230  0.0985
12201TIP3    H258095   3.867   1.213   3.162 -1.7188 -1.3049  0.6491
12202TIP3   OH258096   6.165   1.303   1.055  0.6471 -0.3677 -0.0572
12202TIP3    H158097   6.123   1.385   1.030  0.7211 -0.5280 -0.7254
12202TIP3    H258098   6.092   1.245   1.077  0.6228  0.1603  1.3748
12203TIP3   OH258099   6.685   2.834   5.128 -0.3321 -0.0023 -0.5524
12203TIP3    H158100   6.602   2.857   5.087  0.1196 -0.8569 -2.0541
12203TIP3    H258101   6.678   2.740   5.145  0.8259 -0.4130 -2.0786
12204TIP3   OH258102   6.657   4.581   0.798  0.2106 -0.2337 -0.0581
12204TIP3    H158103   6.598   4.515   0.762  0.6686  0.2361 -1.7972
12204TIP3    H258104   6.602   4.657   0.815 -0.2907 -0.9755  1.8048
12205TIP3   OH258105   4.211   2.916  12.807  0.0125 -0.4764  0.3802
12205TIP3    H158106   4.297   2.914  12.849  0.0771  2.2840  0.5908
12205TIP3    H258107   4.161   2.980  12.858 -1.3095 -0.1496 -1.2364
12206TIP3   OH258108   3.659   6.265   1.515  0.1514 -0.2971 -0.2293
12206TIP3    H158109   3.596   6.318   1.564 -0.2440 -0.5113 -0.5033
12206TIP3    H258110   3.736   6.262   1.571 -0.4734 -0.9829  0.6283
12207TIP3   OH258111   2.313   3.773  13.228  0.3855  0.3573 -0.3326
12207TIP3    H158112   2.333   3.733  13.143 -0.6083  2.3099 -1.5635
12207TIP3    H258113   2.299   3.866  13.208 -0.7819  0.7088  1.8268
12208TIP3   OH258114   0.326   0.011  14.437 -0.5913 -0.2871 -0.0131
12208TIP3    H158115   0.279   0.062  14.371 -0.5323 -1.7651 -1.2733
12208TIP3    H258116   0.260  -0.009  14.503 -0.5192  1.6821  0.7226
12209TIP3   OH258117   3.502   0.511  13.432 -0.4105 -0.3413 -0.3809
12209TIP3    H158118   3.591   0.526  13.401  0.0626  0.9615  1.3951
12209TIP3    H258119   3.451   0.581  13.391 -0.6318 -1.0541 -1.3547
12210TIP3   OH258120   1.257   3.104   1.562  0.6377 -0.0157 -0.1899
12210TIP3    H158121   1.334   3.134   1.610  0.1155  0.1969  0.5275
12210TIP3    H258122   1.195   3.078   1.630 -1.1135  2.6868 -0.6044
12211TIP3   OH258123   5.906   0.981  12.908  0.5706 -0.5756  0.1986
12211TIP3    H158124   5.985   1.004  12.859  0.3311  0.4192  0.2636
12211TIP3    H258125   5.938   0.944  12.990  0.9719 -1.6115 -0.4027
12212TIP3   OH258126   1.201   6.419   5.768  0.4195  0.1865 -0.1017
12212TIP3    H158127   1.180   6.326   5.769  0.3834  0.1963  0.0642
12212TIP3    H258128   1.286   6.425   5.811 -0.5911  0.4744  1.9893
12213TIP3   OH258129   2.559   5.018   0.440  0.3453  0.5289  0.3742
12213TIP3    H158130   2.560   4.990   0.531 -2.0246  2.0528  0.9542
12213TIP3    H258131   2.608   5.100   0.439 -1.1657  1.4779  0.7055
12214TIP3   OH258132   5.389   2.973  15.939 -0.4091  0.6306 -0.0906
12214TIP3    H158133   5.427   3.052  15.899 -2.2193  0.3577 -2.6239
12214TIP3    H258134   5.315   3.006  15.989  0.1047  0.6987  0.6411
12215TIP3   OH258135   6.721   6.516   1.701  0.3215 -0.1831 -0.4606
12215TIP3    H158136   6.640   6.565   1.689  1.4260  2.0369  0.3878
12215TIP3    H258137   6.703   6.455   1.773 -0.4786  0.6136  0.0316
12216TIP3   OH258138   4.684   3.867  13.094  0.5750  0.4972 -0.4955
12216TIP3    H158139   4.742   3.792  13.081 -0.7082 -1.0299  1.7813
12216TIP3    H258140   4.696   3.890  13.186 -2.5107 -0.0519  0.1396
12217TIP3   OH258141   6.511   2.771  13.077 -0.5526 -0.6379 -0.4096
12217TIP3    H158142   6.489   2.864  13.071 -0.4001 -0.6863 -2.0767
12217TIP3    H258143   6.429   2.726  13.060 -0.5578 -0.8164  0.0759
12218TIP3   OH258144   1.166   2.716   2.273 -0.1259  0.2218 -0.5161
12218TIP3    H158145   1.230   2.760   2.217 -0.4709  0.7698 -0.4838
12218TIP3    H258146   1.148   2.633   2.227  0.6427  0.0354 -0.4939
12219TIP3   OH258147   0.074   0.105   3.337  0.2187  0.4644  0.7012
12219TIP3    H158148   0.169   0.113   3.342  0.7081 -1.5930 -2.4428
12219TIP3    H258149   0.047   0.088   3.427  2.5191  2.9674  2.0152
12220TIP3   OH258150   3.470   2.844  16.651  0.2142 -0.0666 -0.5989
12220TIP3    H158151   3.396   2.903  16.662  0.5291  0.0416  1.2959
12220TIP3    H258152   3.546   2.902  16.644  0.4774 -0.1931  0.8638
12221TIP3   OH258153   0.873   1.283   5.754  0.4770  0.1677 -0.1237
12221TIP3    H158154   0.823   1.254   5.830  0.6479  0.2825  0.0331
12221TIP3    H258155   0.883   1.378   5.767  1.0308  0.0921  0.0228
12222TIP3   OH258156   5.628   2.143  15.006 -0.4259 -0.4602  0.3777
12222TIP3    H158157   5.543   2.186  14.997  0.8655  2.1504 -0.3391
12222TIP3    H258158   5.681   2.205  15.055  1.9631 -0.5959 -1.8247
12223TIP3   OH258159   1.454   2.344   5.057  0.0445  0.1349 -0.2628
12223TIP3    H158160   1.436   2.348   5.151 -0.6444 -0.8666 -0.3227
12223TIP3    H258161   1.423   2.428   5.023 -0.9451 -0.0073  0.2335
12224TIP3   OH258162   2.939   2.953   6.123  0.7428  0.1296  0.6251
12224TIP3    H158163   2.866   2.959   6.062  1.7088 -1.6337 -0.7975
12224TIP3    H258164   2.925   2.870   6.170  1.1787  0.3860  1.2319
12225TIP3   OH258165   3.170   1.413   1.418  0.7799 -0.7254 -0.1988
12225TIP3    H158166   3.156   1.325   1.384  1.0495 -1.1498  0.7543
12225TIP3    H258167   3.168   1.469   1.341 -0.2432 -1.4601 -0.7291
12226TIP3   OH258168   1.180   1.934  13.714 -0.0379 -0.1473 -0.2144
12226TIP3    H158169   1.188   1.998  13.644 -0.0431 -1.5901 -1.5754
12226TIP3    H258170   1.096   1.890  13.698  0.1721 -0.8101  0.4152
12227TIP3   OH258171   4.088   2.910   0.377  0.0013 -0.2396  0.1103
12227TIP3    H158172   4.072   2.980   0.440 -1.2919  0.6738 -1.1725
12227TIP3    H258173   4.016   2.848   0.391 -1.3675  0.8713 -1.6237
12228TIP3   OH258174   5.943   3.745   5.701  0.4302  0.0053 -0.4678
12228TIP3    H158175   5.876   3.810   5.679  1.1504  1.3268  0.9945
12228TIP3    H258176   5.926   3.672   5.642 -1.2129  1.0005 -1.3125
12229TIP3   OH258177   1.385   3.482   3.341 -0.1831 -0.3123 -0.1170
12229TIP3    H158178   1.333   3.562   3.331 -1.6119 -1.2641 -0.7756
12229TIP3    H258179   1.411   3.482   3.433 -0.0899  0.9297 -0.1193
12230TIP3   OH258180   5.515   2.080   1.916 -0.2972 -0.2097 -0.2522
12230TIP3    H158181   5.515   2.083   2.012  1.2515  1.3623 -0.2539
12230TIP3    H258182   5.519   2.172   1.890  3.6950 -0.6472 -1.7483
12231TIP3   OH258183   0.778   2.291  11.523 -0.3491  0.2837  0.1913
12231TIP3    H158184   0.788   2.379  11.559 -1.8926  0.2331  0.8454
12231TIP3    H258185   0.806   2.298  11.432  0.8273  1.1252  0.6003
12232TIP3   OH258186   4.172   3.795  14.161 -0.3733  0.1570  0.1231
12232TIP3    H158187   4.158   3.846  14.240 -0.9560  1.7162 -0.9379
12232TIP3    H258188   4.127   3.712  14.177 -0.9734  0.6786  1.1866
12233TIP3   OH258189   6.743   1.299  13.291 -0.2129 -0.0465  0.1224
12233TIP3    H158190   6.823   1.318  13.241 -0.7591 -0.5946 -0.9980
12233TIP3    H258191   6.757   1.210  13.324 -0.8736 -0.6689 -1.1841
12234TIP3   OH258192   3.776   5.200  14.933 -0.0991 -0.3568  0.3016
12234TIP3    H158193   3.748   5.245  14.853 -0.5895 -0.3923  0.4471
12234TIP3    H258194   3.736   5.113  14.927  0.3146 -0.5489  0.3261
12235TIP3   OH258195   1.642   4.187   0.431  0.1817  0.1073 -0.3775
12235TIP3    H158196   1.702   4.251   0.469  1.3534 -0.7068 -0.7736
12235TIP3    H258197   1.604   4.141   0.506  0.5852  0.1823 -0.1234
12236TIP3   OH258198   0.828   5.729   3.996 -0.0756  0.2104  0.2739
12236TIP3    H158199   0.812   5.738   3.902  0.2886  1.2905  0.3005
12236TIP3    H258200   0.895   5.795   4.015  1.0696 -1.1014  1.0012
12237TIP3   OH258201   0.511   2.908  16.380 -0.5737 -0.3232 -0.1318
12237TIP3    H158202   0.442   2.971  16.399  0.4612  0.7024  0.3652
12237TIP3    H258203   0.465   2.826  16.362 -1.8669 -0.1820  2.1090
12238TIP3   OH258204   0.112   2.321  14.706  0.0719 -0.3262  0.2822
12238TIP3    H158205   0.127   2.341  14.798 -0.9670 -1.5422  0.7563
12238TIP3    H258206   0.131   2.227  14.699  0.6676 -0.1331 -0.8665
12239TIP3   OH258207   3.011   1.220   6.084 -0.4292 -0.0275 -0.0688
12239TIP3    H158208   3.006   1.138   6.035  2.0720 -2.4852  3.3177
12239TIP3    H258209   2.996   1.288   6.019 -1.3092 -3.0764 -3.3475
12240TIP3   OH258210   5.440   4.629   6.606  0.3652  0.1901 -0.0381
12240TIP3    H158211   5.478   4.643   6.693  1.9936 -0.2883 -0.6374
12240TIP3    H258212   5.391   4.709   6.589  1.2603  0.9367  0.7112
12241TIP3   OH258213   6.268   0.884   1.321  1.2938  0.4220 -0.0282
12241TIP3    H158214   6.232   0.795   1.326  0.8392  0.6420  0.8667
12241TIP3    H258215   6.359   0.875   1.347  1.2708  0.2080 -0.0207
12242TIP3   OH258216   4.710   1.288   0.785  0.2057  0.4219 -0.2911
12242TIP3    H158217   4.740   1.250   0.702  0.8947  1.9161 -0.7701
12242TIP3    H258218   4.752   1.374   0.788 -1.0229  1.0217  0.8808
12243TIP3   OH258219   5.906   5.762   0.426  0.1302 -0.9181  0.5508
12243TIP3    H158220   5.927   5.669   0.420 -0.6780 -1.1226  0.7346
12243TIP3    H258221   5.933   5.798   0.341  1.4092 -1.1006  0.8559
12244TIP3   OH258222   5.683   0.791   5.323  0.3511 -0.7178 -0.2021
12244TIP3    H158223   5.591   0.816   5.310 -0.2487 -2.8435 -0.4666
12244TIP3    H258224   5.730   0.874   5.328 -1.4664  0.4217 -0.9569
12245TIP3   OH258225   1.334   5.493   5.101  0.2253 -0.1093 -0.0287
12245TIP3    H158226   1.344   5.439   5.179  0.3655  0.0376  0.0552
12245TIP3    H258227   1.371   5.440   5.030 -0.2846 -0.4171 -0.0696
12246TIP3   OH258228   4.189   5.095   3.508 -0.2372 -0.1456 -0.0876
12246TIP3    H158229   4.280   5.114   3.530  0.1705 -0.4338 -1.4612
12246TIP3    H258230   4.183   4.999   3.512 -0.8913 -0.0745  1.4680
12247TIP3   OH258231   5.473   1.215   1.783  0.0100 -0.4869  0.1590
12247TIP3    H158232   5.502   1.306   1.788  0.4490 -0.5882 -0.4747
12247TIP3    H258233   5.551   1.163   1.804 -0.6225 -0.7096  2.1690
12248TIP3   OH258234   3.906   5.324  12.456  0.1383 -0.1496 -0.8776
12248TIP3    H158235   3.840   5.283  12.400 -0.6886 -0.0315 -0.0159
12248TIP3    H258236   3.923   5.259  12.524 -0.0106  0.3109 -0.3975
12249TIP3   OH258237   3.963   1.413   2.150  0.8337 -0.5082  0.4387
12249TIP3    H158238   3.903   1.466   2.097  0.9160  1.1908  1.9411
12249TIP3    H258239   3.907   1.349   2.194  0.2472  0.3568  0.9829
12250TIP3   OH258240   3.435   5.810  11.372 -0.1420 -0.0497 -0.2246
12250TIP3    H158241   3.522   5.788  11.406 -0.1896 -0.2691 -0.2459
12250TIP3    H258242   3.453   5.861  11.293 -0.0346 -0.6788 -0.6072
12251TIP3   OH258243   1.475   3.310   1.455 -0.0419 -0.2195  1.1885
12251TIP3    H158244   1.420   3.233   1.464 -2.1247  1.0855  0.4193
12251TIP3    H258245   1.552   3.279   1.407 -0.2586 -2.0273  1.9306
12252TIP3   OH258246   2.535   1.343  10.727  0.3688  0.1528 -0.3262
12252TIP3    H158247   2.571   1.366  10.642 -0.0835  0.0551 -0.5454
12252TIP3    H258248   2.608   1.304  10.775  1.3723  2.5487  0.2762
12253TIP3   OH258249   3.068   2.865   5.150  0.0411  0.4173 -0.1071
12253TIP3    H158250   3.142   2.881   5.208 -0.6868 -0.2597  1.0439
12253TIP3    H258251   2.991   2.873   5.206 -0.6537 -0.8726 -0.8380
12254TIP3   OH258252   3.286   2.051  17.024  0.1840  0.3550 -0.3220
12254TIP3    H158253   3.191   2.064  17.028  0.0733 -0.6235  2.0781
12254TIP3    H258254   3.309   2.067  16.933 -2.2523  0.8300 -0.9178
12255TIP3   OH258255   6.244   4.683  13.989  0.0852  0.0559  0.5707
12255TIP3    H158256   6.149   4.673  13.982  0.0995  0.5749 -0.5154
12255TIP3    H258257   6.280   4.611  13.938  0.2691  0.2156  0.4725
12256TIP3   OH258258   0.002   4.949   0.162 -0.1847  0.4781  0.1212
12256TIP3    H158259  -0.092   4.951   0.143 -0.0744 -0.5092 -0.6051
12256TIP3    H258260   0.008   4.975   0.254 -1.1575  0.6840  0.1404
12257TIP3   OH258261   6.384   3.053  11.000  0.3439  0.2184 -0.0234
12257TIP3    H158262   6.318   3.063  10.932 -0.7327 -0.3178  0.8991
12257TIP3    H258263   6.420   2.965  10.987 -1.5016 -0.8238  1.4353
12258TIP3   OH258264   1.837   4.437  13.409 -0.0929  0.3174  0.8089
12258TIP3    H158265   1.840   4.348  13.445  0.1251  0.7229  1.8446
12258TIP3    H258266   1.914   4.443  13.352 -2.0857 -1.3541 -2.3308
12259TIP3   OH258267   4.302   2.499  16.709 -0.5923 -0.6425  0.0059
12259TIP3    H158268   4.308   2.406  16.686 -0.7475 -0.4896 -0.6576
12259TIP3    H258269   4.330   2.546  16.630  0.6731 -0.1304  0.7164
12260TIP3   OH258270   5.975   4.439  15.063 -0.0701  0.2882 -0.4318
12260TIP3    H158271   5.906   4.434  14.997  0.2042  0.8635 -0.7694
12260TIP3    H258272   5.956   4.520  15.111 -0.8459 -0.6273  0.8557
12261TIP3   OH258273   4.063   1.992  17.096  0.5315 -0.2428 -0.2391
12261TIP3    H158274   3.985   1.945  17.066  0.3705  0.6454 -1.2627
12261TIP3    H258275   4.078   1.959  17.185 -2.7278  1.6253  1.1828
12262TIP3   OH258276   4.952   2.724  10.345  0.1429 -0.3494 -0.4496
12262TIP3    H158277   4.891   2.667  10.299 -1.6006  0.2291  1.0460
12262TIP3    H258278   4.983   2.672  10.419  1.7823 -0.7514 -1.3610
12263TIP3   OH258279   1.084   5.177  10.761  0.2267 -0.1399 -0.0350
12263TIP3    H158280   1.095   5.261  10.717  0.8761  0.7736  1.7661
12263TIP3    H258281   1.104   5.112  10.694  0.9744  1.1619 -1.1330
12264TIP3   OH258282   6.293   1.275   1.441 -1.0459 -0.3343  0.3157
12264TIP3    H158283   6.320   1.187   1.468 -0.5901  0.0354  1.1016
12264TIP3    H258284   6.325   1.332   1.511  0.2583  0.6785 -1.0657
12265TIP3   OH258285   4.588   3.012  14.353 -0.2022  0.2850 -0.5635
12265TIP3    H158286   4.655   2.983  14.291  0.4449  0.4796  0.0379
12265TIP3    H258287   4.597   3.107  14.355 -1.2669  0.4223 -1.3377
12266TIP3   OH258288   0.433   4.667   0.941  0.1541  0.0439  0.3126
12266TIP3    H158289   0.343   4.653   0.911 -0.2580  2.4365  0.2939
12266TIP3    H258290   0.424   4.724   1.017  1.6712  0.3767  0.2653
12267TIP3   OH258291   6.600   3.562  16.940 -0.5229  0.2640 -0.1209
12267TIP3    H158292   6.523   3.540  16.993 -1.1288  0.4263 -0.9154
12267TIP3    H258293   6.568   3.627  16.878  0.8335  2.1533  1.0698
12268TIP3   OH258294   5.788   1.140  13.262  0.2216 -0.3090  0.1082
12268TIP3    H158295   5.851   1.068  13.252 -0.4653 -0.9544  0.3145
12268TIP3    H258296   5.824   1.194  13.332  0.8237 -0.3583 -0.1549
12269TIP3   OH258297   0.460   1.648   3.345  0.2954 -0.8662  0.3221
12269TIP3    H158298   0.446   1.572   3.290 -1.2619 -1.0760  0.9711
12269TIP3    H258299   0.393   1.710   3.319  2.1988  0.7903 -0.9670
12270TIP3   OH258300   3.915   1.697   4.660  0.2263  0.8159 -0.0176
12270TIP3    H158301   3.911   1.793   4.662 -0.7256  0.7821  1.4562
12270TIP3    H258302   3.991   1.677   4.605  0.6351  2.4165 -0.0879
12271TIP3   OH258303   2.903   5.052   1.552 -0.4116 -0.0395  0.4210
12271TIP3    H158304   2.834   5.114   1.528 -0.2869  0.2473  0.7969
12271TIP3    H258305   2.885   4.974   1.499 -1.0771  0.0003  0.5836
12272TIP3   OH258306   1.511   4.210   2.133  0.6903 -0.2048 -0.1893
12272TIP3    H158307   1.511   4.135   2.193  0.4523 -0.0550  0.0015
12272TIP3    H258308   1.423   4.213   2.098  1.0106 -0.6901 -1.0587
12273TIP3   OH258309   4.409   4.310  14.994  0.0728  0.2895  0.1408
12273TIP3    H158310   4.314   4.298  14.993 -0.0080  0.6410 -2.2701
12273TIP3    H258311   4.423   4.381  15.056 -1.0879 -0.5320  1.4193
12274TIP3   OH258312   2.623   0.172   6.368 -0.0350  0.1006 -0.2724
12274TIP3    H158313   2.712   0.169   6.331  0.2912 -0.8125  0.5151
12274TIP3    H258314   2.587   0.085   6.349 -0.5294  0.2547 -0.0475
12275TIP3   OH258315   1.124   4.552  13.374 -0.4216  0.5082  0.2600
12275TIP3    H158316   1.190   4.620  13.387 -1.1098  0.8436  2.4083
12275TIP3    H258317   1.049   4.581  13.426 -0.4818 -2.2140  1.8515
12276TIP3   OH258318   4.379   4.115  10.810  0.5311 -0.1977  0.0687
12276TIP3    H158319   4.402   4.061  10.734 -0.3532  2.1107 -1.9798
12276TIP3    H258320   4.428   4.196  10.797  0.9894 -0.0182  2.4683
12277TIP3   OH258321   5.578   1.293  16.349 -0.1969  0.1228 -0.1820
12277TIP3    H158322   5.530   1.351  16.289  1.8233  0.1032 -1.9543
12277TIP3    H258323   5.628   1.235  16.291  1.7061 -0.0353  1.4945
12278TIP3   OH258324   0.814   1.651   1.622 -0.1659 -0.6189 -0.1341
12278TIP3    H158325   0.897   1.609   1.600 -0.3080 -2.7162  2.7335
12278TIP3    H258326   0.822   1.674   1.714 -1.8816  1.5269 -0.4254
12279TIP3   OH258327   3.198   3.392  12.685  0.3396 -0.4250 -0.4233
12279TIP3    H158328   3.203   3.420  12.594 -0.6798 -1.9170 -0.9817
12279TIP3    H258329   3.154   3.464  12.729  0.7753  0.2845 -1.1167
12280TIP3   OH258330   5.810   5.150   5.392  0.4210 -0.0785  0.3220
12280TIP3    H158331   5.723   5.183   5.415  1.0036  1.4979  0.4104
12280TIP3    H258332   5.818   5.068   5.441 -1.3430 -0.7332 -0.3914
12281TIP3   OH258333   1.521   2.789  15.134 -0.3218  0.1702 -0.4380
12281TIP3    H158334   1.502   2.872  15.179 -1.6826 -1.3862  2.1166
12281TIP3    H258335   1.441   2.738  15.144  0.5691 -1.5633 -1.7173
12282TIP3   OH258336   0.849   4.575   1.750 -0.2998  0.3587  0.3177
12282TIP3    H158337   0.775   4.635   1.737 -0.4621  0.1228  0.1561
12282TIP3    H258338   0.864   4.536   1.664 -0.5811 -0.2830  0.5591
12283TIP3   OH258339   3.947   2.342   4.285 -0.0391 -0.3776 -0.6339
12283TIP3    H158340   4.005   2.406   4.326 -0.6410 -1.4501  2.1163
12283TIP3    H258341   4.002   2.296   4.222  0.6610  2.0841 -1.9697
12284TIP3   OH258342   1.079   2.504  16.309 -0.4832 -0.7837  0.5899
12284TIP3    H158343   1.056   2.561  16.235 -0.1988 -1.7247 -0.2364
12284TIP3    H258344   1.162   2.539  16.341 -0.5052 -0.4922  0.3382
12285TIP3   OH258345   6.426   5.433  16.067  0.4076  0.4361 -0.2026
12285TIP3    H158346   6.462   5.344  16.068  0.6521  0.4441 -2.4536
12285TIP3    H258347   6.499   5.488  16.040  0.0122  1.2035  0.2651
12286TIP3   OH258348   3.209   3.821  12.062 -0.0300  0.3982  0.5666
12286TIP3    H158349   3.182   3.850  11.976  0.8182  0.9220  0.4674
12286TIP3    H258350   3.139   3.851  12.121 -0.0147  1.1138  0.2305
12287TIP3   OH258351   4.956   2.129  14.361  0.2582  0.5842 -0.8091
12287TIP3    H158352   4.915   2.141  14.275 -1.3338  0.8319 -0.0558
12287TIP3    H258353   4.923   2.201  14.414 -0.4849 -0.7188  0.6012
12288TIP3   OH258354   1.467   0.542  13.815 -0.3735 -0.2737 -0.1947
12288TIP3    H158355   1.523   0.512  13.886 -0.0440 -0.1944 -0.4177
12288TIP3    H258356   1.388   0.573  13.858 -0.3321 -0.5843  0.1064
12289TIP3   OH258357   5.782   5.606   6.889  1.0295 -0.0158  0.3040
12289TIP3    H158358   5.695   5.633   6.862  0.6708  0.4708  1.8351
12289TIP3    H258359   5.833   5.604   6.808  0.3109  2.4325 -0.2851
12290TIP3   OH258360   3.740   4.064  17.060  0.4337 -0.1833  0.4375
12290TIP3    H158361   3.661   4.107  17.028 -0.1133 -0.5252  1.3058
12290TIP3    H258362   3.727   3.972  17.038  0.9183 -0.1437 -0.0466
12291TIP3   OH258363   2.085   2.683  11.323  0.5823  0.3837  0.0579
12291TIP3    H158364   2.049   2.621  11.387  2.7437 -0.3491  0.6513
12291TIP3    H258365   2.144   2.739  11.374  1.6054  0.4196 -1.1199
12292TIP3   OH258366   1.138   6.390   0.340 -0.0633 -0.1355 -0.7939
12292TIP3    H158367   1.045   6.406   0.360 -0.3515 -0.2131 -2.0282
12292TIP3    H258368   1.161   6.316   0.396 -0.7375 -0.1009 -0.4534
12293TIP3   OH258369   2.929   1.298   0.121 -0.2893 -0.4337 -0.2570
12293TIP3    H158370   2.956   1.212   0.152 -1.2722 -0.2054  1.3710
12293TIP3    H258371   2.835   1.301   0.138 -0.3479  0.8018 -0.6970
12294TIP3   OH258372   1.205   1.197  13.026  0.3505  0.3145 -0.1493
12294TIP3    H158373   1.272   1.128  13.020  0.7236  0.7824 -1.7207
12294TIP3    H258374   1.206   1.239  12.940 -0.6365  1.5854  0.4337
12295TIP3   OH258375   4.066   6.328  15.543 -0.5304 -0.1885  0.2404
12295TIP3    H158376   4.118   6.254  15.510  0.4619  1.3500 -1.8709
12295TIP3    H258377   3.977   6.310  15.512 -0.4003 -0.7599  0.1834
12296TIP3   OH258378   1.506   5.304   2.810 -0.1483  0.1439 -0.4926
12296TIP3    H158379   1.430   5.297   2.753 -1.8640  0.0734  1.6836
12296TIP3    H258380   1.532   5.396   2.804 -1.4572  0.5603 -0.0069
12297TIP3   OH258381   3.431   3.798   3.886 -0.1637  0.0720  0.3669
12297TIP3    H158382   3.377   3.791   3.807  0.0293 -3.8169  0.4022
12297TIP3    H258383   3.368   3.809   3.957 -0.4616  1.2844 -0.0418
12298TIP3   OH258384   6.652   6.497  11.219  0.7967  0.1267 -0.0626
12298TIP3    H158385   6.593   6.506  11.294 -1.3068 -0.3228 -1.5788
12298TIP3    H258386   6.727   6.552  11.241 -0.4959  1.3197  1.6609
12299TIP3   OH258387   0.764   3.313   5.400  0.5057  0.3187 -0.6790
12299TIP3    H158388   0.814   3.303   5.481 -1.4744  1.9729  0.8623
12299TIP3    H258389   0.728   3.226   5.383  1.3463 -0.1601 -0.0450
12300TIP3   OH258390   6.067   5.954  12.405  0.0714  0.8589 -0.1504
12300TIP3    H158391   6.101   5.885  12.348 -0.4154 -0.3165  0.9364
12300TIP3    H258392   5.972   5.946  12.400 -0.0975  2.8479 -1.6292
12301TIP3   OH258393   5.807   3.155  11.782 -0.6492 -0.2206  0.1377
12301TIP3    H158394   5.855   3.088  11.733 -2.1905  0.1453 -2.0291
12301TIP3    H258395   5.864   3.231  11.782  0.8554 -1.2512  2.0776
12302TIP3   OH258396   2.330   1.762   0.808 -0.3743 -0.2209  0.0732
12302TIP3    H158397   2.254   1.817   0.786 -0.7392 -0.2859  1.0963
12302TIP3    H258398   2.380   1.815   0.870  0.6613 -0.0053 -0.9265
12303TIP3   OH258399   2.726   5.087  15.514  0.0678 -0.1558 -0.7420
12303TIP3    H158400   2.820   5.086  15.530 -0.2229  0.5366  1.2549
12303TIP3    H258401   2.704   5.179  15.498 -0.2317 -0.3633 -1.6134
12304TIP3   OH258402   3.047   6.427   4.083 -0.0013  0.3301  0.2812
12304TIP3    H158403   3.118   6.491   4.081  1.5979 -1.3758 -0.2119
12304TIP3    H258404   2.967   6.480   4.075  1.1321  2.3635  1.6099
12305TIP3   OH258405   3.718   6.596  10.635 -0.7903 -0.1380  0.2149
12305TIP3    H158406   3.642   6.550  10.600 -0.7917  1.3251 -1.8520
12305TIP3    H258407   3.787   6.582  10.570 -1.3075  4.1480 -1.5823
12306TIP3   OH258408   6.726   2.365   2.221 -0.0304 -0.5951  0.4589
12306TIP3    H158409   6.698   2.320   2.142 -2.3367  0.1997  0.7606
12306TIP3    H258410   6.739   2.295   2.285 -2.5272 -1.0077  0.6199
12307TIP3   OH258411   5.059   5.484   2.785 -0.1017  0.2546  0.2879
12307TIP3    H158412   5.144   5.526   2.797 -0.3023  1.0754 -0.9020
12307TIP3    H258413   5.009   5.547   2.734 -1.8851  0.3348  2.0294
12308TIP3   OH258414   5.572   1.841   6.303  0.5326 -0.1053 -0.1872
12308TIP3    H158415   5.664   1.857   6.283  0.2577 -0.1838 -1.6214
12308TIP3    H258416   5.525   1.913   6.261 -0.2056 -1.1185 -1.1594
12309TIP3   OH258417   0.871   0.617   4.073  0.2536  0.4689  0.2136
12309TIP3    H158418   0.852   0.538   4.022  1.8184 -0.0495  0.3640
12309TIP3    H258419   0.913   0.583   4.153 -0.1533  1.3947  0.8333
12310TIP3   OH258420   4.014   6.203   1.493  0.6789 -0.7074 -0.5449
12310TIP3    H158421   4.098   6.238   1.466  0.3550 -0.4816 -1.3121
12310TIP3    H258422   3.992   6.249   1.574  0.5723  0.3785 -1.1773
12311TIP3   OH258423   5.485   3.522  13.854  0.2669  0.3023 -0.1152
12311TIP3    H158424   5.399   3.557  13.876  1.1099  1.7065  1.1708
12311TIP3    H258425   5.528   3.592  13.805  1.8783  1.1112  2.2450
12312TIP3   OH258426   5.239   1.652  12.820 -0.2967  0.1021 -0.0798
12312TIP3    H158427   5.316   1.684  12.773 -0.6323  0.5189 -0.3474
12312TIP3    H258428   5.226   1.563  12.786  0.1764 -0.0422  0.1044
12313TIP3   OH258429   2.571   3.909   0.495  0.8368  0.2772 -0.3139
12313TIP3    H158430   2.510   3.982   0.499  0.6655  0.0901  0.6932
12313TIP3    H258431   2.534   3.851   0.428  0.8311  0.9659 -0.9238
12314TIP3   OH258432   1.782   3.593  13.059 -0.6311 -0.0936 -0.1735
12314TIP3    H158433   1.779   3.621  12.967  0.2178  0.6713  0.0162
12314TIP3    H258434   1.698   3.621  13.095 -2.1582 -2.7607 -1.3185
12315TIP3   OH258435   6.089   5.850   5.175  0.3551  0.1074 -0.3372
12315TIP3    H158436   6.171   5.895   5.198 -0.7031  1.9767 -0.0422
12315TIP3    H258437   6.084   5.857   5.080  0.0638  0.8858 -0.2705
12316TIP3   OH258438   3.835   3.424  13.151 -0.1765 -0.0169 -0.0693
12316TIP3    H158439   3.801   3.508  13.119 -0.2529 -0.4077 -1.0572
12316TIP3    H258440   3.805   3.360  13.086  1.0454 -0.6136 -0.0689
12317TIP3   OH258441   3.197   4.229   5.193 -0.8802 -0.6175  0.2792
12317TIP3    H158442   3.202   4.257   5.284 -0.3754 -2.4920  0.8877
12317TIP3    H258443   3.238   4.142   5.193 -0.0318 -0.2850 -1.9098
12318TIP3   OH258444   3.806   0.441   4.057 -0.2326 -0.3519 -0.3653
12318TIP3    H158445   3.724   0.489   4.043 -0.0133  0.6347  1.4244
12318TIP3    H258446   3.867   0.479   3.993 -0.1664  1.5914  0.7693
12319TIP3   OH258447   1.143   4.678  12.781  0.1987  0.1932 -0.1465
12319TIP3    H158448   1.060   4.684  12.828  0.6779  0.8685  0.6486
12319TIP3    H258449   1.206   4.722  12.838  1.0212  0.0635 -0.9279
12320TIP3   OH258450   3.631   1.416   3.990  0.2144 -0.6864 -0.1732
12320TIP3    H158451   3.590   1.400   4.075 -0.1092  1.9584  0.2756
12320TIP3    H258452   3.564   1.394   3.926 -0.4626 -0.2755  0.3826
12321TIP3   OH258453   4.864   4.022  13.917  0.2161  0.2650  0.0893
12321TIP3    H158454   4.785   4.040  13.969 -0.3076 -0.3754 -0.4671
12321TIP3    H258455   4.900   3.942  13.956  0.7203  0.6819  0.4835
12322TIP3   OH258456   3.517   2.017   5.089 -0.3413 -0.1689 -0.4592
12322TIP3    H158457   3.430   1.997   5.053 -0.7224 -0.4464  0.5721
12322TIP3    H258458   3.564   1.934   5.083 -1.2462 -0.9338  1.9409
12323TIP3   OH258459   1.794   5.253   1.279  0.0494  0.8539 -0.5899
12323TIP3    H158460   1.725   5.279   1.341  0.6539 -0.5215  0.7159
12323TIP3    H258461   1.775   5.162   1.258  0.6916  0.8743 -1.3218
12324TIP3   OH258462   0.543   1.898  12.735  0.2925 -0.6072  0.7662
12324TIP3    H158463   0.597   1.888  12.657 -1.2012 -0.5719 -0.3092
12324TIP3    H258464   0.481   1.967  12.712 -1.6298 -2.1529  1.1374
12325TIP3   OH258465   5.859   5.828   6.082 -0.0507  0.0145  0.3792
12325TIP3    H158466   5.907   5.904   6.049 -0.5506  0.5481  0.8610
12325TIP3    H258467   5.787   5.817   6.020  0.2110 -0.2765  0.1228
12326TIP3   OH258468   1.259   6.174   0.543  0.8005  0.6858 -0.0972
12326TIP3    H158469   1.191   6.129   0.592  1.7079 -1.6612 -0.8774
12326TIP3    H258470   1.307   6.105   0.498  1.5524  2.5376 -2.3458
12327TIP3   OH258471   3.110   1.765  16.020 -0.3150  0.0956  0.0201
12327TIP3    H158472   3.022   1.726  16.018  0.3170 -1.3782 -0.6154
12327TIP3    H258473   3.153   1.730  15.942  1.1117  0.1351  0.7637
12328TIP3   OH258474   3.264   5.444  12.840  0.6963 -0.2623  0.1154
12328TIP3    H158475   3.192   5.506  12.849 -0.2378 -1.0915 -1.1956
12328TIP3    H258476   3.257   5.388  12.917  0.2847  0.0226  0.2889
12329TIP3   OH258477   3.464   5.510  16.955  0.0713 -0.0210  0.1169
12329TIP3    H158478   3.397   5.509  17.024 -0.6297 -0.1780 -0.5501
12329TIP3    H258479   3.420   5.551  16.880 -0.2116 -2.5617 -1.2291
12330TIP3   OH258480   6.203   0.744   2.946 -0.6589 -0.2637  0.2693
12330TIP3    H158481   6.170   0.811   2.886 -0.7431  1.0915  1.7830
12330TIP3    H258482   6.294   0.769   2.963 -0.7637 -0.3772  1.0482
12331TIP3   OH258483   3.773   5.148   0.644  0.5814 -0.0345 -0.5733
12331TIP3    H158484   3.690   5.173   0.603 -0.3361  0.6588  1.5346
12331TIP3    H258485   3.773   5.052   0.641 -0.8836 -0.1051  0.3866
12332TIP3   OH258486   6.444   5.582  14.718 -0.2067  0.2210 -0.2625
12332TIP3    H158487   6.448   5.528  14.797 -2.1613  0.7790  0.2965
12332TIP3    H258488   6.460   5.522  14.646  0.2277 -0.5831  0.4920
12333TIP3   OH258489   0.467   1.371  12.640 -0.0367  0.4285 -0.1468
12333TIP3    H158490   0.522   1.430  12.692 -1.0127  0.6799  0.6342
12333TIP3    H258491   0.384   1.370  12.687 -0.3439 -0.8040 -0.7047
12334TIP3   OH258492   1.562   2.767   3.657 -0.3371 -0.2772 -0.1484
12334TIP3    H158493   1.468   2.773   3.638 -0.6016  0.2580  1.2165
12334TIP3    H258494   1.583   2.850   3.699  0.0311 -1.5673  2.4125
12335TIP3   OH258495   4.640   6.702  14.207  0.4162 -0.1414 -0.0576
12335TIP3    H158496   4.572   6.688  14.273  2.5061 -0.6187  2.1664
12335TIP3    H258497   4.670   6.615  14.185  1.5785  0.1041  0.4770
12336TIP3   OH258498   5.799   5.504  14.337 -0.0195  0.2089 -0.2591
12336TIP3    H158499   5.715   5.519  14.294  0.4743  1.3108 -0.8945
12336TIP3    H258500   5.861   5.494  14.264  0.1052 -2.7958  0.1413
12337TIP3   OH258501   5.693   1.214  12.695  0.6314 -0.1176  0.0362
12337TIP3    H158502   5.721   1.267  12.770  0.2009 -0.6463  0.5762
12337TIP3    H258503   5.760   1.230  12.628  0.2877  1.4628  0.0238
12338TIP3   OH258504   2.939   5.690  15.874 -0.2572  0.6681  0.0618
12338TIP3    H158505   2.885   5.697  15.795 -2.3329  0.1291  1.3395
12338TIP3    H258506   2.918   5.768  15.924  0.0087  0.3530  0.6713
12339TIP3   OH258507   3.367   2.112   1.945  0.1354  0.1946 -0.4316
12339TIP3    H158508   3.373   2.018   1.927  0.3072  0.1927 -0.3656
12339TIP3    H258509   3.282   2.122   1.988  0.1346  0.0634 -0.4010
12340TIP3   OH258510   0.237   1.959  15.626  0.7000 -0.2299 -0.2245
12340TIP3    H158511   0.319   1.936  15.582  1.7354 -3.2498  2.9031
12340TIP3    H258512   0.170   1.910  15.578  1.2401 -0.5554 -0.6671
12341TIP3   OH258513   5.711   4.119   4.330  0.9274  0.2902 -0.2326
12341TIP3    H158514   5.730   4.028   4.349  0.1199  0.1485 -0.0695
12341TIP3    H258515   5.762   4.169   4.394 -0.5466 -0.1267  1.3580
12342TIP3   OH258516   3.674   5.024  14.330  0.5621 -0.2535  0.3075
12342TIP3    H158517   3.749   4.978  14.292  0.2585 -0.6651  0.2092
12342TIP3    H258518   3.625   5.056  14.254  0.9732  0.5736  0.3729
12343TIP3   OH258519   4.540   6.674  14.481 -0.1933  0.2692  0.3340
12343TIP3    H158520   4.562   6.755  14.527  1.3456  0.3348 -0.4691
12343TIP3    H258521   4.475   6.631  14.537 -1.2773  2.1863  0.6168
12344TIP3   OH258522   5.130   3.694   1.874 -0.5262  0.0499  0.5576
12344TIP3    H158523   5.215   3.727   1.843 -0.0418 -2.4405 -1.0167
12344TIP3    H258524   5.066   3.736   1.817 -0.0627 -0.4430 -0.3468
12345TIP3   OH258525   2.077   0.111  11.401 -0.0319 -0.0065 -0.0720
12345TIP3    H158526   2.172   0.123  11.407 -0.0276 -0.6102  1.8141
12345TIP3    H258527   2.041   0.197  11.424  0.0418  0.0327 -0.0995
12346TIP3   OH258528   2.444   6.596  16.235  0.4524  0.4223  0.1026
12346TIP3    H158529   2.416   6.513  16.275 -1.3280  0.7875 -0.2866
12346TIP3    H258530   2.533   6.579  16.206  0.2584 -1.2549  0.3553
12347TIP3   OH258531   1.150   4.473   4.636  0.2220  0.2096 -0.0359
12347TIP3    H158532   1.099   4.502   4.712  0.8507 -0.5169  0.6817
12347TIP3    H258533   1.182   4.386   4.661 -1.8628 -1.2888 -2.2222
12348TIP3   OH258534   1.079   4.676  15.846 -0.1976  0.3542  0.0413
12348TIP3    H158535   1.105   4.723  15.766 -1.2834 -0.7239 -0.9802
12348TIP3    H258536   1.139   4.709  15.913 -0.8899  3.1767 -0.6067
12349TIP3   OH258537   4.326   1.592   5.745  0.2370  0.0888 -0.1476
12349TIP3    H158538   4.404   1.538   5.762  1.0728  1.2417 -0.1575
12349TIP3    H258539   4.297   1.620   5.831 -0.9804 -1.4020 -0.0461
12350TIP3   OH258540   0.161   1.809   1.311  0.0213 -0.0984  0.1086
12350TIP3    H158541   0.141   1.899   1.285  0.1679  0.5189  1.9765
12350TIP3    H258542   0.256   1.806   1.312  0.0277 -0.6098 -0.9577
12351TIP3   OH258543   2.286   1.625   4.011 -0.3920  0.2873 -0.2083
12351TIP3    H158544   2.244   1.641   4.096  0.7216 -1.9267  0.8465
12351TIP3    H258545   2.214   1.603   3.952 -1.1206  1.2789  0.2703
12352TIP3   OH258546   1.394   0.745   0.176  0.0367 -0.6718 -0.0036
12352TIP3    H158547   1.323   0.808   0.160 -0.7611 -1.6118 -0.2735
12352TIP3    H258548   1.459   0.765   0.108 -0.2586 -0.2173 -0.1570
12353TIP3   OH258549   0.636   2.988   1.045 -0.1827  0.9118  0.0473
12353TIP3    H158550   0.655   3.013   0.955 -1.1048  0.3543 -0.3127
12353TIP3    H258551   0.713   2.938   1.072 -0.9678 -1.2124 -1.3549
12354TIP3   OH258552   2.232   0.733   1.759 -0.1110 -0.2541  0.0491
12354TIP3    H158553   2.228   0.643   1.792 -0.4728 -1.1866 -2.3572
12354TIP3    H258554   2.142   0.752   1.731 -0.5387  1.6869  2.3843
12355TIP3   OH258555   2.919   4.927   3.650  0.0780 -0.3271 -0.3159
12355TIP3    H158556   2.914   5.002   3.590  0.0781 -0.8055 -0.9341
12355TIP3    H258557   2.888   4.853   3.597  0.9371 -0.9217 -0.0004
12356TIP3   OH258558   1.686   5.841  16.701  0.3757 -0.5459  0.1162
12356TIP3    H158559   1.728   5.790  16.632  0.4984 -0.0635 -0.1605
12356TIP3    H258560   1.594   5.813  16.698 -0.1517  1.1980 -1.8347
12357TIP3   OH258561   5.041   2.874   3.388  0.0974  0.3561 -0.3296
12357TIP3    H158562   5.094   2.879   3.308  0.7590  0.1985  0.0821
12357TIP3    H258563   5.068   2.951   3.439  0.1176  0.1331 -0.0021
12358TIP3   OH258564   1.385   6.146  11.352 -0.6614  0.5319 -0.6506
12358TIP3    H158565   1.368   6.103  11.269 -1.4511  2.7329 -1.7073
12358TIP3    H258566   1.474   6.118  11.375 -1.2144 -1.8276 -1.0610
12359TIP3   OH258567   4.327   0.729  14.988 -0.1016 -0.2639  0.3089
12359TIP3    H158568   4.328   0.780  14.907 -0.1589 -2.0111 -0.8568
12359TIP3    H258569   4.324   0.794  15.058  1.7374  1.3600 -1.0183
12360TIP3   OH258570   6.050   6.322   6.443 -0.0242 -0.0934 -0.2374
12360TIP3    H158571   6.074   6.401   6.491 -0.1782 -0.7090  0.8967
12360TIP3    H258572   6.025   6.259   6.511 -0.1937 -1.0214 -1.1261
12361TIP3   OH258573   0.558   2.182  15.933 -0.0449 -0.3846 -0.0622
12361TIP3    H158574   0.580   2.227  15.851  1.0635 -0.9254 -0.0783
12361TIP3    H258575   0.554   2.090  15.908 -0.1323 -0.5076  0.4146
12362TIP3   OH258576   0.082   3.181  11.744 -0.1545  0.2468 -0.6142
12362TIP3    H158577   0.069   3.206  11.836 -1.8094  1.4245 -1.1315
12362TIP3    H258578   0.129   3.254  11.705 -0.0781  0.0598 -0.8784
12363TIP3   OH258579   4.589   5.375  16.618  0.5885 -0.6081 -1.0508
12363TIP3    H158580   4.556   5.434  16.686 -0.0849 -1.5302 -0.5630
12363TIP3    H258581   4.535   5.395  16.541  0.5026 -0.4432 -0.9477
12364TIP3   OH258582   3.924   6.031  16.982  0.4643  0.1492 -0.2226
12364TIP3    H158583   3.974   5.984  16.915  0.1868 -1.1169  0.4231
12364TIP3    H258584   3.833   6.017  16.957  0.2052 -2.6586  1.8012
12365TIP3   OH258585   1.956   6.116  15.907  0.0701  0.1018  0.3143
12365TIP3    H158586   2.050   6.118  15.888 -0.2593 -0.4525 -1.6655
12365TIP3    H258587   1.939   6.025  15.931  0.4620  0.7770  3.5477
12366TIP3   OH258588   6.353   2.836  10.526 -0.5058 -0.0332  0.1936
12366TIP3    H158589   6.308   2.802  10.604 -0.1936  0.8490  0.7771
12366TIP3    H258590   6.425   2.774  10.511  0.0530  0.3299  1.2430
12367TIP3   OH258591   4.752   0.754   4.945  0.2273 -0.0432 -0.0727
12367TIP3    H158592   4.730   0.789   5.031  0.5861 -1.0946  0.4699
12367TIP3    H258593   4.690   0.795   4.885 -0.6361 -0.0058  0.8341
12368TIP3   OH258594   6.056   1.220   6.016  0.0626 -0.3442 -0.4799
12368TIP3    H158595   5.982   1.253   6.066  1.0341  0.7501  0.2715
12368TIP3    H258596   6.098   1.156   6.074 -0.5283 -1.3032 -1.0792
12369TIP3   OH258597   2.250   2.970  14.699 -0.0071  0.2126  0.0373
12369TIP3    H158598   2.180   2.910  14.727 -0.1817  0.2506 -0.3144
12369TIP3    H258599   2.316   2.963  14.768 -0.1440 -0.1880  0.1314
12370TIP3   OH258600   5.823   3.587  15.501  0.2382 -0.0192  0.2754
12370TIP3    H158601   5.750   3.569  15.560 -0.9933  2.4057 -0.3363
12370TIP3    H258602   5.880   3.646  15.550  0.8848 -0.5391  0.1501
12371TIP3   OH258603   4.969   1.724  11.259 -0.7440  0.4184 -0.5517
12371TIP3    H158604   4.983   1.787  11.188 -1.6851 -0.2818 -1.3958
12371TIP3    H258605   4.887   1.751  11.300 -0.9226  0.0255 -0.6377
12372TIP3   OH258606   0.265   3.981   1.739 -0.2909  0.2763 -0.3369
12372TIP3    H158607   0.333   3.913   1.744 -0.9753 -0.6917 -2.6415
12372TIP3    H258608   0.239   3.982   1.646 -1.0172  3.0368 -0.1867
12373TIP3   OH258609   1.369   4.081  11.006 -0.2615 -0.5034  0.4279
12373TIP3    H158610   1.426   4.134  10.950 -2.5259  2.0488  0.3312
12373TIP3    H258611   1.326   4.021  10.945  0.1995 -0.4676  0.0561
12374TIP3   OH258612   4.346   4.126   2.946 -0.1742 -0.5339  0.5061
12374TIP3    H158613   4.394   4.060   2.998 -0.8240 -1.9574 -0.6144
12374TIP3    H258614   4.408   4.197   2.935  1.0368 -1.5178  0.6943
12375TIP3   OH258615   4.628   1.964  11.891 -0.0216  0.7717 -0.0003
12375TIP3    H158616   4.716   1.993  11.868  0.4591  1.4759  2.4168
12375TIP3    H258617   4.635   1.939  11.983 -1.3169 -3.5538 -0.8885
12376TIP3   OH258618   3.083   3.074  12.106  0.2043 -0.7135 -0.3004
12376TIP3    H158619   2.990   3.098  12.106 -0.7119 -3.7743 -1.6491
12376TIP3    H258620   3.098   3.038  12.194  0.5038  0.8579  0.3289
12377TIP3   OH258621   5.133   0.342   4.285 -0.2419 -0.0191  0.6277
12377TIP3    H158622   5.067   0.377   4.224  0.9070  0.6063 -0.2923
12377TIP3    H258623   5.107   0.377   4.370 -0.6135  0.9422  0.1430
12378TIP3   OH258624   2.216   3.501  13.227 -0.5369  0.0262  0.0809
12378TIP3    H158625   2.293   3.555  13.246  0.4987 -1.3016 -0.1970
12378TIP3    H258626   2.182   3.535  13.145 -0.0663  0.4285  0.0507
12379TIP3   OH258627   6.573   3.666  13.426 -0.2765 -0.2201  0.1792
12379TIP3    H158628   6.534   3.750  13.450 -1.3788 -1.0249  1.3200
12379TIP3    H258629   6.654   3.689  13.381  0.6097  1.4532  2.4382
12380TIP3   OH258630   5.037   1.142   0.744 -0.1211  0.3475 -0.0860
12380TIP3    H158631   5.130   1.133   0.722 -0.0119 -0.7168  0.6787
12380TIP3    H258632   4.992   1.137   0.660  0.5326  1.3444 -0.5094
12381TIP3   OH258633   6.533   1.075   2.524 -0.4230 -0.2962  0.7895
12381TIP3    H158634   6.471   1.136   2.484  0.8349  0.3522 -0.2576
12381TIP3    H258635   6.586   1.129   2.582  0.7536 -0.3383 -0.2049
12382TIP3   OH258636   4.075   1.798   4.400  0.8778  0.0435 -0.2595
12382TIP3    H158637   4.104   1.807   4.309 -0.4247  1.4530 -0.5902
12382TIP3    H258638   4.108   1.877   4.443 -0.2248  0.4014 -0.0339
12383TIP3   OH258639   6.221   0.155  12.652  0.0469  0.0469  0.1688
12383TIP3    H158640   6.198   0.069  12.687 -0.0047 -0.5269 -1.2150
12383TIP3    H258641   6.137   0.197  12.633  0.0579  0.6156  1.2681
12384TIP3   OH258642   0.779   4.149  16.075 -0.4834  0.4642  0.3994
12384TIP3    H158643   0.771   4.062  16.034 -1.2073  0.7726 -0.1346
12384TIP3    H258644   0.748   4.136  16.164 -1.2222  0.3136  0.1251
12385TIP3   OH258645   5.138   0.166  17.109  0.2283 -0.0093  0.1593
12385TIP3    H158646   5.222   0.208  17.126  0.2499 -0.2416  0.6297
12385TIP3    H258647   5.134   0.093  17.170 -0.3007 -0.0228  0.1186
12386TIP3   OH258648   2.361   0.155   4.437  0.5592 -0.5034  0.2965
12386TIP3    H158649   2.408   0.115   4.365  0.6850  0.8044 -0.3807
12386TIP3    H258650   2.286   0.198   4.396  0.9617  0.7722  0.8432
12387TIP3   OH258651   6.349   3.101  13.722  0.1994  0.1468  0.0453
12387TIP3    H158652   6.292   3.030  13.750  0.0158 -0.3723 -1.5343
12387TIP3    H258653   6.438   3.065  13.731  0.1669  0.1446  0.3676
12388TIP3   OH258654   2.866   3.155  16.841  0.0596  0.4997 -0.0644
12388TIP3    H158655   2.854   3.184  16.751  2.4094 -1.9753 -1.3312
12388TIP3    H258656   2.779   3.123  16.867  0.0970 -2.7976 -3.1635
12389TIP3   OH258657   0.338   5.347  16.476  0.1758 -0.0386  0.0994
12389TIP3    H158658   0.368   5.267  16.433 -1.3986  0.8327 -2.8493
12389TIP3    H258659   0.370   5.418  16.421 -3.1874  1.0911 -0.6375
12390TIP3   OH258660   1.315   1.644   4.485 -0.5377 -0.2651  0.4435
12390TIP3    H158661   1.397   1.693   4.490 -1.1526  0.7764  0.6779
12390TIP3    H258662   1.253   1.696   4.536 -1.3087 -1.1108  0.3883
12391TIP3   OH258663   6.720   4.302   5.842  0.3239 -0.1003  0.1118
12391TIP3    H158664   6.724   4.361   5.918  2.9595 -3.3406  2.7911
12391TIP3    H258665   6.672   4.226   5.875  1.0754 -1.3871 -1.6750
12392TIP3   OH258666   6.186   1.590  14.543  0.1405  0.0474 -0.5979
12392TIP3    H158667   6.105   1.603  14.593  1.6155 -0.6535  2.1566
12392TIP3    H258668   6.193   1.668  14.489 -0.5999  1.8691  1.7657
12393TIP3   OH258669   0.363   3.326   1.629  0.2202 -0.2300 -0.0565
12393TIP3    H158670   0.342   3.239   1.595  0.6913  0.1799 -1.4840
12393TIP3    H258671   0.410   3.369   1.557  2.2960  0.3093  1.5248
12394TIP3   OH258672   3.926   2.649  16.684  0.2345  0.2453 -0.0711
12394TIP3    H158673   3.841   2.607  16.675  0.2649  0.3665 -1.0000
12394TIP3    H258674   3.958   2.620  16.770 -1.3762  1.3939  0.9760
12395TIP3   OH258675   6.091   1.477  12.533  0.2798 -0.5738 -0.3690
12395TIP3    H158676   6.171   1.528  12.545  1.1525 -2.4978  3.7514
12395TIP3    H258677   6.021   1.536  12.560  0.8506 -0.2994  0.5631
12396TIP3   OH258678   4.470   6.560   3.651  0.5348  0.4347 -0.7578
12396TIP3    H158679   4.426   6.645   3.664  0.3364  0.0804  1.1437
12396TIP3    H258680   4.558   6.573   3.687  0.4226 -0.2356 -0.2358
12397TIP3   OH258681   0.783   0.760  16.546 -0.1872 -0.2351  0.5756
12397TIP3    H158682   0.850   0.805  16.494 -2.0295  0.5448 -1.2241
12397TIP3    H258683   0.734   0.708  16.483 -1.6839 -0.2872  1.7322
12398TIP3   OH258684   0.268   3.872  15.448 -0.1687  0.2477  0.2860
12398TIP3    H158685   0.197   3.860  15.511  0.7192  1.2807  1.5581
12398TIP3    H258686   0.297   3.962  15.462 -0.5481  0.8665 -2.3061
12399TIP3   OH258687   4.786   1.063  12.667  0.0791  0.3037  0.6287
12399TIP3    H158688   4.749   1.150  12.649  1.3020  0.4610 -1.4307
12399TIP3    H258689   4.753   1.008  12.597 -0.2467 -0.8058  1.6192
12400TIP3   OH258690   4.825   2.907  11.358 -0.3889 -0.1495  0.0467
12400TIP3    H158691   4.906   2.860  11.374 -0.5984 -0.6299 -0.2999
12400TIP3    H258692   4.851   2.985  11.309  0.0159  0.3413  1.0199
12401TIP3   OH258693   4.451   5.782   1.914  0.5821 -0.0283  0.3555
12401TIP3    H158694   4.509   5.759   1.987  1.1215 -1.4830 -0.4725
12401TIP3    H258695   4.393   5.706   1.906  0.6435  0.0337 -0.8173
12402TIP3   OH258696   5.866   6.495  16.632  0.5504 -0.7980 -0.4568
12402TIP3    H158697   5.784   6.477  16.585  0.4415  2.7122 -1.8708
12402TIP3    H258698   5.838   6.541  16.711  1.1322  0.8839 -1.2025
12403TIP3   OH258699   0.781   4.956   5.707 -0.1439  0.1611  0.2034
12403TIP3    H158700   0.690   4.946   5.734 -0.3776  1.2998 -0.1015
12403TIP3    H258701   0.791   4.897   5.632 -1.5000  2.1285 -1.6564
12404TIP3   OH258702   6.215   6.354   3.535 -0.0557 -0.1218 -0.2241
12404TIP3    H158703   6.309   6.343   3.547 -0.2708  0.1072  1.9491
12404TIP3    H258704   6.178   6.269   3.558 -0.4124 -0.2269 -1.1238
12405TIP3   OH258705   3.892   3.811  14.460  0.3784  0.1867  0.8460
12405TIP3    H158706   3.967   3.855  14.420 -0.6722  1.0955 -0.2065
12405TIP3    H258707   3.856   3.876  14.521 -1.3023  0.9649 -0.8606
12406TIP3   OH258708   4.470   5.375  13.481  0.5692 -0.5662 -0.4014
12406TIP3    H158709   4.422   5.385  13.564  0.3921 -0.6702 -0.4911
12406TIP3    H258710   4.514   5.459  13.469 -2.1826  0.7612 -1.9688
12407TIP3   OH258711   1.025   3.526  15.469  0.3769 -0.4001 -0.2081
12407TIP3    H158712   1.001   3.618  15.459  1.5046 -0.1589 -0.8444
12407TIP3    H258713   1.078   3.507  15.392  3.1955 -0.5547  1.6097
12408TIP3   OH258714   6.483   4.442  11.975 -0.2242  0.5159 -0.0145
12408TIP3    H158715   6.496   4.381  11.902  0.5282 -0.3602  0.8156
12408TIP3    H258716   6.529   4.521  11.948  0.6240 -0.0264 -0.2364
12409TIP3   OH258717   3.495   4.753  12.375  0.0252  0.2517 -0.5363
12409TIP3    H158718   3.561   4.687  12.398  0.9150  1.0511 -0.7108
12409TIP3    H258719   3.412   4.706  12.376  0.7107 -1.0144 -1.3135
12410TIP3   OH258720   3.105   3.958  11.203 -0.5162  0.6058  0.3739
12410TIP3    H158721   3.115   4.051  11.181 -0.5338  0.6367  0.4930
12410TIP3    H258722   3.161   3.912  11.141  0.1249  0.7564  0.8288
12411TIP3   OH258723   3.231   1.885   3.172 -0.1182  0.0435 -0.7973
12411TIP3    H158724   3.295   1.820   3.143  0.6318  0.5733 -0.3436
12411TIP3    H258725   3.283   1.959   3.202 -0.9447  0.5029 -0.4625
12412TIP3   OH258726   5.385   1.632   4.045 -0.4195 -0.0620  0.1868
12412TIP3    H158727   5.421   1.650   4.132  2.9097  1.0929 -1.2514
12412TIP3    H258728   5.416   1.543   4.025 -0.8196 -0.1662  0.0281
12413TIP3   OH258729   1.574   6.388  12.362  0.1431  0.1003 -0.3609
12413TIP3    H158730   1.535   6.458  12.309 -0.0812  0.0936 -0.2057
12413TIP3    H258731   1.622   6.434  12.431 -1.5487  0.1084  0.8724
12414TIP3   OH258732   3.059   2.978   1.905  0.4201 -0.6904  0.4004
12414TIP3    H158733   3.072   2.892   1.945 -1.3412 -0.7126  1.0076
12414TIP3    H258734   3.066   3.040   1.978 -0.5418 -0.5287  0.3669
12415TIP3   OH258735   0.240   6.544  12.295  0.1992  0.3220  0.5692
12415TIP3    H158736   0.222   6.529  12.388  0.9110  0.7273  0.7824
12415TIP3    H258737   0.321   6.596  12.294 -1.3516  2.8762 -0.1731
12416TIP3   OH258738   4.802   5.279  13.751 -0.3623 -0.1796  0.0012
12416TIP3    H158739   4.791   5.243  13.663 -2.5091  1.0782 -0.3119
12416TIP3    H258740   4.844   5.209  13.800 -0.2422 -1.3703 -1.7114
12417TIP3   OH258741   2.492   3.082   4.232 -0.5679 -0.1635 -0.1380
12417TIP3    H158742   2.551   3.075   4.158  0.5137  0.4474  0.6329
12417TIP3    H258743   2.441   3.001   4.231  1.9787 -1.9029  0.5848
12418TIP3   OH258744   6.204   2.098  17.117 -0.3322 -0.1192 -0.1691
12418TIP3    H158745   6.114   2.124  17.098 -0.7698 -2.5702 -1.7828
12418TIP3    H258746   6.258   2.162  17.069 -1.1198  1.5872  1.0967
12419TIP3   OH258747   2.455   0.628  12.270  0.1675 -0.4887  0.2445
12419TIP3    H158748   2.458   0.721  12.247  1.0044 -1.0273 -2.0941
12419TIP3    H258749   2.361   0.611  12.283 -0.2164  0.3008 -1.1854
12420TIP3   OH258750   1.777   2.272  16.849 -0.2597 -0.5363 -0.0320
12420TIP3    H158751   1.793   2.191  16.897  0.9870 -0.7466 -0.7583
12420TIP3    H258752   1.704   2.253  16.791 -1.4990 -0.4129  1.4130
12421TIP3   OH258753   6.730   3.356   4.373 -0.4511  0.8150 -0.1297
12421TIP3    H158754   6.750   3.265   4.353 -1.4435  0.0074  2.1690
12421TIP3    H258755   6.812   3.403   4.356 -0.3415 -0.1990 -2.7718
12422TIP3   OH258756   5.459   5.619  14.738  0.3414  0.0289 -0.1867
12422TIP3    H158757   5.464   5.531  14.774 -3.4444 -0.1055  0.3563
12422TIP3    H258758   5.367   5.644  14.746  1.3204  4.3251  0.3351
12423TIP3   OH258759   3.763   1.216   1.915 -0.0621  0.7389 -0.4549
12423TIP3    H158760   3.754   1.158   1.990 -0.5179 -0.7111 -1.5882
12423TIP3    H258761   3.738   1.302   1.947 -2.0785 -0.1890  0.5878
12424TIP3   OH258762   6.083   0.124  15.472 -0.5472 -0.0170 -0.0712
12424TIP3    H158763   6.130   0.168  15.543  0.2778 -1.6231  0.4252
12424TIP3    H258764   6.147   0.118  15.401 -1.2750  1.3097 -0.8758
12425TIP3   OH258765   3.525   4.179  13.779 -0.4983  0.2193 -0.0378
12425TIP3    H158766   3.490   4.175  13.691 -1.7105 -0.9283  0.4597
12425TIP3    H258767   3.583   4.103  13.786  0.4167  0.8913 -0.1635
12426TIP3   OH258768   0.872   2.386  12.881  0.4147 -0.2093  0.1447
12426TIP3    H158769   0.833   2.455  12.935  1.1392 -0.4446  0.9835
12426TIP3    H258770   0.806   2.316  12.880  1.4028 -1.3027  2.9377
12427TIP3   OH258771   2.329   1.181   4.012  0.3679 -0.7642 -0.3771
12427TIP3    H158772   2.315   1.128   4.090  1.1384 -0.0374  0.2761
12427TIP3    H258773   2.395   1.245   4.038 -0.6114  0.6002 -1.0838
12428TIP3   OH258774   1.069   4.107  16.796 -0.0038 -0.4250  0.2873
12428TIP3    H158775   1.144   4.139  16.745  0.8983 -0.6302  1.4375
12428TIP3    H258776   1.000   4.171  16.780  0.9139  0.6329  0.4195
12429TIP3   OH258777   2.372   3.553   1.101 -0.0122 -0.1428  0.3691
12429TIP3    H158778   2.450   3.583   1.054 -1.7088  1.1719 -1.8302
12429TIP3    H258779   2.351   3.469   1.062  0.4917 -0.6833  1.2351
12430TIP3   OH258780   0.643   5.485   3.742  0.3180  0.3287 -0.2582
12430TIP3    H158781   0.670   5.445   3.824 -1.3564  0.9676  0.6632
12430TIP3    H258782   0.663   5.420   3.675 -1.0452 -1.5176  1.0257
12431TIP3   OH258783   1.613   3.885   2.082 -0.1001  0.2430  0.1711
12431TIP3    H158784   1.636   3.797   2.111  0.1699  0.3236  0.2027
12431TIP3    H258785   1.593   3.932   2.163  0.3615  0.3840  0.2061
12432TIP3   OH258786   0.184   3.872  10.769 -0.0637 -0.2377 -0.2286
12432TIP3    H158787   0.220   3.788  10.740 -0.9208 -0.6533 -0.1078
12432TIP3    H258788   0.108   3.886  10.713 -0.9182 -0.3769  0.8619
12433TIP3   OH258789   0.786   6.121   2.807 -0.1108  0.3356 -0.3810
12433TIP3    H158790   0.829   6.041   2.835 -0.9801 -0.3020 -0.8213
12433TIP3    H258791   0.857   6.185   2.799  0.4515 -0.0911  0.9907
12434TIP3   OH258792   0.995   4.108   1.783 -0.1272 -0.4333 -0.6852
12434TIP3    H158793   0.998   4.013   1.786  1.3002 -0.3903  0.1121
12434TIP3    H258794   0.996   4.130   1.690  1.4815 -1.1841 -0.8703
12435TIP3   OH258795   5.657   1.609  16.908 -0.6132 -0.1086 -0.2007
12435TIP3    H158796   5.581   1.650  16.867 -0.0052  1.4108  0.1280
12435TIP3    H258797   5.730   1.628  16.848 -0.0842  0.4359  0.5928
12436TIP3   OH258798   4.759   4.397   5.716  0.6477  0.9992  0.0847
12436TIP3    H158799   4.786   4.461   5.781 -1.3774  0.5526  1.4446
12436TIP3    H258800   4.772   4.442   5.632 -0.2305  3.0288  0.9644
12437TIP3   OH258801   4.823   6.565   3.996  0.2367  0.1710 -0.2506
12437TIP3    H158802   4.795   6.478   3.965  2.5881 -1.2200  1.2447
12437TIP3    H258803   4.743   6.605   4.029 -0.7722 -1.8157 -0.1109
12438TIP3   OH258804   3.026   6.756  16.785 -0.3968 -0.0655 -0.0592
12438TIP3    H158805   3.115   6.791  16.789 -1.0166  1.5106  1.2010
12438TIP3    H258806   3.024   6.686  16.850 -0.8212  1.9171  2.2150
12439TIP3   OH258807   1.439   0.603  15.546  0.1510  0.1238  0.4686
12439TIP3    H158808   1.453   0.509  15.555  2.0622  0.1139 -1.7791
12439TIP3    H258809   1.496   0.642  15.613  0.0719 -0.2902  0.7819
12440TIP3   OH258810   1.344   2.011  15.932 -0.1073 -0.2645 -0.2501
12440TIP3    H158811   1.341   1.997  15.838 -0.9826  1.1802 -0.4604
12440TIP3    H258812   1.437   2.027  15.951  0.4795 -3.0039 -0.4352
12441TIP3   OH258813   2.019   2.863   2.577  0.1955  0.8843  0.3883
12441TIP3    H158814   2.012   2.934   2.513  1.1188  1.1606  0.5895
12441TIP3    H258815   1.989   2.902   2.659  0.5524  0.9895  0.4663
12442TIP3   OH258816   6.739   0.325   5.479 -0.7744  0.1183  0.4428
12442TIP3    H158817   6.651   0.311   5.445 -0.5285 -1.7537  0.4597
12442TIP3    H258818   6.726   0.364   5.565 -1.5380  0.8444  0.0131
12443TIP3   OH258819   5.610   3.271   4.294 -0.1257  0.2907 -0.4751
12443TIP3    H158820   5.583   3.315   4.374  0.4062 -1.0542  0.4894
12443TIP3    H258821   5.528   3.256   4.245 -0.8014 -1.0036  0.9628
12444TIP3   OH258822   0.999   4.360  17.134 -0.0206  0.1608  0.0307
12444TIP3    H158823   1.038   4.285  17.087  0.2550 -0.2500  0.8945
12444TIP3    H258824   0.952   4.320  17.207 -0.7200  0.7734 -0.0797
12445TIP3   OH258825   5.425   1.184   0.922  0.0606 -0.2333  0.0201
12445TIP3    H158826   5.337   1.209   0.946 -0.1163  1.3459 -2.0019
12445TIP3    H258827   5.429   1.090   0.940 -1.0460  0.1616  2.7741
12446TIP3   OH258828   1.906   4.610  13.638 -0.3781 -0.0559  0.5441
12446TIP3    H158829   1.834   4.594  13.699  1.2871 -3.8569  1.7677
12446TIP3    H258830   1.902   4.538  13.575  1.9268  0.0146  0.2278
12447TIP3   OH258831   4.469   2.707  13.412  0.0489 -0.0676 -0.2956
12447TIP3    H158832   4.434   2.632  13.461 -1.5240 -0.0860 -1.3755
12447TIP3    H258833   4.559   2.681  13.390 -1.3736 -3.2565 -3.5235
12448TIP3   OH258834   4.831   0.728   5.463  0.1909 -0.0938  0.0306
12448TIP3    H158835   4.821   0.723   5.558  1.2376 -1.1051  0.1085
12448TIP3    H258836   4.821   0.638   5.433  1.0920  0.0233 -0.6665
12449TIP3   OH258837   1.907   3.548  16.840 -0.2132  0.1850 -0.1084
12449TIP3    H158838   1.895   3.454  16.857 -0.0834  0.1506 -0.2076
12449TIP3    H258839   1.876   3.561  16.750 -0.4194  0.2746 -0.0260
12450TIP3   OH258840   3.748   6.305   4.738 -0.0972 -0.0427  0.1661
12450TIP3    H158841   3.820   6.363   4.761 -0.2308 -0.4373  1.6365
12450TIP3    H258842   3.750   6.302   4.642  0.7660  1.2830  0.1177
12451TIP3   OH258843   2.323   3.233  12.102 -0.3343 -0.3493 -0.2146
12451TIP3    H158844   2.266   3.308  12.121 -1.0601 -1.1747  0.9741
12451TIP3    H258845   2.400   3.247  12.157 -1.1280 -1.2082  1.1734
12452TIP3   OH258846   1.088   4.942   2.373 -0.0097  0.3189  0.3961
12452TIP3    H158847   1.053   4.865   2.327  0.3622  0.8202 -0.7647
12452TIP3    H258848   1.165   4.909   2.419  1.5896  0.4001 -2.0216
12453TIP3   OH258849   6.550   0.596   3.554 -0.2014  0.2058  0.4216
12453TIP3    H158850   6.612   0.654   3.509 -0.3433  1.0530  1.2880
12453TIP3    H258851   6.589   0.509   3.547 -0.9267 -0.0017 -2.6644
12454TIP3   OH258852   2.416   2.588   3.066  0.5423 -0.5158  0.0296
12454TIP3    H158853   2.325   2.595   3.035  0.3754  1.1467  0.8039
12454TIP3    H258854   2.439   2.496   3.051 -0.8272 -0.6767 -1.3730
12455TIP3   OH258855   4.274   0.838  11.114  0.2240  0.1114  0.3294
12455TIP3    H158856   4.348   0.806  11.063 -0.0191 -0.9880  0.6437
12455TIP3    H258857   4.234   0.905  11.059  0.6056 -0.2991 -0.4604
12456TIP3   OH258858   3.223   3.255  14.958  0.1765  0.5626 -0.1226
12456TIP3    H158859   3.289   3.186  14.951  1.1900  1.6148 -1.7782
12456TIP3    H258860   3.272   3.336  14.941 -1.2205  1.5664  0.4619
12457TIP3   OH258861   2.731   4.825  13.312  0.0195  0.1573 -0.0910
12457TIP3    H158862   2.796   4.796  13.248  0.2645  0.5222 -0.0153
12457TIP3    H258863   2.779   4.828  13.395 -0.5002 -1.0652  0.2606
12458TIP3   OH258864   3.497   6.631  17.092 -0.2139  0.0806 -0.2323
12458TIP3    H158865   3.519   6.539  17.106  2.5398  0.8079  0.9838
12458TIP3    H258866   3.500   6.643  16.997 -0.2645 -0.9888 -0.3755
12459TIP3   OH258867   0.638   4.238   6.615 -0.6095  0.5158  0.2558
12459TIP3    H158868   0.592   4.318   6.592  0.1111  1.0944  0.7946
12459TIP3    H258869   0.727   4.251   6.583  0.3271  1.1838  2.8697
12460TIP3   OH258870   6.641   3.769   5.319 -0.2425 -0.2601  0.8261
12460TIP3    H158871   6.556   3.810   5.303 -1.1137 -1.9533  0.8474
12460TIP3    H258872   6.664   3.730   5.234  1.6687  2.0889  0.1603
12461TIP3   OH258873   6.720   4.785  11.582  0.4411 -0.1945 -0.4546
12461TIP3    H158874   6.815   4.792  11.595  0.7710 -1.4747 -1.8586
12461TIP3    H258875   6.710   4.717  11.516 -1.4254  0.5503 -1.0074
12462TIP3   OH258876   2.638   6.404  12.028  0.3111  0.1573  0.1622
12462TIP3    H158877   2.585   6.342  11.979  0.6421  0.6889 -0.9049
12462TIP3    H258878   2.649   6.364  12.114 -2.3905  0.3508  0.6784
12463TIP3   OH258879   6.021   6.223  14.961  0.3642  0.1048 -0.2858
12463TIP3    H158880   5.997   6.244  15.051 -0.4269  1.2370 -0.7383
12463TIP3    H258881   6.114   6.203  14.965  0.0400 -1.3482  1.0132
12464TIP3   OH258882   3.237   6.107   3.528 -0.7255 -0.1196  0.1061
12464TIP3    H158883   3.225   6.014   3.550 -1.9980 -0.1103 -0.4711
12464TIP3    H258884   3.251   6.107   3.434 -2.1209  0.3788 -0.1136
12465TIP3   OH258885   5.642   1.794   2.043  0.2039  0.5336  0.6060
12465TIP3    H158886   5.723   1.828   2.005  0.7329  0.9052  2.0193
12465TIP3    H258887   5.669   1.748   2.123 -1.0211  1.2528  1.4744
12466TIP3   OH258888   3.181   2.610  14.671 -0.2419  0.3795 -0.6530
12466TIP3    H158889   3.243   2.588  14.740 -0.7789  0.8729  0.0088
12466TIP3    H258890   3.106   2.553  14.687  0.1543 -0.4419 -1.6442
12467TIP3   OH258891   5.959   4.098   6.681 -0.4355 -0.6290  0.0972
12467TIP3    H158892   6.041   4.048   6.680  0.3138  0.4053  2.2426
12467TIP3    H258893   5.892   4.033   6.702  0.2622 -1.0661  1.0625
12468TIP3   OH258894   0.396   1.584   4.144 -0.0171 -0.0710 -0.2036
12468TIP3    H158895   0.479   1.599   4.098  0.0651  0.2609  0.0531
12468TIP3    H258896   0.422   1.553   4.231 -0.1538  0.3493 -0.0091
12469TIP3   OH258897   4.737   1.584  14.201 -0.7591  0.4794 -0.0981
12469TIP3    H158898   4.811   1.645  14.206  0.1205 -0.6090  0.8274
12469TIP3    H258899   4.746   1.544  14.114 -1.0286  1.2720 -0.4988
12470TIP3   OH258900   3.945   6.536  12.956 -0.1087 -0.3742 -0.0190
12470TIP3    H158901   4.004   6.596  13.003  1.0375  0.0452 -1.8761
12470TIP3    H258902   3.911   6.478  13.024 -0.2537  1.5603  1.6530
12471TIP3   OH258903   1.740   4.499  15.028  0.3619  0.1614 -0.8083
12471TIP3    H158904   1.725   4.509  14.934  0.3768 -1.7636 -1.0431
12471TIP3    H258905   1.811   4.561  15.047  0.5624  0.3672 -2.1077
12472TIP3   OH258906   0.483   6.723   2.659  0.2474 -0.2541 -0.1182
12472TIP3    H158907   0.567   6.749   2.618  0.1433  0.7946  0.2934
12472TIP3    H258908   0.417   6.754   2.597  0.1510 -2.2211 -1.0811
12473TIP3   OH258909   6.310   6.173   0.813  0.2879  0.2093 -0.3667
12473TIP3    H158910   6.351   6.110   0.754  0.0982 -1.4630  1.2068
12473TIP3    H258911   6.376   6.187   0.882 -0.4809  0.0887  0.4052
12474TIP3   OH258912   5.719   0.258  15.973  0.4841 -0.6119 -0.2537
12474TIP3    H158913   5.766   0.175  15.966  0.5491 -0.6182  0.1895
12474TIP3    H258914   5.643   0.247  15.917  1.7659 -0.0506 -2.1827
12475TIP3   OH258915   6.586   2.856   3.492  0.2485  0.7937 -0.0999
12475TIP3    H158916   6.606   2.948   3.477 -2.6281  1.2530 -2.0421
12475TIP3    H258917   6.534   2.831   3.415 -0.6221 -1.9264  1.2639
12476TIP3   OH258918   5.984   6.565   1.456 -0.2369  0.5665 -0.1834
12476TIP3    H158919   6.001   6.523   1.541 -1.9441  0.0591 -0.0509
12476TIP3    H258920   6.067   6.559   1.409  0.6691  0.6165  1.3424
12477TIP3   OH258921   1.450   2.300  13.850 -0.2124 -0.1203  0.1244
12477TIP3    H158922   1.544   2.313  13.845 -0.3111  0.8926  0.6480
12477TIP3    H258923   1.417   2.324  13.764 -0.1342  0.9127  0.3721
12478TIP3   OH258924   5.442   0.932   5.110 -0.7031 -0.6120 -0.0271
12478TIP3    H158925   5.408   0.954   5.024  0.3139  2.7312  0.2870
12478TIP3    H258926   5.365   0.929   5.167 -1.1296 -0.1542 -0.5699
12479TIP3   OH258927   2.597   0.303  13.639  0.6003 -0.8053  0.2368
12479TIP3    H158928   2.620   0.211  13.648  0.0346 -1.0000 -0.2384
12479TIP3    H258929   2.534   0.305  13.567  1.7448  0.1465 -0.7791
12480TIP3   OH258930   0.888   2.578   0.172 -0.3069  0.3252 -0.1364
12480TIP3    H158931   0.807   2.593   0.124  0.0576  0.4281 -0.7426
12480TIP3    H258932   0.883   2.487   0.201 -0.4298  0.1807 -0.5977
12481TIP3   OH258933   6.229   0.684  13.363 -0.5976 -0.2192  0.0650
12481TIP3    H158934   6.324   0.669  13.361 -0.0792  2.5202 -2.3127
12481TIP3    H258935   6.218   0.759  13.422 -1.3949 -0.8511  0.7426
12482TIP3   OH258936   6.475   1.080   5.416 -0.4057  0.1645 -0.5228
12482TIP3    H158937   6.433   1.162   5.443 -1.7814 -1.2503  1.9616
12482TIP3    H258938   6.544   1.066   5.481 -0.9918 -1.2289 -0.1691
12483TIP3   OH258939   1.748   0.955   3.503 -0.1166 -0.4790  0.0446
12483TIP3    H158940   1.808   1.029   3.513  1.5974 -2.0738  3.2109
12483TIP3    H258941   1.670   0.992   3.462  0.6095  3.1151  1.5234
12484TIP3   OH258942   4.858   6.570  15.029  0.2106 -0.2097  0.0631
12484TIP3    H158943   4.900   6.644  14.986  0.3330  1.1079  2.2823
12484TIP3    H258944   4.929   6.526  15.077 -0.2685 -0.2885  0.7210
12485TIP3   OH258945   3.969   4.760   0.287 -0.1380 -0.0030  0.3599
12485TIP3    H158946   3.988   4.714   0.369  2.1395 -0.3660 -0.3059
12485TIP3    H258947   4.054   4.794   0.259 -1.2020  1.7280 -0.9191
12486TIP3   OH258948   1.002   2.478   1.158  0.2037  0.0955 -0.0440
12486TIP3    H158949   0.995   2.432   1.242  1.8940  0.6664  0.4502
12486TIP3    H258950   0.916   2.516   1.145 -0.8126 -1.9669  0.2474
12487TIP3   OH258951   2.001   3.205   0.966 -0.5139  0.1319 -0.7145
12487TIP3    H158952   1.961   3.120   0.946 -0.8387  0.5101 -1.8107
12487TIP3    H258953   2.085   3.203   0.921 -0.6114  0.4536 -0.9182
12488TIP3   OH258954   2.882   5.216  14.754  0.9144 -0.3119 -0.5167
12488TIP3    H158955   2.893   5.306  14.725 -0.7268  0.2340  0.4673
12488TIP3    H258956   2.845   5.170  14.678 -1.2800  0.6060 -0.0756
12489TIP3   OH258957   5.268   0.113   3.510 -0.1709  0.6560 -0.2449
12489TIP3    H158958   5.361   0.135   3.509 -0.0263  0.0658 -0.4975
12489TIP3    H258959   5.223   0.194   3.488  0.2997  0.8842 -0.3662
12490TIP3   OH258960   2.491   2.665  10.457  0.1147 -0.0127  0.0044
12490TIP3    H158961   2.440   2.586  10.446 -0.2148  0.1382  0.4503
12490TIP3    H258962   2.478   2.691  10.548  2.1531 -0.7796  0.5845
12491TIP3   OH258963   0.338   2.383   6.632 -0.0760  0.5965 -0.0738
12491TIP3    H158964   0.259   2.371   6.578 -0.3814 -1.3964  0.7125
12491TIP3    H258965   0.357   2.476   6.625 -1.7676  0.9195 -1.3087
12492TIP3   OH258966   1.566   5.751  12.116  0.2928 -0.2058  0.3317
12492TIP3    H158967   1.605   5.814  12.056 -2.4548  0.1524 -1.2234
12492TIP3    H258968   1.539   5.678  12.061 -2.0187 -0.0114  1.0946
12493TIP3   OH258969   2.193   1.550  16.030 -0.2238 -0.1190 -0.9342
12493TIP3    H158970   2.134   1.609  15.983 -0.9877 -2.0365 -2.5215
12493TIP3    H258971   2.281   1.578  16.005 -0.4804  1.4845 -0.1613
12494TIP3   OH258972   4.488   2.730   1.142 -0.4766  0.3161 -0.1367
12494TIP3    H158973   4.484   2.757   1.233 -0.6767  0.5583 -0.2139
12494TIP3    H258974   4.443   2.645   1.140  0.4453 -0.1898  0.1620
12495TIP3   OH258975   0.169   5.159  17.144  0.2984  0.0253 -0.1812
12495TIP3    H158976   0.146   5.102  17.070  0.3179  2.0238 -1.8024
12495TIP3    H258977   0.090   5.209  17.162  0.6774  0.4559  0.3299
12496TIP3   OH258978   6.289   0.152   0.976  0.1380  0.6914 -0.3622
12496TIP3    H158979   6.350   0.128   0.906 -1.6342 -1.4378 -1.2927
12496TIP3    H258980   6.324   0.109   1.054 -0.7533 -1.6321 -1.1546
12497TIP3   OH258981   1.936   4.151   5.643  0.3252  0.0462  0.4473
12497TIP3    H158982   1.969   4.212   5.577  0.4493  1.4409  1.7427
12497TIP3    H258983   1.984   4.070   5.627 -0.3881 -0.0008 -1.8061
12498TIP3   OH258984   0.941   5.720   2.269 -0.1702  0.5505  0.0138
12498TIP3    H158985   0.974   5.648   2.215 -1.0722  0.0959  0.0496
12498TIP3    H258986   0.945   5.797   2.213  3.3028  1.0982  0.7630
12499TIP3   OH258987   3.192   4.230   5.487 -0.0671 -0.1368 -0.2864
12499TIP3    H158988   3.228   4.277   5.562 -0.5320  0.4227 -0.4089
12499TIP3    H258989   3.155   4.150   5.525  1.0042 -0.5717 -0.1223
12500TIP3   OH258990   4.963   6.281  15.073  0.1884  0.1837  0.1645
12500TIP3    H158991   4.958   6.185  15.075 -1.2416  0.2415 -0.2867
12500TIP3    H258992   5.009   6.301  14.992  0.4102 -0.1082  0.2156
12501TIP3   OH258993   2.589   1.619   0.978  0.6636  0.4462  0.1091
12501TIP3    H158994   2.680   1.602   1.000  0.0730 -0.6031  1.9577
12501TIP3    H258995   2.542   1.613   1.061 -1.3638 -0.9042 -1.0363
12502TIP3   OH258996   4.367   3.898   2.221 -0.3903 -0.0567  0.0502
12502TIP3    H158997   4.443   3.946   2.256 -0.3062 -1.0405  1.2811
12502TIP3    H258998   4.374   3.909   2.127  0.4812  1.0710  0.2205
12503TIP3   OH258999   5.848   6.786  15.461  0.1067 -0.0584 -0.1263
12503TIP3    H159000   5.911   6.857  15.464 -1.2472  1.1513  1.3486
12503TIP3    H259001   5.793   6.799  15.538 -1.6038 -1.3728 -1.0455
12504TIP3   OH259002   4.437   4.686  14.407 -0.3553 -0.1279  0.0976
12504TIP3    H159003   4.426   4.627  14.481  0.0115  0.9269  1.0171
12504TIP3    H259004   4.531   4.689  14.392 -0.3269  0.6076  0.3892
12505TIP3   OH259005   5.923   4.958  11.380 -0.7585  0.1371  0.3838
12505TIP3    H159006   5.996   4.994  11.329 -0.3113 -1.9304 -0.5730
12505TIP3    H259007   5.965   4.922  11.458 -0.3203 -2.8435 -1.0795
12506TIP3   OH259008   6.046   2.931  15.965  0.7504  0.9967  0.7239
12506TIP3    H159009   6.093   2.958  16.044  2.5711 -0.9174  0.3647
12506TIP3    H259010   6.039   2.836  15.972  0.9745  0.7747 -1.4412
12507TIP3   OH259011   6.473   4.331  17.140  0.1680  0.1500  0.1325
12507TIP3    H159012   6.438   4.367  17.221  0.0358  0.1071  0.0946
12507TIP3    H259013   6.398   4.327  17.080  0.2808  0.2563 -0.0176
12508TIP3   OH259014   5.589   0.491   0.468  0.4579  0.3533 -0.2642
12508TIP3    H159015   5.499   0.458   0.470  0.7979 -0.6021 -0.2410
12508TIP3    H259016   5.584   0.570   0.414 -0.5752  0.9132  0.6015
12509TIP3   OH259017   0.719   0.520   1.618 -0.1553 -0.4114 -0.0715
12509TIP3    H159018   0.797   0.506   1.671 -0.9486  0.0610  1.2828
12509TIP3    H259019   0.750   0.519   1.528  1.2755 -1.0462  0.4040
12510TIP3   OH259020   3.417   5.092   2.576  0.1502 -0.3024 -0.0289
12510TIP3    H159021   3.346   5.080   2.512 -0.1926 -1.9686  0.6179
12510TIP3    H259022   3.378   5.146   2.644 -0.1655 -0.3269 -0.1851
12511TIP3   OH259023   3.149   5.151  10.295 -0.1089 -0.2982  0.2908
12511TIP3    H159024   3.213   5.206  10.339 -1.1997  0.8666  0.4887
12511TIP3    H259025   3.187   5.063  10.296  1.8173  0.4773 -0.2856
12512TIP3   OH259026   4.570   0.069   0.866  0.0528 -0.5253 -0.2475
12512TIP3    H159027   4.583   0.092   0.774 -0.1902 -1.4276 -0.5186
12512TIP3    H259028   4.619   0.135   0.914  2.5545 -1.6372 -1.0952
12513TIP3   OH259029   1.425   5.627  15.277 -0.1641 -0.5029 -0.0938
12513TIP3    H159030   1.408   5.676  15.197 -2.3751  1.1167  1.2811
12513TIP3    H259031   1.342   5.584  15.297  0.5592 -1.4699  0.9705
12514TIP3   OH259032   0.176   5.689   1.125 -0.2150  0.0167  0.3317
12514TIP3    H159033   0.126   5.704   1.206  1.0534  0.1547  1.1190
12514TIP3    H259034   0.257   5.647   1.155 -0.3056 -1.2000 -1.0213
12515TIP3   OH259035   0.126   5.259   2.300 -0.6706 -0.0943 -0.3966
12515TIP3    H159036   0.098   5.333   2.353 -0.4278 -0.9276  0.9519
12515TIP3    H259037   0.049   5.236   2.248 -1.2814  0.0603  0.4177
12516TIP3   OH259038   2.396   3.320   3.475  0.0305  0.0669  0.1965
12516TIP3    H159039   2.458   3.290   3.541  1.3582 -0.6485 -1.2920
12516TIP3    H259040   2.317   3.344   3.524  0.4962 -1.6338  1.8885
12517TIP3   OH259041   2.008   5.989   4.496 -0.0891  0.2476 -0.2036
12517TIP3    H159042   2.002   5.973   4.402  0.5010  0.5002 -0.2909
12517TIP3    H259043   1.962   6.072   4.509  0.6219  0.6813 -0.4132
12518TIP3   OH259044   5.282   0.402  14.507 -0.7903 -0.2394 -0.2492
12518TIP3    H159045   5.290   0.452  14.588  0.2904 -0.2593 -0.3354
12518TIP3    H259046   5.371   0.395  14.474 -1.3473  0.9369 -2.1655
12519TIP3   OH259047   2.097   2.335   4.473 -0.0965  0.0530  0.5315
12519TIP3    H159048   2.138   2.422   4.465 -0.4269  0.2844  1.3095
12519TIP3    H259049   2.127   2.302   4.558 -1.6542  0.3033  1.2132
12520TIP3   OH259050   5.427   3.626  15.032  0.4754 -0.0863  0.1186
12520TIP3    H159051   5.397   3.632  15.123 -0.5699  0.7651 -0.2626
12520TIP3    H259052   5.516   3.591  15.038  0.8028  0.9171  1.5400
12521TIP3   OH259053   1.726   5.465   3.042  0.3899  0.1891  0.6712
12521TIP3    H159054   1.684   5.379   3.046  3.2678 -1.4143 -0.6274
12521TIP3    H259055   1.786   5.465   3.116  0.4457  1.0747  0.6293
12522TIP3   OH259056   5.089   2.857  16.912 -0.6171  0.2896  0.2604
12522TIP3    H159057   5.136   2.788  16.960 -0.0318  1.2584  1.1131
12522TIP3    H259058   5.052   2.913  16.980 -1.0940  0.8247 -0.4237
12523TIP3   OH259059   0.567   4.181  15.314  0.6352  0.0123  0.3480
12523TIP3    H159060   0.651   4.188  15.358  0.4493  0.3462  0.6549
12523TIP3    H259061   0.588   4.148  15.226  0.8992 -2.0116  1.1136
12524TIP3   OH259062   5.583   4.043  17.131  0.7977  0.3661 -0.1025
12524TIP3    H159063   5.495   4.044  17.167  1.3579  0.3499  1.3238
12524TIP3    H259064   5.640   4.055  17.206  2.0120  0.7036 -1.0402
12525TIP3   OH259065   6.329   4.897  15.538  0.1486  0.3466 -0.2985
12525TIP3    H159066   6.365   4.981  15.509 -2.1230  1.6615  0.4504
12525TIP3    H259067   6.258   4.921  15.597 -1.8986 -2.0684 -1.6407
12526TIP3   OH259068   3.660   6.519  12.257 -0.4089  0.3595 -0.0795
12526TIP3    H159069   3.685   6.602  12.298 -2.3586  0.7806  0.3570
12526TIP3    H259070   3.569   6.531  12.231 -1.2830 -2.1353  1.4148
12527TIP3   OH259071   4.660   5.428  10.796  0.7365 -0.5465  0.4750
12527TIP3    H159072   4.679   5.346  10.842  0.3769 -0.6658  0.4208
12527TIP3    H259073   4.565   5.438  10.805  0.6767 -0.5206 -0.1565
12528TIP3   OH259074   3.130   2.773   4.421  0.1630  0.4058 -0.3102
12528TIP3    H159075   3.207   2.728   4.387  0.0007 -1.2806  1.3783
12528TIP3    H259076   3.056   2.735   4.372 -0.0019 -1.4935  1.3068
12529TIP3   OH259077   3.741   1.422   4.489  1.0828  0.3068  1.0230
12529TIP3    H159078   3.767   1.424   4.397 -0.7985  0.3692  0.4463
12529TIP3    H259079   3.812   1.377   4.534  0.5971 -2.6672 -0.9584
12530TIP3   OH259080   0.042   1.574  14.137  0.4232  0.1523  0.0945
12530TIP3    H159081   0.011   1.499  14.086  1.0801  1.5125 -2.4370
12530TIP3    H259082   0.137   1.570  14.131  0.4632  1.3553 -0.3815
12531TIP3   OH259083   2.716   0.485   1.399  0.4864  1.1004  0.1900
12531TIP3    H159084   2.688   0.449   1.483  1.3359  1.2202  0.5296
12531TIP3    H259085   2.644   0.543   1.373  0.5306  1.6159  1.1811
12532TIP3   OH259086   5.034   2.346  11.230  0.1163  0.1965  0.2176
12532TIP3    H159087   5.079   2.430  11.237 -2.2770  1.5628 -0.0890
12532TIP3    H259088   5.030   2.313  11.320 -1.9695  2.1259  0.9080
12533TIP3   OH259089   0.887   0.310   3.188 -0.1612 -0.1656 -0.0903
12533TIP3    H159090   0.872   0.351   3.274 -0.3019 -1.7337  0.6809
12533TIP3    H259091   0.945   0.370   3.142 -1.1768  1.3850  0.5733
12534TIP3   OH259092   2.478   4.292   2.847  0.1651  0.1362 -0.2521
12534TIP3    H159093   2.482   4.383   2.816 -1.2575  0.4143  0.2905
12534TIP3    H259094   2.467   4.240   2.768  0.4299  0.4785 -0.5209
12535TIP3   OH259095   4.410   4.020  15.010  0.5693 -0.0989 -0.5765
12535TIP3    H159096   4.435   4.112  15.012  1.1676 -0.2661  0.6986
12535TIP3    H259097   4.315   4.020  15.011  0.5384  0.4981 -1.6124
12536TIP3   OH259098   5.861   0.431   1.231 -0.1026  0.0415 -0.1020
12536TIP3    H159099   5.906   0.476   1.159 -0.1707  0.3144  0.0269
12536TIP3    H259100   5.929   0.375   1.269  0.2660  0.8227  0.4065
12537TIP3   OH259101   3.386   4.902  12.004  0.3178  0.1143  0.0792
12537TIP3    H159102   3.312   4.905  12.064 -0.7640  1.4942 -1.2429
12537TIP3    H259103   3.383   4.815  11.965 -0.0332 -0.1687  0.7381
12538TIP3   OH259104   2.504   5.744   4.897  0.1182  0.0132  0.3143
12538TIP3    H159105   2.569   5.693   4.946  0.0826  0.0729  0.4226
12538TIP3    H259106   2.426   5.688   4.895 -0.7212  1.0151  2.4653
12539TIP3   OH259107   3.292   3.133   5.522  0.1206 -0.2264  0.4413
12539TIP3    H159108   3.208   3.180   5.514  0.6888  0.6412 -0.9413
12539TIP3    H259109   3.294   3.075   5.446 -0.2785 -2.0975  1.7844
12540TIP3   OH259110   0.572   1.640  11.233  0.3066 -0.8004 -0.0563
12540TIP3    H159111   0.565   1.722  11.281 -1.6358 -0.3524 -1.0290
12540TIP3    H259112   0.664   1.637  11.205  0.2220  1.5334 -0.8251
12541TIP3   OH259113   5.956   5.138  12.636 -0.2751  0.1180  0.4964
12541TIP3    H159114   5.994   5.168  12.553  0.2420  0.8702  0.9962
12541TIP3    H259115   5.862   5.128  12.617 -0.0957 -0.1472 -0.2954
12542TIP3   OH259116   1.257   6.147   4.442 -0.0365  0.6340 -0.0891
12542TIP3    H159117   1.272   6.151   4.536 -0.6835 -0.3032  0.0735
12542TIP3    H259118   1.226   6.058   4.427  1.7762  0.1820 -1.4631
12543TIP3   OH259119   5.130   4.575  11.034  0.0243 -0.1567 -0.5113
12543TIP3    H159120   5.171   4.647  10.985 -0.8400 -0.1283 -1.2099
12543TIP3    H259121   5.138   4.499  10.976 -0.0580 -0.3685 -0.2457
12544TIP3   OH259122   2.119   6.313   5.342 -0.2819 -0.5258  0.0966
12544TIP3    H159123   2.061   6.265   5.401 -4.0201  1.8875 -1.2144
12544TIP3    H259124   2.069   6.320   5.261  1.8862  1.7674 -1.1689
12545TIP3   OH259125   5.199   5.651  14.772  0.4184 -0.6390 -0.7108
12545TIP3    H159126   5.189   5.736  14.728  0.3052  0.8416  1.9385
12545TIP3    H259127   5.116   5.638  14.817  1.2692 -0.9738  0.8141
12546TIP3   OH259128   6.685   4.571  11.418 -0.1041  0.7506 -0.4654
12546TIP3    H159129   6.597   4.540  11.438  0.8166 -1.3183  0.6274
12546TIP3    H259130   6.680   4.603  11.328 -1.9001  0.4902 -0.4851
12547TIP3   OH259131   2.755   1.492   2.047  0.3763  0.6591  0.4358
12547TIP3    H159132   2.753   1.581   2.083  0.7773  0.5488  0.7402
12547TIP3    H259133   2.822   1.447   2.098  1.5403  0.7202 -0.9910
12548TIP3   OH259134   5.083   3.048  11.899 -0.2100 -0.0137  0.2300
12548TIP3    H159135   5.174   3.026  11.916 -0.6909 -1.3682  1.3116
12548TIP3    H259136   5.039   3.031  11.983 -1.4182  0.7897 -0.2223
12549TIP3   OH259137   0.763   0.281   2.782 -0.0615 -0.4469  0.3369
12549TIP3    H159138   0.749   0.257   2.874 -0.5383 -0.5484  0.2444
12549TIP3    H259139   0.706   0.221   2.733  0.6396 -0.7992 -0.0685
12550TIP3   OH259140   6.448   1.009  11.929  0.5977  0.0161 -0.2804
12550TIP3    H159141   6.463   1.103  11.939 -0.8131  0.1506  1.1627
12550TIP3    H259142   6.507   0.968  11.993  0.3850  0.0158 -0.0803
12551TIP3   OH259143   2.137   3.786   1.901 -0.1775  0.0499  0.3872
12551TIP3    H159144   2.168   3.876   1.905 -2.5365  0.9822 -0.6876
12551TIP3    H259145   2.075   3.779   1.974 -2.0923  0.2156 -1.1582
12552TIP3   OH259146   1.147   1.254  12.284  0.0016 -0.3082  0.2358
12552TIP3    H159147   1.136   1.260  12.379 -0.3002 -1.4431  0.2899
12552TIP3    H259148   1.136   1.344  12.253 -2.7263 -0.2657  1.0033
12553TIP3   OH259149   1.915   4.534   4.759 -0.5079 -0.3783 -0.0111
12553TIP3    H159150   1.954   4.613   4.721 -3.2014  0.1324 -2.0339
12553TIP3    H259151   1.854   4.503   4.692 -1.4772 -2.6677  1.8080
12554TIP3   OH259152   1.342   5.440   4.010 -0.0146 -0.2691 -0.2311
12554TIP3    H159153   1.405   5.480   3.950 -0.0138  3.0055  1.6966
12554TIP3    H259154   1.258   5.451   3.966  0.2380 -0.0419 -0.6697
12555TIP3   OH259155   0.587   5.186  12.335 -0.4175 -0.2720 -0.1756
12555TIP3    H159156   0.583   5.091  12.343 -0.6943 -0.4234 -1.7181
12555TIP3    H259157   0.654   5.212  12.398 -0.5379 -1.4507  0.4748
12556TIP3   OH259158   5.652   2.740   4.476  0.1254  0.0615 -0.2027
12556TIP3    H159159   5.727   2.770   4.527 -1.2171  0.5965  1.5685
12556TIP3    H259160   5.668   2.771   4.387  2.4996 -0.7948 -0.1323
12557TIP3   OH259161   4.741   4.869  11.226  0.8168  0.0873 -0.0548
12557TIP3    H159162   4.800   4.879  11.300  0.0892 -1.1283  0.7287
12557TIP3    H259163   4.694   4.788  11.243  0.8891 -0.4400 -2.0527
12558TIP3   OH259164   4.320   2.187   5.184 -0.0907  0.3190  0.1806
12558TIP3    H159165   4.339   2.269   5.138  0.5459  0.5172  0.7896
12558TIP3    H259166   4.343   2.205   5.275 -1.0991 -0.1540  0.5354
12559TIP3   OH259167   5.565   1.663   4.268  0.3117 -0.3232  0.5414
12559TIP3    H159168   5.603   1.592   4.217  0.2908 -0.3193  0.5204
12559TIP3    H259169   5.614   1.664   4.350  0.6569 -0.0346  0.3387
12560TIP3   OH259170   5.318   1.544  11.082  0.0507 -0.3827 -0.3115
12560TIP3    H159171   5.308   1.554  11.176 -0.5635  2.6005 -0.5832
12560TIP3    H259172   5.255   1.606  11.045  2.4405  0.8487 -2.6096
12561TIP3   OH259173   5.427   4.719   1.135 -0.1034 -0.0742  0.0159
12561TIP3    H159174   5.385   4.694   1.217 -1.2206  1.5715 -0.0092
12561TIP3    H259175   5.356   4.750   1.079  0.9120  1.0581 -0.7051
12562TIP3   OH259176   1.003   6.295   2.260 -0.3189  0.2206 -0.5899
12562TIP3    H159177   0.986   6.273   2.351  3.5511 -0.0723  0.1987
12562TIP3    H259178   1.075   6.238   2.234  2.8545  4.2666 -1.8104
12563TIP3   OH259179   3.504   5.763   6.004 -0.0344 -0.0404  0.5052
12563TIP3    H159180   3.476   5.700   5.938  0.2799 -0.2483  0.5705
12563TIP3    H259181   3.570   5.817   5.961 -0.7091  0.6274  0.2673
12564TIP3   OH259182   5.351   3.477  12.773 -0.4639 -0.3385 -0.3999
12564TIP3    H159183   5.400   3.539  12.719  0.8049  0.0805  1.1385
12564TIP3    H259184   5.418   3.421  12.812 -1.0505  0.6240  2.2201
12565TIP3   OH259185   1.046   4.533  14.285 -0.4945 -0.0161 -0.2448
12565TIP3    H159186   1.127   4.483  14.273 -0.0564  1.0407 -1.9872
12565TIP3    H259187   1.049   4.559  14.377  0.8414 -0.5180 -0.1146
12566TIP3   OH259188   6.332   4.113  12.964 -0.0388  0.5784 -0.1175
12566TIP3    H159189   6.330   4.179  12.895  0.2997  0.2213 -0.4726
12566TIP3    H259190   6.424   4.108  12.990 -0.1621  0.7086  0.3620
12567TIP3   OH259191   0.463   5.554  13.648 -0.2589 -0.1245 -0.3099
12567TIP3    H159192   0.527   5.491  13.682 -0.6628 -0.5136 -0.2620
12567TIP3    H259193   0.379   5.509  13.654 -0.5601  0.4273 -0.2531
12568TIP3   OH259194   3.753   0.534   1.317  0.5840 -0.0755  0.1144
12568TIP3    H159195   3.719   0.456   1.362 -1.4101  0.4836 -0.3371
12568TIP3    H259196   3.687   0.601   1.334 -0.0174  0.3007 -3.1693
12569TIP3   OH259197   5.745   4.860   3.421 -0.2733  0.0101  0.3140
12569TIP3    H159198   5.767   4.879   3.512 -2.1475 -3.5275  1.6875
12569TIP3    H259199   5.691   4.934   3.393  1.4914  1.8523  1.5024
12570TIP3   OH259200   2.533   2.986   5.137 -0.4772  0.0339  0.0986
12570TIP3    H159201   2.524   3.059   5.198  0.9587  0.3588 -0.0494
12570TIP3    H259202   2.586   2.921   5.183  1.7276  0.8266 -1.2105
12571TIP3   OH259203   5.674   5.249   2.285 -0.5223 -0.5078 -0.6243
12571TIP3    H159204   5.682   5.169   2.338 -0.5994  1.0944  2.0306
12571TIP3    H259205   5.602   5.298   2.327 -0.0389  1.2541 -1.7349
12572TIP3   OH259206   2.513   4.526  15.761 -0.0211  0.1973  0.3618
12572TIP3    H159207   2.444   4.589  15.783  0.7020  0.2972  2.5548
12572TIP3    H259208   2.468   4.459  15.710 -1.9545 -0.1286  2.3625
12573TIP3   OH259209   6.118   1.738  11.288 -0.1039 -0.7970  0.2238
12573TIP3    H159210   6.185   1.765  11.225  0.1736 -0.2789  0.7373
12573TIP3    H259211   6.162   1.743  11.373 -0.5829 -1.1459  0.4918
12574TIP3   OH259212   3.235   6.287   0.563  0.2513 -0.1700 -0.5586
12574TIP3    H159213   3.205   6.347   0.495 -0.8613 -2.7702 -2.5153
12574TIP3    H259214   3.286   6.221   0.516 -0.1267 -1.7853  1.1798
12575TIP3   OH259215   3.727   2.848  14.468 -0.3306 -0.0419  0.6943
12575TIP3    H159216   3.750   2.913  14.402  0.4215 -1.2411 -0.2940
12575TIP3    H259217   3.644   2.878  14.504 -1.4985 -0.0317 -1.7925
12576TIP3   OH259218   3.800   0.808   0.565  0.3496 -0.2981  0.9150
12576TIP3    H159219   3.891   0.833   0.581  0.8863 -0.6483 -1.2468
12576TIP3    H259220   3.791   0.810   0.469 -1.2079 -2.6382  0.9321
12577TIP3   OH259221   4.293   0.149   2.697 -0.1714  0.2748  0.8132
12577TIP3    H159222   4.271   0.231   2.741 -1.4009 -0.1157  0.9689
12577TIP3    H259223   4.242   0.151   2.616 -0.8115 -0.6499  1.1673
12578TIP3   OH259224   0.011   4.944   3.271  0.0307  0.0618 -0.0247
12578TIP3    H159225  -0.002   4.944   3.177 -0.7806  0.8085  0.0738
12578TIP3    H259226  -0.077   4.934   3.308  0.4363 -1.2102  0.6517
12579TIP3   OH259227   0.659   1.725  14.082  0.5425  0.3007 -0.6030
12579TIP3    H159228   0.689   1.778  14.155  0.3848  0.6753 -0.8079
12579TIP3    H259229   0.605   1.784  14.030 -0.8022 -0.4168 -0.0837
12580TIP3   OH259230   0.297   3.717   1.427 -0.3099 -0.0499 -0.4031
12580TIP3    H159231   0.273   3.624   1.438  0.1655 -0.0462  0.8498
12580TIP3    H259232   0.321   3.746   1.515 -0.3045  1.2334 -0.8083
12581TIP3   OH259233   2.114   0.000  12.744  0.2801  0.0023  0.3373
12581TIP3    H159234   2.149  -0.079  12.784  1.9299  0.6573  0.2977
12581TIP3    H259235   2.125   0.068  12.811 -0.4996  0.3319  0.1397
12582TIP3   OH259236   0.279   0.576   5.736 -0.0804 -0.2559  0.4377
12582TIP3    H159237   0.344   0.641   5.762  0.1487  0.0642 -0.8810
12582TIP3    H259238   0.205   0.592   5.795  0.6529  0.0331  1.2863
12583TIP3   OH259239   4.900   4.862  12.250 -0.4720  0.1859 -0.2604
12583TIP3    H159240   4.965   4.821  12.306  0.3393 -1.0101 -2.0041
12583TIP3    H259241   4.816   4.830  12.282 -0.0179 -0.5480  0.2047
12584TIP3   OH259242   1.657   2.297  15.831  0.3497 -0.1031  0.0672
12584TIP3    H159243   1.740   2.336  15.857  0.5793 -0.7453  0.3136
12584TIP3    H259244   1.636   2.235  15.901 -1.4960  1.6597  1.2076
12585TIP3   OH259245   2.824   3.813   1.518  0.6310 -0.3236  0.2505
12585TIP3    H159246   2.825   3.745   1.450  0.8450 -1.5319  1.4220
12585TIP3    H259247   2.917   3.832   1.534  0.5781  1.0133 -0.7517
12586TIP3   OH259248   2.888   0.955  11.227 -0.2368 -0.0173 -0.1096
12586TIP3    H159249   2.847   0.904  11.296  1.4587 -2.7548 -0.9603
12586TIP3    H259250   2.938   1.022  11.274 -2.4158  0.8912  1.0569
12587TIP3   OH259251   3.522   2.284   5.103  0.5271 -0.1579 -0.7272
12587TIP3    H159252   3.605   2.245   5.129 -0.0143 -0.5203  0.5565
12587TIP3    H259253   3.481   2.219   5.047  1.3023  0.2294 -1.7774
12588TIP3   OH259254   1.280   4.644   1.311  0.1169 -0.3430 -0.3038
12588TIP3    H159255   1.226   4.628   1.388 -1.2362  1.1969 -0.8715
12588TIP3    H259256   1.353   4.697   1.344  0.1018 -0.5662  0.0892
12589TIP3   OH259257   2.739   4.115  13.666 -0.4125 -0.0832  0.0368
12589TIP3    H159258   2.804   4.180  13.640 -0.4599 -0.3611 -0.7880
12589TIP3    H259259   2.778   4.031  13.643 -0.5679 -0.3207  0.6259
12590TIP3   OH259260   4.700   0.055  11.442 -0.1934 -0.2313 -0.2433
12590TIP3    H159261   4.608   0.067  11.421 -0.0442 -0.1393 -0.8696
12590TIP3    H259262   4.726   0.135  11.488 -1.3957 -1.7865  3.5863
12591TIP3   OH259263   3.032   3.783  13.904  0.1815  0.0722 -0.1997
12591TIP3    H159264   2.984   3.731  13.968 -1.9054  1.1041 -0.8466
12591TIP3    H259265   3.037   3.871  13.943  0.1002  0.3722 -0.8435
12592TIP3   OH259266   6.589   0.363  12.572  0.3786  0.0103 -0.0847
12592TIP3    H159267   6.541   0.445  12.568  0.2406 -0.1089 -0.9861
12592TIP3    H259268   6.681   0.389  12.585  0.9156  0.5401 -3.7984
12593TIP3   OH259269   2.605   5.859   2.260  0.8747  0.4621 -0.4629
12593TIP3    H159270   2.528   5.903   2.295  1.2895  1.0882 -0.3224
12593TIP3    H259271   2.629   5.909   2.182  1.2867  0.4274 -0.3649
12594TIP3   OH259272   3.601   5.215   1.472 -0.8596  0.3360  0.5189
12594TIP3    H159273   3.563   5.267   1.401 -2.6300 -2.4408 -0.7629
12594TIP3    H259274   3.532   5.209   1.538  0.1128  1.3295  1.6796
12595TIP3   OH259275   0.660   6.433  11.767 -0.0407  0.0358 -0.1149
12595TIP3    H159276   0.698   6.517  11.740 -0.2478  0.1345 -0.1007
12595TIP3    H259277   0.722   6.367  11.737  0.4871  0.2376  0.5058
12596TIP3   OH259278   5.174   3.093  16.110 -0.5930 -0.0116  0.9416
12596TIP3    H159279   5.177   3.185  16.082  0.1113 -0.3692 -0.2303
12596TIP3    H259280   5.128   3.095  16.193 -1.8098  1.2526  0.2865
12597TIP3   OH259281   1.221   0.809  12.412  0.3213  0.4893 -0.1646
12597TIP3    H159282   1.144   0.828  12.358  0.4464 -0.6905 -0.8026
12597TIP3    H259283   1.284   0.877  12.388  1.3746 -1.4339 -3.5937
12598TIP3   OH259284   0.106   4.849  11.247 -0.2210  0.4811 -0.5338
12598TIP3    H159285   0.049   4.775  11.229  0.5710 -0.5975  1.1047
12598TIP3    H259286   0.116   4.894  11.163  2.1621 -3.3125 -2.5498
12599TIP3   OH259287   0.679   5.377  14.984  0.5714 -0.0172  0.5046
12599TIP3    H159288   0.588   5.394  14.962  0.1586 -0.9187  1.4460
12599TIP3    H259289   0.696   5.433  15.060  0.7644  0.0442  0.4178
12600TIP3   OH259290   0.666   6.384   1.400  0.0209  0.4413 -0.2119
12600TIP3    H159291   0.754   6.366   1.434  0.0603  0.1180 -0.4748
12600TIP3    H259292   0.607   6.350   1.467  0.0974 -0.5721 -0.6469
12601TIP3   OH259293   2.425   4.332  15.603  0.5696 -0.1623  0.2631
12601TIP3    H159294   2.437   4.351  15.510 -0.4943  1.0713  0.3596
12601TIP3    H259295   2.464   4.245  15.614  1.6869  0.1239 -1.1023
12602TIP3   OH259296   3.590   0.993  13.449 -0.4175 -0.1131  0.3653
12602TIP3    H159297   3.677   1.022  13.475 -0.0086  1.3592 -2.2895
12602TIP3    H259298   3.532   1.063  13.478 -0.4332 -0.1237  0.3594
12603TIP3   OH259299   0.663   2.912  11.417  0.1317 -0.8872 -0.1886
12603TIP3    H159300   0.577   2.936  11.381 -1.1048 -1.3014  2.2329
12603TIP3    H259301   0.695   2.993  11.458  0.1040 -1.1344  0.3340
12604TIP3   OH259302   2.810   2.097   3.215 -0.4164 -0.5288  0.3678
12604TIP3    H159303   2.787   2.093   3.123 -1.5927 -1.2222  0.6664
12604TIP3    H259304   2.786   2.185   3.243 -0.0614 -0.3201  0.0225
12605TIP3   OH259305   5.643   2.249   1.290  0.3090 -0.5735  0.0089
12605TIP3    H159306   5.704   2.201   1.234  1.5246  1.8156 -0.8599
12605TIP3    H259307   5.685   2.249   1.376  0.7313 -0.3164 -0.1952
12606TIP3   OH259308   4.976   4.952  10.326  0.4448  0.7678  0.7188
12606TIP3    H159309   5.016   5.031  10.291 -0.0251  0.8657  0.3850
12606TIP3    H259310   5.032   4.926  10.399  0.4916  1.5157  0.9572
12607TIP3   OH259311   3.773   5.611   0.156 -0.0691 -0.0600 -0.2632
12607TIP3    H159312   3.742   5.543   0.216  0.5700 -0.2226 -0.1089
12607TIP3    H259313   3.861   5.633   0.188 -0.3082  0.9186 -0.2367
12608TIP3   OH259314   0.296   6.618   2.982 -0.1405  0.0548  0.3979
12608TIP3    H159315   0.295   6.593   2.890 -1.1052  1.2143  0.0675
12608TIP3    H259316   0.234   6.691   2.988  0.4767  0.4994  1.8231
12609TIP3   OH259317   2.187   4.553   2.823 -0.4478 -0.0170 -1.1788
12609TIP3    H159318   2.197   4.535   2.730  1.1853 -1.2813 -0.8201
12609TIP3    H259319   2.097   4.527   2.844 -0.5646 -0.4907 -2.2346
12610TIP3   OH259320   5.936   4.514   3.112 -0.1256  0.8058 -0.6927
12610TIP3    H159321   5.919   4.580   3.179 -1.0304  0.8210 -0.9147
12610TIP3    H259322   5.852   4.468   3.103  0.8591 -1.2763  0.4169
12611TIP3   OH259323   4.773   3.241  13.193 -0.2763  0.4600  0.0949
12611TIP3    H159324   4.832   3.267  13.122  0.0121 -0.6015 -0.0831
12611TIP3    H259325   4.762   3.146  13.181 -0.7848  0.3842  1.0521
12612TIP3   OH259326   1.046   1.576  12.623  0.4888 -0.1140  0.6988
12612TIP3    H159327   1.041   1.626  12.704 -0.8894  1.5358 -0.3355
12612TIP3    H259328   1.104   1.628  12.566 -0.8779  0.3252 -0.3518
12613TIP3   OH259329   1.438   4.116   4.579  0.3513  0.6092 -0.4186
12613TIP3    H159330   1.409   4.207   4.589 -0.3621  0.2070  1.4404
12613TIP3    H259331   1.522   4.113   4.625  0.3176  0.2806 -0.3808
12614TIP3   OH259332   1.075   1.758  11.259  0.3978 -0.9345 -0.3937
12614TIP3    H159333   1.121   1.700  11.320  0.0269 -0.1035  0.7052
12614TIP3    H259334   1.143   1.795  11.204  0.8756 -0.8275  0.2633
12615TIP3   OH259335   2.511   6.306   2.662 -0.1869 -0.6754  0.4403
12615TIP3    H159336   2.579   6.314   2.595 -1.4405  0.6109 -0.7491
12615TIP3    H259337   2.516   6.388   2.711 -1.3969 -0.2145 -0.1890
12616TIP3   OH259338   6.796   3.627   5.095  0.6243 -0.4181 -0.4836
12616TIP3    H159339   6.885   3.660   5.109  0.4414 -0.2012  0.2148
12616TIP3    H259340   6.806   3.562   5.026  0.8597  1.7140 -2.5938
12617TIP3   OH259341   2.690   1.072  13.791  0.0953 -0.0339 -0.4870
12617TIP3    H159342   2.645   1.068  13.707 -2.5218 -1.4511  0.8453
12617TIP3    H259343   2.730   0.985  13.801 -2.2308 -1.0276  0.9590
12618TIP3   OH259344   3.912   2.167  11.824 -0.7394  0.3685  0.3544
12618TIP3    H159345   3.931   2.230  11.894  0.1131 -0.4161  0.8566
12618TIP3    H259346   3.996   2.124  11.807 -1.0320  0.2515 -0.8645
12619TIP3   OH259347   0.956   0.608   1.751  0.3860 -0.5079 -0.2466
12619TIP3    H159348   0.952   0.524   1.799  0.6950 -0.4417 -0.0962
12619TIP3    H259349   0.954   0.674   1.820  1.4213 -0.4246 -0.2811
12620TIP3   OH259350   0.585   5.026  15.806 -0.5078 -0.5050 -0.0839
12620TIP3    H159351   0.513   4.963  15.813 -0.9748  0.1877  2.5190
12620TIP3    H259352   0.545   5.106  15.772 -1.1312 -0.0105  1.6892
12621TIP3   OH259353   0.668   2.437  15.459 -0.0846 -0.3441  0.3514
12621TIP3    H159354   0.586   2.481  15.437 -0.2996 -0.1537  1.4589
12621TIP3    H259355   0.687   2.383  15.383 -0.6355  0.4743 -0.3955
12622TIP3   OH259356   5.757   1.282  14.012 -0.0564  0.6969  0.2840
12622TIP3    H159357   5.840   1.314  13.978 -0.5308  0.3704 -1.2413
12622TIP3    H259358   5.717   1.359  14.053  0.2082  1.3026 -0.5635
12623TIP3   OH259359   3.407   5.928   6.267  0.2412  0.0494  0.1272
12623TIP3    H159360   3.410   6.019   6.237  3.9497  0.0558  0.1040
12623TIP3    H259361   3.437   5.877   6.192  1.4290 -0.8100  1.1528
12624TIP3   OH259362   6.520   3.475  12.724 -0.3203  0.2862  0.1272
12624TIP3    H159363   6.610   3.505  12.718 -0.7804  1.7507  0.1170
12624TIP3    H259364   6.524   3.396  12.779  1.1126 -0.4506 -0.9619
12625TIP3   OH259365   3.785   6.529  11.998 -0.5065 -0.3281  0.0981
12625TIP3    H159366   3.849   6.591  12.034 -0.2759 -0.8554  0.6119
12625TIP3    H259367   3.736   6.499  12.075 -2.8139  1.6223 -0.4615
12626TIP3   OH259368   0.791   6.595  16.576  0.0281  0.7185  0.3163
12626TIP3    H159369   0.776   6.679  16.621 -0.4605  0.2026  1.1540
12626TIP3    H259370   0.726   6.594  16.506 -0.7223  0.5624  0.9987
12627TIP3   OH259371   5.404   6.836   1.571  0.0548 -0.1157  0.0980
12627TIP3    H159372   5.316   6.872   1.557  0.4891  1.0449  0.2856
12627TIP3    H259373   5.462   6.911   1.565  0.7733 -0.3204  3.0155
12628TIP3   OH259374   3.930   0.102  14.060 -0.2036 -0.4754 -0.1990
12628TIP3    H159375   3.978   0.175  14.099 -0.6950  0.5820 -1.5054
12628TIP3    H259376   3.950   0.106  13.967 -0.7516 -1.6333 -0.3924
12629TIP3   OH259377   6.107   1.848   5.093  0.1440 -0.5423 -0.4188
12629TIP3    H159378   6.053   1.829   5.016 -2.3102 -2.0305  1.5355
12629TIP3    H259379   6.119   1.943   5.091 -1.9091 -0.2561 -1.3689
12630TIP3   OH259380   6.473   6.473  15.572 -0.0068 -0.0579  0.0665
12630TIP3    H159381   6.459   6.561  15.536  0.9192  0.2494  0.4310
12630TIP3    H259382   6.457   6.483  15.666  0.5894 -0.1617  0.1833
12631TIP3   OH259383   2.634   2.129  15.041  0.3999 -0.5412  0.2537
12631TIP3    H159384   2.640   2.211  14.992  1.0558 -0.6327  0.1722
12631TIP3    H259385   2.653   2.154  15.132  0.8064 -0.6318  0.1959
12632TIP3   OH259386   0.717   2.363   2.907 -0.5174 -0.0556  0.5370
12632TIP3    H159387   0.713   2.296   2.976 -0.8143 -1.0307 -0.4109
12632TIP3    H259388   0.804   2.401   2.917  0.4376 -1.9262 -0.1240
12633TIP3   OH259389   6.189   3.657  13.862  0.7397 -0.5655 -0.3795
12633TIP3    H159390   6.194   3.566  13.890  0.4611 -0.7916 -1.0447
12633TIP3    H259391   6.183   3.707  13.944 -0.6339 -1.2526 -0.0326
12634TIP3   OH259392   3.032   0.898  14.805 -0.4907  0.4049 -0.4720
12634TIP3    H159393   3.119   0.873  14.835  0.0061 -0.1854 -2.2698
12634TIP3    H259394   3.015   0.983  14.846 -0.0042 -0.4365  1.6139
12635TIP3   OH259395   5.341   0.302   0.020  0.1229  0.0758 -0.7947
12635TIP3    H159396   5.285   0.359   0.073 -0.4998  0.9746 -2.3306
12635TIP3    H259397   5.391   0.251   0.083 -1.2515  0.4213  0.6346
12636TIP3   OH259398   1.883   4.303   2.064 -0.3058  0.5464  0.5713
12636TIP3    H159399   1.843   4.233   2.013  0.4512  0.8616 -0.4880
12636TIP3    H259400   1.809   4.351   2.101 -0.8913  0.4666 -0.4603
12637TIP3   OH259401   1.282   1.192  14.535 -0.5881 -0.1958  0.1409
12637TIP3    H159402   1.291   1.261  14.469 -1.1055  1.3311  1.6040
12637TIP3    H259403   1.224   1.127  14.495 -1.0195  0.7779 -0.8482
12638TIP3   OH259404   3.872   3.918  13.281  0.1801 -0.2779 -0.3589
12638TIP3    H159405   3.962   3.921  13.250 -0.3327  1.4182 -1.7872
12638TIP3    H259406   3.847   4.009  13.292 -1.2778 -0.7310  0.3149
12639TIP3   OH259407   4.528   0.016  16.487 -0.4415  0.2398 -0.7085
12639TIP3    H159408   4.491   0.097  16.522 -0.1857  1.1873 -2.4625
12639TIP3    H259409   4.497  -0.053  16.545  0.1884  1.6978  1.4803
12640TIP3   OH259410   5.359   6.644  17.210  0.5590  0.1697  0.2511
12640TIP3    H159411   5.315   6.708  17.155 -1.1350 -1.4687 -0.4047
12640TIP3    H259412   5.413   6.593  17.149  2.2770  1.2176  0.8353
12641TIP3   OH259413   0.979   4.118  16.328 -0.4285 -0.1005  0.4886
12641TIP3    H159414   0.901   4.069  16.355  0.7062 -0.9106  2.5068
12641TIP3    H259415   0.976   4.198  16.380 -0.1439  0.0839  0.2248
12642TIP3   OH259416   5.392   1.483  13.764  0.5454  0.0483  0.5448
12642TIP3    H159417   5.329   1.534  13.713  1.3280  2.1747  1.5710
12642TIP3    H259418   5.368   1.392  13.747 -1.1207  0.7236 -1.1598
12643TIP3   OH259419   3.949   3.610  16.738  0.0860 -0.4076 -0.2450
12643TIP3    H159420   3.936   3.587  16.830 -2.0782 -0.6498 -0.5416
12643TIP3    H259421   4.028   3.564  16.712  0.3338 -0.9157  1.3042
12644TIP3   OH259422   1.240   5.431  15.372 -0.4308  0.1603  0.3345
12644TIP3    H159423   1.249   5.502  15.436 -2.2105  0.7807 -0.0512
12644TIP3    H259424   1.176   5.372  15.412  0.0842 -0.5765  0.0769
12645TIP3   OH259425   0.588   1.175  13.102 -0.3435 -0.0375 -0.4032
12645TIP3    H159426   0.621   1.121  13.030 -0.6858  1.3003 -1.6103
12645TIP3    H259427   0.655   1.241  13.115  0.4190 -1.1192  1.5729
12646TIP3   OH259428   3.373   1.393  15.928 -0.0452 -0.2958  0.1249
12646TIP3    H159429   3.466   1.387  15.906 -0.4045 -1.6826 -1.1353
12646TIP3    H259430   3.356   1.317  15.984  0.0567  1.2782  2.4795
12647TIP3   OH259431   0.058   6.318   2.696 -0.0624  0.1282 -0.2956
12647TIP3    H159432   0.147   6.337   2.726  0.6893 -0.1419 -2.2463
12647TIP3    H259433   0.069   6.266   2.617 -1.9320  0.8120 -1.0785
12648TIP3   OH259434   4.382   0.626  17.021  0.0726 -0.1338 -0.0721
12648TIP3    H159435   4.437   0.587  17.089  1.7284 -0.0899 -1.3245
12648TIP3    H259436   4.440   0.688  16.976 -1.7385  1.8380  0.1576
12649TIP3   OH259437   2.846   2.326  16.492 -0.6861  0.0821  0.1798
12649TIP3    H159438   2.797   2.244  16.489 -1.8425  0.7523 -0.2578
12649TIP3    H259439   2.810   2.373  16.568  1.1042 -0.4675  1.4169
12650TIP3   OH259440   4.050   0.896  10.712 -0.1481  0.7563 -0.3332
12650TIP3    H159441   4.071   0.804  10.692  0.5660  0.5072  1.3673
12650TIP3    H259442   4.132   0.943  10.700  0.1848  0.6785  1.3618
12651TIP3   OH259443   2.054   1.922   4.043  0.1916  0.3433  0.3678
12651TIP3    H159444   2.108   1.853   4.082 -1.8951 -0.6759  1.6480
12651TIP3    H259445   2.114   1.995   4.030  2.9391 -2.1547 -2.6992
12652TIP3   OH259446   2.220   6.228   2.626 -0.3913  0.0537 -0.5107
12652TIP3    H159447   2.315   6.238   2.623 -0.4562  0.4826 -1.4493
12652TIP3    H259448   2.207   6.135   2.646  0.2435 -0.4625 -2.3004
12653TIP3   OH259449   1.899   5.873   3.993  0.0462 -0.1402  0.1356
12653TIP3    H159450   1.858   5.949   3.953 -1.0403 -0.5238  0.4891
12653TIP3    H259451   1.826   5.815   4.015  0.8830 -2.7598 -3.0173
12654TIP3   OH259452   5.259   1.286  14.337 -0.8955 -0.1861 -0.0977
12654TIP3    H159453   5.172   1.315  14.365 -1.1881 -0.9745 -0.1679
12654TIP3    H259454   5.256   1.190  14.343 -0.2839 -0.2667 -0.8274
12655TIP3   OH259455   0.269   3.772  15.737 -0.4608 -0.2609  0.3117
12655TIP3    H159456   0.205   3.829  15.780 -0.0376 -1.1689  2.2525
12655TIP3    H259457   0.354   3.811  15.759 -0.2702  0.8027 -2.0495
12656TIP3   OH259458   1.218   1.001  11.028 -0.3341 -0.5420  0.0170
12656TIP3    H159459   1.180   1.078  10.986 -1.9125 -0.9239  0.6898
12656TIP3    H259460   1.307   0.997  10.992 -0.8488  0.4600 -1.5180
12657TIP3   OH259461   4.770   2.853   0.084  0.0527 -0.4953  1.0142
12657TIP3    H159462   4.865   2.861   0.077 -0.2332  2.9475 -1.9448
12657TIP3    H259463   4.738   2.943   0.076 -3.5367 -1.7328 -0.5285
12658TIP3   OH259464   3.822   1.764  15.959  0.2565 -0.2574 -0.5808
12658TIP3    H159465   3.804   1.795  15.870  0.0877  1.8661  0.1461
12658TIP3    H259466   3.904   1.807  15.984 -0.3155  0.1177  0.7136
12659TIP3   OH259467   1.275   1.038   2.876 -0.1701  0.5547  0.6898
12659TIP3    H159468   1.237   0.954   2.848  0.2427 -0.0033  1.7400
12659TIP3    H259469   1.277   1.091   2.797  0.3838 -0.7416 -0.1956
12660TIP3   OH259470   1.760   2.477   2.753  0.3853 -0.6673  0.4077
12660TIP3    H159471   1.836   2.432   2.716 -1.7052 -3.7042 -0.6146
12660TIP3    H259472   1.743   2.433   2.836  1.3154  1.9092  2.0827
12661TIP3   OH259473   1.339   2.728  14.750 -0.1331 -0.1845  0.2353
12661TIP3    H159474   1.386   2.809  14.730  1.1186 -1.0515 -0.5070
12661TIP3    H259475   1.407   2.661  14.751 -1.2841 -1.4016 -0.2327
12662TIP3   OH259476   3.354   6.119   4.104 -0.0831 -0.0655 -0.6843
12662TIP3    H159477   3.261   6.135   4.085 -0.0868  1.2603  0.3121
12662TIP3    H259478   3.398   6.201   4.080  0.7201 -0.4028 -0.3987
12663TIP3   OH259479   1.004   0.631  16.848  0.5987  0.0827 -0.1167
12663TIP3    H159480   1.048   0.589  16.774  2.0586 -0.3090  0.9097
12663TIP3    H259481   1.076   0.670  16.898 -0.1868 -0.8243  1.8013
12664TIP3   OH259482   5.022   6.087  16.533 -0.1061 -0.9053 -0.1702
12664TIP3    H159483   5.103   6.050  16.568  0.2199 -0.2252 -0.1817
12664TIP3    H259484   5.049   6.130  16.452 -0.5744 -1.1053 -0.4368
12665TIP3   OH259485   6.765   2.920   3.246  0.0276  0.1849  0.3150
12665TIP3    H159486   6.733   2.971   3.321  1.0955  0.2544  0.7469
12665TIP3    H259487   6.786   2.987   3.180 -1.6309  0.0853 -0.3786
12666TIP3   OH259488   3.556   4.969  13.263 -0.2989  0.3512 -0.2178
12666TIP3    H159489   3.593   4.931  13.343 -0.4456  2.0336  0.7140
12666TIP3    H259490   3.461   4.963  13.275 -0.3252  0.0840 -0.5424
12667TIP3   OH259491   5.273   5.640   4.722  0.6640  0.3663  0.1794
12667TIP3    H159492   5.285   5.629   4.816  0.2180  1.0845  0.3358
12667TIP3    H259493   5.273   5.735   4.710  0.0108  0.2936 -0.4458
12668TIP3   OH259494   5.873   4.421   4.461 -0.1480 -0.2607 -0.3560
12668TIP3    H159495   5.849   4.433   4.554  1.5484 -1.6286  0.3011
12668TIP3    H259496   5.877   4.510   4.426  1.0264  0.4328  1.3899
12669TIP3   OH259497   0.513   0.190   2.691 -0.2121 -0.3444  0.1034
12669TIP3    H159498   0.512   0.273   2.739  1.1213 -0.2937  0.0664
12669TIP3    H259499   0.454   0.133   2.740 -1.4159  0.7161 -0.0603
12670TIP3   OH259500   3.206   1.672   1.557  0.4730  0.4980 -0.3143
12670TIP3    H159501   3.217   1.626   1.640 -0.3051  1.0966  0.1348
12670TIP3    H259502   3.167   1.756   1.581 -2.0050 -0.2231 -1.4386
12671TIP3   OH259503   1.906   0.523  14.858  0.1144  0.2132 -0.0414
12671TIP3    H159504   1.937   0.544  14.946 -1.3736 -4.8883  2.0369
12671TIP3    H259505   1.810   0.522  14.866 -0.0953  0.3351 -1.9860
12672TIP3   OH259506   3.578   5.290  15.162 -0.0128 -0.0841 -0.2185
12672TIP3    H159507   3.629   5.213  15.135 -1.9004 -1.3619 -0.4003
12672TIP3    H259508   3.542   5.325  15.080  0.8173  1.0113 -0.1330
12673TIP3   OH259509   5.144   3.978   4.171  0.4523  0.7871 -0.0009
12673TIP3    H159510   5.168   3.921   4.098  0.2930 -0.1831  0.6833
12673TIP3    H259511   5.224   3.985   4.223  0.5933  1.5568 -0.3105
12674TIP3   OH259512   1.292   5.665  12.948  0.4505  0.2640 -0.4972
12674TIP3    H159513   1.367   5.646  12.892  1.2731  3.2014 -0.5479
12674TIP3    H259514   1.328   5.660  13.037  0.4575  0.6404 -0.4772
12675TIP3   OH259515   4.330   3.435  12.128 -0.2122 -0.0567 -0.4213
12675TIP3    H159516   4.370   3.466  12.209 -0.0960 -0.4492 -0.3244
12675TIP3    H259517   4.371   3.350  12.112  0.3466  0.3607 -1.3158
12676TIP3   OH259518   3.857   0.512  12.824 -0.0198 -0.1879 -0.0346
12676TIP3    H159519   3.863   0.417  12.815  1.2874  0.0231 -1.7536
12676TIP3    H259520   3.850   0.545  12.735  1.4770  1.4330  0.3893
12677TIP3   OH259521   1.766   3.685   1.431 -0.1042 -0.2841 -0.2662
12677TIP3    H159522   1.802   3.683   1.343  1.0761 -2.7901  0.1999
12677TIP3    H259523   1.842   3.695   1.488 -0.3528 -2.6926  0.6025
12678TIP3   OH259524   0.804   0.179   4.941 -0.1087 -0.1017 -0.5393
12678TIP3    H159525   0.800   0.273   4.958  0.3701  0.1556 -1.7142
12678TIP3    H259526   0.896   0.156   4.951  0.3269  0.1852 -3.0933
12679TIP3   OH259527   6.023   6.398   2.208  0.3417  0.3043 -0.1702
12679TIP3    H159528   5.997   6.467   2.269  0.3636 -0.1040  0.3158
12679TIP3    H259529   6.016   6.438   2.122  1.0199  1.1218  0.1374
12680TIP3   OH259530   3.479   3.091  11.279  0.4290  0.2199  0.0247
12680TIP3    H159531   3.388   3.110  11.255 -0.1804 -0.3928  1.7105
12680TIP3    H259532   3.531   3.145  11.219 -1.0504  0.9410 -0.6697
12681TIP3   OH259533   1.342   2.135  16.667  0.4834 -0.0529 -0.3849
12681TIP3    H159534   1.286   2.212  16.666 -0.8807 -1.0000 -1.6254
12681TIP3    H259535   1.282   2.062  16.686  1.4803 -0.9916 -0.7177
12682TIP3   OH259536   0.531   2.728  11.570 -0.1414  0.1649 -0.5177
12682TIP3    H159537   0.575   2.792  11.514  0.6208  0.6102  0.5453
12682TIP3    H259538   0.474   2.779  11.626  0.6343 -0.0260  0.4892
12683TIP3   OH259539   6.614   5.693  16.894  0.8460 -0.6798  0.1624
12683TIP3    H159540   6.553   5.678  16.821 -0.7414 -0.1260  1.3290
12683TIP3    H259541   6.685   5.744  16.855 -0.3768  0.3287 -0.8255
12684TIP3   OH259542   0.040   5.048  14.361  0.2129 -0.6049 -0.0701
12684TIP3    H159543   0.122   5.097  14.364 -0.9843  1.5930 -0.7883
12684TIP3    H259544   0.063   4.964  14.322  1.9967  0.2411 -0.9287
12685TIP3   OH259545   1.868   5.243  16.406  0.3099 -0.2996 -0.1178
12685TIP3    H159546   1.828   5.170  16.358 -0.4118 -0.1444  0.2321
12685TIP3    H259547   1.871   5.214  16.497  0.0698  0.0857  0.0143
12686TIP3   OH259548   1.731   6.727  14.527  0.2739  0.8169  0.6444
12686TIP3    H159549   1.705   6.688  14.443  2.0586 -0.5195  0.6425
12686TIP3    H259550   1.824   6.747  14.516  0.2178  1.8823  1.8755
12687TIP3   OH259551   3.847   0.391  11.910  0.8068  1.0205 -0.2138
12687TIP3    H159552   3.896   0.312  11.932 -1.4497 -0.4290 -0.0824
12687TIP3    H259553   3.795   0.410  11.988 -0.5804  1.1132 -1.1274
12688TIP3   OH259554   5.018   2.332  14.726 -0.3441  0.4098  0.4155
12688TIP3    H159555   5.006   2.238  14.742 -0.7420  0.4766  0.5095
12688TIP3    H259556   4.966   2.350  14.648  0.5095  0.3584 -0.1754
12689TIP3   OH259557   3.120   5.229   5.707 -0.0828 -0.2125 -0.4455
12689TIP3    H159558   3.152   5.246   5.618  2.9280 -0.0959  0.5292
12689TIP3    H259559   3.032   5.265   5.708 -0.1945 -0.1323 -3.3419
12690TIP3   OH259560   1.649   5.892   2.178 -0.3152 -0.4794  0.3664
12690TIP3    H159561   1.685   5.825   2.235  0.2288 -1.3635 -0.9699
12690TIP3    H259562   1.718   5.910   2.114 -0.4700  1.3148  0.6368
12691TIP3   OH259563   3.343   4.655   0.230 -0.0365 -0.0378  0.1448
12691TIP3    H159564   3.248   4.653   0.234 -0.0844 -0.4739 -0.9226
12691TIP3    H259565   3.364   4.729   0.173  0.1609 -1.2870 -1.4915
12692TIP3   OH259566   5.346   4.783  11.544  0.1461 -0.0747 -0.1018
12692TIP3    H159567   5.318   4.759  11.455 -0.4386 -0.1351  0.0945
12692TIP3    H259568   5.421   4.725  11.561 -2.1774 -3.0490  0.9628
12693TIP3   OH259569   3.553   1.218  17.037  0.2818  0.0792  0.0403
12693TIP3    H159570   3.494   1.265  17.095  0.3926  0.1655  0.0852
12693TIP3    H259571   3.634   1.269  17.039  0.5723 -0.3898  0.4890
12694TIP3   OH259572   4.513   2.692  14.308  0.6037 -0.5372  0.8050
12694TIP3    H159573   4.584   2.756  14.316  1.0156 -0.7607 -0.6696
12694TIP3    H259574   4.524   2.656  14.220 -0.1226 -2.0517  1.3025
12695TIP3   OH259575   1.084   1.121   0.376  0.9078 -0.0751 -0.1083
12695TIP3    H159576   1.171   1.161   0.371 -0.2062  2.5515 -0.2190
12695TIP3    H259577   1.065   1.119   0.470  0.8288 -0.0774 -0.1250
12696TIP3   OH259578   5.298   4.667   3.387  0.4415 -0.4183  0.1707
12696TIP3    H159579   5.293   4.571   3.391 -0.2965 -0.4193 -0.4206
12696TIP3    H259580   5.213   4.696   3.422  0.2866 -0.0146 -0.5288
12697TIP3   OH259581   1.390   2.508   3.851 -0.2967  0.0172 -0.5272
12697TIP3    H159582   1.354   2.534   3.766 -2.1090 -0.1833  0.1265
12697TIP3    H259583   1.438   2.427   3.832  0.0585  0.4437 -1.5043
12698TIP3   OH259584   3.852   4.163  13.407 -0.4070  0.5035 -0.1661
12698TIP3    H159585   3.882   4.254  13.412 -1.9669  0.9828  2.3493
12698TIP3    H259586   3.872   4.127  13.494  1.8303 -2.2021 -1.6379
12699TIP3   OH259587   3.019   0.179  15.021  0.7857 -0.2788 -0.0330
12699TIP3    H159588   3.089   0.202  14.960 -0.6467  1.2961 -1.1633
12699TIP3    H259589   3.024   0.084  15.028 -0.1120 -0.8123 -4.1359
12700TIP3   OH259590   0.613   6.803  13.124 -0.1156 -0.3051  0.1940
12700TIP3    H159591   0.632   6.870  13.189 -0.8867  0.8895 -0.7769
12700TIP3    H259592   0.655   6.833  13.044  1.5377 -2.1697  0.2807
12701TIP3   OH259593   1.488   4.653  14.580  0.6939 -0.6804  0.3195
12701TIP3    H159594   1.448   4.733  14.616  1.4442 -0.9623  1.8577
12701TIP3    H259595   1.579   4.676  14.565  0.4610 -0.6591 -1.2142
12702TIP3   OH259596   4.577   1.850   5.729 -0.2294  0.1542 -0.1899
12702TIP3    H159597   4.571   1.800   5.811 -2.5310 -0.3399 -0.5873
12702TIP3    H259598   4.668   1.879   5.726  0.1958 -0.6899  2.0195
12703TIP3   OH259599   0.064   2.627   4.352  0.5379  0.0534 -0.2680
12703TIP3    H159600   0.043   2.610   4.444 -3.1202  1.6499 -0.6242
12703TIP3    H259601   0.155   2.656   4.353  1.2430 -1.8124  2.5319
12704TIP3   OH259602   6.732   3.868   1.854 -0.1704  0.1495 -0.4627
12704TIP3    H159603   6.789   3.859   1.930 -0.0552  1.4722 -0.3647
12704TIP3    H259604   6.652   3.821   1.878  0.0524  0.1455  0.2796
12705TIP3   OH259605   0.244   1.099  13.271 -0.5277  1.0144 -0.7676
12705TIP3    H159606   0.208   1.145  13.347 -0.0308  0.8315 -0.4186
12705TIP3    H259607   0.167   1.066  13.225 -0.8342  1.1288 -0.3454
12706TIP3   OH259608   4.880   4.742  15.197 -0.0337  0.2281  0.0070
12706TIP3    H159609   4.814   4.809  15.180  0.1549  0.4366  0.0852
12706TIP3    H259610   4.853   4.667  15.145 -1.1956 -0.2373  1.2103
12707TIP3   OH259611   6.123   6.359   3.892  0.5559 -0.1493 -0.1495
12707TIP3    H159612   6.206   6.400   3.869 -0.5730  0.3606 -4.0389
12707TIP3    H259613   6.109   6.294   3.823 -1.8895 -0.8384  0.8982
12708TIP3   OH259614   3.414   2.437   3.819 -0.0555  0.2977 -0.3738
12708TIP3    H159615   3.427   2.359   3.764  0.7616 -0.0148  0.2387
12708TIP3    H259616   3.404   2.509   3.756 -2.5620 -0.5031 -1.0046
12709TIP3   OH259617   2.426   5.890   5.618  0.5461  0.5704 -0.0391
12709TIP3    H159618   2.342   5.921   5.652  0.0909 -0.3619 -0.2672
12709TIP3    H259619   2.409   5.873   5.525  0.3561 -1.6612  0.3462
12710TIP3   OH259620   2.263   2.794  11.487  0.0180  0.2999  0.2413
12710TIP3    H159621   2.262   2.723  11.551  0.8431 -1.2733 -1.3992
12710TIP3    H259622   2.229   2.870  11.535 -4.4396 -1.9502  1.1352
12711TIP3   OH259623   2.872   5.744   2.075 -0.0220 -0.1212 -0.3019
12711TIP3    H159624   2.802   5.802   2.043 -0.0317  0.1277  0.1531
12711TIP3    H259625   2.869   5.755   2.170 -1.2270 -2.2592 -0.0405
12712TIP3   OH259626   4.895   5.648   2.947 -0.2353  0.5430 -0.7166
12712TIP3    H159627   4.833   5.577   2.934 -1.1134  1.0856  0.3433
12712TIP3    H259628   4.977   5.616   2.910 -0.5021 -1.1842  0.1024
12713TIP3   OH259629   3.610   1.856   1.195  0.0666  0.6830 -0.1700
12713TIP3    H159630   3.620   1.853   1.290 -0.3176 -3.3958 -0.0661
12713TIP3    H259631   3.517   1.877   1.182  0.0068  0.7876  0.3963
12714TIP3   OH259632   5.806   2.052   5.665  0.1794 -0.0623  0.3807
12714TIP3    H159633   5.856   2.079   5.742 -0.4583  1.1634  0.3856
12714TIP3    H259634   5.716   2.078   5.684 -0.1105 -0.3768 -0.4912
12715TIP3   OH259635   4.334   2.768  12.621  0.1002  0.6302  0.4713
12715TIP3    H159636   4.412   2.817  12.596 -1.5242  2.2456 -1.8763
12715TIP3    H259637   4.302   2.813  12.699  0.6902  0.8815  0.5755
12716TIP3   OH259638   1.765   4.850   1.805 -0.5619  0.4037  0.5377
12716TIP3    H159639   1.782   4.756   1.802 -0.4483  0.4225  0.5911
12716TIP3    H259640   1.694   4.860   1.868 -0.4291  0.3746  0.6909
12717TIP3   OH259641   0.644   1.822  12.970 -0.0775  0.3751  0.4372
12717TIP3    H159642   0.591   1.858  13.042 -2.0110 -2.5683  0.6735
12717TIP3    H259643   0.611   1.867  12.892 -1.8472 -0.1958  0.7903
12718TIP3   OH259644   5.063   2.399  13.618 -0.1278  0.3376 -0.0226
12718TIP3    H159645   5.083   2.425  13.528  0.6932 -1.3839 -0.3871
12718TIP3    H259646   5.139   2.427  13.669 -0.3255  0.7902  0.0199
12719TIP3   OH259647   3.759   6.730   3.393  0.0167 -0.6859  0.1390
12719TIP3    H159648   3.776   6.650   3.442  3.7677 -1.9306 -2.7260
12719TIP3    H259649   3.754   6.703   3.302 -2.8015  1.9461 -0.6410
12720TIP3   OH259650   3.762   2.974   1.808 -0.0299 -1.0988 -0.2847
12720TIP3    H159651   3.686   3.030   1.817  0.2832 -0.3474 -1.8871
12720TIP3    H259652   3.799   2.997   1.722  2.9219 -0.3049  1.0565
12721TIP3   OH259653   6.441   2.275   0.083 -0.3476 -0.2645  0.0883
12721TIP3    H159654   6.358   2.262   0.127 -0.7204  0.0369 -0.5127
12721TIP3    H259655   6.418   2.286  -0.009  0.4269 -1.0103 -0.2074
12722TIP3   OH259656   2.325   2.586   1.491  0.1012 -0.5625  0.2703
12722TIP3    H159657   2.331   2.586   1.586  0.4724  1.4771  0.3043
12722TIP3    H259658   2.412   2.614   1.461 -0.6583  1.1476 -0.5204
12723TIP3   OH259659   1.115   3.128  16.500  0.2388 -0.6415 -0.4758
12723TIP3    H159660   1.097   3.066  16.429  0.6006  0.7630 -1.8637
12723TIP3    H259661   1.030   3.166  16.521  0.3050 -0.1511 -1.0621
12724TIP3   OH259662   3.190   5.320  15.323  0.5344  0.5316  0.8029
12724TIP3    H159663   3.116   5.379  15.307 -0.4795 -1.0984 -0.8809
12724TIP3    H259664   3.227   5.305  15.235  2.5763  0.8755  1.5367
12725TIP3   OH259665   4.729   2.106   0.748  0.0362  0.4825  0.3423
12725TIP3    H159666   4.800   2.155   0.708 -0.5373  0.6986 -0.4402
12725TIP3    H259667   4.657   2.169   0.757  0.3190  0.6019  2.2894
12726TIP3   OH259668   5.619   1.471   2.110  0.1653 -0.2441 -0.4076
12726TIP3    H159669   5.577   1.534   2.051  1.5901  1.5971  0.4331
12726TIP3    H259670   5.675   1.418   2.052 -0.7868 -0.5243 -1.0875
12727TIP3   OH259671   1.399   5.915   1.999 -0.9239 -0.2007  0.1297
12727TIP3    H159672   1.350   5.835   1.980  1.2167 -1.9049  1.2820
12727TIP3    H259673   1.475   5.885   2.050  0.8247  2.3789 -0.7617
12728TIP3   OH259674   3.564   0.416  11.018  0.0574 -0.3852  0.0394
12728TIP3    H159675   3.564   0.506  11.050  1.0745 -0.3369 -0.0708
12728TIP3    H259676   3.506   0.417  10.942  0.4444  0.2835 -0.2478
12729TIP3   OH259677   4.362   0.904   4.491  0.0147 -0.2272 -0.4224
12729TIP3    H159678   4.452   0.932   4.477 -0.5595  0.8245 -2.2474
12729TIP3    H259679   4.349   0.831   4.430  0.6255 -2.8615  2.3196
12730TIP3   OH259680   0.869   6.285  14.645 -0.1964 -0.1225  0.1814
12730TIP3    H159681   0.805   6.352  14.668 -0.2568 -0.0352 -0.2231
12730TIP3    H259682   0.934   6.331  14.591 -0.0591 -0.3141  0.1811
12731TIP3   OH259683   3.510   5.242   2.290  0.6241 -0.4972 -0.1361
12731TIP3    H159684   3.456   5.218   2.214 -2.4560  2.1459  0.9762
12731TIP3    H259685   3.447   5.253   2.361  3.1109 -0.4256  2.2066
12732TIP3   OH259686   4.329   6.169   5.670  0.1787 -0.2349 -0.1017
12732TIP3    H159687   4.291   6.212   5.747  1.0805  2.1059 -0.8746
12732TIP3    H259688   4.364   6.240   5.617  3.3879 -2.0225 -0.6696
12733TIP3   OH259689   1.099   4.427   2.054 -0.1098 -0.4365 -0.9124
12733TIP3    H159690   1.011   4.463   2.039 -0.3635 -0.7595 -0.2258
12733TIP3    H259691   1.099   4.400   2.145  1.2882  1.2152 -0.3611
12734TIP3   OH259692   5.171   1.793   4.929 -0.3003  0.3295 -0.2179
12734TIP3    H159693   5.219   1.858   4.981 -0.9480  0.7651 -0.1457
12734TIP3    H259694   5.235   1.759   4.867  1.1121 -1.7405  2.1702
12735TIP3   OH259695   3.781   5.858  12.602  0.1550  0.6671 -0.1119
12735TIP3    H159696   3.867   5.832  12.636  0.7257  1.1379 -1.1201
12735TIP3    H259697   3.722   5.849  12.676  1.0927  0.3972  0.6300
12736TIP3   OH259698   0.569   2.047   0.512  0.0639 -0.7218  0.3116
12736TIP3    H159699   0.517   2.088   0.580 -0.6957  0.3459 -0.8659
12736TIP3    H259700   0.599   2.119   0.456 -1.1789 -1.6764 -1.7223
12737TIP3   OH259701   1.647   2.323   4.389 -0.2662 -0.2675 -0.5370
12737TIP3    H159702   1.725   2.357   4.433 -1.4350  0.7771  0.8209
12737TIP3    H259703   1.679   2.290   4.305  1.8087 -0.9267  0.4513
12738TIP3   OH259704   5.436   2.564   2.346 -0.0640  0.4459  0.0837
12738TIP3    H159705   5.446   2.623   2.420 -0.3907  0.7369 -0.1008
12738TIP3    H259706   5.514   2.509   2.348 -0.8282 -0.6487  1.6242
12739TIP3   OH259707   3.270   4.143   4.702  0.2232  0.2426  0.6323
12739TIP3    H159708   3.275   4.084   4.628 -1.3156 -0.2333  0.8608
12739TIP3    H259709   3.305   4.093   4.776 -1.4946 -0.6047  0.9209
12740TIP3   OH259710   4.919   4.573   5.898  0.0867  0.2106  0.1637
12740TIP3    H159711   4.997   4.553   5.846  0.2000 -1.1521  0.8322
12740TIP3    H259712   4.880   4.649   5.854  2.2990  1.5517  0.3501
12741TIP3   OH259713   2.392   6.299   3.689  0.1476 -0.0780 -0.2934
12741TIP3    H159714   2.311   6.349   3.699 -0.0455  0.1674 -2.5729
12741TIP3    H259715   2.374   6.237   3.618  1.5481 -0.8829  0.0103
12742TIP3   OH259716   4.619   1.114  15.377 -0.1017  0.3774 -0.2107
12742TIP3    H159717   4.710   1.108  15.351 -0.5228 -1.0415 -1.4899
12742TIP3    H259718   4.585   1.191  15.333  0.0456 -0.1099 -1.1930
12743TIP3   OH259719   3.621   1.194  12.160 -0.0733 -0.6874 -0.2219
12743TIP3    H159720   3.711   1.165  12.179  0.3977  1.5124  1.4103
12743TIP3    H259721   3.567   1.117  12.176  1.5074 -2.0520 -1.2034
12744TIP3   OH259722   3.431   1.806   3.945 -0.2778 -0.1527 -0.3718
12744TIP3    H159723   3.418   1.890   3.989 -1.0221 -0.3774 -0.1562
12744TIP3    H259724   3.348   1.759   3.957  0.2287 -1.0356 -0.2421
12745TIP3   OH259725   3.322   6.459   0.822 -0.1683  0.3337 -0.1928
12745TIP3    H159726   3.317   6.371   0.783  0.0382  0.4414 -0.4686
12745TIP3    H259727   3.394   6.453   0.884 -0.0331  0.3577 -0.3459
12746TIP3   OH259728   4.595   4.501   5.283 -0.5187 -0.2437  0.2587
12746TIP3    H159729   4.508   4.494   5.243  0.0648 -1.3863 -0.8668
12746TIP3    H259730   4.630   4.583   5.249 -0.7567 -0.2880 -0.1020
12747TIP3   OH259731   1.245   1.888   2.733  0.1915  0.9135 -0.2124
12747TIP3    H159732   1.209   1.834   2.663 -0.0052 -0.7787  1.1276
12747TIP3    H259733   1.339   1.894   2.713  0.2994 -0.3360 -0.1721
12748TIP3   OH259734   4.250   3.450  16.616  0.1425  0.2087  0.1342
12748TIP3    H159735   4.189   3.376  16.614 -0.8409  0.8835 -3.8847
12748TIP3    H259736   4.318   3.427  16.553  0.9265  1.9206  0.2942
12749TIP3   OH259737   4.545   6.139  12.382  0.1252  0.5747  0.2480
12749TIP3    H159738   4.507   6.124  12.468 -0.7937  2.2041  0.1427
12749TIP3    H259739   4.639   6.147  12.398  0.1070 -0.3350  0.9052
12750TIP3   OH259740   3.417   4.744  15.468  0.0667  0.0084 -0.0796
12750TIP3    H159741   3.425   4.823  15.415  0.0786 -1.5902 -2.6700
12750TIP3    H259742   3.507   4.720  15.489  0.0571  0.7191  0.7861
12751TIP3   OH259743   5.484   3.609  17.017  0.3279  0.1926  0.1446
12751TIP3    H159744   5.547   3.560  16.965 -0.8409 -0.5957 -0.5717
12751TIP3    H259745   5.479   3.695  16.975  1.5033  0.5479  0.6960
12752TIP3   OH259746   2.468   0.843   1.769 -0.5205 -0.3012  0.0585
12752TIP3    H159747   2.384   0.797   1.767 -1.2498  0.8821  1.3582
12752TIP3    H259748   2.514   0.813   1.690 -0.3687 -4.1971  1.4224
12753TIP3   OH259749   1.339   1.043  12.283 -0.1304  0.2072  0.3815
12753TIP3    H159750   1.286   1.123  12.283  0.4507  0.7066 -2.6428
12753TIP3    H259751   1.422   1.069  12.243  0.8122 -1.5187  1.0956
12754TIP3   OH259752   2.575   1.399   4.798  0.7931  0.0534  0.1634
12754TIP3    H159753   2.593   1.365   4.710  1.8928  1.1718 -0.0818
12754TIP3    H259754   2.486   1.433   4.793  0.2396 -1.3783 -0.0154
12755TIP3   OH259755   2.169   2.319  17.162 -0.3745 -0.8827  0.3643
12755TIP3    H159756   2.239   2.360  17.213 -1.6050  0.4048  1.0891
12755TIP3    H259757   2.094   2.315  17.222 -0.8695 -2.4870 -0.3007
12756TIP3   OH259758   3.385   3.970  15.562 -0.0150  0.3316  0.8160
12756TIP3    H159759   3.366   4.064  15.568 -0.1957  0.3335  0.2909
12756TIP3    H259760   3.406   3.957  15.469  2.2747  0.2834  1.2923
12757TIP3   OH259761   3.930   3.274  14.151  0.4952  0.4463  0.3383
12757TIP3    H159762   3.853   3.244  14.104  0.5536 -3.6590  2.4377
12757TIP3    H259763   3.896   3.332  14.219 -0.9275 -1.5452  1.4372
12758TIP3   OH259764   6.326   3.567   4.718  0.4246 -0.9832 -0.2085
12758TIP3    H159765   6.373   3.646   4.690 -0.6385 -0.2923 -0.1412
12758TIP3    H259766   6.263   3.599   4.783 -1.2564 -1.5569 -1.4773
12759TIP3   OH259767   2.245   3.335  10.544 -0.2750  0.6104  0.2382
12759TIP3    H159768   2.202   3.250  10.538 -0.8698  0.8052  1.3936
12759TIP3    H259769   2.181   3.392  10.586  0.4030  1.4203  0.2120
12760TIP3   OH259770   2.835   3.008  11.042 -0.2997  0.1561 -0.7567
12760TIP3    H159771   2.864   3.054  10.963 -0.2654 -0.0269 -0.8520
12760TIP3    H259772   2.740   3.015  11.041 -0.2334  1.4971  0.0011
12761TIP3   OH259773   3.110   0.591   4.712  0.0220  0.2498 -1.1413
12761TIP3    H159774   3.111   0.582   4.807 -0.0357 -1.0814 -1.2570
12761TIP3    H259775   3.134   0.505   4.679 -0.6351  0.5083 -2.3487
12762TIP3   OH259776   0.209   2.104   3.687  0.1511  0.3527  0.2699
12762TIP3    H159777   0.296   2.069   3.709  0.1110  1.4174  2.2960
12762TIP3    H259778   0.151   2.069   3.755 -1.0015 -0.1559 -0.9236
12763TIP3   OH259779   5.853   2.023   3.000 -0.0857 -0.1254 -0.0829
12763TIP3    H159780   5.806   1.953   3.044 -1.1677  0.3090 -0.5068
12763TIP3    H259781   5.844   2.099   3.058  0.4296 -0.1357  0.0168
12764TIP3   OH259782   3.190   4.734   1.823 -0.3340 -0.6128 -0.0852
12764TIP3    H159783   3.231   4.807   1.870  2.1449 -0.6677 -1.9487
12764TIP3    H259784   3.107   4.769   1.791  0.8481  1.5173 -1.0442
12765TIP3   OH259785   1.781   4.531   3.277  0.0579  0.0149 -0.0871
12765TIP3    H159786   1.749   4.621   3.279 -0.5812 -0.1454  3.3418
12765TIP3    H259787   1.838   4.527   3.200 -0.1731  3.2208 -0.5475
12766TIP3   OH259788   2.307   6.425   2.938  0.1573  0.3042 -0.4130
12766TIP3    H159789   2.368   6.403   2.867 -0.2720  2.0638 -1.3920
12766TIP3    H259790   2.357   6.484   2.994 -0.1955  0.6995 -0.5027
12767TIP3   OH259791   1.767   2.954  13.339  0.0742  0.0002 -0.0160
12767TIP3    H159792   1.742   3.007  13.262 -0.1856  0.5717  0.4538
12767TIP3    H259793   1.695   2.892  13.349  0.7358 -0.9797 -1.0285
12768TIP3   OH259794   3.777   0.437  15.156 -0.1451  0.0707 -0.8458
12768TIP3    H159795   3.704   0.397  15.110 -0.4458 -1.4781  0.8780
12768TIP3    H259796   3.739   0.469  15.238  0.8244  0.5756 -0.5792
12769TIP3   OH259797   1.651   2.398   3.972 -0.4254  0.1632 -0.1384
12769TIP3    H159798   1.607   2.316   3.951  0.2206 -0.2642  0.1761
12769TIP3    H259799   1.725   2.403   3.912  0.6043 -0.3829  1.0327
12770TIP3   OH259800   3.236   6.742  12.660  0.1548  1.0179  0.4224
12770TIP3    H159801   3.294   6.770  12.731  0.1217  2.2973 -0.0338
12770TIP3    H259802   3.264   6.793  12.584 -0.5595  0.5094 -0.2076
12771TIP3   OH259803   2.928   0.859   4.207  0.0925 -0.5955 -0.0302
12771TIP3    H159804   2.885   0.853   4.292  2.6098 -1.2503  1.2717
12771TIP3    H259805   2.977   0.778   4.198 -0.3397 -0.6943 -2.3086
12772TIP3   OH259806   0.148   6.490   6.896  0.3432  0.0223  0.0984
12772TIP3    H159807   0.060   6.521   6.878 -0.0280  0.1383  1.8650
12772TIP3    H259808   0.156   6.408   6.847 -0.4818  0.3633 -0.6252
12773TIP3   OH259809   5.463   6.701  16.911  0.0920 -0.0153  1.1459
12773TIP3    H159810   5.369   6.687  16.908  0.1047 -0.4247  2.3001
12773TIP3    H259811   5.492   6.692  16.820 -0.9179 -0.3110  0.8491
12774TIP3   OH259812   4.621   4.922  13.515 -0.2327  0.0412 -0.8714
12774TIP3    H159813   4.598   4.857  13.582  2.3271 -0.4163 -0.3343
12774TIP3    H259814   4.567   4.898  13.439 -0.4229 -1.8120 -0.2124
12775TIP3   OH259815   2.987   3.943   5.470  0.0002  0.6839  0.1613
12775TIP3    H159816   2.892   3.954   5.477 -0.3103 -1.3927 -0.2807
12775TIP3    H259817   3.013   3.899   5.551  0.8519  2.4665  0.9224
12776TIP3   OH259818   5.738   6.225   6.016  0.3205  0.0640 -0.4332
12776TIP3    H159819   5.813   6.167   6.033  0.7745  0.9414  0.6932
12776TIP3    H259820   5.728   6.224   5.921  1.0287 -0.9770 -0.5130
12777TIP3   OH259821   1.539   6.670  12.587 -0.0243  0.0414  0.2133
12777TIP3    H159822   1.615   6.611  12.580 -0.7328 -0.7708 -0.8707
12777TIP3    H259823   1.519   6.694  12.497 -1.5410 -0.3832  0.4234
12778TIP3   OH259824   1.446   3.680   2.369 -0.5076 -0.1104  0.2255
12778TIP3    H159825   1.503   3.736   2.420  1.0611 -1.4838  0.0603
12778TIP3    H259826   1.494   3.662   2.288 -2.0081  0.2344 -0.8037
12779TIP3   OH259827   4.129   0.174  13.407  0.2250 -0.3091  0.3026
12779TIP3    H159828   4.220   0.203  13.419 -0.1294  0.5240  1.1151
12779TIP3    H259829   4.086   0.248  13.366 -0.4236 -0.1036  1.3081
12780TIP3   OH259830   0.891   5.817   0.750  0.0047  0.1897 -0.0412
12780TIP3    H159831   0.852   5.853   0.670  1.0327 -0.8204 -1.0440
12780TIP3    H259832   0.972   5.868   0.762  1.1392 -1.2768 -1.1099
12781TIP3   OH259833   4.257   0.034  11.797  0.1380 -0.0056  0.4532
12781TIP3    H159834   4.293   0.061  11.712  2.5631 -1.6877  0.8455
12781TIP3    H259835   4.164   0.019  11.779 -0.2717  3.2267 -0.9633
12782TIP3   OH259836   3.265   5.589  14.676 -0.1487 -0.6773 -0.5570
12782TIP3    H159837   3.317   5.669  14.685 -0.8640 -0.0652 -1.6427
12782TIP3    H259838   3.193   5.600  14.738 -2.0807  1.0698 -2.9451
12783TIP3   OH259839   1.591   1.217  15.323  0.1328  0.4116  0.4741
12783TIP3    H159840   1.662   1.154  15.307 -1.0422 -1.1255  1.1406
12783TIP3    H259841   1.575   1.257  15.237 -0.5712 -1.8120 -0.4877
12784TIP3   OH259842   1.898   3.841  15.026  0.2724  0.4948 -0.2637
12784TIP3    H159843   1.904   3.919  15.080  0.0905  0.9677 -0.9087
12784TIP3    H259844   1.838   3.865  14.955  0.4465 -0.1278 -0.6327
12785TIP3   OH259845   0.310   4.025   2.973  0.0855  0.2989  0.1532
12785TIP3    H159846   0.263   4.007   3.055  1.4913  0.0618  0.9409
12785TIP3    H259847   0.298   3.947   2.920 -1.6617  0.8368 -0.3063
12786TIP3   OH259848   4.691   6.594  13.326 -0.0575  0.0708 -0.0062
12786TIP3    H159849   4.701   6.661  13.394  1.9229  1.3329 -1.4443
12786TIP3    H259850   4.779   6.561  13.311 -0.6860 -1.3329 -0.8799
12787TIP3   OH259851   3.946   4.603  13.823  0.0674 -0.3719  0.0980
12787TIP3    H159852   3.909   4.667  13.884  3.1859  1.6031  0.1679
12787TIP3    H259853   3.872   4.550  13.795 -2.5883  2.6726  0.7706
12788TIP3   OH259854   4.449   5.538   4.614  0.1782  0.2858 -0.5070
12788TIP3    H159855   4.359   5.560   4.589 -0.8544 -1.7776  1.0273
12788TIP3    H259856   4.468   5.597   4.687  0.1047  0.7627 -0.8657
12789TIP3   OH259857   5.066   6.107   5.780 -0.2562  0.5142  0.0793
12789TIP3    H159858   5.007   6.159   5.726 -0.9660  0.0865  0.4151
12789TIP3    H259859   5.138   6.166   5.801 -0.8380  1.2295  0.1170
12790TIP3   OH259860   0.063   5.851   4.331  0.5161 -0.2887  0.1860
12790TIP3    H159861   0.052   5.758   4.347 -0.6909 -0.3847 -0.9819
12790TIP3    H259862   0.124   5.857   4.258  2.1727 -0.0490  1.5276
12791TIP3   OH259863   3.715   2.193  15.186  0.3099  0.5302  0.0386
12791TIP3    H159864   3.750   2.228  15.268 -1.2886  0.8250  0.6231
12791TIP3    H259865   3.779   2.220  15.120  1.7006  0.1679  1.1796
12792TIP3   OH259866   3.900   1.103  14.957  0.1404 -0.4964  0.1083
12792TIP3    H159867   3.931   1.033  15.014 -0.0359  0.5809  1.5834
12792TIP3    H259868   3.905   1.182  15.011  1.1489  0.8029 -1.7633
12793TIP3   OH259869   2.266   1.421   5.934  0.7578 -0.2127 -0.5170
12793TIP3    H159870   2.171   1.427   5.942  1.0056  1.3191  4.1124
12793TIP3    H259871   2.292   1.507   5.901  0.6277 -0.3102 -0.8847
12794TIP3   OH259872   6.579   5.506   0.735  0.3578 -0.4536 -0.0239
12794TIP3    H159873   6.563   5.412   0.744  2.3614 -0.7761  0.9147
12794TIP3    H259874   6.550   5.543   0.819 -0.7401 -0.1610 -0.5195
12795TIP3   OH259875   5.922   1.982  16.395  0.5578  0.5643  0.4477
12795TIP3    H159876   5.843   2.021  16.431  0.6249 -0.1614  1.4206
12795TIP3    H259877   5.963   1.937  16.469  1.8643  0.8917 -0.0398
12796TIP3   OH259878   1.186   6.069  13.597  0.2858 -0.5424 -0.9428
12796TIP3    H159879   1.216   6.152  13.634  2.0977 -0.4654 -2.4301
12796TIP3    H259880   1.211   6.073  13.505  1.5289 -3.1806 -0.8190
12797TIP3   OH259881   4.970   4.527   3.402 -0.1573 -0.8042 -0.0774
12797TIP3    H159882   4.944   4.617   3.381  1.1524 -0.4505 -0.2536
12797TIP3    H259883   4.930   4.474   3.333  0.0351 -0.2161 -0.6520
12798TIP3   OH259884   1.780   2.802  13.894  0.3244 -0.2811 -0.2521
12798TIP3    H159885   1.690   2.780  13.920  0.3178 -0.1413 -0.1529
12798TIP3    H259886   1.770   2.853  13.813  0.2981 -0.0295 -0.0914
12799TIP3   OH259887   3.109   1.222   4.986 -0.2723  0.7955 -0.1768
12799TIP3    H159888   3.202   1.240   5.003 -0.1794  0.7561 -0.6259
12799TIP3    H259889   3.107   1.132   4.953 -0.3076  1.2439 -1.4494
12800TIP3   OH259890   0.822   4.253  16.760  0.5462  0.2206  0.2210
12800TIP3    H159891   0.750   4.208  16.803  1.0383 -1.3370 -0.5068
12800TIP3    H259892   0.837   4.331  16.814 -0.7872 -0.1077  1.1296
12801TIP3   OH259893   5.726   1.776   3.718  0.3287  0.3290 -0.1909
12801TIP3    H159894   5.772   1.710   3.768  0.3034  0.5044  0.0655
12801TIP3    H259895   5.772   1.858   3.738 -0.6509  0.6579  0.7918
12802TIP3   OH259896   6.635   0.422  13.030  0.6909  0.2756  0.7023
12802TIP3    H159897   6.722   0.446  12.999  1.0453  0.5955  1.8886
12802TIP3    H259898   6.598   0.368  12.960  2.2694 -0.8264  0.6698
12803TIP3   OH259899   0.558   5.009  11.138  0.2114 -0.3643 -0.2960
12803TIP3    H159900   0.473   5.053  11.135  1.1363  1.6733  1.0675
12803TIP3    H259901   0.548   4.940  11.203  0.2504  1.6021  1.9412
12804TIP3   OH259902   4.692   3.834  11.238 -0.2058  0.0595  0.4428
12804TIP3    H159903   4.617   3.882  11.273 -0.8791 -0.5934 -0.0796
12804TIP3    H259904   4.667   3.811  11.148  0.8302  0.2852  0.0782
12805TIP3   OH259905   2.707   5.809  11.922 -0.2597 -0.0383  0.3585
12805TIP3    H159906   2.658   5.792  11.841 -1.9632  1.5200  0.9842
12805TIP3    H259907   2.756   5.889  11.904  0.4538 -0.4516  0.4322
12806TIP3   OH259908   4.596   6.261  15.779  0.2781 -0.4108 -0.6627
12806TIP3    H159909   4.689   6.250  15.765  0.3446 -0.3759 -0.2529
12806TIP3    H259910   4.558   6.260  15.691  0.5759 -1.1637 -0.7861
12807TIP3   OH259911   0.533   6.518  15.212  0.1739 -0.7211  0.0439
12807TIP3    H159912   0.448   6.487  15.244  0.7026 -2.3832 -0.0866
12807TIP3    H259913   0.597   6.463  15.256  1.1748  0.1556 -0.2679
12808TIP3   OH259914   3.834   6.185  10.325 -0.5754 -0.6309 -0.2426
12808TIP3    H159915   3.754   6.206  10.373  0.1625 -0.0387  0.7790
12808TIP3    H259916   3.875   6.270  10.310  0.5465 -1.0123  0.5022
12809TIP3   OH259917   3.424   6.724  15.353  0.4459 -0.2193 -0.2446
12809TIP3    H159918   3.380   6.733  15.268 -0.2315  1.3445  0.2338
12809TIP3    H259919   3.361   6.757  15.417  1.2102 -0.7118  0.8049
12810TIP3   OH259920   3.049   2.599   2.346 -0.2674 -0.1427 -0.1660
12810TIP3    H159921   3.082   2.549   2.421 -0.4938 -2.3859 -1.4849
12810TIP3    H259922   3.053   2.538   2.273  0.3256  2.0966 -2.1136
12811TIP3   OH259923   4.387   6.682  11.943 -0.0841  0.4870  0.1196
12811TIP3    H159924   4.297   6.650  11.953 -0.2846  1.5756  2.5752
12811TIP3    H259925   4.378   6.775  11.921  0.4136  0.5968  0.3463
12812TIP3   OH259926   0.041   6.024   3.980 -0.1495  0.3925  0.0475
12812TIP3    H159927   0.096   5.956   4.018 -0.1479  1.0332  1.2294
12812TIP3    H259928  -0.047   5.987   3.981 -0.2443  0.6236  1.2507
12813TIP3   OH259929   5.116   4.712   1.950  0.0832 -0.3416 -1.1435
12813TIP3    H159930   5.087   4.712   2.041  0.3809  0.4135 -1.0351
12813TIP3    H259931   5.128   4.620   1.928 -0.1054 -0.5370 -0.4565
12814TIP3   OH259932   0.052   1.597   1.458  0.0115  0.6740  0.0665
12814TIP3    H159933   0.105   1.520   1.436  0.7612  1.2052 -0.0211
12814TIP3    H259934   0.075   1.662   1.391  0.6814  1.5667  1.1311
12815TIP3   OH259935   1.435   2.923   0.735  0.4806 -0.1447  0.1607
12815TIP3    H159936   1.508   2.867   0.763 -0.2352 -1.1456  0.1135
12815TIP3    H259937   1.471   3.011   0.733  2.1976 -0.8057 -1.6056
12816TIP3   OH259938   2.140   4.728  16.815  0.2711 -0.6587 -0.0353
12816TIP3    H159939   2.211   4.734  16.750  1.2458 -2.7019  0.7632
12816TIP3    H259940   2.185   4.714  16.898 -1.0527 -2.1991  0.4675
12817TIP3   OH259941   1.589   6.131   0.833  0.2692  0.3852 -0.0641
12817TIP3    H159942   1.644   6.125   0.911  0.8497  1.1852 -0.4010
12817TIP3    H259943   1.628   6.070   0.771 -0.5042 -0.6504  0.4352
12818TIP3   OH259944   4.660   2.801  16.624  0.3545 -0.1596  0.4032
12818TIP3    H159945   4.652   2.713  16.586 -1.2565 -1.0073  2.4945
12818TIP3    H259946   4.723   2.790  16.696  2.1265  1.0374 -0.8985
12819TIP3   OH259947   0.869   0.411  16.942 -0.2545 -0.0918  0.1159
12819TIP3    H159948   0.900   0.494  16.907 -0.8617 -0.0991 -0.4455
12819TIP3    H259949   0.779   0.428  16.971 -0.3786 -0.5515  0.0090
12820TIP3   OH259950   4.442   1.571  16.480 -0.4225 -0.3797  0.2353
12820TIP3    H159951   4.481   1.560  16.393 -0.2718 -1.2377  0.3990
12820TIP3    H259952   4.438   1.482  16.515 -4.0456 -0.6154 -0.4050
12821TIP3   OH259953   3.289   5.290   1.235 -0.3956  0.0312 -0.3522
12821TIP3    H159954   3.383   5.281   1.215 -0.2480 -2.4231  0.9177
12821TIP3    H259955   3.248   5.217   1.189 -1.7667  1.2191 -1.0874
12822TIP3   OH259956   5.041   5.463  13.035 -0.0053  0.0622  0.1397
12822TIP3    H159957   5.113   5.413  13.074 -1.1513 -0.9717  0.9727
12822TIP3    H259958   5.056   5.456  12.941  1.8405  1.1764  0.3004
12823TIP3   OH259959   2.419   3.757   0.312 -0.3301 -0.6101 -0.2191
12823TIP3    H159960   2.371   3.815   0.252 -0.9968 -0.2972  0.5998
12823TIP3    H259961   2.361   3.682   0.323 -0.2601 -0.6105  0.1332
12824TIP3   OH259962   1.141   5.003   1.253  0.4445 -0.4627  0.2218
12824TIP3    H159963   1.114   4.937   1.190 -1.0045 -0.6844  1.0272
12824TIP3    H259964   1.222   5.040   1.217  0.6016 -1.7961 -0.8517
12825TIP3   OH259965   4.686   6.645   4.778 -0.0171 -0.0240 -0.0747
12825TIP3    H159966   4.611   6.608   4.731 -0.2308 -1.8990  1.5881
12825TIP3    H259967   4.715   6.574   4.835  0.9986  1.7133  1.6943
12826TIP3   OH259968   3.694   3.817   3.730  0.1464  0.5359 -0.7617
12826TIP3    H159969   3.610   3.861   3.744  0.2550  0.2065  1.2245
12826TIP3    H259970   3.719   3.785   3.817  2.8441  1.5604 -1.0554
12827TIP3   OH259971   4.218   4.527  12.282  0.0720  0.1302  0.8175
12827TIP3    H159972   4.222   4.445  12.330 -0.1403 -0.8297 -0.7235
12827TIP3    H259973   4.189   4.502  12.194 -3.1114  2.1852  1.1056
12828TIP3   OH259974   0.127   4.670  13.516 -0.8956 -0.2703  0.7631
12828TIP3    H159975   0.161   4.756  13.491 -0.9657 -0.2928  0.5879
12828TIP3    H259976   0.128   4.671  13.612  0.7413 -0.7177  0.7793
12829TIP3   OH259977   5.015   3.065  14.139  0.3862 -0.4916 -0.3375
12829TIP3    H159978   4.996   3.109  14.057  0.8362  0.5887  0.1208
12829TIP3    H259979   5.076   2.995  14.116  1.6909  0.7336 -0.7237
12830TIP3   OH259980   3.029   6.043   5.273  0.5067  0.6014  0.1525
12830TIP3    H159981   2.986   6.093   5.204  0.7654 -0.7734 -1.0563
12830TIP3    H259982   2.967   5.975   5.296  0.0523  1.5593  1.9727
12831TIP3   OH259983   1.188   0.893  13.967  0.3410  0.2287 -0.5619
12831TIP3    H159984   1.183   0.835  14.043 -1.6241 -1.6855 -1.9910
12831TIP3    H259985   1.240   0.968  13.996  1.1972 -1.2618  2.0572
12832TIP3   OH259986   0.307   2.199  14.249  0.1472 -0.7182 -0.3857
12832TIP3    H159987   0.385   2.145  14.237  0.1168 -1.3985  1.9318
12832TIP3    H259988   0.235   2.143  14.221  0.2798 -1.1849  0.1805
12833TIP3   OH259989   3.074   2.437   3.631  0.2825  0.2209 -0.1221
12833TIP3    H159990   3.157   2.390   3.636  0.5395  0.7519  1.3588
12833TIP3    H259991   3.014   2.385   3.683  0.5098  1.3367  1.3433
12834TIP3   OH259992   1.221   6.054  12.650 -0.3674 -0.2598 -0.2467
12834TIP3    H159993   1.274   6.028  12.725  0.5984 -0.5513 -0.9976
12834TIP3    H259994   1.242   5.989  12.583  0.4715  1.2062 -1.4719
12835TIP3   OH259995   5.878   5.697  12.249  0.1526 -0.1314 -0.4210
12835TIP3    H159996   5.856   5.666  12.337  0.2143 -1.5784 -0.8894
12835TIP3    H259997   5.794   5.717  12.208  0.0302 -0.7824 -0.4941
12836TIP3   OH259998   0.825   6.807   5.793 -0.3589  0.3782 -0.1731
12836TIP3    H159999   0.870   6.836   5.713 -0.2843  1.9218  0.3993
12836TIP3    H260000   0.764   6.878   5.813 -2.0319 -1.0053 -0.0925
12837TIP3   OH260001   5.264   1.387  10.605  0.2169  0.7144 -0.6651
12837TIP3    H160002   5.272   1.374  10.700 -0.4544  0.2039 -0.6724
12837TIP3    H260003   5.348   1.427  10.579 -0.3554  2.7851  0.4458
12838TIP3   OH260004   2.412   2.174   0.985  0.1364 -0.5870 -0.3331
12838TIP3    H160005   2.415   2.078   0.992 -0.7856 -0.7063 -1.3716
12838TIP3    H260006   2.457   2.205   1.064 -2.0716 -1.8472  1.5520
12839TIP3   OH260007   5.187   3.008  17.180 -0.1223 -0.3083 -0.1555
12839TIP3    H160008   5.212   2.961  17.260 -0.0465  0.5627  0.3521
12839TIP3    H260009   5.092   3.015  17.185  0.0337  1.7928  1.0936
12840TIP3   OH260010   2.461   2.730  14.692  0.2382 -0.1145  0.4037
12840TIP3    H160011   2.475   2.758  14.782  0.5549 -3.0862  1.3816
12840TIP3    H260012   2.372   2.694  14.691 -0.5527  1.7299 -1.0414
12841TIP3   OH260013   6.554   1.392  11.518  0.7182 -0.0109  0.3259
12841TIP3    H160014   6.593   1.422  11.437  0.8983 -2.3611 -0.5382
12841TIP3    H260015   6.611   1.320  11.547 -0.3237 -0.3835  1.5598
12842TIP3   OH260016   2.920   3.977  15.624  0.2088  0.2131  0.2870
12842TIP3    H160017   2.967   4.049  15.667  2.3538 -1.6377  1.2318
12842TIP3    H260018   2.887   3.924  15.696  2.1957 -1.8957 -0.2173
12843TIP3   OH260019   0.444   4.413   4.334  0.1112 -0.3633  0.2091
12843TIP3    H160020   0.418   4.380   4.420 -1.7926 -0.2890 -0.2857
12843TIP3    H260021   0.469   4.336   4.284  0.9132 -0.4397  0.7123
12844TIP3   OH260022   2.312   3.090   3.212 -0.0955  1.0083  0.0091
12844TIP3    H160023   2.217   3.081   3.218 -0.1105  1.3798  0.3944
12844TIP3    H260024   2.346   3.034   3.282  0.0113  0.1624 -0.7068
12845TIP3   OH260025   5.875   6.323   3.453  0.8495 -0.8395  0.0601
12845TIP3    H160026   5.944   6.363   3.400  2.0050 -0.3921  1.8081
12845TIP3    H260027   5.877   6.230   3.429  1.3123 -0.6343 -0.7130
12846TIP3   OH260028   0.202   3.516   3.077  0.8552  0.2781 -0.5793
12846TIP3    H160029   0.272   3.456   3.051 -0.6112 -1.2004 -1.2989
12846TIP3    H260030   0.135   3.459   3.116 -0.7200  1.3736 -1.5796
12847TIP3   OH260031   1.977   2.788  15.109  0.1551  0.3229  0.0465
12847TIP3    H160032   1.945   2.717  15.053 -1.0803 -0.8164  2.0795
12847TIP3    H260033   2.071   2.790  15.094 -0.0918 -0.1461 -1.7835
12848TIP3   OH260034   2.446   4.023   4.963 -0.3616 -0.1889 -0.1355
12848TIP3    H160035   2.388   4.090   4.925  0.0233  0.1031 -0.2184
12848TIP3    H260036   2.394   3.983   5.032 -1.2891 -1.1261 -1.3347
12849TIP3   OH260037   5.259   6.736  12.675 -0.0922 -0.0714 -0.6071
12849TIP3    H160038   5.183   6.777  12.633 -0.0958 -0.4474 -0.9723
12849TIP3    H260039   5.280   6.662  12.618 -0.6937 -1.1827  0.5655
12850TIP3   OH260040   2.482   6.617   1.367 -0.6702 -0.2304 -0.3820
12850TIP3    H160041   2.408   6.582   1.417 -0.5954  0.4642  0.2170
12850TIP3    H260042   2.446   6.630   1.279 -0.7729 -1.5458 -0.5622
12851TIP3   OH260043   6.149   4.516   4.580 -0.2374 -0.0831 -0.0881
12851TIP3    H160044   6.150   4.421   4.575 -0.1052 -0.0362 -1.8515
12851TIP3    H260045   6.069   4.538   4.628 -2.0638 -1.0591 -2.4919
12852TIP3   OH260046   0.786   2.380   5.619 -0.2902  0.1395  0.2409
12852TIP3    H160047   0.778   2.299   5.568 -1.2537  0.6806 -0.5063
12852TIP3    H260048   0.850   2.359   5.686 -1.5662 -1.7211  0.9755
12853TIP3   OH260049   2.515   1.327   2.535  0.1004 -0.1410 -0.8244
12853TIP3    H160050   2.477   1.242   2.555  1.1718 -0.4687 -0.1233
12853TIP3    H260051   2.608   1.318   2.556  0.0460  1.5326  0.3484
12854TIP3   OH260052   0.891   0.519   3.375 -0.5131 -0.3940  0.1218
12854TIP3    H160053   0.972   0.490   3.418 -1.3864 -1.2082  1.2967
12854TIP3    H260054   0.921   0.567   3.298  1.0747 -1.2797  0.1322
12855TIP3   OH260055   2.351   6.798   2.259 -0.5369 -0.0359 -0.4462
12855TIP3    H160056   2.370   6.717   2.306 -0.8427  0.6199  0.8413
12855TIP3    H260057   2.264   6.784   2.222 -0.2395 -0.6068 -0.9527
12856TIP3   OH260058   4.284   5.965   1.775  0.8672 -0.0992  0.3385
12856TIP3    H160059   4.325   6.005   1.697  0.5593 -0.6510 -0.1152
12856TIP3    H260060   4.340   5.890   1.795  1.3959  0.4909  1.1376
12857TIP3   OH260061   5.179   4.115   1.247 -0.8109  0.3986 -0.0010
12857TIP3    H160062   5.265   4.114   1.205  0.2513 -1.8748  1.9673
12857TIP3    H260063   5.192   4.166   1.327 -1.5401  0.8163 -0.1489
12858TIP3   OH260064   5.592   5.789  13.712 -0.4604 -0.7248 -0.2576
12858TIP3    H160065   5.555   5.876  13.702  0.8172 -0.3506 -2.4300
12858TIP3    H260066   5.556   5.756  13.795 -1.2896  1.6700  0.4008
12859TIP3   OH260067   0.633   4.457  13.816 -0.4887 -0.0474  0.0450
12859TIP3    H160068   0.562   4.519  13.836  1.0137  2.2778 -1.3445
12859TIP3    H260069   0.609   4.419  13.732  0.5516  1.9245 -1.2167
12860TIP3   OH260070   1.194   1.633  10.930 -0.1714  0.4599 -0.5524
12860TIP3    H160071   1.268   1.687  10.959 -0.7157  0.1781  1.5514
12860TIP3    H260072   1.198   1.556  10.986 -0.4777 -0.8584 -2.2826
12861TIP3   OH260073   0.858   1.136   5.191  0.2173 -0.0493 -0.6136
12861TIP3    H160074   0.807   1.179   5.260 -0.9012  1.8998 -2.5408
12861TIP3    H260075   0.918   1.078   5.238  1.3305  3.0615  2.1694
12862TIP3   OH260076   0.816   1.438   0.653 -0.0639 -0.0354 -0.2922
12862TIP3    H160077   0.815   1.487   0.735  0.5817 -0.6948  0.1246
12862TIP3    H260078   0.803   1.347   0.679 -4.0085  0.1033 -1.2634
12863TIP3   OH260079   0.209   4.163  12.238 -0.8431 -0.5109 -0.1655
12863TIP3    H160080   0.114   4.156  12.251 -0.5992 -1.1346  1.4267
12863TIP3    H260081   0.233   4.080  12.197 -0.9395 -0.4523 -0.3442
12864TIP3   OH260082   6.267   4.083   2.544 -0.4147  0.5202 -0.3930
12864TIP3    H160083   6.237   4.115   2.459  1.2538  1.5938 -0.6147
12864TIP3    H260084   6.199   4.021   2.571 -1.0296  0.2126 -2.4561
12865TIP3   OH260085   6.802   6.331  11.807  0.3792  0.7399  0.6222
12865TIP3    H160086   6.833   6.357  11.894 -0.5745  2.5571  0.4638
12865TIP3    H260087   6.735   6.396  11.785  1.0265  0.6880 -1.7253
12866TIP3   OH260088   3.942   5.037   3.335  0.1458  0.2592 -0.4561
12866TIP3    H160089   3.865   5.021   3.389  0.1497  0.0654 -0.5075
12866TIP3    H260090   4.006   5.076   3.395  0.3974 -0.6016 -0.1557
12867TIP3   OH260091   4.898   5.157  17.088  0.4902 -0.3350 -0.2685
12867TIP3    H160092   4.980   5.185  17.047  0.3591  0.0286 -0.2842
12867TIP3    H260093   4.829   5.185  17.028  0.0695  2.8572  1.4999
12868TIP3   OH260094   0.330   0.410   0.663  0.1205  0.0716  0.1450
12868TIP3    H160095   0.410   0.450   0.696  0.6962  1.0484 -2.2368
12868TIP3    H260096   0.282   0.481   0.622 -0.6895 -0.9830 -0.8017
12869TIP3   OH260097   5.786   1.712  12.296 -0.4534  0.4768 -0.4232
12869TIP3    H160098   5.803   1.799  12.332 -0.3990 -0.0630  0.9056
12869TIP3    H260099   5.832   1.712  12.212  0.4322  1.3799  0.0384
12870TIP3   OH260100   4.584   2.600  14.880 -0.2262 -0.0753  0.3181
12870TIP3    H160101   4.623   2.572  14.963  1.2628  0.1753 -0.2723
12870TIP3    H260102   4.490   2.589  14.894  0.0617 -1.3285  1.5592
12871TIP3   OH260103   1.044   3.418   2.488  0.0247 -0.2270  0.0367
12871TIP3    H160104   0.974   3.480   2.510  0.1181  0.1407 -0.6747
12871TIP3    H260105   1.124   3.469   2.496  0.2076 -0.6020  0.6765
12872TIP3   OH260106   4.858   0.601  13.379 -0.1320  0.1852 -0.0541
12872TIP3    H160107   4.859   0.506  13.384  0.2831  0.0870 -1.5819
12872TIP3    H260108   4.884   0.621  13.289 -2.7517  1.6877 -0.5814
12873TIP3   OH260109   2.146   0.456  17.177  0.1599  0.1288  0.0982
12873TIP3    H160110   2.129   0.488  17.265  0.5610 -0.4506  0.3905
12873TIP3    H260111   2.228   0.407  17.184  0.1214 -0.0475 -0.5639
12874TIP3   OH260112   4.012   6.461  13.810  0.4362  0.6930 -0.1724
12874TIP3    H160113   4.020   6.424  13.898  0.5526  1.4852  0.1574
12874TIP3    H260114   4.075   6.411  13.758  0.3550  0.2076  0.1875
12875TIP3   OH260115   0.396   5.303   4.074  0.1669  0.3328 -0.3406
12875TIP3    H160116   0.369   5.390   4.045  0.4631 -0.2294 -2.4647
12875TIP3    H260117   0.399   5.310   4.170 -0.4921  2.4367 -0.4125
12876TIP3   OH260118   1.942   0.481  12.073 -0.0308  0.6654 -0.0135
12876TIP3    H160119   1.865   0.519  12.115  0.2799 -1.0900  2.3110
12876TIP3    H260120   2.015   0.536  12.101 -0.2768  2.0828 -1.8919
12877TIP3   OH260121   0.876   6.234   0.606 -0.1943 -0.5991 -0.3015
12877TIP3    H160122   0.920   6.267   0.684  0.5654  1.8577 -1.6792
12877TIP3    H260123   0.933   6.164   0.574  1.8447  1.2665 -0.9950
12878TIP3   OH260124   4.183   0.533   3.046 -0.1674 -0.2442  0.1188
12878TIP3    H160125   4.124   0.520   2.972  0.7591 -0.4290 -0.5992
12878TIP3    H260126   4.129   0.577   3.112 -1.6941 -2.2362  0.2876
12879TIP3   OH260127   2.300   6.694  14.692  0.3765 -0.4085 -0.2294
12879TIP3    H160128   2.280   6.623  14.631  0.1615 -0.2812 -0.3081
12879TIP3    H260129   2.374   6.740  14.651 -0.2547  0.1354 -0.7753
12880TIP3   OH260130   6.657   6.512   4.814  0.1509 -0.2637  0.2293
12880TIP3    H160131   6.578   6.558   4.842  1.1238  1.3068  0.5683
12880TIP3    H260132   6.626   6.431   4.774 -1.8435  1.5956 -2.3612
12881TIP3   OH260133   4.169   3.700   5.572  0.8887 -0.0126 -0.6461
12881TIP3    H160134   4.150   3.612   5.540  0.6554 -0.3758  0.4541
12881TIP3    H260135   4.193   3.749   5.494 -1.3799 -0.4003 -1.6644
12882TIP3   OH260136   3.605   0.955   5.969  0.0620  0.0064 -0.4098
12882TIP3    H160137   3.540   0.909   6.023  1.2139 -0.5377  0.5398
12882TIP3    H260138   3.667   0.992   6.031  0.6195  0.6045 -1.2981
12883TIP3   OH260139   6.625   4.685  13.107 -0.4238 -0.0177 -0.0937
12883TIP3    H160140   6.700   4.676  13.166  0.3295 -0.4800 -1.0899
12883TIP3    H260141   6.655   4.744  13.038 -0.7905 -0.6143 -0.7817
12884TIP3   OH260142   2.622   2.433   1.992  0.4484  0.6836 -0.0476
12884TIP3    H160143   2.695   2.491   1.972  0.1595  1.2179  0.4161
12884TIP3    H260144   2.661   2.346   1.997  0.8157  0.7735 -1.1605
12885TIP3   OH260145   6.334   0.180  12.412  0.5040  0.5568 -0.0747
12885TIP3    H160146   6.412   0.127  12.430  1.4251  1.0140 -2.4410
12885TIP3    H260147   6.286   0.179  12.495  1.3602 -2.4761  0.5224
12886TIP3   OH260148   1.729   4.979  15.038  0.4603  0.4229  0.8171
12886TIP3    H160149   1.749   5.014  15.125 -3.0482  4.2305  0.4094
12886TIP3    H260150   1.771   5.039  14.978  0.5000 -0.5275 -0.1343
12887TIP3   OH260151   5.711   4.388   4.222 -0.6966  0.2618  0.6217
12887TIP3    H160152   5.646   4.335   4.268 -0.6208  0.1003  0.5443
12887TIP3    H260153   5.783   4.398   4.284  0.6517 -2.2860 -0.3559
12888TIP3   OH260154   4.666   0.232   0.673 -0.0996  0.0397 -0.2130
12888TIP3    H160155   4.715   0.290   0.614 -1.0986  1.4025  0.2510
12888TIP3    H260156   4.632   0.290   0.741 -1.1651 -1.0924  0.2627
12889TIP3   OH260157   4.477   5.203   3.128 -0.1015  0.5257  0.0507
12889TIP3    H160158   4.386   5.230   3.137 -0.2573  0.1607 -0.4232
12889TIP3    H260159   4.478   5.143   3.053  0.4170  0.0366  0.4339
12890TIP3   OH260160   0.131   6.530   2.520  0.5864 -0.4019  0.1278
12890TIP3    H160161   0.041   6.517   2.488  0.5606  0.2098 -0.0490
12890TIP3    H260162   0.184   6.525   2.441  0.6965 -0.6242  0.2157
12891TIP3   OH260163   5.968   6.713   3.018 -0.5080 -0.3465  0.0231
12891TIP3    H160164   5.889   6.740   2.970 -0.4526  1.2484  0.7537
12891TIP3    H260165   5.946   6.627   3.053 -1.8398 -0.0577 -0.0211
12892TIP3   OH260166   0.693   1.217   5.952  0.0460 -0.5504  0.8926
12892TIP3    H160167   0.705   1.204   6.047 -0.7249  1.1651  1.2634
12892TIP3    H260168   0.611   1.266   5.945  1.4528  1.7889 -0.4244
12893TIP3   OH260169   3.884   6.125  11.417  0.3497  0.1169  0.6937
12893TIP3    H160170   3.938   6.201  11.440 -0.1524  0.4008  0.9497
12893TIP3    H260171   3.925   6.052  11.463  1.2265  0.1001 -0.0803
12894TIP3   OH260172   6.828   4.874   4.388  0.3712  0.5644 -0.4185
12894TIP3    H160173   6.747   4.825   4.369  1.6463 -1.4505 -0.9839
12894TIP3    H260174   6.863   4.895   4.301 -1.1454  4.4685 -0.2810
12895TIP3   OH260175   2.647   5.771  10.635  0.1495  0.3381 -0.2364
12895TIP3    H160176   2.596   5.822  10.573  1.7453  1.3101 -0.8312
12895TIP3    H260177   2.659   5.686  10.593 -1.7409 -0.2466  0.3449
12896TIP3   OH260178   6.498   6.596  16.728 -0.8167 -0.2702  0.4354
12896TIP3    H160179   6.517   6.635  16.813 -2.4943  0.3366  0.5734
12896TIP3    H260180   6.579   6.553  16.702  0.5134  1.6552  1.1887
12897TIP3   OH260181   4.007   3.007  16.496 -0.1463 -0.2073  0.1344
12897TIP3    H160182   4.036   2.932  16.548  1.0291  0.1302  0.0062
12897TIP3    H260183   4.015   2.978  16.405 -1.1225 -0.4165  0.1065
12898TIP3   OH260184   6.612   0.775  14.542 -0.3180 -0.5154  0.1322
12898TIP3    H160185   6.672   0.730  14.602 -1.4076 -1.7338  0.3635
12898TIP3    H260186   6.654   0.858  14.523 -0.1052  0.0938  2.8825
12899TIP3   OH260187   1.301   4.747   4.142  0.0962 -0.0675  0.1371
12899TIP3    H160188   1.349   4.779   4.219  0.2283 -0.7860  0.3633
12899TIP3    H260189   1.365   4.751   4.071 -0.2603  1.3736 -0.1402
12900TIP3   OH260190   5.501   4.035  13.752 -0.0750  0.3652  0.1416
12900TIP3    H160191   5.427   4.062  13.698  0.4819  1.1397 -0.2658
12900TIP3    H260192   5.526   3.949  13.718 -0.8492  0.0440  0.3655
12901TIP3   OH260193   6.589   4.397   4.946 -0.0060 -0.5802 -0.1540
12901TIP3    H160194   6.612   4.390   4.853 -0.8214  0.9480 -0.4943
12901TIP3    H260195   6.640   4.471   4.978 -0.4978 -0.4654  0.3643
12902TIP3   OH260196   2.807   1.695  12.272  0.0983 -0.1045 -0.1693
12902TIP3    H160197   2.736   1.631  12.273  1.3436 -1.5426  0.8457
12902TIP3    H260198   2.847   1.686  12.185 -1.3275  1.2062 -1.0103
12903TIP3   OH260199   3.559   5.656  11.696  0.0040  0.0609  0.4568
12903TIP3    H160200   3.595   5.616  11.775  0.4801 -0.6775 -0.1244
12903TIP3    H260201   3.556   5.750  11.716  2.6337  0.2405  0.4137
12904TIP3   OH260202   4.911   6.637  13.125  0.5401 -0.3770  0.0135
12904TIP3    H160203   4.953   6.678  13.201  0.3816 -1.5395  0.7569
12904TIP3    H260204   4.958   6.554  13.113  0.1563 -0.4934 -0.7707
12905TIP3   OH260205   2.613   3.314  15.576  0.2340  0.2604  0.0095
12905TIP3    H160206   2.577   3.263  15.648 -0.5788  0.1233 -0.4743
12905TIP3    H260207   2.611   3.254  15.501 -0.6781  0.9516 -0.5532
12906TIP3   OH260208   0.963   1.796  13.675 -0.0320 -0.2519 -0.1804
12906TIP3    H160209   0.990   1.726  13.616  1.1404  0.0288  0.0032
12906TIP3    H260210   0.877   1.822  13.643  0.0355 -0.9618 -0.9808
12907TIP3   OH260211   0.435   4.523   5.895  0.3725  0.5818  0.2928
12907TIP3    H160212   0.481   4.532   5.978  1.4288 -0.0066 -0.2143
12907TIP3    H260213   0.342   4.523   5.919  0.6770 -0.6492  1.5921
12908TIP3   OH260214   1.398   1.468  11.218 -0.0264 -0.1001 -0.3156
12908TIP3    H160215   1.384   1.544  11.274 -2.8351 -0.8768  0.1796
12908TIP3    H260216   1.320   1.464  11.163  2.5041  0.5294 -4.3386
12909TIP3   OH260217   3.452   1.073  10.340 -0.1374 -0.3447  0.2404
12909TIP3    H160218   3.439   1.060  10.434  3.4387  0.9976  1.1060
12909TIP3    H260219   3.374   1.120  10.310 -0.4045  1.1924  3.0603
12910TIP3   OH260220   1.340   2.181   3.909 -0.1493  0.3303  0.6019
12910TIP3    H160221   1.418   2.215   3.865  1.4180 -1.1470  2.0854
12910TIP3    H260222   1.295   2.129   3.841  0.9842 -0.0402  0.1173
12911TIP3   OH260223   1.031   5.095   1.714  0.6044 -0.4191 -0.0063
12911TIP3    H160224   0.998   5.158   1.649  2.5882  1.8554  1.0141
12911TIP3    H260225   1.115   5.066   1.679  0.8101 -0.6314  0.6445
12912TIP3   OH260226   4.270   4.905   1.992 -0.4418  0.3473  0.3253
12912TIP3    H160227   4.301   4.815   1.998 -1.2820  0.1041  1.1932
12912TIP3    H260228   4.285   4.942   2.079  0.7188  1.3404 -0.2604
12913TIP3   OH260229   2.978   2.066  11.122  0.1921 -0.0696 -0.7219
12913TIP3    H160230   3.003   2.111  11.042  1.2883  0.2309 -0.2327
12913TIP3    H260231   2.923   2.130  11.169  0.6625  0.2697 -0.6261
12914TIP3   OH260232   4.954   5.769   6.344 -0.3948 -0.0016  0.5693
12914TIP3    H160233   4.969   5.697   6.405  0.3633 -0.8577 -0.5843
12914TIP3    H260234   4.891   5.826   6.388 -1.0314 -1.3871  1.5022
12915TIP3   OH260235   6.598   4.947  16.234  0.3196  0.6013 -0.1513
12915TIP3    H160236   6.692   4.967  16.233  0.3385  0.5000 -0.5943
12915TIP3    H260237   6.595   4.853  16.253  0.2678  0.7958  0.8722
12916TIP3   OH260238   0.042   6.090  10.632  0.8047  0.1366  0.7440
12916TIP3    H160239  -0.053   6.091  10.624  0.6097 -1.1154  2.3792
12916TIP3    H260240   0.066   6.181  10.649 -0.0336  0.5471 -0.1768
12917TIP3   OH260241   5.172   3.955  11.946 -0.3932 -0.0303 -0.6221
12917TIP3    H160242   5.240   3.905  11.992 -0.2927  1.1914  0.6522
12917TIP3    H260243   5.220   4.023  11.900 -0.7079  0.6823  0.0786
12918TIP3   OH260244   3.177   0.906  11.040 -0.3849  0.4913  0.1082
12918TIP3    H160245   3.137   0.894  11.126 -0.3292 -0.4002  0.0150
12918TIP3    H260246   3.270   0.916  11.058 -0.4463  0.9265  0.1957
12919TIP3   OH260247   6.541   0.803   1.306 -0.2676 -0.1471  0.3842
12919TIP3    H160248   6.570   0.865   1.373 -0.9411  0.5183  0.0791
12919TIP3    H260249   6.610   0.805   1.240 -1.0212  1.5232 -0.4011
12920TIP3   OH260250   6.447   5.163  16.627  0.4019  0.5167  0.2514
12920TIP3    H160251   6.542   5.176  16.630  0.4886  0.0755  3.8347
12920TIP3    H260252   6.427   5.157  16.534  3.7623  1.3753 -0.6729
12921TIP3   OH260253   1.674   1.553  12.037  0.6643  0.5242 -0.0454
12921TIP3    H160254   1.622   1.631  12.058  3.1711  2.2911  0.1024
12921TIP3    H260255   1.634   1.483  12.089 -1.4069  1.7924  0.1933
12922TIP3   OH260256   4.315   5.136   3.847 -0.5941 -0.2022  0.1103
12922TIP3    H160257   4.367   5.135   3.767 -1.0582  0.7342 -0.2187
12922TIP3    H260258   4.319   5.227   3.877 -1.8965 -0.1420  0.1556
12923TIP3   OH260259   6.323   4.954  12.696 -0.3163  0.0595  0.5738
12923TIP3    H160260   6.230   4.942  12.677  0.3544 -1.9909 -2.1370
12923TIP3    H260261   6.326   4.974  12.790 -3.4679  0.5960  0.6841
12924TIP3   OH260262   3.728   3.267   3.678  0.3924  0.5768  0.1493
12924TIP3    H160263   3.798   3.205   3.700  0.2137  0.3338  0.0407
12924TIP3    H260264   3.728   3.269   3.583 -0.7391 -0.5744  0.1024
12925TIP3   OH260265   2.700   0.391  14.070 -0.1021 -0.2579  0.5246
12925TIP3    H160266   2.671   0.416  14.157 -0.2377 -0.2140  0.4673
12925TIP3    H260267   2.619   0.377  14.021 -0.0702 -2.1180  0.9216
12926TIP3   OH260268   1.948   4.553   5.933 -0.3108 -0.1354  0.2681
12926TIP3    H160269   1.870   4.582   5.980  0.1199  2.8581 -0.6475
12926TIP3    H260270   2.003   4.631   5.929  2.1585 -1.8073 -0.2925
12927TIP3   OH260271   0.467   3.486   3.317  0.0719 -0.3382 -0.0409
12927TIP3    H160272   0.402   3.472   3.386 -0.2879  0.5452 -0.1814
12927TIP3    H260273   0.450   3.575   3.287 -0.6583 -1.1643 -2.2218
12928TIP3   OH260274   1.031   6.805  13.150 -0.3125 -0.0249 -0.4391
12928TIP3    H160275   1.121   6.790  13.122 -0.7851 -3.4109 -0.5103
12928TIP3    H260276   0.987   6.841  13.072  0.5429 -0.0653 -0.9529
12929TIP3   OH260277   0.210   3.807   4.400  0.3300  0.4025  0.2544
12929TIP3    H160278   0.270   3.733   4.389  1.6309  0.9222  3.0593
12929TIP3    H260279   0.243   3.874   4.340  3.7218  1.2633  2.7833
12930TIP3   OH260280   4.609   2.928  11.180  0.5161 -0.2105 -0.2407
12930TIP3    H160281   4.586   2.836  11.166 -1.1354  0.2855 -0.8836
12930TIP3    H260282   4.690   2.923  11.231  0.0569 -2.0271  0.4192
12931TIP3   OH260283   0.637   0.779  13.035 -0.0257  0.4727  0.9461
12931TIP3    H160284   0.710   0.788  13.097 -0.6894  1.3768  1.6264
12931TIP3    H260285   0.559   0.784  13.090 -0.6231  0.7916  0.0872
12932TIP3   OH260286   1.016   6.820   1.501  0.3702  0.2910 -0.0032
12932TIP3    H160287   0.938   6.861   1.463 -2.0243 -0.9714  3.1046
12932TIP3    H260288   1.029   6.741   1.450 -0.2808  0.6207 -0.6979
12933TIP3   OH260289   5.910   1.183   1.035  0.4250 -0.5978  0.3350
12933TIP3    H160290   5.866   1.113   1.083 -0.4643 -1.2912 -1.4205
12933TIP3    H260291   5.840   1.230   0.991  0.9614  1.7230  1.7786
12934TIP3   OH260292   6.718   3.601  14.070 -0.0796 -0.3950 -0.4577
12934TIP3    H160293   6.752   3.670  14.127  0.8515 -2.6653  1.9087
12934TIP3    H260294   6.623   3.604  14.084  0.1137 -0.7977  1.1543
12935TIP3   OH260295   6.754   3.825  11.609  0.0638 -0.2819  0.1682
12935TIP3    H160296   6.825   3.856  11.553  0.0868 -0.0220  0.3391
12935TIP3    H260297   6.723   3.903  11.654 -0.9185 -0.2424 -0.5545
12936TIP3   OH260298   4.019   5.344   4.873 -0.6547  0.1978 -0.1454
12936TIP3    H160299   3.992   5.278   4.809 -1.6948 -0.2886  0.7671
12936TIP3    H260300   4.012   5.427   4.826 -2.9416  0.0146 -0.2601
12937TIP3   OH260301   0.215   3.230  17.086  0.3688  0.3117 -0.2222
12937TIP3    H160302   0.247   3.187  17.165  2.2041  0.4775 -0.8165
12937TIP3    H260303   0.253   3.317  17.089  0.7668  0.2060 -1.4291
12938TIP3   OH260304   5.957   0.879  15.300  0.2403  0.3441 -0.4191
12938TIP3    H160305   6.035   0.826  15.316 -0.0859 -0.0459 -0.0700
12938TIP3    H260306   5.909   0.876  15.383 -0.6361 -0.2444 -0.9301
12939TIP3   OH260307   1.165   3.917   2.038  0.7379  0.7659 -0.6492
12939TIP3    H160308   1.074   3.885   2.040  1.0800 -0.1949 -0.0598
12939TIP3    H260309   1.189   3.926   2.130  0.6454  2.8165 -0.7896
12940TIP3   OH260310   2.727   3.314  11.005 -0.8128  0.1059  0.3514
12940TIP3    H160311   2.689   3.312  10.918  0.2506 -1.4611 -0.1217
12940TIP3    H260312   2.670   3.258  11.058  0.7016 -2.2352 -0.3547
12941TIP3   OH260313   1.299   6.434   4.063 -0.7850  0.0112  0.3223
12941TIP3    H160314   1.326   6.516   4.104  0.1782 -0.1167 -0.0357
12941TIP3    H260315   1.379   6.398   4.025 -1.3115 -0.7892 -0.0665
12942TIP3   OH260316   6.233   0.096   4.868 -0.6206 -0.0245 -0.4955
12942TIP3    H160317   6.271   0.044   4.939 -1.9329 -0.3449 -0.0094
12942TIP3    H260318   6.278   0.180   4.874 -0.8215  0.0122  0.8331
12943TIP3   OH260319   3.251   6.789  15.558  0.3589  0.2539 -0.1763
12943TIP3    H160320   3.297   6.820  15.636 -0.4699  1.1173 -0.0129
12943TIP3    H260321   3.192   6.721  15.590 -0.0905  0.7128 -0.0166
12944TIP3   OH260322   2.725   3.673   0.293 -0.4633  0.6529  0.1281
12944TIP3    H160323   2.729   3.607   0.224 -1.2809 -0.2456  0.9067
12944TIP3    H260324   2.631   3.685   0.309 -0.3141 -0.3897  2.1874
12945TIP3   OH260325   5.859   2.509   4.910 -0.2815 -0.2428  0.3853
12945TIP3    H160326   5.891   2.491   4.821 -2.2655  0.7486 -0.5889
12945TIP3    H260327   5.815   2.429   4.936  1.4019 -1.0024  1.0488
12946TIP3   OH260328   4.530   5.153  15.103 -0.3325  0.0509  0.2161
12946TIP3    H160329   4.449   5.133  15.056  0.1229  0.5376 -0.7843
12946TIP3    H260330   4.584   5.200  15.040 -0.0987  1.6083  1.5104
12947TIP3   OH260331   6.806   6.198  15.472  0.2563  0.0018  0.6644
12947TIP3    H160332   6.841   6.109  15.460  0.1311  0.1842 -1.6100
12947TIP3    H260333   6.714   6.184  15.497 -0.0197 -0.5665 -0.5569
12948TIP3   OH260334   5.337   6.071   0.067 -0.0198  0.4159 -0.1584
12948TIP3    H160335   5.249   6.044   0.092  0.0684  0.8538  0.6365
12948TIP3    H260336   5.354   6.024  -0.015 -1.2732  0.9003 -0.7147
12949TIP3   OH260337   3.508   5.111   4.449  0.5507  0.2286  0.0435
12949TIP3    H160338   3.528   5.058   4.371  0.3966  0.0942  0.0941
12949TIP3    H260339   3.416   5.092   4.467  0.2221  1.2486 -0.4921
12950TIP3   OH260340   0.148   4.707  12.807 -0.2616 -0.2591  0.2778
12950TIP3    H160341   0.074   4.745  12.759 -0.6706 -2.6664 -1.1363
12950TIP3    H260342   0.129   4.726  12.899 -0.9993  1.8570 -0.2387
12951TIP3   OH260343   4.081   3.175   4.120 -0.6290  0.5904  0.0650
12951TIP3    H160344   4.099   3.267   4.140  1.6601  0.2776 -0.2717
12951TIP3    H260345   4.039   3.141   4.199  1.6929  1.1256  1.6289
12952TIP3   OH260346   6.103   0.902  11.542 -0.3992  0.1490 -0.0389
12952TIP3    H160347   6.063   0.910  11.628 -3.2600  0.0782 -1.2428
12952TIP3    H260348   6.061   0.825  11.503  1.8171 -0.6537 -1.0646
12953TIP3   OH260349   4.644   1.102   1.022  0.4399 -0.1138 -0.2385
12953TIP3    H160350   4.674   1.177   0.969  1.3096 -0.4216 -0.1923
12953TIP3    H260351   4.644   1.135   1.111 -0.5798  0.2660 -0.3732
12954TIP3   OH260352   3.959   6.457   1.373 -0.1336  0.6269 -0.1958
12954TIP3    H160353   3.974   6.551   1.363  1.9212  0.3414 -0.2782
12954TIP3    H260354   4.025   6.429   1.437 -0.6942 -0.7725 -0.1872
12955TIP3   OH260355   6.462   3.948   3.954 -0.2851  0.1420  0.1336
12955TIP3    H160356   6.535   3.922   4.010  0.2004  1.3136  0.0835
12955TIP3    H260357   6.384   3.922   4.003  0.1307 -1.9440 -0.2138
12956TIP3   OH260358   5.265   0.733  12.747 -0.5188 -0.2244  0.2220
12956TIP3    H160359   5.301   0.791  12.680  0.3463 -0.1205  0.7555
12956TIP3    H260360   5.231   0.792  12.814  0.4621 -0.3119  0.8176
12957TIP3   OH260361   1.648   0.599  14.771  0.0189  0.8490  0.1483
12957TIP3    H160362   1.596   0.677  14.755 -0.9514  0.2680  0.3653
12957TIP3    H260363   1.624   0.539  14.700  0.6377  0.6892  0.0686
12958TIP3   OH260364   3.870   3.070  16.067  0.6923  0.1180 -0.0296
12958TIP3    H160365   3.903   3.159  16.054  1.0994 -0.1670 -1.0246
12958TIP3    H260366   3.918   3.038  16.144  0.5762  0.7375  0.3047
12959TIP3   OH260367   1.981   3.704   1.638 -0.6075 -0.1684 -0.3380
12959TIP3    H160368   1.983   3.758   1.717  0.2436 -0.2878 -0.2667
12959TIP3    H260369   2.057   3.732   1.588  0.3899 -1.8890  0.1177
12960TIP3   OH260370   0.526   4.338   0.763 -0.9570 -0.1054 -0.6867
12960TIP3    H160371   0.602   4.390   0.790 -0.7142 -0.0459 -1.4460
12960TIP3    H260372   0.464   4.402   0.729 -1.2664 -0.1740 -0.2520
12961TIP3   OH260373   0.954   1.739  12.846  0.3955  0.2836  0.1029
12961TIP3    H160374   0.922   1.820  12.805  1.6965  0.2587 -1.0695
12961TIP3    H260375   1.012   1.769  12.916  1.7883  0.4383 -1.0612
12962TIP3   OH260376   4.160   2.697   1.643 -0.4978 -0.9507 -0.5791
12962TIP3    H160377   4.206   2.613   1.653  0.7174 -0.0825  1.8875
12962TIP3    H260378   4.179   2.745   1.724 -0.5917  2.0055 -2.1661
12963TIP3   OH260379   5.774   4.784  12.653 -0.0779 -0.0285  0.2105
12963TIP3    H160380   5.746   4.739  12.574 -2.4169  1.2855  0.2137
12963TIP3    H260381   5.859   4.822  12.630 -0.4734 -0.1031 -1.4857
12964TIP3   OH260382   3.855   3.370   3.906  0.2393  0.6069 -0.3946
12964TIP3    H160383   3.819   3.341   3.822  1.6899 -2.9926  0.0475
12964TIP3    H260384   3.949   3.379   3.889  0.6997 -1.0814  0.9604
12965TIP3   OH260385   4.469   2.957  11.890 -0.0374 -0.0456 -0.1947
12965TIP3    H160386   4.428   2.872  11.881 -0.8082  0.2357  0.6240
12965TIP3    H260387   4.434   2.994  11.971  1.6904  0.2812  0.4513
12966TIP3   OH260388   1.865   6.575  12.773 -0.1452 -0.1418  0.6066
12966TIP3    H160389   1.924   6.500  12.781 -2.1827 -1.8563  0.2415
12966TIP3    H260390   1.872   6.600  12.680  0.2061 -0.1514  0.6277
12967TIP3   OH260391   2.663   1.776  17.095 -0.5529  0.8630 -0.6009
12967TIP3    H160392   2.621   1.861  17.078  0.6041  1.9873  1.6823
12967TIP3    H260393   2.745   1.798  17.139  0.4888 -1.4321 -1.2339
12968TIP3   OH260394   1.822   5.908   0.864  0.0754 -0.1225  0.1710
12968TIP3    H160395   1.762   5.861   0.923  0.6521 -1.2041 -0.0700
12968TIP3    H260396   1.886   5.948   0.923  0.1165 -0.4303  0.3416
12969TIP3   OH260397   4.125   5.207   1.949 -0.1427 -0.0307  0.5627
12969TIP3    H160398   4.177   5.275   1.991 -0.5311  1.7709 -1.6342
12969TIP3    H260399   4.183   5.170   1.882 -1.0148  0.6180 -0.5892
12970TIP3   OH260400   0.272   4.439  16.970  0.6815  0.2061  0.7831
12970TIP3    H160401   0.216   4.471  16.899 -0.3329 -1.3652  0.7980
12970TIP3    H260402   0.343   4.502  16.976 -0.4683  1.6559 -0.0431
12971TIP3   OH260403   1.923   0.303   5.853 -0.0424 -0.3123 -0.2159
12971TIP3    H160404   1.997   0.338   5.805  0.3533 -1.4234 -0.4598
12971TIP3    H260405   1.958   0.226   5.899 -0.2823  0.9745  2.2925
12972TIP3   OH260406   1.473   3.742   4.673 -0.4012 -0.5853 -0.1268
12972TIP3    H160407   1.396   3.785   4.712  1.4603  1.9639  1.0498
12972TIP3    H260408   1.476   3.776   4.583 -2.0468 -2.8073 -1.1261
12973TIP3   OH260409   4.230   5.028   6.137 -0.4401  0.2676  0.1025
12973TIP3    H160410   4.275   5.047   6.219 -2.7599  0.8951  1.3222
12973TIP3    H260411   4.162   5.096   6.131 -0.7025 -0.1216 -2.0462
12974TIP3   OH260412   6.771   6.305   5.858  0.6247  0.1347 -0.8865
12974TIP3    H160413   6.757   6.236   5.793 -1.0342  2.0495 -2.7078
12974TIP3    H260414   6.857   6.342   5.835 -0.6027  1.8256 -3.1512
12975TIP3   OH260415   1.538   6.124  12.701 -0.6497 -0.3229  0.1298
12975TIP3    H160416   1.484   6.203  12.693  0.8699  0.9685  1.8022
12975TIP3    H260417   1.482   6.062  12.747 -0.9650  0.7637  1.2769
12976TIP3   OH260418   3.109   0.286  11.975 -0.0642 -0.5493 -0.0291
12976TIP3    H160419   3.019   0.309  11.996 -0.9748  0.1315 -3.8435
12976TIP3    H260420   3.142   0.362  11.926  2.5994 -0.8520  1.0823
12977TIP3   OH260421   3.227   2.999   2.656  0.5406 -0.1489 -0.1830
12977TIP3    H160422   3.159   2.934   2.640 -1.0851  1.8274 -1.7792
12977TIP3    H260423   3.187   3.063   2.714  2.0080 -0.2994  1.0825
12978TIP3   OH260424   3.151   1.132  14.109  0.7580 -0.3029  0.1505
12978TIP3    H160425   3.186   1.062  14.053  2.0871 -0.0486  0.6229
12978TIP3    H260426   3.065   1.153  14.071  1.3823 -0.5134 -1.4636
12979TIP3   OH260427   3.058   5.354  16.637 -0.1895  0.3384 -0.1467
12979TIP3    H160428   2.979   5.301  16.647 -0.1502 -0.1090 -1.9488
12979TIP3    H260429   3.128   5.291  16.626 -0.2304  0.6725 -2.9834
12980TIP3   OH260430   5.983   0.902  11.781 -0.0056 -0.3443 -0.0195
12980TIP3    H160431   6.058   0.900  11.840 -0.1408 -2.3542  0.1423
12980TIP3    H260432   5.909   0.927  11.837  0.4225  1.0733 -0.0641
12981TIP3   OH260433   1.923   1.059  12.919  0.2229  0.1218 -0.2913
12981TIP3    H160434   1.940   1.152  12.929  0.8679  0.0064 -0.2672
12981TIP3    H260435   1.834   1.047  12.953 -0.1814  0.8558 -1.0579
12982TIP3   OH260436   4.998   4.012  15.426  0.0225  0.0941 -0.1138
12982TIP3    H160437   5.026   4.087  15.478  0.9484 -0.0149 -0.4466
12982TIP3    H260438   5.018   4.037  15.336 -0.0752 -0.3809 -0.2674
12983TIP3   OH260439   4.842   5.972  11.852 -0.2829 -0.2215  0.2836
12983TIP3    H160440   4.906   6.034  11.819 -0.6567 -0.3406 -0.7020
12983TIP3    H260441   4.779   5.963  11.781 -0.6474 -1.1418  0.7114
12984TIP3   OH260442   5.243   4.918  12.617 -0.5157 -0.5475 -0.3221
12984TIP3    H160443   5.178   4.986  12.635 -0.9282 -1.1003  0.3328
12984TIP3    H260444   5.249   4.869  12.699 -0.3550 -1.4059 -0.8388
12985TIP3   OH260445   4.966   4.351  13.182 -0.2468 -0.7322  0.3440
12985TIP3    H160446   4.895   4.301  13.142 -0.0372 -0.1876 -0.7419
12985TIP3    H260447   4.922   4.412  13.242 -0.6577 -0.7130  0.0248
12986TIP3   OH260448   3.663   4.233  10.964  0.8523 -0.2763 -0.1696
12986TIP3    H160449   3.597   4.167  10.983  1.1681 -0.7476 -0.6809
12986TIP3    H260450   3.702   4.205  10.881 -0.7773  1.9167 -1.8212
12987TIP3   OH260451   2.111   6.612   0.490  0.3946 -0.8101  0.0844
12987TIP3    H160452   2.062   6.637   0.568 -2.0209 -0.2665 -1.5078
12987TIP3    H260453   2.067   6.658   0.418  1.6307 -2.3948 -1.7803
12988TIP3   OH260454   4.489   2.527  12.924  0.4153  0.1878 -0.7500
12988TIP3    H160455   4.470   2.583  13.000  3.4242 -0.4380  0.6156
12988TIP3    H260456   4.500   2.440  12.962  0.3712 -0.4485 -2.1707
12989TIP3   OH260457   1.228   6.717   3.274  0.2374 -0.3896  0.4306
12989TIP3    H160458   1.206   6.651   3.340 -1.5791  0.1599  0.4286
12989TIP3    H260459   1.213   6.674   3.190 -0.1937 -0.2087  0.4161
12990TIP3   OH260460   2.951   0.347  13.352 -0.1518  0.4909  0.2345
12990TIP3    H160461   2.916   0.361  13.440  1.5498  1.4866  0.7976
12990TIP3    H260462   3.045   0.336  13.364  0.0135 -0.3692 -1.3866
12991TIP3   OH260463   1.397   5.306   0.630 -0.0963 -0.4369  0.6962
12991TIP3    H160464   1.325   5.368   0.642  0.4582  0.2418  0.5976
12991TIP3    H260465   1.354   5.222   0.615 -0.8699  0.0236  0.2700
12992TIP3   OH260466   0.447   4.182  17.094 -0.4796  0.8197 -0.1163
12992TIP3    H160467   0.491   4.169  17.178 -0.2531 -0.2057 -0.3813
12992TIP3    H260468   0.435   4.093  17.059 -1.3978  1.1778 -0.7478
12993TIP3   OH260469   5.040   5.925   3.929  1.0330 -0.3911 -0.2750
12993TIP3    H160470   5.077   5.965   3.850 -0.3335 -0.1249 -0.8084
12993TIP3    H260471   5.003   5.999   3.978  1.0773 -0.6632  0.1740
12994TIP3   OH260472   1.070   2.979   3.325 -0.3978  0.2373  0.5218
12994TIP3    H160473   1.057   2.891   3.292  0.5369 -0.0394  0.8661
12994TIP3    H260474   1.122   3.024   3.258  0.3005  0.0981  0.9543
12995TIP3   OH260475   1.040   1.417  16.583 -0.5709 -0.6737 -0.1255
12995TIP3    H160476   0.960   1.467  16.602 -1.2180 -1.6553 -0.1916
12995TIP3    H260477   1.079   1.463  16.508  0.1277  1.1161  1.2415
12996TIP3   OH260478   2.365   5.877   0.466  0.1203 -0.0364  0.3431
12996TIP3    H160479   2.421   5.801   0.456  0.3798  0.3877 -2.6145
12996TIP3    H260480   2.281   5.842   0.495  0.2807 -1.4787 -0.7865
12997TIP3   OH260481   6.318   6.339  15.127  0.0335  0.1988 -0.6420
12997TIP3    H160482   6.335   6.423  15.082  0.0443  0.1398 -0.7493
12997TIP3    H260483   6.343   6.273  15.062  1.6819  0.1063  0.0357
12998TIP3   OH260484   3.316   0.097   1.412  0.2338 -0.2116  0.1219
12998TIP3    H160485   3.391   0.141   1.452 -0.8673  2.4011 -0.4093
12998TIP3    H260486   3.242   0.118   1.469 -0.9887  1.8898 -2.0385
12999TIP3   OH260487   1.377   1.475   0.099 -0.3903 -0.0816  0.2728
12999TIP3    H160488   1.360   1.564   0.071 -0.7836 -0.2742 -0.1106
12999TIP3    H260489   1.414   1.432   0.022 -1.8332 -0.7146 -0.1088
13000TIP3   OH260490   4.108   5.882  16.844 -0.5855  0.1052  0.3428
13000TIP3    H160491   4.194   5.902  16.882 -0.9497 -0.2568  1.3729
13000TIP3    H260492   4.126   5.872  16.750  0.4682  0.2129  0.5171
13001TIP3   OH260493   3.151   0.442   2.472  0.1112  0.2191 -0.0266
13001TIP3    H160494   3.056   0.441   2.470  0.0975  0.4431  0.5616
13001TIP3    H260495   3.176   0.459   2.381 -0.3989 -0.2925 -0.2687
13002TIP3   OH260496   2.878   1.619  16.086  0.2615  0.6298  0.1806
13002TIP3    H160497   2.814   1.650  16.150  0.2410  1.8003 -0.3703
13002TIP3    H260498   2.826   1.601  16.007  0.7857  4.0618 -1.1399
13003TIP3   OH260499   0.333   1.005  14.325 -0.3407  0.5190  0.1018
13003TIP3    H160500   0.426   1.005  14.350 -0.0714  2.5536 -0.7526
13003TIP3    H260501   0.333   0.982  14.232 -0.6767  0.6832  0.0602
13004TIP3   OH260502   6.813   2.233   5.042 -0.3698  0.0392 -0.1248
13004TIP3    H160503   6.875   2.304   5.026 -0.4040 -0.0659 -0.7457
13004TIP3    H260504   6.767   2.259   5.122  0.6367  0.0042  0.4844
13005TIP3   OH260505   2.448   5.204  16.929  0.1061 -0.0074 -0.2828
13005TIP3    H160506   2.364   5.164  16.909 -0.9615  0.7854  2.2044
13005TIP3    H260507   2.505   5.131  16.953 -0.8280 -0.3345  1.0189
13006TIP3   OH260508   5.113   3.541  15.313  0.0806  0.2849 -0.1282
13006TIP3    H160509   5.071   3.481  15.251  0.2197  0.4043 -0.3381
13006TIP3    H260510   5.100   3.499  15.398 -2.7493  1.5678  0.1662
13007TIP3   OH260511   0.831   6.332   3.794  0.0182 -0.4406 -0.6072
13007TIP3    H160512   0.803   6.284   3.871  0.1415 -0.3198 -0.4868
13007TIP3    H260513   0.912   6.377   3.821  0.7429 -1.3780 -1.1788
13008TIP3   OH260514   4.682   6.450  13.654 -0.0521 -0.0303  0.0482
13008TIP3    H160515   4.750   6.431  13.589 -1.6246 -2.1461 -1.1149
13008TIP3    H260516   4.638   6.529  13.621  1.2619  0.8675  0.3757
13009TIP3   OH260517   0.237   3.676   5.173 -0.0871  0.1409  0.5479
13009TIP3    H160518   0.234   3.611   5.243  1.2697  0.1479  0.6315
13009TIP3    H260519   0.310   3.650   5.118 -0.1422  1.0432  0.0204
13010TIP3   OH260520   1.843   0.179   3.833 -0.3561 -0.2863  0.1005
13010TIP3    H160521   1.828   0.222   3.749  1.3233  0.5189  0.1683
13010TIP3    H260522   1.824   0.087   3.816  0.3995 -0.2190 -1.3167
13011TIP3   OH260523   1.267   3.510  16.353  0.4546 -0.5784 -0.2530
13011TIP3    H160524   1.248   3.597  16.390 -0.7528 -0.6547 -0.6650
13011TIP3    H260525   1.290   3.457  16.430 -1.8333 -0.6859  0.4120
13012TIP3   OH260526   5.508   4.793  14.368 -0.2374 -0.0254  0.4334
13012TIP3    H160527   5.592   4.799  14.413 -0.5759 -0.3649  1.1222
13012TIP3    H260528   5.445   4.830  14.430 -0.6407 -0.0338  0.0332
13013TIP3   OH260529   5.305   5.629  17.076  0.4698  0.0185  0.3861
13013TIP3    H160530   5.252   5.629  17.155 -0.2981 -0.8890 -0.0981
13013TIP3    H260531   5.241   5.634  17.004  1.0435 -0.7563 -0.2015
13014TIP3   OH260532   4.820   3.682   4.868 -0.4139  0.7336  0.1477
13014TIP3    H160533   4.809   3.669   4.962 -0.6128  1.4980  0.2380
13014TIP3    H260534   4.789   3.771   4.852 -0.0273  0.7458 -0.5866
13015TIP3   OH260535   5.089   0.318   3.462  0.3363 -0.1261  0.4876
13015TIP3    H160536   4.995   0.332   3.450  0.3336 -1.1787 -0.9618
13015TIP3    H260537   5.130   0.395   3.422  0.1071  1.2944  2.7964
13016TIP3   OH260538   6.205   6.375  13.222 -0.0305 -0.0890 -0.5578
13016TIP3    H160539   6.148   6.304  13.253 -1.5804  0.9879 -0.8151
13016TIP3    H260540   6.181   6.386  13.130  0.3796  0.5954 -0.5883
13017TIP3   OH260541   2.873   6.001  14.550  0.2539 -0.4797 -0.4160
13017TIP3    H160542   2.805   6.062  14.522 -0.6080  0.0924  2.5173
13017TIP3    H260543   2.934   6.054  14.601  2.3207 -1.2307 -1.9469
13018TIP3   OH260544   1.895   2.494   2.234 -0.9097 -0.0918  0.3413
13018TIP3    H160545   1.949   2.518   2.309 -0.0152  1.2089 -0.6636
13018TIP3    H260546   1.821   2.554   2.237 -0.6298  0.2804 -0.0630
13019TIP3   OH260547   3.437   5.824   0.098  0.3065 -0.2845  0.3881
13019TIP3    H160548   3.517   5.872   0.075  1.1026 -1.4445  0.6103
13019TIP3    H260549   3.469   5.739   0.129 -1.0421 -0.8975  0.1630
13020TIP3   OH260550   0.646   2.079   2.389 -0.4551 -0.1481  0.7411
13020TIP3    H160551   0.596   2.001   2.411 -2.0384  0.4113 -0.6682
13020TIP3    H260552   0.713   2.049   2.328 -0.7988 -0.4704  0.5229
13021TIP3   OH260553   0.215   1.501  16.462 -0.1655  0.2083  0.0562
13021TIP3    H160554   0.306   1.471  16.466 -0.8142 -1.9178  0.7278
13021TIP3    H260555   0.210   1.573  16.525  1.2976  1.1557 -0.8800
13022TIP3   OH260556   6.625   2.957   2.918  0.2827  0.1469 -0.1153
13022TIP3    H160557   6.685   2.884   2.910  0.5030  0.4537 -1.4460
13022TIP3    H260558   6.540   2.917   2.938  0.3307 -0.5100 -1.1790
13023TIP3   OH260559   1.598   1.370  12.570  0.1619 -0.0077  0.1602
13023TIP3    H160560   1.583   1.436  12.503  0.0339  0.4152  0.5955
13023TIP3    H260561   1.529   1.305  12.555  0.3088 -0.0622 -0.2899
13024TIP3   OH260562   1.104   5.593   5.285  0.0774 -0.2162 -0.6912
13024TIP3    H160563   1.084   5.686   5.293 -0.0858 -0.3524  0.6048
13024TIP3    H260564   1.114   5.579   5.190 -0.4275  0.9977 -0.9431
13025TIP3   OH260565   0.646   0.496  11.450  0.0795 -0.7111 -0.0714
13025TIP3    H160566   0.598   0.455  11.522 -1.6397 -1.2029 -1.4399
13025TIP3    H260567   0.579   0.532  11.393  1.3997 -0.1271 -1.3334
13026TIP3   OH260568   0.562   6.560   5.410  0.2027  0.1985 -0.1826
13026TIP3    H160569   0.638   6.600   5.451 -1.6032  3.3351  0.4647
13026TIP3    H260570   0.580   6.566   5.316 -0.0105  2.9627 -0.1486
13027TIP3   OH260571   4.983   0.729  15.061 -0.1506  0.1211  0.3554
13027TIP3    H160572   5.003   0.648  15.107  0.4136 -0.0497 -0.1807
13027TIP3    H260573   4.975   0.704  14.969 -0.0407  0.6633  0.1918
13028TIP3   OH260574   0.965   4.345  12.901 -0.4975 -0.8018  0.2272
13028TIP3    H160575   0.898   4.414  12.900  0.6902  0.3994  0.1713
13028TIP3    H260576   1.024   4.368  12.829  0.5591 -1.2167  0.9407
13029TIP3   OH260577   3.602   0.956   5.211 -0.0843 -0.5369  0.0157
13029TIP3    H160578   3.677   0.954   5.271 -0.4036 -1.8904  0.4064
13029TIP3    H260579   3.541   0.892   5.248  0.2099 -2.3357 -2.3780
13030TIP3   OH260580   1.023   5.062   0.496  0.5519 -0.3890 -0.1335
13030TIP3    H160581   1.042   5.094   0.408  2.6341 -4.2267 -1.3013
13030TIP3    H260582   0.934   5.030   0.491  0.4262  0.0191 -0.6153
13031TIP3   OH260583   0.670   3.056   0.786 -1.3304 -0.5400 -0.6674
13031TIP3    H160584   0.700   3.003   0.712 -0.8083 -0.9616 -0.1632
13031TIP3    H260585   0.600   3.110   0.750 -0.3228  0.1030 -1.7566
13032TIP3   OH260586   4.755   2.028   2.531  0.0399 -0.5025  0.1107
13032TIP3    H160587   4.717   2.001   2.614 -3.0707  0.6458 -0.7933
13032TIP3    H260588   4.769   2.122   2.541 -2.0605  0.0039 -1.1614
13033TIP3   OH260589   4.043   1.398  15.522  0.3468  0.0916  0.5053
13033TIP3    H160590   4.024   1.393  15.428 -0.3362  0.8360  0.5982
13033TIP3    H260591   4.136   1.374  15.528  1.1024  2.3794 -0.6371
13034TIP3   OH260592   3.232   0.219  14.861  0.3607  0.3863  0.7431
13034TIP3    H160593   3.267   0.168  14.935  0.5766 -0.2939  0.1831
13034TIP3    H260594   3.269   0.177  14.784 -2.6964 -1.2264  0.0005
13035TIP3   OH260595   5.269   2.896   4.177  0.1704 -0.1671 -0.0576
13035TIP3    H160596   5.339   2.954   4.145  0.2023  0.5291  1.2046
13035TIP3    H260597   5.188   2.938   4.147  0.2490 -0.3881 -0.5898
13036TIP3   OH260598   5.306   2.058  11.378  0.8980 -0.1497  0.0082
13036TIP3    H160599   5.316   2.071  11.472  0.9504 -1.1125  0.1394
13036TIP3    H260600   5.274   2.143  11.346 -0.3213 -0.1837  1.0684
13037TIP3   OH260601   0.947   6.100  14.202 -0.2852  0.0537 -0.0985
13037TIP3    H160602   0.971   6.190  14.182 -0.9945  0.5419  1.1618
13037TIP3    H260603   0.907   6.067  14.121  3.0064 -0.2886 -1.7397
13038TIP3   OH260604   4.419   2.871  13.703  0.3679 -0.9226 -0.1924
13038TIP3    H160605   4.344   2.811  13.701  0.8920 -1.5702 -0.7407
13038TIP3    H260606   4.496   2.813  13.708  0.7986 -0.2559  1.9228
13039TIP3   OH260607   4.605   3.706   1.993  0.1343  0.4410 -0.0741
13039TIP3    H160608   4.541   3.668   2.054  0.0460  0.2169 -0.3066
13039TIP3    H260609   4.668   3.751   2.050  0.5766 -0.5624  0.2435
13040TIP3   OH260610   0.020   4.592  13.269  0.2700 -0.4373 -0.3303
13040TIP3    H160611   0.063   4.609  13.353 -0.6992 -0.3075  0.1639
13040TIP3    H260612   0.091   4.580  13.207  1.1044 -2.9251  0.9518
13041TIP3   OH260613   3.188   5.130   1.503  0.0196 -0.4293  0.0032
13041TIP3    H160614   3.192   5.113   1.409 -0.4197  2.0573 -0.5159
13041TIP3    H260615   3.098   5.109   1.528 -0.5760  1.1639 -0.6657
13042TIP3   OH260616   2.828   6.198   4.557 -0.3224  0.4957  0.5456
13042TIP3    H160617   2.921   6.182   4.540 -0.5783 -1.5117  0.8193
13042TIP3    H260618   2.825   6.225   4.649  0.0361  1.2855  0.3376
13043TIP3   OH260619   0.842   1.432  12.264  0.6361 -0.3031 -0.7596
13043TIP3    H160620   0.802   1.499  12.209  0.3889 -0.9715 -1.4135
13043TIP3    H260621   0.928   1.468  12.289 -0.0301  0.8065  0.0078
13044TIP3   OH260622   3.965   1.988   1.230 -0.0087  0.1927  1.1488
13044TIP3    H160623   3.974   1.919   1.165  1.7242 -0.3992  1.9323
13044TIP3    H260624   3.890   2.039   1.202 -0.2072 -0.9261 -0.4692
13045TIP3   OH260625   4.823   1.597   5.869 -0.3220  0.4855 -0.2047
13045TIP3    H160626   4.835   1.691   5.883  0.6826  0.1707  1.2862
13045TIP3    H260627   4.767   1.569   5.942 -2.9503  0.3387 -2.1126
13046TIP3   OH260628   6.755   0.849  13.681 -0.4977 -0.7067 -0.1962
13046TIP3    H160629   6.802   0.766  13.674  0.9845  0.0088  0.8564
13046TIP3    H260630   6.724   0.851  13.771 -2.1030 -0.9006 -0.7134
13047TIP3   OH260631   0.394   5.521  16.224  0.1606  0.1976 -0.6287
13047TIP3    H160632   0.358   5.604  16.192 -0.5944  0.1497  0.0720
13047TIP3    H260633   0.464   5.548  16.284 -0.1616  0.3376 -0.3100
13048TIP3   OH260634   1.052   1.909   1.724  0.1324  0.5441 -0.2403
13048TIP3    H160635   1.029   2.000   1.709  2.0778  0.9327 -1.2482
13048TIP3    H260636   1.128   1.913   1.782  1.1388 -0.3313 -1.4489
13049TIP3   OH260637   1.128   4.082   3.221 -0.4757 -0.5479 -0.0166
13049TIP3    H160638   1.112   4.139   3.296  1.1408  1.8204 -1.3270
13049TIP3    H260639   1.209   4.036   3.243 -0.1234 -0.0205 -0.1898
13050TIP3   OH260640   0.502   2.940   5.342  0.2640 -0.0872  0.0211
13050TIP3    H160641   0.502   2.864   5.285  1.3600 -2.0574  2.4246
13050TIP3    H260642   0.442   2.917   5.413 -1.7378  2.6271 -0.6460
13051TIP3   OH260643   5.296   3.209  16.612 -0.0097 -0.3221 -0.6273
13051TIP3    H160644   5.240   3.138  16.644 -0.5880  0.5718  0.4033
13051TIP3    H260645   5.378   3.166  16.590 -0.7616 -1.5119 -1.2329
13052TIP3   OH260646   5.564   3.280  16.487 -0.3395 -0.3077  0.2135
13052TIP3    H160647   5.530   3.364  16.455  1.1743  0.1336 -0.3332
13052TIP3    H260648   5.558   3.221  16.412 -0.5347 -0.4262  0.3208
13053TIP3   OH260649   0.139   5.789   0.596  0.3766  0.8674 -0.7024
13053TIP3    H160650   0.141   5.822   0.685  0.1735  1.0633 -0.7692
13053TIP3    H260651   0.127   5.867   0.542 -2.8732  0.4857 -0.7298
13054TIP3   OH260652   3.941   4.631  11.757 -0.4687  0.1099  0.0345
13054TIP3    H160653   4.008   4.651  11.823 -0.7690 -2.1251  1.1198
13054TIP3    H260654   3.976   4.556  11.709 -1.9640 -0.8466  0.3614
13055TIP3   OH260655   5.613   6.701   6.523  0.0655  0.4694 -0.2131
13055TIP3    H160656   5.699   6.686   6.562 -0.4195  1.8358  1.5219
13055TIP3    H260657   5.585   6.615   6.494  2.7105  0.2149 -2.4698
13056TIP3   OH260658   0.109   4.198  16.668  0.0007 -0.6924 -0.4720
13056TIP3    H160659   0.027   4.184  16.716  0.7352 -1.0863  0.7076
13056TIP3    H260660   0.159   4.118  16.682  1.2430  0.1569  0.1896
13057TIP3   OH260661   2.395   4.886   1.721  0.8436 -0.2335  0.5957
13057TIP3    H160662   2.474   4.940   1.720  1.4568 -1.1157 -0.0332
13057TIP3    H260663   2.324   4.948   1.710  1.4503  0.5740  1.1040
13058TIP3   OH260664   3.066   2.178   0.492 -0.2030 -0.3271  0.1804
13058TIP3    H160665   3.019   2.258   0.469 -1.1550 -1.2784 -1.3979
13058TIP3    H260666   3.152   2.188   0.450 -1.4267 -1.4205 -2.8561
13059TIP3   OH260667   2.034   1.936  16.205 -0.4162  0.2035 -0.1888
13059TIP3    H160668   1.994   1.873  16.264 -0.3870 -0.8391 -1.2442
13059TIP3    H260669   2.008   2.022  16.239  0.7110 -0.2866  2.1252
13060TIP3   OH260670   0.943   5.986  14.556 -0.0530  0.4367  0.2675
13060TIP3    H160671   0.961   6.071  14.595  0.1085  1.5994 -2.1599
13060TIP3    H260672   0.880   6.005  14.486 -0.2481 -1.4887 -0.1248
13061TIP3   OH260673   0.007   6.024   6.329  0.3536  0.3405  0.2618
13061TIP3    H160674  -0.047   5.953   6.363 -0.4127  1.5559  1.7634
13061TIP3    H260675   0.090   6.016   6.377 -0.1550  1.0999  1.3332
13062TIP3   OH260676   5.272   4.216  12.807  0.3584  0.5270 -0.2632
13062TIP3    H160677   5.229   4.274  12.869  1.5140  1.3438 -0.1824
13062TIP3    H260678   5.267   4.129  12.846 -0.9836  0.6394 -0.1617
13063TIP3   OH260679   3.648   0.764  13.609 -0.6604  0.1882  0.0807
13063TIP3    H160680   3.615   0.829  13.548 -0.0584  0.1430 -0.3047
13063TIP3    H260681   3.710   0.712  13.557 -2.4587 -1.8697 -0.1300
13064TIP3   OH260682   5.902   6.743   5.642  0.3845 -0.1988 -0.9179
13064TIP3    H160683   5.866   6.744   5.553 -0.4744  1.7761 -0.6067
13064TIP3    H260684   5.973   6.680   5.639 -0.5852 -1.2865 -2.6132
13065TIP3   OH260685   1.587   1.682   3.684  0.1427 -0.2034 -0.0141
13065TIP3    H160686   1.539   1.609   3.722 -0.9984 -0.6903 -2.2046
13065TIP3    H260687   1.531   1.712   3.612  2.8114 -0.4090 -2.3473
13066TIP3   OH260688   0.085   6.639   3.787 -0.6303  0.2008  0.2337
13066TIP3    H160689   0.179   6.654   3.791 -0.6090  0.3658 -0.7800
13066TIP3    H260690   0.048   6.700   3.851 -0.1504  1.1148 -0.3482
13067TIP3   OH260691   2.637   0.708   5.662  0.9901  0.7513  0.5068
13067TIP3    H160692   2.609   0.756   5.740 -0.2767 -0.1801  0.6593
13067TIP3    H260693   2.599   0.758   5.589 -0.7993 -0.2412  0.6914
13068TIP3   OH260694   5.441   5.732  15.602 -0.9572 -0.2397 -0.2822
13068TIP3    H160695   5.383   5.667  15.564 -0.0272 -1.1697 -0.1380
13068TIP3    H260696   5.404   5.816  15.575 -1.6650 -0.8401 -1.2222
13069TIP3   OH260697   4.037   1.899   6.163 -0.1728  0.3344 -0.1281
13069TIP3    H160698   3.967   1.854   6.116 -0.5283  2.1301 -1.4053
13069TIP3    H260699   3.997   1.925   6.246 -1.0934  1.3798 -0.8598
13070TIP3   OH260700   2.810   5.907   2.658  0.1450 -0.1216 -0.6069
13070TIP3    H160701   2.837   5.846   2.726 -1.2096  0.9016  0.9218
13070TIP3    H260702   2.729   5.871   2.624 -0.7055  0.8129  0.3591
13071TIP3   OH260703   4.372   1.335  10.821 -0.2050  0.4358 -0.1313
13071TIP3    H160704   4.417   1.250  10.817 -2.3064 -0.7335 -2.9968
13071TIP3    H260705   4.438   1.398  10.791  1.0535 -0.3483  0.9108
13072TIP3   OH260706   2.788   4.998   2.687 -0.4595  0.4500  0.4592
13072TIP3    H160707   2.861   4.952   2.644  0.4593  1.1477  1.2231
13072TIP3    H260708   2.725   4.930   2.708 -0.7965  0.0412 -1.6908
13073TIP3   OH260709   5.707   5.402  13.392  0.3153  0.6239 -0.1252
13073TIP3    H160710   5.648   5.365  13.326  0.1295  0.8215 -0.0739
13073TIP3    H260711   5.648   5.444  13.455  0.4772  0.2281  0.2972
13074TIP3   OH260712   5.413   0.515  11.002  0.1293 -0.5639 -0.3242
13074TIP3    H160713   5.332   0.483  10.962  0.4796  0.7821 -2.3091
13074TIP3    H260714   5.481   0.460  10.963  0.3924  0.1468 -0.8918
13075TIP3   OH260715   0.960   5.680  10.689  0.2112 -0.1082  0.1232
13075TIP3    H160716   0.953   5.615  10.759  0.3532  0.7443  0.9535
13075TIP3    H260717   0.975   5.763  10.734  1.9049  0.2472 -0.9819
13076TIP3   OH260718   4.949   2.075   2.773  0.4130 -0.5865 -0.2608
13076TIP3    H160719   5.000   2.154   2.755  1.5339 -0.7215  2.0521
13076TIP3    H260720   4.995   2.005   2.726  2.3385 -0.6688  1.6128
13077TIP3   OH260721   0.875   6.552  13.676 -0.2485  0.2049  0.0367
13077TIP3    H160722   0.855   6.597  13.594  1.4963 -1.5066 -1.4139
13077TIP3    H260723   0.843   6.463  13.662  1.3819 -0.5033  0.6263
13078TIP3   OH260724   2.715   0.352   2.215  0.0980 -0.0150 -0.1591
13078TIP3    H160725   2.624   0.339   2.192  0.3549  0.3389 -1.4566
13078TIP3    H260726   2.748   0.414   2.150  0.7929  1.3311  1.3969
13079TIP3   OH260727   4.394   4.398   0.894  0.0618  0.1160 -0.5291
13079TIP3    H160728   4.387   4.302   0.902  0.0478  0.1147 -0.5546
13079TIP3    H260729   4.488   4.415   0.893  0.1238 -0.0914 -2.6453
13080TIP3   OH260730   2.223   3.475   2.757  0.2299 -0.5788  0.4279
13080TIP3    H160731   2.292   3.540   2.765  0.2345 -0.6607  1.1376
13080TIP3    H260732   2.267   3.396   2.728  0.4474 -0.6598  0.9852
13081TIP3   OH260733   5.343   6.159  14.659  0.4719  0.4645 -0.3020
13081TIP3    H160734   5.408   6.226  14.679  0.4975  0.1099  0.8923
13081TIP3    H260735   5.275   6.172  14.726  0.4454 -0.6357 -0.1032
13082TIP3   OH260736   4.007   0.327  11.379 -0.2013  0.1736  0.0537
13082TIP3    H160737   4.063   0.265  11.333 -0.3288 -2.1634  2.7511
13082TIP3    H260738   3.922   0.318  11.337  0.4206  0.6240 -1.3577
13083TIP3   OH260739   3.072   4.219   1.329  0.3866 -0.7402  0.1634
13083TIP3    H160740   3.157   4.252   1.359  0.9823 -2.2783  0.3014
13083TIP3    H260741   3.082   4.210   1.234 -0.5090  1.4038 -0.1863
13084TIP3   OH260742   3.279   2.641  15.760  0.5718  0.3066  0.1897
13084TIP3    H160743   3.222   2.622  15.834 -1.1003  0.7355 -0.9349
13084TIP3    H260744   3.368   2.632  15.795 -0.1327 -2.1436  1.5606
13085TIP3   OH260745   1.092   3.947   4.936 -0.6642 -0.0188 -0.7587
13085TIP3    H160746   1.169   3.971   4.988 -1.1965 -0.2704  0.1787
13085TIP3    H260747   1.127   3.920   4.851  0.2320  0.3711 -0.5198
13086TIP3   OH260748   3.445   5.645   1.030 -0.3353  0.5543 -0.4678
13086TIP3    H160749   3.367   5.685   1.069  1.9157  2.4354  2.4912
13086TIP3    H260750   3.493   5.609   1.104  1.8160 -0.1757 -2.1328
13087TIP3   OH260751   4.246   0.248   4.884 -0.3241  0.2293 -0.0257
13087TIP3    H160752   4.217   0.288   4.802 -0.9626  0.7501  0.4474
13087TIP3    H260753   4.218   0.309   4.952  1.8935  0.7564  0.4772
13088TIP3   OH260754   3.761   4.325   4.422 -0.1510 -0.1167  0.1463
13088TIP3    H160755   3.856   4.338   4.429  0.1379 -0.5833 -2.0587
13088TIP3    H260756   3.724   4.379   4.492  1.7478 -0.3738  1.4316
13089TIP3   OH260757   2.257   2.756   2.640 -0.3514  0.0296  0.0310
13089TIP3    H160758   2.313   2.828   2.668  0.2295  0.9093 -3.0023
13089TIP3    H260759   2.178   2.798   2.606 -1.4212 -1.0042  1.1423
13090TIP3   OH260760   0.436   6.418  14.052 -0.2178  0.6439 -0.7856
13090TIP3    H160761   0.393   6.490  14.097  0.3269  1.5976 -1.7415
13090TIP3    H260762   0.403   6.339  14.095 -0.6168  1.4687  0.4614
13091TIP3   OH260763   3.440   5.734   4.673 -0.2350  0.2679  0.3495
13091TIP3    H160764   3.385   5.660   4.650  1.9147 -1.0297 -0.8997
13091TIP3    H260765   3.419   5.801   4.608 -0.9912  0.1500  0.4656
13092TIP3   OH260766   6.378   4.654   2.931 -0.5714  0.2981 -0.2578
13092TIP3    H160767   6.425   4.729   2.895  1.1630 -0.9351 -0.7043
13092TIP3    H260768   6.330   4.617   2.858  0.6822 -0.5266 -0.7091
13093TIP3   OH260769   6.659   6.384   0.987  0.1961 -0.1546  0.1309
13093TIP3    H160770   6.679   6.463   1.038  1.6443  0.6007 -1.5360
13093TIP3    H260771   6.617   6.326   1.051 -2.5747  2.5564  1.0330
13094TIP3   OH260772   5.593   0.195  16.919 -0.0845  0.5293 -0.0735
13094TIP3    H160773   5.516   0.208  16.974  0.6804 -1.0137  1.4703
13094TIP3    H260774   5.574   0.115  16.869 -0.1845  1.1367 -1.0500
13095TIP3   OH260775   1.633   1.819   6.503 -0.4294  0.1240 -0.1624
13095TIP3    H160776   1.678   1.877   6.564 -0.6712 -0.5662  0.6999
13095TIP3    H260777   1.565   1.873   6.463  0.3828  0.8577 -0.6042
13096TIP3   OH260778   5.907   3.218   3.113  0.0910  0.4559 -0.1293
13096TIP3    H160779   5.862   3.225   3.197 -0.5930  1.1315 -0.5372
13096TIP3    H260780   6.000   3.226   3.134 -0.0583  0.3462  0.5845
13097TIP3   OH260781   0.748   4.237   4.812  0.1728 -0.0297 -0.4926
13097TIP3    H160782   0.796   4.236   4.895  1.1794 -1.2782 -1.0499
13097TIP3    H260783   0.657   4.251   4.837  0.4626 -0.3307  0.8182
13098TIP3   OH260784   6.076   5.359   1.881 -0.3392  0.2501  0.0139
13098TIP3    H160785   6.021   5.285   1.906 -0.9994  0.4857 -0.6801
13098TIP3    H260786   6.131   5.325   1.810 -1.2234  0.6175 -0.8833
13099TIP3   OH260787   2.571   4.208   1.022 -0.2011 -0.0938 -0.1510
13099TIP3    H160788   2.476   4.200   1.011 -0.2611  1.0525 -0.5470
13099TIP3    H260789   2.588   4.302   1.017  1.0450 -0.3337 -0.9034
13100TIP3   OH260790   3.335   4.780  16.243 -0.0271  0.0230  0.2710
13100TIP3    H160791   3.405   4.765  16.180  0.2505  2.5806 -0.1411
13100TIP3    H260792   3.310   4.872  16.229 -0.0922  0.6473  3.7316
13101TIP3   OH260793   2.512   4.839   6.290  0.0269  0.3068  0.6092
13101TIP3    H160794   2.534   4.819   6.381 -0.8144 -0.9025  0.5774
13101TIP3    H260795   2.596   4.853   6.247  0.5200 -0.5181  1.2771
13102TIP3   OH260796   2.681   0.436   6.044  0.2482 -0.0784 -0.2597
13102TIP3    H160797   2.758   0.398   6.085  0.5931 -0.0205 -0.8473
13102TIP3    H260798   2.711   0.519   6.006 -0.3259  0.4197  0.3542
13103TIP3   OH260799   3.200   0.324   1.919  0.1976 -0.1144  0.1087
13103TIP3    H160800   3.156   0.409   1.911  0.2086  0.2765  3.2537
13103TIP3    H260801   3.136   0.261   1.888 -0.1055  0.9100 -1.5161
13104TIP3   OH260802   0.119   6.044  12.144 -0.9058 -0.5080 -0.2925
13104TIP3    H160803   0.181   6.052  12.216 -2.0402 -0.1379  0.6869
13104TIP3    H260804   0.149   6.108  12.079 -1.8440  1.8513  1.4202
13105TIP3   OH260805   1.918   6.585  15.368 -0.1423 -0.3491  0.4138
13105TIP3    H160806   1.825   6.579  15.346 -0.2355 -1.5049  1.0028
13105TIP3    H260807   1.961   6.606  15.286 -0.9946  1.1312  0.3027
13106TIP3   OH260808   3.125   0.105   0.286  0.5131 -0.0055 -0.5927
13106TIP3    H160809   3.173   0.031   0.250  0.3889  0.2472 -1.2901
13106TIP3    H260810   3.140   0.100   0.381  1.0976 -0.4972 -0.7089
13107TIP3   OH260811   5.682   0.476  16.586 -0.4472  0.0610  0.5311
13107TIP3    H160812   5.719   0.441  16.505  0.1779  2.0032 -0.0644
13107TIP3    H260813   5.661   0.398  16.638  1.1324 -1.1729 -0.5889
13108TIP3   OH260814   1.274   5.344   1.201  0.0226  0.2614  0.0409
13108TIP3    H160815   1.265   5.382   1.114  1.0058 -0.2436 -0.3026
13108TIP3    H260816   1.313   5.258   1.186 -1.8745 -0.7921  0.8140
13109TIP3   OH260817   0.659   6.632   5.685 -0.1517  0.4107  0.1062
13109TIP3    H160818   0.714   6.687   5.741  0.9438  1.1141 -1.6040
13109TIP3    H260819   0.569   6.659   5.706  0.0964 -0.4027  2.5702
13110TIP3   OH260820   1.665   0.320  16.591 -0.2736 -0.9047 -0.0911
13110TIP3    H160821   1.640   0.264  16.664 -0.6094 -1.1230 -0.3677
13110TIP3    H260822   1.621   0.281  16.515  1.2513 -1.5391 -0.6758
13111TIP3   OH260823   6.766   1.606   1.689  0.3293 -0.4197 -0.4162
13111TIP3    H160824   6.819   1.590   1.610 -0.6509  1.6611 -1.5744
13111TIP3    H260825   6.725   1.691   1.674 -0.8137 -0.4864  1.8666
13112TIP3   OH260826   3.167   2.792  16.239 -0.5069  0.1373  0.3427
13112TIP3    H160827   3.181   2.699  16.254 -0.3823 -0.1081 -1.1624
13112TIP3    H260828   3.145   2.827  16.326  1.5425 -0.8916  1.3414
13113TIP3   OH260829   1.763   5.451  15.061 -0.5777 -0.3578 -0.2134
13113TIP3    H160830   1.814   5.514  15.113 -1.8897 -0.6159  1.4927
13113TIP3    H260831   1.788   5.365  15.096 -0.1930 -0.6786 -1.2374
13114TIP3   OH260832   0.392   2.961  11.311  0.5598 -0.1631 -0.4422
13114TIP3    H160833   0.344   3.043  11.295  0.9052  0.2365  0.4762
13114TIP3    H260834   0.415   2.929  11.224  2.9145  2.2298 -0.8471
13115TIP3   OH260835   5.477   6.306   3.091  0.3433 -0.1023 -0.3599
13115TIP3    H160836   5.514   6.393   3.102  2.6181 -1.1255  0.9843
13115TIP3    H260837   5.531   6.265   3.023  2.6867 -1.9875  2.3591
13116TIP3   OH260838   4.958   5.936  12.699 -0.6701  0.1945 -0.2626
13116TIP3    H160839   5.013   6.010  12.725 -0.4662  0.4808 -1.4706
13116TIP3    H260840   4.958   5.878  12.776  2.3998 -0.4835 -0.6393
13117TIP3   OH260841   1.703   1.083   0.877 -0.3758  0.0035 -0.2703
13117TIP3    H160842   1.723   0.996   0.843 -0.7553  0.2191 -1.0555
13117TIP3    H260843   1.609   1.094   0.863 -0.4713  0.2559  0.4928
13118TIP3   OH260844   5.416   1.384  13.133  0.2709  0.5992 -0.0895
13118TIP3    H160845   5.417   1.409  13.225  0.3853 -0.9012  0.3320
13118TIP3    H260846   5.323   1.373  13.113  0.1540  2.0201 -0.5005
13119TIP3   OH260847   0.848   0.073   0.863 -0.3636  0.1830  0.0309
13119TIP3    H160848   0.880   0.142   0.805  0.6342 -0.3456 -0.0690
13119TIP3    H260849   0.895   0.087   0.945  0.1015 -0.5760 -0.0988
13120TIP3   OH260850   2.902   1.292   4.759  0.1252  0.2809  0.3613
13120TIP3    H160851   2.973   1.344   4.797  1.1784 -1.0386  0.2553
13120TIP3    H260852   2.887   1.332   4.673  1.5052 -0.0916 -0.0700
13121TIP3   OH260853   3.346   1.994   1.291 -0.3338  0.4584 -0.5126
13121TIP3    H160854   3.301   1.961   1.213  0.9639  0.8240 -1.4616
13121TIP3    H260855   3.307   1.947   1.364 -1.2956 -0.2080 -1.4342
13122TIP3   OH260856   1.386   6.537  16.342  0.6897  0.4990 -0.2533
13122TIP3    H160857   1.342   6.518  16.425  0.9020  0.8781 -0.0522
13122TIP3    H260858   1.314   6.558  16.282  0.4935 -0.3771 -0.3342
13123TIP3   OH260859   5.497   3.192   3.628 -0.5055 -0.4020 -0.1225
13123TIP3    H160860   5.419   3.160   3.582  2.4694 -3.5141 -3.5641
13123TIP3    H260861   5.550   3.234   3.560  1.6602  0.0034  1.6967
13124TIP3   OH260862   3.813   2.520   0.018 -0.5253 -0.3299  0.5117
13124TIP3    H160863   3.907   2.511   0.028 -0.0610  1.0820 -1.8243
13124TIP3    H260864   3.792   2.600   0.066 -1.0033 -1.8445  2.9907
13125TIP3   OH260865   1.650   1.332  16.806  0.0812  0.3938  0.6273
13125TIP3    H160866   1.646   1.427  16.801  2.2951  0.5436  0.4852
13125TIP3    H260867   1.711   1.315  16.878 -0.4756 -0.9305  0.8117
13126TIP3   OH260868   0.871   6.604   3.076 -0.3670 -0.4441  0.2438
13126TIP3    H160869   0.863   6.699   3.088 -0.3461 -0.2571 -1.0702
13126TIP3    H260870   0.856   6.591   2.983  0.7190 -1.6179  0.2137
13127TIP3   OH260871   5.206   1.233  17.199 -0.1168 -0.4970  0.6245
13127TIP3    H160872   5.137   1.295  17.225 -0.9010 -0.9465 -0.3238
13127TIP3    H260873   5.195   1.224  17.104  2.6814  1.1113  0.0379
13128TIP3   OH260874   3.636   5.776   0.836  0.5816  0.3312 -0.4794
13128TIP3    H160875   3.593   5.721   0.902  0.8319 -1.1945 -1.5440
13128TIP3    H260876   3.574   5.848   0.822 -0.3544 -0.3398  0.0460
13129TIP3   OH260877   4.276   6.362  13.389 -0.0026  0.0529 -0.3828
13129TIP3    H160878   4.371   6.357  13.379  0.4842 -0.1268  3.0503
13129TIP3    H260879   4.255   6.454  13.374  0.4391 -0.1609 -2.5652
13130TIP3   OH260880   2.576   2.493   0.021  0.0479  0.1393 -0.8520
13130TIP3    H160881   2.498   2.547   0.017  1.1661  1.7931 -1.5448
13130TIP3    H260882   2.633   2.536   0.085  0.6893 -0.5949 -0.9089
13131TIP3   OH260883   6.737   4.395  17.114  0.2363 -0.1388 -0.2695
13131TIP3    H160884   6.783   4.321  17.152  1.2980  1.0223  0.8159
13131TIP3    H260885   6.646   4.385  17.141  0.8882  0.5144  2.5087
13132TIP3   OH260886   2.787   1.863   5.730 -0.1138 -0.2114  0.3219
13132TIP3    H160887   2.778   1.921   5.654  0.2138  0.4377  0.7650
13132TIP3    H260888   2.766   1.919   5.805  3.3056  0.2890  1.0671
13133TIP3   OH260889   5.053   0.443   3.019  0.0162 -0.3338  0.3347
13133TIP3    H160890   5.103   0.519   3.049 -0.8968 -0.2740  1.7878
13133TIP3    H260891   5.009   0.473   2.940  0.8414  0.1673  0.0513
13134TIP3   OH260892   0.085   1.145  13.061 -0.0379  0.2001 -0.2012
13134TIP3    H160893   0.031   1.213  13.021  0.8160  0.2636 -1.2799
13134TIP3    H260894   0.172   1.184  13.069  0.2940 -0.5241 -0.1740
13135TIP3   OH260895   1.308   6.208   0.174  0.3328  0.0447  0.4786
13135TIP3    H160896   1.403   6.220   0.172  0.3650 -0.2918 -0.3130
13135TIP3    H260897   1.278   6.268   0.242  0.8779  1.8379 -0.7811
13136TIP3   OH260898   4.385   2.077   2.067  0.3490 -0.0996 -0.2916
13136TIP3    H160899   4.360   2.092   1.976  1.1002  0.0871 -0.4776
13136TIP3    H260900   4.475   2.110   2.072  0.5061 -0.6230  0.3738
13137TIP3   OH260901   1.005   4.795  11.958 -0.8293 -0.1459  0.0167
13137TIP3    H160902   1.027   4.825  12.046  1.3187 -0.0248 -0.5055
13137TIP3    H260903   0.972   4.706  11.970 -0.5096 -0.1460  0.9348
13138TIP3   OH260904   6.329   0.665  15.585 -0.1751  0.9922  0.3416
13138TIP3    H160905   6.377   0.655  15.668  2.9794  1.6471 -1.2692
13138TIP3    H260906   6.343   0.756  15.560 -0.1004  0.5231 -1.4521
13139TIP3   OH260907   3.450   5.598   2.400  0.0720  0.6089  0.2294
13139TIP3    H160908   3.399   5.571   2.324 -0.8704  0.9315  0.7169
13139TIP3    H260909   3.385   5.605   2.470  0.9985 -0.2645  1.2148
13140TIP3   OH260910   4.047   1.952  12.371 -0.0314  0.1440  0.1799
13140TIP3    H160911   4.000   2.028  12.404 -1.1783  0.1935 -1.4445
13140TIP3    H260912   4.129   1.951  12.420 -0.6250  1.5682  1.2598
13141TIP3   OH260913   0.768   4.568  15.561  0.1607 -0.4392 -0.0834
13141TIP3    H160914   0.679   4.538  15.542  0.3967 -0.1564 -1.8442
13141TIP3    H260915   0.783   4.638  15.497  2.2620 -1.6603 -0.9927
13142TIP3   OH260916   6.266   4.277  15.558 -0.6178 -0.4565  0.4428
13142TIP3    H160917   6.318   4.314  15.630 -0.9808 -0.9126  0.9389
13142TIP3    H260918   6.290   4.185  15.555  0.0682 -0.2630 -0.6135
13143TIP3   OH260919   6.590   4.874   3.319  0.8079  0.0515 -0.6709
13143TIP3    H160920   6.561   4.789   3.287  1.3888  0.2763 -1.8800
13143TIP3    H260921   6.510   4.922   3.338  0.4663 -0.4928 -0.7152
13144TIP3   OH260922   4.183   4.580   0.962  0.0663 -0.2122 -0.1581
13144TIP3    H160923   4.248   4.509   0.961 -0.3382 -0.5849 -1.0572
13144TIP3    H260924   4.228   4.654   0.922  0.4538  0.0159  0.6809
13145TIP3   OH260925   2.272   5.031  16.087 -0.2391 -0.4346  0.2386
13145TIP3    H160926   2.204   4.963  16.088 -0.1721 -0.5191  1.3981
13145TIP3    H260927   2.347   4.990  16.130  0.4980 -0.2797 -0.8638
13146TIP3   OH260928   4.019   2.401  13.415 -0.1399 -0.3034 -0.4100
13146TIP3    H160929   3.930   2.434  13.426  0.0831 -0.4294  2.8997
13146TIP3    H260930   4.013   2.308  13.439  0.5431 -0.9050 -2.3747
13147TIP3   OH260931   6.192   5.042   1.591 -0.5445 -0.4036 -0.3090
13147TIP3    H160932   6.110   5.025   1.637 -0.6211  0.0813 -0.2717
13147TIP3    H260933   6.258   5.045   1.660 -0.5182 -0.6032 -0.3224
13148TIP3   OH260934   3.732   1.512  15.964 -0.2493 -0.1283 -0.6643
13148TIP3    H160935   3.766   1.479  15.881  0.8371  0.7790 -0.5999
13148TIP3    H260936   3.760   1.603  15.967  2.9156 -0.9991  2.2709
13149TIP3   OH260937   4.062   6.247  14.740  0.0615 -0.5426  0.3955
13149TIP3    H160938   4.157   6.255  14.748 -0.0397 -0.5640  1.8758
13149TIP3    H260939   4.042   6.159  14.774 -0.3342 -1.2944 -1.6269
13150TIP3   OH260940   0.831   6.147   4.933 -0.1082  0.3148  0.4392
13150TIP3    H160941   0.826   6.242   4.928 -1.7093  0.2284 -0.4983
13150TIP3    H260942   0.784   6.124   5.013  1.2730  0.3479  1.2808
13151TIP3   OH260943   1.889   5.094   0.051 -0.2105  0.4241  0.3485
13151TIP3    H160944   1.972   5.084   0.097  0.1796 -0.1406 -0.4333
13151TIP3    H260945   1.824   5.101   0.120  0.4325  0.3595  0.9799
13152TIP3   OH260946   1.958   5.740  13.931 -0.0551  0.0447  0.1354
13152TIP3    H160947   1.937   5.820  13.980  1.3775  1.2665 -1.1509
13152TIP3    H260948   1.940   5.669  13.993 -2.3755  1.2506  0.9735
13153TIP3   OH260949   1.180   2.451  13.929  0.0511  0.3684  0.2927
13153TIP3    H160950   1.165   2.376  13.872 -1.0592  1.3003 -0.6944
13153TIP3    H260951   1.229   2.415  14.003 -1.6015 -1.5753  0.5239
13154TIP3   OH260952   3.462   5.568   5.768 -0.2960  0.4334  0.7278
13154TIP3    H160953   3.536   5.509   5.780 -0.8159 -0.9705 -2.2517
13154TIP3    H260954   3.387   5.521   5.806 -0.2025  0.5162  1.0198
13155TIP3   OH260955   3.319   2.296   3.489  0.0870  0.5127 -0.1950
13155TIP3    H160956   3.410   2.323   3.480 -0.1739  2.0187  1.3183
13155TIP3    H260957   3.319   2.236   3.564 -0.1967  0.5886 -0.1346
13156TIP3   OH260958   4.360   1.848  10.322  0.9016  0.0757  0.0200
13156TIP3    H160959   4.386   1.824  10.411 -0.0318 -2.7327 -0.3408
13156TIP3    H260960   4.315   1.770  10.289 -0.0883  1.5604 -2.4094
13157TIP3   OH260961   4.259   0.081   3.967  0.1919  0.4534 -0.0636
13157TIP3    H160962   4.318   0.022   4.015 -1.2461 -0.1894  0.9853
13157TIP3    H260963   4.219   0.025   3.900 -0.8742  0.3017  0.6735
13158TIP3   OH260964   5.601   6.038   6.842 -0.3421 -0.1924 -0.5867
13158TIP3    H160965   5.647   6.095   6.780 -1.0241  0.5633 -0.4202
13158TIP3    H260966   5.614   6.079   6.927 -1.4297  0.1222 -0.5563
13159TIP3   OH260967   3.292   5.188   4.213  0.5008  0.1019  0.2354
13159TIP3    H160968   3.214   5.131   4.205  0.1918  0.5236  0.1984
13159TIP3    H260969   3.348   5.160   4.141  0.6920 -0.6721  0.6733
13160TIP3   OH260970   2.556   2.370  10.301  0.3732  0.6161  0.0602
13160TIP3    H160971   2.582   2.278  10.292 -0.7108  0.5301 -3.6140
13160TIP3    H260972   2.469   2.366  10.342  0.7102  0.1004  0.7481
13161TIP3   OH260973   2.096   1.933   0.765  0.0114  0.6799 -0.0274
13161TIP3    H160974   2.106   1.977   0.680 -1.6652  0.5215 -0.3408
13161TIP3    H260975   2.015   1.884   0.757  0.8988 -1.0224  0.9741
13162TIP3   OH260976   1.782   5.235  12.459 -0.5639 -0.2225  0.7009
13162TIP3    H160977   1.788   5.215  12.553  0.8795 -1.0195  0.4802
13162TIP3    H260978   1.751   5.325  12.455  0.4060  0.2023  1.9853
13163TIP3   OH260979   5.160   6.002   6.106  0.6105 -0.5493  0.1673
13163TIP3    H160980   5.222   5.948   6.155 -0.7930 -1.5441  0.9298
13163TIP3    H260981   5.183   5.988   6.014  0.6039 -2.0836  0.3720
13164TIP3   OH260982   5.803   3.851  13.581 -0.3019 -0.4577 -0.3514
13164TIP3    H160983   5.772   3.815  13.498 -1.1114 -2.0424  0.5942
13164TIP3    H260984   5.885   3.805  13.598  1.0431  1.4635 -1.3056
13165TIP3   OH260985   5.076   1.196  14.694 -0.2754  0.3812 -0.3202
13165TIP3    H160986   5.057   1.106  14.668  0.1042  0.3228 -0.3915
13165TIP3    H260987   5.012   1.214  14.763 -0.3085  0.0345 -0.2554
13166TIP3   OH260988   0.337   0.792   4.553 -0.0236  0.4855 -0.1473
13166TIP3    H160989   0.429   0.793   4.582  0.0001  1.4781 -0.2276
13166TIP3    H260990   0.290   0.836   4.624 -0.7095 -1.5116  0.7030
13167TIP3   OH260991   4.250   1.646  16.048  0.1439  0.2783 -0.1413
13167TIP3    H160992   4.235   1.710  16.117 -0.0343 -1.4634  1.5152
13167TIP3    H260993   4.264   1.699  15.969 -0.9559  2.3136  0.9358
13168TIP3   OH260994   2.664   1.013   1.394  0.0030  0.3324  0.4039
13168TIP3    H160995   2.700   1.086   1.343  1.9479 -0.5744  0.4050
13168TIP3    H260996   2.576   1.042   1.418  0.7961  2.7950  0.6329
13169TIP3   OH260997   5.698   4.223  14.323  0.4822 -0.7653  0.1670
13169TIP3    H160998   5.658   4.236  14.408  0.0638 -2.0977  0.2056
13169TIP3    H260999   5.633   4.173  14.273  0.5807  0.2838 -1.0530
13170TIP3   OH261000   6.027   1.200  14.626  0.1414  0.3453 -0.6873
13170TIP3    H161001   5.961   1.248  14.575 -0.6511 -0.7106 -0.6779
13170TIP3    H261002   6.062   1.135  14.565 -1.2317 -1.3246  0.2202
13171TIP3   OH261003   3.197   6.475   2.460 -0.0193 -0.4602 -0.3987
13171TIP3    H161004   3.164   6.535   2.527  0.1833 -0.5352 -0.2305
13171TIP3    H261005   3.290   6.498   2.452  0.6651 -2.3351  1.3891
13172TIP3   OH261006   6.582   3.996   6.162 -0.0245  0.8338  0.3517
13172TIP3    H161007   6.642   4.050   6.213 -0.6411  0.8961  1.0153
13172TIP3    H261008   6.523   3.956   6.226 -0.7605  0.8485 -0.2889
13173TIP3   OH261009   4.890   3.113  12.745  0.2000  0.9726 -0.0767
13173TIP3    H161010   4.797   3.133  12.751  0.2583  1.3379 -0.3228
13173TIP3    H261011   4.931   3.167  12.813  0.0423 -0.5504  1.2671
13174TIP3   OH261012   5.670   6.676  15.792 -0.1671  0.0254 -0.1084
13174TIP3    H161013   5.639   6.607  15.733 -0.7335 -0.3208  0.5694
13174TIP3    H261014   5.734   6.633  15.847  0.2835  0.3220 -0.3972
13175TIP3   OH261015   2.529   1.109  14.000 -0.1302 -0.2748 -0.2159
13175TIP3    H161016   2.532   1.204  13.985 -2.1743 -0.0779  0.2599
13175TIP3    H261017   2.580   1.072  13.928  0.2856  1.1623 -0.6999
13176TIP3   OH261018   1.218   1.753  15.723 -0.0907 -0.3323 -0.4162
13176TIP3    H161019   1.248   1.746  15.814  0.6747  0.2650 -0.6086
13176TIP3    H261020   1.158   1.679  15.711 -2.1487  0.9332  1.3039
13177TIP3   OH261021   5.613   4.350   3.945  0.0108 -0.0054 -0.1447
13177TIP3    H161022   5.670   4.355   4.022  0.6581 -0.0727 -0.6109
13177TIP3    H261023   5.540   4.408   3.965 -0.0835 -0.4016  0.7286
13178TIP3   OH261024   4.327   4.299  11.926  0.0173 -0.0431 -0.9458
13178TIP3    H161025   4.341   4.251  12.007 -0.0199  0.3522 -0.7055
13178TIP3    H261026   4.340   4.233  11.857  0.5758 -0.2585 -0.6438
13179TIP3   OH261027   0.347   0.610   2.609 -0.5358 -0.3949 -0.2100
13179TIP3    H161028   0.321   0.671   2.540  0.1670 -0.5840 -0.6551
13179TIP3    H261029   0.343   0.662   2.690 -0.1563  0.1799 -0.5530
13180TIP3   OH261030   2.364   0.541   0.562 -0.0451 -0.2158 -0.0295
13180TIP3    H161031   2.280   0.518   0.602 -1.5150  1.2473 -2.0629
13180TIP3    H261032   2.428   0.485   0.606 -1.7888 -0.1178  2.8618
13181TIP3   OH261033   2.663   1.329  11.517 -0.3891 -0.2616 -0.5245
13181TIP3    H161034   2.638   1.264  11.451 -0.6218 -0.1188 -0.5801
13181TIP3    H261035   2.740   1.292  11.560 -0.1997 -0.3306 -0.9177
13182TIP3   OH261036   6.319   3.172  15.761  1.0353 -0.2958 -0.7346
13182TIP3    H161037   6.269   3.095  15.735  0.7023  0.2894 -1.8673
13182TIP3    H261038   6.409   3.152  15.738  0.9323 -0.3041 -1.1274
13183TIP3   OH261039   1.583   0.385  12.845 -0.6376  1.4008 -0.2519
13183TIP3    H161040   1.627   0.370  12.762  0.0025  2.2334 -0.0775
13183TIP3    H261041   1.631   0.331  12.908 -0.4328  1.5977 -0.2349
13184TIP3   OH261042   0.393   3.370   2.445 -0.1410  0.3988 -0.2458
13184TIP3    H161043   0.432   3.453   2.471  1.8523 -0.8640  1.0388
13184TIP3    H261044   0.299   3.382   2.460 -0.2119  3.0524 -2.0488
13185TIP3   OH261045   4.557   2.375   4.765 -0.2626  0.1372  0.2387
13185TIP3    H161046   4.574   2.342   4.854 -1.0833 -3.0248 -0.6356
13185TIP3    H261047   4.634   2.348   4.715 -0.1054  1.3105 -0.1742
13186TIP3   OH261048   1.452   0.864   4.905  0.4607 -0.0486  0.1743
13186TIP3    H161049   1.429   0.931   4.841 -1.9027 -0.0423  0.9118
13186TIP3    H261050   1.450   0.909   4.989  2.1867 -0.3505  0.4034
13187TIP3   OH261051   6.362   2.870  14.016 -0.3178  0.2268  0.1635
13187TIP3    H161052   6.341   2.951  14.062  3.6632  1.2054  0.6218
13187TIP3    H261053   6.295   2.862  13.949 -1.7440  3.0338  1.1002
13188TIP3   OH261054   6.568   4.300   0.228  0.2782  0.3771 -0.5563
13188TIP3    H161055   6.486   4.268   0.189 -0.5523  2.0427 -0.3066
13188TIP3    H261056   6.636   4.276   0.165 -0.2478 -1.8353 -0.3461
13189TIP3   OH261057   3.749   1.506   1.988  0.2598 -0.8337 -0.1957
13189TIP3    H161058   3.658   1.513   2.018  0.5690  0.3318  0.5279
13189TIP3    H261059   3.750   1.555   1.905  0.2042 -0.9351 -0.2562
13190TIP3   OH261060   3.977   5.105  14.755 -0.1515  0.2538  0.5914
13190TIP3    H161061   3.900   5.132  14.806 -0.3501 -1.8504  1.4917
13190TIP3    H261062   3.947   5.109  14.664 -1.2868 -0.3361  0.9168
13191TIP3   OH261063   1.607   5.991  13.305 -0.8107  0.7095  0.3213
13191TIP3    H161064   1.596   6.079  13.341  0.7983  0.4880  1.4345
13191TIP3    H261065   1.546   5.937  13.355  0.8440  0.5504  2.2723
13192TIP3   OH261066   6.261   6.466  12.827 -0.3199  0.3952  0.5956
13192TIP3    H161067   6.332   6.402  12.834 -0.3519  0.4348  1.5068
13192TIP3    H261068   6.304   6.551  12.842 -0.4176  0.5034  0.2622
13193TIP3   OH261069   4.608   5.270   4.630  0.2429  0.3267  0.0020
13193TIP3    H161070   4.549   5.339   4.599 -0.3167 -0.2705 -0.2873
13193TIP3    H261071   4.656   5.311   4.702 -0.3772  0.8923  0.1070
13194TIP3   OH261072   1.793   1.741   2.248 -0.2998 -0.3893 -0.0334
13194TIP3    H161073   1.842   1.819   2.274 -0.2429 -0.1707 -0.7883
13194TIP3    H261074   1.705   1.774   2.227 -0.3360 -0.5650 -0.1512
13195TIP3   OH261075   6.522   4.133   0.628 -0.4828  0.5218 -0.0704
13195TIP3    H161076   6.596   4.134   0.567  1.2964 -0.4275  1.9544
13195TIP3    H261077   6.542   4.063   0.690 -1.9812  1.7046  1.8857
13196TIP3   OH261078   1.762   1.824  11.752 -0.2157 -0.0164  0.4494
13196TIP3    H161079   1.802   1.860  11.832 -0.5261 -0.9547  1.0476
13196TIP3    H261080   1.832   1.826  11.687  0.2037  0.2504  0.8973
13197TIP3   OH261081   1.860   1.956  14.014 -0.5239 -0.0802 -0.3287
13197TIP3    H161082   1.866   1.862  14.029  0.2136 -0.1155 -0.7866
13197TIP3    H261083   1.767   1.976  14.021 -0.5878 -0.6810  0.6802
13198TIP3   OH261084   6.422   1.595  15.286 -0.0422  0.0511 -0.2394
13198TIP3    H161085   6.355   1.638  15.339  0.9350  1.3806 -0.0309
13198TIP3    H261086   6.402   1.622  15.196 -0.2793 -0.2337 -0.2715
13199TIP3   OH261087   6.251   2.571  11.966  0.3572  0.1610 -0.5543
13199TIP3    H161088   6.232   2.514  11.892  1.6637 -0.1622 -0.6553
13199TIP3    H261089   6.324   2.529  12.012  1.9698  2.1266 -1.1374
13200TIP3   OH261090   6.606   1.291   3.079  0.4765 -0.1543 -0.7883
13200TIP3    H161091   6.612   1.207   3.125  0.6558 -0.0083 -0.5366
13200TIP3    H261092   6.651   1.352   3.137 -1.1406  0.4669 -0.1398
13201TIP3   OH261093   4.198   0.743  15.344  0.4436  0.2474 -0.5042
13201TIP3    H161094   4.153   0.692  15.277 -0.7979 -1.5040  1.5177
13201TIP3    H261095   4.265   0.684  15.378  0.6348  0.8713  0.2200
13202TIP3   OH261096   0.797   3.508   1.571  0.4103  0.3070  0.2124
13202TIP3    H161097   0.759   3.469   1.492  5.2684 -0.7320 -1.9986
13202TIP3    H261098   0.825   3.433   1.624  1.4627  0.8779  0.5112
13203TIP3   OH261099   1.047   3.827   4.327  0.3394  0.1197 -0.5430
13203TIP3    H161100   1.005   3.784   4.252  2.2151 -0.6427 -1.2008
13203TIP3    H261101   1.027   3.770   4.401 -0.0696 -0.0394 -0.7696
13204TIP3   OH261102   4.394   2.362   6.629  0.1781 -0.0282  0.7634
13204TIP3    H161103   4.417   2.310   6.552 -1.1718 -1.2233  1.1058
13204TIP3    H261104   4.462   2.341   6.693  1.1729  0.7847  0.0114
13205TIP3   OH261105   0.055   1.455  14.878  0.5624 -0.1459 -0.1471
13205TIP3    H161106   0.063   1.543  14.842  0.4911 -0.7447 -1.6980
13205TIP3    H261107  -0.010   1.411  14.823 -0.4770 -0.7616  1.4730
13206TIP3   OH261108   2.128   2.825  16.559 -0.3293  0.4896  0.2477
13206TIP3    H161109   2.035   2.807  16.563 -0.1904 -1.4001 -2.2097
13206TIP3    H261110   2.165   2.784  16.637 -1.1882 -1.9558 -0.5501
13207TIP3   OH261111   3.522   1.689   5.145  0.0411  0.5776  0.2837
13207TIP3    H161112   3.572   1.681   5.225  0.5899 -0.8434 -0.1611
13207TIP3    H261113   3.558   1.621   5.087 -0.5490  1.3508 -1.0423
13208TIP3   OH261114   0.483   3.927  14.241 -0.0012 -0.3319  0.6099
13208TIP3    H161115   0.570   3.911  14.278  1.2729 -1.4734 -2.5463
13208TIP3    H261116   0.494   3.913  14.147 -3.5218 -0.0125  0.0200
13209TIP3   OH261117   4.463   6.240  13.018  0.5787 -0.0381 -0.6932
13209TIP3    H161118   4.425   6.322  13.050 -1.4025 -1.5861  1.2381
13209TIP3    H261119   4.534   6.221  13.080 -1.6512 -1.7673  1.5377
13210TIP3   OH261120   6.288   3.995  15.508  0.1808  0.4724 -0.0692
13210TIP3    H161121   6.384   3.999  15.514  0.2900  2.3729 -1.8498
13210TIP3    H261122   6.271   3.912  15.464  1.3405  1.5726 -2.8946
13211TIP3   OH261123   4.580   2.429  10.599 -0.0271  0.1511  0.0767
13211TIP3    H161124   4.499   2.427  10.650 -1.2127  0.8759 -1.6423
13211TIP3    H261125   4.645   2.386  10.654 -1.5257 -0.2505  1.6188
13212TIP3   OH261126   3.930   2.449  15.590 -0.0043  0.1663  0.0399
13212TIP3    H161127   3.875   2.516  15.550 -0.2043  0.4627  0.8079
13212TIP3    H261128   3.912   2.370  15.539 -0.5856  0.4343 -0.1757
13213TIP3   OH261129   6.827   0.488  12.595  0.4796  0.0969  0.2379
13213TIP3    H161130   6.863   0.569  12.632  0.6344  0.3490 -0.4538
13213TIP3    H261131   6.880   0.472  12.518  0.8578 -1.0145  0.7183
13214TIP3   OH261132   4.760   4.314  13.443  0.4587  0.2889  0.2420
13214TIP3    H161133   4.712   4.261  13.378 -1.3124  1.2971  0.6541
13214TIP3    H261134   4.845   4.271  13.450  0.9608  0.4102 -3.1078
13215TIP3   OH261135   5.709   4.043   4.066 -0.2512  0.5751  0.3518
13215TIP3    H161136   5.695   4.110   4.133 -0.6960  0.9221 -0.0836
13215TIP3    H261137   5.674   3.963   4.104  1.0117  0.3979  1.1998
13216TIP3   OH261138   0.239   5.811  16.155 -0.5404 -0.0502 -0.1824
13216TIP3    H161139   0.268   5.808  16.064 -1.2361  0.1274 -0.4210
13216TIP3    H261140   0.143   5.803  16.149 -0.5910  0.0200  0.5249
13217TIP3   OH261141   0.302   2.347  11.437  0.2645  0.3243  0.0222
13217TIP3    H161142   0.211   2.333  11.465  0.8260 -4.6153  0.3147
13217TIP3    H261143   0.297   2.349  11.341 -0.1463  0.2389  0.0404
13218TIP3   OH261144   2.778   0.184  11.305 -0.8019 -0.4776 -0.2270
13218TIP3    H161145   2.685   0.165  11.301 -1.3974  1.6420  1.6680
13218TIP3    H261146   2.783   0.279  11.317  1.6772 -0.2842 -1.9407
13219TIP3   OH261147   4.599   2.912   3.297 -0.5620  0.0438 -0.1215
13219TIP3    H161148   4.590   2.840   3.235 -0.9673 -0.8743  0.9657
13219TIP3    H261149   4.550   2.984   3.257  1.7678  0.5491 -2.3444
13220TIP3   OH261150   6.062   1.277  14.192  0.1778  0.4988 -0.5753
13220TIP3    H161151   6.008   1.310  14.120  0.6552  0.4424 -0.9703
13220TIP3    H261152   6.014   1.300  14.271  0.2840  1.7497 -0.8575
13221TIP3   OH261153   4.067   5.118  11.885 -0.8068 -0.8944  0.1566
13221TIP3    H161154   3.994   5.064  11.856 -3.2392  1.6237  1.1139
13221TIP3    H261155   4.044   5.144  11.975  1.0735  0.3122  0.3615
13222TIP3   OH261156   3.053   6.189   6.474  0.4451  0.2584 -0.0568
13222TIP3    H161157   3.065   6.284   6.465  1.4661 -0.0286 -2.3288
13222TIP3    H261158   3.082   6.153   6.391 -0.5989 -2.0308  0.4979
13223TIP3   OH261159   5.571   3.209   3.898  0.5293  0.1135 -0.1117
13223TIP3    H161160   5.658   3.246   3.915  1.7869 -2.4966 -0.4219
13223TIP3    H261161   5.563   3.208   3.803  0.1537  0.3102 -0.0860
13224TIP3   OH261162   0.548   6.376  10.685 -0.2751  0.4447  0.2622
13224TIP3    H161163   0.614   6.440  10.658  1.3746 -1.4625 -0.4413
13224TIP3    H261164   0.578   6.346  10.771 -1.1144  0.6957  0.6514
13225TIP3   OH261165   0.765   1.949   1.515 -0.4073 -0.0876  0.0476
13225TIP3    H161166   0.686   1.987   1.553  0.0053  0.3552  0.4643
13225TIP3    H261167   0.769   1.860   1.552 -0.1188  0.2690  0.8931
13226TIP3   OH261168   4.277   0.750   3.290  0.1500 -0.1558  0.2704
13226TIP3    H161169   4.335   0.823   3.310 -2.1541  1.9548 -0.1873
13226TIP3    H261170   4.300   0.682   3.353  1.6544  1.3853  1.4579
13227TIP3   OH261171   1.878   4.226  14.932 -0.4814  0.7366  0.1293
13227TIP3    H161172   1.790   4.231  14.895 -1.4994  0.5873  2.3628
13227TIP3    H261173   1.865   4.230  15.026  2.0132  1.7960  0.5135
13228TIP3   OH261174   6.263   3.713   6.452  0.3790  0.0962 -0.1158
13228TIP3    H161175   6.169   3.703   6.464  0.6629 -1.0367  1.4421
13228TIP3    H261176   6.283   3.661   6.374 -0.1832 -0.2478 -0.0342
13229TIP3   OH261177   5.835   5.715  15.766  0.1968 -0.1601  0.0924
13229TIP3    H161178   5.834   5.772  15.842  0.0513  0.1003 -0.1016
13229TIP3    H261179   5.924   5.722  15.731 -0.2687  1.3128 -0.9344
13230TIP3   OH261180   5.550   6.332  12.926  0.0783 -0.9474 -0.0165
13230TIP3    H161181   5.604   6.391  12.980 -1.6837 -0.1541  0.9579
13230TIP3    H261182   5.560   6.365  12.837 -1.3727  1.2911  0.5884
13231TIP3   OH261183   5.856   5.447  16.349 -0.7129  0.3816  0.1251
13231TIP3    H161184   5.811   5.362  16.345 -0.5102  0.2965 -0.4788
13231TIP3    H261185   5.793   5.509  16.315 -0.6662  0.3923  0.0596
13232TIP3   OH261186   0.676   0.787  14.515 -0.5463  0.2669  0.3949
13232TIP3    H161187   0.706   0.767  14.604  0.3670  0.3464  0.1198
13232TIP3    H261188   0.709   0.714  14.462 -1.9802 -0.3151  0.2761
13233TIP3   OH261189   5.961   2.502  12.083  0.1695  0.1195  0.2065
13233TIP3    H161190   6.016   2.424  12.075  1.9285  1.2591  0.5754
13233TIP3    H261191   5.904   2.484  12.158 -1.1163 -1.7105 -1.1267
13234TIP3   OH261192   3.813   0.448  16.259 -0.6626 -0.1379 -0.3767
13234TIP3    H161193   3.865   0.372  16.232 -0.5782 -0.4014  0.4939
13234TIP3    H261194   3.857   0.522  16.218 -0.6535 -0.5306 -1.1077
13235TIP3   OH261195   5.299   3.197   5.339  0.3856 -0.0100  0.1697
13235TIP3    H161196   5.337   3.284   5.351  2.6168 -0.7768 -0.6971
13235TIP3    H261197   5.293   3.161   5.427 -2.3044  1.6127  0.7563
13236TIP3   OH261198   3.659   4.505  16.772 -0.2486  0.1104  0.6131
13236TIP3    H161199   3.736   4.477  16.822  0.0867  0.4727  0.3027
13236TIP3    H261200   3.585   4.482  16.828  0.1473  1.1019  1.5761
13237TIP3   OH261201   2.719   2.061   5.898 -0.7415  0.0803  0.4488
13237TIP3    H161202   2.657   2.109   5.844 -0.1922 -0.0730 -0.3421
13237TIP3    H261203   2.786   2.125   5.921 -1.0061  0.1613  1.0123
13238TIP3   OH261204   0.426   2.754   5.136  0.2194 -0.3942  0.2037
13238TIP3    H161205   0.460   2.705   5.062 -0.1210  1.3285 -1.1563
13238TIP3    H261206   0.400   2.839   5.099 -1.7549 -0.1602  1.9151
13239TIP3   OH261207   0.367   5.287  12.235 -0.1812 -0.3279 -0.0266
13239TIP3    H161208   0.379   5.251  12.323  1.0209 -0.1701 -0.1061
13239TIP3    H261209   0.415   5.227  12.178  0.5434  0.5314 -0.3438
13240TIP3   OH261210   3.966   0.554   5.202  0.4112  0.0107  0.1331
13240TIP3    H161211   3.927   0.620   5.144 -1.7227 -1.4351 -0.1961
13240TIP3    H261212   4.009   0.492   5.142  1.1729  0.3364  0.3397
13241TIP3   OH261213   6.136   1.225  12.009 -0.2977  0.4936  0.2808
13241TIP3    H161214   6.189   1.157  11.969 -0.5210  0.7651 -0.5026
13241TIP3    H261215   6.155   1.220  12.103  0.5372  0.1066  0.0907
13242TIP3   OH261216   1.427   5.647  12.732 -0.5159  0.4999 -0.0202
13242TIP3    H161217   1.495   5.707  12.763 -0.3572  0.3740 -0.1238
13242TIP3    H261218   1.468   5.561  12.735 -1.2027  0.1738  1.5852
13243TIP3   OH261219   6.376   4.940   0.225  0.7996  0.1384  0.3567
13243TIP3    H161220   6.445   4.949   0.159  0.7151 -1.2187  0.0569
13243TIP3    H261221   6.307   4.892   0.181 -0.1066  0.9661  0.8414
13244TIP3   OH261222   0.740   5.544  15.318 -0.2849  0.5672  0.1215
13244TIP3    H161223   0.779   5.537  15.231 -0.4070 -1.1869  0.1607
13244TIP3    H261224   0.814   5.556  15.377  0.3341 -2.6836  0.1901
13245TIP3   OH261225   6.005   0.773  12.598  0.5886 -0.1256  0.2236
13245TIP3    H161226   5.922   0.805  12.564  0.9765  1.1693  0.4527
13245TIP3    H261227   6.057   0.752  12.520 -0.3060 -1.9885  0.0730
13246TIP3   OH261228   1.841   5.630   4.254 -0.2179 -0.2929  0.2081
13246TIP3    H161229   1.877   5.574   4.323 -0.6993 -1.2616 -0.3018
13246TIP3    H261230   1.917   5.669   4.213  0.1146 -0.3445  0.7642
13247TIP3   OH261231   0.485   5.313   6.457 -0.5458 -0.0140 -0.4902
13247TIP3    H161232   0.401   5.346   6.427 -1.2385 -1.8384 -0.6409
13247TIP3    H261233   0.464   5.242   6.517  0.8699 -0.7678 -0.8232
13248TIP3   OH261234   0.016   2.378   1.232 -0.0964  0.3477 -0.2757
13248TIP3    H161235   0.077   2.385   1.158  1.0184 -1.4874  0.4215
13248TIP3    H261236  -0.034   2.298   1.214  0.7413 -0.5712  1.3313
13249TIP3   OH261237   3.865   4.994  12.567 -0.6178  0.2614 -0.5292
13249TIP3    H161238   3.886   5.064  12.630 -0.6443 -0.2283  0.0368
13249TIP3    H261239   3.926   4.924  12.588 -2.4453 -1.0284  0.8732
13250TIP3   OH261240   5.196   6.020   3.422 -0.1485 -0.0452  0.3495
13250TIP3    H161241   5.146   5.939   3.420 -0.8577  0.3893 -1.0950
13250TIP3    H261242   5.231   6.028   3.333  3.2289 -0.7462  1.4685
13251TIP3   OH261243   4.780   2.407  15.442 -0.2494  0.2295 -0.3578
13251TIP3    H161244   4.826   2.327  15.466  0.1870  0.1289 -1.4569
13251TIP3    H261245   4.741   2.388  15.357  1.4243  1.7381 -1.5659
13252TIP3   OH261246   3.231   4.869  11.691  0.1230  0.2903  0.7877
13252TIP3    H161247   3.244   4.850  11.598 -0.8196 -2.2540  1.1164
13252TIP3    H261248   3.144   4.835  11.710  0.5162  0.2778  2.7392
13253TIP3   OH261249   6.677   3.213   1.536  0.3292 -0.0285 -0.5056
13253TIP3    H161250   6.739   3.153   1.576 -1.2335 -1.4739 -0.1325
13253TIP3    H261251   6.702   3.300   1.569  1.3490 -0.7286  0.6223
13254TIP3   OH261252   4.524   2.113   1.665 -0.0642 -0.7449 -0.3133
13254TIP3    H161253   4.558   2.032   1.704 -0.0392 -0.5367  0.0970
13254TIP3    H261254   4.432   2.116   1.691  0.9243  1.7767  3.9044
13255TIP3   OH261255   0.561   0.315  11.145  0.2587 -0.0288 -0.0373
13255TIP3    H161256   0.587   0.316  11.053  0.0345  1.4028 -0.1105
13255TIP3    H261257   0.554   0.407  11.169 -1.2722 -0.3689  0.9678
13256TIP3   OH261258   1.947   3.941  12.746  0.3790  0.0514  0.1952
13256TIP3    H161259   1.998   3.962  12.668  1.4328  1.2931  1.1654
13256TIP3    H261260   1.904   4.023  12.770 -0.2131 -0.4013  0.7141
13257TIP3   OH261261   2.228   0.765   4.255 -0.2470 -0.5579  0.0930
13257TIP3    H161262   2.193   0.796   4.339 -0.9165  0.4570 -0.5344
13257TIP3    H261263   2.282   0.838   4.224  0.9335 -1.3788  0.1617
13258TIP3   OH261264   3.900   4.744   3.770  0.7013  0.0540 -0.0122
13258TIP3    H161265   3.836   4.769   3.702  1.2508  0.6003 -0.3359
13258TIP3    H261266   3.944   4.667   3.733  1.7368  0.9763 -0.7690
13259TIP3   OH261267   3.706   0.233  11.380 -0.5343  0.4004 -0.3126
13259TIP3    H161268   3.650   0.216  11.304 -0.4087  1.2415 -0.6044
13259TIP3    H261269   3.740   0.147  11.405 -2.0370 -0.1573 -0.0610
13260TIP3   OH261270   1.086   3.852  13.276  0.2346  0.1846  0.1336
13260TIP3    H161271   1.127   3.923  13.325 -0.6644  2.9099 -2.6994
13260TIP3    H261272   1.155   3.819  13.219 -0.1502  1.2871 -1.0275
13261TIP3   OH261273   3.180   0.663   5.805 -0.0043  0.2083  0.3615
13261TIP3    H161274   3.154   0.584   5.852  0.6118 -0.0125  0.3470
13261TIP3    H261275   3.098   0.703   5.776 -0.2732 -1.5135 -1.4539
13262TIP3   OH261276   3.610   6.720  13.946  0.0088  0.2886 -0.6871
13262TIP3    H161277   3.641   6.803  13.982 -0.4269  0.4940 -0.7732
13262TIP3    H261278   3.680   6.691  13.888  1.4019 -0.7951  1.4086
13263TIP3   OH261279   0.412   6.258  16.334 -0.0589 -0.0023 -0.2196
13263TIP3    H161280   0.326   6.217  16.322 -0.5990  1.0375 -0.0323
13263TIP3    H261281   0.392   6.344  16.372  1.0522  0.3396 -0.3850
13264TIP3   OH261282   6.531   0.529  11.392 -0.0380 -0.0804 -0.3821
13264TIP3    H161283   6.581   0.607  11.369  0.3708 -1.1419 -3.5722
13264TIP3    H261284   6.580   0.489  11.464  0.9135  1.4529 -0.1250
13265TIP3   OH261285   0.242   5.250  11.506 -0.0779 -0.0785 -0.2712
13265TIP3    H161286   0.243   5.174  11.448 -1.7380 -0.4579  0.1287
13265TIP3    H261287   0.312   5.234  11.569 -1.7155 -2.3940  1.1011
13266TIP3   OH261288   6.660   6.221   2.781  0.7634  0.1069  0.5234
13266TIP3    H161289   6.729   6.280   2.751  0.7868  0.5197  1.3339
13266TIP3    H261290   6.701   6.171   2.852  0.5073 -0.3228  0.3709
13267TIP3   OH261291   4.867   0.359   3.996  0.3670 -0.2706  0.6108
13267TIP3    H161292   4.918   0.377   3.917 -1.7287  0.7518 -0.5948
13267TIP3    H261293   4.889   0.431   4.055 -0.0517  0.4774 -0.1147
13268TIP3   OH261294   2.063   3.025  15.701  0.0334 -0.1585 -0.4516
13268TIP3    H161295   2.050   3.088  15.773  0.6427 -1.0433  0.4619
13268TIP3    H261296   2.098   3.077  15.629  2.4276  0.2730  0.9328
13269TIP3   OH261297   4.665   0.034   5.730  0.2173  0.4883  0.4190
13269TIP3    H161298   4.609  -0.018   5.787  0.1454  1.4015  1.2141
13269TIP3    H261299   4.707  -0.030   5.672 -2.1992 -0.1692 -0.7344
13270TIP3   OH261300   6.020   3.004   0.430 -0.1080 -0.0159  0.5528
13270TIP3    H161301   6.073   3.067   0.381  0.0378 -0.9781 -0.5600
13270TIP3    H261302   6.016   2.927   0.374 -2.0156 -0.2690  0.9512
13271TIP3   OH261303   2.444   0.044  17.018  0.1376 -0.0040  0.1021
13271TIP3    H161304   2.512   0.013  16.958  0.1723 -2.0668  1.1135
13271TIP3    H261305   2.489   0.062  17.100 -0.2470  0.5829  0.1938
13272TIP3   OH261306   2.730   2.632   0.196  0.1004  0.1329  0.1813
13272TIP3    H161307   2.802   2.600   0.142 -1.0468  0.9578 -1.9522
13272TIP3    H261308   2.772   2.693   0.258  1.4893 -1.0860  0.4823
13273TIP3   OH261309   3.490   1.183  16.779  0.4790  0.4714 -0.2338
13273TIP3    H161310   3.430   1.255  16.762 -1.5117 -0.9867  0.1951
13273TIP3    H261311   3.501   1.183  16.874 -0.4015 -0.4187 -0.1207
13274TIP3   OH261312   3.120   6.244  16.034  0.1075  0.4260  0.1622
13274TIP3    H161313   3.052   6.222  16.098  0.9566 -0.3865  0.8164
13274TIP3    H261314   3.095   6.330  16.001 -0.6498  0.6137  1.1720
13275TIP3   OH261315   3.860   4.339  12.124 -0.2805  0.5453  0.0812
13275TIP3    H161316   3.864   4.434  12.122  0.6262  0.5085 -0.8914
13275TIP3    H261317   3.939   4.310  12.079 -0.1188 -0.6867  1.0796
13276TIP3   OH261318   2.841   3.752   5.191 -0.3683 -0.3392 -0.1978
13276TIP3    H161319   2.799   3.731   5.274 -1.1116  1.4914 -0.0661
13276TIP3    H261320   2.792   3.702   5.125 -0.4628 -0.9475  0.3217
13277TIP3   OH261321   6.060   0.440  14.029  0.0029  0.4529  0.1369
13277TIP3    H161322   6.133   0.421  14.088  0.1602  1.1485  0.1733
13277TIP3    H261323   6.032   0.528  14.053 -0.5357  0.3788 -0.2051
13278TIP3   OH261324   4.442   4.612  15.447 -0.1977 -0.0620 -0.2931
13278TIP3    H161325   4.510   4.591  15.511 -1.6628  2.4326  2.3292
13278TIP3    H261326   4.428   4.706  15.456 -1.8659  0.0748 -2.9903
13279TIP3   OH261327   3.297   1.113   6.069 -0.1526  0.1873  0.1833
13279TIP3    H161328   3.296   1.052   6.143 -0.1213  0.4602  0.4098
13279TIP3    H261329   3.268   1.197   6.106  0.4268  0.4656  0.0111
13280TIP3   OH261330   6.106   4.763  16.213 -0.0875 -0.3385  0.1574
13280TIP3    H161331   6.179   4.817  16.243 -0.8412  0.6184  0.2987
13280TIP3    H261332   6.129   4.740  16.122  0.3165  0.0805  0.1523
13281TIP3   OH261333   4.383   3.141   0.462  0.2973 -0.3951 -0.0331
13281TIP3    H161334   4.334   3.173   0.538  1.2134  0.3416  0.2784
13281TIP3    H261335   4.453   3.087   0.499  1.0013  0.3060 -0.3071
13282TIP3   OH261336   5.735   0.223   2.204  0.1677 -0.3084 -0.0189
13282TIP3    H161337   5.817   0.260   2.174  0.6724 -0.1451  1.4922
13282TIP3    H261338   5.721   0.262   2.291  0.0257 -2.5428  1.0353
13283TIP3   OH261339   0.582   1.945  15.830 -0.4472 -0.5085 -0.2696
13283TIP3    H161340   0.539   1.879  15.775 -1.9544  1.8448 -2.1416
13283TIP3    H261341   0.673   1.916  15.833 -0.8759 -2.2578 -1.6844
13284TIP3   OH261342   4.558   1.596   4.531 -0.2755  0.2220  0.1402
13284TIP3    H161343   4.649   1.617   4.554 -0.1073  0.2925 -0.5548
13284TIP3    H261344   4.519   1.680   4.508 -0.0877  0.0217 -0.9837
13285TIP3   OH261345   5.320   1.596   6.467  0.1164  0.3186  0.3085
13285TIP3    H161346   5.361   1.546   6.397  1.3614  0.7050  0.7294
13285TIP3    H261347   5.319   1.536   6.542  4.1396  1.6155  1.6529
13286TIP3   OH261348   1.553   5.876   3.359  0.3797  0.1669  0.0293
13286TIP3    H161349   1.619   5.843   3.297  1.3613  0.0339  1.1095
13286TIP3    H261350   1.593   5.864   3.445 -1.4186 -0.7327  0.8031
13287TIP3   OH261351   3.985   1.734   5.769 -0.2663 -0.0286  0.3086
13287TIP3    H161352   4.022   1.823   5.764 -1.3165  0.3917 -0.1635
13287TIP3    H261353   3.896   1.743   5.736  0.3260 -1.6745 -1.9760
13288TIP3   OH261354   2.710   2.079  11.001 -0.0767  0.3243 -0.9976
13288TIP3    H161355   2.802   2.072  10.978  0.1162 -0.1388 -0.1354
13288TIP3    H261356   2.679   1.988  11.005  0.9988 -0.1573  4.7031
13289TIP3   OH261357   2.571   2.631  11.858 -0.3541  0.2728 -0.6027
13289TIP3    H161358   2.643   2.681  11.896 -0.3953 -0.1325  0.0109
13289TIP3    H261359   2.519   2.696  11.810  0.5331  0.5348 -1.2281
13290TIP3   OH261360   6.378   3.501  11.578  0.0267 -0.0743  0.5898
13290TIP3    H161361   6.427   3.579  11.605  1.3823 -0.2070 -1.3038
13290TIP3    H261362   6.434   3.428  11.604 -0.5614 -0.3718  1.0440
13291TIP3   OH261363   5.219   2.784  14.283 -0.0591 -0.1381 -0.1394
13291TIP3    H161364   5.168   2.710  14.315  1.6264 -1.1222  0.3835
13291TIP3    H261365   5.207   2.783  14.188 -2.1458  0.5651  0.0588
13292TIP3   OH261366   0.506   4.196   4.184  0.0443 -0.0390 -0.3679
13292TIP3    H161367   0.516   4.235   4.098  1.3790  1.7115  0.5284
13292TIP3    H261368   0.590   4.152   4.201 -0.9586 -2.2979 -0.8024
13293TIP3   OH261369   2.662   6.104   0.607  0.4543 -0.3675  0.0551
13293TIP3    H161370   2.745   6.140   0.636  0.3018  1.1663 -1.2653
13293TIP3    H261371   2.610   6.095   0.687  1.1030  0.8426  0.6415
13294TIP3   OH261372   5.316   0.616   3.470  0.0024 -0.4312  0.1077
13294TIP3    H161373   5.242   0.644   3.523  0.2439  0.6820 -0.1215
13294TIP3    H261374   5.277   0.592   3.386  0.0674  2.1783 -0.7526
13295TIP3   OH261375   5.317   0.163  16.800 -0.8198  0.5290  0.1981
13295TIP3    H161376   5.239   0.127  16.842 -0.4788 -0.7870 -0.2461
13295TIP3    H261377   5.333   0.245  16.846  0.3595 -1.4620  3.7183
13296TIP3   OH261378   2.361   1.034   4.269  0.3446  0.7483  0.1073
13296TIP3    H161379   2.367   1.077   4.354 -0.6728  3.6736 -1.1682
13296TIP3    H261380   2.452   1.029   4.239  0.6217  0.5910  0.9357
13297TIP3   OH261381   5.450   4.907   0.824 -0.2277 -0.4893 -0.1388
13297TIP3    H161382   5.355   4.900   0.829 -0.2238  0.3852  1.7938
13297TIP3    H261383   5.471   4.989   0.869  1.5002 -1.0779  0.2032
13298TIP3   OH261384   0.428   0.895   1.777  0.0302  0.3238 -0.9208
13298TIP3    H161385   0.382   0.827   1.728 -0.1652  0.8284 -1.4448
13298TIP3    H261386   0.477   0.944   1.711  3.8009 -1.9709 -0.1790
13299TIP3   OH261387   3.276   3.029   3.509 -0.2570 -0.1045 -0.2955
13299TIP3    H161388   3.298   2.989   3.425  0.6526  1.8866 -1.0693
13299TIP3    H261389   3.331   2.983   3.572 -1.3702 -2.0341 -0.6194
13300TIP3   OH261390   1.875   1.205   1.221 -0.2800  0.6187  0.2394
13300TIP3    H161391   1.861   1.253   1.139 -1.3280 -0.0003  0.0422
13300TIP3    H261392   1.826   1.123   1.210  0.1405  0.2181  1.2115
13301TIP3   OH261393   5.606   5.723  12.179 -0.2765 -0.1730  0.0244
13301TIP3    H161394   5.565   5.808  12.197 -1.0504 -0.5159 -0.1217
13301TIP3    H261395   5.560   5.689  12.103  0.4085 -0.4822 -0.2589
13302TIP3   OH261396   2.172   6.054   1.092 -1.1101  0.1904  0.4557
13302TIP3    H161397   2.182   6.003   1.012 -1.4743 -0.7112  0.9720
13302TIP3    H261398   2.187   6.144   1.065  2.0943 -0.3669 -0.0259
13303TIP3   OH261399   3.904   0.122   1.224  0.0177  0.4875 -0.3909
13303TIP3    H161400   3.895   0.137   1.129  0.3592 -1.5992 -0.7993
13303TIP3    H261401   3.845   0.186   1.263 -0.8935  0.7463 -2.0660
13304TIP3   OH261402   1.899   1.993   6.143 -0.1049 -0.3056 -0.1178
13304TIP3    H161403   1.904   2.064   6.207  0.4822 -1.5029  1.2240
13304TIP3    H261404   1.836   2.023   6.078 -0.2364  1.2221  0.6792
13305TIP3   OH261405   6.319   3.587  16.868 -0.1583 -0.0829  0.2800
13305TIP3    H161406   6.349   3.678  16.870  2.5207 -0.8832  0.4158
13305TIP3    H261407   6.246   3.587  16.806 -0.6337  2.2453  0.7695
13306TIP3   OH261408   1.733   0.762   6.353  0.4280 -0.1460  0.3884
13306TIP3    H161409   1.793   0.831   6.326  0.7677 -0.9128 -0.8801
13306TIP3    H261410   1.664   0.762   6.287 -0.2402 -0.2022  1.0666
13307TIP3   OH261411   2.709   1.004   1.737  0.2262 -0.0646  0.2999
13307TIP3    H161412   2.616   0.982   1.734 -0.1957  1.2861  1.8277
13307TIP3    H261413   2.715   1.072   1.804  1.9957  1.4623 -1.2970
13308TIP3   OH261414   0.556   5.398  10.408 -0.6934  0.3813 -0.4725
13308TIP3    H161415   0.467   5.428  10.389 -1.1815 -1.1779 -0.8303
13308TIP3    H261416   0.595   5.467  10.462 -1.7988  1.5128 -1.0825
13309TIP3   OH261417   4.592   5.970   3.203  0.3026 -0.3618 -0.3008
13309TIP3    H161418   4.630   5.922   3.276  0.8230 -0.1088 -0.4026
13309TIP3    H261419   4.539   6.038   3.244  1.8837  0.8207 -0.1226
13310TIP3   OH261420   6.651   3.559  14.677 -0.7927  0.6089  0.5433
13310TIP3    H161421   6.599   3.495  14.628  1.3922  0.1857 -1.3942
13310TIP3    H261422   6.601   3.641  14.669 -1.9268 -0.0946  0.1179
13311TIP3   OH261423   3.289   0.401   0.493 -0.0794 -0.3533 -0.1727
13311TIP3    H161424   3.269   0.369   0.404 -1.1040 -0.3590  0.0421
13311TIP3    H261425   3.230   0.475   0.505  2.2521  1.7176 -0.6552
13312TIP3   OH261426   6.405   5.740   3.021  0.2610  0.1011 -0.1297
13312TIP3    H161427   6.313   5.763   3.010  0.6900  1.6599 -0.6520
13312TIP3    H261428   6.406   5.686   3.100 -0.8262  1.8837  1.1842
13313TIP3   OH261429   5.387   3.469   1.074 -0.3447 -0.2528  0.0512
13313TIP3    H161430   5.412   3.406   1.006  0.9178 -1.2873  1.3931
13313TIP3    H261431   5.389   3.554   1.030  0.7969 -0.8510 -1.1296
13314TIP3   OH261432   1.258   3.371   1.993 -0.1345 -0.2807  0.0904
13314TIP3    H161433   1.295   3.369   2.082  1.7708 -0.1533 -0.6617
13314TIP3    H261434   1.226   3.281   1.979 -2.9181  0.2869  1.8034
13315TIP3   OH261435   4.090   6.554   4.286 -0.3708  0.0237 -0.4153
13315TIP3    H161436   4.083   6.640   4.245  0.2719  0.8400  1.1140
13315TIP3    H261437   4.041   6.561   4.367  0.3806 -0.7785  0.1340
13316TIP3   OH261438   6.320   2.902  12.342  0.8239  0.4602  0.3008
13316TIP3    H161439   6.271   2.830  12.380 -0.9836  0.2834 -2.0889
13316TIP3    H261440   6.301   2.977  12.398  1.5320 -0.5619  1.9678
13317TIP3   OH261441   2.735   2.904   5.968  0.5712  0.2475  0.2363
13317TIP3    H161442   2.683   2.848   6.026 -0.4083  0.0719 -0.7840
13317TIP3    H261443   2.675   2.929   5.898  1.0176  2.4903  0.5830
13318TIP3   OH261444   6.229   1.031   6.107  0.0730 -0.4349  0.0965
13318TIP3    H161445   6.307   0.979   6.086  1.1564  0.7360  1.0377
13318TIP3    H261446   6.198   0.996   6.190  1.3332  0.8953  1.1987
13319TIP3   OH261447   1.428   0.830  15.730 -0.0248 -0.5756 -0.0657
13319TIP3    H161448   1.354   0.832  15.790 -0.5900  1.3011 -0.7701
13319TIP3    H261449   1.505   0.824  15.787 -0.6458 -1.1585  0.7288
13320TIP3   OH261450   4.758   3.314  12.012  0.1049 -0.1087 -0.0637
13320TIP3    H161451   4.740   3.406  11.994  0.7939  0.0839  0.2265
13320TIP3    H261452   4.844   3.298  11.973  0.4300 -0.3724  0.7498
13321TIP3   OH261453   4.834   6.835  14.047  0.7497  0.2278 -0.1076
13321TIP3    H161454   4.883   6.852  14.127  1.3325 -0.9284 -0.1894
13321TIP3    H261455   4.747   6.806  14.077 -0.1515  2.8659  0.0294
13322TIP3   OH261456   2.945   2.948   0.093 -0.4197 -0.1430  0.0902
13322TIP3    H161457   3.000   2.895   0.151  1.4931  2.5473  0.9082
13322TIP3    H261458   2.907   3.014   0.151 -2.6154 -0.4337 -0.9210
13323TIP3   OH261459   4.729   2.609  13.364 -0.2464 -0.2673  0.1645
13323TIP3    H161460   4.724   2.541  13.297  1.0740 -0.3435  0.1127
13323TIP3    H261461   4.809   2.658  13.343 -0.2705  0.2445  1.1747
13324TIP3   OH261462   2.685   6.446  14.150  0.4545  0.0932  0.4259
13324TIP3    H161463   2.600   6.429  14.191 -0.1549  0.4883 -0.6454
13324TIP3    H261464   2.679   6.536  14.120  1.1276  0.0071  0.0274
13325TIP3   OH261465   0.540   0.896   5.658 -0.0069  0.0478 -0.3179
13325TIP3    H161466   0.457   0.938   5.679  0.4526  0.7631  0.1017
13325TIP3    H261467   0.568   0.937   5.576  0.7016  0.9758  0.3658
13326TIP3   OH261468   2.459   5.930  15.719  0.3392  0.4501  0.5999
13326TIP3    H161469   2.466   5.890  15.633 -0.7218  0.7796  0.3458
13326TIP3    H261470   2.465   5.857  15.781  0.9527  0.1991  0.2427
13327TIP3   OH261471   1.431   2.775  15.672  0.5486  0.0351 -0.0261
13327TIP3    H161472   1.480   2.838  15.725 -1.6294 -0.3512  2.6646
13327TIP3    H261473   1.487   2.698  15.669  0.4700 -0.2148  2.5121
13328TIP3   OH261474   0.378   2.314   5.159  0.4341  0.0669 -0.4162
13328TIP3    H161475   0.458   2.361   5.136  0.0392  0.8849 -0.1759
13328TIP3    H261476   0.359   2.342   5.249  0.6773 -1.2617  0.0616
13329TIP3   OH261477   2.067   1.596   0.193  0.2573 -0.4519  0.0069
13329TIP3    H161478   2.023   1.596   0.278 -1.1380 -0.4937 -0.6763
13329TIP3    H261479   2.116   1.514   0.192  1.0508 -0.0126  1.1296
13330TIP3   OH261480   2.971   1.621  15.724 -0.3468  0.1455 -0.3726
13330TIP3    H161481   2.893   1.573  15.749 -0.7735  1.2012  0.4114
13330TIP3    H261482   3.019   1.561  15.667 -0.4563 -1.5096  1.1890
13331TIP3   OH261483   6.492   2.522   0.629 -0.4039 -0.3315 -0.2233
13331TIP3    H161484   6.499   2.537   0.534  0.4506 -0.6021 -0.2066
13331TIP3    H261485   6.536   2.598   0.668  4.7647 -2.9201 -0.1427
13332TIP3   OH261486   0.306   4.759  10.901  0.0895 -0.4676  0.6291
13332TIP3    H161487   0.289   4.675  10.945  0.6889 -1.7302 -1.3811
13332TIP3    H261488   0.380   4.741  10.844  0.3155  1.5116  0.2403
13333TIP3   OH261489   1.702   5.712   1.349 -0.1022  0.1266  0.3504
13333TIP3    H161490   1.732   5.641   1.405 -0.2179 -0.2083 -0.0036
13333TIP3    H261491   1.773   5.777   1.352  0.5945 -0.5785 -0.3420
13334TIP3   OH261492   3.628   4.397  13.923  0.0844 -0.1915 -0.0071
13334TIP3    H161493   3.591   4.472  13.876  1.1801 -0.4547 -1.3364
13334TIP3    H261494   3.601   4.321  13.872  0.7456 -0.5451  0.1583
13335TIP3   OH261495   4.063   5.360   1.587 -0.2254  0.1236  0.1188
13335TIP3    H161496   3.987   5.398   1.542  0.2394 -0.7729 -1.5130
13335TIP3    H261497   4.133   5.425   1.575  0.6904 -1.2433 -3.0411
13336TIP3   OH261498   6.065   5.838  12.112 -0.3339 -0.0705  0.6863
13336TIP3    H161499   6.013   5.792  12.177 -2.3628  0.8204 -0.2214
13336TIP3    H261500   6.045   5.793  12.029  0.1195  0.4701  0.2711
13337TIP3   OH261501   4.765   3.462   0.614  0.0205  0.0253  0.5775
13337TIP3    H161502   4.802   3.518   0.546  1.2053  0.2713  1.3892
13337TIP3    H261503   4.691   3.418   0.572  0.6018  0.3188 -0.8051
13338TIP3   OH261504   2.973   1.556  15.411 -0.0381 -0.4820 -0.3148
13338TIP3    H161505   2.993   1.650  15.420 -2.8108  0.0084  1.9174
13338TIP3    H261506   3.049   1.513  15.451  0.0848  0.9608  1.1709
13339TIP3   OH261507   3.096   6.833   3.368 -0.6067  0.8283  0.0669
13339TIP3    H161508   3.057   6.763   3.422 -1.3841 -0.4030 -1.9880
13339TIP3    H261509   3.189   6.811   3.363 -0.4631  1.1264  1.1018
13340TIP3   OH261510   5.773   5.224  13.740 -0.1635  0.3425 -0.3240
13340TIP3    H161511   5.722   5.304  13.751 -0.3754 -0.0573  2.3602
13340TIP3    H261512   5.784   5.190  13.829  3.8293 -0.2223 -0.8677
13341TIP3   OH261513   1.297   6.499   4.941 -0.5656 -0.1367 -0.7991
13341TIP3    H161514   1.388   6.502   4.972 -0.8370  0.9439 -0.0500
13341TIP3    H261515   1.247   6.548   5.006 -1.8279 -1.3448 -0.8106
13342TIP3   OH261516   3.040   0.650  16.814 -0.0676 -0.5184 -0.2923
13342TIP3    H161517   3.059   0.626  16.905  0.5614  1.4479  0.1525
13342TIP3    H261518   3.126   0.650  16.771  0.0858  1.4747 -0.0824
13343TIP3   OH261519   1.298   6.361  16.876 -0.5452 -0.3050  0.4759
13343TIP3    H161520   1.288   6.318  16.961  2.6627  1.7151  2.0804
13343TIP3    H261521   1.318   6.289  16.816 -0.1558 -1.5415  2.0061
13344TIP3   OH261522   0.581   4.082   0.650 -0.5723  0.1385  0.3808
13344TIP3    H161523   0.593   4.171   0.685  2.0134  0.3522 -0.8651
13344TIP3    H261524   0.502   4.089   0.596  0.8259  2.3799 -1.5957
13345TIP3   OH261525   0.159   1.263   0.838 -0.2539 -0.1951 -0.6600
13345TIP3    H161526   0.097   1.190   0.849 -0.4088  0.2022  1.3657
13345TIP3    H261527   0.197   1.276   0.924  1.6625  0.5047 -1.5608
13346TIP3   OH261528   5.092   0.912   2.937 -0.3035 -0.0043  0.0710
13346TIP3    H161529   5.029   0.949   2.999  0.3341 -0.3373  0.9485
13346TIP3    H261530   5.052   0.924   2.851 -1.5426 -0.1733  0.6038
13347TIP3   OH261531   1.593   2.474   3.546 -0.0268 -0.0920 -0.1092
13347TIP3    H161532   1.660   2.515   3.601 -1.0610 -1.7394  2.5438
13347TIP3    H261533   1.518   2.533   3.550 -0.5029 -0.7661  1.2727
13348TIP3   OH261534   5.525   2.791   5.273 -0.6762  0.6748 -0.7924
13348TIP3    H161535   5.595   2.729   5.252 -1.1476  0.6236 -2.3282
13348TIP3    H261536   5.570   2.872   5.295 -0.1206  0.5500 -1.4382
13349TIP3   OH261537   3.032   5.649  16.571  0.1084 -0.2965 -0.0921
13349TIP3    H161538   3.074   5.626  16.488  0.3611  1.5940 -0.5212
13349TIP3    H261539   3.021   5.565  16.616  1.2047 -1.2071 -1.4448
13350TIP3   OH261540   6.651   1.861  15.618 -0.0336 -0.0903 -0.0607
13350TIP3    H161541   6.669   1.911  15.697  1.3772  1.2443 -1.1562
13350TIP3    H261542   6.599   1.786  15.647  0.0463  0.6224  2.0261
13351TIP3   OH261543   6.673   2.213   1.535  0.5831  0.2051 -0.4559
13351TIP3    H161544   6.718   2.258   1.607 -0.1596  0.1928  0.0295
13351TIP3    H261545   6.584   2.200   1.568  0.4858 -0.6078 -1.0358
13352TIP3   OH261546   4.724   0.531   9.987  0.4487 -0.5338  0.2640
13352TIP3    H161547   4.767   0.616   9.977  0.4573 -0.6603 -0.8558
13352TIP3    H261548   4.685   0.535  10.075  0.1821  0.7429  0.1145
13353TIP3   OH261549   4.846   0.113  12.459 -0.7757 -0.0707 -0.5783
13353TIP3    H161550   4.792   0.150  12.389 -1.6762  2.1616  1.1374
13353TIP3    H261551   4.862   0.187  12.518  1.8932 -1.3230  0.4059
13354TIP3   OH261552   6.033   3.576   4.752 -0.0319 -0.4107 -0.0109
13354TIP3    H161553   6.069   3.525   4.679 -0.2783 -0.7184  0.0795
13354TIP3    H261554   5.960   3.624   4.713 -0.0584 -0.4467 -0.0058
13355TIP3   OH261555   5.151   2.567   0.739 -0.1617 -0.6591 -0.1307
13355TIP3    H161556   5.145   2.575   0.834  3.1041  1.1128  0.0925
13355TIP3    H261557   5.164   2.657   0.708  0.4955 -1.3609 -2.0614
13356TIP3   OH261558   5.523   0.470   6.011  0.0880 -0.1641 -0.4156
13356TIP3    H161559   5.570   0.403   6.061 -0.1777 -0.4205 -0.5066
13356TIP3    H261560   5.558   0.553   6.044  2.1042 -0.3489 -1.9284
13357TIP3   OH261561   1.144   3.194   6.129  0.3354 -0.1451 -0.4535
13357TIP3    H161562   1.177   3.104   6.128  0.2981 -0.1558 -1.2397
13357TIP3    H261563   1.220   3.247   6.154  0.3264 -0.4067  0.1292
13358TIP3   OH261564   1.192   6.586   2.170 -0.3400 -0.0166  0.7278
13358TIP3    H161565   1.261   6.520   2.160  0.1172  0.2621  1.9373
13358TIP3    H261566   1.155   6.569   2.256  0.4721  1.9219  1.5067
13359TIP3   OH261567   5.986   4.549  13.163  0.6088 -0.0983  0.3481
13359TIP3    H161568   5.912   4.512  13.115 -1.0209  3.0254  0.1826
13359TIP3    H261569   5.983   4.508  13.249 -1.8354  0.4361  0.5829
13360TIP3   OH261570   1.435   2.560   4.331  0.2000  0.0459 -0.3451
13360TIP3    H161571   1.518   2.595   4.297  0.0184  0.6347 -0.1821
13360TIP3    H261572   1.427   2.474   4.289  0.3787  0.4257 -1.1740
13361TIP3   OH261573   1.869   5.225  15.194  0.2269 -0.4302 -0.2296
13361TIP3    H161574   1.957   5.261  15.201 -0.7321  1.7816  1.4727
13361TIP3    H261575   1.845   5.203  15.284 -1.6367  0.8194 -0.3658
13362TIP3   OH261576   0.390   4.551   4.709 -0.0137  0.0098  0.1267
13362TIP3    H161577   0.355   4.580   4.793 -1.3944 -0.0151 -0.4123
13362TIP3    H261578   0.412   4.458   4.722 -0.9538 -0.2000  0.2454
13363TIP3   OH261579   5.239   6.476  12.891  0.0172  0.2038 -0.5385
13363TIP3    H161580   5.308   6.431  12.842  0.5084 -0.2124  0.5171
13363TIP3    H261581   5.185   6.518  12.823  0.0028 -1.3040 -1.5014
13364TIP3   OH261582   4.184   3.417  11.840 -0.2761 -0.6249  0.6913
13364TIP3    H161583   4.167   3.489  11.902 -2.9079 -1.8023  1.4907
13364TIP3    H261584   4.279   3.407  11.840 -0.0182  1.1961  2.4898
13365TIP3   OH261585   0.038   1.892   4.768 -0.4714  0.7401  0.3538
13365TIP3    H161586   0.026   1.876   4.862  0.8097 -0.0820  0.4128
13365TIP3    H261587   0.065   1.983   4.762 -1.2625  1.0056  0.7082
13366TIP3   OH261588   0.590   5.355   4.562 -0.1806  0.1667  0.0291
13366TIP3    H161589   0.609   5.421   4.495 -0.3017  0.2677  0.0920
13366TIP3    H261590   0.502   5.325   4.541 -0.6851  1.0368  0.8160
13367TIP3   OH261591   5.512   3.959   3.636 -0.2758  0.2286  0.4617
13367TIP3    H161592   5.548   3.917   3.714  0.7548  1.6476  0.8105
13367TIP3    H261593   5.580   3.948   3.570 -0.4867  0.3472  0.2269
13368TIP3   OH261594   1.216   0.914   4.541 -0.4370 -0.3463  0.0791
13368TIP3    H161595   1.244   1.005   4.550  0.9279 -0.3434 -2.8953
13368TIP3    H261596   1.262   0.868   4.611  1.3732  0.8185 -0.2663
13369TIP3   OH261597   0.759   6.085   2.533 -0.3802 -0.5414  0.4534
13369TIP3    H161598   0.797   6.041   2.609  1.2053  1.6249  1.0178
13369TIP3    H261599   0.693   6.144   2.571  0.5466  0.6849  0.2364
13370TIP3   OH261600   1.575   2.183   5.328  0.4643 -0.7838  0.4254
13370TIP3    H161601   1.615   2.149   5.408  1.0743 -1.3462 -0.0990
13370TIP3    H261602   1.626   2.262   5.308  0.4181 -0.7339  0.5045
13371TIP3   OH261603   3.592   0.063   5.422 -0.2535 -0.2372 -0.0833
13371TIP3    H161604   3.621   0.088   5.510 -0.3187  0.4844 -0.2673
13371TIP3    H261605   3.554   0.142   5.385 -0.8614 -0.7155 -0.5088
13372TIP3   OH261606   0.593   0.282  14.198  0.2660  0.1165 -0.3639
13372TIP3    H161607   0.547   0.239  14.126  0.2567 -1.1334  0.3619
13372TIP3    H261608   0.556   0.371  14.200 -1.1065 -0.4204 -0.7037
13373TIP3   OH261609   1.456   0.469   2.392 -0.1987 -0.3074  0.1999
13373TIP3    H161610   1.416   0.384   2.407 -3.0063  1.1524  1.7188
13373TIP3    H261611   1.384   0.532   2.400  1.7559  2.2424 -0.7604
13374TIP3   OH261612   5.984   1.807   5.598 -0.3217  0.2630  0.0794
13374TIP3    H161613   5.907   1.754   5.581  0.4482 -0.7760 -0.2767
13374TIP3    H261614   5.950   1.891   5.629 -1.5511 -0.5402  0.9553
13375TIP3   OH261615   3.083   2.397   5.725  0.0678  0.1972  0.1437
13375TIP3    H161616   3.177   2.418   5.727 -0.0136  0.5236  0.7108
13375TIP3    H261617   3.045   2.465   5.670  0.1169  0.2571  0.1834
13376TIP3   OH261618   0.380   0.830  16.198  0.1055 -0.1436 -0.3289
13376TIP3    H161619   0.343   0.913  16.168  0.8563  0.7478  1.1243
13376TIP3    H261620   0.472   0.849  16.216 -0.0403 -0.8710  1.4414
13377TIP3   OH261621   0.689   4.043  14.461 -0.1378 -0.5608 -0.3188
13377TIP3    H161622   0.615   4.073  14.514 -1.6495 -2.1313 -1.4368
13377TIP3    H261623   0.710   4.118  14.405  0.4350  0.5653  1.3431
13378TIP3   OH261624   6.385   3.326  16.257 -0.4046  0.6978 -0.2946
13378TIP3    H161625   6.451   3.346  16.191  0.0322  0.8111  0.1735
13378TIP3    H261626   6.319   3.276  16.210  1.2088 -1.6303 -0.2289
13379TIP3   OH261627   3.237   0.389  17.055  0.0678  0.3082  0.4265
13379TIP3    H161628   3.186   0.440  17.118  0.7493  1.6299 -0.0619
13379TIP3    H261629   3.199   0.301  17.059 -0.8749  0.7451  1.5772
13380TIP3   OH261630   0.687   3.948   3.758 -0.2083  0.2567  0.5496
13380TIP3    H161631   0.665   3.855   3.767  0.5360  0.0587  0.3652
13380TIP3    H261632   0.761   3.961   3.817  1.2566  0.1550 -1.1702
13381TIP3   OH261633   3.341   0.938  15.414 -0.1087  0.1403  0.1851
13381TIP3    H161634   3.409   0.946  15.347  1.2387 -2.6248  1.0950
13381TIP3    H261635   3.364   1.005  15.479 -1.0702  2.4166 -1.6752
13382TIP3   OH261636   0.905   3.266   6.265  0.4595 -0.5423 -0.4068
13382TIP3    H161637   0.833   3.206   6.248 -1.0930  1.3105 -0.5971
13382TIP3    H261638   0.979   3.229   6.217 -0.4772 -2.1976 -0.6391
13383TIP3   OH261639   5.322   4.432   5.919  0.0019 -0.1939  0.5358
13383TIP3    H161640   5.380   4.416   5.844  1.2589  2.1544  0.9279
13383TIP3    H261641   5.364   4.385   5.991  0.1570 -0.4111  0.3069
13384TIP3   OH261642   1.156   3.483   6.418  0.3238 -0.1144  0.7158
13384TIP3    H161643   1.208   3.421   6.367 -0.7100 -1.0159  0.6926
13384TIP3    H261644   1.116   3.429   6.486 -3.0939 -0.1832 -1.1313
13385TIP3   OH261645   5.933   6.761   4.010  0.5373  0.9487 -0.0142
13385TIP3    H161646   6.011   6.742   4.061  0.2122 -0.6045 -0.0631
13385TIP3    H261647   5.874   6.806   4.072  1.1536  1.4483  0.2211
13386TIP3   OH261648   3.675   1.212  14.805  0.4527 -0.1889 -0.1099
13386TIP3    H161649   3.605   1.164  14.849  0.4109 -1.8713 -1.8702
13386TIP3    H261650   3.752   1.200  14.861  0.0253 -0.8715  0.3473
13387TIP3   OH261651   0.591   4.813  11.921  0.3525  0.3146 -0.4428
13387TIP3    H161652   0.528   4.788  11.855 -0.6931  1.9668 -0.1255
13387TIP3    H261653   0.581   4.747  11.990  0.0307 -0.2716 -1.0403
13388TIP3   OH261654   6.628   1.714   3.290 -0.4234  0.4171 -0.3215
13388TIP3    H161655   6.682   1.721   3.369 -0.8917  0.4189  0.0019
13388TIP3    H261656   6.546   1.759   3.312 -0.4428  0.6743 -0.9123
13389TIP3   OH261657   0.119   6.253   4.858  0.2914 -0.2161  0.6195
13389TIP3    H161658   0.138   6.159   4.853  0.5255 -0.1930  1.0506
13389TIP3    H261659   0.094   6.277   4.769  0.2600 -0.6817  0.4994
13390TIP3   OH261660   4.838   5.076  16.576 -0.5213 -0.5724 -0.0487
13390TIP3    H161661   4.819   4.993  16.619  0.4071 -0.9970 -0.4365
13390TIP3    H261662   4.753   5.104  16.541 -1.1863 -0.4970  1.5282
13391TIP3   OH261663   3.754   4.533  14.251  0.0001  0.2456  0.2384
13391TIP3    H161664   3.845   4.521  14.280  0.3632  0.2090 -0.8576
13391TIP3    H261665   3.708   4.456  14.285  0.8005 -0.7192 -0.7653
13392TIP3   OH261666   5.122   6.204   0.741  0.0229  0.1240 -0.0866
13392TIP3    H161667   5.054   6.271   0.749  0.3144  0.3254  1.0065
13392TIP3    H261668   5.185   6.241   0.679 -1.0567 -0.2545 -1.4479
13393TIP3   OH261669   2.054   4.195   3.107 -0.3991  0.6100 -0.4116
13393TIP3    H161670   2.120   4.183   3.039  0.1670  1.4303 -0.0190
13393TIP3    H261671   1.997   4.118   3.099  0.7481 -0.2488 -0.5994
13394TIP3   OH261672   0.316   0.500  15.847  0.7406  0.6816  0.3842
13394TIP3    H161673   0.380   0.440  15.809  0.4738 -1.2402  2.7251
13394TIP3    H261674   0.273   0.449  15.915 -1.1771  2.8629  0.9307
13395TIP3   OH261675   5.116   0.965   2.193 -0.6728 -0.1424  0.0426
13395TIP3    H161676   5.145   0.897   2.253 -0.4549 -0.5411 -0.5081
13395TIP3    H261677   5.032   0.934   2.160 -1.1160  0.3941  0.6430
13396TIP3   OH261678   4.335   3.874  12.443  0.1338 -0.5235 -0.3118
13396TIP3    H161679   4.355   3.833  12.527  0.6545  0.6188  0.1394
13396TIP3    H261680   4.419   3.879  12.398 -0.0793 -0.7761 -0.7448
13397TIP3   OH261681   2.801   3.139   1.947  0.1156 -0.2454  0.1553
13397TIP3    H161682   2.869   3.112   1.886 -2.1009 -1.6147 -1.8932
13397TIP3    H261683   2.721   3.098   1.913 -2.4980  4.1706  0.2028
13398TIP3   OH261684   1.590   6.271   4.348  0.0778 -0.1263 -0.0587
13398TIP3    H161685   1.684   6.260   4.363  0.3770  0.3470 -1.4615
13398TIP3    H261686   1.554   6.183   4.355  0.6593 -0.3448  0.2704
13399TIP3   OH261687   5.268   3.575   1.289  0.1525  0.2057 -0.3119
13399TIP3    H161688   5.322   3.575   1.368  0.2989 -0.4245 -0.4063
13399TIP3    H261689   5.312   3.515   1.229 -2.1182 -2.6059  0.6360
13400TIP3   OH261690   5.264   1.885  15.422  0.1816  0.2124  0.4649
13400TIP3    H161691   5.212   1.911  15.498 -0.1233 -0.9873  0.6882
13400TIP3    H261692   5.303   1.967  15.391  3.3973  0.3393  4.1179
13401TIP3   OH261693   5.295   2.110  16.264 -0.2299  0.5058  0.2393
13401TIP3    H161694   5.346   2.039  16.223 -2.0161 -1.8211  1.7543
13401TIP3    H261695   5.220   2.122  16.206 -2.0273 -1.8158  1.8573
13402TIP3   OH261696   2.728   0.849  13.253 -0.0971  0.3977  0.0192
13402TIP3    H161697   2.803   0.804  13.215  0.6604 -0.4389  2.3792
13402TIP3    H261698   2.739   0.841  13.347 -2.5751  1.2248  0.4694
13403TIP3   OH261699   2.054   4.799   1.926 -0.0142  0.2970  0.1790
13403TIP3    H161700   1.976   4.832   1.968  0.0804  1.9544 -0.8584
13403TIP3    H261701   2.038   4.809   1.832 -0.3191 -3.4784 -0.3484
13404TIP3   OH261702   4.849   3.413  15.971 -0.1160 -0.0876 -0.5547
13404TIP3    H161703   4.928   3.404  16.024  1.1210 -0.1367 -2.3087
13404TIP3    H261704   4.865   3.490  15.916 -1.5517  0.2498 -0.5552
13405TIP3   OH261705   5.057   4.098   4.846  0.1325 -0.7376  0.2143
13405TIP3    H161706   5.013   4.128   4.925  1.0600  0.5774  0.2595
13405TIP3    H261707   5.000   4.125   4.774  0.2045 -0.2578  0.3395
13406TIP3   OH261708   1.775   3.486   4.498  0.2621  0.5360  0.7483
13406TIP3    H161709   1.857   3.522   4.531  0.7924  0.4638 -0.4311
13406TIP3    H261710   1.755   3.539   4.421 -0.2431 -0.1238  0.4185
13407TIP3   OH261711   2.442   0.610  13.998 -0.0226 -0.4283 -0.2928
13407TIP3    H161712   2.453   0.682  13.936  0.7570  0.4661  0.8323
13407TIP3    H261713   2.437   0.532  13.944  0.9494  0.2871 -1.4633
13408TIP3   OH261714   1.979   0.541  14.059 -0.2098 -0.2894 -0.1335
13408TIP3    H161715   1.953   0.467  14.004  0.5128  0.4070 -1.4622
13408TIP3    H261716   1.957   0.618  14.007  0.7250  0.3816  0.4345
13409TIP3   OH261717   4.563   5.841  13.114 -0.5634 -0.3750 -0.2556
13409TIP3    H161718   4.558   5.867  13.022 -0.7943 -1.1545 -0.4677
13409TIP3    H261719   4.616   5.761  13.114 -0.8389 -0.5656  0.2464
13410TIP3   OH261720   0.132   4.115   2.404 -0.2520 -0.6921  0.6310
13410TIP3    H161721   0.105   4.172   2.332 -0.9120 -0.3367  1.1516
13410TIP3    H261722   0.050   4.082   2.441  0.0738 -0.8752  1.2131
13411TIP3   OH261723   5.841   4.664  12.294 -0.1356 -0.2398  0.2211
13411TIP3    H161724   5.804   4.649  12.207  0.9187 -2.2644  0.0709
13411TIP3    H261725   5.844   4.578  12.334  1.6367  0.2993  1.3396
13412TIP3   OH261726   5.458   3.321   0.872  0.1676 -0.5230  0.0915
13412TIP3    H161727   5.527   3.289   0.813 -0.0600  1.8854 -1.6535
13412TIP3    H261728   5.386   3.258   0.862  1.0038 -1.4211 -0.3941
13413TIP3   OH261729   6.197   2.618  15.738  0.7386 -0.3700 -0.4814
13413TIP3    H161730   6.123   2.557  15.736 -0.0664  0.5947 -1.9511
13413TIP3    H261731   6.263   2.574  15.792 -0.5221 -1.6926  0.0465
13414TIP3   OH261732   2.990   3.273  11.096  0.0487  0.0498  0.5091
13414TIP3    H161733   2.988   3.363  11.130  0.6374  0.0730  0.4985
13414TIP3    H261734   2.909   3.264  11.047  0.9213  1.3084 -1.3122
13415TIP3   OH261735   4.050   1.517   3.156 -0.0443  0.2525 -0.1057
13415TIP3    H161736   4.035   1.612   3.151 -1.6753 -0.0478 -1.6974
13415TIP3    H261737   4.052   1.489   3.065  0.2781 -1.2943  0.3582
13416TIP3   OH261738   5.534   1.707   1.022  0.2154 -0.1099  0.1126
13416TIP3    H161739   5.455   1.762   1.027  0.1455 -0.2777  1.2403
13416TIP3    H261740   5.507   1.630   0.973 -0.7477 -0.8125  1.6656
13417TIP3   OH261741   4.953   4.190  11.675 -0.1208 -0.3938 -0.0385
13417TIP3    H161742   4.963   4.109  11.625  0.6851 -0.6127  0.4585
13417TIP3    H261743   4.919   4.162  11.760  1.9161 -0.4689  0.8194
13418TIP3   OH261744   0.078   4.479   4.212  0.0430  0.1080  0.0396
13418TIP3    H161745   0.015   4.550   4.196  0.3927  0.0521 -1.8242
13418TIP3    H261746   0.156   4.505   4.163  0.2280 -1.4758 -0.5613
13419TIP3   OH261747   3.271   5.469   5.252 -0.0596 -0.1206  0.0104
13419TIP3    H161748   3.200   5.532   5.243  1.1952  1.5251  1.1297
13419TIP3    H261749   3.343   5.519   5.290  1.1321 -2.1507  0.5518
13420TIP3   OH261750   4.188   2.335  11.796  0.0651  0.1285  0.1499
13420TIP3    H161751   4.260   2.274  11.782  0.8821  1.3917 -1.6775
13420TIP3    H261752   4.208   2.379  11.878 -0.1117 -1.4506  1.0618
13421TIP3   OH261753   6.009   4.370  12.895 -0.2003 -0.4276 -0.4196
13421TIP3    H161754   5.988   4.427  12.821  0.2178  1.6751  0.9982
13421TIP3    H261755   6.060   4.425  12.954 -0.5864 -2.0204  1.5019
13422TIP3   OH261756   4.915   0.511  16.683  0.2684 -0.1695 -0.3214
13422TIP3    H161757   4.887   0.576  16.619  1.1040  1.6786  1.1171
13422TIP3    H261758   4.838   0.498  16.739  0.0626 -0.5360 -0.6839
13423TIP3   OH261759   1.213   5.481  11.609 -0.3061 -0.3636  0.0109
13423TIP3    H161760   1.247   5.392  11.607  1.4414  0.2862 -1.8441
13423TIP3    H261761   1.154   5.486  11.534 -0.8974 -0.1071  0.4759
13424TIP3   OH261762   0.840   6.818  14.565 -0.5882 -0.3546  0.1410
13424TIP3    H161763   0.778   6.856  14.503 -0.6370  0.4354  0.6632
13424TIP3    H261764   0.920   6.803  14.515 -0.8169 -0.2711 -0.2475
13425TIP3   OH261765   0.202   5.028   1.647  0.5533 -0.1075  0.4436
13425TIP3    H161766   0.142   4.977   1.702  0.1143 -0.4935 -0.3671
13425TIP3    H261767   0.157   5.111   1.632 -0.2683 -0.7620 -0.9719
13426TIP3   OH261768   2.259   5.339  13.973  0.2570 -0.4216  0.3101
13426TIP3    H161769   2.266   5.289  13.891 -1.0592  0.2961 -0.2796
13426TIP3    H261770   2.275   5.430  13.946  1.1871 -0.3391  1.1093
13427TIP3   OH261771   3.689   1.883   2.500  0.3637  0.1555  0.4324
13427TIP3    H161772   3.681   1.971   2.538  2.4283  0.1460  1.0323
13427TIP3    H261773   3.671   1.896   2.407  0.4849  1.1978  0.5369
13428TIP3   OH261774   1.935   0.428   1.274  0.2118 -0.1604 -0.1506
13428TIP3    H161775   1.910   0.506   1.225  0.6279 -0.8443 -1.4935
13428TIP3    H261776   1.862   0.414   1.335  0.0714  1.1775  0.0231
13429TIP3   OH261777   3.138   5.593   2.438  0.0201  0.0047  0.5694
13429TIP3    H161778   3.173   5.601   2.527 -0.0768  2.6932  0.4246
13429TIP3    H261779   3.092   5.675   2.422 -1.9706 -1.3286 -1.1645
13430TIP3   OH261780   6.042   0.899  15.747  0.2820 -0.1759 -0.0947
13430TIP3    H161781   6.010   0.968  15.805 -0.3454  1.2631 -2.0156
13430TIP3    H261782   6.004   0.819  15.781 -0.7344  0.7231  0.9739
13431TIP3   OH261783   5.598   3.768  13.775  0.8156 -0.1502  0.1499
13431TIP3    H161784   5.620   3.804  13.861  0.9950 -1.6549  0.7647
13431TIP3    H261785   5.677   3.781  13.723  0.2425  2.0526 -0.2718
13432TIP3   OH261786   5.007   3.191  12.219  0.5551  0.6973  0.9698
13432TIP3    H161787   5.071   3.261  12.205  1.0126  0.0102 -0.5847
13432TIP3    H261788   5.059   3.110  12.215 -0.4021  0.1095 -0.6789
13433TIP3   OH261789   1.354   4.265  11.320 -0.0639 -0.0461 -0.2812
13433TIP3    H161790   1.342   4.324  11.394  2.0904  0.2812 -0.1478
13433TIP3    H261791   1.287   4.198  11.333  0.0392  0.1726  1.7960
13434TIP3   OH261792   2.425   0.956  15.141 -0.3564 -0.5049  0.1486
13434TIP3    H161793   2.346   0.914  15.108  1.2391 -2.7146 -1.1402
13434TIP3    H261794   2.439   0.916  15.227 -1.4705  1.0961  1.1121
13435TIP3   OH261795   1.005   2.680  15.118  0.3749 -0.0621 -0.7091
13435TIP3    H161796   0.960   2.617  15.062 -0.3482  0.1783 -0.4227
13435TIP3    H261797   1.002   2.641  15.205 -1.0205  0.8166 -0.3322
13436TIP3   OH261798   1.586   1.479  10.658  0.0205 -0.4010  0.4965
13436TIP3    H161799   1.646   1.551  10.676  1.3986 -1.4200  0.1079
13436TIP3    H261800   1.619   1.438  10.578 -1.4466 -0.7382  0.0231
13437TIP3   OH261801   0.370   5.575  12.222 -0.3065 -0.4528  0.6404
13437TIP3    H161802   0.339   5.484  12.219  1.4574 -1.0697 -1.2229
13437TIP3    H261803   0.416   5.582  12.306 -1.0141 -1.0825  1.0902
13438TIP3   OH261804   5.894   3.423  13.322 -0.4839  0.2593 -0.5328
13438TIP3    H161805   5.876   3.512  13.291 -0.6898 -0.3809 -2.4131
13438TIP3    H261806   5.934   3.434  13.408 -1.5999  2.1104 -0.2069
13439TIP3   OH261807   1.113   6.687   4.465 -0.2309  0.1077  0.0966
13439TIP3    H161808   1.061   6.747   4.519 -0.7593  0.6058 -0.9276
13439TIP3    H261809   1.050   6.624   4.431  0.1983 -0.5689  0.5464
13440TIP3   OH261810   4.505   5.970   0.998  0.4740  0.8527  0.0206
13440TIP3    H161811   4.440   6.040   0.985  0.3966  0.8477  0.3754
13440TIP3    H261812   4.588   6.016   1.010  1.0534  0.8260 -3.0781
13441TIP3   OH261813   6.683   3.611   2.894  0.0797 -0.3955  0.2726
13441TIP3    H161814   6.671   3.516   2.893 -3.8892 -0.0925 -1.9899
13441TIP3    H261815   6.744   3.629   2.823  0.1903 -1.2253  0.1479
13442TIP3   OH261816   1.597   3.449   3.130  0.4006  0.0407  0.1584
13442TIP3    H161817   1.544   3.479   3.203 -2.6748 -0.6096 -1.6597
13442TIP3    H261818   1.607   3.527   3.075  0.0525 -0.1747 -0.2155
13443TIP3   OH261819   6.133   0.562  14.771  0.3183  0.0151 -0.1294
13443TIP3    H161820   6.212   0.512  14.793 -0.6793 -1.2243  0.8115
13443TIP3    H261821   6.081   0.502  14.718  0.0604  0.8780 -0.8783
13444TIP3   OH261822   5.168   2.625  15.760 -0.0913 -0.6660 -0.0175
13444TIP3    H161823   5.189   2.713  15.790  0.5864 -0.9508  0.3570
13444TIP3    H261824   5.226   2.611  15.685 -0.7644 -0.5006 -0.5830
13445TIP3   OH261825   3.067   0.145   1.720  0.5481  0.3907 -0.5140
13445TIP3    H161826   3.053   0.050   1.726  0.4434  0.3278 -1.5852
13445TIP3    H261827   3.034   0.169   1.634 -0.4468  1.5946  0.1620
13446TIP3   OH261828   1.119   4.458  11.071  0.0039 -0.1933 -0.1646
13446TIP3    H161829   1.115   4.545  11.031 -0.4550  0.8315  1.9873
13446TIP3    H261830   1.046   4.411  11.032 -1.0257  1.0926  0.1377
13447TIP3   OH261831   3.363   4.856  11.134 -0.6035  0.0254  0.4784
13447TIP3    H161832   3.438   4.844  11.192 -1.4538  0.4910  1.7113
13447TIP3    H261833   3.394   4.827  11.048  1.2524  1.0348  0.7654
13448TIP3   OH261834   1.136   1.817   3.917  0.8788 -0.3078 -0.0930
13448TIP3    H161835   1.216   1.827   3.968  0.7035 -0.1098  0.1456
13448TIP3    H261836   1.065   1.843   3.977  0.4849 -1.9310  0.2065
13449TIP3   OH261837   6.718   6.536   6.785 -0.0527 -0.2764  0.0711
13449TIP3    H161838   6.632   6.573   6.764 -0.1115  0.2524  1.1427
13449TIP3    H261839   6.698   6.450   6.822 -0.1242 -0.1559  0.3151
13450TIP3   OH261840   0.030   1.344  11.706  0.1879  0.4114 -0.1037
13450TIP3    H161841   0.007   1.265  11.656 -3.2400  1.2664 -0.1502
13450TIP3    H261842   0.051   1.311  11.793  0.7200 -0.6894 -0.6263
13451TIP3   OH261843   6.416   3.258   4.993 -0.2620 -0.2869  0.7295
13451TIP3    H161844   6.496   3.207   4.979 -0.3150 -0.2589  0.3008
13451TIP3    H261845   6.446   3.347   5.009 -0.1981 -0.3225  0.8074
13452TIP3   OH261846   6.318   3.377   4.189 -0.7275  0.2035  0.0756
13452TIP3    H161847   6.241   3.418   4.149 -1.8622 -0.3342  1.5962
13452TIP3    H261848   6.301   3.283   4.183  0.7425 -0.0211 -1.2678
13453TIP3   OH261849   2.122   0.373  16.048  0.1619  0.0283 -0.2532
13453TIP3    H161850   2.184   0.406  15.983  0.1254  2.0570  0.6684
13453TIP3    H261851   2.037   0.379  16.005  0.1439  1.3014 -0.0890
13454TIP3   OH261852   0.344   2.127   4.237  0.0605  0.2005  0.8646
13454TIP3    H161853   0.273   2.083   4.190  0.0651 -0.4205  1.4198
13454TIP3    H261854   0.422   2.105   4.188 -0.0019 -0.0071  0.8560
13455TIP3   OH261855   5.534   5.040  15.048 -0.5541 -0.2400 -0.1747
13455TIP3    H161856   5.575   5.072  15.128  0.4860 -0.8305 -0.4478
13455TIP3    H261857   5.468   5.106  15.026  0.4788  0.9129  0.1040
13456TIP3   OH261858   6.704   2.522   1.787 -0.0713  0.0015 -0.8040
13456TIP3    H161859   6.669   2.447   1.836  1.5184  0.2394  0.8154
13456TIP3    H261860   6.659   2.519   1.703 -2.0700 -1.1498  0.2209
13457TIP3   OH261861   4.129   1.362   4.241  0.2621  0.2205  0.1303
13457TIP3    H161862   4.175   1.439   4.275  0.4382  0.5544 -0.8139
13457TIP3    H261863   4.196   1.316   4.190 -0.2727  0.3791 -0.7422
13458TIP3   OH261864   0.574   2.985   4.737 -0.4468 -0.2445 -0.0862
13458TIP3    H161865   0.620   3.050   4.790 -0.1965 -0.8143  0.4029
13458TIP3    H261866   0.640   2.953   4.676 -0.0557 -1.3741  0.8991
13459TIP3   OH261867   6.588   6.135  11.443  0.1610  0.8252 -0.2975
13459TIP3    H161868   6.550   6.211  11.488  1.4360  0.2538  1.8643
13459TIP3    H261869   6.524   6.065  11.457 -0.1990  1.0421 -0.8057
13460TIP3   OH261870   3.052   6.391   1.149  0.2642 -0.1190 -0.2355
13460TIP3    H161871   3.006   6.308   1.154 -1.2161  0.6828  0.1164
13460TIP3    H261872   3.096   6.400   1.234 -0.0510 -0.2800 -0.0563
13461TIP3   OH261873   4.188   2.914   5.749  0.3864 -0.5880  0.7954
13461TIP3    H161874   4.113   2.894   5.692 -0.1713 -0.2722  1.3985
13461TIP3    H261875   4.185   2.845   5.816 -0.7757  0.7191  2.1522
13462TIP3   OH261876   1.076   0.802   0.587 -0.3370  0.7941 -0.4087
13462TIP3    H161877   1.167   0.774   0.587 -0.6983 -0.7802  2.5926
13462TIP3    H261878   1.056   0.819   0.495  2.1490 -1.5948 -1.5234
13463TIP3   OH261879   3.881   3.761  15.552  0.1567  0.0712  0.1643
13463TIP3    H161880   3.944   3.777  15.622  0.3677 -0.6255  0.1467
13463TIP3    H261881   3.892   3.667  15.532 -1.8110 -0.3927  1.0777
13464TIP3   OH261882   4.434   6.023  11.792 -0.1759 -0.0584  0.0434
13464TIP3    H161883   4.344   6.041  11.819 -0.8585  1.0995 -2.6332
13464TIP3    H261884   4.480   6.107  11.805 -0.0046 -0.0801 -0.4009
13465TIP3   OH261885   2.771   4.489  15.748  0.3148  0.5222 -0.4871
13465TIP3    H161886   2.786   4.412  15.694 -0.4975  1.2529 -1.7799
13465TIP3    H261887   2.678   4.486  15.770  0.5502  0.4356  0.6002
13466TIP3   OH261888   5.706   1.405  16.054 -0.0056 -0.0620  0.2243
13466TIP3    H161889   5.736   1.468  16.119 -1.8301  1.6670 -0.4912
13466TIP3    H261890   5.707   1.320  16.099 -0.0318  0.8849  2.0941
13467TIP3   OH261891   4.828   2.950   5.547  0.6113  0.7005 -0.0825
13467TIP3    H161892   4.913   2.913   5.524 -0.3770 -1.2237 -0.8852
13467TIP3    H261893   4.807   3.009   5.474  0.6477  0.0995 -0.5873
13468TIP3   OH261894   3.107   3.061  10.600 -0.5089 -0.0280  0.3247
13468TIP3    H161895   3.182   3.118  10.612  0.4200 -1.1145 -0.1065
13468TIP3    H261896   3.046   3.085  10.670 -0.0567  1.3188  0.2730
13469TIP3   OH261897   5.118   4.798  15.001  0.1989  0.3183 -0.0224
13469TIP3    H161898   5.036   4.796  15.051 -0.0130  1.7386 -0.2661
13469TIP3    H261899   5.187   4.800  15.068 -0.0375  0.8140  0.2118
13470TIP3   OH261900   4.021   0.107  14.510 -0.8120  0.3698  0.0159
13470TIP3    H161901   3.943   0.152  14.543 -0.8073  3.1426 -3.2226
13470TIP3    H261902   3.989   0.048  14.442 -0.2258  0.4619 -0.3539
13471TIP3   OH261903   6.493   4.477   3.868 -0.1005 -0.0092 -0.2025
13471TIP3    H161904   6.426   4.538   3.901  0.7701  0.3577  0.9269
13471TIP3    H261905   6.462   4.391   3.896 -0.5529  0.0566 -0.4746
13472TIP3   OH261906   2.766   6.729   0.634  0.2188 -0.9039  0.3631
13472TIP3    H161907   2.858   6.749   0.614  0.0885  0.9144  1.3882
13472TIP3    H261908   2.768   6.697   0.724  0.0911 -3.2609 -0.4051
13473TIP3   OH261909   2.975   0.289   0.739  0.0603  0.1917  0.0754
13473TIP3    H161910   2.883   0.288   0.767 -0.1648  1.6004 -0.5392
13473TIP3    H261911   3.023   0.249   0.812 -1.1945 -2.2640 -0.3155
13474TIP3   OH261912   1.239   6.744   3.660 -0.6452 -0.3197  0.3299
13474TIP3    H161913   1.295   6.793   3.600  0.5859 -0.5922  1.2347
13474TIP3    H261914   1.271   6.654   3.656 -0.8547 -0.4332  1.0358
13475TIP3   OH261915   4.961   5.054  11.831 -0.0974  1.1943  0.0809
13475TIP3    H161916   5.056   5.045  11.834 -0.1909  0.1214  0.1844
13475TIP3    H261917   4.928   4.964  11.824 -1.0461  1.6494 -1.8332
13476TIP3   OH261918   4.980   2.931   2.668 -0.1426 -0.1195 -0.1145
13476TIP3    H161919   5.042   2.964   2.602 -0.3765 -0.8203 -0.6916
13476TIP3    H261920   4.897   2.971   2.644  0.0497  0.7845  0.6342
13477TIP3   OH261921   1.399   0.486   4.302  0.4296  0.5012  0.0947
13477TIP3    H161922   1.419   0.413   4.244 -1.2098  0.7704 -0.8908
13477TIP3    H261923   1.431   0.459   4.388  1.7246 -0.4728 -0.6573
13478TIP3   OH261924   0.185   6.146  13.616 -0.3846  0.0575 -0.3005
13478TIP3    H161925   0.279   6.154  13.603  0.1591 -1.9435  1.8616
13478TIP3    H261926   0.152   6.235  13.606  1.8937  1.0211  0.1418
13479TIP3   OH261927   2.987   1.347   3.516 -0.6948  0.2106  0.0116
13479TIP3    H161928   2.928   1.299   3.575 -0.5538 -0.0820 -0.0840
13479TIP3    H261929   2.934   1.366   3.439 -0.7935  0.3408  0.1097
13480TIP3   OH261930   4.726   1.523  15.574 -0.0787 -0.5320 -0.2216
13480TIP3    H161931   4.716   1.490  15.663 -1.1845  1.3608  0.4098
13480TIP3    H261932   4.818   1.507  15.553  0.2349 -0.9061  1.3040
13481TIP3   OH261933   6.555   2.173   3.865 -0.1602 -0.2848 -0.0640
13481TIP3    H161934   6.637   2.124   3.875 -0.1330 -0.1437  0.3942
13481TIP3    H261935   6.550   2.228   3.943 -1.3338 -1.2212  0.5492
13482TIP3   OH261936   4.991   4.071  11.042  1.3288  0.1591  0.2592
13482TIP3    H161937   5.013   3.998  11.100  1.0574  0.3183  0.5660
13482TIP3    H261938   5.009   4.149  11.093 -1.7241  0.3261  1.2721
13483TIP3   OH261939   1.946   5.650   1.862  0.4322  0.2228  0.3520
13483TIP3    H161940   1.977   5.575   1.811  0.3314 -0.4828  1.2817
13483TIP3    H261941   1.852   5.636   1.870  0.2125  1.1386 -0.5367
13484TIP3   OH261942   5.921   1.162  15.877 -0.5000 -0.1326  0.0379
13484TIP3    H161943   5.996   1.203  15.920 -1.2837  1.5036 -0.0717
13484TIP3    H261944   5.892   1.095  15.938  1.0561 -0.8084  0.0655
13485TIP3   OH261945   0.644   4.284  14.841  0.8662  0.5268 -0.3707
13485TIP3    H161946   0.612   4.363  14.885  0.1430 -1.0300  2.0910
13485TIP3    H261947   0.588   4.275  14.764 -1.3426  0.6519  1.1143
13486TIP3   OH261948   0.971   4.256  14.133 -0.3244  0.1935  0.0150
13486TIP3    H161949   0.947   4.313  14.059  1.6557  0.2404 -0.6605
13486TIP3    H261950   1.029   4.310  14.186 -0.5822 -0.3358  0.8421
13487TIP3   OH261951   1.459   4.214  12.169  0.7961 -0.0489 -0.0717
13487TIP3    H161952   1.368   4.197  12.193  0.8523  0.1228  0.2686
13487TIP3    H261953   1.477   4.153  12.098 -0.1071  1.0343 -1.2974
13488TIP3   OH261954   4.977   2.852  13.536 -0.2196 -0.1927  0.4189
13488TIP3    H161955   5.060   2.879  13.576  0.5893 -0.5932 -0.9062
13488TIP3    H261956   4.910   2.893  13.590  0.8618  0.8824  0.9988
13489TIP3   OH261957   4.476   2.861  17.072  0.1205 -0.8622 -0.1383
13489TIP3    H161958   4.428   2.941  17.051  0.1899 -0.9031 -0.4496
13489TIP3    H261959   4.408   2.798  17.097 -0.0938 -1.2534 -1.6207
13490TIP3   OH261960   2.210   3.183   3.996 -0.4677 -0.2235 -0.1643
13490TIP3    H161961   2.271   3.255   3.981 -1.1566  0.7174  1.3360
13490TIP3    H261962   2.233   3.118   3.929  1.1454  0.7478 -0.6139
13491TIP3   OH261963   3.331   0.767  10.577  0.4488 -0.3473  0.0327
13491TIP3    H161964   3.368   0.851  10.603  0.6797 -0.8415  1.4346
13491TIP3    H261965   3.401   0.704  10.593  0.0958 -0.8793 -0.4640
13492TIP3   OH261966   0.481   3.100  14.467 -0.1677  0.6775  0.1575
13492TIP3    H161967   0.572   3.087  14.442 -1.3602 -1.3603 -4.1988
13492TIP3    H261968   0.468   3.043  14.543  1.9211  0.0848  0.1154
13493TIP3   OH261969   2.186   5.022   1.587 -0.3839  0.0423 -0.1202
13493TIP3    H161970   2.135   4.942   1.588  1.0956 -0.9614 -0.9698
13493TIP3    H261971   2.166   5.062   1.502 -1.5568  0.9151  0.5304
13494TIP3   OH261972   6.386   3.631  11.333  0.3974  0.1185  0.3077
13494TIP3    H161973   6.449   3.606  11.264  1.8203  0.5580  1.3909
13494TIP3    H261974   6.393   3.561  11.398 -0.1977  0.2017  0.4646
13495TIP3   OH261975   3.052   0.712  10.588 -0.2766  0.0355 -0.6853
13495TIP3    H161976   3.050   0.698  10.493 -0.7861  0.0140 -0.6740
13495TIP3    H261977   3.131   0.765  10.602  1.1975 -1.9949 -0.8274
13496TIP3   OH261978   4.046   4.373   0.254 -0.0044 -0.1505 -0.8472
13496TIP3    H161979   4.042   4.279   0.232  0.3797 -0.0691 -1.2923
13496TIP3    H261980   4.050   4.417   0.169  0.6023  0.2260 -0.6295
13497TIP3   OH261981   5.072   4.431   5.670 -0.6012 -0.2926 -0.1073
13497TIP3    H161982   5.065   4.378   5.592  0.8629 -1.1756  0.3253
13497TIP3    H261983   5.133   4.384   5.726  0.2166  1.4932  0.5848
13498TIP3   OH261984   2.245   4.536  15.181  0.3152 -0.3035  0.1457
13498TIP3    H161985   2.330   4.571  15.206 -0.0534 -0.0682  1.1227
13498TIP3    H261986   2.210   4.599  15.118  0.7747 -0.3000 -0.1069
13499TIP3   OH261987   5.090   5.965  15.431 -0.6259 -0.1377  0.3632
13499TIP3    H161988   5.085   5.939  15.523 -2.0435  3.2294  1.3671
13499TIP3    H261989   5.002   5.953  15.397 -0.3038 -0.5601 -0.3622
13500TIP3   OH261990   6.748   2.319   0.642 -0.0437  0.4458  0.3038
13500TIP3    H161991   6.671   2.316   0.699 -1.8120  2.7463 -1.7215
13500TIP3    H261992   6.717   2.284   0.559  1.6660 -0.2585 -0.0667
13501TIP3   OH261993   6.813   6.296   0.322 -0.3808 -0.3592  0.3301
13501TIP3    H161994   6.749   6.343   0.268  1.1821  1.1803 -0.2654
13501TIP3    H261995   6.760   6.253   0.389 -2.0738  0.5333 -0.3654
13502TIP3   OH261996   4.684   1.899  15.696 -0.3438 -0.5282  0.0625
13502TIP3    H161997   4.767   1.948  15.698 -1.3674  1.3203  2.0787
13502TIP3    H261998   4.697   1.827  15.758 -0.1822 -0.2952  0.3065
13503TIP3   OH261999   4.143   2.968   1.861  0.0845 -0.4693 -0.0253
13503TIP3    H162000   4.237   2.950   1.864  0.3152  0.1464 -1.8776
13503TIP3    H262001   4.136   3.051   1.813 -1.2570  1.3573  3.0067
13504TIP3   OH262002   3.342   2.667   4.213 -0.8393 -0.4173 -0.0712
13504TIP3    H162003   3.290   2.732   4.165  2.5678  2.8799  0.2635
13504TIP3    H262004   3.404   2.634   4.149  0.2688 -0.0118  0.7619
13505TIP3   OH262005   3.474   4.962   5.231 -0.1658  0.3642  0.5020
13505TIP3    H162006   3.551   4.920   5.192  0.1490  1.3245  0.0510
13505TIP3    H262007   3.496   5.055   5.232 -1.2662  0.6337  0.5040
13506TIP3   OH262008   5.058   5.833   1.743 -0.3811  0.4353  0.2488
13506TIP3    H162009   5.095   5.781   1.814  0.3822  1.1800  0.4105
13506TIP3    H262010   5.045   5.920   1.780 -2.8095  0.1134  0.3526
13507TIP3   OH262011   5.982   0.507   0.978  0.0823  0.0774  0.3038
13507TIP3    H162012   5.904   0.477   0.931 -0.1561 -1.1805  1.4330
13507TIP3    H262013   6.055   0.479   0.923 -0.2367  0.3129 -0.2453
13508TIP3   OH262014   4.459   4.644  14.090  0.0524  0.1283  0.2990
13508TIP3    H162015   4.431   4.672  14.003  1.4266 -2.5960 -1.1246
13508TIP3    H262016   4.495   4.723  14.130 -1.6072  1.7013 -1.1344
13509TIP3   OH262017   1.748   1.349   0.954  0.2962 -0.1111  0.1915
13509TIP3    H162018   1.758   1.260   0.921  0.5491  0.0982 -0.3151
13509TIP3    H262019   1.695   1.394   0.887  2.4623  0.8601 -0.9886
13510TIP3   OH262020   3.556   0.028   3.481 -0.0451 -0.1309 -0.3082
13510TIP3    H162021   3.583   0.116   3.507 -2.2766  0.0467  1.7265
13510TIP3    H262022   3.624  -0.000   3.420  2.4432  1.7638  1.3735
13511TIP3   OH262023   0.885   3.945  11.508 -0.1412  0.6582 -0.5396
13511TIP3    H162024   0.976   3.964  11.530  0.0387 -0.1077 -0.6064
13511TIP3    H262025   0.887   3.856  11.473 -0.9205  0.6252 -0.5090
13512TIP3   OH262026   5.650   1.339  13.707  0.0369  0.6381 -0.4786
13512TIP3    H162027   5.626   1.406  13.772  0.5064 -0.2895  0.6960
13512TIP3    H262028   5.745   1.341  13.705  0.0189  1.4918 -2.0880
13513TIP3   OH262029   6.595   4.860  15.801 -0.4231  0.2097  0.2925
13513TIP3    H162030   6.609   4.947  15.764  0.6388 -0.4368 -0.9557
13513TIP3    H262031   6.666   4.848  15.864  0.1914 -0.2016 -0.4574
13514TIP3   OH262032   3.355   1.775   2.449  0.2888 -0.5718  0.1999
13514TIP3    H162033   3.310   1.839   2.394 -1.1118 -1.1838  0.5855
13514TIP3    H262034   3.359   1.695   2.396  0.4872 -0.6557  0.3391
13515TIP3   OH262035   6.019   3.246  15.652  0.3021  0.4719 -0.2295
13515TIP3    H162036   6.034   3.291  15.734  1.7427  0.5226 -0.4947
13515TIP3    H262037   6.058   3.302  15.585 -2.3371  1.2931 -1.2242
13516TIP3   OH262038   4.448   1.332   5.775  0.0895  0.0905 -0.3108
13516TIP3    H162039   4.466   1.293   5.689  2.1214 -0.9985  0.5602
13516TIP3    H262040   4.383   1.273   5.814  0.0614 -0.0895 -0.6209
13517TIP3   OH262041   6.021   5.516  17.048 -0.2216 -0.0437 -0.8780
13517TIP3    H162042   6.043   5.427  17.077  0.3238  0.0341 -1.0488
13517TIP3    H262043   6.084   5.572  17.092 -2.3113  0.6082  1.5148
13518TIP3   OH262044   5.524   3.692   0.062  0.0286  0.2032  0.2069
13518TIP3    H162045   5.510   3.646  -0.021 -0.3765 -0.6683  0.7463
13518TIP3    H262046   5.464   3.766   0.059 -1.6754 -1.1021  0.6654
13519TIP3   OH262047   3.395   5.632  12.108  0.0266 -0.1410  0.3858
13519TIP3    H162048   3.422   5.574  12.037  0.7071 -0.3964  0.8407
13519TIP3    H262049   3.408   5.580  12.187  0.3135  0.5066  0.7720
13520TIP3   OH262050   2.618   5.734   5.738 -0.7510 -0.0396 -0.1758
13520TIP3    H162051   2.540   5.775   5.702 -0.3440  0.9032 -0.0189
13520TIP3    H262052   2.585   5.660   5.789 -1.5299  0.2996 -0.1746
13521TIP3   OH262053   4.516   5.088   1.173  0.0317  0.1599  0.3407
13521TIP3    H162054   4.448   5.155   1.186  1.7010  1.7353  1.4719
13521TIP3    H262055   4.506   5.029   1.247  0.4973  0.9477  1.0434
13522TIP3   OH262056   1.427   2.472   0.326 -0.1188 -0.3380  0.5397
13522TIP3    H162057   1.461   2.447   0.240  0.0262  2.2309 -0.2302
13522TIP3    H262058   1.336   2.495   0.310 -0.4668 -1.0798  1.3606
13523TIP3   OH262059   0.616   5.428  11.173 -0.1892 -0.0853 -0.2852
13523TIP3    H162060   0.548   5.464  11.116 -1.4783  1.3969  2.0223
13523TIP3    H262061   0.597   5.465  11.260  1.0802 -2.9150  1.3545
13524TIP3   OH262062   1.020   0.493  14.001  0.2529  0.1707  0.1035
13524TIP3    H162063   1.043   0.553  14.073 -1.6265  0.8877  0.1403
13524TIP3    H262064   0.925   0.486  14.005 -0.0789  1.3231 -3.1776
13525TIP3   OH262065   4.980   3.586  14.248  0.6262  0.2342 -0.1632
13525TIP3    H162066   5.031   3.551  14.321  0.5819 -0.0619 -0.2720
13525TIP3    H262067   4.966   3.511  14.190 -0.9072  0.0152  0.4250
13526TIP3   OH262068   6.007   0.953  16.738 -0.1583 -0.2320  0.2740
13526TIP3    H162069   6.066   0.910  16.677 -0.6181 -1.6512  0.7904
13526TIP3    H262070   6.018   0.906  16.820 -1.1418  0.2305  0.6944
13527TIP3   OH262071   3.561   6.226   4.247  0.7132 -0.2285  0.5110
13527TIP3    H162072   3.478   6.179   4.253  0.8495 -0.7649 -1.0904
13527TIP3    H262073   3.628   6.157   4.250  0.9920  0.0063 -0.0622
13528TIP3   OH262074   5.400   0.878   5.444 -0.5379 -0.0904  0.2919
13528TIP3    H162075   5.365   0.802   5.398 -0.3779  0.5685 -0.9816
13528TIP3    H262076   5.323   0.929   5.470 -0.6514 -0.7540  1.3024
13529TIP3   OH262077   2.201   2.389   3.860 -0.2418 -0.1680  0.6503
13529TIP3    H162078   2.283   2.427   3.829  0.7681 -3.4097 -1.0412
13529TIP3    H262079   2.133   2.436   3.811  0.9670 -0.7362 -1.7462
13530TIP3   OH262080   6.711   1.906  11.732 -0.2891 -0.0315  0.0565
13530TIP3    H162081   6.722   1.945  11.819  0.4503  1.6959 -0.7713
13530TIP3    H262082   6.796   1.916  11.690  0.2094 -3.3264  0.0277
13531TIP3   OH262083   1.464   5.623  12.433  0.1338 -0.4343  0.4576
13531TIP3    H162084   1.385   5.661  12.470  0.5025  0.2973  0.4947
13531TIP3    H262085   1.442   5.608  12.341  0.5482  1.4938  0.0039
13532TIP3   OH262086   4.679   3.944   6.039  0.2095  0.1379  0.3946
13532TIP3    H162087   4.640   3.859   6.062  0.9158 -0.3171 -0.0374
13532TIP3    H262088   4.717   3.975   6.121 -0.4017  0.2334  0.6487
13533TIP3   OH262089   4.649   5.033   2.669 -0.3918 -0.7197  0.1747
13533TIP3    H162090   4.635   4.947   2.708  1.5156 -0.9422  0.4819
13533TIP3    H262091   4.672   5.090   2.743 -1.3995  0.0172 -0.0557
13534TIP3   OH262092   3.352   2.726  11.475  0.6406 -0.4648 -0.8630
13534TIP3    H162093   3.433   2.773  11.459  1.3453 -1.2963  0.1133
13534TIP3    H262094   3.379   2.636  11.496 -0.5309 -0.8052 -0.6859
13535TIP3   OH262095   1.909   1.160  10.328  0.9864 -0.1428  0.3633
13535TIP3    H162096   1.935   1.103  10.401 -0.4025  0.3235  1.2676
13535TIP3    H262097   1.991   1.178  10.282  2.0446  0.0769  2.2094
13536TIP3   OH262098   0.194   4.842   1.417 -0.0729  0.5788 -0.3618
13536TIP3    H162099   0.238   4.927   1.420  0.0492  0.5002  1.7387
13536TIP3    H262100   0.182   4.818   1.509  0.1725 -1.8393 -0.8894
13537TIP3   OH262101   5.713   3.749  16.159  0.3075 -0.8695 -0.6536
13537TIP3    H162102   5.708   3.706  16.074  1.4843 -2.8400  0.2019
13537TIP3    H262103   5.806   3.768  16.170  0.1647 -0.6468  0.1968
13538TIP3   OH262104   2.974   3.943   5.798 -0.5907  0.3325 -1.2741
13538TIP3    H162105   2.894   3.996   5.791  0.1455  1.7232  0.1872
13538TIP3    H262106   2.959   3.890   5.877 -0.4088 -0.0136 -1.4728
13539TIP3   OH262107   5.805   5.508  16.077  0.6035 -0.1088 -0.4036
13539TIP3    H162108   5.822   5.532  15.986  1.2388 -2.6242 -1.0234
13539TIP3    H262109   5.883   5.460  16.104  0.7496  1.2033  1.7578
13540TIP3   OH262110   5.785   4.160  14.944 -0.0835 -0.2850 -0.2388
13540TIP3    H162111   5.831   4.176  14.862 -1.6166  1.3141 -0.8544
13540TIP3    H262112   5.709   4.218  14.941 -0.6673 -0.8261  1.9318
13541TIP3   OH262113   4.711   4.969  15.251  0.0216  0.0034 -0.3118
13541TIP3    H162114   4.788   5.006  15.207 -0.3063 -0.2203 -1.1011
13541TIP3    H262115   4.640   4.979  15.187 -0.2399 -1.3046 -0.2652
13542TIP3   OH262116   2.431   3.541  11.634  0.1455 -0.8283  0.2360
13542TIP3    H162117   2.495   3.596  11.679 -0.3656 -0.6687  0.7795
13542TIP3    H262118   2.479   3.504  11.560  0.8621 -0.7081  0.6328
13543TIP3   OH262119   6.835   0.054   1.281  0.2743 -0.4472 -0.2330
13543TIP3    H162120   6.745   0.026   1.298 -0.5363  0.8512 -2.1079
13543TIP3    H262121   6.873  -0.016   1.228  0.5467 -1.1902  0.9008
13544TIP3   OH262122   2.807   2.227  11.287  0.1103 -0.1158 -0.7961
13544TIP3    H162123   2.783   2.313  11.253  1.5519  1.5981  2.1122
13544TIP3    H262124   2.733   2.202  11.343  0.0227 -0.4136 -1.0428
13545TIP3   OH262125   2.412   6.168  14.692  0.4688  0.1680  0.0761
13545TIP3    H162126   2.448   6.231  14.629 -0.6733  0.3667 -0.4063
13545TIP3    H262127   2.406   6.216  14.774 -1.0291  0.9453 -0.4488
13546TIP3   OH262128   3.480   0.575  14.200  0.0274 -0.0617  0.4323
13546TIP3    H162129   3.440   0.490  14.182 -0.9385  0.7872 -1.9237
13546TIP3    H262130   3.406   0.635  14.204  0.5131  0.4704  4.1017
13547TIP3   OH262131   6.320   2.007  12.828  0.4217 -0.0150  0.2286
13547TIP3    H162132   6.379   2.056  12.885  0.4030  1.0611 -0.6403
13547TIP3    H262133   6.244   2.065  12.818  0.5966  0.0043 -1.1929
13548TIP3   OH262134   1.373   0.821  16.226 -0.4652 -0.4218 -0.2281
13548TIP3    H162135   1.396   0.739  16.270  0.6586 -2.0212 -3.4738
13548TIP3    H262136   1.282   0.810  16.201 -0.7543 -0.0066  0.5984
13549TIP3   OH262137   3.065   2.112   3.940 -0.2837 -0.1934  0.1934
13549TIP3    H162138   3.103   2.186   3.893 -3.1209  1.8302  0.8153
13549TIP3    H262139   2.979   2.099   3.900 -1.6612 -0.1994  2.8747
13550TIP3   OH262140   3.359   6.739  13.860  0.1048 -0.3688  0.6053
13550TIP3    H162141   3.356   6.790  13.779 -0.4783  0.0654  0.8941
13550TIP3    H262142   3.451   6.713  13.868  0.1198 -0.6366 -0.3259
13551TIP3   OH262143   4.226   6.579   2.904  0.6204 -0.3940 -0.1588
13551TIP3    H162144   4.277   6.589   2.985  0.2082 -0.2645  0.0865
13551TIP3    H262145   4.135   6.570   2.934  0.4567 -0.2538 -0.6152
13552TIP3   OH262146   0.518   2.777  15.741  0.1315 -0.7396  0.1777
13552TIP3    H162147   0.603   2.768  15.698 -0.2093 -1.6814 -0.3365
13552TIP3    H262148   0.529   2.733  15.825  0.2553 -0.5338  0.2703
13553TIP3   OH262149   5.012   2.783  16.172  0.2043  0.7199 -0.4944
13553TIP3    H162150   4.980   2.866  16.207 -2.7865  0.1604 -1.5825
13553TIP3    H262151   5.009   2.795  16.077 -0.3002 -0.6367 -0.6607
13554TIP3   OH262152   3.814   5.231   2.460  0.1291  0.8661  0.8105
13554TIP3    H162153   3.845   5.208   2.548  0.8486 -0.8811  0.1539
13554TIP3    H262154   3.893   5.262   2.415  0.4842 -1.2353 -0.1241
13555TIP3   OH262155   1.834   5.233  12.940 -0.4786 -0.0331 -0.2319
13555TIP3    H162156   1.873   5.307  12.986  0.1849  0.7476 -1.9463
13555TIP3    H262157   1.778   5.273  12.873 -0.4038 -1.0817 -0.9488
13556TIP3   OH262158   3.337   1.072   1.729  0.3428  0.7456  0.4294
13556TIP3    H162159   3.307   1.122   1.805  0.9374  1.8355 -0.0271
13556TIP3    H262160   3.429   1.095   1.719  1.0072 -1.4244  0.9366
13557TIP3   OH262161   3.799   5.417   1.576  0.1668  0.6438  0.1829
13557TIP3    H162162   3.766   5.362   1.648  0.7297 -0.2431 -0.2186
13557TIP3    H262163   3.760   5.503   1.592  0.2107  0.4436  1.5043
13558TIP3   OH262164   0.892   6.160   3.183  0.6181  0.1529  0.0438
13558TIP3    H162165   0.872   6.074   3.220 -0.5023  0.0804 -0.6749
13558TIP3    H262166   0.811   6.210   3.195  0.9359  0.7912 -0.4223
13559TIP3   OH262167   2.559   0.463   5.382 -0.1506  0.7376  0.4156
13559TIP3    H162168   2.563   0.428   5.471 -0.7318  0.1068  0.2076
13559TIP3    H262169   2.647   0.494   5.364  0.3508 -0.4919  0.6737
13560TIP3   OH262170   0.713   1.309  12.529  0.1510 -0.1084  0.2441
13560TIP3    H162171   0.627   1.308  12.572  0.3413  2.4805  0.8416
13560TIP3    H262172   0.710   1.236  12.468 -2.1376 -0.6374  0.8946
13561TIP3   OH262173   2.470   6.498   0.401  0.5456 -0.1808  0.4421
13561TIP3    H162174   2.556   6.539   0.399  1.2373 -1.6204 -1.5429
13561TIP3    H262175   2.479   6.426   0.463  0.1093  0.9302  1.8519
13562TIP3   OH262176   2.643   1.666  13.161  0.8433 -0.2575 -0.2955
13562TIP3    H162177   2.653   1.753  13.122  1.2048  0.7517  1.8873
13562TIP3    H262178   2.604   1.613  13.092 -1.9537  2.3169 -0.9263
13563TIP3   OH262179   4.633   6.187   0.778  0.6567  0.3615 -0.3053
13563TIP3    H162180   4.693   6.135   0.832 -0.2415  0.2645  0.6277
13563TIP3    H262181   4.637   6.145   0.692  2.3735  0.7304 -0.4425
13564TIP3   OH262182   6.414   6.003   2.126 -0.5542 -0.3550  0.0825
13564TIP3    H162183   6.365   5.925   2.152 -0.0196 -0.2930  1.3483
13564TIP3    H262184   6.443   5.985   2.036  2.3855 -3.0994  1.3990
13565TIP3   OH262185   6.810   4.873  15.986 -0.3067 -0.4844  0.2318
13565TIP3    H162186   6.844   4.788  16.011  2.5017  0.7738  1.0834
13565TIP3    H262187   6.798   4.920  16.068 -1.3810  0.1100 -0.2424
13566TIP3   OH262188   3.282   6.357  16.675 -0.1720 -0.0487  0.4132
13566TIP3    H162189   3.356   6.410  16.648 -0.6254  0.1646 -0.4289
13566TIP3    H262190   3.306   6.326  16.763 -0.1357  1.9788  1.1685
13567TIP3   OH262191   6.430   5.302  11.573 -0.1695  0.5780  0.5841
13567TIP3    H162192   6.432   5.369  11.641 -2.0716  0.3836  0.8797
13567TIP3    H262193   6.456   5.349  11.493 -0.0420  1.3148  1.0484
13568TIP3   OH262194   3.164   0.951   5.269 -0.0431  0.3688  0.2413
13568TIP3    H162195   3.202   0.947   5.357  0.5076  0.9193  0.0343
13568TIP3    H262196   3.225   1.005   5.219  0.0407 -0.5465 -0.6770
13569TIP3   OH262197   4.903   0.386  12.181 -0.1331 -0.3030 -0.3236
13569TIP3    H162198   4.830   0.327  12.161 -1.0031  0.1962  1.2021
13569TIP3    H262199   4.894   0.404  12.275  2.0322 -0.3142 -0.0676
13570TIP3   OH262200   1.326   5.507   2.511 -0.4426  0.0774 -0.1121
13570TIP3    H162201   1.418   5.530   2.501 -0.2812  0.3188  1.6414
13570TIP3    H262202   1.287   5.583   2.554 -1.0537 -0.7329  0.8183
13571TIP3   OH262203   2.346   4.921  11.848  0.6039  0.2210 -0.2980
13571TIP3    H162204   2.379   5.008  11.872 -0.9295  0.8246 -0.2413
13571TIP3    H262205   2.255   4.921  11.879  0.3085 -1.0791 -1.1050
13572TIP3   OH262206   6.169   3.372   3.243 -0.4078 -0.7154 -0.3051
13572TIP3    H162207   6.181   3.401   3.333 -0.4712 -0.2107 -0.4548
13572TIP3    H262208   6.238   3.418   3.194 -2.3868  1.6302 -1.0622
13573TIP3   OH262209   5.085   5.487   1.850 -0.0998 -0.1053 -0.1515
13573TIP3    H162210   5.142   5.433   1.795  0.4056 -0.7903  1.0044
13573TIP3    H262211   5.139   5.564   1.873  0.4574 -0.8251  1.0649
13574TIP3   OH262212   2.811   1.144   2.111  0.1217  0.1259 -0.2558
13574TIP3    H162213   2.843   1.117   2.025 -3.1380 -1.5355 -1.0922
13574TIP3    H262214   2.876   1.208   2.142  1.9315  0.0282 -3.4707
13575TIP3   OH262215   3.119   2.900  13.968 -0.5715 -0.0512  0.5602
13575TIP3    H162216   3.177   2.845  14.020  1.3211  0.9639 -0.3758
13575TIP3    H262217   3.059   2.838  13.927  1.6576 -1.5331 -0.6932
13576TIP3   OH262218   6.265   4.242   4.094  0.0505 -0.3233 -0.1015
13576TIP3    H162219   6.175   4.272   4.109  0.0949 -0.0805 -0.3092
13576TIP3    H262220   6.313   4.272   4.172  0.1943  0.5765 -0.5222
13577TIP3   OH262221   5.640   5.222  15.270  0.4313  0.0864  0.3124
13577TIP3    H162222   5.717   5.171  15.296  0.3534 -1.9799 -2.9762
13577TIP3    H262223   5.673   5.282  15.203 -0.8690 -1.7232 -2.1068
13578TIP3   OH262224   4.293   1.186   0.371  0.1617  0.3886  0.1701
13578TIP3    H162225   4.242   1.213   0.294  0.7569  0.7855 -0.0850
13578TIP3    H262226   4.287   1.090   0.371 -4.1860  0.3959  2.5505
13579TIP3   OH262227   2.281   4.918   0.643  0.0607  0.0669 -0.2398
13579TIP3    H162228   2.200   4.969   0.649  0.0097  0.0763 -0.9794
13579TIP3    H262229   2.265   4.855   0.573  0.1503 -0.9338  0.6085
13580TIP3   OH262230   5.338   5.358  12.550 -0.4021  0.3108 -0.1736
13580TIP3    H162231   5.413   5.406  12.517 -0.7258  0.8355 -0.1592
13580TIP3    H262232   5.282   5.346  12.473  0.2571 -1.1730 -0.4540
13581TIP3   OH262233   4.320   6.513  13.101  0.2453  0.6686  0.0491
13581TIP3    H162234   4.300   6.480  13.189 -1.2249  0.6530 -0.2630
13581TIP3    H262235   4.251   6.576  13.083 -1.7295 -1.9338 -2.5053
13582TIP3   OH262236   2.783   1.746   1.398 -0.0828 -0.0394  0.3630
13582TIP3    H162237   2.701   1.716   1.438 -0.8742 -1.3330 -2.0018
13582TIP3    H262238   2.821   1.667   1.359  1.0729  0.9419 -0.5901
13583TIP3   OH262239   0.746   3.031   5.356  0.1483  0.5650 -0.4811
13583TIP3    H162240   0.808   2.971   5.397 -1.0812 -1.0044 -0.8187
13583TIP3    H262241   0.665   2.981   5.348 -0.3134  1.5172 -2.7784
13584TIP3   OH262242   6.768   1.488  11.003  0.0758 -0.4156 -0.3410
13584TIP3    H162243   6.803   1.477  10.915 -0.7985  0.3139 -0.7996
13584TIP3    H262244   6.845   1.498  11.059  0.6449  2.1774 -1.4623
13585TIP3   OH262245   1.127   5.411   3.837  0.7330 -0.9769 -0.0403
13585TIP3    H162246   1.047   5.430   3.887  1.1486  1.2702 -0.1112
13585TIP3    H262247   1.115   5.321   3.806 -2.3362 -0.3452 -1.0705
13586TIP3   OH262248   6.281   0.400  16.308  0.6765 -0.6532  0.0186
13586TIP3    H162249   6.358   0.457  16.310 -1.0333  1.7799  1.1899
13586TIP3    H262250   6.238   0.423  16.225 -0.2037  0.0950  0.6621
13587TIP3   OH262251   4.045   6.058  16.384  0.7004 -0.3785  0.2565
13587TIP3    H162252   3.951   6.037  16.390  1.2408 -2.7486  2.4449
13587TIP3    H262253   4.048   6.153  16.386 -1.6854 -0.1965 -0.8264
13588TIP3   OH262254   5.781   1.340  16.615  0.1480  0.1449 -0.2183
13588TIP3    H162255   5.819   1.373  16.696 -0.1275  0.0441 -0.0456
13588TIP3    H262256   5.799   1.246  16.617  2.9623  0.5402 -1.7860
13589TIP3   OH262257   1.791   3.038   3.074  0.2370 -0.1684 -0.3080
13589TIP3    H162258   1.721   3.075   3.128  0.0797 -0.3069 -0.4158
13589TIP3    H262259   1.750   3.025   2.989  0.1333 -1.0877 -0.1295
13590TIP3   OH262260   4.583   2.153  15.646  0.3114 -0.0068 -0.0943
13590TIP3    H162261   4.503   2.150  15.593 -1.5048  0.0225  2.4679
13590TIP3    H262262   4.609   2.061  15.655  0.2442 -0.0640 -0.4582
13591TIP3   OH262263   5.779   2.360  15.453 -0.5801  0.3368 -0.4536
13591TIP3    H162264   5.734   2.312  15.524 -0.3345  1.0989  0.2278
13591TIP3    H262265   5.844   2.414  15.498  0.6085 -0.2718 -1.3858
13592TIP3   OH262266   4.949   6.525  14.120 -0.1019 -0.2736  0.1190
13592TIP3    H162267   4.879   6.482  14.168 -0.1107  2.0593  2.4260
13592TIP3    H262268   4.911   6.608  14.090  1.5304  0.9905  1.3102
13593TIP3   OH262269   0.495   1.848  13.500 -0.0487  0.6512  0.0963
13593TIP3    H162270   0.420   1.904  13.477 -0.7322  0.0900  0.8753
13593TIP3    H262271   0.461   1.791  13.570  0.5187 -0.9915 -0.9176
13594TIP3   OH262272   6.611   3.936  14.213 -0.0612 -0.7329  0.0776
13594TIP3    H162273   6.534   3.933  14.270  1.0286 -0.1104  1.6390
13594TIP3    H262274   6.641   4.027  14.217  2.3929 -1.5136  1.8460
13595TIP3   OH262275   2.990   5.810   1.242  0.4029  0.3926 -0.6346
13595TIP3    H162276   2.929   5.864   1.192  1.0781  0.4849 -1.3742
13595TIP3    H262277   2.934   5.765   1.306 -0.0630  2.6682  0.6726
13596TIP3   OH262278   0.919   0.891   2.384 -0.2304 -0.0849 -0.0186
13596TIP3    H162279   0.887   0.980   2.397  1.0617  0.1066  2.4926
13596TIP3    H262280   0.881   0.841   2.456 -0.2335 -1.3803 -0.8847
13597TIP3   OH262281   4.587   3.904   2.906  0.4922 -0.3305  0.1335
13597TIP3    H162282   4.576   3.922   2.999  1.5976  0.2543  0.1720
13597TIP3    H262283   4.673   3.862   2.900  0.6677  0.1094 -0.6678
13598TIP3   OH262284   0.034   6.126   3.720 -0.0423 -0.5750  0.6491
13598TIP3    H162285   0.067   6.068   3.652 -3.1995 -1.2566 -0.4590
13598TIP3    H262286   0.043   6.076   3.801 -0.5008 -1.6210  0.0606
13599TIP3   OH262287   5.089   6.244  13.713  0.0577  0.2399  0.4273
13599TIP3    H162288   5.073   6.161  13.756  0.9358  0.6510  1.5796
13599TIP3    H262289   5.004   6.269  13.677  0.0836 -1.8794 -1.3166
13600TIP3   OH262290   0.069   0.612  13.896  0.1467  0.0159 -0.3246
13600TIP3    H162291   0.123   0.690  13.898 -1.4438  1.1625  0.8364
13600TIP3    H262292   0.131   0.540  13.909  1.3549  1.2985  1.5733
13601TIP3   OH262293   4.333   0.671   4.331 -0.5449  0.1072  0.1229
13601TIP3    H162294   4.248   0.628   4.343  0.4733 -1.6246  1.7475
13601TIP3    H262295   4.389   0.604   4.292  0.6538  0.4425  1.1864
13602TIP3   OH262296   3.917   6.172   2.501  0.1011  0.0573  0.7334
13602TIP3    H162297   3.931   6.227   2.424  2.3088 -1.0426  0.2550
13602TIP3    H262298   3.902   6.234   2.573  1.2690  1.2433  0.0014
13603TIP3   OH262299   3.075   4.004  11.852  0.1985  0.8223 -0.6654
13603TIP3    H162300   3.121   4.026  11.770  1.7268  1.8511  0.4141
13603TIP3    H262301   3.078   4.085  11.903 -1.8674  0.5763 -0.0692
13604TIP3   OH262302   5.488   0.370   5.498 -0.1257 -0.6057  0.0870
13604TIP3    H162303   5.428   0.295   5.504 -0.2137 -0.4809  0.7684
13604TIP3    H262304   5.438   0.444   5.530 -0.2600 -0.1051 -1.2064
13605TIP3   OH262305   5.392   4.250   0.933  0.5445 -0.0659 -0.3273
13605TIP3    H162306   5.405   4.175   0.991 -1.5085  1.2763  2.0930
13605TIP3    H262307   5.297   4.260   0.927  0.6981  0.5414 -3.1598
13606TIP3   OH262308   6.221   5.842  16.851  0.2522 -0.1173 -0.1494
13606TIP3    H162309   6.136   5.802  16.834 -0.0286 -0.9584  2.7943
13606TIP3    H262310   6.285   5.779  16.818 -0.2348 -0.9165  0.4323
13607TIP3   OH262311   4.294   1.889   1.445  0.0507  0.1490  0.3567
13607TIP3    H162312   4.233   1.879   1.517 -1.3574 -0.2951 -0.8516
13607TIP3    H262313   4.276   1.977   1.410  1.3305  0.7200  1.0479
13608TIP3   OH262314   4.805   1.790   3.457 -0.2907  0.0715 -0.1694
13608TIP3    H162315   4.799   1.729   3.384  0.8146  0.0698 -0.2674
13608TIP3    H262316   4.891   1.830   3.449 -0.7905  1.2707  0.2016
13609TIP3   OH262317   5.405   1.305   0.672 -0.1014 -0.1480 -0.3584
13609TIP3    H162318   5.365   1.238   0.616 -1.2315  0.2984 -0.1236
13609TIP3    H262319   5.430   1.257   0.751  0.2040 -0.5159 -0.6758
13610TIP3   OH262320   6.784   4.737   5.220  0.7492  0.1158 -0.6163
13610TIP3    H162321   6.743   4.715   5.136  0.3514 -0.4587 -0.2747
13610TIP3    H262322   6.752   4.825   5.240 -1.7505 -0.9621  0.4936
13611TIP3   OH262323   4.924   4.636   1.262 -0.1680 -0.3091  0.1326
13611TIP3    H162324   4.859   4.695   1.223  0.1673  0.7486  1.1545
13611TIP3    H262325   4.911   4.645   1.356  1.2982 -0.2674  0.3465
13612TIP3   OH262326   4.711   5.729   5.736 -0.4677 -0.5260 -0.0683
13612TIP3    H162327   4.753   5.676   5.804  1.1129 -0.0807 -0.6403
13612TIP3    H262328   4.759   5.812   5.737 -2.2085  0.5365  0.0936
13613TIP3   OH262329   6.450   5.652  14.372  0.1105 -0.0987  0.5965
13613TIP3    H162330   6.542   5.663  14.396  0.8530 -1.3878 -1.3215
13613TIP3    H262331   6.416   5.741  14.361  1.5118  0.4026  0.1129
13614TIP3   OH262332   2.003   6.364   0.664  0.4981  0.5078  1.0274
13614TIP3    H162333   1.970   6.324   0.584 -0.9095  0.1033  1.7778
13614TIP3    H262334   2.084   6.407   0.637  0.8978 -0.9443 -0.2726
13615TIP3   OH262335   1.649   4.038  15.143  0.0221  0.0589 -0.1202
13615TIP3    H162336   1.707   4.108  15.173  1.2613 -0.3164 -1.4901
13615TIP3    H262337   1.666   3.965  15.202  0.1735  0.2836  0.1159
13616TIP3   OH262338   5.537   1.982   5.437 -0.2500  0.4564  0.0873
13616TIP3    H162339   5.610   2.031   5.399  1.6784 -2.1485  0.1711
13616TIP3    H262340   5.529   2.016   5.526  0.0509  1.5980 -0.3041
13617TIP3   OH262341   0.040   1.104  13.679  0.0809 -0.0184  0.5299
13617TIP3    H162342  -0.056   1.110  13.675  0.0669  0.0301  0.8817
13617TIP3    H262343   0.064   1.160  13.752  0.6268  2.4389 -1.3948
13618TIP3   OH262344   6.295   5.517  10.774  0.0678 -0.1500 -0.3047
13618TIP3    H162345   6.256   5.495  10.690  0.3107 -0.0415 -0.4476
13618TIP3    H262346   6.227   5.498  10.838  0.0722 -0.7592 -0.4759
13619TIP3   OH262347   3.255   4.909  14.331 -0.7730  0.3236  0.4228
13619TIP3    H162348   3.280   4.992  14.373  2.8918  0.2278 -1.2362
13619TIP3    H262349   3.320   4.846  14.362 -0.2161 -0.6163 -2.4109
13620TIP3   OH262350   2.337   1.907   3.844  0.7000  0.3067 -0.4610
13620TIP3    H162351   2.363   1.849   3.916  0.9447  1.7463  0.6626
13620TIP3    H262352   2.387   1.987   3.859  0.4189  0.8047 -2.0111
13621TIP3   OH262353   2.648   6.129   2.440 -0.2276 -0.1403 -0.5327
13621TIP3    H162354   2.732   6.142   2.397  0.2322 -1.4704 -0.0733
13621TIP3    H262355   2.587   6.112   2.369 -0.5829  2.7450 -1.0565
13622TIP3   OH262356   5.513   5.090  14.685 -0.5719  0.3440 -0.3415
13622TIP3    H162357   5.566   5.164  14.715  0.7660 -0.2590 -1.1598
13622TIP3    H262358   5.511   5.098  14.590 -0.8807 -0.3725 -0.4002
13623TIP3   OH262359   1.072   5.101  13.417 -0.3833 -0.1756  0.0934
13623TIP3    H162360   0.994   5.141  13.378  0.6812  0.5408 -1.4277
13623TIP3    H262361   1.129   5.176  13.437  0.1280 -0.7166  0.6631
13624TIP3   OH262362   2.249   6.142  11.321 -0.2511  0.3051 -0.2540
13624TIP3    H162363   2.247   6.161  11.227 -1.1979  2.3530  0.1442
13624TIP3    H262364   2.158   6.127  11.345 -0.1178  0.6416  0.5028
13625TIP3   OH262365   0.744   2.618   3.781 -0.0640  0.3920  0.5298
13625TIP3    H162366   0.834   2.647   3.765 -0.2286  0.5130 -0.2295
13625TIP3    H262367   0.692   2.699   3.777 -0.4152  0.1257 -0.7355
13626TIP3   OH262368   2.031   1.835  12.541 -0.2210 -0.1042 -0.3972
13626TIP3    H162369   2.007   1.890  12.466  0.5213  0.0308 -0.5481
13626TIP3    H262370   2.041   1.748  12.504  0.2441 -0.0193 -0.4879
13627TIP3   OH262371   1.364   5.457  12.209  0.5719  0.1264  0.0996
13627TIP3    H162372   1.317   5.377  12.184  2.2418 -1.0504  0.5193
13627TIP3    H262373   1.398   5.492  12.127 -0.1235  0.3767 -0.0827
13628TIP3   OH262374   1.381   0.141  12.333  0.2731  0.5977  0.6899
13628TIP3    H162375   1.457   0.108  12.285  0.4686  1.5254  0.3424
13628TIP3    H262376   1.351   0.216  12.282 -1.1892 -0.0486  0.5516
13629TIP3   OH262377   3.429   0.526  11.348 -1.2701  0.0197  0.2105
13629TIP3    H162378   3.446   0.556  11.258 -1.3413  2.7482  1.0060
13629TIP3    H262379   3.514   0.534  11.391 -1.7170  1.0482  0.9418
13630TIP3   OH262380   5.924   2.206   0.075  0.3849 -0.3749  0.1370
13630TIP3    H162381   5.833   2.222   0.099 -0.2765 -1.8349 -1.1659
13630TIP3    H262382   5.954   2.289   0.038 -0.6006 -0.0414  0.0572
13631TIP3   OH262383   5.440   1.838   2.674  0.2424 -0.3465 -0.5794
13631TIP3    H162384   5.409   1.810   2.587 -0.3636  1.2214 -0.9029
13631TIP3    H262385   5.534   1.853   2.661  0.2859 -0.7482 -0.7792
13632TIP3   OH262386   1.737   3.888   1.184 -0.1183  0.1411 -0.3680
13632TIP3    H162387   1.757   3.879   1.091 -0.0809  0.7393 -0.4175
13632TIP3    H262388   1.802   3.950   1.217 -2.2519  2.7131 -0.6729
13633TIP3   OH262389   4.311   1.377   2.539 -0.0805 -0.2398  0.6106
13633TIP3    H162390   4.219   1.390   2.560  0.4186  3.8553  1.1041
13633TIP3    H262391   4.314   1.376   2.443 -0.6242  0.5432  0.5724
13634TIP3   OH262392   6.314   0.453   3.973  0.0302  0.5551  0.3195
13634TIP3    H162393   6.392   0.484   4.019 -0.4551  1.9457  0.2532
13634TIP3    H262394   6.251   0.524   3.982 -0.9332 -0.1829 -0.3801
13635TIP3   OH262395   0.965   5.592  16.588 -0.7424  0.1673 -0.6140
13635TIP3    H162396   0.981   5.650  16.663 -2.7751 -0.0330  0.0252
13635TIP3    H262397   0.878   5.616  16.557 -0.7532 -1.1173 -1.6588
13636TIP3   OH262398   2.136   2.605   3.042  0.4497  0.3499 -0.6175
13636TIP3    H162399   2.059   2.633   2.993 -0.2116 -2.1120 -1.1439
13636TIP3    H262400   2.102   2.579   3.127  0.0517 -3.3518 -1.7102
13637TIP3   OH262401   1.642   3.740  10.647 -0.4220 -0.1342 -0.2960
13637TIP3    H162402   1.612   3.828  10.622  2.0665  0.5863 -1.0933
13637TIP3    H262403   1.579   3.681  10.606 -1.4915  1.2393 -0.7371
13638TIP3   OH262404   1.031   3.710  13.535  0.0629 -0.4222 -0.0258
13638TIP3    H162405   1.016   3.727  13.442 -0.0286 -1.1981 -0.1610
13638TIP3    H262406   0.973   3.771  13.581  2.5591  2.4358 -0.3695
13639TIP3   OH262407   0.042   0.266   0.821 -0.4451  0.4426 -0.5719
13639TIP3    H162408   0.057   0.265   0.915  0.5895 -2.2865 -0.6811
13639TIP3    H262409  -0.041   0.220   0.809 -0.2320  0.1622 -1.0191
13640TIP3   OH262410   1.309   4.469   6.289  0.3847 -0.6198  0.2590
13640TIP3    H162411   1.368   4.468   6.365  0.4878  2.4084  0.3342
13640TIP3    H262412   1.266   4.554   6.293 -2.3006 -1.7775 -1.1447
13641TIP3   OH262413   0.133   4.752  17.183 -0.2651 -0.0696  0.1575
13641TIP3    H162414   0.144   4.672  17.234 -2.3416 -0.0180  0.7901
13641TIP3    H262415   0.104   4.817  17.247  1.3780  1.2206 -0.3525
13642TIP3   OH262416   5.163   2.292  12.581  0.0631 -0.0963 -0.7679
13642TIP3    H162417   5.230   2.227  12.557 -0.6559 -0.6070 -1.4257
13642TIP3    H262418   5.101   2.244  12.635  1.1760  0.8218  1.4899
13643TIP3   OH262419   4.707   2.866  11.615 -0.1370 -0.1327  0.0140
13643TIP3    H162420   4.761   2.898  11.686  0.3641 -0.4805 -0.2049
13643TIP3    H262421   4.763   2.871  11.537 -0.1111 -1.3270 -0.0646
13644TIP3   OH262422   6.709   0.243  13.934  0.1411  0.5253 -0.1494
13644TIP3    H162423   6.665   0.302  13.995  0.9334  0.6811  0.2761
13644TIP3    H262424   6.688   0.155  13.965  0.0772  0.5982  0.0107
13645TIP3   OH262425   5.841   0.908   6.336 -0.4925 -0.2732 -0.0920
13645TIP3    H162426   5.857   0.832   6.279 -1.4252 -0.2543 -0.3903
13645TIP3    H262427   5.773   0.957   6.291 -0.9685 -0.0510  0.8590
13646TIP3   OH262428   1.512   5.065  14.708 -0.4800  0.1734  0.0954
13646TIP3    H162429   1.420   5.054  14.684 -0.6074 -0.3584  0.7697
13646TIP3    H262430   1.536   4.982  14.749  0.6829 -0.1696 -1.2050
13647TIP3   OH262431   5.649   3.767  13.383  0.5463 -0.1612 -0.1434
13647TIP3    H162432   5.623   3.760  13.291  0.7841  1.5399 -0.3712
13647TIP3    H262433   5.566   3.765  13.431  0.0585  2.7227 -0.7005
13648TIP3   OH262434   1.270   1.656  15.319  0.3758 -0.1948 -0.6930
13648TIP3    H162435   1.347   1.661  15.376 -0.0044  0.4473 -0.2310
13648TIP3    H262436   1.301   1.609  15.241  0.9325 -0.9849 -0.0197
13649TIP3   OH262437   0.481   2.950  13.078 -0.2239 -0.1928 -0.3614
13649TIP3    H162438   0.495   2.963  12.984  0.5575 -1.9749 -0.5259
13649TIP3    H262439   0.545   3.007  13.120  1.4857 -1.5772 -0.9868
13650TIP3   OH262440   5.238   0.625  15.634  0.1965  0.0178  0.2068
13650TIP3    H162441   5.306   0.672  15.587  0.7924  0.4920  1.5006
13650TIP3    H262442   5.222   0.678  15.712 -1.9807  0.1614 -0.2575
13651TIP3   OH262443   6.505   5.226  12.753  0.1652 -0.1991  0.9336
13651TIP3    H162444   6.433   5.275  12.713  0.1965 -0.0148  1.1068
13651TIP3    H262445   6.463   5.168  12.816 -0.0428 -1.5632 -0.3981
13652TIP3   OH262446   2.324   6.518  11.848  0.1371 -0.5965 -0.0341
13652TIP3    H162447   2.339   6.496  11.940  2.5523  0.3578 -0.1464
13652TIP3    H262448   2.411   6.522  11.809 -0.6321  1.7423 -1.7336
13653TIP3   OH262449   3.790   1.742  11.240  0.6572 -0.3041 -0.0476
13653TIP3    H162450   3.843   1.739  11.160  0.2639 -0.0751 -0.3166
13653TIP3    H262451   3.700   1.746  11.209  0.5018 -0.2267  0.4110
13654TIP3   OH262452   0.353   1.513   4.887  0.4921  0.2190 -0.2434
13654TIP3    H162453   0.303   1.432   4.882 -0.7929  0.8106  1.7351
13654TIP3    H262454   0.323   1.565   4.812 -0.0327 -0.4071 -0.4721
13655TIP3   OH262455   2.591   2.292  12.711 -0.2066  0.1157 -0.0259
13655TIP3    H162456   2.500   2.313  12.689 -1.0475 -1.0933  1.9898
13655TIP3    H262457   2.630   2.375  12.735 -1.2174  0.4538  0.4900
13656TIP3   OH262458   6.115   6.000  13.498 -0.6929 -0.1674  0.0211
13656TIP3    H162459   6.139   6.018  13.407  0.3814 -0.3789  0.2549
13656TIP3    H262460   6.083   5.909  13.495 -0.1212 -0.3690 -0.0480
13657TIP3   OH262461   3.338   2.703  11.847  0.3026 -0.3266 -0.1043
13657TIP3    H162462   3.309   2.615  11.823 -1.6363  0.5323 -1.1658
13657TIP3    H262463   3.429   2.708  11.818  0.4423 -1.9585 -0.0302
13658TIP3   OH262464   2.766   2.640  16.616 -0.0932 -0.4766 -0.5328
13658TIP3    H162465   2.730   2.717  16.573 -1.6111 -1.0449 -0.3512
13658TIP3    H262466   2.860   2.646  16.602 -0.0724  1.8964  0.2809
13659TIP3   OH262467   0.160   5.210   0.904  0.1284 -0.0703 -0.8453
13659TIP3    H162468   0.116   5.292   0.926 -0.1141 -0.2266 -0.7425
13659TIP3    H262469   0.089   5.148   0.890  0.2401  0.1154 -2.4887
13660TIP3   OH262470   1.779   5.322  12.092 -0.3198  0.4194 -0.0622
13660TIP3    H162471   1.709   5.281  12.143  0.3679  0.1408  0.6815
13660TIP3    H262472   1.858   5.306  12.144  0.0374  2.3281  0.0471
13661TIP3   OH262473   0.307   6.054  16.590 -0.5964 -0.2485  0.2057
13661TIP3    H162474   0.232   6.018  16.636  0.2473 -0.5662  1.3793
13661TIP3    H262475   0.285   6.146  16.576 -1.9064 -0.7173 -1.0015
13662TIP3   OH262476   4.403   0.063  15.157 -0.3697  0.9482 -0.3244
13662TIP3    H162477   4.393   0.055  15.062  0.3335 -1.6875 -0.2590
13662TIP3    H262478   4.329   0.015  15.194 -0.1004  1.0991  0.4448
13663TIP3   OH262479   6.581   6.473  11.755  0.2552 -0.0917 -0.0037
13663TIP3    H162480   6.556   6.502  11.842  0.3076 -0.3767  0.1080
13663TIP3    H262481   6.523   6.398  11.737  0.4038 -0.1816 -0.1170
13664TIP3   OH262482   2.460   1.398  17.038 -0.1851 -0.0861 -0.5963
13664TIP3    H162483   2.432   1.469  16.980  2.5056  0.2988 -1.5661
13664TIP3    H262484   2.503   1.443  17.111  0.0046 -0.6802 -0.3387
13665TIP3   OH262485   4.676   4.601  13.078 -0.2663 -0.1911  0.2517
13665TIP3    H162486   4.708   4.671  13.135 -0.6661 -0.2982  0.6058
13665TIP3    H262487   4.649   4.647  12.998  1.0782 -0.1329 -0.1936
13666TIP3   OH262488   5.849   0.580   0.168 -0.1042 -0.3861  0.1145
13666TIP3    H162489   5.825   0.667   0.136 -0.2450  0.1652  1.6022
13666TIP3    H262490   5.781   0.522   0.135  0.6775 -0.2025 -1.9849
13667TIP3   OH262491   2.164   3.326  16.984 -0.0526 -0.1221  0.1757
13667TIP3    H162492   2.068   3.317  16.983 -0.3347  2.1326  0.2388
13667TIP3    H262493   2.185   3.357  16.896  0.2154  2.1775  0.9801
13668TIP3   OH262494   6.364   5.551   3.765 -0.3499  0.0967 -0.7554
13668TIP3    H162495   6.275   5.525   3.790 -0.8270  2.5446  0.3861
13668TIP3    H262496   6.420   5.509   3.830 -1.1371  2.1642  1.4062
13669TIP3   OH262497   3.655   5.003   3.743  0.0115  0.3155 -0.0304
13669TIP3    H162498   3.684   5.020   3.654  1.3084  0.0615  0.3172
13669TIP3    H262499   3.736   5.009   3.795 -0.7352  0.5445  1.1305
13670TIP3   OH262500   3.641   0.766   0.053  1.0538 -0.0562 -0.5341
13670TIP3    H162501   3.575   0.832   0.075  2.0787  0.8617 -0.1438
13670TIP3    H262502   3.643   0.766  -0.043 -0.0294 -0.6380 -0.5733
13671TIP3   OH262503   6.373   0.419  15.409  0.0666 -0.5619 -0.4545
13671TIP3    H162504   6.329   0.451  15.488  0.2358  0.8423 -0.8961
13671TIP3    H262505   6.414   0.337  15.436  2.3809  1.1372  1.7170
13672TIP3   OH262506   6.420   6.681   0.674  0.6880  0.4388  0.0182
13672TIP3    H162507   6.498   6.627   0.677 -0.0852 -0.7245 -0.3255
13672TIP3    H262508   6.430   6.742   0.747  1.4247 -0.3796  0.6119
13673TIP3   OH262509   3.510   6.312  13.229  0.1542 -0.2564 -0.4435
13673TIP3    H162510   3.531   6.240  13.287  1.8476  0.2804 -0.3238
13673TIP3    H262511   3.461   6.374  13.283  0.2373 -0.5216 -0.0640
13674TIP3   OH262512   1.705   4.770  15.584 -0.5405  0.1908 -0.0355
13674TIP3    H162513   1.793   4.807  15.571 -0.9520  0.8553 -1.0533
13674TIP3    H262514   1.716   4.676  15.568  0.6449 -0.3568  3.1862
13675TIP3   OH262515   5.570   2.016   2.204 -0.2551  0.2961 -0.5521
13675TIP3    H162516   5.530   2.006   2.290 -0.0002  1.5496 -0.2694
13675TIP3    H262517   5.568   1.928   2.166  1.2119 -0.6456  1.4175
13676TIP3   OH262518   2.670   0.425   3.112 -0.1641  0.2027  0.6195
13676TIP3    H162519   2.718   0.509   3.109 -0.2586  0.2349 -0.1446
13676TIP3    H262520   2.706   0.381   3.189  0.7453  0.4417  0.3502
13677TIP3   OH262521   3.009   5.635   4.821  0.3841  0.1963 -0.3499
13677TIP3    H162522   3.061   5.692   4.764  1.3844 -0.2498  0.1069
13677TIP3    H262523   3.000   5.684   4.902  0.6065  0.0269 -0.2209
13678TIP3   OH262524   2.454   3.011   5.484  0.2686 -0.4186  0.2892
13678TIP3    H162525   2.549   2.998   5.481  0.5585  1.3716  0.6846
13678TIP3    H262526   2.442   3.105   5.474 -1.5796 -0.7686 -1.4991
13679TIP3   OH262527   0.472   5.814  15.645 -0.4601 -0.1138  0.3443
13679TIP3    H162528   0.438   5.869  15.575 -0.1613  0.1292  0.3876
13679TIP3    H262529   0.562   5.793  15.618  0.5145  1.9203  1.7361
13680TIP3   OH262530   5.521   1.232   4.968 -0.6860 -0.3333 -0.0488
13680TIP3    H162531   5.559   1.195   5.047 -1.9496  0.0690  0.7880
13680TIP3    H262532   5.543   1.170   4.899 -0.3640 -1.1796  0.8003
13681TIP3   OH262533   3.075   6.717   5.081 -0.4656 -0.0217 -0.1630
13681TIP3    H162534   3.096   6.713   5.174  0.8783 -0.3694 -0.4566
13681TIP3    H262535   3.055   6.809   5.065  2.4959  0.7241 -0.1359
13682TIP3   OH262536   6.322   2.090   6.350 -0.1299  0.6843  0.0642
13682TIP3    H162537   6.304   2.183   6.337  1.2804  0.8121 -1.4424
13682TIP3    H262538   6.246   2.045   6.314 -0.0804  1.2564 -0.7940
13683TIP3   OH262539   5.066   4.560   4.839  0.3018  0.1699  0.0916
13683TIP3    H162540   5.121   4.636   4.859 -1.9613  2.0399 -0.3357
13683TIP3    H262541   5.050   4.519   4.924  0.7856  0.7187  0.4513
13684TIP3   OH262542   4.922   4.728   5.547  0.3468 -0.0385  0.2833
13684TIP3    H162543   4.912   4.633   5.547 -0.0075 -0.0073 -0.5724
13684TIP3    H262544   4.833   4.762   5.539  0.6151  0.3273 -1.5800
13685TIP3   OH262545   5.976   1.415  13.919  0.3570 -0.0274  0.2550
13685TIP3    H162546   6.024   1.336  13.894 -0.2623 -0.8213  1.4650
13685TIP3    H262547   6.000   1.480  13.853  0.0083 -1.5322 -1.4350
13686TIP3   OH262548   3.870   3.351  13.753 -0.1040 -0.3176  0.0689
13686TIP3    H162549   3.835   3.325  13.838  0.8420  1.0692  0.9245
13686TIP3    H262550   3.797   3.395  13.709  0.1102  1.4114  1.3162
13687TIP3   OH262551   3.181   4.602  14.899 -0.0924 -0.0544 -0.1910
13687TIP3    H162552   3.192   4.693  14.874 -1.8779 -0.0795 -1.2778
13687TIP3    H262553   3.147   4.606  14.989 -2.1577  0.4963 -0.9477
13688TIP3   OH262554   0.089   2.661  14.212 -0.1799  0.2537  0.7679
13688TIP3    H162555   0.165   2.630  14.163 -0.8906 -0.7045  0.2249
13688TIP3    H262556   0.038   2.582  14.231 -2.0789  1.0258 -0.7071
13689TIP3   OH262557   0.368   1.164  16.931  0.3424  0.5077  0.1029
13689TIP3    H162558   0.371   1.071  16.906  3.0188 -0.6834  3.9469
13689TIP3    H262559   0.414   1.209  16.860 -0.0613 -1.2044 -1.3247
13690TIP3   OH262560   5.144   0.541  15.309  0.5989 -0.5863 -0.0924
13690TIP3    H162561   5.062   0.512  15.270 -0.4960 -0.0403  1.6588
13690TIP3    H262562   5.188   0.460  15.335 -1.2844 -0.9153  2.5297
13691TIP3   OH262563   5.161   5.786  15.651  0.2091  0.3058 -0.1306
13691TIP3    H162564   5.154   5.758  15.742 -1.2008  0.2551 -0.2328
13691TIP3    H262565   5.185   5.707  15.603  0.2783  0.1848  0.1044
13692TIP3   OH262566   2.665   2.183  11.931  0.7096  0.8036  0.4186
13692TIP3    H162567   2.734   2.182  11.998  1.2560  1.2673 -0.1169
13692TIP3    H262568   2.702   2.134  11.858  0.2266  0.5366  0.3537
13693TIP3   OH262569   2.371   5.852  12.354  0.6559  0.4154  0.4161
13693TIP3    H162570   2.376   5.781  12.289 -0.3874  1.1896 -0.5584
13693TIP3    H262571   2.458   5.854  12.394  0.8494 -1.1106  0.1441
13694TIP3   OH262572   2.515   5.122   1.267 -0.2434  0.6792  0.9217
13694TIP3    H162573   2.451   5.091   1.331 -2.1428  0.0052 -1.1849
13694TIP3    H262574   2.475   5.200   1.228  0.5746  0.7231  0.1256
13695TIP3   OH262575   4.182   2.503   5.213 -0.2714  0.1623  0.6516
13695TIP3    H162576   4.175   2.437   5.282  2.3443  0.4890  1.3374
13695TIP3    H262577   4.253   2.471   5.157 -1.5221  0.5315 -1.2484
13696TIP3   OH262578   4.820   1.038   3.018 -0.2966  0.3219  0.0103
13696TIP3    H162579   4.797   1.116   2.966  0.4782  1.5098  1.3836
13696TIP3    H262580   4.842   1.073   3.104 -1.1575 -1.5714  1.0453
13697TIP3   OH262581   4.839   1.408   0.274 -0.1677  0.2856 -0.2952
13697TIP3    H162582   4.765   1.349   0.266  0.5773 -0.6814 -0.2128
13697TIP3    H262583   4.815   1.469   0.344 -0.8203 -0.1032 -0.1795
13698TIP3   OH262584   0.779   5.809  12.241 -0.1467 -0.9856 -1.0272
13698TIP3    H162585   0.861   5.819  12.193  0.9676 -1.1670  0.7270
13698TIP3    H262586   0.760   5.715  12.237 -0.3430 -0.9231 -1.5520
13699TIP3   OH262587   2.120   4.417   4.859 -0.0842 -0.3443 -0.3033
13699TIP3    H162588   2.129   4.479   4.931  0.1756 -0.6385 -0.0778
13699TIP3    H262589   2.056   4.457   4.801 -0.2583 -0.0785  0.0648
13700TIP3   OH262590   2.319   4.623   1.735  0.2579  0.0767 -0.3785
13700TIP3    H162591   2.388   4.572   1.777 -0.5143  0.8205  1.9388
13700TIP3    H262592   2.340   4.714   1.755  0.5563  0.6186 -2.8153
13701TIP3   OH262593   3.613   0.647  11.147 -0.1756  0.0904 -0.5565
13701TIP3    H162594   3.542   0.708  11.126 -0.6170  0.2051  1.1203
13701TIP3    H262595   3.691   0.687  11.110 -0.5749  1.3332 -0.1144
13702TIP3   OH262596   5.291   5.759   3.094  0.5030 -0.2110 -0.5919
13702TIP3    H162597   5.350   5.834   3.097  1.3878 -0.9181  0.4436
13702TIP3    H262598   5.203   5.798   3.097  0.9116  0.7814  2.5178
13703TIP3   OH262599   3.559   6.169  11.058  0.2753  0.2008 -0.1924
13703TIP3    H162600   3.619   6.237  11.025 -0.1374  0.2467 -0.8677
13703TIP3    H262601   3.530   6.123  10.980 -2.4827  1.7276 -0.2245
13704TIP3   OH262602   4.082   6.466  12.723  0.3675 -0.3922 -0.4996
13704TIP3    H162603   4.039   6.479  12.807  1.6110  0.5163  0.0338
13704TIP3    H262604   4.122   6.380  12.729  0.0639 -0.5226 -0.3439
13705TIP3   OH262605   5.858   2.843   4.643  0.3422  0.2086  0.5149
13705TIP3    H162606   5.889   2.919   4.593  1.2306 -1.5894 -1.8534
13705TIP3    H262607   5.934   2.786   4.650 -0.6965 -1.2018  0.7332
13706TIP3   OH262608   0.479   6.762  16.729 -0.3025  0.2689 -0.1418
13706TIP3    H162609   0.570   6.789  16.723  0.1741 -1.0974  0.4053
13706TIP3    H262610   0.483   6.667  16.739 -1.8386  0.0519 -1.2874
13707TIP3   OH262611   0.582   3.347   0.958 -0.1691 -0.4642 -0.4310
13707TIP3    H162612   0.491   3.348   0.986 -0.2330  1.2003 -0.6145
13707TIP3    H262613   0.578   3.318   0.866 -0.6388  0.7134 -0.7952
13708TIP3   OH262614   4.988   6.237   3.422  0.3732 -0.4003  0.0605
13708TIP3    H162615   5.041   6.160   3.441  0.0151 -0.4208  1.0331
13708TIP3    H262616   4.916   6.233   3.485 -0.8240 -0.3899 -1.2469
13709TIP3   OH262617   3.457   3.057   2.032 -0.1005 -0.0975  0.0340
13709TIP3    H162618   3.493   3.097   1.953 -0.4296  1.5341  0.6620
13709TIP3    H262619   3.527   3.063   2.097  0.6946 -2.7563 -0.4663
13710TIP3   OH262620   5.892   0.929   0.342  0.1194 -0.1623 -0.0794
13710TIP3    H162621   5.932   0.869   0.405  0.2187  1.1509  1.1447
13710TIP3    H262622   5.803   0.943   0.373 -0.7506 -1.5566 -1.7373
13711TIP3   OH262623   1.274   5.918  11.951  0.2247  0.3704  0.2229
13711TIP3    H162624   1.369   5.906  11.957 -0.0293 -2.5960  0.0858
13711TIP3    H262625   1.246   5.853  11.886 -1.8618  1.6373 -0.2454
13712TIP3   OH262626   4.361   6.548  15.390 -0.3780 -0.2057  0.2758
13712TIP3    H162627   4.338   6.574  15.479 -1.8440  0.3063 -0.2130
13712TIP3    H262628   4.456   6.538  15.391 -0.2078  1.1666  1.5502
13713TIP3   OH262629   1.846   6.031   2.932 -0.2000  0.4186 -0.6330
13713TIP3    H162630   1.816   6.036   3.023  0.3053  0.8264 -0.4831
13713TIP3    H262631   1.820   6.114   2.894 -0.0274  0.4245 -0.7386
13714TIP3   OH262632   6.443   4.683   3.182  0.1948  1.0522  0.5092
13714TIP3    H162633   6.442   4.676   3.087  0.9964  2.1726  0.3967
13714TIP3    H262634   6.395   4.606   3.213 -0.3964  0.8695 -0.8071
13715TIP3   OH262635   2.902   3.539  13.641  0.1050 -0.0817 -0.2506
13715TIP3    H162636   2.905   3.525  13.735  1.1932 -1.8321 -0.5066
13715TIP3    H262637   2.951   3.466  13.604  0.4485  1.0416 -2.1394
13716TIP3   OH262638   1.467   0.311  11.735  0.1284  0.5299 -0.4399
13716TIP3    H162639   1.517   0.258  11.673  0.7904  1.7718 -0.9960
13716TIP3    H262640   1.492   0.401  11.716 -0.9720  1.0607  0.4855
13717TIP3   OH262641   3.505   6.609  16.087 -0.0364  0.1118 -0.3432
13717TIP3    H162642   3.446   6.684  16.091 -0.0134  0.1076  0.1354
13717TIP3    H262643   3.569   6.632  16.019 -0.3058  0.3211 -0.5251
13718TIP3   OH262644   0.915   2.737  12.531 -0.4470 -0.1166  0.3807
13718TIP3    H162645   0.963   2.662  12.566 -1.3548 -0.5773  0.6816
13718TIP3    H262646   0.831   2.700  12.503 -1.0000  0.8383  0.7603
13719TIP3   OH262647   1.022   3.978  10.115 -0.4534  0.1428  0.8634
13719TIP3    H162648   0.952   3.964  10.178  1.6319 -0.9786  3.0744
13719TIP3    H262649   1.028   3.894  10.068 -2.9806  1.4005 -2.1373
13720TIP3   OH262650   1.032   0.049  13.726 -0.1445 -0.3356  0.4084
13720TIP3    H162651   1.075   0.101  13.659  0.1044 -1.3482 -0.2323
13720TIP3    H262652   1.060  -0.041  13.709  0.0026 -0.6091  1.9238
13721TIP3   OH262653   3.442   1.290   3.192 -0.2375  0.4180 -0.5787
13721TIP3    H162654   3.465   1.367   3.243 -2.5841 -0.9778  3.0409
13721TIP3    H262655   3.360   1.259   3.231 -0.4829 -2.7658 -3.1544
13722TIP3   OH262656   3.663   0.698   5.728 -0.3161 -0.1632 -0.1982
13722TIP3    H162657   3.711   0.641   5.788 -0.7764 -1.1868 -0.7933
13722TIP3    H262658   3.669   0.785   5.769  0.2146 -0.6603  0.8196
13723TIP3   OH262659   1.450   5.562  14.892  0.4470 -0.0336  0.2803
13723TIP3    H162660   1.360   5.574  14.922  0.0150  1.2019 -1.3566
13723TIP3    H262661   1.486   5.496  14.951 -1.7786 -1.1995  0.4762
13724TIP3   OH262662   6.611   1.730  16.361  0.2274  0.1657  0.1987
13724TIP3    H162663   6.521   1.701  16.349  0.3502 -0.7129  1.1834
13724TIP3    H262664   6.660   1.684  16.292 -0.0946  0.7518 -0.4211
13725TIP3   OH262665   2.982   5.912   3.239  0.0082  0.3052 -0.3893
13725TIP3    H162666   3.003   5.982   3.177 -1.7727 -0.6868 -2.1962
13725TIP3    H262667   3.056   5.851   3.231  1.3019  1.6356  0.7989
13726TIP3   OH262668   3.916   5.123   0.935 -0.2486 -0.4322  0.6020
13726TIP3    H162669   3.943   5.040   0.894 -1.8646 -0.6876 -0.0232
13726TIP3    H262670   3.822   5.129   0.916 -1.1404 -0.5264  4.2437
13727TIP3   OH262671   6.835   0.520  15.888  0.1067  0.0855  0.3612
13727TIP3    H162672   6.869   0.456  15.826 -0.9305  0.8339 -1.0498
13727TIP3    H262673   6.741   0.500  15.893 -0.1352  1.1465  0.2850
13728TIP3   OH262674   6.346   1.376  11.203  0.5070  0.2493 -0.4715
13728TIP3    H162675   6.261   1.384  11.246  0.6545  0.2035 -0.1699
13728TIP3    H262676   6.326   1.341  11.116  0.1038  1.3083 -0.8278
13729TIP3   OH262677   3.152   0.891   1.859  0.2182 -0.5578 -0.2143
13729TIP3    H162678   3.119   0.803   1.838  1.4937 -1.4363  1.2482
13729TIP3    H262679   3.200   0.918   1.780 -2.4312  0.0490 -1.7332
13730TIP3   OH262680   2.904   0.670   5.703  0.1040 -0.0081 -0.2808
13730TIP3    H162681   2.808   0.664   5.706  0.1046 -0.6683  3.0936
13730TIP3    H262682   2.931   0.605   5.639 -1.7014  0.0357 -1.1439
13731TIP3   OH262683   4.211   5.219  10.922 -0.0370  0.2742  0.8039
13731TIP3    H162684   4.206   5.260  11.008  1.7177  1.9607  0.1697
13731TIP3    H262685   4.208   5.125  10.940 -1.5086  0.5952  2.5256
13732TIP3   OH262686   4.115   1.259  12.054  0.1835  0.8518  0.1602
13732TIP3    H162687   4.060   1.272  12.132 -0.6572  2.4526 -0.6447
13732TIP3    H262688   4.136   1.348  12.026  0.8322  0.2847 -1.1952
13733TIP3   OH262689   2.047   4.764   5.107  0.1325 -0.4839 -0.2972
13733TIP3    H162690   2.045   4.856   5.078  0.4956 -0.0517  1.0009
13733TIP3    H262691   2.112   4.723   5.050  0.1379  0.1211 -0.7408
13734TIP3   OH262692   4.417   1.814  16.594  0.3904  0.6919 -0.9121
13734TIP3    H162693   4.425   1.727  16.554  2.2246 -0.4025  1.6095
13734TIP3    H262694   4.330   1.814  16.632 -0.0268  0.3994 -1.8185
13735TIP3   OH262695   3.469   6.522   0.246 -0.4438  0.0170 -0.4627
13735TIP3    H162696   3.548   6.496   0.294 -0.2416  0.3120 -0.6261
13735TIP3    H262697   3.427   6.439   0.223 -0.2068 -0.1430 -0.3283
13736TIP3   OH262698   0.883   4.773   0.695  0.4146 -0.3284  0.1087
13736TIP3    H162699   0.836   4.697   0.731  0.9807  0.2291  2.1200
13736TIP3    H262700   0.867   4.843   0.758  0.9815  0.8740 -1.0487
13737TIP3   OH262701   5.515   2.458  14.586  0.0312 -0.0369  1.0933
13737TIP3    H162702   5.563   2.476  14.667  0.5430  0.3872  0.7018
13737TIP3    H262703   5.583   2.440  14.521 -0.3845 -0.6923  0.8233
13738TIP3   OH262704   2.856   5.002   2.327 -0.0012  0.3451 -0.6841
13738TIP3    H162705   2.794   4.956   2.270  0.5040 -0.9134 -0.2558
13738TIP3    H262706   2.902   4.932   2.374  0.7844  1.3000  0.0147
13739TIP3   OH262707   0.506   6.453   0.754  0.3428  0.5110  0.1770
13739TIP3    H162708   0.514   6.545   0.729  0.4595  0.6060  0.5604
13739TIP3    H262709   0.448   6.454   0.830  0.6291  0.3021  0.4002
13740TIP3   OH262710   5.686   3.214  14.294 -0.1802 -0.2950  0.4964
13740TIP3    H162711   5.689   3.251  14.206  0.3510  0.2153  0.7204
13740TIP3    H262712   5.606   3.249  14.333 -0.2149 -0.2136  0.3507
13741TIP3   OH262713   1.109   1.669  16.241 -0.2099 -0.3542  0.2396
13741TIP3    H162714   1.120   1.698  16.331  2.3483  0.3709 -0.2435
13741TIP3    H262715   1.047   1.731  16.203 -0.7604 -0.2451  1.2682
13742TIP3   OH262716   6.740   1.070  12.229  0.0395 -0.5791  0.3179
13742TIP3    H162717   6.827   1.052  12.194 -0.0414 -0.8029  0.2336
13742TIP3    H262718   6.723   1.000  12.292 -0.3151 -0.8593 -0.0857
13743TIP3   OH262719   2.756   4.256  13.334 -0.0623  0.6415  0.7949
13743TIP3    H162720   2.804   4.295  13.408  0.2471 -0.0465  0.9666
13743TIP3    H262721   2.664   4.270  13.356 -0.0531 -1.1255  2.2420
13744TIP3   OH262722   6.656   4.608   1.226 -0.0505 -0.1550  0.3047
13744TIP3    H162723   6.624   4.561   1.303 -1.3678 -0.0823 -0.1652
13744TIP3    H262724   6.578   4.651   1.190  1.2413  3.6605  1.5091
13745TIP3   OH262725   1.296   1.917  12.731  0.5653  0.8012  0.0991
13745TIP3    H162726   1.383   1.939  12.697  0.2346  0.5270 -0.9388
13745TIP3    H262727   1.239   1.918  12.654 -0.6796  2.5342  0.9682
13746TIP3   OH262728   6.532   0.762  15.229  0.0357 -0.7481  1.2907
13746TIP3    H162729   6.603   0.698  15.225  1.1626  0.5213 -0.4759
13746TIP3    H262730   6.535   0.794  15.320  2.4611  0.0028  1.0379
13747TIP3   OH262731   2.054   4.710   4.168 -0.1129  0.1471  0.1273
13747TIP3    H162732   1.960   4.703   4.188 -0.8606 -0.9665 -3.0363
13747TIP3    H262733   2.098   4.663   4.238 -1.9268  0.4577  1.5428
13748TIP3   OH262734   1.010   1.460  14.449  0.0359 -0.2462  0.0454
13748TIP3    H162735   1.033   1.436  14.359  1.1409 -0.3890  0.3486
13748TIP3    H262736   0.932   1.408  14.468  1.2237 -2.1767 -0.0018
13749TIP3   OH262737   5.512   1.955   4.208 -0.1579 -0.0734 -0.7340
13749TIP3    H162738   5.549   1.873   4.173  0.1127  0.4285 -1.6644
13749TIP3    H262739   5.589   2.005   4.236 -0.2788  0.1029 -0.7154
13750TIP3   OH262740   6.519   6.746   2.804 -0.6151 -0.0953  0.3787
13750TIP3    H162741   6.517   6.792   2.888  0.0035  0.5945  0.0342
13750TIP3    H262742   6.489   6.811   2.740  0.7623  0.0216 -0.1867
13751TIP3   OH262743   5.661   4.080   2.455 -0.2711 -0.4076 -0.5385
13751TIP3    H162744   5.700   4.166   2.466  1.8661 -1.5093  1.5830
13751TIP3    H262745   5.622   4.059   2.540  0.7787 -2.1477 -0.4157
13752TIP3   OH262746   2.930   4.040  16.218 -0.1173 -0.0801 -0.0871
13752TIP3    H162747   2.971   3.954  16.225 -0.4976 -0.2981 -0.4712
13752TIP3    H262748   2.837   4.024  16.236 -0.1915  0.2446 -0.1722
13753TIP3   OH262749   3.232   3.197   4.961  0.1244 -0.2687 -1.0529
13753TIP3    H162750   3.253   3.160   4.876 -0.9149 -2.2973 -0.4989
13753TIP3    H262751   3.144   3.234   4.950 -0.4985 -1.5420 -0.6355
13754TIP3   OH262752   2.967   5.928  10.474 -0.0627 -0.0715  0.3344
13754TIP3    H162753   2.975   5.907  10.567 -0.9732  2.7889  1.1613
13754TIP3    H262754   3.039   5.988  10.457  0.1608 -0.6588 -0.8613
13755TIP3   OH262755   0.880   5.281  13.267  0.5406 -0.1529 -0.3491
13755TIP3    H162756   0.848   5.194  13.244  0.2217  0.1215 -0.9575
13755TIP3    H262757   0.843   5.298  13.354  0.5578 -0.5971 -0.2559
13756TIP3   OH262758   0.460   6.046  13.824  0.1824 -0.2101 -0.4161
13756TIP3    H162759   0.434   5.973  13.768 -0.6801 -0.2378  0.0171
13756TIP3    H262760   0.516   6.100  13.768  0.2197 -0.8053 -0.9662
13757TIP3   OH262761   2.179   4.497   1.540 -0.0086  0.4194  0.3202
13757TIP3    H162762   2.124   4.429   1.580  1.2528  0.5184  2.3620
13757TIP3    H262763   2.241   4.521   1.609  1.2505  1.8021 -1.2235
13758TIP3   OH262764   2.749   6.526   6.375  0.3069 -0.3146 -0.0388
13758TIP3    H162765   2.678   6.586   6.351  0.2126 -0.6606 -0.6243
13758TIP3    H262766   2.705   6.445   6.399  0.5113 -0.6145 -0.6564
13759TIP3   OH262767   4.471   1.919  12.809 -0.3066 -0.0751  0.1222
13759TIP3    H162768   4.394   1.928  12.865 -0.1135 -2.8464  0.9864
13759TIP3    H262769   4.545   1.915  12.869  0.2300 -0.0012 -0.5176
13760TIP3   OH262770   4.251   3.079  12.145  0.2374  0.1095 -0.3043
13760TIP3    H162771   4.327   3.138  12.142 -0.8508  1.5222 -1.5815
13760TIP3    H262772   4.224   3.080  12.236  1.3673  0.0966  0.0473
13761TIP3   OH262773   3.305   0.359   2.680  0.4449 -0.7050  0.0241
13761TIP3    H162774   3.242   0.392   2.615 -0.8276  1.4761  2.2011
13761TIP3    H262775   3.389   0.395   2.653 -0.2657  1.1479  0.1566
13762TIP3   OH262776   4.650   0.899  11.550 -0.0316 -0.2021 -0.4574
13762TIP3    H162777   4.604   0.844  11.486 -1.5225  0.3227  0.1232
13762TIP3    H262778   4.634   0.989  11.520 -1.1392  0.0681  0.8840
13763TIP3   OH262779   2.427   3.689   3.171 -0.4047 -0.5722  0.5748
13763TIP3    H162780   2.504   3.746   3.167  0.9791 -2.3564  0.4950
13763TIP3    H262781   2.373   3.725   3.241  0.4174  0.8057  0.5233
13764TIP3   OH262782   5.614   5.927  13.038  0.3481 -0.2573 -0.4641
13764TIP3    H162783   5.532   5.971  13.017 -0.0003  0.8279  2.6230
13764TIP3    H262784   5.679   5.997  13.042  0.6968 -0.6054  0.3579
13765TIP3   OH262785   6.593   4.645  16.276 -0.0901 -0.8313  0.4794
13765TIP3    H162786   6.502   4.626  16.254  0.1792 -1.5872 -0.0165
13765TIP3    H262787   6.644   4.584  16.223  0.8036  0.9003 -0.7707
13766TIP3   OH262788   6.324   2.978  11.407  0.1933  0.3298 -0.0708
13766TIP3    H162789   6.277   2.967  11.324 -0.5467 -0.3183  0.4175
13766TIP3    H262790   6.402   2.923  11.397  0.6416  1.0603 -0.7172
13767TIP3   OH262791   0.343   3.914  16.391 -0.2549  0.1901 -0.5193
13767TIP3    H162792   0.344   3.840  16.330  0.1157  0.3116 -0.6609
13767TIP3    H262793   0.363   3.990  16.337  0.1525  0.2865 -0.2374
13768TIP3   OH262794   5.747   3.288  12.022 -0.5296 -0.4474  0.4879
13768TIP3    H162795   5.747   3.222  11.953  0.7618 -2.2413  2.0819
13768TIP3    H262796   5.796   3.362  11.986 -0.7736 -0.9148 -0.8455
13769TIP3   OH262797   5.623   6.809   0.316  0.2665 -0.4685 -0.0903
13769TIP3    H162798   5.601   6.733   0.262  2.0703 -2.5110  1.8248
13769TIP3    H262799   5.702   6.844   0.275 -0.6290  0.5145 -1.0403
13770TIP3   OH262800   5.983   3.685   6.453 -0.5878 -0.2228  0.0393
13770TIP3    H162801   5.933   3.736   6.516  0.0721  0.7663 -0.2010
13770TIP3    H262802   5.959   3.594   6.470 -1.9909  0.1853  0.3111
13771TIP3   OH262803   5.755   0.230   4.675 -0.3952  0.0199 -0.1612
13771TIP3    H162804   5.700   0.177   4.618 -0.2117 -0.0838 -0.2394
13771TIP3    H262805   5.760   0.180   4.757  0.0529 -0.2439 -0.3485
13772TIP3   OH262806   4.381   0.563   5.259  0.1279 -0.0390 -0.8484
13772TIP3    H162807   4.366   0.527   5.171 -0.1803 -0.3791 -0.6632
13772TIP3    H262808   4.323   0.639   5.264 -4.2447 -3.0677  0.9534
13773TIP3   OH262809   3.881   3.226   2.307 -0.6388 -0.0037 -0.2405
13773TIP3    H162810   3.917   3.177   2.233  0.8017 -0.8871  0.9801
13773TIP3    H262811   3.860   3.159   2.373 -0.6495  0.8454  0.6546
13774TIP3   OH262812   2.941   0.644   6.185 -0.7850 -0.3550 -0.1745
13774TIP3    H162813   2.901   0.559   6.204  0.6950 -1.3245 -1.2688
13774TIP3    H262814   2.949   0.686   6.271 -2.8689 -0.6637  0.2267
13775TIP3   OH262815   0.167   3.249  15.289 -0.0547 -0.0542 -0.2133
13775TIP3    H162816   0.103   3.180  15.272  1.7376 -2.3026  1.3758
13775TIP3    H262817   0.131   3.298  15.362 -1.7488  1.3582 -1.9007
13776TIP3   OH262818   5.868   4.251   0.582  0.4391  0.0944  0.2676
13776TIP3    H162819   5.869   4.335   0.627  0.6878  0.5539 -0.5731
13776TIP3    H262820   5.948   4.250   0.530 -0.1849 -0.0912 -0.7322
13777TIP3   OH262821   3.436   6.547  11.123  0.6290  0.1813 -0.1987
13777TIP3    H162822   3.347   6.549  11.159  0.6911 -1.2558  0.1264
13777TIP3    H262823   3.487   6.501  11.190  1.1636 -0.8484 -1.2786
13778TIP3   OH262824   4.309   3.082   1.232 -0.1237 -0.0796  0.0354
13778TIP3    H162825   4.279   3.008   1.179 -0.6930 -1.1462  1.7305
13778TIP3    H262826   4.401   3.093   1.208  0.1472 -1.7542  0.1451
13779TIP3   OH262827   6.368   0.521   0.679 -0.0906  0.2619 -0.1515
13779TIP3    H162828   6.348   0.451   0.741 -0.1346 -0.4950 -0.9862
13779TIP3    H262829   6.460   0.508   0.657 -0.3079 -0.0508 -0.9184
13780TIP3   OH262830   0.195   0.617  12.727 -0.2807  0.0911  0.4393
13780TIP3    H162831   0.189   0.687  12.662  0.1618 -0.8187 -0.6150
13780TIP3    H262832   0.283   0.627  12.765  0.6405 -1.1534 -1.2404
13781TIP3   OH262833   5.137   5.729  16.230  0.1263 -0.6852 -0.3600
13781TIP3    H162834   5.155   5.822  16.225 -0.4644 -0.5321  0.1568
13781TIP3    H262835   5.169   5.703  16.317 -0.6789 -0.7299 -0.0656
13782TIP3   OH262836   4.825   4.283  14.419  0.2753  0.3260  0.0749
13782TIP3    H162837   4.840   4.215  14.484  2.0266  0.9936  0.4363
13782TIP3    H262838   4.819   4.364  14.470  1.3591  0.8194 -0.5406
13783TIP3   OH262839   5.471   5.660   6.451 -0.0476 -0.0578 -0.4049
13783TIP3    H162840   5.478   5.564   6.454 -1.2723 -0.1342  1.0609
13783TIP3    H262841   5.425   5.683   6.531 -0.9470  1.6583 -1.3695
13784TIP3   OH262842   2.266   3.326   1.794  0.4597 -0.1683  0.1027
13784TIP3    H162843   2.301   3.358   1.877  1.2604 -1.5682  0.3435
13784TIP3    H262844   2.273   3.401   1.735 -1.1298  1.1884  1.5379
13785TIP3   OH262845   6.810   0.010  11.438 -0.1120  0.1967 -0.1708
13785TIP3    H162846   6.842  -0.061  11.381 -2.2462 -0.1180 -1.0813
13785TIP3    H262847   6.761  -0.035  11.506 -2.0149  0.7521 -1.1077
13786TIP3   OH262848   2.086   6.105  13.096  0.2327  0.0696  0.6518
13786TIP3    H162849   2.073   6.198  13.074  1.1454 -0.5141 -2.9459
13786TIP3    H262850   2.005   6.062  13.067  0.4349 -0.4624  0.8671
13787TIP3   OH262851   3.577   3.789   1.635  0.1288  0.0990  0.4157
13787TIP3    H162852   3.617   3.756   1.554  0.0976 -1.0791  0.8697
13787TIP3    H262853   3.556   3.880   1.615  0.9947  0.1007 -0.5861
13788TIP3   OH262854   2.488   0.186  16.688 -0.0964  0.0894  0.0656
13788TIP3    H162855   2.513   0.096  16.710  0.2077  0.0129 -0.5634
13788TIP3    H262856   2.436   0.178  16.608 -1.4108  0.3360  0.8708
13789TIP3   OH262857   5.046   6.376  14.818  0.3156  0.6088  0.1403
13789TIP3    H162858   5.022   6.418  14.735  0.1266  0.8499  0.3126
13789TIP3    H262859   5.106   6.438  14.859  0.7820  0.2714 -0.0271
13790TIP3   OH262860   0.331   5.138   3.317 -0.5410 -0.2507  0.4569
13790TIP3    H162861   0.416   5.175   3.292 -0.6891 -0.2628 -0.0858
13790TIP3    H262862   0.299   5.098   3.236 -0.6336 -1.0783  0.9019
13791TIP3   OH262863   5.977   1.729  14.596 -0.4146  0.3739 -0.5213
13791TIP3    H162864   5.942   1.743  14.508 -0.0847 -1.4233 -0.9747
13791TIP3    H262865   5.902   1.742  14.654 -0.1933  3.7859 -0.7777
13792TIP3   OH262866   3.476   0.888   0.767 -0.2762 -0.2942  0.2590
13792TIP3    H162867   3.397   0.838   0.787 -2.1237  1.1788 -2.6777
13792TIP3    H262868   3.542   0.822   0.749 -1.1453 -1.5727  1.5072
13793TIP3   OH262869   3.909   0.792   5.055 -0.3712 -0.5691 -0.3762
13793TIP3    H162870   3.973   0.852   5.093 -0.6470  0.5517 -1.6277
13793TIP3    H262871   3.888   0.829   4.969 -2.0405 -1.3836 -0.3718
13794TIP3   OH262872   5.235   1.668   0.178 -0.2625  0.2025 -0.0943
13794TIP3    H162873   5.173   1.669   0.105  1.2965  1.1836 -1.4841
13794TIP3    H262874   5.316   1.703   0.141  0.4662  1.1847  2.2384
13795TIP3   OH262875   2.738   6.478  15.814  0.2158  0.8726  0.6415
13795TIP3    H162876   2.658   6.425  15.807  0.2459  1.0782 -2.7936
13795TIP3    H262877   2.708   6.560  15.854 -0.9112  0.2574  1.1149
13796TIP3   OH262878   1.205   0.520   1.073 -0.4075 -0.2161  0.0348
13796TIP3    H162879   1.206   0.526   0.978 -3.3906 -0.6878 -0.1346
13796TIP3    H262880   1.267   0.450   1.094  1.5381  0.9942 -1.3541
13797TIP3   OH262881   0.834   4.367   2.587  0.1982 -0.2452 -0.4231
13797TIP3    H162882   0.788   4.297   2.541 -0.2266  0.7423 -1.5717
13797TIP3    H262883   0.832   4.441   2.526  1.3863  0.5074  0.3965
13798TIP3   OH262884   6.516   1.646   1.905 -0.5703 -0.4572  0.4969
13798TIP3    H162885   6.431   1.652   1.948 -1.1029 -1.2440 -0.4077
13798TIP3    H262886   6.499   1.672   1.814  0.3281  0.2086  0.5041
13799TIP3   OH262887   0.801   1.369  14.881 -0.0895  0.9128 -0.0888
13799TIP3    H162888   0.850   1.395  14.959 -0.6437 -2.0649  1.3816
13799TIP3    H262889   0.864   1.318  14.829 -1.0758 -1.6776  1.1018
13800TIP3   OH262890   3.406   5.407   0.023  0.1428  0.0538  0.0694
13800TIP3    H162891   3.343   5.337   0.044  0.0940  0.0036 -0.2384
13800TIP3    H262892   3.479   5.361  -0.019 -0.5730  0.3488 -1.5964
13801TIP3   OH262893   6.710   4.854  13.946 -0.2030  0.0667 -0.2837
13801TIP3    H162894   6.737   4.909  14.019 -0.7626 -0.8458  0.6285
13801TIP3    H262895   6.624   4.822  13.971 -0.2615 -0.5112 -1.2082
13802TIP3   OH262896   6.008   3.861   0.502  0.1681 -0.0085  0.2414
13802TIP3    H162897   5.927   3.851   0.451 -0.2018 -1.3686  1.0433
13802TIP3    H262898   5.980   3.901   0.584  0.6667  1.5940 -0.3438
13803TIP3   OH262899   5.971   3.193   5.776  0.0172  0.0838  0.1367
13803TIP3    H162900   6.046   3.162   5.724 -0.7850 -1.5357 -0.1046
13803TIP3    H262901   6.002   3.189   5.867  0.3954 -0.0735  0.0033
13804TIP3   OH262902   3.384   0.289  11.882  0.6264  0.0423 -0.5672
13804TIP3    H162903   3.437   0.348  11.936  0.1921  0.3033 -0.4276
13804TIP3    H262904   3.313   0.261  11.939  0.8960 -0.7210 -0.5940
13805TIP3   OH262905   3.778   0.542   4.931  0.6922 -0.3533 -0.3136
13805TIP3    H162906   3.718   0.474   4.963  0.2453  0.4645  0.6677
13805TIP3    H262907   3.737   0.624   4.959  1.8689  0.2590 -0.3306
13806TIP3   OH262908   5.748   6.715  16.473  0.5389 -0.3440  0.0749
13806TIP3    H162909   5.823   6.659  16.492  1.2209  0.2874 -0.7109
13806TIP3    H262910   5.686   6.657  16.429  1.7015 -0.2571 -1.7625
13807TIP3   OH262911   6.562   3.140   4.501 -0.4966 -0.3412  0.3783
13807TIP3    H162912   6.606   3.192   4.434 -0.5829  0.4988  0.9597
13807TIP3    H262913   6.576   3.049   4.474 -1.4882 -0.0130 -1.3933
13808TIP3   OH262914   6.185   0.993   2.549  0.2559  0.1600 -0.7831
13808TIP3    H162915   6.218   1.049   2.619 -2.0571  0.0045  0.5117
13808TIP3    H262916   6.250   0.923   2.541  0.8309  0.4775  0.8181
13809TIP3   OH262917   6.467   2.958  11.664  0.1205 -0.2530 -0.0142
13809TIP3    H162918   6.405   3.015  11.619 -0.3221 -1.1025 -0.4998
13809TIP3    H262919   6.533   2.938  11.597 -0.0592 -0.8070 -0.0241
13810TIP3   OH262920   4.055   4.665   2.091 -0.4132 -0.4484 -0.1874
13810TIP3    H162921   4.028   4.605   2.161 -0.2661 -1.5362 -1.0232
13810TIP3    H262922   4.149   4.647   2.080 -0.0069  1.0571  0.5785
13811TIP3   OH262923   5.444   5.553   3.204  0.2426  0.1267 -0.7069
13811TIP3    H162924   5.406   5.508   3.280  0.0411 -0.1542 -0.9688
13811TIP3    H262925   5.374   5.611   3.173  0.1276 -0.1605 -1.0006
13812TIP3   OH262926   2.729   2.997   5.485 -0.4169  0.1972  0.1878
13812TIP3    H162927   2.815   2.966   5.511 -0.0103  0.9534 -0.2296
13812TIP3    H262928   2.746   3.067   5.422 -1.3470 -0.2882 -0.6254
13813TIP3   OH262929   2.353   6.507  12.118 -0.2845  0.2279 -0.3963
13813TIP3    H162930   2.446   6.520  12.136 -0.1713 -1.9841  0.9911
13813TIP3    H262931   2.326   6.439  12.179 -2.8980  0.9692 -0.6036
13814TIP3   OH262932   4.418   1.559  15.703  0.6820 -0.3999 -0.5059
13814TIP3    H162933   4.423   1.641  15.753  0.7475  1.3156 -3.0954
13814TIP3    H262934   4.505   1.548  15.666 -0.2209  0.5485 -3.2083
13815TIP3   OH262935   4.533   6.274   5.345  0.2951 -0.3578 -0.7899
13815TIP3    H162936   4.483   6.334   5.401  1.0498  0.8198 -1.3385
13815TIP3    H262937   4.480   6.194   5.343 -1.8450  0.9927 -1.7598
13816TIP3   OH262938   6.385   2.342   4.583  0.4486 -0.0546 -0.2263
13816TIP3    H162939   6.343   2.371   4.664 -0.0540  0.2192 -0.5809
13816TIP3    H262940   6.403   2.249   4.597 -0.1223 -0.1345 -0.0004
13817TIP3   OH262941   6.824   6.802  14.125  0.0038 -0.2862 -0.0590
13817TIP3    H162942   6.794   6.810  14.034 -0.4679  0.7657  0.1737
13817TIP3    H262943   6.821   6.708  14.143 -0.0033 -0.4929 -1.0936
13818TIP3   OH262944   6.626   3.201  16.766  0.4145  0.6458  0.0378
13818TIP3    H162945   6.549   3.259  16.766  0.0647  0.1982 -0.6107
13818TIP3    H262946   6.689   3.245  16.823 -0.1620  1.2368  0.2373
13819TIP3   OH262947   6.595   3.639  16.143 -0.3245 -0.7113  0.2915
13819TIP3    H162948   6.625   3.715  16.193 -1.8172  0.2810 -0.2600
13819TIP3    H262949   6.593   3.567  16.206 -0.4609  0.0887  1.2123
13820TIP3   OH262950   1.698   6.467  16.729  0.1301 -0.3129 -0.2701
13820TIP3    H162951   1.714   6.373  16.718  0.9764 -0.0828 -1.0666
13820TIP3    H262952   1.719   6.484  16.821  0.2443 -0.8389 -0.1946
13821TIP3   OH262953   2.271   0.757  11.155  0.5252  0.4542  0.3864
13821TIP3    H162954   2.310   0.764  11.068  0.2256  0.9194  0.2837
13821TIP3    H262955   2.243   0.666  11.162 -0.3890  0.6542 -0.4260
13822TIP3   OH262956   1.015   2.573   2.630  0.0587  0.3528 -0.1552
13822TIP3    H162957   1.055   2.548   2.713  0.0187  0.2301 -0.1728
13822TIP3    H262958   1.087   2.610   2.579 -0.1270  1.4213  0.3290
13823TIP3   OH262959   3.504   5.739  10.929  0.2057 -0.4506  0.1518
13823TIP3    H162960   3.514   5.831  10.907  1.0026 -0.2703  1.2138
13823TIP3    H262961   3.427   5.710  10.879  0.9377  0.3478 -1.4843
13824TIP3   OH262962   2.472   1.478   5.494  0.6002 -0.1457  0.1847
13824TIP3    H162963   2.505   1.405   5.441  2.6035  0.5420  0.4030
13824TIP3    H262964   2.525   1.553   5.467  0.2341  0.6936  1.6940
13825TIP3   OH262965   4.475   0.957  13.352  0.0828  0.7180 -0.5607
13825TIP3    H162966   4.408   0.936  13.417  1.7894 -0.0107  1.0779
13825TIP3    H262967   4.442   0.920  13.270 -1.6291  0.6631  0.1198
13826TIP3   OH262968   0.960   0.820   1.363  0.2004  0.0020 -0.1459
13826TIP3    H162969   0.999   0.748   1.312  0.9609  0.6081 -0.4385
13826TIP3    H262970   0.907   0.867   1.299 -0.8232 -0.6560  0.1893
13827TIP3   OH262971   2.116   0.043   4.266  0.4078  0.0339  0.4496
13827TIP3    H162972   2.033   0.068   4.305  0.1172 -0.7962  0.3857
13827TIP3    H262973   2.110   0.070   4.175  0.4283  0.4684  0.5752
13828TIP3   OH262974   1.806   2.527  13.766  0.2898 -0.7191  0.1632
13828TIP3    H162975   1.827   2.620  13.779  0.1012 -0.5435 -0.7353
13828TIP3    H262976   1.712   2.526  13.752  0.1697 -1.1446  0.9337
13829TIP3   OH262977   2.175   0.557   0.277  0.1636  0.8072  0.7092
13829TIP3    H162978   2.151   0.648   0.299  0.5664  1.4052 -1.1131
13829TIP3    H262979   2.270   0.556   0.283  0.0667 -0.1041  2.7427
13830TIP3   OH262980   4.038   0.528   4.836  0.0972  0.2404  0.1270
13830TIP3    H162981   3.954   0.521   4.881  0.7646 -0.6048  1.3063
13830TIP3    H262982   4.016   0.558   4.748 -1.6646 -2.1955 -0.3409
13831TIP3   OH262983   6.330   5.099  12.940  0.3861  0.9103  0.1943
13831TIP3    H162984   6.351   5.063  13.026 -0.0002  2.7201  1.0860
13831TIP3    H262985   6.234   5.103  12.939  0.3018 -0.5170 -0.9630
13832TIP3   OH262986   2.383   4.872  10.877 -0.9483 -0.2084 -0.4404
13832TIP3    H162987   2.428   4.793  10.848  0.3024  0.6751 -0.9882
13832TIP3    H262988   2.292   4.844  10.891 -0.4724 -1.7975 -0.3159
13833TIP3   OH262989   0.374   3.195  16.308  0.0186 -0.2001  0.0844
13833TIP3    H162990   0.440   3.260  16.282 -1.1055  0.1920 -2.0415
13833TIP3    H262991   0.328   3.236  16.381  1.3368  0.0171  0.8246
13834TIP3   OH262992   1.921   5.908  15.064 -0.2294 -0.1496  0.1534
13834TIP3    H162993   1.915   5.833  15.004 -0.9993  0.9970 -1.2676
13834TIP3    H262994   1.986   5.965  15.024  0.2779  0.0099  1.1711
13835TIP3   OH262995   1.214   4.751   2.162  0.4062  0.4948 -0.3796
13835TIP3    H162996   1.139   4.734   2.218 -0.3115 -0.2781 -1.5184
13835TIP3    H262997   1.215   4.677   2.102  2.6455  0.0027  0.1847
13836TIP3   OH262998   5.173   2.419   3.969 -0.2967  0.2217  0.1771
13836TIP3    H162999   5.204   2.509   3.976 -1.4088  0.6439 -0.2211
13836TIP3    H263000   5.126   2.416   3.886 -0.3756 -0.6963  0.2445
13837TIP3   OH263001   0.369   6.056  15.428  0.3475  0.1269  0.6946
13837TIP3    H163002   0.444   6.084  15.480  0.8939  1.3507 -0.6795
13837TIP3    H263003   0.371   6.112  15.350 -0.3526 -1.7002 -0.7214
13838TIP3   OH263004   4.683   0.542  11.433 -0.0897 -0.7391 -0.7175
13838TIP3    H163005   4.717   0.452  11.433 -0.4496 -0.8981 -2.0741
13838TIP3    H263006   4.757   0.595  11.461  0.1721 -1.4372 -0.0342
13839TIP3   OH263007   1.904   2.210   5.632 -0.2241 -0.1711 -0.5153
13839TIP3    H163008   1.951   2.271   5.575  0.7985  2.9791  3.2671
13839TIP3    H263009   1.964   2.196   5.706 -2.5944 -1.5181  1.2713
13840TIP3   OH263010   5.341   0.612   4.141  0.1596 -0.1582 -0.6552
13840TIP3    H163011   5.381   0.538   4.094  1.6098  0.9197 -1.1995
13840TIP3    H263012   5.319   0.675   4.072  2.7724  1.6685  0.0115
13841TIP3   OH263013   4.014   1.483   5.304  0.5214  0.1394 -0.2597
13841TIP3    H163014   4.090   1.468   5.361 -0.3045  2.3326  1.5648
13841TIP3    H263015   3.942   1.436   5.347  0.4723 -0.5962 -1.1102
13842TIP3   OH263016   6.529   5.562  17.152  0.0803  0.2961 -0.2058
13842TIP3    H163017   6.564   5.597  17.070  0.2726 -1.6665 -0.9953
13842TIP3    H263018   6.590   5.594  17.219  2.0112 -0.9772 -1.2673
13843TIP3   OH263019   1.822   3.300  14.829  0.6688  0.2410  0.5477
13843TIP3    H163020   1.787   3.386  14.849 -0.0886 -0.5033  2.6600
13843TIP3    H263021   1.903   3.318  14.781  0.7260  2.1203  1.2755
13844TIP3   OH263022   5.929   4.884  13.437  0.1960 -0.0994  0.1784
13844TIP3    H163023   6.004   4.862  13.382 -1.7117 -0.0173 -2.7054
13844TIP3    H263024   5.959   4.959  13.489  2.0540  0.0876 -1.0369
13845TIP3   OH263025   1.339   2.257   0.025 -0.3500 -0.4818  0.7314
13845TIP3    H163026   1.419   2.274   0.076  0.8142 -0.3669 -1.0488
13845TIP3    H263027   1.366   2.266  -0.066 -2.7065  0.7957  0.0763
13846TIP3   OH263028   1.722   2.220   2.591  0.5387  0.0119 -0.2170
13846TIP3    H163029   1.799   2.276   2.597 -0.4680  1.6884 -1.9578
13846TIP3    H263030   1.661   2.257   2.655  0.3861  0.0318 -0.3729
13847TIP3   OH263031   4.238   6.035  13.691  0.6218 -0.2425 -0.9330
13847TIP3    H163032   4.310   6.003  13.636  0.6110 -0.1587 -0.9962
13847TIP3    H263033   4.186   5.956  13.710 -0.5898  0.0363 -2.8260
13848TIP3   OH263034   2.142   1.214   1.353  0.1588 -0.0510 -0.0724
13848TIP3    H163035   2.060   1.219   1.304  0.9036  2.9841 -1.2623
13848TIP3    H263036   2.115   1.222   1.445 -0.9366  0.4472 -0.4133
13849TIP3   OH263037   6.781   6.661  16.143 -0.4058 -0.3214 -0.3939
13849TIP3    H163038   6.759   6.599  16.073 -1.9714  2.0257 -2.1376
13849TIP3    H263039   6.702   6.665  16.196 -0.1057 -0.2035  0.0493
13850TIP3   OH263040   6.077   1.108  16.393 -0.6559 -0.2139 -0.3986
13850TIP3    H163041   5.994   1.064  16.377 -0.7635  0.1000 -0.7144
13850TIP3    H263042   6.134   1.040  16.429 -0.8140 -0.6162 -0.8999
13851TIP3   OH263043   5.790   6.041  13.518  0.1127  0.2309  0.0620
13851TIP3    H163044   5.738   6.117  13.547  1.4368  1.0584  0.3389
13851TIP3    H263045   5.824   6.068  13.432  0.2617 -0.2178 -0.0189
13852TIP3   OH263046   6.202   4.928  16.584 -0.2001 -0.0593  0.4667
13852TIP3    H163047   6.280   4.980  16.603  0.6510 -0.4943 -1.5553
13852TIP3    H263048   6.235   4.847  16.545 -1.6100 -1.0257  1.1691
13853TIP3   OH263049   2.248   1.393  16.377 -0.2703 -0.2836 -0.1561
13853TIP3    H163050   2.271   1.338  16.302 -2.0086  0.2982 -1.1739
13853TIP3    H263051   2.195   1.336  16.433  1.0562 -0.7280  0.6822
13854TIP3   OH263052   2.380   5.979  13.130 -0.5090  0.5322 -0.1735
13854TIP3    H163053   2.286   5.997  13.128 -0.4149  1.0259 -0.2456
13854TIP3    H263054   2.419   6.059  13.164  0.0292  0.9121 -1.6355
13855TIP3   OH263055   3.375   3.310  12.178  0.2848  0.1642  0.2924
13855TIP3    H163056   3.345   3.385  12.126  1.9668 -0.4572 -1.7105
13855TIP3    H263057   3.448   3.345  12.230  1.7854 -0.2666 -1.4529
13856TIP3   OH263058   0.746   2.861   2.912  0.0967 -0.1750  0.2051
13856TIP3    H163059   0.721   2.841   2.822  0.3769  2.4385 -0.5332
13856TIP3    H263060   0.663   2.862   2.960 -0.4527  1.3719 -0.7015
13857TIP3   OH263061   5.235   2.379   3.522  0.1190 -0.5169 -0.2724
13857TIP3    H163062   5.171   2.389   3.451  1.4495  0.4647 -1.4062
13857TIP3    H263063   5.188   2.332   3.591 -2.3013  1.4926 -0.4040
13858TIP3   OH263064   6.146   0.728   0.997  0.2614  0.4669 -0.1279
13858TIP3    H163065   6.067   0.675   1.009  0.1970 -0.0512 -2.4088
13858TIP3    H263066   6.190   0.725   1.083 -2.0932  0.6941  1.1784
13859TIP3   OH263067   5.217   6.260   1.610 -0.0636  0.3548  0.1466
13859TIP3    H163068   5.283   6.198   1.581  1.0547  1.3248  0.5655
13859TIP3    H263069   5.264   6.343   1.621 -1.2442  0.9530  0.9226
13860TIP3   OH263070   1.214   3.138   4.805  0.2552 -0.4134 -0.0948
13860TIP3    H163071   1.128   3.127   4.764  0.0170  0.0142  0.2804
13860TIP3    H263072   1.268   3.070   4.765 -0.2573 -0.6905 -0.3341
13861TIP3   OH263073   4.434   6.696  11.601  0.1534  0.7064  0.1669
13861TIP3    H163074   4.525   6.667  11.591 -0.0966 -0.4841  1.1657
13861TIP3    H263075   4.431   6.735  11.689 -0.0775  1.7084 -0.2646
13862TIP3   OH263076   6.246   3.528   5.755  0.1468 -0.1135  0.2016
13862TIP3    H163077   6.214   3.516   5.665 -2.2063 -3.1470  1.2554
13862TIP3    H263078   6.188   3.595   5.792 -1.8264 -1.9042  0.5739
13863TIP3   OH263079   4.705   6.125  11.418 -0.0808  0.8776  0.1992
13863TIP3    H163080   4.791   6.102  11.382 -0.3707  0.9836 -0.5826
13863TIP3    H263081   4.673   6.195  11.361 -0.6498  0.8991  0.5336
13864TIP3   OH263082   4.319   0.785  14.366 -1.0188 -0.2756  0.1569
13864TIP3    H163083   4.261   0.714  14.393  0.0173 -0.7674  1.1679
13864TIP3    H263084   4.278   0.864  14.401 -0.8001 -0.6807  1.3830
13865TIP3   OH263085   1.014   4.523  11.328  0.4998  0.5866  0.3414
13865TIP3    H163086   1.051   4.610  11.340  1.6862 -0.0690  1.6528
13865TIP3    H263087   1.047   4.495  11.242  1.4967  0.7869  0.6415
13866TIP3   OH263088   6.233   2.413   2.293 -0.4417 -0.0535  0.0767
13866TIP3    H163089   6.231   2.363   2.374 -0.0772  0.3455  0.3375
13866TIP3    H263090   6.271   2.354   2.229 -1.1061 -0.5111  0.0935
13867TIP3   OH263091   0.325   2.087  11.251  0.0075 -0.4507  0.5068
13867TIP3    H163092   0.382   2.147  11.204 -0.0962  1.7024  2.9148
13867TIP3    H263093   0.236   2.110  11.222  0.0206  0.0406  0.8482
13868TIP3   OH263094   5.032   6.727  16.697  0.3626 -0.4594 -0.0614
13868TIP3    H163095   4.969   6.769  16.756  0.5605 -0.4047  0.1127
13868TIP3    H263096   5.011   6.633  16.702  1.6697 -0.7171  1.6866
13869TIP3   OH263097   1.137   0.756  16.116 -0.1917  0.3254 -0.2792
13869TIP3    H163098   1.068   0.812  16.081 -0.4454 -0.4785 -1.1056
13869TIP3    H263099   1.176   0.714  16.039 -0.1662 -0.8088  0.3268
13870TIP3   OH263100   5.121   3.448  12.276  0.0296 -0.7003 -0.0039
13870TIP3    H163101   5.159   3.395  12.347 -0.0112 -1.5634 -0.6145
13870TIP3    H263102   5.027   3.434  12.283  0.0103 -0.6239 -0.1093
13871TIP3   OH263103   1.886   6.662   1.387  0.4925  0.5216 -0.1302
13871TIP3    H163104   1.935   6.664   1.304  0.4950  0.0228 -0.1411
13871TIP3    H263105   1.944   6.705   1.450  0.8204  0.2057 -0.2110
13872TIP3   OH263106   2.256   2.384  15.982 -1.0060 -0.5013  0.4987
13872TIP3    H163107   2.254   2.478  15.996 -1.2693 -0.5919  1.1149
13872TIP3    H263108   2.326   2.370  15.917 -0.6552  0.0686  0.7520
13873TIP3   OH263109   5.565   0.696   6.182 -0.2123 -0.2841  0.1443
13873TIP3    H163110   5.535   0.770   6.235 -1.2329 -0.9702  0.5699
13873TIP3    H263111   5.648   0.670   6.223 -1.1484 -1.0263  1.6909
13874TIP3   OH263112   0.246   0.030   4.912 -0.0749  0.0692  0.5080
13874TIP3    H163113   0.233  -0.060   4.882 -1.5548  0.8432 -1.4191
13874TIP3    H263114   0.310   0.067   4.852 -0.5632  0.6923  0.3486
13875TIP3   OH263115   0.863   2.061  14.048  0.1983  0.2591  0.3611
13875TIP3    H163116   0.928   2.097  13.987 -0.9363  1.8164  0.0225
13875TIP3    H263117   0.845   2.132  14.109 -1.5070  0.0090  0.1992
13876TIP3   OH263118   6.031   1.724   0.018 -0.1360  0.2480 -0.1904
13876TIP3    H163119   5.976   1.670   0.075  0.0480  1.2875  1.0101
13876TIP3    H263120   5.998   1.707  -0.070 -0.5594 -1.2480  0.2280
13877TIP3   OH263121   1.830   4.983  11.515 -0.1262 -0.3842  0.5394
13877TIP3    H163122   1.886   4.980  11.437  0.3143 -0.9123  0.8703
13877TIP3    H263123   1.775   4.905  11.508  0.0181 -0.5138  0.8281
13878TIP3   OH263124   2.788   6.741  14.155  0.5939  0.0834 -0.6965
13878TIP3    H163125   2.862   6.681  14.140  0.2145 -1.0630  1.5711
13878TIP3    H263126   2.768   6.775  14.068  3.2736 -0.1556 -1.5250
13879TIP3   OH263127   0.061   5.832  11.713 -0.2198 -0.1272  0.1105
13879TIP3    H163128   0.021   5.756  11.754  0.8230 -1.3968 -1.1358
13879TIP3    H263129  -0.006   5.901  11.720 -0.4492 -0.5516  2.9361
13880TIP3   OH263130   4.558   6.766   5.975  0.7395  0.3977  0.3172
13880TIP3    H163131   4.638   6.715   5.962  0.1918 -0.4204  0.0406
13880TIP3    H263132   4.490   6.700   5.992 -0.0436  1.0137 -0.3110
13881TIP3   OH263133   6.709   6.795   6.033 -0.1354 -0.1153 -0.1663
13881TIP3    H163134   6.714   6.884   6.069  0.6518 -1.0319  2.1875
13881TIP3    H263135   6.751   6.740   6.100 -0.1429 -2.2033 -1.7862
13882TIP3   OH263136   1.586   4.397   5.078 -0.0752  0.3942  0.5858
13882TIP3    H163137   1.524   4.363   5.013 -0.2392 -0.6137  1.2389
13882TIP3    H263138   1.672   4.375   5.043 -0.1984 -1.8615  1.5558
13883TIP3   OH263139   5.828   6.687  12.072  0.9017 -0.3142 -0.7728
13883TIP3    H163140   5.813   6.779  12.092  0.4607 -0.2711 -1.2886
13883TIP3    H263141   5.836   6.684  11.977  1.7695 -0.6897 -0.6941
13884TIP3   OH263142   3.784   6.507   4.039  0.4389  0.3922  0.3005
13884TIP3    H163143   3.715   6.496   4.104 -0.7328  1.2338 -0.7424
13884TIP3    H263144   3.821   6.593   4.057  0.4784  0.3995  0.1876
13885TIP3   OH263145   0.883   3.888  14.340  0.1341 -0.6018  0.2534
13885TIP3    H163146   0.851   3.810  14.296  0.2167 -0.3983 -0.1731
13885TIP3    H263147   0.804   3.930  14.375 -0.1359  0.0895 -1.1117
13886TIP3   OH263148   0.294   5.198   5.295  0.3542  0.7830 -0.4003
13886TIP3    H163149   0.364   5.249   5.255  0.6948  0.2990 -0.4286
13886TIP3    H263150   0.278   5.241   5.379 -0.2045  1.6619 -0.9359
13887TIP3   OH263151   3.070   6.448   6.697 -0.5945 -0.4440 -0.4041
13887TIP3    H163152   3.069   6.375   6.635 -2.1464 -1.4777  0.7498
13887TIP3    H263153   3.033   6.521   6.648 -1.3721 -1.1252 -0.8670
13888TIP3   OH263154   5.027   0.950  14.570  0.1711  0.0564 -0.7139
13888TIP3    H163155   5.060   0.890  14.637  2.2084  0.0617 -1.6351
13888TIP3    H263156   4.963   0.897  14.521  2.6652 -1.8561 -2.1674
13889TIP3   OH263157   0.039   6.017   2.101  0.3264 -0.2781  0.3180
13889TIP3    H163158   0.080   6.049   2.021 -0.0125  0.0400  0.2710
13889TIP3    H263159   0.107   5.963   2.143  0.7463  0.1404  0.1810
13890TIP3   OH263160   5.271   0.867   0.632  0.1416 -0.6906  1.3198
13890TIP3    H163161   5.255   0.805   0.560  1.3700 -1.3248  1.5595
13890TIP3    H263162   5.205   0.844   0.698  0.3824 -1.5546  1.2756
13891TIP3   OH263163   4.973   4.259   5.901 -0.1571  0.1625 -0.9439
13891TIP3    H163164   4.938   4.210   5.975  0.7969  1.3541  0.3277
13891TIP3    H263165   4.907   4.325   5.881 -0.1658  0.1964 -0.7988
13892TIP3   OH263166   3.628   6.784   2.277 -0.4593 -0.3041 -0.5204
13892TIP3    H163167   3.640   6.821   2.190  1.8851 -0.4713 -0.3503
13892TIP3    H263168   3.636   6.690   2.265  0.6426 -0.2862 -0.0582
13893TIP3   OH263169   4.235   0.543  15.744 -0.0959  0.0900  0.1449
13893TIP3    H163170   4.177   0.609  15.707  0.7632  0.7256 -0.1178
13893TIP3    H263171   4.273   0.498  15.669 -0.3470 -0.4153  0.3153
13894TIP3   OH263172   3.106   1.706   4.286 -0.4707  0.0474 -0.3307
13894TIP3    H163173   3.187   1.725   4.239 -0.9162  0.1543 -1.0641
13894TIP3    H263174   3.079   1.620   4.256 -1.2797  0.5306 -1.0303
13895TIP3   OH263175   1.406   6.349   1.339 -0.3190 -0.2504 -0.9391
13895TIP3    H163176   1.467   6.358   1.412 -0.0656 -1.4102 -0.9853
13895TIP3    H263177   1.406   6.435   1.296 -0.0157  0.2640  0.0570
13896TIP3   OH263178   3.738   4.000  13.885 -0.0808 -0.8073  0.2223
13896TIP3    H163179   3.722   3.906  13.877 -0.9085 -0.5571 -1.2780
13896TIP3    H263180   3.729   4.017  13.979 -2.6067 -1.7705  0.2400
13897TIP3   OH263181   1.103   0.465   0.572 -0.3448 -0.0724 -0.5886
13897TIP3    H163182   1.024   0.502   0.532  0.6451  0.4361 -2.1573
13897TIP3    H263183   1.137   0.404   0.506  1.8348  1.4533 -1.0030
13898TIP3   OH263184   4.473   2.653   2.386 -0.4863 -0.5492  0.0614
13898TIP3    H163185   4.460   2.570   2.430  1.4811 -1.2942 -0.6553
13898TIP3    H263186   4.509   2.630   2.301  1.6205  1.0281  0.4336
13899TIP3   OH263187   0.635   4.242   0.334 -0.1300 -0.1531 -0.1208
13899TIP3    H163188   0.554   4.194   0.319 -1.1678  0.9203  1.7740
13899TIP3    H263189   0.616   4.301   0.407  2.4971 -0.2366  0.7426
13900TIP3   OH263190   4.132   1.590   1.774  0.4452  0.3028 -0.0657
13900TIP3    H163191   4.191   1.523   1.808 -0.9154 -0.2090  1.3946
13900TIP3    H263192   4.065   1.540   1.727 -0.1693  0.6752  0.4040
13901TIP3   OH263193   0.132   5.003  11.012  0.0231 -0.2124 -0.2045
13901TIP3    H163194   0.205   4.950  10.982  0.5683 -0.2098  1.0457
13901TIP3    H263195   0.079   5.018  10.934  1.1535 -0.5349 -1.0572
13902TIP3   OH263196   2.210   5.269  11.580 -0.3374  0.7807  0.3760
13902TIP3    H163197   2.134   5.220  11.610 -0.6687  0.4924 -0.8698
13902TIP3    H263198   2.280   5.204  11.574 -0.0931  0.9645  1.1202
13903TIP3   OH263199   4.555   4.978  13.906 -0.2107  0.3738 -0.3103
13903TIP3    H163200   4.600   4.901  13.870 -2.5069 -0.5690 -1.3837
13903TIP3    H263201   4.527   5.027  13.830 -1.6974  0.4695  0.2643
13904TIP3   OH263202   2.487   0.803  10.212  0.3395 -0.2118  0.5986
13904TIP3    H163203   2.537   0.864  10.157 -0.4642 -0.6910 -0.7244
13904TIP3    H263204   2.398   0.838  10.211  0.2077 -0.5321  1.1435
13905TIP3   OH263205   2.547   6.144   5.351 -0.2773 -0.1875  0.2174
13905TIP3    H163206   2.481   6.097   5.300  1.0078 -2.1432  0.2595
13905TIP3    H263207   2.496   6.201   5.409 -1.8399 -0.0802 -1.1845
13906TIP3   OH263208   1.225   6.186  15.229  0.0616 -0.2041 -0.0035
13906TIP3    H163209   1.149   6.184  15.170  0.6360  0.0284 -0.7662
13906TIP3    H263210   1.188   6.174  15.316 -0.7254 -1.5182 -0.4900
13907TIP3   OH263211   4.066   0.591   1.705  0.4236  0.7889 -0.2388
13907TIP3    H163212   4.072   0.514   1.761 -0.2340  0.8578 -0.0679
13907TIP3    H263213   4.103   0.562   1.621  2.7176  1.0827  0.5926
13908TIP3   OH263214   4.534   1.371  15.379 -0.2954 -0.4017 -0.0443
13908TIP3    H163215   4.562   1.428  15.451  0.6550 -0.9418  0.0308
13908TIP3    H263216   4.553   1.422  15.300  0.7579 -0.6813  0.0137
13909TIP3   OH263217   0.040   6.765   2.290 -0.3515 -0.5808 -0.6646
13909TIP3    H163218   0.132   6.741   2.280  0.0683  0.6768  0.0058
13909TIP3    H263219   0.032   6.850   2.245 -1.2679 -0.8452 -1.0236
13910TIP3   OH263220   0.603   0.265   1.688 -0.1056  0.3173 -0.6436
13910TIP3    H163221   0.579   0.237   1.600  2.0287  0.8229 -1.4344
13910TIP3    H263222   0.649   0.348   1.676  0.7165  0.1269  0.8960
13911TIP3   OH263223   3.217   3.349   2.627 -0.3873 -0.6786  0.0628
13911TIP3    H163224   3.209   3.324   2.719 -1.3051  0.1549  0.2265
13911TIP3    H263225   3.286   3.414   2.626 -0.5842 -0.4664  0.2106
13912TIP3   OH263226   4.114   3.350   3.074 -0.2291 -0.0078 -0.0108
13912TIP3    H163227   4.167   3.420   3.036 -1.4849  1.7968  1.3670
13912TIP3    H263228   4.027   3.388   3.083 -0.6827 -1.3294  1.9008
13913TIP3   OH263229   4.406   4.110   6.608 -0.1351 -0.2545  0.0568
13913TIP3    H163230   4.350   4.185   6.591  0.5245  0.2573  0.0943
13913TIP3    H263231   4.395   4.053   6.531 -1.7742 -0.8508  0.7014
13914TIP3   OH263232   1.614   4.257  11.520 -0.4876  0.2348 -0.5796
13914TIP3    H163233   1.571   4.171  11.518 -0.3421  0.0506  1.5765
13914TIP3    H263234   1.639   4.269  11.612  2.4085  1.1576 -1.3600
13915TIP3   OH263235   5.645   6.032   4.412 -0.1876 -0.2467  0.0491
13915TIP3    H163236   5.585   6.003   4.343 -1.0144 -1.3251  1.1730
13915TIP3    H263237   5.603   6.004   4.493  0.3805  1.6607  1.0596
13916TIP3   OH263238   2.639   6.545   4.664  0.0754  0.5011 -0.5548
13916TIP3    H163239   2.648   6.591   4.747 -0.7763  1.3703 -0.9300
13916TIP3    H263240   2.723   6.558   4.620  0.4596  0.2049  0.0681
13917TIP3   OH263241   4.090   5.412   2.665 -0.1270 -0.2385 -0.5198
13917TIP3    H163242   4.016   5.383   2.719 -0.6494  2.3778  0.3211
13917TIP3    H263243   4.104   5.340   2.603 -1.2295 -2.2264  1.3685
13918TIP3   OH263244   1.651   6.767   1.987  0.1242 -0.1847  0.1392
13918TIP3    H163245   1.731   6.739   1.942 -0.3637 -2.4714  0.5540
13918TIP3    H263246   1.624   6.691   2.038 -1.4693  1.0542  1.2610
13919TIP3   OH263247   1.988   4.569  14.414  0.1312  0.1552 -0.0532
13919TIP3    H163248   1.984   4.501  14.482 -0.0335  1.6509  1.4977
13919TIP3    H263249   1.994   4.651  14.463 -2.2533  1.4734 -1.7830
13920TIP3   OH263250   4.106   6.702  13.139 -0.2520  0.4301  0.0482
13920TIP3    H163251   4.138   6.791  13.126 -1.1357  0.8333  0.5067
13920TIP3    H263252   4.119   6.685  13.233  0.7561 -0.2812 -0.2009
13921TIP3   OH263253   3.661   2.880  15.617  0.5511  0.2701 -0.0069
13921TIP3    H163254   3.675   2.920  15.531 -1.3286 -0.2576 -0.5957
13921TIP3    H263255   3.676   2.952  15.679 -0.6722  1.3647 -0.9287
13922TIP3   OH263256   0.550   4.960  12.910  0.2258 -0.2180  0.5695
13922TIP3    H163257   0.592   4.913  12.838  0.9890 -0.9440  1.4788
13922TIP3    H263258   0.457   4.963  12.885  0.3376 -1.2393 -0.0373
13923TIP3   OH263259   1.457   1.044  15.000 -0.1297 -0.2303  0.1026
13923TIP3    H163260   1.388   1.104  14.971 -1.0176 -0.6300  1.2868
13923TIP3    H263261   1.538   1.091  14.986 -0.6540  0.3890 -1.0167
13924TIP3   OH263262   6.272   3.027   2.770 -0.5575  0.3401 -0.0688
13924TIP3    H163263   6.363   3.058   2.769  0.0709 -1.3952  0.5501
13924TIP3    H263264   6.278   2.935   2.795 -2.1809 -0.8219 -3.3956
13925TIP3   OH263265   2.378   5.486   2.846 -0.0631 -0.2671  0.3229
13925TIP3    H163266   2.465   5.504   2.811  1.6345 -0.1615  4.0399
13925TIP3    H263267   2.366   5.392   2.836 -0.1606 -0.0882 -1.4171
13926TIP3   OH263268   6.283   2.285   1.118  0.2915  0.5666  0.2857
13926TIP3    H163269   6.349   2.217   1.127  2.3900  2.4919  0.4131
13926TIP3    H263270   6.273   2.295   1.023  0.1222  0.2115  0.2655
13927TIP3   OH263271   5.277   5.692   0.607  0.0376 -0.1587  0.7286
13927TIP3    H163272   5.207   5.692   0.672  0.0735 -0.7710  0.7661
13927TIP3    H263273   5.353   5.655   0.652 -0.0688 -1.0476  0.2072
13928TIP3   OH263274   6.660   3.822   3.618 -0.2584  0.2279  0.2127
13928TIP3    H163275   6.717   3.858   3.687  1.5945 -0.6294 -0.8146
13928TIP3    H263276   6.635   3.736   3.651  0.5774 -0.1577 -0.1418
13929TIP3   OH263277   0.919   3.153  13.548  0.1015 -0.5347  0.3919
13929TIP3    H163278   0.972   3.141  13.627 -0.0097  1.8409  0.9077
13929TIP3    H263279   0.875   3.069  13.536  2.0804 -1.7809  1.3505
13930TIP3   OH263280   5.773   0.728  13.167 -0.0144 -0.7688  0.0795
13930TIP3    H163281   5.710   0.721  13.239 -0.5670 -0.7779 -0.3953
13930TIP3    H263282   5.719   0.743  13.090  0.6905  1.7797  0.0032
13931TIP3   OH263283   3.119   5.797  14.861 -0.1968 -0.0528 -0.6286
13931TIP3    H163284   3.170   5.757  14.931 -0.6120  1.1070  0.3668
13931TIP3    H263285   3.028   5.784  14.886 -0.3373  1.4782 -0.2880
13932TIP3   OH263286   1.352   1.430  15.156  0.1753 -0.6217 -0.4601
13932TIP3    H163287   1.278   1.440  15.097  0.4503 -1.2095 -0.9248
13932TIP3    H263288   1.316   1.384  15.231 -0.4314  1.1283  0.3736
13933TIP3   OH263289   3.664   3.369  15.542 -0.1355 -0.6981 -0.1506
13933TIP3    H163290   3.588   3.319  15.572 -1.2257 -0.2627 -1.9925
13933TIP3    H263291   3.691   3.421  15.618 -2.0307 -0.4727  0.4233
13934TIP3   OH263292   2.958   0.897   5.554 -0.2276  0.1894  0.5653
13934TIP3    H163293   2.971   0.814   5.601  1.5132 -0.1910 -0.4913
13934TIP3    H263294   2.865   0.898   5.533 -0.3663 -1.3118  0.9600
13935TIP3   OH263295   4.967   6.421  16.041  0.1318  0.1896 -0.2184
13935TIP3    H163296   4.975   6.498  16.098 -0.7302  0.5138 -0.5096
13935TIP3    H263297   4.970   6.456  15.952 -0.2975 -0.0963 -0.3518
13936TIP3   OH263298   0.200   4.125   1.102  0.2400 -1.0966 -0.1723
13936TIP3    H163299   0.273   4.089   1.051  0.1555 -0.4815 -0.7505
13936TIP3    H263300   0.134   4.145   1.036  0.4138  0.4193  0.0684
13937TIP3   OH263301   3.273   3.295   1.787  0.3776  0.1424 -0.0982
13937TIP3    H163302   3.307   3.228   1.728  0.8326  0.7488 -0.5420
13937TIP3    H263303   3.351   3.338   1.823  0.1044  1.1223 -0.6280
13938TIP3   OH263304   4.029   3.201  11.782 -0.3374 -0.2539  0.2566
13938TIP3    H163305   4.090   3.273  11.796  1.1973 -1.7593  1.7812
13938TIP3    H263306   4.033   3.183  11.688  0.4567  0.5942  0.1218
13939TIP3   OH263307   0.023   0.738  16.050 -0.2008 -0.4051  0.1715
13939TIP3    H163308   0.094   0.722  16.113  0.5200  0.1209 -0.4893
13939TIP3    H263309   0.023   0.661  15.994 -0.5013 -0.6401  0.4909
13940TIP3   OH263310   4.026   4.277  11.442 -0.3444 -0.0175  0.0524
13940TIP3    H163311   4.030   4.263  11.537  1.3780  0.3250  0.0522
13940TIP3    H263312   3.961   4.347  11.431 -2.1380 -1.4699  0.7701
13941TIP3   OH263313   5.357   0.948  15.049 -0.2302 -0.2391  0.8596
13941TIP3    H163314   5.428   0.985  15.101  1.9407 -2.1897 -0.5290
13941TIP3    H263315   5.329   0.871  15.098  1.4336 -1.7581 -0.4903
13942TIP3   OH263316   3.423   3.865   4.331 -0.1335 -0.3128 -0.0335
13942TIP3    H163317   3.459   3.802   4.394 -0.3947 -1.4253 -0.9678
13942TIP3    H263318   3.464   3.841   4.248 -2.2828 -1.0395 -0.9531
13943TIP3   OH263319   4.827   3.510   3.549  0.2173 -0.0568  0.4252
13943TIP3    H163320   4.806   3.482   3.460  1.1439 -0.0524  0.1930
13943TIP3    H263321   4.840   3.429   3.598 -1.4076 -0.0872  0.8603
13944TIP3   OH263322   5.109   0.412   1.717 -0.1847  0.2870  0.5016
13944TIP3    H163323   5.025   0.450   1.743 -0.7682 -1.4744  1.3484
13944TIP3    H263324   5.143   0.373   1.797  1.4242  0.8678  0.1377
13945TIP3   OH263325   5.758   4.565  12.046 -0.1587  0.3990  0.0521
13945TIP3    H163326   5.796   4.484  12.014 -1.5969 -0.1375 -0.3694
13945TIP3    H263327   5.696   4.592  11.978 -0.6432  1.1482  0.7590
13946TIP3   OH263328   4.157   5.811  15.838 -0.4882 -0.0712 -0.4978
13946TIP3    H163329   4.158   5.822  15.933 -2.6268  0.5839 -0.4926
13946TIP3    H263330   4.073   5.847  15.811  0.3469  0.3560 -2.7336
13947TIP3   OH263331   4.728   4.419   2.294  0.0975 -0.6523  0.3177
13947TIP3    H163332   4.749   4.368   2.216  0.0600 -0.0268 -0.1054
13947TIP3    H263333   4.653   4.373   2.332  0.0883 -0.9398 -0.0368
13948TIP3   OH263334   0.065   4.504   1.423 -0.3971 -0.3163 -0.5957
13948TIP3    H163335   0.082   4.557   1.345  1.4168  0.3632  0.1929
13948TIP3    H263336   0.050   4.416   1.390  0.4217 -0.0550 -1.7216
13949TIP3   OH263337   1.888   5.135  14.526  0.1201 -0.0669 -0.5351
13949TIP3    H163338   1.874   5.059  14.469 -0.5097 -0.0181 -0.4522
13949TIP3    H263339   1.830   5.202  14.491 -2.1286 -0.7744  1.5474
13950TIP3   OH263340   3.451   4.074   1.622 -0.2010  0.0850  0.5606
13950TIP3    H163341   3.454   4.090   1.528  1.3149  0.2435  0.6103
13950TIP3    H263342   3.370   4.115   1.651 -0.9178 -0.3677 -0.7373
13951TIP3   OH263343   2.023   5.537  16.735 -0.0446 -0.1427  0.3240
13951TIP3    H163344   1.964   5.464  16.714 -2.2589  0.9022  2.4237
13951TIP3    H263345   2.089   5.499  16.792 -0.1995 -0.8307  0.0571
13952TIP3   OH263346   5.164   4.877  15.311 -0.1886  0.0350  0.0040
13952TIP3    H163347   5.209   4.794  15.299  1.7437  0.8317  1.1553
13952TIP3    H263348   5.082   4.854  15.355  0.1496 -1.2938 -0.0289
13953TIP3   OH263349   6.130   2.931  13.837 -0.0610  0.5999 -0.6239
13953TIP3    H163350   6.090   2.847  13.815 -1.2277  0.9912 -0.1141
13953TIP3    H263351   6.067   2.971  13.897  0.6000  1.7296 -0.6700
13954TIP3   OH263352   5.482   0.568  12.695 -0.0059 -0.3229  0.5977
13954TIP3    H163353   5.444   0.484  12.667  0.9954 -0.7391  0.4484
13954TIP3    H263354   5.407   0.621  12.720 -0.6457 -1.3339  0.8770
13955TIP3   OH263355   6.389   4.778  14.540 -0.8308  0.5821  0.2269
13955TIP3    H163356   6.478   4.808  14.525 -0.0840 -0.7243  1.7098
13955TIP3    H263357   6.385   4.692  14.497 -1.0785  0.2535  0.8891
13956TIP3   OH263358   0.587   1.147  14.209  0.8023 -0.5930  0.0036
13956TIP3    H163359   0.633   1.160  14.126  0.8975  0.4992  0.2143
13956TIP3    H263360   0.574   1.235  14.243 -1.3585 -0.8635  0.0164
13957TIP3   OH263361   1.096   6.173   0.982 -0.2360 -0.5865  0.2929
13957TIP3    H163362   1.023   6.166   1.044  0.3469 -0.0007  1.0634
13957TIP3    H263363   1.121   6.265   0.985  0.1937 -0.6759 -0.3716
13958TIP3   OH263364   2.970   0.768  15.458 -0.2027  0.4983 -0.4823
13958TIP3    H163365   2.882   0.787  15.424  0.0157  1.6218 -0.4456
13958TIP3    H263366   2.972   0.673  15.467 -1.7382  0.5174  0.3741
13959TIP3   OH263367   3.524   3.805  10.482 -0.1587  0.3230 -0.4096
13959TIP3    H163368   3.466   3.740  10.442 -0.6282  0.7530 -0.4489
13959TIP3    H263369   3.608   3.761  10.490 -0.8163 -0.7547  0.8631
13960TIP3   OH263370   2.334   3.163  10.976  0.5653 -0.9479  0.2382
13960TIP3    H163371   2.386   3.243  10.971 -0.6232 -0.2216 -1.4299
13960TIP3    H263372   2.365   3.111  10.902 -0.0672 -1.1453  0.1083
13961TIP3   OH263373   0.700   1.569  12.786 -0.2589 -0.5534 -0.3925
13961TIP3    H163374   0.710   1.652  12.833 -0.2143 -1.0242  0.4660
13961TIP3    H263375   0.728   1.587  12.697 -0.4563  0.4068 -0.2645
13962TIP3   OH263376   0.270   6.418  15.277 -0.4291  0.2680  0.0293
13962TIP3    H163377   0.315   6.412  15.361  1.1241 -0.0956 -0.7982
13962TIP3    H263378   0.242   6.328  15.258 -2.1141  0.5906  0.8323
13963TIP3   OH263379   2.793   6.188  14.065  0.2143 -0.2594 -0.0052
13963TIP3    H163380   2.756   6.266  14.105 -1.4277  0.3975 -2.5908
13963TIP3    H263381   2.785   6.120  14.133  1.0139  1.5720  2.0234
13964TIP3   OH263382   3.385   5.653   3.099 -0.3175  0.2619  0.4500
13964TIP3    H163383   3.361   5.740   3.067  1.3910  0.9392  0.9262
13964TIP3    H263384   3.420   5.608   3.023 -1.5409 -0.1788  0.1164
13965TIP3   OH263385   2.302   1.407   5.161 -0.7864 -0.1794  0.1258
13965TIP3    H163386   2.252   1.373   5.235 -1.6569 -2.7521 -1.5090
13965TIP3    H263387   2.248   1.387   5.085  0.9520  0.5717 -1.3687
13966TIP3   OH263388   3.670   1.236   1.408 -0.3316  0.2823  0.2415
13966TIP3    H163389   3.763   1.214   1.403 -0.7373 -1.4660 -0.1204
13966TIP3    H263390   3.646   1.221   1.499 -0.5848 -0.7336  0.0168
13967TIP3   OH263391   5.963   1.190   4.766  0.1160  0.2102 -0.4144
13967TIP3    H163392   5.920   1.124   4.820 -1.7754  0.9750 -0.8816
13967TIP3    H263393   5.949   1.159   4.676 -1.0979  1.3588 -0.6547
13968TIP3   OH263394   0.815   1.682  10.628  0.0554  0.5772 -0.1394
13968TIP3    H163395   0.782   1.737  10.556 -0.6155  0.9978  0.4720
13968TIP3    H263396   0.895   1.726  10.657 -0.8487  1.6695  0.8155
13969TIP3   OH263397   3.750   3.398  17.138  0.1289 -0.4616  0.5150
13969TIP3    H163398   3.698   3.457  17.193 -0.5802  0.1396 -0.7518
13969TIP3    H263399   3.760   3.319  17.190 -0.0809  0.2730  1.7091
13970TIP3   OH263400   0.948   4.396   3.248 -0.2666 -0.4998 -0.2289
13970TIP3    H163401   0.910   4.479   3.219  0.0269  0.0456  0.8939
13970TIP3    H263402   0.994   4.417   3.328  0.0583 -1.7049 -0.0719
13971TIP3   OH263403   2.117   5.733  13.341  0.6248  0.4667  0.2803
13971TIP3    H163404   2.127   5.742  13.246  1.6395  1.9449  0.4904
13971TIP3    H263405   2.036   5.780  13.361 -2.3578 -3.8729 -0.3357
13972TIP3   OH263406   6.333   5.644  12.891 -0.1167 -0.4882  0.1835
13972TIP3    H163407   6.376   5.632  12.806  0.5705 -0.0578  0.4611
13972TIP3    H263408   6.404   5.670  12.950 -0.2670 -2.3877  1.2817
13973TIP3   OH263409   2.454   3.722  12.008  0.1937  0.4199 -0.0738
13973TIP3    H163410   2.416   3.743  12.093 -0.5570  1.0326 -0.5461
13973TIP3    H263411   2.402   3.647  11.977  0.7017 -0.0348  0.1573
13974TIP3   OH263412   3.021   6.589  14.123  0.3170 -0.3832 -0.2475
13974TIP3    H163413   2.992   6.508  14.164  2.9226 -1.7148 -0.7808
13974TIP3    H263414   3.051   6.644  14.196 -0.8561 -0.1177  0.0592
13975TIP3   OH263415   1.554   6.056   5.508 -0.3441  0.1435  0.0660
13975TIP3    H163416   1.471   6.096   5.486 -0.6111  0.4254  1.4901
13975TIP3    H263417   1.613   6.081   5.437 -1.1862  0.8575 -0.3905
13976TIP3   OH263418   5.660   1.894   1.663  0.8677  0.3360 -0.4178
13976TIP3    H163419   5.581   1.890   1.717 -0.6039  1.3344 -2.3941
13976TIP3    H263420   5.721   1.836   1.708 -0.7074  0.0962  1.5902
13977TIP3   OH263421   5.685   2.913  15.012 -0.0450 -0.1654 -0.4009
13977TIP3    H163422   5.733   2.921  14.930 -1.5975 -0.8683 -1.4114
13977TIP3    H263423   5.610   2.970  15.002  0.3694  0.6925  1.0501
13978TIP3   OH263424   1.802   6.067   1.660 -0.0794 -0.2022 -0.4864
13978TIP3    H163425   1.732   6.063   1.726  1.8183  1.2884  1.7998
13978TIP3    H263426   1.861   5.995   1.683  1.2798  1.1227  0.3754
13979TIP3   OH263427   2.367   1.464   6.349 -0.2048  0.1229 -0.8647
13979TIP3    H163428   2.347   1.382   6.305 -0.5947 -0.6365  0.6716
13979TIP3    H263429   2.379   1.527   6.278 -1.4189 -0.9130 -2.0323
13980TIP3   OH263430   5.971   2.437   4.634  0.5672 -1.1375 -0.2579
13980TIP3    H163431   5.976   2.458   4.541 -4.7934  0.8087 -0.4501
13980TIP3    H263432   5.913   2.361   4.639  0.0951 -0.7313  1.4316
13981TIP3   OH263433   2.123   5.261  16.671  0.4339 -0.8426  0.2035
13981TIP3    H163434   2.032   5.269  16.697  0.8112 -0.9144  1.5938
13981TIP3    H263435   2.168   5.333  16.715  0.7281  0.6034 -2.2379
13982TIP3   OH263436   1.921   3.025  16.879  0.4139 -0.3507  0.2922
13982TIP3    H163437   2.016   3.027  16.882  0.4306 -0.0619 -0.3895
13982TIP3    H263438   1.897   2.954  16.939  1.0621 -0.6238  0.2337
13983TIP3   OH263439   5.413   2.632  15.574 -0.9781  0.2578 -0.0976
13983TIP3    H163440   5.501   2.635  15.612 -1.5653  0.5258  1.3041
13983TIP3    H263441   5.402   2.717  15.532 -0.6282  0.2866 -0.1328
13984TIP3   OH263442   0.343   1.928   0.345  0.1902  0.0721  0.0415
13984TIP3    H163443   0.433   1.926   0.380  0.0177  1.7936  0.6695
13984TIP3    H263444   0.348   1.986   0.270 -0.4412  0.3929  0.2414
13985TIP3   OH263445   5.310   3.011   5.566  0.6149 -0.2765  0.3803
13985TIP3    H163446   5.258   2.931   5.555  0.9672 -0.2820 -1.7529
13985TIP3    H263447   5.394   2.981   5.602  0.0655 -0.5853  1.4408
13986TIP3   OH263448   0.657   2.924   0.225  0.4275  0.1952  0.4035
13986TIP3    H163449   0.722   2.878   0.279 -0.1572 -0.6586  0.3985
13986TIP3    H263450   0.598   2.965   0.288 -0.2968 -0.8604  0.4493
13987TIP3   OH263451   4.472   0.148   3.432 -0.0930  0.2287  0.4298
13987TIP3    H163452   4.485   0.236   3.467 -1.8502  0.5570  0.3539
13987TIP3    H263453   4.560   0.116   3.414  0.6383  1.5353  1.5111
13988TIP3   OH263454   1.490   0.676   1.759 -0.5830  0.2619  0.1398
13988TIP3    H163455   1.580   0.699   1.736 -1.2384  1.9582 -0.9318
13988TIP3    H263456   1.442   0.687   1.677 -1.9210  0.2736  0.9118
13989TIP3   OH263457   6.036   1.035   1.964 -0.1436 -0.6499 -0.1690
13989TIP3    H163458   5.945   1.031   1.994  0.2530  1.4355  1.5407
13989TIP3    H263459   6.033   1.089   1.885 -0.2191  0.9044  0.8645
13990TIP3   OH263460   2.843   0.399  15.967  0.7590  0.2817  0.1886
13990TIP3    H163461   2.749   0.403  15.949  0.4323 -1.5805  1.2140
13990TIP3    H263462   2.856   0.314  16.010  2.7257  1.0471  1.2381
13991TIP3   OH263463   1.525   2.995  16.662  0.3806  0.2439 -0.0016
13991TIP3    H163464   1.447   3.007  16.608  0.8552 -0.9535 -1.0076
13991TIP3    H263465   1.597   3.023  16.606  0.9617 -1.7608 -0.3335
13992TIP3   OH263466   3.408   5.202   0.494  0.4401 -0.6473  0.1337
13992TIP3    H163467   3.331   5.255   0.473  0.3936 -1.1593 -1.0843
13992TIP3    H263468   3.421   5.215   0.588  0.3484  1.3997 -0.0937
13993TIP3   OH263469   3.670   5.398  15.439  0.7168  0.0172  0.5746
13993TIP3    H163470   3.704   5.321  15.484  2.4773  0.7876  0.6464
13993TIP3    H263471   3.656   5.368  15.349  0.5494 -0.6105  0.8019
13994TIP3   OH263472   3.986   1.691   2.708 -0.1984  0.0934  0.5647
13994TIP3    H163473   4.019   1.635   2.778  1.1660  0.8582  0.5728
13994TIP3    H263474   4.038   1.772   2.715 -0.5079  0.4550 -0.8794
13995TIP3   OH263475   3.854   3.361   0.504  0.3761  0.3236 -0.5323
13995TIP3    H163476   3.805   3.388   0.581 -0.5772 -1.7445 -0.3660
13995TIP3    H263477   3.923   3.427   0.496 -1.4255  2.4307  0.1609
13996TIP3   OH263478   0.264   6.058   2.591 -0.2092  0.6097  0.2683
13996TIP3    H163479   0.194   5.996   2.611  0.1766  0.5328  1.4443
13996TIP3    H263480   0.248   6.083   2.500 -0.1795 -1.4696 -0.3823
13997TIP3   OH263481   2.639   3.946  12.377  0.6294 -0.4236 -0.6427
13997TIP3    H163482   2.564   3.918  12.430  1.6989  0.6992  1.6593
13997TIP3    H263483   2.667   4.028  12.419  3.0083 -0.7138 -1.5264
13998TIP3   OH263484   0.351   0.308   5.160 -0.4162 -0.0587 -0.2206
13998TIP3    H163485   0.267   0.327   5.202 -0.4897  0.7096 -0.6970
13998TIP3    H263486   0.354   0.367   5.085 -0.0718 -1.0821 -1.0221
13999TIP3   OH263487   3.294   5.916   5.216 -0.5645 -0.3670  0.2139
13999TIP3    H163488   3.262   5.881   5.133  1.5877  0.9147 -1.2674
13999TIP3    H263489   3.222   5.968   5.250 -1.8478 -1.7433 -0.3073
14000TIP3   OH263490   1.403   4.730   4.916 -0.4179 -0.0730  0.1900
14000TIP3    H163491   1.375   4.640   4.935 -1.2988 -0.2175 -1.5965
14000TIP3    H263492   1.328   4.784   4.939  0.5332  0.4245  2.4614
14001TIP3   OH263493   3.920   5.261  11.630 -0.6242  0.2256 -0.3133
14001TIP3    H163494   3.867   5.219  11.698  1.4869 -0.5403  0.9633
14001TIP3    H263495   3.951   5.188  11.575  0.0542  0.4933 -0.3019
14002TIP3   OH263496   5.321   4.717  10.846 -0.3512 -0.2583  0.1393
14002TIP3    H163497   5.416   4.706  10.848 -0.4383 -1.1260 -0.3367
14002TIP3    H263498   5.297   4.698  10.756 -0.9496  0.2931  0.1745
14003TIP3   OH263499   5.128   4.153   0.980 -0.3850  0.1328  0.2369
14003TIP3    H163500   5.164   4.071   0.948 -0.0460  0.2201  0.3951
14003TIP3    H263501   5.122   4.142   1.075  0.4477  0.5905  0.3570
14004TIP3   OH263502   3.045   0.835   6.403  0.3980  0.2732  0.7044
14004TIP3    H163503   3.134   0.859   6.376  0.0262 -0.0441 -0.9058
14004TIP3    H263504   3.045   0.848   6.498  1.7725  1.5334  0.5849
14005TIP3   OH263505   2.586   5.123  12.235  0.2972  0.0290 -0.0104
14005TIP3    H163506   2.537   5.105  12.316 -0.3528 -0.3237 -0.4770
14005TIP3    H263507   2.583   5.040  12.187  2.3333 -0.3590  0.4423
14006TIP3   OH263508   4.620   2.196  13.734 -0.4286  0.1580 -0.0024
14006TIP3    H163509   4.551   2.239  13.684  0.0992 -0.4675 -1.2979
14006TIP3    H263510   4.691   2.261  13.735 -0.2778  0.0015 -0.4471
14007TIP3   OH263511   2.152   2.187   4.052  0.3401  0.1321  0.4601
14007TIP3    H163512   2.088   2.223   4.113 -1.0550 -1.4943  0.0237
14007TIP3    H263513   2.177   2.262   3.997  2.3959  1.9146  3.4934
14008TIP3   OH263514   3.180   0.416  15.355 -0.3381 -0.1245 -0.5893
14008TIP3    H163515   3.205   0.508  15.354 -1.1517  0.1120  0.2030
14008TIP3    H263516   3.255   0.371  15.316 -0.9338  1.0897 -3.3923
14009TIP3   OH263517   2.001   3.793  13.160 -0.4480 -0.1256  0.4473
14009TIP3    H163518   1.913   3.788  13.198 -1.2795 -0.3229 -1.3604
14009TIP3    H263519   2.016   3.706  13.124 -0.7455  0.6478 -1.7097
14010TIP3   OH263520   4.789   4.894  12.847 -0.4757 -0.2037  0.3442
14010TIP3    H163521   4.789   4.814  12.794  0.4080  0.0613 -0.0932
14010TIP3    H263522   4.715   4.884  12.906  0.2544 -1.8325  1.0379
14011TIP3   OH263523   1.638   5.858  11.612  0.0100 -0.4947  0.1157
14011TIP3    H163524   1.550   5.830  11.589  0.0860  0.6336 -1.7011
14011TIP3    H263525   1.695   5.803  11.559  0.3610 -0.4074  0.3954
14012TIP3   OH263526   0.016   5.955  16.595 -0.3567  0.4638 -0.4399
14012TIP3    H163527   0.024   5.878  16.653 -0.6767 -0.9796 -2.2268
14012TIP3    H263528   0.082   5.941  16.528  0.6766  2.6116  0.0396
14013TIP3   OH263529   6.360   3.082  16.937  0.4981  0.1727  0.1294
14013TIP3    H163530   6.290   3.058  16.876 -0.5789 -0.4086  1.5104
14013TIP3    H263531   6.427   3.124  16.883 -0.1989 -0.7185 -1.4922
14014TIP3   OH263532   2.607   1.022   4.223 -0.5942 -0.7330 -0.5794
14014TIP3    H163533   2.634   0.955   4.161  1.4677 -0.8216  0.3302
14014TIP3    H263534   2.658   1.004   4.302 -0.5723  1.3994 -0.0311
14015TIP3   OH263535   6.034   6.664  15.909 -0.0699 -0.0151  0.0233
14015TIP3    H163536   5.956   6.612  15.928 -0.1537  0.4179  0.8999
14015TIP3    H263537   6.026   6.741  15.965  0.5788  0.4374 -0.4859
14016TIP3   OH263538   4.292   5.642  14.036  0.0002  0.2994  0.4242
14016TIP3    H163539   4.275   5.550  14.013  5.1407 -0.4231 -1.9780
14016TIP3    H263540   4.300   5.641  14.131 -1.3042 -1.4185  0.5760
14017TIP3   OH263541   0.691   6.696  11.750  0.5509  0.0340  0.3654
14017TIP3    H163542   0.634   6.764  11.714  0.1731  0.0223  0.9385
14017TIP3    H263543   0.717   6.730  11.836  1.1073 -0.1274  0.2653
14018TIP3   OH263544   3.421   0.208  15.544  0.2267 -0.1182  0.7501
14018TIP3    H163545   3.386   0.126  15.575 -1.1753 -0.0078 -0.4364
14018TIP3    H263546   3.354   0.243  15.486  1.6725  0.8367 -0.4412
14019TIP3   OH263547   6.299   1.335   5.594 -0.6771  0.8015  0.7715
14019TIP3    H163548   6.219   1.290   5.619 -0.3517 -1.8249 -2.3004
14019TIP3    H263549   6.366   1.301   5.653 -1.2531  0.6592  1.3478
14020TIP3   OH263550   3.624   6.253  14.747  0.2816 -0.5371 -0.0434
14020TIP3    H163551   3.608   6.211  14.832  1.2715  1.7429  1.3421
14020TIP3    H263552   3.702   6.306  14.760 -0.3458  0.9967 -1.9819
14021TIP3   OH263553   2.817   4.800  10.910 -0.2713  0.5831  0.1444
14021TIP3    H163554   2.803   4.711  10.941  0.1621  0.2096 -0.7137
14021TIP3    H263555   2.908   4.801  10.879 -0.1451  1.4293  0.5026
14022TIP3   OH263556   0.841   6.302  12.981 -0.3247 -0.0957  0.0953
14022TIP3    H163557   0.767   6.311  12.921 -0.0057  0.0971 -0.2755
14022TIP3    H263558   0.870   6.212  12.970  0.4577  0.2524 -0.9174
14023TIP3   OH263559   4.463   3.482   2.833 -0.0164  0.4578 -0.1268
14023TIP3    H163560   4.464   3.397   2.789 -0.4513  0.0963  0.5315
14023TIP3    H263561   4.374   3.514   2.824 -0.2364  0.1712  0.8403
14024TIP3   OH263562   4.441   1.510  14.623  0.0798 -0.5510  0.3838
14024TIP3    H163563   4.505   1.513  14.694  0.2719  0.5761  0.1740
14024TIP3    H263564   4.357   1.521  14.667  0.0161 -1.9700  0.6523
14025TIP3   OH263565   6.461   5.928  17.090 -0.1015  0.0860  0.0783
14025TIP3    H163566   6.541   5.979  17.103  0.7924 -1.3459  0.4153
14025TIP3    H263567   6.483   5.865  17.022 -1.0388 -0.1470 -0.0293
14026TIP3   OH263568   4.372   3.626   5.144  0.3839 -0.0686  0.8305
14026TIP3    H163569   4.457   3.599   5.109  0.8521 -0.0448  1.9088
14026TIP3    H263570   4.336   3.547   5.186 -0.6287 -0.3689 -0.5286
14027TIP3   OH263571   5.497   0.673   1.953 -0.5323  0.1879  0.2284
14027TIP3    H163572   5.447   0.728   2.014  0.3771  0.1315  1.0540
14027TIP3    H263573   5.449   0.679   1.871 -1.4197  0.8161  0.7706
14028TIP3   OH263574   3.559   6.007   3.177 -0.5451  0.3606 -0.4735
14028TIP3    H163575   3.619   5.975   3.244 -0.6952  2.1978  0.6058
14028TIP3    H263576   3.604   6.082   3.138 -0.1195 -1.0942 -3.0441
14029TIP3   OH263577   0.195   2.641  16.066  1.1938 -0.2661  0.2148
14029TIP3    H163578   0.120   2.678  16.018  1.1853  1.3531  1.4058
14029TIP3    H263579   0.156   2.588  16.134  1.1138  0.4401  0.7280
14030TIP3   OH263580   6.120   1.342   3.517 -0.3565  0.5440  0.5039
14030TIP3    H163581   6.093   1.254   3.489  0.0457 -0.1739  2.2371
14030TIP3    H263582   6.202   1.328   3.564  0.0538  1.9498  0.2542
14031TIP3   OH263583   1.173   3.677   3.283 -0.7021  0.4341  0.2652
14031TIP3    H163584   1.136   3.717   3.362  0.0062 -0.5593  1.1258
14031TIP3    H263585   1.097   3.657   3.228 -1.2101  1.0432  0.7367
14032TIP3   OH263586   4.996   1.522  15.621  0.3648  0.6472  0.8397
14032TIP3    H163587   5.075   1.576  15.619  1.2403 -0.5675  1.7413
14032TIP3    H263588   4.989   1.493  15.712  0.7058 -1.8641  0.1424
14033TIP3   OH263589   3.850   0.543  16.971 -0.3854  0.2541 -0.1216
14033TIP3    H163590   3.764   0.529  16.931 -1.2765  0.2831  1.6998
14033TIP3    H263591   3.844   0.503  17.057  1.8635 -0.8130 -0.3925
14034TIP3   OH263592   6.615   6.535   0.782 -0.4540 -0.3041 -0.5655
14034TIP3    H163593   6.549   6.512   0.847  0.0864 -0.5274 -0.0820
14034TIP3    H263594   6.688   6.475   0.800  1.1514  1.9777  0.9433
14035TIP3   OH263595   2.698   4.536   3.164 -0.1839  0.2200 -0.2446
14035TIP3    H163596   2.650   4.619   3.171  0.5038  0.6023  0.0570
14035TIP3    H263597   2.776   4.558   3.113 -0.1775 -0.3319 -0.4822
14036TIP3   OH263598   2.739   4.658  11.653 -0.3108  0.8036  0.5167
14036TIP3    H163599   2.666   4.622  11.604 -1.1191  0.9564  1.5751
14036TIP3    H263600   2.721   4.635  11.744 -0.3037  2.9205  1.1146
14037TIP3   OH263601   5.341   5.274  13.507 -0.0075  0.0109 -0.4601
14037TIP3    H163602   5.370   5.222  13.582 -0.5073 -0.3477 -0.5096
14037TIP3    H263603   5.351   5.215  13.432  0.9525  0.5252 -0.7617
14038TIP3   OH263604   3.272   5.847  15.655 -0.1805 -0.9382  0.0605
14038TIP3    H163605   3.360   5.885  15.653 -0.7874  0.5632  0.4400
14038TIP3    H263606   3.281   5.762  15.612  1.7143 -1.4061  1.2805
14039TIP3   OH263607   1.267   4.868   4.414 -0.2493  0.2222 -0.7980
14039TIP3    H163608   1.201   4.839   4.352 -0.6091  0.4908 -0.5422
14039TIP3    H263609   1.283   4.791   4.470  0.8380 -0.3613 -1.8525
14040TIP3   OH263610   2.898   4.042  15.304 -0.2815  0.0230  0.1764
14040TIP3    H163611   2.876   4.090  15.225 -1.2097 -1.0231 -0.2302
14040TIP3    H263612   2.906   3.951  15.276  0.2435 -0.2449  1.1295
14041TIP3   OH263613   0.505   4.753   5.034  0.4528 -0.0920  0.9744
14041TIP3    H163614   0.489   4.729   5.125  1.4788 -2.6044  0.5612
14041TIP3    H263615   0.483   4.674   4.984  0.3905  1.0660 -0.9189
14042TIP3   OH263616   0.604   5.134  11.813  0.2079  0.1807 -0.1960
14042TIP3    H163617   0.679   5.088  11.851  0.0858 -0.3167 -0.5373
14042TIP3    H263618   0.616   5.124  11.718  0.5720  1.5036 -0.3019
14043TIP3   OH263619   0.812   2.484   4.896 -0.3032 -0.4203  0.1354
14043TIP3    H163620   0.889   2.496   4.950  0.9723 -3.4286 -0.8279
14043TIP3    H263621   0.825   2.544   4.822 -0.1204  0.7884  1.1009
14044TIP3   OH263622   2.231   2.336   2.080 -0.0892 -0.0785 -0.7189
14044TIP3    H163623   2.263   2.257   2.038 -1.3377 -0.1018 -1.6635
14044TIP3    H263624   2.169   2.373   2.018 -0.1983  1.1665  0.0964
14045TIP3   OH263625   2.443   1.641  12.109 -0.2455 -0.1723  0.4062
14045TIP3    H163626   2.430   1.719  12.164  1.0587 -0.5735  1.3365
14045TIP3    H263627   2.509   1.590  12.156  1.6168 -0.1283 -1.9458
14046TIP3   OH263628   1.804   5.430   0.677 -0.3304 -0.8840  0.5869
14046TIP3    H163629   1.846   5.356   0.633 -2.0111 -2.3963  1.3958
14046TIP3    H263630   1.826   5.419   0.770  0.4697  0.4008  0.5744
14047TIP3   OH263631   6.206   6.727  12.683  0.2441 -0.1320 -0.0987
14047TIP3    H163632   6.155   6.654  12.649 -2.3077  1.4882 -0.0091
14047TIP3    H263633   6.167   6.746  12.768  0.9744  1.2164 -0.0361
14048TIP3   OH263634   1.197   2.719  16.792 -0.4331 -0.1897 -0.4726
14048TIP3    H163635   1.241   2.775  16.729 -2.4083 -0.3589 -2.1236
14048TIP3    H263636   1.126   2.677  16.742 -0.5970 -2.2207  1.2909
14049TIP3   OH263637   0.948   4.931  14.372 -0.6690 -0.3466  0.0299
14049TIP3    H163638   0.891   4.859  14.345  0.8976 -1.6227 -0.0381
14049TIP3    H263639   0.980   4.968  14.290 -2.6450  1.5043  0.0032
14050TIP3   OH263640   0.558   4.477   2.205  0.2704  0.5062  0.0090
14050TIP3    H163641   0.533   4.510   2.291 -1.3281  1.0846 -0.6424
14050TIP3    H263642   0.652   4.463   2.212 -0.1060 -1.7334  2.6115
14051TIP3   OH263643   4.901   1.080  11.244  0.8954  0.1776  0.4140
14051TIP3    H163644   4.810   1.049  11.242  0.9498 -0.0182  0.8354
14051TIP3    H263645   4.949   1.017  11.190  1.2172 -1.2045  2.2347
14052TIP3   OH263646   2.595   5.083  14.109 -0.3186  0.2620  0.0347
14052TIP3    H163647   2.647   5.004  14.126 -2.1805 -0.7643  1.4066
14052TIP3    H263648   2.547   5.097  14.190 -0.6757  2.3575 -0.4874
14053TIP3   OH263649   0.536   2.227   6.738 -0.2518  0.1910  0.0612
14053TIP3    H163650   0.476   2.295   6.709 -1.5519 -0.3377  1.3894
14053TIP3    H263651   0.502   2.146   6.699  0.0511  0.0011  0.1854
14054TIP3   OH263652   3.689   1.647   5.685  0.3894  0.3403  0.7898
14054TIP3    H163653   3.693   1.552   5.687 -0.5866  0.2700  0.0406
14054TIP3    H263654   3.619   1.670   5.746  0.9525  0.6020  1.3373
14055TIP3   OH263655   3.887   5.886   3.066 -0.7281 -0.1324  0.1179
14055TIP3    H163656   3.846   5.902   3.151  0.3381 -0.5699  0.7347
14055TIP3    H263657   3.850   5.803   3.036 -0.3734 -0.4735  0.6209
14056TIP3   OH263658   0.749   5.314  12.512  0.1178 -0.2627  0.0089
14056TIP3    H163659   0.781   5.283  12.596 -1.2578  0.1865  0.7153
14056TIP3    H263660   0.781   5.404  12.506 -0.5771  0.0221  0.4918
14057TIP3   OH263661   0.627   3.274  15.463  0.4360  0.3052 -0.3428
14057TIP3    H163662   0.535   3.299  15.473  0.5319  0.8110 -0.6523
14057TIP3    H263663   0.626   3.197  15.407  0.1679 -0.0077  0.0932
14058TIP3   OH263664   4.662   4.990   4.107 -0.0401  0.2860  0.2717
14058TIP3    H163665   4.680   5.056   4.040  0.5934  0.5969  0.7447
14058TIP3    H263666   4.621   5.038   4.178 -2.9853 -0.4064 -0.8024
14059TIP3   OH263667   1.368   3.321  11.505 -0.7358  0.0275  0.1608
14059TIP3    H163668   1.335   3.252  11.563  1.7831 -1.6164 -0.1693
14059TIP3    H263669   1.360   3.284  11.418  0.4351  0.2065 -0.0426
14060TIP3   OH263670   1.331   2.850   4.895  0.9307 -0.6000 -0.6441
14060TIP3    H163671   1.393   2.899   4.842  1.8263 -0.8293  0.1663
14060TIP3    H263672   1.313   2.907   4.970  0.3902 -0.6626 -0.7194
14061TIP3   OH263673   5.666   0.305  13.016  0.6819 -0.1738 -0.2946
14061TIP3    H163674   5.722   0.288  12.941  0.6834 -0.2598 -0.2749
14061TIP3    H263675   5.649   0.218  13.053  0.6997 -0.1300 -0.1827
14062TIP3   OH263676   3.514   5.339   4.880 -0.1492  0.7275  0.6313
14062TIP3    H163677   3.493   5.295   4.962  1.1703 -0.3083  0.4340
14062TIP3    H263678   3.431   5.341   4.832 -0.5010 -0.4106  1.1667
14063TIP3   OH263679   2.600   0.349  10.395  0.4654 -0.3641  0.1947
14063TIP3    H163680   2.691   0.356  10.425  0.8040 -1.0880 -0.6113
14063TIP3    H263681   2.589   0.420  10.333  0.6242 -0.5501 -0.0467
14064TIP3   OH263682   4.619   3.743  16.290 -0.2925  0.0815  0.0655
14064TIP3    H163683   4.573   3.775  16.213  1.1867  0.1345 -0.8445
14064TIP3    H263684   4.607   3.649  16.288  0.0012  0.0479 -0.4361
14065TIP3   OH263685   1.529   6.648  12.316 -0.3783 -0.2287 -0.1180
14065TIP3    H163686   1.610   6.671  12.269 -0.8854  0.9485 -0.4350
14065TIP3    H263687   1.459   6.676  12.257 -1.0603 -2.4494 -0.4626
14066TIP3   OH263688   2.831   5.501   2.625 -0.2954  0.2850 -0.2614
14066TIP3    H163689   2.925   5.488   2.617 -0.1252  0.1982  1.5000
14066TIP3    H263690   2.795   5.465   2.544  1.1365 -0.0330 -0.7943
14067TIP3   OH263691   2.400   4.167   5.637 -0.0408  0.5305  0.5452
14067TIP3    H163692   2.334   4.233   5.614 -0.6547 -0.0356  0.6865
14067TIP3    H263693   2.464   4.172   5.565 -1.3166 -0.3686 -0.6942
14068TIP3   OH263694   2.055   2.889  13.422  0.0523  0.1806  0.4349
14068TIP3    H163695   2.107   2.949  13.369  0.1478 -1.5130 -1.5460
14068TIP3    H263696   1.964   2.913  13.404  0.1061  0.7127  0.8744
14069TIP3   OH263697   1.149   4.136  17.066 -0.0577 -0.0359 -0.0041
14069TIP3    H163698   1.146   4.112  16.974  0.3820 -1.7444  0.3889
14069TIP3    H263699   1.179   4.057  17.111  1.1328  1.1674  1.4562
14070TIP3   OH263700   3.820   6.717  16.632 -0.4722 -0.1229 -0.5618
14070TIP3    H163701   3.825   6.699  16.726  1.5435 -1.2715 -0.8296
14070TIP3    H263702   3.783   6.637  16.595  1.0232 -0.6440 -0.9695
14071TIP3   OH263703   2.138   3.300  14.155 -0.4770  0.7111 -0.8483
14071TIP3    H163704   2.216   3.246  14.140 -1.2092 -0.4183 -0.7169
14071TIP3    H263705   2.128   3.351  14.074  0.7770  1.3764 -0.6020
14072TIP3   OH263706   2.700   5.514  15.994 -0.6546 -0.2534  0.0654
14072TIP3    H163707   2.728   5.579  15.930 -0.5646 -1.1745 -0.8694
14072TIP3    H263708   2.756   5.438  15.978 -1.3183 -0.8724  0.5456
14073TIP3   OH263709   5.715   6.323   2.444 -0.3351  0.3479 -0.6911
14073TIP3    H163710   5.720   6.347   2.352  1.1816  0.5528 -0.5831
14073TIP3    H263711   5.746   6.233   2.448  2.6887  1.2942 -0.0773
14074TIP3   OH263712   2.377   5.118   4.707  0.1720 -0.4594 -0.0541
14074TIP3    H163713   2.467   5.148   4.722 -0.1966  0.6362  0.0410
14074TIP3    H263714   2.367   5.119   4.612 -0.7447  2.6766 -0.0478
14075TIP3   OH263715   3.601   4.002   0.441  0.1039  0.1477  0.0126
14075TIP3    H163716   3.636   4.091   0.437  1.4160 -0.3868 -2.0413
14075TIP3    H263717   3.625   3.970   0.527  1.7384  0.9892 -0.0916
14076TIP3   OH263718   1.566   3.910   6.041 -0.1517 -0.0232 -0.3063
14076TIP3    H163719   1.493   3.962   6.075  0.0253  0.0792 -0.0761
14076TIP3    H263720   1.527   3.826   6.017 -0.2559 -0.1611  0.3095
14077TIP3   OH263721   5.309   6.034   2.897  0.2244  0.4447  0.2265
14077TIP3    H163722   5.386   5.977   2.896  1.3081  1.8520  0.3867
14077TIP3    H263723   5.281   6.037   2.806 -0.8615 -1.6136  0.4371
14078TIP3   OH263724   0.814   3.362   1.103  0.1271  0.7243  0.7249
14078TIP3    H163725   0.856   3.298   1.045 -1.4373  1.4709 -1.4124
14078TIP3    H263726   0.721   3.355   1.082 -0.1652  3.3221  0.7624
14079TIP3   OH263727   5.051   3.791  11.119  0.2535 -0.5324 -0.0249
14079TIP3    H163728   5.055   3.713  11.173 -0.6799  0.1258  1.0519
14079TIP3    H263729   5.085   3.764  11.034  2.7263 -1.3506  1.1386
14080TIP3   OH263730   5.939   3.699   3.789  0.0173 -0.2477 -0.0183
14080TIP3    H163731   5.969   3.789   3.778 -1.4198  0.0178 -2.3634
14080TIP3    H263732   5.880   3.702   3.865  1.0869  0.4438  0.8102
14081TIP3   OH263733   5.332   1.059  13.692 -0.1323  0.8422  0.2318
14081TIP3    H163734   5.388   1.053  13.769 -0.3674 -0.9560  0.3097
14081TIP3    H263735   5.375   1.124  13.636 -0.3649  2.7811  2.1485
14082TIP3   OH263736   3.021   1.188  16.845  0.2831 -0.2443 -0.0142
14082TIP3    H163737   3.093   1.151  16.896  1.8082  2.6705  0.1704
14082TIP3    H263738   2.947   1.131  16.863  2.0536 -2.2651  1.3465
14083TIP3   OH263739   3.404   0.106  12.481  0.2179  0.1790  0.2852
14083TIP3    H163740   3.439   0.176  12.536  2.6006  1.2332 -2.3457
14083TIP3    H263741   3.414   0.138  12.392 -3.3804 -1.4781 -0.8961
14084TIP3   OH263742   4.518   3.207   2.744  0.0328  0.2906 -0.2343
14084TIP3    H163743   4.577   3.200   2.669 -1.4768  0.4838 -1.4923
14084TIP3    H263744   4.446   3.148   2.724  0.2634 -0.7591  1.7707
14085TIP3   OH263745   2.313   0.034   5.687  0.7394 -0.2757  0.0504
14085TIP3    H163746   2.311  -0.000   5.598 -0.7192 -0.5375  0.1665
14085TIP3    H263747   2.264   0.116   5.683  0.9357 -0.1295  0.5416
14086TIP3   OH263748   0.858   2.543  13.452  0.4136  0.5163 -0.0733
14086TIP3    H163749   0.935   2.580  13.495  0.5576  0.9595 -0.6988
14086TIP3    H263750   0.892   2.502  13.373  0.2621 -1.0295  0.6297
14087TIP3   OH263751   4.922   5.649  15.756  0.6382  0.1165  0.1286
14087TIP3    H163752   4.962   5.578  15.706 -2.0150 -1.1665 -0.3658
14087TIP3    H263753   4.943   5.630  15.847  2.4331  0.4171 -0.1936
14088TIP3   OH263754   2.403   5.181  12.789 -0.0484 -0.0884  0.1871
14088TIP3    H163755   2.388   5.095  12.827 -0.6008 -0.3185 -0.5233
14088TIP3    H263756   2.450   5.230  12.856 -3.2113  0.3952  2.2458
14089TIP3   OH263757   5.780   5.432  13.012 -0.0003 -0.6585 -0.0046
14089TIP3    H163758   5.752   5.367  13.077  1.5755 -0.0410  1.3728
14089TIP3    H263759   5.735   5.512  13.039 -1.7438 -1.0391 -1.5542
14090TIP3   OH263760   1.692   3.460  13.980  0.2327  0.0229  0.2412
14090TIP3    H163761   1.611   3.506  13.998  1.0484  0.8014  2.2109
14090TIP3    H263762   1.749   3.525  13.938 -0.1767 -0.5680 -1.2981
14091TIP3   OH263763   1.161   4.112  15.319  0.6073  0.3077  0.5035
14091TIP3    H163764   1.229   4.066  15.369 -0.4962 -1.9058  0.1102
14091TIP3    H263765   1.196   4.115  15.230  0.0432 -1.2982  0.1899
14092TIP3   OH263766   3.077   2.043  14.525  0.3556  0.0202  0.8512
14092TIP3    H163767   3.158   2.090  14.503  1.0989 -1.0096  1.2841
14092TIP3    H263768   3.058   2.068  14.615 -1.1306  2.0495  0.0602
14093TIP3   OH263769   1.408   0.770   0.736 -0.2610 -0.3142  0.5616
14093TIP3    H163770   1.399   0.759   0.641  0.8632 -1.4076  0.5452
14093TIP3    H263771   1.389   0.862   0.752  0.4131  0.0954 -0.8495
14094TIP3   OH263772   1.040   5.020  11.097  0.0766  0.3622  0.4501
14094TIP3    H163773   0.968   4.964  11.124 -0.1282  0.4209  0.0403
14094TIP3    H263774   1.013   5.108  11.122 -0.7307  0.6018 -1.1364
14095TIP3   OH263775   0.511   5.579   1.848 -0.3587  0.2533  0.5177
14095TIP3    H163776   0.450   5.560   1.777 -1.8120  2.7668  0.9352
14095TIP3    H263777   0.527   5.495   1.890 -1.5067 -0.8844 -1.1984
14096TIP3   OH263778   0.605   4.477  12.621  0.4278  0.1929 -0.0511
14096TIP3    H163779   0.669   4.407  12.632  0.1333 -0.2926 -1.2313
14096TIP3    H263780   0.589   4.510  12.709  0.9626 -0.8765  0.4607
14097TIP3   OH263781   0.172   4.628   1.207 -0.2031 -0.2588  0.0391
14097TIP3    H163782   0.216   4.699   1.252  1.2916 -0.4821 -0.9752
14097TIP3    H263783   0.097   4.669   1.163 -1.5030  0.0053  2.3557
14098TIP3   OH263784   2.466   6.096  12.807 -0.2252 -0.0308  0.1451
14098TIP3    H163785   2.449   6.002  12.816  1.4400 -0.4024 -0.2332
14098TIP3    H263786   2.381   6.137  12.820 -0.4974 -1.3558  3.5379
14099TIP3   OH263787   0.956   5.083   2.559 -0.3140  0.2395  0.1540
14099TIP3    H163788   1.019   5.150   2.585 -0.7705  0.2808  1.1832
14099TIP3    H263789   0.993   5.046   2.478  0.7788  0.5998  0.4702
14100TIP3   OH263790   6.422   5.730  11.366 -0.0594  0.1828 -0.3580
14100TIP3    H163791   6.485   5.758  11.300  0.0185  0.8678 -0.0015
14100TIP3    H263792   6.447   5.640  11.387  1.9530  1.0165  1.1193
14101TIP3   OH263793   0.754   4.575   2.913 -0.2129 -0.0540 -0.9649
14101TIP3    H163794   0.727   4.500   2.860  0.2745 -0.3679 -0.7834
14101TIP3    H263795   0.734   4.549   3.003 -0.0893  0.0519 -0.9058
14102TIP3   OH263796   2.562   1.276   0.747 -0.0602  0.6739  0.1591
14102TIP3    H163797   2.521   1.198   0.712  0.1870  1.5806 -2.3655
14102TIP3    H263798   2.490   1.328   0.782 -0.6313  0.6041 -0.8774
14103TIP3   OH263799   6.835   4.457  11.732 -0.1995  0.0889 -0.2088
14103TIP3    H163800   6.743   4.432  11.736 -0.4696  0.8132 -1.3396
14103TIP3    H263801   6.838   4.546  11.768 -0.1627  0.5478 -1.3017
14104TIP3   OH263802   2.232   2.645  12.701  0.2547 -0.0822  0.3834
14104TIP3    H163803   2.244   2.608  12.614 -0.9410  1.1412 -0.3283
14104TIP3    H263804   2.319   2.639  12.741  1.6811  2.1304 -2.0344
14105TIP3   OH263805   5.303   4.894   4.050 -0.3427 -0.6790 -0.2198
14105TIP3    H163806   5.258   4.976   4.073  1.2395  0.1710 -0.0209
14105TIP3    H263807   5.235   4.840   4.011 -1.6880  0.2844  0.7007
14106TIP3   OH263808   0.857   0.853  12.744  0.8319  0.0552  0.0642
14106TIP3    H163809   0.789   0.801  12.702  0.1794  0.4155  0.6379
14106TIP3    H263810   0.863   0.817  12.833 -0.6836  1.8411  0.9650
14107TIP3   OH263811   1.711   3.304   1.280 -0.2934 -0.0779  0.4617
14107TIP3    H163812   1.799   3.341   1.270 -1.3666  2.2784 -1.5547
14107TIP3    H263813   1.716   3.218   1.239  0.4333  1.2880 -2.6325
14108TIP3   OH263814   4.834   0.884   2.799 -0.1282  0.1946  1.1777
14108TIP3    H163815   4.765   0.903   2.736  0.1967 -2.4294 -0.0855
14108TIP3    H263816   4.808   0.932   2.878 -2.1612  1.1015  0.0258
14109TIP3   OH263817   5.007   6.751   2.696 -0.7277 -0.1064  0.2338
14109TIP3    H163818   5.042   6.662   2.686  1.5756  0.7297  0.4193
14109TIP3    H263819   4.939   6.756   2.628  1.1533 -1.0563 -1.8712
14110TIP3   OH263820   3.510   3.231   5.920 -0.2817  0.2081 -0.0833
14110TIP3    H163821   3.565   3.158   5.951 -2.1188 -1.4131 -0.4351
14110TIP3    H263822   3.451   3.249   5.993  1.3225  2.7335  0.7389
14111TIP3   OH263823   4.823   6.268   2.646 -0.4167 -0.1612 -0.0151
14111TIP3    H163824   4.862   6.245   2.731  0.3352  0.0413 -0.2998
14111TIP3    H263825   4.735   6.231   2.649 -0.4733  0.0286  0.9409
14112TIP3   OH263826   0.633   2.241  12.590 -0.3673  0.3522 -0.9905
14112TIP3    H163827   0.713   2.223  12.541 -0.5199 -1.2656 -0.7094
14112TIP3    H263828   0.659   2.235  12.682 -0.9981 -1.4157 -0.8773
14113TIP3   OH263829   5.994   2.292   2.973 -0.1859  0.1225  0.6302
14113TIP3    H163830   5.915   2.346   2.969  0.0768  0.4882  0.2258
14113TIP3    H263831   5.962   2.202   2.967 -0.5548  0.2808  0.0939
14114TIP3   OH263832   5.826   5.192  14.998 -0.4727  0.4286 -0.0823
14114TIP3    H163833   5.864   5.187  14.911 -1.4168  0.2030 -0.4975
14114TIP3    H263834   5.746   5.245  14.987 -2.3382 -2.1709 -0.0270
14115TIP3   OH263835   2.851   4.074  14.571 -0.2126 -0.2973  0.1018
14115TIP3    H163836   2.839   4.168  14.582  0.8107 -0.0977 -0.3414
14115TIP3    H263837   2.875   4.064  14.478 -0.9532 -1.0701 -0.0216
14116TIP3   OH263838   0.879   3.096   2.210  0.1953 -0.0445  0.6353
14116TIP3    H163839   0.835   3.119   2.291  0.9349  1.6306  0.6064
14116TIP3    H263840   0.969   3.127   2.222  0.3202  0.2152 -0.7949
14117TIP3   OH263841   2.925   6.693  11.683  0.0846 -0.1569  0.6582
14117TIP3    H163842   2.863   6.755  11.645 -0.9805 -1.4526  0.2125
14117TIP3    H263843   2.927   6.715  11.777  1.5016  2.0052  0.2165
14118TIP3   OH263844   1.053   6.629  13.427  0.0796 -0.0745 -0.3421
14118TIP3    H163845   1.148   6.642  13.431  0.7260 -3.2367 -1.9955
14118TIP3    H263846   1.023   6.694  13.363  0.9602  1.4396  0.7106
14119TIP3   OH263847   6.568   2.997  15.203  0.1351 -0.3190  0.3718
14119TIP3    H163848   6.633   2.981  15.272  2.4322  3.1267 -0.7088
14119TIP3    H263849   6.557   2.912  15.160  1.2750 -1.7789  2.7695
14120TIP3   OH263850   2.220   1.380   0.245 -0.4684 -0.0557  0.2452
14120TIP3    H163851   2.302   1.364   0.290 -0.8783  0.0968  1.0708
14120TIP3    H263852   2.234   1.347   0.156  0.4391 -0.1253  0.4051
14121TIP3   OH263853   0.637   3.016  16.177 -0.3474  0.2527 -0.3006
14121TIP3    H163854   0.617   3.109  16.180 -1.8394 -0.0354 -0.4916
14121TIP3    H263855   0.586   2.978  16.248 -0.8526 -0.5900 -1.0903
14122TIP3   OH263856   1.301   2.639  15.200 -0.2866 -0.0557 -0.2479
14122TIP3    H163857   1.299   2.581  15.276 -1.2176  0.1354 -0.1196
14122TIP3    H263858   1.213   2.677  15.196  0.5748  2.1359  0.2547
14123TIP3   OH263859   5.760   2.869  16.126 -0.1126  0.6024 -0.3167
14123TIP3    H163860   5.713   2.936  16.176 -1.8729 -0.4308 -0.4920
14123TIP3    H263861   5.697   2.797  16.119  1.1358 -0.4050 -1.5528
14124TIP3   OH263862   4.179   3.880  16.304  0.9691 -0.0578 -0.5467
14124TIP3    H163863   4.175   3.789  16.333  1.0934  0.7697  2.4183
14124TIP3    H263864   4.088   3.907  16.299  0.9509  0.1435  0.5096
14125TIP3   OH263865   6.768   3.317   4.645  0.3539 -0.4507 -0.1922
14125TIP3    H163866   6.697   3.306   4.709  1.4104 -1.4090  0.8797
14125TIP3    H263867   6.725   3.348   4.566 -1.3342 -1.4995  0.2661
14126TIP3   OH263868   6.167   3.307  13.767 -0.1150  0.2563 -0.3269
14126TIP3    H163869   6.239   3.246  13.773 -0.8990 -0.5744  1.1125
14126TIP3    H263870   6.190   3.378  13.827  0.2496  0.7961 -1.0996
14127TIP3   OH263871   4.703   4.930   0.140  0.3265 -0.4528 -0.5170
14127TIP3    H163872   4.730   4.872   0.211  0.9555 -0.2426 -0.5787
14127TIP3    H263873   4.740   5.015   0.163 -1.5513  0.2444  0.1748
14128TIP3   OH263874   0.615   3.082  12.037 -0.0605 -0.1285 -0.5477
14128TIP3    H163875   0.588   3.155  12.093  0.2982 -0.3733 -0.0518
14128TIP3    H263876   0.656   3.020  12.097 -0.1850 -0.6501 -0.9976
14129TIP3   OH263877   2.827   2.305   4.568  0.1694 -0.0416 -0.4945
14129TIP3    H163878   2.914   2.321   4.532 -0.6900 -0.3650 -2.9381
14129TIP3    H263879   2.842   2.279   4.659  2.6041 -0.2401 -0.9017
14130TIP3   OH263880   4.750   4.141  11.405  0.0582 -0.0262 -0.1352
14130TIP3    H163881   4.831   4.097  11.378  0.9818  1.0966  0.7074
14130TIP3    H263882   4.683   4.074  11.396  0.8153 -0.5955 -2.2246
14131TIP3   OH263883   5.588   1.124   2.785  0.0520  0.0882 -0.3562
14131TIP3    H163884   5.577   1.157   2.696 -0.2400  0.1407 -0.2993
14131TIP3    H263885   5.501   1.126   2.823 -0.0869 -1.3020 -0.5451
14132TIP3   OH263886   1.352   4.002   4.841  0.0885  0.3537 -1.1274
14132TIP3    H163887   1.396   4.009   4.756  0.3109  2.0990 -0.9035
14132TIP3    H263888   1.415   3.956   4.897 -0.0242 -0.7197 -1.8698
14133TIP3   OH263889   5.412   3.732  13.512 -0.5258 -0.9392 -0.2876
14133TIP3    H163890   5.364   3.774  13.583 -0.8301  0.7526 -1.4155
14133TIP3    H263891   5.431   3.644  13.543 -1.6366 -0.6101  1.4155
14134TIP3   OH263892   3.249   5.052   1.119  0.1496 -0.0352  0.0938
14134TIP3    H163893   3.176   5.018   1.170 -1.4058  0.4288 -1.6881
14134TIP3    H263894   3.326   5.004   1.150 -1.0116 -0.9911  1.5870
14135TIP3   OH263895   5.050   3.291  11.597  0.6272  0.1830  0.0505
14135TIP3    H163896   5.096   3.316  11.517  0.8043  2.1462  0.7006
14135TIP3    H263897   5.095   3.341  11.666  0.2968 -1.2330  1.3373
14136TIP3   OH263898   4.833   1.035   0.258 -0.4052  0.2154  0.5101
14136TIP3    H163899   4.906   1.047   0.197  0.4499 -0.2283  1.4247
14136TIP3    H263900   4.863   1.076   0.339 -2.9475  4.1868 -0.2804
14137TIP3   OH263901   0.600   4.509   0.483 -0.1568 -0.5633 -0.2602
14137TIP3    H163902   0.549   4.522   0.563  0.0494  0.0113 -0.2234
14137TIP3    H263903   0.689   4.538   0.505 -0.2741  0.3629 -0.9302
14138TIP3   OH263904   3.525   1.821  14.950 -0.6540  0.1166 -0.2886
14138TIP3    H163905   3.577   1.769  14.889 -0.6112 -1.0702  0.7101
14138TIP3    H263906   3.469   1.875  14.894 -0.3615 -0.6651 -1.3678
14139TIP3   OH263907   4.273   4.946  13.951  0.3281 -0.0495 -0.4098
14139TIP3    H163908   4.367   4.959  13.960  0.7670 -1.9496 -1.5556
14139TIP3    H263909   4.237   4.971  14.036  1.7701  1.3338 -0.1627
14140TIP3   OH263910   3.356   4.020   4.033 -0.0096 -0.1268  0.2864
14140TIP3    H163911   3.392   4.060   3.954 -2.3476  1.7608  0.0520
14140TIP3    H263912   3.432   3.997   4.085  1.5565  0.2587 -1.7044
14141TIP3   OH263913   6.192   2.597  14.479 -0.2423 -0.0616  0.0694
14141TIP3    H163914   6.140   2.539  14.424 -0.7951 -0.2762  0.8024
14141TIP3    H263915   6.212   2.546  14.557  0.6873  0.1778  0.0021
14142TIP3   OH263916   3.674   4.369  13.254  0.1995 -0.1066  0.1442
14142TIP3    H163917   3.766   4.378  13.231  0.3640  0.7415  1.0700
14142TIP3    H263918   3.642   4.298  13.198  1.1649  0.2343 -0.8757
14143TIP3   OH263919   5.522   1.875  15.023 -0.1689 -0.0886 -0.1020
14143TIP3    H163920   5.593   1.810  15.020  1.0976  1.0483  2.4264
14143TIP3    H263921   5.567   1.958  15.038 -1.9937  0.7068  1.2891
14144TIP3   OH263922   5.343   3.992  15.345 -0.1836 -0.4056 -0.3921
14144TIP3    H163923   5.419   3.960  15.295 -1.2127  0.4350 -2.5860
14144TIP3    H263924   5.319   3.917  15.400  0.6755 -1.5802 -1.5375
14145TIP3   OH263925   5.915   5.649  12.836  0.3794  0.1156  0.2727
14145TIP3    H163926   5.843   5.593  12.866  0.8484 -1.6848 -1.7672
14145TIP3    H263927   5.975   5.590  12.791  0.6324  2.2884 -2.5356
14146TIP3   OH263928   0.367   3.366  16.787  0.5783 -0.1321  0.4538
14146TIP3    H163929   0.444   3.357  16.732  1.7853  1.7841  1.7106
14146TIP3    H263930   0.308   3.422  16.738  1.5287  1.3329  0.9178
14147TIP3   OH263931   2.194   6.043  13.359  0.1846  0.0104  0.1111
14147TIP3    H163932   2.131   5.990  13.309 -2.0313 -0.9801  3.5613
14147TIP3    H263933   2.182   6.132  13.326 -0.6143 -0.6601 -1.5552
14148TIP3   OH263934   3.464   5.810  14.646  0.2675  0.3364  0.7266
14148TIP3    H163935   3.378   5.848  14.627  1.5704  2.2677 -1.8424
14148TIP3    H263936   3.524   5.884  14.650  1.9123 -0.9711  2.2393
14149TIP3   OH263937   3.218   5.883   0.228  0.1772 -0.2118  0.6244
14149TIP3    H163938   3.233   5.845   0.314  1.7174 -0.7849  0.1415
14149TIP3    H263939   3.290   5.850   0.174 -0.9105 -0.1010 -0.9677
14150TIP3   OH263940   3.166   5.454   4.955 -0.4202 -0.7764  0.0833
14150TIP3    H163941   3.116   5.525   4.915 -0.0779 -0.6239 -0.0811
14150TIP3    H263942   3.121   5.437   5.037  0.2573  0.5417  0.7664
14151TIP3   OH263943   0.320   2.247  16.725  0.5989 -0.1447  0.4790
14151TIP3    H163944   0.274   2.306  16.784 -0.4101  0.1330 -0.5471
14151TIP3    H263945   0.399   2.295  16.699  1.4829 -0.5836  2.1655
14152TIP3   OH263946   4.530   1.445  11.816  0.6037  0.3106 -0.3328
14152TIP3    H163947   4.533   1.372  11.878 -1.8255  0.6254  0.2651
14152TIP3    H263948   4.473   1.510  11.857  1.7420  2.0770 -1.3789
14153TIP3   OH263949   0.280   4.315  15.153 -0.8297  0.1286 -0.6931
14153TIP3    H163950   0.305   4.404  15.126 -0.1101  0.8261  2.0070
14153TIP3    H263951   0.364   4.270  15.168 -1.1834 -0.3103  0.0058
14154TIP3   OH263952   0.982   5.280   5.512  0.0878  0.6291  0.5003
14154TIP3    H163953   0.974   5.229   5.592 -0.0045  0.6296  0.4913
14154TIP3    H263954   1.063   5.249   5.472  0.1298  0.6227  0.5893
14155TIP3   OH263955   4.146   1.223   2.203  0.2186  0.1820 -0.2994
14155TIP3    H163956   4.218   1.276   2.170 -0.9015  0.3994 -2.6683
14155TIP3    H263957   4.067   1.273   2.180 -0.8034 -1.6691 -1.0492
14156TIP3   OH263958   6.101   6.152  13.980  0.2003 -0.1144 -0.1818
14156TIP3    H163959   6.048   6.222  13.941 -0.1278 -0.6882 -0.7856
14156TIP3    H263960   6.099   6.170  14.074 -0.4515  0.2971 -0.2667
14157TIP3   OH263961   6.810   2.397  16.134  0.2368 -0.7283 -0.1189
14157TIP3    H163962   6.772   2.485  16.133  2.7798  0.4920  1.0451
14157TIP3    H263963   6.822   2.377  16.227  2.2525 -1.0354 -0.3913
14158TIP3   OH263964   1.829   4.091   2.894  0.0159 -0.1956 -0.1838
14158TIP3    H163965   1.873   4.068   2.812 -0.1061 -0.1483 -0.2643
14158TIP3    H263966   1.877   4.044   2.962  2.4560  2.5345  0.2048
14159TIP3   OH263967   3.310   4.776  15.748 -0.3027  0.1790 -0.4670
14159TIP3    H163968   3.293   4.759  15.655 -0.4617  2.0461 -0.8334
14159TIP3    H263969   3.392   4.825  15.749  0.1133 -0.5175  0.4558
14160TIP3   OH263970   2.208   0.730  14.825  0.3416 -0.1461 -0.6789
14160TIP3    H163971   2.199   0.788  14.901 -0.4608 -0.4908 -0.5031
14160TIP3    H263972   2.247   0.785  14.757 -0.6644  0.6767 -0.6014
14161TIP3   OH263973   3.928   4.276   2.683 -0.0574 -1.0028 -0.0652
14161TIP3    H163974   3.978   4.321   2.615  0.0421  0.3919  0.8983
14161TIP3    H263975   3.986   4.206   2.714  1.8248  1.2045  1.7368
14162TIP3   OH263976   6.775   1.071   6.643 -0.2751 -0.4721  0.0845
14162TIP3    H163977   6.793   1.002   6.706  1.8592 -1.4034 -1.4182
14162TIP3    H263978   6.841   1.138   6.661 -0.7967  0.0667 -0.0038
14163TIP3   OH263979   3.268   5.243  13.151  0.3184 -0.4416 -0.1768
14163TIP3    H163980   3.336   5.308  13.169  1.1098 -0.7932 -1.7263
14163TIP3    H263981   3.187   5.283  13.182  1.0205  0.6023  0.3589
14164TIP3   OH263982   4.134   4.438   2.525 -0.1642 -0.0896  0.7366
14164TIP3    H163983   4.157   4.345   2.526  0.6345  0.0602 -0.7584
14164TIP3    H263984   4.213   4.482   2.556 -0.7657  0.0794  2.0905
14165TIP3   OH263985   4.540   0.608   5.486  0.4463 -0.1676  0.6865
14165TIP3    H163986   4.475   0.603   5.416 -1.4120 -1.0210  2.3431
14165TIP3    H263987   4.599   0.534   5.470 -0.0133 -0.4112  0.0832
14166TIP3   OH263988   1.533   3.355  16.726  0.2264 -0.3448 -0.4987
14166TIP3    H163989   1.533   3.307  16.810  0.3123  2.0570  0.9686
14166TIP3    H263990   1.620   3.340  16.690  1.2447  0.8557  1.2930
14167TIP3   OH263991   6.787   2.845  16.567  0.4436  0.0511 -0.2553
14167TIP3    H163992   6.832   2.916  16.520  0.9203  0.7934  1.2684
14167TIP3    H263993   6.752   2.887  16.645  0.5570 -1.3511  0.5779
14168TIP3   OH263994   3.385   3.507   0.547 -0.5522  0.2524 -0.3750
14168TIP3    H163995   3.475   3.475   0.558 -1.5938 -3.7480 -1.7016
14168TIP3    H263996   3.389   3.560   0.467  0.9133  1.7661  0.6434
14169TIP3   OH263997   3.086   1.279  14.919 -0.8038  0.4792  0.3479
14169TIP3    H163998   3.022   1.233  14.973  0.3270 -0.1900  1.1740
14169TIP3    H263999   3.081   1.235  14.834  0.8050 -1.8147  1.3340
14170TIP3   OH264000   3.266   4.764   5.103  0.3122 -0.1919 -0.2630
14170TIP3    H164001   3.294   4.739   5.191  0.7026  2.0686  0.3160
14170TIP3    H264002   3.183   4.717   5.091  1.3354 -2.3136  0.3478
14171TIP3   OH264003   1.344   6.520   3.743 -0.2734  1.1166 -0.3321
14171TIP3    H164004   1.418   6.484   3.695 -0.8958 -0.1025 -0.4013
14171TIP3    H264005   1.382   6.552   3.825  0.1593 -0.6321  0.1796
14172TIP3   OH264006   6.634   0.170  11.062  0.1308 -0.3943  0.2513
14172TIP3    H164007   6.581   0.133  10.992 -0.5877 -0.6554  0.9272
14172TIP3    H264008   6.585   0.246  11.092  0.7149  0.0569  0.1032
14173TIP3   OH264009   3.447   0.452  12.098  0.3856  0.5265  0.3706
14173TIP3    H164010   3.444   0.504  12.178 -2.3597 -0.0942  0.7845
14173TIP3    H264011   3.461   0.516  12.028 -2.1186  1.8245  0.9351
14174TIP3   OH264012   1.923   4.378   1.559 -0.3467 -0.1594  0.0980
14174TIP3    H164013   1.924   4.457   1.505 -1.9176  0.1943  0.5137
14174TIP3    H264014   1.848   4.328   1.527  0.9826 -1.8028 -0.5518
14175TIP3   OH264015   6.251   5.265  14.634  0.2601  0.4011  0.3175
14175TIP3    H164016   6.241   5.326  14.707 -0.1795  0.4468  0.2228
14175TIP3    H264017   6.258   5.179  14.675 -1.2624  0.2847  0.3743
14176TIP3   OH264018   5.004   2.148  14.069  0.0218  0.0720  0.1540
14176TIP3    H164019   5.023   2.179  13.981  1.4515  0.2422  0.4902
14176TIP3    H264020   5.087   2.158  14.116 -0.8107  0.3655  1.6303
14177TIP3   OH264021   3.448   5.050   4.905  0.1694 -0.1601  0.0082
14177TIP3    H164022   3.531   5.050   4.859  0.2943  0.2007  0.2299
14177TIP3    H264023   3.390   5.104   4.852  0.0178 -0.5621 -0.2427
14178TIP3   OH264024   5.129   5.702  15.960 -0.6188 -0.0598 -0.1573
14178TIP3    H164025   5.172   5.678  16.042 -1.4747  0.3304  0.4196
14178TIP3    H264026   5.171   5.783  15.933 -1.6525  0.8863  0.9503
14179TIP3   OH264027   5.039   4.838   3.915  0.3466  0.2122 -0.2370
14179TIP3    H164028   5.002   4.841   4.003  3.8685  1.1615  1.4213
14179TIP3    H264029   5.053   4.930   3.892  4.1261 -0.0012  0.5870
14180TIP3   OH264030   6.227   2.536  13.584  0.3425 -0.1907 -0.3902
14180TIP3    H164031   6.206   2.552  13.492 -0.9534 -0.0411 -0.0855
14180TIP3    H264032   6.255   2.445  13.587 -0.4755 -0.4590 -0.7971
14181TIP3   OH264033   0.521   2.443  13.055  0.5815  0.1404  0.0867
14181TIP3    H164034   0.521   2.533  13.088 -1.2301  0.6385 -1.1184
14181TIP3    H264035   0.494   2.452  12.963  0.5471 -1.6256 -0.0991
14182TIP3   OH264036   6.641   6.696  13.322  0.4680  0.1301 -0.0948
14182TIP3    H164037   6.662   6.772  13.377  0.6012 -0.1244  0.2094
14182TIP3    H264038   6.547   6.702  13.307  0.4524  0.2703  0.0580
14183TIP3   OH264039   2.823   3.703   2.481  0.0453  0.1276  0.3481
14183TIP3    H164040   2.845   3.610   2.493 -2.4573 -0.7660 -1.1947
14183TIP3    H264041   2.881   3.732   2.411 -0.6801 -0.9339 -0.7270
14184TIP3   OH264042   2.191   0.603  14.511  0.4289  0.5587 -0.2292
14184TIP3    H164043   2.265   0.653  14.477 -0.9561  2.1435 -1.0677
14184TIP3    H264044   2.157   0.555  14.435  1.0800 -0.8699  0.3361
14185TIP3   OH264045   5.743   5.167  16.370 -0.6657  0.0983  0.0620
14185TIP3    H164046   5.814   5.142  16.428 -0.3164 -1.5113 -0.9903
14185TIP3    H264047   5.713   5.085  16.331 -1.9228  0.9393 -0.8442
14186TIP3   OH264048   6.716   1.486   1.114  0.8179 -0.4227 -0.0137
14186TIP3    H164049   6.685   1.407   1.158  1.9011 -0.6087  0.4405
14186TIP3    H264050   6.694   1.474   1.022 -0.7239 -0.4073  0.3260
14187TIP3   OH264051   1.437   0.737   4.668  0.0184  0.0356  0.1064
14187TIP3    H164052   1.374   0.669   4.693 -1.4528  1.5581  0.8005
14187TIP3    H264053   1.451   0.787   4.749  2.0013 -0.1395 -0.0940
14188TIP3   OH264054   0.171   0.134   4.668 -0.0910  0.2677  0.2905
14188TIP3    H164055   0.090   0.119   4.718  0.1851 -1.5450  0.2474
14188TIP3    H264056   0.168   0.071   4.597  1.0738  0.6170 -0.0917
14189TIP3   OH264057   2.934   2.370   1.849  0.4080 -0.2067  0.2371
14189TIP3    H164058   2.888   2.451   1.826 -1.2404 -0.3723  2.5292
14189TIP3    H264059   2.864   2.310   1.875  1.3997 -3.1356 -3.1808
14190TIP3   OH264060   3.532   1.447   0.910  0.2633 -0.3707 -0.5582
14190TIP3    H164061   3.527   1.442   1.006 -0.8136  0.3290 -0.5610
14190TIP3    H264062   3.588   1.373   0.885 -2.0497 -2.6221  0.3879
14191TIP3   OH264063   0.263   1.379   0.087 -0.3760  0.2757 -0.1056
14191TIP3    H164064   0.267   1.314   0.158 -0.1301 -0.1770 -0.5213
14191TIP3    H264065   0.351   1.416   0.083 -0.3858  0.2925 -0.1777
14192TIP3   OH264066   6.486   6.537  12.342  0.3974  0.2017 -0.7334
14192TIP3    H164067   6.425   6.506  12.276 -0.4881 -1.4168  0.7571
14192TIP3    H264068   6.430   6.577  12.409  0.9513 -0.9176  0.4489
14193TIP3   OH264069   3.565   1.514   2.859  0.0180 -0.1820 -0.2192
14193TIP3    H164070   3.593   1.571   2.788 -1.1112  0.0949 -0.4578
14193TIP3    H264071   3.642   1.506   2.915  1.0365 -0.6733 -1.6352
14194TIP3   OH264072   5.411   5.035   2.337  0.1363 -0.6892 -0.3876
14194TIP3    H164073   5.453   5.017   2.422  1.0238  0.8209 -0.4812
14194TIP3    H264074   5.317   5.035   2.357  0.3425 -0.1223  0.6572
14195TIP3   OH264075   5.384   6.207  16.547 -0.0952  0.1244 -0.3210
14195TIP3    H164076   5.445   6.280  16.538  0.3794 -0.4233 -2.0507
14195TIP3    H264077   5.299   6.243  16.520 -0.0674  0.3092 -0.1582
14196TIP3   OH264078   4.910   5.528  10.804  0.3165  0.5492  0.3388
14196TIP3    H164079   4.824   5.489  10.787  0.7784 -0.2316 -0.2187
14196TIP3    H264080   4.971   5.455  10.802  0.9990  1.0942  0.7762
14197TIP3   OH264081   3.394   3.993   2.979 -0.1083 -0.9969 -0.3605
14197TIP3    H164082   3.437   3.908   2.972  0.4188 -0.7388 -0.3105
14197TIP3    H264083   3.457   4.049   3.024  0.0187 -0.2727 -1.3995
14198TIP3   OH264084   3.310   5.859   4.935 -0.8246 -0.0846  0.0567
14198TIP3    H164085   3.340   5.787   4.879 -1.6033 -1.6263  1.5421
14198TIP3    H264086   3.386   5.917   4.941  0.9045 -2.2688  1.1312
14199TIP3   OH264087   1.173   3.523   0.825  0.5926  0.4708 -0.5656
14199TIP3    H164088   1.130   3.501   0.908  1.5654 -0.4252 -0.2844
14199TIP3    H264089   1.135   3.461   0.762  1.4066 -0.2944 -0.3253
14200TIP3   OH264090   2.179   3.894   3.633 -0.0223 -0.3364 -0.0978
14200TIP3    H164091   2.230   3.974   3.616  0.4381 -0.5074  0.4370
14200TIP3    H264092   2.097   3.926   3.671  0.0339 -0.0964 -0.1769
14201TIP3   OH264093   3.194   4.302  14.673  0.4137  0.6661  0.0557
14201TIP3    H164094   3.278   4.348  14.668  0.2321  1.1268  1.0871
14201TIP3    H264095   3.172   4.301  14.766 -0.5007  0.1338 -0.1499
14202TIP3   OH264096   0.534   4.738   6.092  0.2326 -0.0677  0.0479
14202TIP3    H164097   0.518   4.661   6.147  0.7206 -0.4893 -0.3934
14202TIP3    H264098   0.503   4.812   6.145 -1.9292 -0.6946 -0.2258
14203TIP3   OH264099   1.218   0.887  16.798  0.2739  0.2668  0.6225
14203TIP3    H164100   1.267   0.940  16.861  1.2999 -1.1411  1.0403
14203TIP3    H264101   1.285   0.846  16.744 -0.3907 -1.8207  1.2897
14204TIP3   OH264102   3.889   3.174  10.953  0.4994 -0.0245 -0.7967
14204TIP3    H164103   3.935   3.104  10.998 -0.8854 -0.4366  0.0542
14204TIP3    H264104   3.946   3.250  10.963  0.9231 -0.4639  0.3852
14205TIP3   OH264105   2.596   3.350   3.861  0.6129 -0.0919  0.0309
14205TIP3    H164106   2.665   3.307   3.912  0.1016 -1.0316 -0.0422
14205TIP3    H264107   2.639   3.424   3.819  0.9045  1.2427  2.4584
14206TIP3   OH264108   0.884   5.917  11.305  0.2715 -0.5374 -0.0147
14206TIP3    H164109   0.830   5.849  11.346  1.2426 -1.4749 -0.2388
14206TIP3    H264110   0.861   5.912  11.212 -0.2834  0.0434  0.0856
14207TIP3   OH264111   0.486   2.627  15.989 -0.0987 -0.1319  1.1082
14207TIP3    H164112   0.400   2.614  16.027 -0.7198 -0.6221 -0.3752
14207TIP3    H264113   0.541   2.559  16.029 -1.4822 -2.6808 -1.0303
14208TIP3   OH264114   4.566   1.196  11.907  0.3597 -0.6243  0.3617
14208TIP3    H164115   4.658   1.180  11.929  1.3491  1.8238 -1.5259
14208TIP3    H264116   4.554   1.153  11.822 -0.2219 -0.7658  0.5065
14209TIP3   OH264117   3.728   1.759  16.227  0.1939 -0.0657  0.0042
14209TIP3    H164118   3.673   1.831  16.196 -1.2314 -1.3304 -0.4882
14209TIP3    H264119   3.788   1.742  16.155  0.5504  0.6127  0.1278
14210TIP3   OH264120   1.619   1.415  15.100  0.0059  0.0194 -0.0218
14210TIP3    H164121   1.669   1.491  15.130  0.3520  0.2789 -1.2064
14210TIP3    H264122   1.529   1.447  15.093 -0.1914 -0.2073  1.2732
14211TIP3   OH264123   2.467   1.401   1.411  0.6730  0.5424 -0.6037
14211TIP3    H164124   2.401   1.380   1.477 -0.9029  0.9533 -2.0141
14211TIP3    H264125   2.550   1.396   1.459 -0.4125  0.8348  1.4046
14212TIP3   OH264126   4.113   6.433  14.980 -0.4049 -0.0186 -0.2768
14212TIP3    H164127   4.176   6.482  15.032  1.1185 -2.4083  0.2770
14212TIP3    H264128   4.157   6.416  14.897 -0.7440 -0.7486 -0.3166
14213TIP3   OH264129   3.899   3.538   2.176 -0.0671  0.4728  0.1608
14213TIP3    H164130   3.982   3.506   2.211 -1.0607 -0.3723  1.8891
14213TIP3    H264131   3.887   3.489   2.095 -0.3687 -1.8923  1.5169
14214TIP3   OH264132   3.553   4.191  13.082 -0.0180  0.6262 -0.1629
14214TIP3    H164133   3.481   4.208  13.022  0.7461 -0.5504 -1.4701
14214TIP3    H264134   3.631   4.191  13.027  0.6959 -0.6344  0.7768
14215TIP3   OH264135   4.243   4.490  11.392 -0.0969  0.1748  0.1140
14215TIP3    H164136   4.191   4.565  11.363  1.0022  0.7306 -0.5160
14215TIP3    H264137   4.181   4.417  11.395 -0.8677  0.7664 -0.8096
14216TIP3   OH264138   5.804   6.237  17.002 -0.3942 -0.3796  0.3508
14216TIP3    H164139   5.729   6.204  17.051 -1.8529 -0.3415 -1.7430
14216TIP3    H264140   5.873   6.247  17.068 -1.4724 -2.6308  1.9389
14217TIP3   OH264141   4.296   4.584   5.326 -0.3847 -0.4775 -0.1247
14217TIP3    H164142   4.293   4.590   5.231 -0.3853 -0.5297 -0.1275
14217TIP3    H264143   4.205   4.569   5.353 -0.7504  1.5701  0.0071
14218TIP3   OH264144   1.758   1.509   5.340  0.4053  0.0402  0.2427
14218TIP3    H164145   1.700   1.460   5.281  1.2407 -0.6399 -0.0363
14218TIP3    H264146   1.827   1.446   5.363  2.3358  1.4941 -1.2723
14219TIP3   OH264147   3.324   4.226  11.044  0.1547  0.0060  0.0104
14219TIP3    H164148   3.332   4.158  11.111  0.3843  0.4383  0.4301
14219TIP3    H264149   3.268   4.188  10.977  0.6038 -0.7434  0.0503
14220TIP3   OH264150   5.400   6.603  13.128 -0.1518  0.4940  0.5517
14220TIP3    H164151   5.378   6.554  13.049  0.6879  1.4453 -0.2986
14220TIP3    H264152   5.476   6.558  13.163 -1.8759 -1.3691  2.1946
14221TIP3   OH264153   4.164   2.585  16.922  0.1592 -0.6157 -0.0583
14221TIP3    H164154   4.235   2.633  16.966 -0.1541  0.4490 -0.6812
14221TIP3    H264155   4.203   2.555  16.840 -0.7155  2.0326 -1.5406
14222TIP3   OH264156   4.205   0.559  16.827  0.3415  0.0722  0.0703
14222TIP3    H164157   4.152   0.493  16.871  1.0436 -1.1473 -0.8501
14222TIP3    H264158   4.280   0.572  16.885 -0.5253  1.1866  0.9731
14223TIP3   OH264159   4.530   0.816  10.184 -0.5297  0.2871  0.0537
14223TIP3    H164160   4.557   0.890  10.238  0.4296 -0.1552  0.1938
14223TIP3    H264161   4.445   0.842  10.149 -0.2146  1.4410  0.1188
14224TIP3   OH264162   5.350   5.819   1.598  0.1389  0.4113  0.4132
14224TIP3    H164163   5.385   5.892   1.649 -0.3298  0.4230  0.7246
14224TIP3    H264164   5.283   5.860   1.541  0.5396  0.3727 -0.0915
14225TIP3   OH264165   0.003   2.085  13.499 -0.2247  0.4765 -0.9254
14225TIP3    H164166  -0.014   2.147  13.569  0.1876 -1.1740  0.7053
14225TIP3    H264167  -0.076   2.031  13.494  0.0117  0.1543 -1.2665
14226TIP3   OH264168   5.455   2.364  11.473  0.5888  0.2090  0.3550
14226TIP3    H164169   5.394   2.361  11.399  0.6472  0.2520  0.3058
14226TIP3    H264170   5.398   2.366  11.550  0.5153  1.3070  0.2823
14227TIP3   OH264171   3.920   4.077   5.651  0.0660 -0.0416 -0.0256
14227TIP3    H164172   3.902   4.105   5.741 -0.3446  0.0108 -0.1222
14227TIP3    H264173   4.015   4.080   5.644  0.1177 -0.3465  0.5044
14228TIP3   OH264174   1.429   6.678  13.594  0.0773 -0.3098 -0.2791
14228TIP3    H164175   1.447   6.748  13.656 -1.6282 -0.3707  0.3188
14228TIP3    H264176   1.385   6.721  13.521 -3.0058 -0.9675  1.0495
14229TIP3   OH264177   2.488   1.499  11.387  0.1989  0.6959 -0.0376
14229TIP3    H164178   2.542   1.542  11.321  0.5030  0.9892  0.3991
14229TIP3    H264179   2.550   1.458  11.446 -0.0652  0.8232  0.3279
14230TIP3   OH264180   6.647   3.521   3.412 -0.4689  0.0538 -0.3506
14230TIP3    H164181   6.623   3.494   3.501 -2.2915  1.1218 -0.4742
14230TIP3    H264182   6.590   3.469   3.356 -1.1582  1.2210 -0.7572
14231TIP3   OH264183   0.179   2.461  15.327 -0.1229  1.1032 -0.4648
14231TIP3    H164184   0.120   2.487  15.397 -0.8643  1.5155 -1.2181
14231TIP3    H264185   0.125   2.406  15.270  0.9447 -0.6789  0.1858
14232TIP3   OH264186   3.645   5.054   3.440  0.1401 -0.1886 -0.4298
14232TIP3    H164187   3.644   5.139   3.395  1.2339 -0.3085 -0.7153
14232TIP3    H264188   3.554   5.025   3.437 -0.0187  0.3560 -1.5387
14233TIP3   OH264189   4.758   2.384   0.846 -0.2104  0.6246  0.4254
14233TIP3    H164190   4.731   2.473   0.824  0.6141  0.8471  0.2757
14233TIP3    H264191   4.841   2.371   0.799  0.7658  0.5425  2.0959
14234TIP3   OH264192   5.832   0.992  11.490 -0.6530 -0.1817 -0.2851
14234TIP3    H164193   5.820   0.912  11.542  1.4469 -0.8994 -0.7908
14234TIP3    H264194   5.869   1.055  11.552  0.5723 -0.6124 -0.5392
14235TIP3   OH264195   5.475   3.204   2.561 -0.2667  0.7370  0.4415
14235TIP3    H164196   5.401   3.147   2.537 -1.3670  1.4097  2.0658
14235TIP3    H264197   5.544   3.180   2.499 -1.8267  0.0778 -1.1400
14236TIP3   OH264198   5.891   0.480  11.640 -0.0512 -0.5136 -0.3287
14236TIP3    H164199   5.884   0.415  11.569  0.6865  0.4217 -1.2900
14236TIP3    H264200   5.864   0.432  11.719 -1.5446 -1.3946 -1.3301
14237TIP3   OH264201   6.077   6.742  12.962 -0.0385  0.6495 -0.2349
14237TIP3    H164202   6.126   6.781  13.034  0.8692 -0.3442 -0.2909
14237TIP3    H264203   5.986   6.744  12.992  0.2190  1.0812  0.5492
14238TIP3   OH264204   5.471   1.311  11.148 -0.1877 -0.1424  0.6315
14238TIP3    H164205   5.406   1.376  11.121 -0.3812  0.4239  2.3741
14238TIP3    H264206   5.475   1.249  11.074 -2.4505 -0.0194  0.3436
14239TIP3   OH264207   3.354   2.244   2.859 -0.6166  0.2518  0.8929
14239TIP3    H164208   3.438   2.206   2.881  1.1640  2.9113 -0.7494
14239TIP3    H264209   3.370   2.338   2.853 -3.5510  0.8170 -0.1638
14240TIP3   OH264210   4.068   4.540  14.688 -0.2185  0.3116 -0.3473
14240TIP3    H164211   4.107   4.616  14.646  0.1573  0.5358  0.3936
14240TIP3    H264212   4.125   4.522  14.763  0.1341 -1.1475 -0.9212
14241TIP3   OH264213   4.663   2.962   0.903 -0.4082  0.2247 -0.0690
14241TIP3    H164214   4.692   2.873   0.882  1.0798  0.2827  1.5118
14241TIP3    H264215   4.573   2.950   0.935  0.5093 -1.0941  2.2812
14242TIP3   OH264216   3.008   6.213  16.318  0.5014  0.0988 -0.5817
14242TIP3    H164217   3.086   6.228  16.372 -0.2137 -1.8757  1.1658
14242TIP3    H264218   2.944   6.276  16.350  0.7084  0.2567 -0.4782
14243TIP3   OH264219   1.807   5.020   3.152  0.0689 -0.3699  0.5207
14243TIP3    H164220   1.794   5.068   3.071 -0.6378 -0.9877  0.2466
14243TIP3    H264221   1.805   5.086   3.221 -0.5565  0.0324  0.1254
14244TIP3   OH264222   5.635   1.575   6.339  0.5150  0.0801  0.3764
14244TIP3    H164223   5.595   1.660   6.322  2.1518  0.3255 -2.9249
14244TIP3    H264224   5.561   1.513   6.335 -0.0022  0.6970 -3.8662
14245TIP3   OH264225   3.666   4.764  13.454  0.0603  0.2642  0.2393
14245TIP3    H164226   3.620   4.691  13.411  0.1331  0.3756 -0.0285
14245TIP3    H264227   3.757   4.735  13.458 -0.3976 -1.1538  3.2289
14246TIP3   OH264228   6.786   6.537  17.096 -0.1845  0.0476  0.1893
14246TIP3    H164229   6.702   6.513  17.056  0.2125 -1.5224  0.2354
14246TIP3    H264230   6.767   6.619  17.142 -1.1614  0.8182 -1.4768
14247TIP3   OH264231   0.228   5.481  14.172 -0.3422  0.2996  0.1385
14247TIP3    H164232   0.319   5.502  14.152 -1.2643  1.9310 -2.9994
14247TIP3    H264233   0.187   5.566  14.189 -0.9520 -0.5585  3.9332
14248TIP3   OH264234   2.360   5.148  14.979  0.4133 -0.2342 -0.3754
14248TIP3    H164235   2.378   5.214  14.913  3.3677 -1.2186 -0.6762
14248TIP3    H264236   2.324   5.074  14.930 -0.4288  0.1824 -0.3995
14249TIP3   OH264237   3.014   1.025  15.704  0.3266  0.0725  0.2640
14249TIP3    H164238   3.090   1.069  15.741  0.1071  1.0717 -0.4246
14249TIP3    H264239   2.949   1.024  15.774  0.4400  0.5889  0.3778
14250TIP3   OH264240   1.317   5.423   5.373 -0.0430  0.1149 -1.1963
14250TIP3    H164241   1.339   5.436   5.465 -1.2606 -0.3005 -0.8185
14250TIP3    H264242   1.241   5.479   5.358  1.0512  1.3372 -2.3810
14251TIP3   OH264243   1.984   4.471   3.082 -0.2651  0.1221  0.3274
14251TIP3    H164244   2.069   4.492   3.122  0.7669  2.2873 -2.6497
14251TIP3    H264245   1.987   4.376   3.070  1.3972  0.0436  1.0015
14252TIP3   OH264246   6.426   5.721  16.685  0.1577  0.0774  0.3178
14252TIP3    H164247   6.367   5.724  16.609  0.3851 -0.4415  0.1228
14252TIP3    H264248   6.454   5.812  16.696 -0.5377  0.3026  0.3020
14253TIP3   OH264249   6.341   3.589  16.365 -0.0991 -0.6059  0.2394
14253TIP3    H164250   6.301   3.639  16.294  0.9930 -0.6951 -0.4736
14253TIP3    H264251   6.369   3.507  16.324  0.8255 -0.5294  0.6864
14254TIP3   OH264252   4.540   5.064  16.306  0.1241 -0.4800 -0.4984
14254TIP3    H164253   4.542   5.023  16.220  1.7762  0.7806 -1.1008
14254TIP3    H264254   4.578   5.151  16.292 -2.0554  0.8304  0.9681
14255TIP3   OH264255   0.316   1.802  14.289  0.0664  0.1118  0.8141
14255TIP3    H164256   0.314   1.778  14.381  0.4152  0.9168  1.0346
14255TIP3    H264257   0.379   1.874  14.283  1.1360 -0.8584 -0.2777
14256TIP3   OH264258   0.138   2.979   4.836  0.0593  0.1489 -0.1456
14256TIP3    H164259   0.082   2.902   4.846 -1.5762  1.2381 -0.4851
14256TIP3    H264260   0.187   2.984   4.918 -1.2683 -0.1340  0.6912
14257TIP3   OH264261   0.497   3.363   2.812 -0.6097  0.3586 -0.0702
14257TIP3    H164262   0.553   3.407   2.749 -0.6835 -0.3158 -0.6181
14257TIP3    H264263   0.421   3.421   2.822 -0.7780  0.2847 -0.8956
14258TIP3   OH264264   0.596   1.648   1.447  0.2758 -0.0098 -0.1843
14258TIP3    H164265   0.624   1.618   1.534 -0.4024  0.1391  0.0914
14258TIP3    H264266   0.526   1.711   1.465  0.2833  0.1904 -0.8330
14259TIP3   OH264267   1.665   5.508  11.537  0.2966 -0.1545  0.2580
14259TIP3    H164268   1.738   5.500  11.476  0.4591 -1.0898  0.5668
14259TIP3    H264269   1.691   5.457  11.613 -0.0700  0.6905  0.9660
14260TIP3   OH264270   3.475   3.278   0.872 -0.1685 -0.0059  0.1319
14260TIP3    H164271   3.465   3.339   0.944  0.2065 -0.3804  0.5020
14260TIP3    H264272   3.404   3.215   0.884 -1.3864  1.0691 -0.9929
14261TIP3   OH264273   1.927   3.618  13.959 -0.7112 -0.0307 -0.0387
14261TIP3    H164274   2.009   3.570  13.949  0.3295  1.6094  0.2784
14261TIP3    H264275   1.944   3.680  14.029 -2.4845 -0.1520  0.5363
14262TIP3   OH264276   1.750   0.080  11.529  0.1561  0.1675  0.5318
14262TIP3    H164277   1.821   0.095  11.466  1.2258 -0.2700  1.5910
14262TIP3    H264278   1.773  -0.003  11.571  0.3264  1.2332  2.6290
14263TIP3   OH264279   4.426   0.833  13.118 -0.0158 -0.3451 -0.3033
14263TIP3    H164280   4.467   0.747  13.108 -0.1226 -0.6618  1.5977
14263TIP3    H264281   4.342   0.825  13.073  0.2686 -1.0105 -0.7385
14264TIP3   OH264282   5.488   3.057   1.422 -0.4537  0.5337 -0.6370
14264TIP3    H164283   5.538   3.105   1.488 -0.4479  1.1560 -1.0874
14264TIP3    H264284   5.423   3.009   1.472  0.1269  0.2842 -0.1011
14265TIP3   OH264285   6.715   2.234   2.465  0.7446 -0.3121  0.0434
14265TIP3    H164286   6.701   2.236   2.560  1.0037 -1.7254  0.1358
14265TIP3    H264287   6.722   2.141   2.444  2.7892  0.0344 -1.0673
14266TIP3   OH264288   5.696   3.713  15.883 -0.4044  0.2962  0.2578
14266TIP3    H164289   5.620   3.657  15.900 -0.3131  0.4870  1.4147
14266TIP3    H264290   5.659   3.798  15.863 -0.5230  0.0340 -0.6688
14267TIP3   OH264291   2.844   6.393   2.876  0.1453 -0.4161  0.3446
14267TIP3    H164292   2.796   6.470   2.908 -1.0558 -0.5951 -0.9477
14267TIP3    H264293   2.895   6.425   2.801 -0.1897 -0.8255 -0.0649
14268TIP3   OH264294   2.950   3.246  14.863  0.0187  0.0784  0.2323
14268TIP3    H164295   2.966   3.168  14.809 -0.6512  0.7579 -0.9805
14268TIP3    H264296   3.021   3.245  14.927  1.6353 -0.0470 -1.4783
14269TIP3   OH264297   0.082   0.389  14.181 -0.2542 -0.4401 -0.3757
14269TIP3    H164298  -0.013   0.391  14.197 -0.2499  0.6086 -0.3845
14269TIP3    H264299   0.090   0.386  14.086 -0.2794 -0.2163 -0.3853
14270TIP3   OH264300   1.924   1.139   2.824 -0.1091  0.8032  0.1216
14270TIP3    H164301   1.988   1.131   2.754 -1.1398  0.8990 -0.8650
14270TIP3    H264302   1.841   1.157   2.779 -0.7052  1.3913  1.3913
14271TIP3   OH264303   0.104   1.810  14.511  0.1160 -0.2995  0.3474
14271TIP3    H164304   0.180   1.752  14.499  0.5782  0.3325  0.1591
14271TIP3    H264305   0.066   1.818  14.424 -0.3083 -0.7961  0.4825
14272TIP3   OH264306   1.658   3.528   4.944 -0.7058  0.0814  0.2191
14272TIP3    H164307   1.614   3.512   4.860 -0.4550  1.2329 -0.1546
14272TIP3    H264308   1.747   3.496   4.930 -0.5501  0.6358 -0.1034
14273TIP3   OH264309   3.734   1.621   1.124  0.4792 -0.0532 -0.3527
14273TIP3    H164310   3.686   1.692   1.166  0.3085  0.9083 -2.0922
14273TIP3    H264311   3.766   1.658   1.042  3.7959 -0.8017  0.4493
14274TIP3   OH264312   6.227   1.590   1.720  0.2380  0.3099  0.8302
14274TIP3    H164313   6.253   1.619   1.632  0.5267 -1.5059  0.2576
14274TIP3    H264314   6.161   1.653   1.748 -0.4518  0.4923 -1.0439
14275TIP3   OH264315   5.122   5.838   4.938 -0.1794  0.3668 -0.1282
14275TIP3    H164316   5.079   5.794   5.012  0.3192 -1.5542 -0.9187
14275TIP3    H264317   5.211   5.801   4.937 -0.1852  0.3498 -1.6918
14276TIP3   OH264318   2.673   3.291  17.135  0.2025  0.0775  0.2048
14276TIP3    H164319   2.585   3.325  17.152  0.4065  1.0754 -0.6570
14276TIP3    H264320   2.658   3.206  17.093 -0.4105  1.0208 -1.5771
14277TIP3   OH264321   0.440   0.854  14.830  0.4178 -0.0492  0.4575
14277TIP3    H164322   0.401   0.924  14.881  1.0447  0.2295  0.5675
14277TIP3    H264323   0.398   0.860  14.744 -1.2299 -1.0368  1.1444
14278TIP3   OH264324   5.807   0.388   3.136 -0.0677  0.3747  0.3753
14278TIP3    H164325   5.833   0.338   3.058  2.2344  1.9057  0.0589
14278TIP3    H264326   5.712   0.387   3.134 -0.1371 -3.1962 -0.0643
14279TIP3   OH264327   2.602   3.031  11.490 -0.4141 -0.1735 -0.5989
14279TIP3    H164328   2.557   2.950  11.515 -0.0465 -0.7216 -1.6579
14279TIP3    H264329   2.650   3.009  11.410 -0.3758  1.1113 -0.9649
14280TIP3   OH264330   1.985   0.860  12.719  0.5553  0.0196 -0.1784
14280TIP3    H164331   1.932   0.913  12.777  0.5970 -0.5784  0.4184
14280TIP3    H264332   2.009   0.783  12.771  0.2806 -0.7115 -1.0933
14281TIP3   OH264333   3.810   1.988  14.297  0.1433 -0.0945 -0.0762
14281TIP3    H164334   3.771   2.044  14.231  1.8588 -0.8185 -1.8080
14281TIP3    H264335   3.832   2.046  14.369 -0.2563  1.0328 -0.8455
14282TIP3   OH264336   3.921   0.932  14.109  0.0771 -0.9434  0.5213
14282TIP3    H164337   3.896   0.860  14.051  0.9457 -1.0754  0.3010
14282TIP3    H264338   4.017   0.930  14.110  0.0876 -0.4192  1.3066
14283TIP3   OH264339   4.947   1.038  14.242 -0.5405  0.2007  0.1143
14283TIP3    H164340   4.854   1.020  14.231 -1.1165  2.2944  1.1661
14283TIP3    H264341   4.954   1.082  14.327  1.2895  0.8708 -0.3282
14284TIP3   OH264342   2.699   3.807   3.144 -0.1801  0.0173 -0.1502
14284TIP3    H164343   2.742   3.739   3.197  2.0698  0.4165 -1.3621
14284TIP3    H264344   2.738   3.798   3.057 -2.8267  0.2440 -1.4587
14285TIP3   OH264345   3.079   1.936   0.864 -0.0675  0.0541  0.3607
14285TIP3    H164346   3.022   2.011   0.845 -0.6810 -0.0263  1.7891
14285TIP3    H264347   3.128   1.962   0.942  1.4232 -0.1358 -0.4797
14286TIP3   OH264348   0.404   1.054   3.291 -0.5089  0.2972 -0.9956
14286TIP3    H164349   0.359   1.063   3.375 -0.9530  1.9112 -1.3627
14286TIP3    H264350   0.474   0.991   3.307  1.5639  2.9833  1.5366
14287TIP3   OH264351   5.382   4.491  16.785 -0.5567 -0.3210  0.0212
14287TIP3    H164352   5.380   4.557  16.853  0.7184 -0.5789  0.3383
14287TIP3    H264353   5.346   4.534  16.708 -2.3690 -0.1401  0.9137
14288TIP3   OH264354   1.535   6.121  15.427  0.0666  0.2643 -0.3184
14288TIP3    H164355   1.517   6.116  15.521  0.1400 -0.3779 -0.3341
14288TIP3    H264356   1.589   6.044  15.409  0.3229  0.5580 -0.8282
14289TIP3   OH264357   2.310   6.224  11.630  0.0041 -0.3778 -0.1221
14289TIP3    H164358   2.339   6.306  11.590 -0.2439 -0.1981  0.0626
14289TIP3    H264359   2.353   6.156  11.579 -0.5256 -0.1597 -0.8796
14290TIP3   OH264360   2.845   3.013  15.522  0.1258 -0.6904  0.3669
14290TIP3    H164361   2.802   2.945  15.575 -0.0863 -0.0085  1.0840
14290TIP3    H264362   2.858   3.086  15.582  3.9025 -1.4479  0.7399
14291TIP3   OH264363   3.155   4.293   2.405  0.1004 -0.2723  0.8640
14291TIP3    H164364   3.157   4.282   2.310 -0.7544  0.7196  0.7180
14291TIP3    H264365   3.096   4.224   2.436  0.3330 -0.5588  0.6712
14292TIP3   OH264366   6.121   6.134   3.685  0.2867  0.9438 -0.3362
14292TIP3    H164367   6.158   6.089   3.761 -2.0492  1.9628  1.5151
14292TIP3    H264368   6.052   6.075   3.654  1.3145  0.4664 -1.8295
14293TIP3   OH264369   5.059   6.660  15.242  0.6130  0.0639  0.1851
14293TIP3    H164370   5.023   6.715  15.172 -0.4227  1.0367  1.4256
14293TIP3    H264371   5.148   6.693  15.253 -0.1947  2.0418  1.3539
14294TIP3   OH264372   1.928   1.772  15.052 -0.6697 -0.0425  0.0009
14294TIP3    H164373   1.953   1.822  14.974 -0.9545 -0.0177 -0.0759
14294TIP3    H264374   2.002   1.783  15.112 -1.3765  1.7719  0.6196
14295TIP3   OH264375   0.062   5.963  13.441 -0.0970  0.3611  0.3438
14295TIP3    H164376   0.094   6.037  13.493  1.2789 -1.2173  1.8517
14295TIP3    H264377  -0.032   5.980  13.432  0.4770  3.3964 -1.2878
14296TIP3   OH264378   1.234   6.634  12.513 -0.4944  0.4160 -0.2252
14296TIP3    H164379   1.239   6.538  12.507  1.5212  0.3441  1.4066
14296TIP3    H264380   1.215   6.662  12.424  2.1137 -1.3949 -1.4830
14297TIP3   OH264381   6.731   4.966   6.259 -0.0336  0.0156 -0.3166
14297TIP3    H164382   6.637   4.978   6.273 -0.0499  0.0331 -0.4417
14297TIP3    H264383   6.764   5.053   6.239  0.4860  0.5419  2.4144
14298TIP3   OH264384   4.658   0.796   5.198  0.5524  0.0732 -0.6509
14298TIP3    H164385   4.683   0.764   5.284 -0.1828  1.5754  0.1517
14298TIP3    H264386   4.568   0.827   5.208 -0.0083 -0.8721 -2.2859
14299TIP3   OH264387   2.216   4.409  15.941 -0.1928  0.1672  0.0559
14299TIP3    H164388   2.127   4.428  15.912 -0.5168 -0.2964  0.6992
14299TIP3    H264389   2.237   4.479  16.003 -1.5545 -1.6358  2.7675
14300TIP3   OH264390   0.452   6.568  17.094  0.6394 -0.1325  0.2244
14300TIP3    H164391   0.454   6.662  17.079  0.3819 -0.3543 -1.3142
14300TIP3    H264392   0.364   6.550  17.126 -0.0156 -0.1112 -1.4897
14301TIP3   OH264393   1.783   4.548   0.681 -0.1723  0.6366 -0.5317
14301TIP3    H164394   1.869   4.514   0.706  0.0998  1.2072 -0.6699
14301TIP3    H264395   1.764   4.616   0.746 -0.1954  1.0009 -0.9155
14302TIP3   OH264396   4.234   1.215   6.187 -0.5888 -0.4726 -0.1115
14302TIP3    H164397   4.324   1.234   6.211 -0.5557  0.1200 -0.6910
14302TIP3    H264398   4.237   1.197   6.093 -1.1878  0.3631 -0.3035
14303TIP3   OH264399   5.238   1.776  14.925 -0.4884 -0.4482  0.1590
14303TIP3    H164400   5.252   1.760  15.019 -0.2840 -1.2504  0.0007
14303TIP3    H264401   5.320   1.816  14.896 -0.3848 -0.6025  0.2356
14304TIP3   OH264402   2.772   6.415  13.831  0.1707  0.3126  0.3463
14304TIP3    H164403   2.805   6.372  13.911  1.2884  2.5461  1.1781
14304TIP3    H264404   2.804   6.505  13.838 -0.2624  0.7408 -2.3468
14305TIP3   OH264405   3.365   0.728  16.423 -0.0427  0.1349 -0.0461
14305TIP3    H164406   3.348   0.729  16.328  0.3906 -1.3623 -0.1631
14305TIP3    H264407   3.433   0.795  16.436  0.2351  0.0197 -0.8603
14306TIP3   OH264408   5.365   1.089  14.818 -0.4156  0.2466 -0.7121
14306TIP3    H164409   5.286   1.046  14.783 -0.5268  0.4760 -0.7446
14306TIP3    H264410   5.395   1.030  14.887 -1.0485  0.5178 -0.1841
14307TIP3   OH264411   1.400   3.793  15.283  0.1406 -0.2594  0.1769
14307TIP3    H164412   1.383   3.875  15.329 -0.2475 -0.7871  1.0074
14307TIP3    H264413   1.347   3.798  15.204 -0.4260 -0.0019  0.5682
14308TIP3   OH264414   2.087   5.188   2.479 -0.3764  0.0230  0.6106
14308TIP3    H164415   2.174   5.227   2.478 -1.0868  1.6799  1.1583
14308TIP3    H264416   2.050   5.212   2.563 -1.6725  0.0277  0.0648
14309TIP3   OH264417   4.409   1.330   4.989 -0.2974 -0.5802 -0.2994
14309TIP3    H164418   4.379   1.415   5.021  0.0855 -0.9511  1.1102
14309TIP3    H264419   4.432   1.346   4.897  2.4967  1.5671  0.6292
14310TIP3   OH264420   0.659   4.954   5.370  0.0866  0.1714 -0.1990
14310TIP3    H164421   0.598   4.939   5.442  0.1497 -1.0042 -0.3695
14310TIP3    H264422   0.669   4.868   5.329  1.8332  0.3265 -0.1838
14311TIP3   OH264423   4.173   0.544  12.735  0.1533 -0.1010 -0.3102
14311TIP3    H164424   4.135   0.603  12.800 -0.2591  0.2320 -0.8517
14311TIP3    H264425   4.118   0.555  12.657  0.9362 -0.1328 -0.8774
14312TIP3   OH264426   1.498   5.673   1.623 -0.5544  0.0192 -0.2708
14312TIP3    H164427   1.489   5.603   1.559 -0.0272 -0.4485  0.1482
14312TIP3    H264428   1.556   5.737   1.581 -0.8640  0.1023 -0.5711
14313TIP3   OH264429   5.906   3.762  17.178  0.3943  0.2326 -0.0178
14313TIP3    H164430   5.925   3.854  17.196  1.4712 -0.4417  2.8506
14313TIP3    H264431   5.858   3.732  17.256 -1.7332 -1.1956 -1.7533
14314TIP3   OH264432   0.825   3.046   5.052  0.1486 -0.0547 -0.2989
14314TIP3    H164433   0.789   3.056   5.141 -0.5597  0.0287 -0.5887
14314TIP3    H264434   0.817   2.952   5.033 -2.4371  0.2926 -1.3741
14315TIP3   OH264435   5.692   0.079   6.372 -0.9165  0.2039 -0.7198
14315TIP3    H164436   5.774   0.105   6.413 -0.3063 -0.3207 -1.5671
14315TIP3    H264437   5.651   0.020   6.435 -1.1595  1.3052  0.1691
14316TIP3   OH264438   2.713   4.054   2.767 -0.6127  0.1645 -0.0006
14316TIP3    H164439   2.681   4.142   2.747  0.7924  0.5198 -0.8806
14316TIP3    H264440   2.704   4.006   2.685  1.5405  0.4585 -0.4776
14317TIP3   OH264441   1.301   3.818  10.867 -0.2928  0.0740  1.2937
14317TIP3    H164442   1.302   3.834  10.773  2.2986 -2.4289  0.7481
14317TIP3    H264443   1.216   3.778  10.883 -0.4166 -0.3267 -0.1924
14318TIP3   OH264444   5.863   3.985   4.533  0.0383 -0.5735  0.2587
14318TIP3    H164445   5.950   3.972   4.495  0.1356 -0.5467  0.4718
14318TIP3    H264446   5.879   3.995   4.627 -0.0689  0.6212  0.1607
14319TIP3   OH264447   4.857   0.349   2.401 -0.2160  0.3530 -0.8001
14319TIP3    H164448   4.779   0.309   2.440 -0.0762 -0.2990 -1.1704
14319TIP3    H264449   4.886   0.286   2.336  2.0605 -0.5503  0.9772
14320TIP3   OH264450   4.266   0.091   6.201 -0.6945 -0.3173  0.0516
14320TIP3    H164451   4.224   0.005   6.190  1.7794 -1.6486  0.2436
14320TIP3    H264452   4.273   0.126   6.112 -0.4774 -0.9664 -0.1921
14321TIP3   OH264453   6.118   2.106  16.597 -0.4328 -0.4811  0.4240
14321TIP3    H164454   6.194   2.063  16.637 -0.1179  1.2562  1.8463
14321TIP3    H264455   6.046   2.044  16.610  0.3804 -1.4258  0.5830
14322TIP3   OH264456   1.317   5.196  11.005 -0.4256  0.0040  0.6356
14322TIP3    H164457   1.296   5.285  10.975  2.5861  0.3542 -0.8716
14322TIP3    H264458   1.330   5.205  11.100  0.6244  1.4103  0.3937
14323TIP3   OH264459   2.201   1.549  14.267 -0.5927  0.1378  0.1792
14323TIP3    H164460   2.108   1.558  14.250 -0.5540  0.7315  0.2571
14323TIP3    H264461   2.208   1.546  14.362 -0.4124  1.6803  0.2385
14324TIP3   OH264462   2.170   0.978  14.952 -0.4251  0.2450  0.3567
14324TIP3    H164463   2.161   1.033  15.030 -2.1165  3.6064 -1.9790
14324TIP3    H264464   2.080   0.964  14.923  0.1677  2.2789 -2.9239
14325TIP3   OH264465   5.024   0.699   1.846 -0.4623  0.3869 -0.1060
14325TIP3    H164466   4.981   0.736   1.769 -0.2691  1.4908  0.3000
14325TIP3    H264467   5.075   0.772   1.882 -1.6713  0.3115  1.8765
14326TIP3   OH264468   0.774   3.593  13.832 -0.2527 -0.2887  0.3306
14326TIP3    H164469   0.841   3.526  13.822  0.6651  0.6294  0.1689
14326TIP3    H264470   0.691   3.545  13.825  0.3747 -1.3597 -0.0177
14327TIP3   OH264471   4.246   1.112   0.667 -0.1610 -0.4170 -0.8782
14327TIP3    H164472   4.265   1.090   0.758  2.0389 -1.0151 -1.4068
14327TIP3    H264473   4.280   1.202   0.657 -1.2729  0.0158 -0.8905
14328TIP3   OH264474   3.243   0.700   0.818  0.4672 -0.7609 -0.1536
14328TIP3    H164475   3.158   0.687   0.775 -1.0626  1.3208  2.0440
14328TIP3    H264476   3.269   0.612   0.846  0.1377 -1.7494 -2.6163
14329TIP3   OH264477   0.285   1.438  16.198 -0.2577  0.1404  0.5314
14329TIP3    H164478   0.277   1.497  16.273 -0.2640  1.6868 -0.6171
14329TIP3    H264479   0.202   1.447  16.151  0.2692  0.3317 -0.4121
14330TIP3   OH264480   6.040   6.535   4.907 -0.1423 -0.1253  0.3039
14330TIP3    H164481   5.953   6.496   4.908 -0.5973  0.7486 -1.2659
14330TIP3    H264482   6.025   6.627   4.883  1.1386  0.2786  0.9573
14331TIP3   OH264483   1.739   6.592   4.797 -0.1769  0.1335  0.4613
14331TIP3    H164484   1.825   6.573   4.834  0.1565  1.9161  0.6727
14331TIP3    H264485   1.750   6.674   4.749 -1.7828  0.4824  0.6176
14332TIP3   OH264486   4.126   1.558  13.229 -0.0313 -0.6542 -0.4688
14332TIP3    H164487   4.159   1.482  13.277  0.7003  0.2433  0.4779
14332TIP3    H264488   4.170   1.633  13.268 -1.0654  0.3159 -1.0919
14333TIP3   OH264489   5.006   0.082   1.873  0.2018 -0.0007 -0.6793
14333TIP3    H164490   4.917   0.102   1.901  0.6157  0.4510  0.3710
14333TIP3    H264491   4.995   0.029   1.794 -0.9988 -0.2365 -0.3721
14334TIP3   OH264492   1.141   2.642   1.850  0.4843  0.6647  0.1381
14334TIP3    H164493   1.054   2.678   1.864  0.7352  0.4968  2.4944
14334TIP3    H264494   1.126   2.555   1.812 -0.3341  0.9516 -0.1996
14335TIP3   OH264495   6.664   5.251  15.267  0.1057 -0.1786 -0.4803
14335TIP3    H164496   6.730   5.185  15.290 -0.7712 -1.1757 -0.7083
14335TIP3    H264497   6.637   5.227  15.179 -1.5933 -0.7089  0.1392
14336TIP3   OH264498   5.460   5.435  14.930  0.5858 -0.6299 -0.1344
14336TIP3    H164499   5.415   5.374  14.989 -2.2001  0.7837 -0.6166
14336TIP3    H264500   5.473   5.513  14.983  0.8195 -0.3893 -0.5433
14337TIP3   OH264501   4.967   1.210   5.087  0.5052 -0.3100  0.2356
14337TIP3    H164502   4.881   1.176   5.063 -0.7010  2.4436  0.2980
14337TIP3    H264503   4.980   1.183   5.178 -0.6851 -0.0330  0.4935
14338TIP3   OH264504   5.272   3.130   4.394  0.1991 -0.4276 -0.3469
14338TIP3    H164505   5.263   3.065   4.325  1.7535 -0.7732 -0.2746
14338TIP3    H264506   5.207   3.105   4.460  0.6858 -1.8528 -0.3776
14339TIP3   OH264507   4.843   3.862   0.291  0.2106 -0.0385  0.0376
14339TIP3    H164508   4.849   3.787   0.231  1.4803  0.1608 -0.1126
14339TIP3    H264509   4.870   3.937   0.238 -0.3405  0.4260  0.3962
14340TIP3   OH264510   3.844   3.588   2.428 -0.3426  0.1269 -0.3586
14340TIP3    H164511   3.851   3.549   2.340 -1.4060 -2.6040  0.6463
14340TIP3    H264512   3.761   3.556   2.462  0.2814  0.6615  1.8512
14341TIP3   OH264513   5.676   4.661   5.080 -0.0266  0.1029  0.2259
14341TIP3    H164514   5.634   4.606   5.013  0.2016  0.1497  0.0422
14341TIP3    H264515   5.613   4.664   5.152 -0.3585  0.2120 -0.0675
14342TIP3   OH264516   3.233   5.695  13.818  0.1767 -0.2786  0.5038
14342TIP3    H164517   3.283   5.771  13.788 -0.6151 -0.3945 -1.2406
14342TIP3    H264518   3.144   5.728  13.829  0.1566 -0.5931  1.3850
14343TIP3   OH264519   2.036   2.648  12.279  0.3111 -0.7360 -0.5803
14343TIP3    H164520   2.072   2.592  12.211  0.3898 -0.2167 -0.9737
14343TIP3    H264521   2.109   2.705  12.305 -0.1494  0.2010 -1.2571
14344TIP3   OH264522   5.690   5.027  11.534  0.0558 -0.0788  0.4586
14344TIP3    H164523   5.642   5.100  11.493  0.7884 -0.0686 -0.4022
14344TIP3    H264524   5.760   5.007  11.473  0.2758 -1.0714  1.0166
14345TIP3   OH264525   0.389   2.305   5.730 -0.1985 -0.2829 -0.1986
14345TIP3    H164526   0.294   2.322   5.730 -0.1604 -0.0483  0.5887
14345TIP3    H264527   0.396   2.214   5.760 -0.1314  0.0184  0.7336
14346TIP3   OH264528   6.436   2.617  16.221  0.0819  0.2853 -0.0309
14346TIP3    H164529   6.360   2.563  16.203 -0.5100  0.0592  2.7465
14346TIP3    H264530   6.482   2.571  16.292  1.1401  1.9305  0.4030
14347TIP3   OH264531   3.297   0.668  15.393 -0.2013 -0.1700 -0.3539
14347TIP3    H164532   3.299   0.763  15.405  0.2421 -0.2743  0.4569
14347TIP3    H264533   3.340   0.633  15.471  1.3186 -0.9765 -1.4974
14348TIP3   OH264534   4.364   3.027  11.184  0.2075 -0.2271 -0.0259
14348TIP3    H164535   4.445   2.977  11.190  0.3913  0.1609  1.0546
14348TIP3    H264536   4.342   3.047  11.275 -1.2042 -0.4806 -0.2815
14349TIP3   OH264537   3.016   0.163  11.590  0.1572  0.7055  0.4913
14349TIP3    H164538   3.079   0.234  11.586 -2.0016  2.6981 -0.1635
14349TIP3    H264539   3.024   0.119  11.505  1.4045  0.1818  0.8525
14350TIP3   OH264540   5.858   6.106   0.963  0.1011  0.2792 -0.3567
14350TIP3    H164541   5.894   6.059   0.888  0.5110 -1.0503  0.6413
14350TIP3    H264542   5.905   6.189   0.964  0.4583  0.1004 -1.2551
14351TIP3   OH264543   3.981   5.371  14.281  0.3045  0.0909 -0.5005
14351TIP3    H164544   3.996   5.436  14.349 -2.6046 -1.6858  2.0746
14351TIP3    H264545   4.016   5.290  14.317 -0.9460 -0.8180 -1.2800
14352TIP3   OH264546   6.521   6.588   6.212  0.3979  0.0757  0.5486
14352TIP3    H164547   6.475   6.557   6.290  2.1756 -0.5089  1.4209
14352TIP3    H264548   6.466   6.560   6.139  0.4991 -2.7214  1.4191
14353TIP3   OH264549   1.131   2.514  12.370  0.5044 -0.8181 -0.4554
14353TIP3    H164550   1.096   2.510  12.459  1.9107  2.1332  0.3480
14353TIP3    H264551   1.210   2.461  12.373  1.5508  0.7106  0.6695
14354TIP3   OH264552   5.838   4.174  16.220  0.0622  0.3338  0.2332
14354TIP3    H164553   5.886   4.234  16.163  0.3745 -1.5047 -1.5593
14354TIP3    H264554   5.852   4.208  16.308  0.4603  2.6797 -0.6667
14355TIP3   OH264555   3.216   1.552  12.222 -0.7722 -0.5692  0.2125
14355TIP3    H164556   3.300   1.508  12.213  0.1822  0.7368  2.0267
14355TIP3    H264557   3.152   1.481  12.229  0.3819 -1.6186  0.4539
14356TIP3   OH264558   4.430   0.705  16.542  0.2429 -0.5847  0.0008
14356TIP3    H164559   4.350   0.707  16.490 -0.2527  0.2766  0.7528
14356TIP3    H264560   4.407   0.652  16.618 -0.2264  1.1054  1.1000
14357TIP3   OH264561   2.018   4.719   6.197  0.2853 -0.1070  0.3678
14357TIP3    H164562   1.962   4.649   6.230 -1.0853  0.6433 -0.3109
14357TIP3    H264563   2.107   4.684   6.207 -0.2799 -1.3762  1.3328
14358TIP3   OH264564   1.153   4.650  10.303  0.1854 -0.3977  0.0554
14358TIP3    H164565   1.093   4.625  10.233  1.2606 -1.2710 -0.5903
14358TIP3    H264566   1.231   4.595  10.289  1.0481  0.5308  0.9922
14359TIP3   OH264567   6.196   0.821  14.822 -0.2244  0.1449 -0.4452
14359TIP3    H164568   6.254   0.806  14.897 -4.1417 -1.0665  2.7429
14359TIP3    H264569   6.177   0.733  14.789  0.7017  0.6104 -2.3373
14360TIP3   OH264570   5.546   5.156  10.346 -0.1212  0.3082 -0.2342
14360TIP3    H164571   5.600   5.087  10.310  0.3315 -0.3028  1.4955
14360TIP3    H264572   5.469   5.110  10.382 -1.1767  1.0201 -1.4946
14361TIP3   OH264573   0.095   2.610  16.446  0.5267  0.7529 -0.0412
14361TIP3    H164574   0.061   2.658  16.522  0.6470 -1.2838  1.3661
14361TIP3    H264575   0.056   2.523  16.454  1.6195  0.0981 -1.5856
14362TIP3   OH264576   1.712   1.845  13.295 -0.1002  0.0443 -0.2890
14362TIP3    H164577   1.676   1.875  13.212 -0.3624  0.1049 -0.1543
14362TIP3    H264578   1.705   1.750  13.291 -0.2571  0.0554 -0.2708
14363TIP3   OH264579   0.733   3.450   4.883  0.4635 -0.9523  0.1979
14363TIP3    H164580   0.698   3.503   4.954  0.9214 -2.1908  1.3882
14363TIP3    H264581   0.828   3.458   4.891  0.5761  0.8556 -1.8375
14364TIP3   OH264582   0.904   2.350   0.337  0.2493 -0.6198 -0.2107
14364TIP3    H164583   0.847   2.354   0.413  1.1767  3.7651  0.5594
14364TIP3    H264584   0.988   2.318   0.371  0.0366 -0.8227  0.1225
14365TIP3   OH264585   2.082   2.287  13.146  0.5523  0.1819 -0.3509
14365TIP3    H164586   1.994   2.317  13.168 -0.5793 -2.4751 -0.8373
14365TIP3    H264587   2.123   2.269  13.230 -0.6601 -1.7296 -0.0820
14366TIP3   OH264588   5.830   3.533   3.601  0.3605  0.3982 -0.0198
14366TIP3    H164589   5.889   3.590   3.650  1.2605 -0.4942 -0.0404
14366TIP3    H264590   5.790   3.591   3.536 -0.0728  1.3724  1.0645
14367TIP3   OH264591   6.047   4.390  14.103  0.3114  0.0566  0.2496
14367TIP3    H164592   5.963   4.436  14.106  0.7659  0.9191  0.2725
14367TIP3    H264593   6.031   4.313  14.050  0.0271  1.3721 -1.6849
14368TIP3   OH264594   1.998   6.386  13.040  0.3851 -0.0849 -0.2789
14368TIP3    H164595   1.919   6.433  13.064  0.8809  0.0227  1.3008
14368TIP3    H264596   2.006   6.397  12.945 -0.4927  1.4517 -0.2034
14369TIP3   OH264597   3.627   5.552  12.491  0.2031  0.2122  0.2582
14369TIP3    H164598   3.602   5.507  12.572  2.4858 -1.5772  0.0474
14369TIP3    H264599   3.692   5.616  12.518 -1.0768  1.6264  0.1591
14370TIP3   OH264600   1.191   5.021   5.272  0.1126  0.2550 -0.1866
14370TIP3    H164601   1.259   5.055   5.330  0.4384 -0.2920 -0.2392
14370TIP3    H264602   1.172   5.093   5.212  0.2972  0.5782  0.1405
14371TIP3   OH264603   5.698   5.135  12.567 -0.5666  0.6569  0.2227
14371TIP3    H164604   5.664   5.194  12.635 -1.6573 -0.1098  0.3809
14371TIP3    H264605   5.622   5.082  12.542 -0.0030  0.4220 -1.0773
14372TIP3   OH264606   6.417   1.607  10.992  0.1327  0.2774 -0.0356
14372TIP3    H164607   6.411   1.663  11.069 -2.3290 -1.7947  1.4316
14372TIP3    H264608   6.364   1.651  10.926  2.0336  1.9231 -0.5794
14373TIP3   OH264609   6.056   0.361  14.328 -0.4335 -0.2586  0.1434
14373TIP3    H164610   6.125   0.294  14.326 -1.1541 -1.0500 -2.1706
14373TIP3    H264611   6.103   0.443  14.341  0.5885 -1.0598  1.8909
14374TIP3   OH264612   3.684   5.888  17.019  0.3853  0.0169  0.3163
14374TIP3    H164613   3.687   5.793  17.012 -1.0042 -0.0979  1.0238
14374TIP3    H264614   3.730   5.908  17.101  2.7729  0.1816 -0.9652
14375TIP3   OH264615   2.271   6.764   2.847 -0.2496 -0.0076  0.0956
14375TIP3    H164616   2.281   6.822   2.771 -1.3779  0.0827 -0.0004
14375TIP3    H264617   2.213   6.812   2.905  1.0671  0.1866  1.3087
14376TIP3   OH264618   4.788   5.916  16.537 -0.2857  0.6745  0.3790
14376TIP3    H164619   4.825   5.838  16.578  0.0663  0.3663 -0.5127
14376TIP3    H264620   4.864   5.965  16.506 -0.5722  0.4542 -0.7120
14377TIP3   OH264621   3.157   1.450  10.327 -0.2914  0.0683 -0.0382
14377TIP3    H164622   3.218   1.385  10.292 -0.8213 -0.6636  0.3839
14377TIP3    H264623   3.214   1.519  10.362  0.2641  0.6990 -2.0455
14378TIP3   OH264624   3.432   3.971   5.202 -0.0464  0.0444  0.0157
14378TIP3    H164625   3.493   3.994   5.133 -0.6300 -0.6566 -0.7531
14378TIP3    H264626   3.431   3.875   5.203  0.2985  0.0340  1.3136
14379TIP3   OH264627   2.385   0.585   3.670 -0.4500 -0.1975 -0.0590
14379TIP3    H164628   2.315   0.553   3.613  0.4532  0.1916 -1.4396
14379TIP3    H264629   2.367   0.678   3.680 -0.8628 -0.3500  0.6941
14380TIP3   OH264630   0.856   0.620   4.674 -0.0965 -0.2970  0.8334
14380TIP3    H164631   0.913   0.622   4.598 -0.9118  0.5432  0.2242
14380TIP3    H264632   0.900   0.674   4.739  0.4866 -0.8251  0.8876
14381TIP3   OH264633   1.533   4.870   1.205 -0.1494 -0.3732  0.4281
14381TIP3    H164634   1.513   4.827   1.288  2.0111 -0.5413  0.9289
14381TIP3    H264635   1.613   4.920   1.223 -0.7732  1.2369 -1.0249
14382TIP3   OH264636   6.649   2.933  14.330 -0.1856 -0.1086  0.3487
14382TIP3    H164637   6.662   2.867  14.398  2.7745 -1.0892 -0.9959
14382TIP3    H264638   6.707   3.005  14.354 -1.0562  0.6824  0.1636
14383TIP3   OH264639   1.084   4.591   3.431 -0.3535 -0.2596 -0.3136
14383TIP3    H164640   1.073   4.659   3.365  0.7978  1.5697  1.2847
14383TIP3    H264641   1.178   4.574   3.433 -0.5778 -1.7227 -0.4457
14384TIP3   OH264642   5.330   4.038   4.541  0.9746  0.5198 -0.9675
14384TIP3    H164643   5.240   4.012   4.560  0.7981  0.7264 -1.4875
14384TIP3    H264644   5.353   4.098   4.612 -0.5361  3.2476 -2.6222
14385TIP3   OH264645   1.901   5.362  13.246 -0.1224  0.3230  0.1481
14385TIP3    H164646   1.913   5.424  13.175 -1.6313 -1.6670 -1.9941
14385TIP3    H264647   1.807   5.366  13.266  0.2957  0.9669  2.2066
14386TIP3   OH264648   0.684   5.461   5.826  0.7955 -0.5607  0.5874
14386TIP3    H164649   0.627   5.384   5.826 -0.4304  0.3056 -0.6881
14386TIP3    H264650   0.735   5.454   5.746  1.0983 -0.3302  0.7576
14387TIP3   OH264651   1.496   5.535   6.223  0.5106 -0.1250 -0.3858
14387TIP3    H164652   1.571   5.588   6.198  0.9538 -0.5179  0.0850
14387TIP3    H264653   1.490   5.547   6.318 -0.6935  0.7690 -0.5419
14388TIP3   OH264654   2.394   0.730   5.458 -0.1989 -0.2734 -0.4283
14388TIP3    H164655   2.422   0.644   5.427 -1.2170 -0.6806 -0.2362
14388TIP3    H264656   2.309   0.744   5.418  0.4990  1.2112 -1.4729
14389TIP3   OH264657   3.409   6.558  12.129  0.1657 -0.1278  0.4607
14389TIP3    H164658   3.391   6.640  12.084 -0.9783 -0.6840 -0.1483
14389TIP3    H264659   3.322   6.523  12.151  0.6660 -0.5947  1.7718
14390TIP3   OH264660   6.440   3.051  13.101  0.8910  0.4446  0.4432
14390TIP3    H164661   6.390   3.017  13.175 -1.7826  0.8290 -1.0605
14390TIP3    H264662   6.445   3.145  13.116  1.1261  0.4189  0.5408
14391TIP3   OH264663   3.451   5.849  13.750 -0.3622  0.2572 -0.0121
14391TIP3    H164664   3.421   5.940  13.755  0.6521  0.6513 -0.8861
14391TIP3    H264665   3.475   5.836  13.658  1.2550 -0.3222  0.4610
14392TIP3   OH264666   4.253   4.569   1.764 -0.4796  0.0298 -0.4215
14392TIP3    H164667   4.252   4.530   1.677 -1.5682 -1.3804  0.1754
14392TIP3    H264668   4.161   4.591   1.781 -0.4562 -0.6829  0.7484
14393TIP3   OH264669   6.587   1.573  15.645 -0.5753  0.0191  0.2634
14393TIP3    H164670   6.492   1.579  15.635 -0.6431 -0.2851  0.7202
14393TIP3    H264671   6.617   1.530  15.565 -0.7972  0.3295  0.0126
14394TIP3   OH264672   1.163   2.787  15.641  0.3945  0.0513  0.2497
14394TIP3    H164673   1.255   2.773  15.619  0.5717  2.3044 -0.7075
14394TIP3    H264674   1.164   2.853  15.710 -0.4557 -2.2079  2.6114
14395TIP3   OH264675   1.461   3.654   5.905  0.0830 -0.0601  0.0143
14395TIP3    H164676   1.423   3.568   5.888 -1.1806  0.2534  1.0912
14395TIP3    H264677   1.471   3.694   5.818  1.7095 -1.6774 -0.5975
14396TIP3   OH264678   3.125   3.976   6.075 -0.9107 -0.0404 -0.3702
14396TIP3    H164679   3.047   3.958   6.023 -0.6378  0.4050 -0.9453
14396TIP3    H264680   3.134   3.899   6.132 -0.2465 -1.3903 -2.1908
14397TIP3   OH264681   2.812   0.560   4.228 -0.6139  0.6337  0.1402
14397TIP3    H164682   2.813   0.476   4.272 -0.2081 -0.7385 -2.3265
14397TIP3    H264683   2.904   0.582   4.214 -0.6974 -0.4308 -2.5336
14398TIP3   OH264684   6.625   0.329  14.651 -0.1631  0.9742 -0.1090
14398TIP3    H164685   6.653   0.271  14.579 -0.0240  0.7522  0.1237
14398TIP3    H264686   6.598   0.410  14.607 -0.2586  0.7707 -0.4278
14399TIP3   OH264687   3.477   3.426   1.921  0.3509 -0.2538 -0.3671
14399TIP3    H164688   3.546   3.361   1.933 -0.7366 -1.2841  0.5539
14399TIP3    H264689   3.523   3.504   1.890  1.8904 -0.9738 -0.0013
14400TIP3   OH264690   0.522   5.450   2.437  0.0548 -0.2084  0.4316
14400TIP3    H164691   0.500   5.450   2.531  0.5150  0.0823  0.5386
14400TIP3    H264692   0.522   5.543   2.412 -0.0985 -0.2866  0.1332
14401TIP3   OH264693   1.952   3.478   1.782 -0.4367  0.0293  0.3297
14401TIP3    H164694   1.857   3.489   1.783 -0.3607  1.4951 -1.4885
14401TIP3    H264695   1.983   3.551   1.727  1.8333  0.2282  1.7640
14402TIP3   OH264696   3.722   1.151   0.573  0.0951 -0.0080  0.4329
14402TIP3    H164697   3.712   1.204   0.494 -0.2284  1.0392  1.1566
14402TIP3    H264698   3.783   1.081   0.548  1.0351  1.0698 -0.3587
14403TIP3   OH264699   2.085   0.808   4.499 -0.5937 -0.0466 -0.2868
14403TIP3    H164700   2.028   0.736   4.527 -0.3593  0.6254  2.1306
14403TIP3    H264701   2.095   0.863   4.577  1.8520  0.8827 -1.1472
14404TIP3   OH264702   4.062   4.434   5.124  0.0985  0.2428  0.3934
14404TIP3    H164703   3.986   4.416   5.069 -0.9478  0.3713  1.7493
14404TIP3    H264704   4.033   4.502   5.184  1.0043 -0.3156  1.5099
14405TIP3   OH264705   0.604   3.027   4.331  0.2820 -0.0517  0.2291
14405TIP3    H164706   0.554   2.970   4.273 -0.5552  1.1890 -0.3166
14405TIP3    H264707   0.657   3.080   4.272  1.6580 -0.7736  0.7654
14406TIP3   OH264708   4.544   1.779   0.266 -0.6231  0.3955 -0.6216
14406TIP3    H164709   4.630   1.775   0.224  0.5541 -2.7866  1.6410
14406TIP3    H264710   4.546   1.860   0.317  1.3719  0.0932 -0.0977
14407TIP3   OH264711   0.345   0.333  14.890 -0.0096  0.1495  0.4335
14407TIP3    H164712   0.268   0.374  14.852  0.9090  0.4477 -1.2111
14407TIP3    H264713   0.415   0.397  14.879  0.4988 -0.0821  1.9491
14408TIP3   OH264714   4.426   5.841  14.523  0.5483  0.0881  0.4515
14408TIP3    H164715   4.497   5.847  14.458  0.0879  2.3660  0.0900
14408TIP3    H264716   4.346   5.844  14.471  0.1777  0.2883  1.0286
14409TIP3   OH264717   1.949   1.890  14.803  0.1173  0.2172 -0.2639
14409TIP3    H164718   1.899   1.971  14.814  0.4753  0.6398 -1.5546
14409TIP3    H264719   1.952   1.876  14.708 -0.7807 -1.8673 -0.0339
14410TIP3   OH264720   2.139   0.410  15.401  0.1428  0.2674 -0.3653
14410TIP3    H164721   2.145   0.469  15.476 -1.0116  0.7106 -0.6003
14410TIP3    H264722   2.216   0.429  15.348 -1.0022  2.7825 -1.2733
14411TIP3   OH264723   3.196   6.604   5.414 -0.6180  0.7127  0.4477
14411TIP3    H164724   3.227   6.527   5.462 -0.9876  0.8152  0.8568
14411TIP3    H264725   3.244   6.678   5.454 -0.7580  0.7714  0.5063
14412TIP3   OH264726   1.705   4.746  16.785 -0.1700  0.4529 -0.1832
14412TIP3    H164727   1.704   4.796  16.704  2.5170 -0.5515 -0.9232
14412TIP3    H264728   1.769   4.791  16.840  0.5423 -0.7877  0.0428
14413TIP3   OH264729   4.879   1.487   3.934  0.6690 -0.0373 -0.2935
14413TIP3    H164730   4.928   1.506   4.014  0.4385 -0.1229 -0.1314
14413TIP3    H264731   4.942   1.501   3.863  0.9197 -0.1212 -0.0867
14414TIP3   OH264732   3.174   5.976  17.180  0.0977 -0.0515 -0.1098
14414TIP3    H164733   3.146   5.938  17.263 -1.5592  0.1290 -0.5435
14414TIP3    H264734   3.225   5.907  17.138 -0.4654 -0.7641  0.3565
14415TIP3   OH264735   3.643   2.424   1.682  0.0376 -0.6327  0.4111
14415TIP3    H164736   3.557   2.392   1.654  0.7901 -1.7257 -0.7416
14415TIP3    H264737   3.691   2.439   1.600  1.0194 -0.2443  1.0370
14416TIP3   OH264738   3.819   3.452  12.101 -0.2152  0.4023 -0.0247
14416TIP3    H164739   3.788   3.370  12.139  0.3113  0.3062  0.1988
14416TIP3    H264740   3.747   3.514  12.117 -0.8001 -0.1200 -0.5905
14417TIP3   OH264741   2.496   3.326   5.532 -0.0186  0.2620 -0.0621
14417TIP3    H164742   2.528   3.346   5.620  0.9253  1.1727 -0.5926
14417TIP3    H264743   2.459   3.408   5.500  1.1397  0.3954 -1.1282
14418TIP3   OH264744   2.749   5.128   3.962  0.4135 -0.6406  0.2963
14418TIP3    H164745   2.719   5.043   3.994  0.6761 -0.9827 -0.3570
14418TIP3    H264746   2.677   5.159   3.906  0.0213 -0.1130  1.0764
14419TIP3   OH264747   1.008   0.809   0.316  0.3930 -0.5064  0.0403
14419TIP3    H164748   1.024   0.714   0.312 -0.5020 -0.6482 -0.5014
14419TIP3    H264749   0.913   0.817   0.318  0.4428  0.4003 -0.5554
14420TIP3   OH264750   5.851   5.691   5.111 -0.0851 -0.0772 -0.0738
14420TIP3    H164751   5.803   5.757   5.062  2.2224  1.6705 -0.1264
14420TIP3    H264752   5.909   5.740   5.169  1.8082 -2.0129 -0.1814
14421TIP3   OH264753   0.582   6.315  13.814  0.9130 -0.6055 -0.0929
14421TIP3    H164754   0.637   6.331  13.892  0.4687 -2.0249  0.5321
14421TIP3    H264755   0.493   6.311  13.848  0.6963 -1.0865 -0.7097
14422TIP3   OH264756   5.795   6.748   1.376 -0.1430 -0.1616  0.1590
14422TIP3    H164757   5.772   6.814   1.441 -1.8175 -1.5261  1.0402
14422TIP3    H264758   5.847   6.684   1.424  1.9226  0.7034 -0.8137
14423TIP3   OH264759   2.637   4.989  10.907 -0.1719 -0.8881  0.1991
14423TIP3    H164760   2.712   4.930  10.916  0.2838 -0.4056 -0.3513
14423TIP3    H264761   2.561   4.931  10.900  0.4211 -1.5034 -1.9311
14424TIP3   OH264762   2.535   6.203  15.904  0.1344  0.3654  0.3457
14424TIP3    H164763   2.504   6.282  15.859  1.6265  0.4792 -0.5544
14424TIP3    H264764   2.503   6.131  15.851  1.0415  0.4707 -0.3697
14425TIP3   OH264765   1.193   1.996   3.237  0.1546 -0.0129  0.1105
14425TIP3    H164766   1.230   2.004   3.149  0.3396 -0.8369  0.0997
14425TIP3    H264767   1.099   1.990   3.224  0.2721 -1.8760 -0.1984
14426TIP3   OH264768   1.367   0.470  16.609  0.0957 -0.0509  0.1542
14426TIP3    H164769   1.396   0.392  16.657  2.5362 -0.3949 -1.7073
14426TIP3    H264770   1.299   0.438  16.549 -1.3779 -0.0201  1.7238
14427TIP3   OH264771   1.427   4.529  15.942 -0.1246  0.3321  0.1881
14427TIP3    H164772   1.463   4.446  15.910  0.2322  1.0873 -1.4859
14427TIP3    H264773   1.334   4.526  15.920  0.1675  0.9539 -1.2412
14428TIP3   OH264774   5.496   3.000  16.635 -0.6304 -0.7800  0.5059
14428TIP3    H164775   5.483   2.981  16.543  0.1490 -2.3439  0.6770
14428TIP3    H264776   5.472   2.918  16.680  0.5480 -0.5964  1.5290
14429TIP3   OH264777   6.778   5.659   4.020  0.4655 -0.2898 -0.0314
14429TIP3    H164778   6.698   5.654   4.072  0.5273  0.3875  0.1451
14429TIP3    H264779   6.758   5.723   3.951  0.7642 -0.3168 -0.1457
14430TIP3   OH264780   5.755   6.260   1.765 -0.6743 -0.6251  0.2315
14430TIP3    H164781   5.731   6.244   1.674 -4.5431 -0.8842  1.1607
14430TIP3    H264782   5.800   6.180   1.793 -1.2398 -1.3529 -0.9076
14431TIP3   OH264783   3.868   2.652   5.524 -0.0542  0.3236 -0.4392
14431TIP3    H164784   3.886   2.631   5.433  0.1853  3.0271 -1.0816
14431TIP3    H264785   3.868   2.567   5.568 -1.8479 -1.2621 -3.1826
14432TIP3   OH264786   6.119   3.851   2.142  0.5793 -0.0155 -0.5394
14432TIP3    H164787   6.029   3.845   2.111 -0.2437  1.6798  1.3058
14432TIP3    H264788   6.162   3.772   2.109 -1.5406 -0.8041 -1.5445
14433TIP3   OH264789   0.322   4.918  14.487  0.0498  0.1317 -0.6473
14433TIP3    H164790   0.242   4.946  14.532  0.4793  2.1940 -1.0572
14433TIP3    H264791   0.391   4.973  14.524  1.1378 -0.9537 -0.9725
14434TIP3   OH264792   5.129   2.573  14.575  0.3372  0.2633  0.4446
14434TIP3    H164793   5.179   2.498  14.544  1.0455  0.9722 -0.1530
14434TIP3    H264794   5.075   2.599  14.500 -0.1726  0.1382  0.7624
14435TIP3   OH264795   4.741   5.124  14.072 -0.3473 -0.4813 -0.1199
14435TIP3    H164796   4.648   5.104  14.061 -0.2321 -0.5118 -1.1631
14435TIP3    H264797   4.781   5.096  13.989  0.6346 -0.7322  0.4224
14436TIP3   OH264798   6.295   2.097  12.139 -0.6749  0.0973 -0.0631
14436TIP3    H164799   6.284   2.014  12.186 -2.2290 -0.6860 -1.6681
14436TIP3    H264800   6.386   2.096  12.110  0.0317  0.1427  1.9911
14437TIP3   OH264801   6.370   5.800   2.336  0.1623  0.3868  0.0762
14437TIP3    H164802   6.410   5.729   2.286  0.8707 -0.3529  1.6143
14437TIP3    H264803   6.281   5.770   2.354  0.1404  0.3341 -0.1205
14438TIP3   OH264804   1.399   3.184   0.442 -0.1041  0.2386 -0.6311
14438TIP3    H164805   1.434   3.256   0.388 -0.1974  0.8256  0.0856
14438TIP3    H264806   1.465   3.115   0.434  0.6398  0.8947 -0.2614
14439TIP3   OH264807   3.069   0.309  16.648  0.5289  0.3753 -0.3818
14439TIP3    H164808   2.989   0.263  16.670  0.8997 -0.1861 -0.1968
14439TIP3    H264809   3.139   0.257  16.687  0.8730  1.7712  0.9785
14440TIP3   OH264810   1.329   5.609  10.540 -0.2417  0.0487 -0.2467
14440TIP3    H164811   1.317   5.657  10.459 -0.2744  0.8823  0.2393
14440TIP3    H264812   1.256   5.548  10.543 -0.7038  0.5815 -0.4501
14441TIP3   OH264813   1.297   0.152   6.037 -0.2472  0.5971  0.3538
14441TIP3    H164814   1.321   0.118   6.123 -1.4433 -0.3984  0.3184
14441TIP3    H264815   1.356   0.107   5.976  0.5446  1.2423  0.6089
14442TIP3   OH264816   5.567   2.544  16.349 -0.0446 -0.4369  0.1325
14442TIP3    H164817   5.521   2.628  16.356 -1.3116 -1.0909  0.0320
14442TIP3    H264818   5.502   2.479  16.376  1.4333 -1.2831  1.8756
14443TIP3   OH264819   1.511   3.547   6.171  0.3064 -0.6572  0.0429
14443TIP3    H164820   1.502   3.607   6.097  3.0719  0.2588  0.3200
14443TIP3    H264821   1.571   3.480   6.140  0.3062 -1.0983  0.9670
14444TIP3   OH264822   5.668   5.434   1.142  0.0785 -0.5888  0.8461
14444TIP3    H164823   5.590   5.472   1.180 -0.1903 -0.0024 -0.2539
14444TIP3    H264824   5.686   5.487   1.064  0.1576 -2.1878 -0.2917
14445TIP3   OH264825   2.565   3.284  12.249  0.1228  0.6770 -0.6564
14445TIP3    H164826   2.601   3.206  12.293 -2.8066 -1.4274 -1.7044
14445TIP3    H264827   2.630   3.305  12.181  0.5935 -1.4459 -0.9421
14446TIP3   OH264828   1.461   4.943  11.495  0.3625  0.7898 -1.0369
14446TIP3    H164829   1.434   4.877  11.431  0.8151 -0.1866 -0.2335
14446TIP3    H264830   1.556   4.935  11.499  0.2050 -0.5514  1.2056
14447TIP3   OH264831   1.237   4.465  15.581 -0.2958  0.4834  0.2113
14447TIP3    H164832   1.313   4.478  15.524 -0.3239  1.3391  0.3538
14447TIP3    H264833   1.170   4.426  15.525  0.0104  0.3869 -0.0902
14448TIP3   OH264834   2.730   0.333   0.880 -0.6137 -0.2753  0.0495
14448TIP3    H164835   2.713   0.391   0.954 -1.3937 -0.3257 -0.0919
14448TIP3    H264836   2.758   0.250   0.922 -0.6286 -0.1695  0.2713
14449TIP3   OH264837   3.083   1.425   1.949 -0.1936 -0.1259 -0.5587
14449TIP3    H164838   3.163   1.401   1.996  0.7986  1.5981 -1.3030
14449TIP3    H264839   3.059   1.345   1.902 -0.7410 -1.6612  2.0713
14450TIP3   OH264840   4.642   4.456   3.270  0.4192 -0.1013 -0.2105
14450TIP3    H164841   4.701   4.408   3.213  0.7663 -0.8169  0.7375
14450TIP3    H264842   4.569   4.396   3.285 -0.2066  0.4986 -0.7722
14451TIP3   OH264843   6.460   0.872  14.735  0.6354 -0.2942  0.2163
14451TIP3    H164844   6.368   0.847  14.739  0.6448 -0.2802  0.4954
14451TIP3    H264845   6.488   0.847  14.646  0.3843 -0.3659  0.1579
14452TIP3   OH264846   4.628   2.654   2.131 -0.1865 -0.1155  0.0782
14452TIP3    H164847   4.627   2.749   2.136  0.8701  0.0013 -1.3126
14452TIP3    H264848   4.606   2.634   2.040 -0.2054 -1.1966  0.2999
14453TIP3   OH264849   3.854   6.488  15.183 -0.2246  0.4760 -0.1437
14453TIP3    H164850   3.822   6.431  15.253 -1.8219 -0.7593 -1.7819
14453TIP3    H264851   3.950   6.488  15.194 -0.4389  0.6987  2.2547
14454TIP3   OH264852   2.472   4.305   4.478 -0.2822  0.1646  0.4507
14454TIP3    H164853   2.500   4.356   4.403  0.7695 -0.1160  0.6425
14454TIP3    H264854   2.468   4.368   4.550 -0.8824  0.3478  0.2662
14455TIP3   OH264855   1.474   4.393   0.901  0.5569 -0.2429 -0.1750
14455TIP3    H164856   1.403   4.415   0.842  1.0979 -0.3600 -0.8833
14455TIP3    H264857   1.544   4.455   0.879  0.7444 -0.2510  0.3769
14456TIP3   OH264858   1.078   2.776  12.306 -0.3671 -0.1133  0.3055
14456TIP3    H164859   1.007   2.792  12.367 -0.8850 -1.0751 -0.0263
14456TIP3    H264860   1.118   2.694  12.336  2.3895  1.7155  2.1311
14457TIP3   OH264861   1.799   4.265   0.690 -0.5502  0.3324 -0.3741
14457TIP3    H164862   1.751   4.347   0.703  0.5282  0.9792 -0.3291
14457TIP3    H264863   1.891   4.291   0.687 -0.2163 -0.8214 -0.8838
14458TIP3   OH264864   4.365   3.335  16.377 -0.2349 -0.3218 -0.5654
14458TIP3    H164865   4.362   3.262  16.439  1.2637  1.3037  1.5599
14458TIP3    H264866   4.445   3.383  16.400 -1.8244  2.7516 -0.9461
14459TIP3   OH264867   3.292   5.010  13.340  0.1165 -0.0633  0.0212
14459TIP3    H164868   3.299   5.002  13.435  0.0774  0.8396  0.1133
14459TIP3    H264869   3.199   5.030  13.324  0.3530  1.0455 -0.0831
14460TIP3   OH264870   2.735   5.436   2.871 -0.6823  0.3523 -0.1766
14460TIP3    H164871   2.762   5.518   2.912  0.1892 -0.2288  0.4667
14460TIP3    H264872   2.778   5.436   2.786 -1.3783  0.9418 -0.5357
14461TIP3   OH264873   0.953   0.210  14.165 -0.4573 -0.5528 -0.2415
14461TIP3    H164874   0.907   0.130  14.187 -1.6534  0.2567  0.3145
14461TIP3    H264875   0.934   0.224  14.072 -1.1666 -0.3586 -0.0780
14462TIP3   OH264876   1.769   5.000   0.921  0.7871 -0.3007  0.1600
14462TIP3    H164877   1.847   5.054   0.932 -0.1524  1.2819 -0.5772
14462TIP3    H264878   1.709   5.054   0.869 -0.3162 -1.9637 -0.3859
14463TIP3   OH264879   3.592   5.605  14.815 -0.4451 -0.6480 -0.1324
14463TIP3    H164880   3.544   5.680  14.780  1.5259 -0.0340 -1.6759
14463TIP3    H264881   3.658   5.644  14.873  0.8796 -1.1058 -1.2852
14464TIP3   OH264882   1.568   3.372  15.614  0.4354 -0.1338 -0.2964
14464TIP3    H164883   1.524   3.453  15.640 -0.8137 -0.7926 -0.2745
14464TIP3    H264884   1.497   3.309  15.603  1.4751 -1.5654  0.8635
14465TIP3   OH264885   3.199   1.712   0.445 -0.2866  0.0807  0.3978
14465TIP3    H164886   3.151   1.758   0.514 -0.5418  0.8410 -0.2795
14465TIP3    H264887   3.152   1.733   0.364  0.5817  0.0027 -0.1456
14466TIP3   OH264888   2.353   6.779   3.266  0.0007  0.0251  0.6706
14466TIP3    H164889   2.408   6.857   3.260  0.3591 -0.3109 -1.1761
14466TIP3    H264890   2.404   6.718   3.320  1.2834 -0.1085 -0.6130
14467TIP3   OH264891   2.444   3.898   5.634 -0.0432 -0.3200  0.4941
14467TIP3    H164892   2.512   3.879   5.699  1.4277  1.3837 -0.4627
14467TIP3    H264893   2.409   3.983   5.661 -1.8788 -1.1819  0.9832
14468TIP3   OH264894   4.159   5.995   5.519  0.0052 -0.5973  0.1659
14468TIP3    H164895   4.065   6.005   5.536 -0.0886 -2.4489  0.8753
14468TIP3    H264896   4.201   6.036   5.595 -0.3107 -2.2906  1.3099
14469TIP3   OH264897   4.722   6.212  14.489 -0.5597 -0.3006 -0.1234
14469TIP3    H164898   4.639   6.177  14.456  0.3297 -0.5162 -2.2918
14469TIP3    H264899   4.707   6.306  14.499 -0.7850 -0.1591 -1.5641
14470TIP3   OH264900   0.096   1.212  17.102  0.1652  0.5404  0.2817
14470TIP3    H164901   0.129   1.262  17.177  1.2085  1.2081 -0.5868
14470TIP3    H264902   0.174   1.193  17.051 -0.3905 -0.8775 -0.0835
14471TIP3   OH264903   1.523   3.889   3.012 -0.0981 -0.2025 -0.8307
14471TIP3    H164904   1.607   3.847   3.031 -0.0737 -0.4065 -1.3676
14471TIP3    H264905   1.469   3.819   2.975 -1.3704 -0.7078  1.7996
14472TIP3   OH264906   3.466   1.157  15.036 -0.0728  0.0749 -0.0734
14472TIP3    H164907   3.515   1.093  15.087 -1.4096 -1.6058 -0.7770
14472TIP3    H264908   3.411   1.103  14.977 -2.0759  1.8331  0.0738
14473TIP3   OH264909   3.076   5.828   1.580 -0.1813 -0.4250  0.0820
14473TIP3    H164910   3.107   5.737   1.585 -0.5827 -0.5136  1.6034
14473TIP3    H264911   2.990   5.822   1.538 -0.2695 -0.7843  0.3040
14474TIP3   OH264912   0.561   2.100  16.229  0.2642 -0.0606  0.1200
14474TIP3    H164913   0.498   2.029  16.242  0.5980 -0.2182  0.9172
14474TIP3    H264914   0.558   2.117  16.135 -2.6082  1.4224  0.3498
14475TIP3   OH264915   0.902   4.578  13.541 -0.1699  0.1142 -0.2117
14475TIP3    H164916   0.887   4.485  13.527 -0.2496  0.3286 -1.6261
14475TIP3    H264917   0.880   4.592  13.633 -0.8922 -1.1080 -0.1838
14476TIP3   OH264918   0.666   4.199   2.476  0.3647 -0.3738 -0.0784
14476TIP3    H164919   0.707   4.164   2.397 -0.1192 -0.0232 -0.4827
14476TIP3    H264920   0.581   4.156   2.481 -0.8239  1.7209 -1.3326
14477TIP3   OH264921   3.715   0.829   2.058  0.2332 -0.8530  0.0893
14477TIP3    H164922   3.633   0.852   2.015 -0.2713 -2.2290  0.2718
14477TIP3    H264923   3.765   0.782   1.991  0.7687 -0.2421  0.0543
14478TIP3   OH264924   6.673   4.382   4.673  0.5342  0.0845  0.4029
14478TIP3    H164925   6.752   4.377   4.619  0.5102 -1.2152  0.4497
14478TIP3    H264926   6.609   4.427   4.618  0.3191 -1.7386 -0.9431
14479TIP3   OH264927   2.396   4.865  13.614  0.1074 -0.0970  0.4981
14479TIP3    H164928   2.472   4.813  13.590 -0.3477 -0.8134  0.5818
14479TIP3    H264929   2.347   4.811  13.676 -0.2112  0.5622  0.8370
14480TIP3   OH264930   3.765   0.738   2.866  0.4618  0.0610 -0.3429
14480TIP3    H164931   3.738   0.653   2.902 -1.7454  0.5452 -0.6954
14480TIP3    H264932   3.772   0.794   2.943 -0.5097  0.1498 -0.3057
14481TIP3   OH264933   3.639   3.891   0.689  0.0171 -0.2541  0.1341
14481TIP3    H164934   3.656   3.799   0.711  3.5248  0.2491 -0.0313
14481TIP3    H264935   3.706   3.940   0.736 -3.2327  2.6112  2.2585
14482TIP3   OH264936   3.890   6.155   1.910 -0.0734  0.4585 -0.4561
14482TIP3    H164937   3.799   6.129   1.918 -0.0098  0.4359  0.2168
14482TIP3    H264938   3.907   6.208   1.987  0.5891  0.1388 -0.3725
14483TIP3   OH264939   0.679   3.097  13.190 -0.4393 -0.1120  0.4608
14483TIP3    H164940   0.732   3.119  13.113  1.2110 -1.2696  1.2141
14483TIP3    H264941   0.710   3.157  13.258  1.0365 -1.7650  1.3178
14484TIP3   OH264942   4.089   3.211   3.546  0.1372 -0.1172 -0.0589
14484TIP3    H164943   4.024   3.155   3.590  0.2263  1.3416  2.0981
14484TIP3    H264944   4.059   3.300   3.563  3.0972  0.6636  1.8673
14485TIP3   OH264945   1.920   3.781   3.636 -0.2989  0.5147 -0.3412
14485TIP3    H164946   1.836   3.755   3.675  0.0915 -2.5496 -1.2485
14485TIP3    H264947   1.961   3.837   3.702 -2.3302  0.7034  0.8399
14486TIP3   OH264948   3.632   3.204  12.661  0.6368 -0.4776  0.0990
14486TIP3    H164949   3.603   3.293  12.641 -0.5579 -0.6931  0.7320
14486TIP3    H264950   3.659   3.168  12.577 -1.2528 -0.3359 -0.6301
14487TIP3   OH264951   0.740   5.523  12.234 -0.3773 -0.1667  0.3795
14487TIP3    H164952   0.726   5.451  12.172  1.6742 -0.0387 -0.3062
14487TIP3    H264953   0.801   5.487  12.298  2.0980  1.3841 -0.9382
14488TIP3   OH264954   4.800   4.247  16.025 -0.4462 -0.3054  0.2813
14488TIP3    H164955   4.805   4.294  15.942  1.1794 -2.7926 -1.1679
14488TIP3    H264956   4.892   4.236  16.051 -0.8017 -1.9883  0.9210
14489TIP3   OH264957   1.376   2.923  16.262  0.1022  0.2407  0.3175
14489TIP3    H164958   1.287   2.895  16.282  0.0410  0.5566  0.4956
14489TIP3    H264959   1.397   2.989  16.328  0.1108  0.8776 -0.2975
14490TIP3   OH264960   4.528   5.078  14.775  0.2267 -0.3542  0.6949
14490TIP3    H164961   4.601   5.016  14.766 -0.1218 -0.7950  0.8248
14490TIP3    H264962   4.450   5.024  14.761 -0.0432  0.2821 -0.2907
14491TIP3   OH264963   4.481   2.321   2.792  0.3068  0.0020  0.1359
14491TIP3    H164964   4.541   2.254   2.759  0.7965  0.4246  0.1520
14491TIP3    H264965   4.504   2.331   2.884 -0.6269 -0.7156  0.4645
14492TIP3   OH264966   4.670   1.328   4.378  0.6545 -0.0212  0.1968
14492TIP3    H164967   4.652   1.402   4.435  0.6223  0.6039 -0.6009
14492TIP3    H264968   4.695   1.367   4.294 -0.6187 -0.8878 -0.6336
14493TIP3   OH264969   4.456   3.278  15.154 -0.2437  0.1429 -0.1219
14493TIP3    H164970   4.458   3.189  15.188 -0.7915 -0.5794 -1.8520
14493TIP3    H264971   4.364   3.298  15.142 -0.0665  0.1248 -1.7070
14494TIP3   OH264972   0.020   3.418   4.922  0.2146  0.3009  0.0072
14494TIP3    H164973   0.020   3.417   4.826 -0.9286  2.6433 -0.1040
14494TIP3    H264974   0.108   3.389   4.946  0.3176 -0.9603 -1.7082
14495TIP3   OH264975   4.100   0.652   0.859  0.3006 -0.0508  0.0098
14495TIP3    H164976   4.019   0.620   0.899 -0.2497  0.8533 -0.3488
14495TIP3    H264977   4.088   0.637   0.765  1.8745 -2.7961  0.1700
14496TIP3   OH264978   0.421   3.004  12.670  0.3913  0.6958 -0.0313
14496TIP3    H164979   0.383   2.916  12.664  2.0057 -0.0951  0.8711
14496TIP3    H264980   0.345   3.061  12.682 -0.6848 -0.5712 -0.5100
14497TIP3   OH264981   3.222   1.767  11.937  0.1975 -0.1859 -0.1456
14497TIP3    H164982   3.303   1.783  11.985  0.7516 -1.8214 -0.4390
14497TIP3    H264983   3.225   1.829  11.864  0.0166  1.3641  1.1089
14498TIP3   OH264984   6.112   2.787   5.328  0.6595  0.1549 -0.8643
14498TIP3    H164985   6.053   2.741   5.389  0.6709 -0.1619 -1.0891
14498TIP3    H264986   6.090   2.751   5.242 -0.8144  2.1098 -1.3610
14499TIP3   OH264987   1.285   4.196  14.805 -0.4284 -0.1035  0.1294
14499TIP3    H164988   1.236   4.194  14.887  0.1238  0.4471  0.4828
14499TIP3    H264989   1.299   4.104  14.783 -0.7873 -0.2564  0.5250
14500TIP3   OH264990   3.893   2.684   1.547  0.1364 -0.1382  0.2250
14500TIP3    H164991   3.979   2.674   1.589  1.4078 -1.2998 -2.4414
14500TIP3    H264992   3.860   2.594   1.541 -0.6148  0.1538 -0.0665
14501TIP3   OH264993   3.051   4.685   3.408 -0.0651  0.2762  0.2426
14501TIP3    H164994   3.081   4.639   3.330  0.3434 -0.9120  1.0646
14501TIP3    H264995   3.051   4.777   3.384  1.8214  0.0994 -0.5964
14502TIP3   OH264996   3.888   1.920  14.652  0.2464  0.1974 -0.0522
14502TIP3    H164997   3.877   2.000  14.703  0.6885  0.7520 -0.8066
14502TIP3    H264998   3.799   1.885  14.642 -0.1625  1.4011 -0.9751
14503TIP3   OH264999   4.475   3.933  10.605 -0.2136  0.2015 -0.5400
14503TIP3    H165000   4.521   3.868  10.657  0.1414  2.0486  1.6285
14503TIP3    H265001   4.539   3.963  10.541  0.2321 -0.2320 -0.3000
14504TIP3   OH265002   0.697   5.122   2.980  0.3534  0.1560 -0.3735
14504TIP3    H165003   0.647   5.071   2.916  0.0244  2.0091 -1.6752
14504TIP3    H265004   0.760   5.172   2.927  0.4047  1.3728  0.7806
14505TIP3   OH265005   6.823   5.403   5.232  0.2898  0.0487  0.4485
14505TIP3    H165006   6.733   5.372   5.247  0.1498  0.9454  1.6940
14505TIP3    H265007   6.865   5.333   5.183 -0.5682 -1.2069  1.4444
14506TIP3   OH265008   0.477   2.669   2.642  0.1557  0.1563  0.0138
14506TIP3    H165009   0.544   2.631   2.585  2.2042  0.9572  1.7701
14506TIP3    H265010   0.402   2.610   2.633  1.0696 -0.7837 -2.0238
14507TIP3   OH265011   2.518   2.995   5.759  0.0438  0.4055 -0.1410
14507TIP3    H165012   2.526   2.987   5.664  1.4260  2.3105 -0.2298
14507TIP3    H265013   2.433   2.955   5.779 -1.3525  1.9809 -2.4698
14508TIP3   OH265014   1.903   5.141   2.670 -0.2106 -0.1429 -0.0421
14508TIP3    H165015   1.912   5.105   2.582  1.6424 -1.1130  0.4949
14508TIP3    H265016   1.871   5.068   2.722  2.1611 -0.6866  0.7659
14509TIP3   OH265017   1.274   5.521   0.458 -0.0961  0.0267 -0.0071
14509TIP3    H165018   1.349   5.499   0.402 -1.0268 -0.0117 -1.2722
14509TIP3    H265019   1.262   5.615   0.447 -1.1057 -0.1966 -0.9438
14510TIP3   OH265020   4.638   5.183   4.294 -0.3086 -0.4749  0.0018
14510TIP3    H165021   4.704   5.213   4.357 -0.2273 -0.5235 -0.0607
14510TIP3    H265022   4.572   5.252   4.294 -0.3582 -0.5225  0.2169
14511TIP3   OH265023   3.147   4.645   1.295  0.2059 -0.1415 -0.2417
14511TIP3    H165024   3.105   4.610   1.373  0.3234 -0.9994 -0.5510
14511TIP3    H265025   3.106   4.597   1.222  0.0961  0.6400 -0.7164
14512TIP3   OH265026   4.094   4.183   0.983 -0.3204 -0.3033  0.2899
14512TIP3    H165027   4.144   4.228   1.050 -0.4852  0.5930 -0.1802
14512TIP3    H265028   4.049   4.112   1.031  1.3946 -1.1637  0.7048
14513TIP3   OH265029   0.297   6.400  11.474 -0.1510 -0.0837 -0.1831
14513TIP3    H165030   0.264   6.348  11.400  0.3964 -1.4539  0.4943
14513TIP3    H265031   0.272   6.349  11.551  0.2821  0.7517  0.5226
14514TIP3   OH265032   5.727   0.321   2.475  0.2616 -0.3897  0.3820
14514TIP3    H165033   5.790   0.389   2.451  1.8191 -0.4946  3.6312
14514TIP3    H265034   5.649   0.370   2.502  0.5104  0.0098  0.4026
14515TIP3   OH265035   5.374   3.066  16.968  0.3813  0.0442 -0.2089
14515TIP3    H165036   5.446   3.012  16.999 -0.3582 -0.6954  0.2623
14515TIP3    H265037   5.313   3.069  17.042 -1.5274 -1.9282 -1.5839
14516TIP3   OH265038   6.803   5.778   2.742 -0.1408  0.0815 -0.5680
14516TIP3    H165039   6.784   5.690   2.775  0.9778  0.6037  1.6277
14516TIP3    H265040   6.744   5.835   2.791  1.9110  0.9410  1.0134
14517TIP3   OH265041   6.108   6.599  13.706 -0.6129  0.3348 -0.3107
14517TIP3    H165042   6.097   6.691  13.732 -1.1829 -0.2345  1.6106
14517TIP3    H265043   6.123   6.603  13.612 -0.2711  2.4237 -0.2189
14518TIP3   OH265044   0.175   2.282  12.029 -0.4365  0.5986 -0.5048
14518TIP3    H165045   0.194   2.189  12.044  1.5632  0.9776 -0.4768
14518TIP3    H265046   0.236   2.309  11.960  0.3927  2.3538  0.8380
14519TIP3   OH265047   6.330   5.482   2.352  0.3487 -0.4850  0.1408
14519TIP3    H165048   6.300   5.391   2.352 -1.1161 -0.1023 -2.4135
14519TIP3    H265049   6.382   5.491   2.273 -1.3327  1.3601 -0.8556
14520TIP3   OH265050   0.575   6.547  12.483 -0.1351 -0.5581  0.1208
14520TIP3    H165051   0.666   6.578  12.492 -1.1354  2.3853  1.3844
14520TIP3    H265052   0.561   6.542  12.388  1.2669 -0.8468 -0.0913
14521TIP3   OH265053   2.271   1.704   1.495  0.1760 -0.0786  0.0645
14521TIP3    H165054   2.253   1.658   1.577 -2.6064  1.5756  0.5139
14521TIP3    H265055   2.218   1.658   1.429  1.8090 -0.9316 -0.7071
14522TIP3   OH265056   3.621   6.671  13.454 -0.3443 -0.0895  0.0344
14522TIP3    H165057   3.572   6.649  13.374 -1.6191 -2.9797  1.4659
14522TIP3    H265058   3.554   6.686  13.520  0.6481 -1.4339  1.4047
14523TIP3   OH265059   5.436   3.234  11.699 -0.8115 -0.0292  0.6553
14523TIP3    H165060   5.472   3.253  11.612  1.3589 -0.8393  1.2912
14523TIP3    H265061   5.477   3.299  11.757  1.6620 -2.3730  1.7799
14524TIP3   OH265062   3.936   1.536  11.390 -0.1247 -0.0546 -0.2073
14524TIP3    H165063   3.891   1.608  11.345  0.5631  1.4483  1.3590
14524TIP3    H265064   3.873   1.465  11.391 -0.7719  0.4440 -1.9825
14525TIP3   OH265065   4.604   3.059  13.876 -0.3825 -0.3299  0.0587
14525TIP3    H165066   4.515   3.056  13.841 -0.4450  0.8682  0.0728
14525TIP3    H265067   4.621   3.152  13.891  0.7463 -0.5705  0.3889
14526TIP3   OH265068   3.521   1.698  13.470 -0.2350  0.1951  0.1422
14526TIP3    H165069   3.502   1.656  13.387  0.9716  1.1734 -0.6542
14526TIP3    H265070   3.546   1.627  13.528  4.6662 -0.1561 -1.9505
14527TIP3   OH265071   1.272   1.272   3.627 -0.0979 -0.2010  0.1366
14527TIP3    H165072   1.219   1.345   3.662  1.0991  1.6689 -1.6845
14527TIP3    H265073   1.232   1.253   3.542  0.7953 -0.2652 -0.2825
14528TIP3   OH265074   2.698   5.827  13.831 -0.5367  0.3230  0.2732
14528TIP3    H165075   2.669   5.838  13.921 -1.1753  1.3742 -0.0426
14528TIP3    H265076   2.641   5.758  13.796 -0.2698 -0.1081  0.6669
14529TIP3   OH265077   6.003   2.674  16.024 -0.0622  0.1513 -0.0326
14529TIP3    H165078   6.075   2.630  16.068 -0.4243 -0.8985 -0.4588
14529TIP3    H265079   5.924   2.633  16.060 -0.4842  1.4380  0.5994
14530TIP3   OH265080   3.540   5.457  11.925 -0.1364 -0.5510 -0.2485
14530TIP3    H165081   3.632   5.457  11.900 -0.5149 -1.7988 -1.7953
14530TIP3    H265082   3.529   5.380  11.981 -0.5685 -1.5126 -1.5931
14531TIP3   OH265083   2.696   2.879  17.156 -0.4551  0.3009  0.2255
14531TIP3    H165084   2.773   2.914  17.201  1.0770 -3.1491  0.6498
14531TIP3    H265085   2.637   2.851  17.226  1.0646 -3.2539  0.3174
14532TIP3   OH265086   1.338   4.085   5.808  0.5092 -0.1769  0.3972
14532TIP3    H165087   1.412   4.121   5.760  0.3034 -0.0905  0.1433
14532TIP3    H265088   1.356   4.105   5.900 -0.5692  2.4187  0.1299
14533TIP3   OH265089   2.924   0.274   2.374  0.3701 -0.2696  0.2817
14533TIP3    H165090   2.972   0.191   2.373 -1.0943 -1.1898  1.7453
14533TIP3    H265091   2.871   0.273   2.294  1.4887  0.0005 -0.4930
14534TIP3   OH265092   2.114   5.238   6.524  0.2130  0.3123  0.2216
14534TIP3    H165093   2.023   5.257   6.547  0.4937  3.1238 -0.5705
14534TIP3    H265094   2.152   5.324   6.506  2.6265 -0.9131 -0.9884
14535TIP3   OH265095   5.438   3.856   2.355 -0.9256  0.3761 -0.1617
14535TIP3    H165096   5.419   3.804   2.433 -0.1040 -0.3358 -0.4235
14535TIP3    H265097   5.530   3.878   2.363 -0.8200  0.2496 -0.9567
14536TIP3   OH265098   5.537   0.221  15.761 -0.0886 -0.1513  0.0940
14536TIP3    H165099   5.608   0.188  15.708 -1.3528 -1.4538 -0.8577
14536TIP3    H265100   5.518   0.308  15.726  0.2823 -0.2604 -0.3744
14537TIP3   OH265101   2.477   1.518  16.504 -0.0799  0.0863  0.2125
14537TIP3    H165102   2.437   1.462  16.438  0.3096  0.4676 -0.3616
14537TIP3    H265103   2.445   1.485  16.588 -0.9878 -0.0807 -0.1976
14538TIP3   OH265104   3.564   4.664   4.034 -0.6355  0.3474  0.1101
14538TIP3    H165105   3.471   4.684   4.036 -0.5439  0.8818 -0.7940
14538TIP3    H265106   3.592   4.673   4.125 -1.1153  1.8737  0.1274
14539TIP3   OH265107   0.544   1.594  11.806 -0.2038  0.2582  0.2686
14539TIP3    H165108   0.520   1.666  11.863 -0.0418  0.6350 -0.1343
14539TIP3    H265109   0.529   1.627  11.717  3.0519  1.0675 -0.1277
14540TIP3   OH265110   1.771   6.405   6.083 -0.4857  0.3554  0.1307
14540TIP3    H165111   1.859   6.432   6.109 -0.3913  0.5386 -0.3735
14540TIP3    H265112   1.763   6.315   6.115 -0.6416  0.8041  1.4441
14541TIP3   OH265113   3.372   2.725  15.492 -0.3133 -0.3427  0.3307
14541TIP3    H165114   3.365   2.739  15.586 -1.4577 -0.3666  0.2646
14541TIP3    H265115   3.353   2.811  15.454 -0.2998 -0.4364  0.1110
14542TIP3   OH265116   3.877   4.860   6.163 -0.2755  0.6100 -0.3686
14542TIP3    H165117   3.884   4.766   6.152 -1.0881  0.5759 -0.6092
14542TIP3    H265118   3.834   4.871   6.248 -2.3791  0.7020 -1.3918
14543TIP3   OH265119   3.105   4.197   4.245  0.2446  0.4117 -0.0127
14543TIP3    H165120   3.084   4.154   4.162  1.0120  0.5664 -0.2959
14543TIP3    H265121   3.166   4.267   4.221 -0.3821  1.1715  0.5422
14544TIP3   OH265122   6.624   2.927   1.593  0.1756  0.2563 -0.0740
14544TIP3    H165123   6.622   2.895   1.502 -0.3924 -1.4956  0.5081
14544TIP3    H265124   6.695   2.877   1.634  0.3693  0.9741  0.4752
14545TIP3   OH265125   5.006   6.712  11.941 -0.1034 -0.4375 -0.5754
14545TIP3    H165126   5.035   6.768  11.868  0.2919 -1.3198 -1.1156
14545TIP3    H265127   5.028   6.623  11.913  2.9803 -0.6144  1.9491
14546TIP3   OH265128   4.924   5.913   3.653 -0.1448 -0.2154  0.3576
14546TIP3    H165129   4.965   5.843   3.602  0.3151  1.0786 -1.1317
14546TIP3    H265130   4.996   5.970   3.678 -0.7770  1.3164 -1.0584
14547TIP3   OH265131   0.804   3.639   0.221 -0.1991 -0.3719 -0.2366
14547TIP3    H165132   0.723   3.659   0.266 -1.2963 -1.9338 -1.3822
14547TIP3    H265133   0.826   3.719   0.173 -1.8884 -0.3573 -1.0630
14548TIP3   OH265134   5.304   2.324   5.413 -0.2679  0.5434 -0.3933
14548TIP3    H165135   5.303   2.419   5.400 -4.2541  0.3584 -3.2714
14548TIP3    H265136   5.357   2.291   5.342  1.8759  0.5261  1.1288
14549TIP3   OH265137   0.489   4.756  16.367  0.4713  0.0723  0.0597
14549TIP3    H165138   0.551   4.801  16.310  0.2869  0.5135  0.2061
14549TIP3    H265139   0.538   4.739  16.447  1.7781 -3.3305 -1.2324
14550TIP3   OH265140   5.948   1.877  16.631 -0.3812  0.3093 -0.7544
14550TIP3    H165141   5.893   1.800  16.643 -0.2183  0.4074  0.8512
14550TIP3    H265142   6.008   1.876  16.706  0.1320  1.5685 -1.1208
14551TIP3   OH265143   2.139   3.158  14.544 -1.0429 -0.1160 -0.3057
14551TIP3    H165144   2.143   3.085  14.605 -1.3335 -1.1188 -1.4521
14551TIP3    H265145   2.215   3.146  14.486  0.5947  2.1148  1.2013
14552TIP3   OH265146   3.140   3.465  12.431 -0.4878  0.1115 -0.2290
14552TIP3    H165147   3.170   3.509  12.352 -0.9631  1.4215  0.2945
14552TIP3    H265148   3.048   3.445  12.415 -0.4152 -0.2069 -0.2537
14553TIP3   OH265149   4.673   5.590   7.099 -0.3010 -0.3184  0.3034
14553TIP3    H165150   4.597   5.570   7.154  1.0029 -1.9424  1.6368
14553TIP3    H265151   4.722   5.654   7.149 -1.2061  1.4759 -1.0008
14554TIP3   OH265152   4.291   1.764   3.655  0.4178 -0.1486 -0.1334
14554TIP3    H165153   4.297   1.683   3.706  0.5788  0.0989  0.2473
14554TIP3    H265154   4.324   1.832   3.714  2.4824 -0.1161 -1.2066
14555TIP3   OH265155   6.674   0.998   5.751  0.2571  0.4253 -0.2487
14555TIP3    H165156   6.628   1.081   5.765 -0.5040  0.1868 -1.1704
14555TIP3    H265157   6.673   0.956   5.836  2.8822  2.3953  0.9015
14556TIP3   OH265158   5.280   4.703   5.921 -0.6310  0.5455 -0.6384
14556TIP3    H165159   5.281   4.706   6.017 -2.4934  1.8504 -0.5998
14556TIP3    H265160   5.290   4.611   5.900  1.0612  0.3567  0.7466
14557TIP3   OH265161   2.520   4.242  16.841  0.1616  0.0599  0.3214
14557TIP3    H165162   2.474   4.247  16.924  2.2865 -0.7489  1.6212
14557TIP3    H265163   2.612   4.249  16.864  0.7934  0.3096 -2.0302
14558TIP3   OH265164   5.793   5.415  10.762 -0.3153  0.3366 -0.0855
14558TIP3    H165165   5.748   5.384  10.683  0.4842 -1.1095 -0.0054
14558TIP3    H265166   5.860   5.349  10.778  0.9029  1.7005  0.6183
14559TIP3   OH265167   1.586   6.377  15.629  0.1633  0.3299  0.0698
14559TIP3    H165168   1.631   6.342  15.707 -1.4539 -0.2686  0.7720
14559TIP3    H265169   1.603   6.312  15.561  2.6072  1.4412 -0.4806
14560TIP3   OH265170   5.854   0.714  14.842  0.0688 -0.2721  0.1661
14560TIP3    H165171   5.947   0.691  14.848 -0.1046 -0.7053  1.5606
14560TIP3    H265172   5.837   0.766  14.921 -0.8797 -0.2169 -0.0631
14561TIP3   OH265173   0.053   1.792  15.504  0.7799  0.0944  0.8783
14561TIP3    H165174  -0.036   1.802  15.538  0.3345  0.5561 -0.3581
14561TIP3    H265175   0.076   1.701  15.525 -2.3910 -2.2813 -4.0243
14562TIP3   OH265176   4.779   5.043   0.810  0.0221  0.4943  0.0488
14562TIP3    H165177   4.867   5.026   0.841  1.2813  0.4716 -3.1268
14562TIP3    H265178   4.784   5.128   0.767 -0.9810 -0.2625 -1.7141
14563TIP3   OH265179   4.177   3.512   0.860 -0.4474 -0.0797  0.4953
14563TIP3    H165180   4.130   3.575   0.915  0.8607 -0.2013  1.8335
14563TIP3    H265181   4.241   3.473   0.919 -0.8547 -2.2961 -0.4212
14564TIP3   OH265182   6.670   6.352  15.107  0.0392 -0.2177 -0.3828
14564TIP3    H165183   6.680   6.439  15.070 -0.4399  0.0585  0.1308
14564TIP3    H265184   6.661   6.367  15.201 -0.5396 -0.7870 -0.3448
14565TIP3   OH265185   4.081   6.755   4.109  0.0263 -0.4007  0.5868
14565TIP3    H165186   4.008   6.754   4.047 -0.6225 -0.4549  1.3337
14565TIP3    H265187   4.097   6.848   4.125  0.0664 -0.3903  0.4876
14566TIP3   OH265188   1.782   4.716   0.893  0.0016 -0.1665 -0.4848
14566TIP3    H165189   1.779   4.810   0.876 -0.4103 -0.0032  0.4408
14566TIP3    H265190   1.737   4.705   0.976  1.8280 -0.9338  0.4706
14567TIP3   OH265191   4.383   5.830   0.789  0.2216 -0.2442  0.4302
14567TIP3    H165192   4.311   5.819   0.851  0.1689 -0.7561  0.2855
14567TIP3    H265193   4.431   5.906   0.822 -0.5355  0.2729  0.3717
14568TIP3   OH265194   5.107   5.366   4.693  0.3963 -0.3221  0.2046
14568TIP3    H165195   5.060   5.284   4.710 -1.5991  0.4290 -1.1811
14568TIP3    H265196   5.155   5.350   4.611  1.7913 -0.7560  1.0758
14569TIP3   OH265197   3.668   4.243   1.684  0.1655  0.0498 -0.0286
14569TIP3    H165198   3.597   4.182   1.666 -0.0573  0.6621 -1.3276
14569TIP3    H265199   3.732   4.228   1.616 -0.4690  2.0836 -1.1761
14570TIP3   OH265200   3.812   3.931   2.562  0.1591  0.0036  0.6147
14570TIP3    H165201   3.754   3.916   2.487  1.2375  0.9978 -0.4699
14570TIP3    H265202   3.900   3.923   2.525  0.7282 -0.5899  2.0343
14571TIP3   OH265203   1.003   6.154  11.219  0.2035 -0.0169 -0.5567
14571TIP3    H165204   1.017   6.076  11.273  1.8481  0.8373  0.3283
14571TIP3    H265205   1.000   6.121  11.129 -2.2063 -1.4218 -0.0283
14572TIP3   OH265206   3.705   5.943  15.391 -0.1508  0.0100  0.4618
14572TIP3    H165207   3.780   5.998  15.369  0.2449 -0.0683  1.5526
14572TIP3    H265208   3.740   5.854  15.390 -0.9232 -0.3173 -1.8716
14573TIP3   OH265209   3.876   3.046  12.694 -0.1437  0.0564 -0.1777
14573TIP3    H165210   3.931   3.124  12.686  1.3416 -0.9817 -0.5429
14573TIP3    H265211   3.787   3.078  12.677  0.3357  1.7656  0.3063
14574TIP3   OH265212   5.402   2.020   6.505  0.1646  0.1281  0.3262
14574TIP3    H165213   5.402   1.938   6.553 -1.8676 -0.2501 -0.2359
14574TIP3    H265214   5.351   2.080   6.559  0.4861  0.6158  0.0971
14575TIP3   OH265215   3.162   5.854   2.118  0.6017 -0.1446 -0.3264
14575TIP3    H165216   3.070   5.864   2.140  0.3030 -1.5575 -0.7985
14575TIP3    H265217   3.188   5.772   2.160  1.3189 -0.3586 -1.1403
14576TIP3   OH265218   2.428   2.109  15.780  0.2137  0.7635  0.8171
14576TIP3    H165219   2.443   2.190  15.829  0.0914  1.5089 -0.3568
14576TIP3    H265220   2.421   2.136  15.689  2.0474 -0.7718  0.1408
14577TIP3   OH265221   2.582   0.084   4.589 -0.1188  0.0263 -0.3132
14577TIP3    H165222   2.593   0.101   4.682 -0.4175  0.4773 -0.3626
14577TIP3    H265223   2.488   0.080   4.576 -0.0792  0.1691 -0.6383
14578TIP3   OH265224   5.896   3.717   5.259 -0.2845  0.6008 -0.3063
14578TIP3    H165225   5.822   3.752   5.310 -0.8298 -0.8239 -0.0579
14578TIP3    H265226   5.972   3.731   5.315 -0.7452 -0.1040  0.5429
14579TIP3   OH265227   0.213   0.913   0.974 -0.2481  0.3361 -0.3287
14579TIP3    H165228   0.160   0.965   0.913  0.2088 -0.7358 -1.7124
14579TIP3    H265229   0.298   0.904   0.930  0.8098  1.2477  1.4271
14580TIP3   OH265230   5.149   5.079  14.922 -0.1024  0.1920 -0.4358
14580TIP3    H165231   5.152   4.989  14.953 -0.2724  0.3059 -0.0826
14580TIP3    H265232   5.115   5.073  14.833  0.9411 -0.1892 -0.8271
14581TIP3   OH265233   6.063   3.085   1.605  0.0512 -0.2143 -0.1596
14581TIP3    H165234   6.085   3.107   1.696  0.5426  3.0245 -0.9392
14581TIP3    H265235   5.975   3.049   1.609 -0.3056  0.7645  1.5354
14582TIP3   OH265236   2.506   3.328  13.872 -0.1660 -0.3609 -0.1156
14582TIP3    H165237   2.561   3.390  13.824 -0.8576  0.8607  0.6211
14582TIP3    H265238   2.563   3.293  13.941 -0.1036  0.3466  0.1921
14583TIP3   OH265239   5.086   0.302  13.545  0.4833  0.0379  0.2883
14583TIP3    H165240   5.089   0.341  13.457  0.8118 -0.8679 -0.1171
14583TIP3    H265241   5.120   0.371  13.602  0.0467  0.7217 -0.2616
14584TIP3   OH265242   0.554   1.344  12.254 -0.0207  0.1369  0.4031
14584TIP3    H165243   0.620   1.334  12.322  0.7024 -1.4804 -0.4676
14584TIP3    H265244   0.587   1.415  12.199  2.4334 -2.1929 -1.4450
14585TIP3   OH265245   3.823   6.421  13.191  0.4607  0.1414  0.2191
14585TIP3    H165246   3.851   6.335  13.160 -1.2062 -0.4135  0.1481
14585TIP3    H265247   3.731   6.409  13.215 -0.3512  2.3211 -1.4919
14586TIP3   OH265248   1.125   0.960  14.945 -0.5738  1.0154  0.0849
14586TIP3    H165249   1.031   0.942  14.946 -0.2680 -0.7360  1.4402
14586TIP3    H265250   1.166   0.874  14.949  1.1341  1.6750 -1.7325
14587TIP3   OH265251   6.023   1.921  12.555 -0.4384  0.8714 -0.4400
14587TIP3    H165252   6.091   1.921  12.488 -0.7893  1.3358 -0.8116
14587TIP3    H265253   5.975   1.839  12.541 -0.1376  0.6836 -0.3674
14588TIP3   OH265254   1.760   5.924  15.495  0.2870 -0.5033 -0.0747
14588TIP3    H165255   1.785   5.992  15.557  0.1484 -1.1409  0.6916
14588TIP3    H265256   1.842   5.901  15.451  0.2865  0.3427 -0.5371
14589TIP3   OH265257   4.539   2.966  12.199  0.4472 -0.2219 -0.0461
14589TIP3    H165258   4.583   2.974  12.284  0.0174 -1.4159  0.2954
14589TIP3    H265259   4.489   2.885  12.205  0.1676 -0.1581 -1.3370
14590TIP3   OH265260   0.187   4.415  12.364  0.4614  0.2220  0.2044
14590TIP3    H165261   0.259   4.473  12.339 -0.6241  1.4617 -0.1614
14590TIP3    H265262   0.211   4.330  12.326  2.4089  0.2179  1.3309
14591TIP3   OH265263   0.834   6.282  11.629 -0.2734 -0.0436 -0.0237
14591TIP3    H165264   0.820   6.188  11.618  0.0652 -0.0080 -0.8527
14591TIP3    H265265   0.843   6.315  11.539  1.9567  0.4047  0.3117
14592TIP3   OH265266   5.767   3.060   0.929 -0.0969 -0.0600  0.3843
14592TIP3    H165267   5.783   3.046   1.022  2.2921 -0.8461 -0.0706
14592TIP3    H265268   5.776   2.973   0.890  1.1914  0.5886 -0.8331
14593TIP3   OH265269   2.075   2.009   2.796  0.3457 -0.4228  0.4607
14593TIP3    H165270   2.137   1.985   2.727  1.1809  0.8640  0.7289
14593TIP3    H265271   2.015   1.934   2.801  0.6984 -0.8624 -1.1443
14594TIP3   OH265272   1.917   0.277   2.782 -0.1640  0.2978  0.0831
14594TIP3    H165273   1.891   0.226   2.705 -0.1970  1.2979 -0.5889
14594TIP3    H265274   1.912   0.368   2.753  0.4584  0.6653  1.0834
14595TIP3   OH265275   0.039   4.952  12.472  0.1546 -0.0904  0.1151
14595TIP3    H165276  -0.017   4.949  12.549 -1.2073 -0.2667 -0.8506
14595TIP3    H265277   0.030   4.866  12.431  0.3198  0.2299 -0.6119
14596TIP3   OH265278   0.878   4.139  14.907  0.2785  0.1907 -0.5522
14596TIP3    H165279   0.804   4.194  14.883  0.5330  0.8950  0.2372
14596TIP3    H265280   0.918   4.113  14.824  0.9509  2.2860 -0.9272
14597TIP3   OH265281   2.698   0.235  13.154 -0.1583  0.3179 -0.1241
14597TIP3    H165282   2.793   0.226  13.157 -0.3522 -3.3595  1.8863
14597TIP3    H265283   2.680   0.323  13.187  2.4843  0.8339  0.1196
14598TIP3   OH265284   1.108   0.726   5.519 -0.6735 -0.3656 -0.7216
14598TIP3    H165285   1.182   0.706   5.462 -0.1844  1.6321 -0.8370
14598TIP3    H265286   1.145   0.732   5.607 -0.7797  0.1698 -0.7118
14599TIP3   OH265287   6.609   5.733   1.554 -0.5628 -0.1980  0.1502
14599TIP3    H165288   6.514   5.722   1.544 -0.2306 -1.7190 -1.9586
14599TIP3    H265289   6.624   5.826   1.538 -1.5313 -0.2847 -1.5550
14600TIP3   OH265290   0.544   0.067  15.648  0.5084  0.2862  0.6534
14600TIP3    H165291   0.631   0.103  15.632  0.4022  0.0723 -0.5341
14600TIP3    H265292   0.542  -0.012  15.594 -0.0427 -0.2962  1.5120
14601TIP3   OH265293   0.855   1.227   3.183 -0.0683 -0.3209  0.0205
14601TIP3    H165294   0.840   1.312   3.224  2.4828  1.1575 -1.8507
14601TIP3    H265295   0.823   1.237   3.094  1.3974 -0.8546 -0.5990
14602TIP3   OH265296   6.640   1.703  13.577 -0.8438  0.2479 -0.3486
14602TIP3    H165297   6.656   1.706  13.483  3.5442  0.6264  0.1757
14602TIP3    H265298   6.640   1.795  13.604 -0.2637  0.1031  0.1786
14603TIP3   OH265299   3.261   3.611  11.026  0.5422  0.5286  0.5231
14603TIP3    H165300   3.239   3.686  10.970  0.2366  1.0438  1.3097
14603TIP3    H265301   3.256   3.536  10.968 -1.3395  0.8568  0.1894
14604TIP3   OH265302   0.020   3.795   1.361 -0.1353  0.1880  0.3411
14604TIP3    H165303   0.114   3.778   1.356 -0.0981  0.6217 -0.7669
14604TIP3    H265304  -0.019   3.709   1.372  0.3979  0.0283  1.0870
14605TIP3   OH265305   4.484   1.629   3.091  0.0962 -0.0925  0.1456
14605TIP3    H165306   4.551   1.560   3.098 -1.2552 -1.3537  1.2089
14605TIP3    H265307   4.408   1.593   3.136 -0.4440  2.4014  1.4103
14606TIP3   OH265308   0.413   4.629  13.822 -0.0467  0.1480 -0.1989
14606TIP3    H165309   0.383   4.713  13.857  1.0556  2.2423 -3.6883
14606TIP3    H265310   0.338   4.570  13.833 -0.1200  0.7877  4.3162
14607TIP3   OH265311   0.861   0.496  11.783 -0.0859  0.0410 -0.1893
14607TIP3    H165312   0.838   0.586  11.807 -1.2113 -0.2965  0.0937
14607TIP3    H265313   0.930   0.472  11.845 -1.6336 -0.1591  1.5891
14608TIP3   OH265314   6.010   2.136   3.540 -0.0645  0.0619  0.3524
14608TIP3    H165315   5.926   2.141   3.586 -0.3927  0.4560 -0.2673
14608TIP3    H265316   6.064   2.201   3.584 -0.5510  0.8248 -0.1339
14609TIP3   OH265317   1.932   2.797   3.718 -0.0684  0.6723 -0.3277
14609TIP3    H165318   1.884   2.753   3.648  0.1408 -0.7206  0.3564
14609TIP3    H265319   1.991   2.857   3.674 -1.0602  0.9858 -1.2676
14610TIP3   OH265320   3.821   3.102   1.581 -0.4998  0.0058 -0.6227
14610TIP3    H165321   3.781   3.188   1.576  1.8052  1.1959  0.0178
14610TIP3    H265322   3.778   3.052   1.511  0.9542  2.9569 -3.9678
14611TIP3   OH265323   4.600   1.887   6.589 -0.0487 -0.1026 -0.1666
14611TIP3    H165324   4.676   1.864   6.535  0.1815  0.5241 -0.1130
14611TIP3    H265325   4.555   1.803   6.602  1.3711 -0.7376  0.9470
14612TIP3   OH265326   1.011   1.722  11.579  0.2015 -0.2182 -0.6095
14612TIP3    H165327   0.937   1.770  11.542 -0.3387  1.3128  2.1760
14612TIP3    H265328   1.085   1.782  11.571 -0.0319  0.3660  1.0345
14613TIP3   OH265329   2.205   4.667   1.317  0.1533 -0.3763  0.6573
14613TIP3    H165330   2.210   4.611   1.240  2.7658 -2.2641  2.0091
14613TIP3    H265331   2.189   4.606   1.389 -0.3883  1.0836  1.8175
14614TIP3   OH265332   3.060   1.277   1.663 -0.3048  0.0801  0.5093
14614TIP3    H165333   3.066   1.370   1.643 -0.5813  0.5122  2.2505
14614TIP3    H265334   3.077   1.233   1.580  0.2869  1.6671 -0.2460
14615TIP3   OH265335   4.317   3.198  13.256 -0.1712  0.0981 -0.7373
14615TIP3    H165336   4.289   3.254  13.328 -0.6223  0.6160 -1.3046
14615TIP3    H265337   4.322   3.111  13.294 -1.1634  0.2368 -0.2520
14616TIP3   OH265338   3.520   6.552   3.635 -0.3714  0.3169  0.0806
14616TIP3    H165339   3.577   6.490   3.681 -1.6904  0.4684  1.9994
14616TIP3    H265340   3.443   6.500   3.611 -0.1400  0.4929 -1.1356
14617TIP3   OH265341   3.287   5.405   1.485 -1.0354  0.0887 -0.4132
14617TIP3    H165342   3.285   5.378   1.393  1.9211 -1.0256 -0.2522
14617TIP3    H265343   3.274   5.324   1.534 -0.0148  0.2269  0.1072
14618TIP3   OH265344   6.663   1.627  12.968 -0.1755  0.2398 -0.3874
14618TIP3    H165345   6.635   1.610  12.878 -0.8957  0.7626 -0.2744
14618TIP3    H265346   6.591   1.678  13.006 -0.1563 -0.4850  0.6645
14619TIP3   OH265347   3.086   4.537  11.983 -0.4778 -0.5769 -0.6838
14619TIP3    H165348   3.007   4.568  12.027  0.7814  0.9709  0.6197
14619TIP3    H265349   3.108   4.606  11.920  1.0679  0.2115  0.6163
14620TIP3   OH265350   1.854   6.794   2.961 -0.2413 -0.7383  0.3057
14620TIP3    H165351   1.837   6.712   3.006 -0.2488 -0.5728  0.6042
14620TIP3    H265352   1.867   6.769   2.870 -0.3413 -1.0590  0.3795
14621TIP3   OH265353   2.158   1.263  14.633  0.3070 -0.5195 -0.1797
14621TIP3    H165354   2.230   1.232  14.688  0.0709  0.3956  0.6781
14621TIP3    H265355   2.098   1.304  14.695  0.9432  2.3053 -1.3047
14622TIP3   OH265356   0.178   3.366   0.368 -0.1981 -0.4001  0.1586
14622TIP3    H165357   0.224   3.387   0.287  3.0799  1.2811  2.2461
14622TIP3    H265358   0.102   3.423   0.367  0.5596  0.6605 -1.0839
14623TIP3   OH265359   3.905   4.302  14.096 -0.3550 -0.4005  0.0065
14623TIP3    H165360   3.953   4.347  14.165 -1.6386 -0.2766  0.8334
14623TIP3    H265361   3.833   4.360  14.074 -2.0509 -1.9872  1.1105
14624TIP3   OH265362   6.223   4.464  13.035 -0.0104  0.3759 -0.4679
14624TIP3    H165363   6.305   4.469  13.084  0.2113 -1.1371 -0.6288
14624TIP3    H265364   6.173   4.541  13.063  0.3338 -0.1372  1.7027
14625TIP3   OH265365   6.196   6.344  15.527 -0.2412  0.8878  0.1684
14625TIP3    H165366   6.125   6.399  15.560 -0.8903  0.5066 -0.5769
14625TIP3    H265367   6.274   6.376  15.573 -0.7680  1.7930  0.4580
14626TIP3   OH265368   4.569   3.823  15.380  0.3183  0.4874  0.3239
14626TIP3    H165369   4.572   3.728  15.373  0.4850  0.5975 -1.3445
14626TIP3    H265370   4.630   3.844  15.451  0.7584 -0.5962  0.2824
14627TIP3   OH265371   2.734   0.944   2.707  0.3285 -0.6895 -0.2297
14627TIP3    H165372   2.780   1.014   2.662 -1.1467  0.3337 -0.1910
14627TIP3    H265373   2.696   0.891   2.637  0.6089 -0.8734 -0.2425
14628TIP3   OH265374   3.614   4.572  13.690  0.2714 -0.1257  0.0145
14628TIP3    H165375   3.624   4.487  13.647 -0.9008  0.5363 -1.6690
14628TIP3    H265376   3.625   4.635  13.619  1.5418  1.1753  1.3105
14629TIP3   OH265377   0.265   0.072  15.281 -0.5717  0.1244 -0.6218
14629TIP3    H165378   0.309   0.128  15.217 -0.8596 -0.3672 -1.2576
14629TIP3    H265379   0.172   0.086  15.266 -0.6580  0.8463  0.4478
14630TIP3   OH265380   0.498   2.258  10.852 -0.3974 -0.1088  0.2501
14630TIP3    H165381   0.460   2.180  10.811 -0.3907  0.1337 -0.2239
14630TIP3    H265382   0.516   2.232  10.943 -3.6719  0.3870  1.1477
14631TIP3   OH265383   0.644   5.292   3.965 -0.2787 -0.4819 -0.1589
14631TIP3    H165384   0.713   5.242   4.009  0.1982  1.7121  1.7343
14631TIP3    H265385   0.567   5.281   4.021 -0.0068  1.3054  0.6307
14632TIP3   OH265386   3.883   5.140  16.516 -0.1944 -0.6500 -0.1092
14632TIP3    H165387   3.906   5.109  16.428  0.3142  0.5294 -0.4026
14632TIP3    H265388   3.836   5.222  16.501  2.2931  1.0372  0.7941
14633TIP3   OH265389   1.989   5.538  15.951 -0.4967  0.4375  0.0742
14633TIP3    H165390   1.942   5.520  15.870 -1.2398  0.6018  0.4644
14633TIP3    H265391   2.034   5.621  15.936  0.7960 -0.3717 -0.7830
14634TIP3   OH265392   0.911   2.751  16.900  0.6593 -0.0565 -0.4417
14634TIP3    H165393   0.944   2.688  16.963 -0.3619 -0.4934 -0.3280
14634TIP3    H265394   0.952   2.726  16.817 -1.9261 -2.7724 -1.0652
14635TIP3   OH265395   0.132   4.865   0.704 -0.0830  0.0959  0.3545
14635TIP3    H165396   0.047   4.902   0.681 -1.4452 -3.3971 -0.8900
14635TIP3    H265397   0.181   4.864   0.621  1.0463  1.5296  0.9456
14636TIP3   OH265398   2.012   0.572  12.992  1.1137 -0.1114  0.6783
14636TIP3    H165399   2.058   0.488  12.981  0.2632 -0.7862  1.9957
14636TIP3    H265400   1.936   0.565  12.935  2.6036  1.0588 -1.6068
14637TIP3   OH265401   6.356   3.994  11.556  0.0524 -0.0577 -0.0484
14637TIP3    H165402   6.421   4.052  11.595 -0.9085  1.3311 -0.4622
14637TIP3    H265403   6.301   3.967  11.629 -0.1410  0.4042 -0.0247
14638TIP3   OH265404   5.945   1.726  15.707 -0.0830 -0.6275 -0.0510
14638TIP3    H165405   5.865   1.716  15.656 -2.2791  0.0383  3.0404
14638TIP3    H265406   6.004   1.774  15.649 -2.2223 -0.2927 -2.1037
14639TIP3   OH265407   5.678   3.945   2.105  1.0574 -0.4672  0.3516
14639TIP3    H165408   5.685   4.007   2.033  0.7490 -0.6034  0.2043
14639TIP3    H265409   5.640   3.866   2.066  1.6583 -0.8328  0.4901
14640TIP3   OH265410   1.634   5.543   5.666 -0.2164  0.4876  0.5095
14640TIP3    H165411   1.687   5.466   5.687 -0.8875 -0.1354 -0.0317
14640TIP3    H265412   1.602   5.574   5.751  0.1570  0.2431  0.7420
14641TIP3   OH265413   5.904   1.274   6.244  0.0588 -0.0075  0.4115
14641TIP3    H165414   5.941   1.355   6.280  1.1647  0.0124 -0.6952
14641TIP3    H265415   5.929   1.206   6.307  1.4982  0.1137  0.0226
14642TIP3   OH265416   5.842   5.718   3.729 -0.3401  0.8057  0.1225
14642TIP3    H165417   5.795   5.799   3.747 -0.7257  0.3805  1.0729
14642TIP3    H265418   5.864   5.683   3.815  0.3964  0.2310 -0.2904
14643TIP3   OH265419   6.061   1.333   1.819  0.1032 -0.5783  0.5443
14643TIP3    H165420   6.115   1.288   1.753 -1.5842  0.6109 -1.7875
14643TIP3    H265421   6.124   1.369   1.880  2.0363  0.5947 -1.9420
14644TIP3   OH265422   0.951   2.195   3.935 -0.3075  0.0081 -0.0195
14644TIP3    H165423   0.956   2.248   4.014 -0.5718 -0.7297  0.4977
14644TIP3    H265424   0.986   2.110   3.960 -0.9580 -0.4229 -0.5211
14645TIP3   OH265425   3.042   2.575  16.537 -0.0267 -0.0277 -0.6412
14645TIP3    H165426   3.134   2.556  16.521  0.0909 -1.6975  1.5472
14645TIP3    H265427   3.001   2.488  16.543 -0.7799  0.4343  3.2572
14646TIP3   OH265428   2.177   0.514   1.901 -0.2472 -0.8844  0.0808
14646TIP3    H165429   2.131   0.553   1.975  0.8036 -1.3064  0.9842
14646TIP3    H265430   2.116   0.448   1.867 -3.1462  2.9356 -3.0308
14647TIP3   OH265431   0.573   6.184   2.965 -0.1424  0.5928  0.0668
14647TIP3    H165432   0.625   6.163   2.888  0.3157 -0.5617  0.6635
14647TIP3    H265433   0.598   6.118   3.029  1.7816  3.2577  2.3010
14648TIP3   OH265434   2.795   0.601   5.356  0.2899  0.1253 -0.0068
14648TIP3    H165435   2.886   0.570   5.356 -0.1480 -1.3143 -1.2215
14648TIP3    H265436   2.799   0.685   5.310  0.7173 -1.1847 -2.5908
14649TIP3   OH265437   2.546   5.287  13.592  0.4595  0.3695 -0.6863
14649TIP3    H165438   2.595   5.205  13.595  0.8950  0.6411  0.7489
14649TIP3    H265439   2.461   5.266  13.630  0.7651  0.6718  0.2076
14650TIP3   OH265440   4.207   1.506   1.179 -0.2225  0.4013  0.2532
14650TIP3    H165441   4.301   1.492   1.163 -0.3294  0.5293 -0.5301
14650TIP3    H265442   4.197   1.601   1.184  0.2363  0.4136  3.9317
14651TIP3   OH265443   2.280   2.607   2.283  1.0880 -0.5096 -0.1283
14651TIP3    H165444   2.353   2.661   2.253  0.6244  1.1871  1.5772
14651TIP3    H265445   2.250   2.561   2.205  1.1870  2.1296 -1.8402
14652TIP3   OH265446   6.727   1.716   3.015 -0.6101 -0.0163  0.0801
14652TIP3    H165447   6.669   1.768   3.070 -0.3481  1.3407 -0.8797
14652TIP3    H265448   6.814   1.727   3.053 -0.6324 -0.2276  0.1990
14653TIP3   OH265449   2.169   6.421  14.244 -0.4938  0.3962  0.0979
14653TIP3    H165450   2.200   6.350  14.188 -0.8206  0.0686  0.3277
14653TIP3    H265451   2.075   6.426  14.227 -0.6337  0.1607  0.7564
14654TIP3   OH265452   1.754   4.493  15.522 -0.6088  0.0670 -0.0557
14654TIP3    H165453   1.848   4.498  15.504 -0.6127  0.3964  0.0160
14654TIP3    H265454   1.744   4.421  15.584 -0.4436 -0.1998 -0.3367
14655TIP3   OH265455   3.918   1.946   1.999  0.2131  0.0775  0.0903
14655TIP3    H165456   3.939   2.008   1.930 -1.6003  1.5167  0.7597
14655TIP3    H265457   3.996   1.889   2.005  1.9949  2.3204 -0.4661
14656TIP3   OH265458   5.437   1.442   3.425  0.5788  0.4598  0.4488
14656TIP3    H165459   5.484   1.483   3.352 -0.5424 -0.4392 -0.8394
14656TIP3    H265460   5.407   1.516   3.478 -2.3527  1.5657 -2.4056
14657TIP3   OH265461   0.023   2.499  15.867  0.3108 -0.0254 -0.5573
14657TIP3    H165462  -0.062   2.529  15.898  0.1829 -0.2180 -0.7259
14657TIP3    H265463   0.013   2.406  15.852  0.4470  0.0189 -0.9333
14658TIP3   OH265464   2.488   1.150  17.145 -0.0494  0.3258 -0.3445
14658TIP3    H165465   2.564   1.094  17.132  1.1022  1.7597  0.0369
14658TIP3    H265466   2.491   1.211  17.072 -0.1224  1.1691  0.3468
14659TIP3   OH265467   1.210   4.365   3.643 -0.2854  1.3938 -0.7884
14659TIP3    H165468   1.251   4.354   3.729 -0.6818 -1.3728 -0.8506
14659TIP3    H265469   1.269   4.423   3.595  1.4883  0.6742  0.4284
14660TIP3   OH265470   2.506   0.028   1.572 -0.5136 -0.1939 -0.3365
14660TIP3    H165471   2.528  -0.049   1.519  0.0781 -0.2612 -0.0114
14660TIP3    H265472   2.414   0.017   1.595 -0.2904 -1.1133  0.1846
14661TIP3   OH265473   6.344   4.056  13.849 -0.5400 -0.2945 -0.1272
14661TIP3    H165474   6.412   3.989  13.845  1.7140  1.8855 -2.1300
14661TIP3    H265475   6.272   4.020  13.798  0.9208 -0.9893 -1.8367
14662TIP3   OH265476   4.228   4.870  12.107 -0.1642 -0.8270 -0.0988
14662TIP3    H165477   4.262   4.954  12.074 -1.0147 -0.1437  0.6969
14662TIP3    H265478   4.286   4.847  12.180  0.1084 -0.9626 -0.3594
14663TIP3   OH265479   6.216   4.715  11.085 -0.1023 -0.7638 -0.3144
14663TIP3    H165480   6.244   4.634  11.042 -1.2176 -1.5087  0.3136
14663TIP3    H265481   6.136   4.740  11.038  1.0721  0.8841 -1.5555
14664TIP3   OH265482   5.819   2.372  11.605 -0.3844  0.0545  0.2533
14664TIP3    H165483   5.779   2.454  11.633 -0.6434  0.0946 -0.2309
14664TIP3    H265484   5.892   2.398  11.549 -0.6122 -0.0508 -0.0911
14665TIP3   OH265485   0.263   6.645   0.801  0.0006 -0.0333 -0.1288
14665TIP3    H165486   0.329   6.714   0.811  2.3774 -2.2137  0.2149
14665TIP3    H265487   0.220   6.642   0.886  0.5627  0.3844  0.1835
14666TIP3   OH265488   2.828   4.171  12.259  0.1499  0.0836 -0.3462
14666TIP3    H165489   2.899   4.151  12.198 -0.1562  0.0713 -0.6982
14666TIP3    H265490   2.866   4.153  12.345  1.2672  2.0837 -0.3598
14667TIP3   OH265491   2.858   1.349  17.059 -0.3105  0.2484 -0.3058
14667TIP3    H165492   2.892   1.278  17.004  0.3888 -0.6428  1.2110
14667TIP3    H265493   2.899   1.335  17.144 -1.9339  1.1321  0.6761
14668TIP3   OH265494   4.236   2.646   0.506 -0.1640 -0.3746 -0.0958
14668TIP3    H165495   4.294   2.655   0.431 -0.0363 -0.4545 -0.0062
14668TIP3    H265496   4.149   2.664   0.471 -0.2054 -1.1797 -0.4437
14669TIP3   OH265497   4.743   0.837   2.033 -0.0333  0.1343 -0.3441
14669TIP3    H165498   4.790   0.885   2.101  0.4011 -0.3486 -0.3022
14669TIP3    H265499   4.778   0.749   2.037 -1.2984 -0.3801  0.0348
14670TIP3   OH265500   1.947   0.786  14.624 -0.7531  0.4007  0.2196
14670TIP3    H165501   1.868   0.770  14.572  0.6686 -0.1119 -1.9319
14670TIP3    H265502   2.005   0.835  14.566  0.7251  0.3310  1.5511
14671TIP3   OH265503   0.913   4.964   5.977 -0.2134  0.0241  0.4793
14671TIP3    H165504   0.904   4.923   5.891 -0.7236 -0.1374  0.6041
14671TIP3    H265505   0.826   4.997   5.997 -0.4174 -1.0556  1.4835
14672TIP3   OH265506   1.848   1.000   6.481  0.2180 -0.4921  0.2207
14672TIP3    H165507   1.903   1.078   6.487  2.5638 -2.0187 -0.4905
14672TIP3    H265508   1.896   0.932   6.528 -1.0869 -1.8812 -0.3642
14673TIP3   OH265509   0.382   3.477   0.556  0.5137 -0.3833 -0.2639
14673TIP3    H165510   0.321   3.438   0.494  0.7380 -0.2687 -0.5546
14673TIP3    H265511   0.457   3.504   0.503  0.3939  0.3684 -0.0540
14674TIP3   OH265512   2.614   4.523   5.234 -0.2721 -0.8682  0.4024
14674TIP3    H165513   2.674   4.596   5.216  0.0724 -1.1672  0.3133
14674TIP3    H265514   2.667   4.445   5.219 -0.2462 -1.1396  1.7665
14675TIP3   OH265515   5.478   0.813  13.126  0.4006  0.1667  0.1577
14675TIP3    H165516   5.449   0.904  13.128 -2.8174 -0.6830  2.8676
14675TIP3    H265517   5.490   0.790  13.218 -0.6498 -2.5449 -0.2869
14676TIP3   OH265518   5.968   1.017  14.817 -0.1280  0.4060  0.3699
14676TIP3    H165519   5.998   1.086  14.757 -0.3113 -0.7600 -1.1391
14676TIP3    H265520   6.046   0.963  14.831 -0.3377  0.0994  0.3546
14677TIP3   OH265521   1.440   1.255  16.618  0.0544 -0.3215 -0.0287
14677TIP3    H165522   1.411   1.323  16.557 -2.0799 -2.1770 -1.2268
14677TIP3    H265523   1.519   1.291  16.658  0.2434  1.9383 -2.1900
14678TIP3   OH265524   6.552   5.277  14.022 -0.3933 -0.1944  0.3562
14678TIP3    H165525   6.573   5.311  13.935  0.8553 -0.6705  0.4502
14678TIP3    H265526   6.456   5.274  14.024 -0.4386 -1.0132 -1.3419
14679TIP3   OH265527   1.874   1.023   6.211 -0.4586  0.0694  0.0185
14679TIP3    H165528   1.823   1.039   6.291 -0.9790 -0.6920 -0.1525
14679TIP3    H265529   1.888   1.110   6.174 -1.1851  0.3331  0.3493
14680TIP3   OH265530   0.493   1.289  16.731  0.4284 -0.2991 -0.0231
14680TIP3    H165531   0.446   1.235  16.667 -1.2799 -0.3095  1.1859
14680TIP3    H265532   0.476   1.379  16.702 -1.8339 -0.2172  1.2996
14681TIP3   OH265533   0.344   0.429   6.037 -0.0938  0.0751  0.1260
14681TIP3    H165534   0.306   0.344   6.017 -1.6335  0.8499 -0.3914
14681TIP3    H265535   0.269   0.484   6.061  0.9665  1.0357  1.4098
14682TIP3   OH265536   2.411   1.494  12.449  0.2246 -0.6213 -0.2180
14682TIP3    H165537   2.323   1.531  12.451  0.5648  0.1988 -0.2368
14682TIP3    H265538   2.399   1.404  12.480 -0.6354 -0.5582 -0.3436
14683TIP3   OH265539   0.480   1.340   3.276 -0.3655  0.0836  0.1830
14683TIP3    H165540   0.488   1.260   3.328 -2.1571 -0.0033  0.3951
14683TIP3    H265541   0.400   1.327   3.225 -0.7351  1.7768  0.2816
14684TIP3   OH265542   4.933   2.639   2.638  0.0576  0.1816 -0.4134
14684TIP3    H165543   4.957   2.623   2.547 -2.1752  1.1532 -1.2291
14684TIP3    H265544   4.963   2.729   2.655  0.6395 -0.0636 -0.1036
14685TIP3   OH265545   1.704   3.549  15.151  0.3095 -0.0319 -0.1094
14685TIP3    H165546   1.665   3.627  15.110  0.2579 -0.0743 -0.1414
14685TIP3    H265547   1.790   3.541  15.110  0.0275 -0.4158 -0.6426
14686TIP3   OH265548   2.256   6.543   1.562  0.1178  0.6359  0.2511
14686TIP3    H165549   2.249   6.471   1.500  0.3539  1.1972 -0.4433
14686TIP3    H265550   2.165   6.570   1.578 -0.1744 -1.3558  2.4082
14687TIP3   OH265551   4.519   1.511   5.441 -0.0406 -0.9110 -0.1123
14687TIP3    H165552   4.583   1.483   5.376  0.9577  0.4095  0.2532
14687TIP3    H265553   4.557   1.590   5.480 -0.3160 -1.9516  2.4863
14688TIP3   OH265554   6.192   2.911   6.599 -0.1143 -0.5907 -0.0486
14688TIP3    H165555   6.236   2.985   6.557 -1.6990  0.8698  0.7764
14688TIP3    H265556   6.110   2.901   6.551 -1.9316  1.0569  2.4886
14689TIP3   OH265557   3.233   6.165  15.536  0.4165  0.0681  0.2896
14689TIP3    H165558   3.242   6.152  15.631  1.5705  1.7569  0.4469
14689TIP3    H265559   3.279   6.247  15.518 -1.6309  0.9485 -1.4171
14690TIP3   OH265560   3.053   6.805  14.619  0.0094 -0.3096  0.8008
14690TIP3    H165561   3.060   6.897  14.594 -2.7945  0.3750  2.1358
14690TIP3    H265562   3.137   6.784  14.660  0.7746  1.5659  0.2965
14691TIP3   OH265563   2.908   2.949  14.411  0.2574 -0.1662 -0.2250
14691TIP3    H165564   2.869   2.893  14.478  1.0227  0.8468  1.0979
14691TIP3    H265565   2.999   2.920  14.405  0.3860  0.2485 -0.2943
14692TIP3   OH265566   4.051   4.204   3.008 -0.2318 -0.4058 -0.2398
14692TIP3    H165567   4.059   4.162   2.922  0.4035 -0.9621  0.0803
14692TIP3    H265568   4.112   4.155   3.064  0.1322  0.6159  0.2740
14693TIP3   OH265569   4.544   5.988   5.673 -0.0701  0.2423  0.5559
14693TIP3    H165570   4.508   5.900   5.688 -0.3542  0.5377  1.7504
14693TIP3    H265571   4.472   6.047   5.697  0.5877  0.8086  1.1613
14694TIP3   OH265572   2.796   0.658  12.653  0.5748 -0.6642  0.0132
14694TIP3    H165573   2.884   0.692  12.640  0.8393 -1.3033  0.0656
14694TIP3    H265574   2.745   0.693  12.580  0.2746  1.6390  1.2479
14695TIP3   OH265575   4.850   6.296  15.750 -0.2522  0.3138 -0.1234
14695TIP3    H165576   4.918   6.318  15.686  0.6147 -0.9188  0.3399
14695TIP3    H265577   4.898   6.278  15.830 -1.3997  3.4462  1.4361
14696TIP3   OH265578   0.394   1.836  16.078 -0.8812 -0.8702  0.3968
14696TIP3    H165579   0.464   1.853  16.015 -0.0558  2.0127  1.9076
14696TIP3    H265580   0.336   1.774  16.034  0.9187 -0.8681 -2.1800
14697TIP3   OH265581   5.669   0.807   5.043 -0.4471 -0.0411 -0.0388
14697TIP3    H165582   5.679   0.782   5.135 -2.0162  1.1868  0.5114
14697TIP3    H265583   5.582   0.847   5.038 -0.6486 -0.6340 -2.2048
14698TIP3   OH265584   2.626   3.213  11.245 -0.3368 -0.2793 -0.0238
14698TIP3    H165585   2.705   3.191  11.295 -1.2988  0.6499  2.0274
14698TIP3    H265586   2.574   3.266  11.305 -1.3407  1.4050 -2.2437
14699TIP3   OH265587   1.487   1.190  11.267  0.0511 -0.6469  0.3604
14699TIP3    H165588   1.537   1.176  11.187  1.8164  1.6804  0.9430
14699TIP3    H265589   1.452   1.279  11.259 -0.8243 -0.8447  1.6268
14700TIP3   OH265590   5.881   2.802   4.177 -0.6136 -0.1003  0.1385
14700TIP3    H165591   5.911   2.823   4.088  0.1244  0.1723  0.4478
14700TIP3    H265592   5.814   2.868   4.195 -1.0713 -0.4108 -0.3669
14701TIP3   OH265593   5.924   2.098  17.027 -0.3547 -0.2393  0.3808
14701TIP3    H165594   5.885   2.181  17.057 -0.3247  0.4138 -1.3004
14701TIP3    H265595   5.927   2.106  16.932  1.6225 -1.3088  0.3124
14702TIP3   OH265596   3.826   0.194  16.723 -0.2933  0.0803  0.1378
14702TIP3    H165597   3.751   0.192  16.783 -1.6108  0.6449 -1.4149
14702TIP3    H265598   3.835   0.103  16.694 -1.0410  0.1776 -0.4291
14703TIP3   OH265599   3.478   1.630   0.664 -0.1618  0.3934 -0.6494
14703TIP3    H165600   3.430   1.667   0.739 -0.4741  1.0886 -1.1797
14703TIP3    H265601   3.520   1.706   0.623 -1.6768  0.3665 -2.3790
14704TIP3   OH265602   4.568   3.466  16.525  0.0694  0.1862  0.3706
14704TIP3    H165603   4.577   3.413  16.605 -0.8396 -0.0295  0.3504
14704TIP3    H265604   4.647   3.448  16.475  0.7893  0.5319  1.3327
14705TIP3   OH265605   6.243   4.370  14.922  0.4157 -0.2878 -0.1977
14705TIP3    H165606   6.290   4.435  14.869  2.3392 -0.2877  1.4318
14705TIP3    H265607   6.152   4.400  14.920  0.8270  1.0224 -1.5281
14706TIP3   OH265608   2.272   1.063   0.090 -0.7160  0.0595 -0.4989
14706TIP3    H165609   2.360   1.025   0.084  0.5861  2.2395  2.1134
14706TIP3    H265610   2.275   1.140   0.033 -0.9850  0.0050 -0.5860
14707TIP3   OH265611   2.790   6.768  13.420 -0.2373  0.3700  0.0468
14707TIP3    H165612   2.749   6.690  13.456 -0.1965  1.1415  1.8638
14707TIP3    H265613   2.880   6.765  13.453  0.5795 -0.1814 -2.0982
14708TIP3   OH265614   5.235   4.172  11.725 -0.5686  0.0561  0.0936
14708TIP3    H165615   5.149   4.210  11.712 -0.4267  0.7672  1.1231
14708TIP3    H265616   5.250   4.118  11.647 -1.6867  0.3874 -0.3622
14709TIP3   OH265617   5.457   3.523   3.540 -0.0322 -0.6469  0.2015
14709TIP3    H165618   5.517   3.582   3.586 -0.9273  0.5060 -0.0523
14709TIP3    H265619   5.382   3.516   3.600 -0.9399  0.3761 -0.7630
14710TIP3   OH265620   3.872   6.516   3.545 -0.1628  0.3485  0.1809
14710TIP3    H165621   3.961   6.513   3.581 -0.6244  1.2945  1.5120
14710TIP3    H265622   3.815   6.508   3.622 -1.2174  1.2132 -0.4795
14711TIP3   OH265623   4.820   6.020   0.897 -0.0877 -0.1362  0.0230
14711TIP3    H165624   4.912   6.008   0.872 -0.0052 -0.6285  0.5365
14711TIP3    H265625   4.820   6.006   0.992 -0.6615  0.0591  0.0518
14712TIP3   OH265626   4.740   0.059   1.302 -0.6220  0.3125  0.2639
14712TIP3    H165627   4.703   0.146   1.284 -0.2432  0.3398 -0.4300
14712TIP3    H265628   4.738   0.015   1.218 -1.9522 -0.8132  0.8579
14713TIP3   OH265629   6.329   6.673  15.088  0.1954 -0.2920  0.6374
14713TIP3    H165630   6.239   6.667  15.055  0.2527 -0.6871  0.5494
14713TIP3    H265631   6.359   6.760  15.062  0.1207 -0.4680 -0.0408
14714TIP3   OH265632   3.392   1.634  16.517 -0.1913  0.2595 -0.1555
14714TIP3    H165633   3.485   1.620  16.498 -0.1001 -0.8165  0.9336
14714TIP3    H265634   3.365   1.703  16.457  1.6714  1.6675  0.5244
14715TIP3   OH265635   2.229   3.482  16.769  0.7229  0.4412 -0.1494
14715TIP3    H165636   2.288   3.554  16.791  0.9955  0.1328  0.1410
14715TIP3    H265637   2.205   3.497  16.678  1.8055  0.1849 -0.4899
14716TIP3   OH265638   6.195   0.916   6.354  0.5042 -0.3289 -0.1533
14716TIP3    H165639   6.134   0.846   6.329 -0.5220  0.7685 -0.8459
14716TIP3    H265640   6.255   0.874   6.415 -0.8195 -1.5190  0.4066
14717TIP3   OH265641   4.299   2.121   2.938 -0.1366 -0.4723  0.0180
14717TIP3    H165642   4.319   2.167   2.856  0.0304 -1.5961 -0.6027
14717TIP3    H265643   4.385   2.097   2.973 -0.2260 -1.6956 -0.5178
14718TIP3   OH265644   3.187   5.825  12.466  0.2599  0.4726 -0.3777
14718TIP3    H165645   3.101   5.859  12.492 -0.1056 -0.2874 -0.5621
14718TIP3    H265646   3.227   5.795  12.547 -0.0004  0.0666 -0.3940
14719TIP3   OH265647   5.982   5.850   0.172 -0.1910 -0.2620 -0.1528
14719TIP3    H165648   6.034   5.882   0.098  1.0105 -0.0526  0.7542
14719TIP3    H265649   6.023   5.768   0.197  0.4719  0.4756  1.3199
14720TIP3   OH265650   6.725   1.971   2.887  0.0311  0.0475  0.1319
14720TIP3    H165651   6.766   1.884   2.888  1.3585  0.6224 -0.8672
14720TIP3    H265652   6.733   2.002   2.977 -0.4009 -0.8337  0.4842
14721TIP3   OH265653   2.603   5.580  15.066  0.2775  0.3893  0.2357
14721TIP3    H165654   2.569   5.658  15.022  0.9108  0.7904  0.4475
14721TIP3    H265655   2.531   5.517  15.061  1.0871 -0.4456 -3.4362
14722TIP3   OH265656   5.782   6.640   3.534  1.4783  0.1077 -0.0808
14722TIP3    H165657   5.795   6.546   3.523  0.6407  0.1590 -1.9503
14722TIP3    H265658   5.758   6.650   3.626  0.0324 -1.7185 -0.1949
14723TIP3   OH265659   3.353   0.356  16.752  0.1707 -0.0732  0.1271
14723TIP3    H165660   3.376   0.414  16.679  0.0162 -0.2692 -0.0772
14723TIP3    H265661   3.317   0.415  16.818  1.8377  0.3438  0.7146
14724TIP3   OH265662   5.973   2.697   5.054  0.5705  0.0733 -0.5050
14724TIP3    H165663   5.920   2.638   4.999 -1.5603  0.2581  1.2266
14724TIP3    H265664   5.980   2.777   5.003 -1.4889  0.2906 -0.5285
14725TIP3   OH265665   3.206   2.872   5.790 -0.4197 -0.5739  0.0164
14725TIP3    H165666   3.252   2.856   5.873  1.8916 -0.3931 -1.1660
14725TIP3    H265667   3.244   2.809   5.729 -1.3398  0.0158 -1.2046
14726TIP3   OH265668   2.402   6.596  17.148  0.3545 -0.0318  0.0547
14726TIP3    H165669   2.336   6.539  17.187 -0.4457  0.7565 -0.1115
14726TIP3    H265670   2.457   6.538  17.097  0.7217 -0.9334  1.4081
14727TIP3   OH265671   4.639   3.948   0.998  0.1516  0.7717  0.4102
14727TIP3    H165672   4.607   3.872   0.948  2.2563  0.0280  0.0793
14727TIP3    H265673   4.570   3.966   1.061 -1.2304 -0.2304 -0.7457
14728TIP3   OH265674   6.293   6.187  11.306  0.5224 -0.3962 -0.5213
14728TIP3    H165675   6.366   6.151  11.257 -0.5421 -0.3679 -2.2035
14728TIP3    H265676   6.218   6.134  11.280 -0.7074  1.6977 -1.5357
14729TIP3   OH265677   4.863   3.867   3.492 -0.2512 -0.1681  0.3749
14729TIP3    H165678   4.806   3.849   3.567  0.6178 -1.3785  0.7848
14729TIP3    H265679   4.915   3.787   3.482 -0.5471 -0.1378 -1.7270
14730TIP3   OH265680   2.884   2.188   1.327  0.9837  0.7979  0.2986
14730TIP3    H165681   2.865   2.152   1.413  1.9217  1.1969  0.6868
14730TIP3    H265682   2.957   2.135   1.294  0.5863  0.6020 -0.2833
14731TIP3   OH265683   3.016   2.943  12.871 -0.0534  0.1990 -0.2646
14731TIP3    H165684   2.960   3.000  12.924  0.7459  0.4355  0.3327
14731TIP3    H265685   3.088   2.999  12.843  0.3745 -0.3423 -0.2504
14732TIP3   OH265686   6.397   0.172   5.738  0.0278 -0.2018  0.4431
14732TIP3    H165687   6.339   0.181   5.662 -1.4473  0.4813  1.5878
14732TIP3    H265688   6.468   0.234   5.723 -0.0990 -0.2866 -0.5083
14733TIP3   OH265689   6.082   4.880   3.586 -0.6820  0.1474  0.7690
14733TIP3    H165690   6.066   4.807   3.527  0.4884 -0.6427  1.3923
14733TIP3    H265691   6.024   4.863   3.661  0.4661 -0.8327  1.4660
14734TIP3   OH265692   1.231   3.321   3.786  0.0542  0.4114 -0.1659
14734TIP3    H165693   1.145   3.290   3.758  0.6946  0.3240 -2.1572
14734TIP3    H265694   1.283   3.242   3.797  0.6665  0.5661 -1.7552
14735TIP3   OH265695   0.842   3.969  10.347 -0.5082 -0.7484  0.4107
14735TIP3    H165696   0.827   4.035  10.415 -0.8955 -0.4734  0.0681
14735TIP3    H265697   0.785   3.896  10.371 -0.8121 -0.5617  0.2648
14736TIP3   OH265698   2.277   6.257   5.744 -0.2590 -0.6897  0.0382
14736TIP3    H165699   2.289   6.229   5.835  0.4222 -0.5329  0.0038
14736TIP3    H265700   2.286   6.352   5.747 -0.9356 -0.6188 -0.0934
14737TIP3   OH265701   2.822   5.420   5.306  0.2555 -0.4681  0.1462
14737TIP3    H165702   2.852   5.342   5.259  0.8250 -0.2842  0.1922
14737TIP3    H265703   2.727   5.419   5.298  0.3323 -0.5743 -0.7841
14738TIP3   OH265704   4.630   0.107   5.367  0.5003  0.4178 -0.1111
14738TIP3    H165705   4.605   0.021   5.332 -1.2675  1.0601 -0.5091
14738TIP3    H265706   4.612   0.168   5.296 -1.1676  1.4792  1.1552
14739TIP3   OH265707   2.688   5.244  11.316 -0.2243 -0.6068  0.3450
14739TIP3    H165708   2.741   5.301  11.260 -0.4785  0.0484  0.7563
14739TIP3    H265709   2.728   5.253  11.402 -0.6998 -0.5001  0.5531
14740TIP3   OH265710   4.670   6.317  15.146  0.2519 -0.0843  0.4846
14740TIP3    H165711   4.751   6.332  15.097 -1.1900  0.2509 -1.9693
14740TIP3    H265712   4.631   6.404  15.154 -1.4617 -0.6034 -1.4403
14741TIP3   OH265713   0.160   3.747  17.020 -0.2655 -1.0739 -0.1275
14741TIP3    H165714   0.241   3.795  17.038  0.7842 -2.9291  0.3279
14741TIP3    H265715   0.095   3.815  17.004  1.0025  0.4993  1.1089
14742TIP3   OH265716   0.809   4.991  11.946  0.4699 -0.2151  0.5848
14742TIP3    H165717   0.741   4.925  11.950  0.3639 -0.1642 -0.1969
14742TIP3    H265718   0.891   4.941  11.951  0.3961 -0.4431 -0.2153
14743TIP3   OH265719   0.826   3.843  12.192  0.0848 -0.6283 -0.4172
14743TIP3    H165720   0.743   3.843  12.240  0.4395 -1.8898  0.2175
14743TIP3    H265721   0.807   3.792  12.113 -0.5174  1.4912 -1.7559
14744TIP3   OH265722   3.467   1.858   1.713  0.8741  0.3149  0.3552
14744TIP3    H165723   3.393   1.802   1.690 -0.1329  1.2301  1.2280
14744TIP3    H265724   3.521   1.805   1.771  1.3512 -0.6412 -0.9316
14745TIP3   OH265725   1.272   3.948   0.007 -0.1813 -0.3458 -0.3332
14745TIP3    H165726   1.227   3.887   0.065  0.4972 -1.6871 -1.1755
14745TIP3    H265727   1.342   3.986   0.060 -0.3108 -0.6639  0.0606
14746TIP3   OH265728   5.549   1.027  13.338  0.0909 -0.1865  0.6134
14746TIP3    H165729   5.591   1.066  13.261 -0.9160 -0.7541 -0.2567
14746TIP3    H265730   5.534   1.100  13.398 -0.7985  0.6139 -0.5326
14747TIP3   OH265731   2.671   6.063  11.324  0.5197  0.1725  0.6000
14747TIP3    H165732   2.639   6.096  11.240  0.3093 -1.1781  0.1271
14747TIP3    H265733   2.745   6.121  11.345 -0.1254  1.2355  0.0638
14748TIP3   OH265734   5.175   3.771  12.178 -0.3487  0.0812  0.1619
14748TIP3    H165735   5.105   3.713  12.207 -0.8602  0.8048  0.3778
14748TIP3    H265736   5.131   3.839  12.128  0.2846  0.1239 -0.3628
14749TIP3   OH265737   2.887   4.192  15.069  0.1198  0.5561  0.0516
14749TIP3    H165738   2.838   4.236  15.000  0.7915  2.5798  0.8145
14749TIP3    H265739   2.978   4.192  15.038 -0.0593 -2.0179 -0.7640
14750TIP3   OH265740   6.477   2.511  16.958  0.0717  0.3308 -0.0526
14750TIP3    H165741   6.476   2.607  16.957  2.2014  0.4805  2.1644
14750TIP3    H265742   6.507   2.486  16.870  1.9009  1.8702  0.0638
14751TIP3   OH265743   5.535   1.841  13.976  0.2964 -0.2492  0.2544
14751TIP3    H165744   5.468   1.808  14.036 -1.8857  1.3585 -1.1530
14751TIP3    H265745   5.495   1.836  13.890  2.3106  0.0519 -0.7461
14752TIP3   OH265746   4.719   5.516  12.028  0.0344 -0.0728 -0.0277
14752TIP3    H165747   4.639   5.539  11.980 -0.5423  0.5774  1.2159
14752TIP3    H265748   4.790   5.550  11.973 -0.5653  0.0172 -0.7770
14753TIP3   OH265749   1.667   3.107  16.437 -0.7178  0.0205  0.6307
14753TIP3    H165750   1.711   3.158  16.505  0.3967 -0.8640  0.5986
14753TIP3    H265751   1.577   3.140  16.436 -0.4290  0.8700  1.6984
14754TIP3   OH265752   6.311   0.348  14.140  0.0531 -0.0931 -0.3759
14754TIP3    H165753   6.323   0.443  14.139  0.3661 -0.1017 -2.6175
14754TIP3    H265754   6.390   0.314  14.182 -0.4483  0.6455  1.2285
14755TIP3   OH265755   6.666   4.220  14.199  0.5604 -0.2103 -0.7694
14755TIP3    H165756   6.687   4.286  14.264  0.5175 -1.0542  0.1239
14755TIP3    H265757   6.628   4.269  14.126 -1.0878  0.5702  0.5689
14756TIP3   OH265758   6.215   3.879   5.183  0.2012  0.2963  0.3000
14756TIP3    H165759   6.127   3.843   5.169 -0.4064  1.8719 -0.1833
14756TIP3    H265760   6.272   3.803   5.189 -0.8868 -0.7336 -1.5869
14757TIP3   OH265761   4.551   5.809   0.445 -0.1552  0.5360  0.5218
14757TIP3    H165762   4.518   5.815   0.356 -0.5051 -1.9494  0.4141
14757TIP3    H265763   4.619   5.876   0.450  0.0832  0.5282 -1.6972
14758TIP3   OH265764   6.448   0.635  13.565 -0.1655  0.4292  0.0548
14758TIP3    H165765   6.448   0.730  13.551 -1.1335  0.5279  0.6128
14758TIP3    H265766   6.423   0.625  13.656 -2.4888 -0.4145 -0.6072
14759TIP3   OH265767   6.819   4.679   2.626  0.1253  0.0603 -0.5535
14759TIP3    H165768   6.810   4.585   2.643  0.8240  0.5071  2.8853
14759TIP3    H265769   6.743   4.718   2.668  0.0504  1.1079 -1.6130
14760TIP3   OH265770   1.007   1.432   2.596 -0.0582  0.1664 -0.2486
14760TIP3    H165771   1.071   1.417   2.526  1.0560  3.5178 -0.1556
14760TIP3    H265772   1.061   1.445   2.674 -1.0393  0.1537  0.4453
14761TIP3   OH265773   1.087   5.589   5.556  0.1587 -0.3010 -0.2124
14761TIP3    H165774   1.070   5.601   5.463 -0.4459 -0.1126 -0.0786
14761TIP3    H265775   1.175   5.550   5.560 -0.9933 -3.2488 -1.0291
14762TIP3   OH265776   3.802   0.225   5.965 -0.5563  0.1255 -0.0659
14762TIP3    H165777   3.719   0.182   5.945 -0.1102 -0.7386 -0.1179
14762TIP3    H265778   3.841   0.170   6.033 -0.0017  0.4854 -0.0887
14763TIP3   OH265779   4.859   4.265  16.730 -0.2549  0.4008 -0.3625
14763TIP3    H165780   4.766   4.253  16.712 -0.4685 -0.8921  1.2844
14763TIP3    H265781   4.894   4.176  16.735  0.4076  0.7193  1.9736
14764TIP3   OH265782   1.247   1.036  14.274  0.6973  0.1822  0.5285
14764TIP3    H165783   1.277   0.945  14.265  1.3833  0.4850 -0.3457
14764TIP3    H265784   1.314   1.087  14.229 -1.4159  0.8666 -2.0281
14765TIP3   OH265785   6.835   0.578  12.902 -0.3713 -0.5806 -0.3948
14765TIP3    H165786   6.797   0.666  12.904 -0.9831 -0.8527  0.1692
14765TIP3    H265787   6.900   0.582  12.832 -1.1585  0.0089 -1.1059
14766TIP3   OH265788   4.453   2.530   4.572 -0.3445 -0.3733 -0.1574
14766TIP3    H165789   4.532   2.506   4.621 -1.1987 -0.4540  1.2357
14766TIP3    H265790   4.426   2.614   4.610  0.5067  1.0362 -2.4233
14767TIP3   OH265791   0.858   5.563  13.010  0.0680  0.2657  0.0139
14767TIP3    H165792   0.854   5.526  12.921 -0.1782 -1.2549  0.6307
14767TIP3    H265793   0.777   5.535  13.051  0.8593 -0.3589  1.1986
14768TIP3   OH265794   1.969   2.521   3.564  0.5758 -0.1776 -0.2892
14768TIP3    H165795   1.904   2.579   3.525 -0.1936 -0.9037 -0.1116
14768TIP3    H265796   2.031   2.503   3.493 -0.4082 -0.8975 -0.9930
14769TIP3   OH265797   0.333   6.013  10.621 -0.1101  0.6529  0.7142
14769TIP3    H165798   0.352   5.920  10.604  0.5924  0.8609  0.3262
14769TIP3    H265799   0.238   6.019  10.615 -0.0914  0.1617 -0.4313
14770TIP3   OH265800   4.753   6.557  15.849  0.0802  0.4425 -0.0172
14770TIP3    H165801   4.664   6.550  15.816 -0.0195  0.6497  0.2005
14770TIP3    H265802   4.809   6.530  15.776 -0.1680  0.1289 -0.0909
14771TIP3   OH265803   3.616   6.251   1.988 -0.2012  0.2701 -0.3352
14771TIP3    H165804   3.600   6.213   2.075 -1.8043  0.9736 -0.2936
14771TIP3    H265805   3.559   6.202   1.929  1.4711 -0.7555 -1.1811
14772TIP3   OH265806   0.200   5.824   1.822  0.4099 -0.4770  0.4906
14772TIP3    H165807   0.169   5.743   1.781  0.9123  1.1093 -3.3887
14772TIP3    H265808   0.296   5.820   1.813  0.4092  0.7432 -0.2093
14773TIP3   OH265809   0.525   4.332   5.013 -0.3620 -0.0748  0.2399
14773TIP3    H165810   0.436   4.296   5.023 -0.8386  1.3530  1.6196
14773TIP3    H265811   0.562   4.328   5.101 -0.1991  2.0973  0.3263
14774TIP3   OH265812   3.635   6.466   2.230  0.0266 -0.0884 -0.2216
14774TIP3    H165813   3.699   6.466   2.159 -0.7782  0.3949 -0.9674
14774TIP3    H265814   3.583   6.387   2.216 -0.4365  0.2530 -0.4630
14775TIP3   OH265815   3.995   4.856  15.964  0.1396  0.3866  0.5935
14775TIP3    H165816   3.919   4.875  15.909  0.4246 -0.3242 -0.0640
14775TIP3    H265817   4.012   4.938  16.010  0.0278  1.0836 -0.5551
14776TIP3   OH265818   3.657   6.135   3.509  0.0802 -0.0507 -0.0724
14776TIP3    H165819   3.681   6.125   3.601  2.2297 -0.9193 -0.6550
14776TIP3    H265820   3.626   6.048   3.483  0.4666 -0.0921 -0.4057
14777TIP3   OH265821   5.365   6.637   5.191  0.1845  0.0633  0.3223
14777TIP3    H165822   5.460   6.633   5.199  0.1300 -2.6765  0.4433
14777TIP3    H265823   5.347   6.723   5.153  2.6674  0.7414  0.5563
14778TIP3   OH265824   5.373   0.096  14.490  0.4258 -0.5721 -0.4867
14778TIP3    H165825   5.436   0.049  14.434 -1.4300 -0.1764 -3.1218
14778TIP3    H265826   5.335   0.162  14.432 -0.6957  0.8109  1.6999
14779TIP3   OH265827   4.483   4.878  13.280 -0.3947  0.0549 -0.3305
14779TIP3    H165828   4.416   4.827  13.235 -0.8262  1.8477 -1.8395
14779TIP3    H265829   4.452   4.969  13.274  0.9532  0.6646  1.1387
14780TIP3   OH265830   3.016   0.368   1.199 -0.3039 -0.1212  0.4603
14780TIP3    H165831   2.954   0.306   1.237 -0.0237 -0.6211  0.1225
14780TIP3    H265832   3.093   0.315   1.178 -0.2699  0.2409 -0.3512
14781TIP3   OH265833   0.743   2.603   1.163 -0.3038  0.2646  0.4218
14781TIP3    H165834   0.704   2.625   1.078 -3.3415 -3.1685  0.6710
14781TIP3    H265835   0.686   2.645   1.227  2.5359  3.6785  1.0085
14782TIP3   OH265836   0.239   4.311  12.611 -0.5280  0.0217 -0.5334
14782TIP3    H165837   0.285   4.244  12.560 -0.2469  0.2733 -0.6097
14782TIP3    H265838   0.194   4.365  12.546  0.9344  1.1802 -0.6285
14783TIP3   OH265839   6.172   4.942  12.219 -0.1610  0.0257 -0.2519
14783TIP3    H165840   6.185   5.011  12.284  1.4451 -2.4012  2.2079
14783TIP3    H265841   6.083   4.912  12.233  0.4145 -1.0172  1.5206
14784TIP3   OH265842   3.961   0.848   6.056 -0.0074 -0.2255 -0.1133
14784TIP3    H165843   3.951   0.819   6.147  0.1343  0.4904  0.1394
14784TIP3    H265844   3.884   0.903   6.040 -0.7289 -1.3977 -0.8655
14785TIP3   OH265845   0.357   2.988   0.658  0.8353 -0.3280  0.1643
14785TIP3    H165846   0.288   2.946   0.607  1.2744 -0.6055 -0.2122
14785TIP3    H265847   0.438   2.963   0.613  1.0569  2.4927 -1.2906
14786TIP3   OH265848   3.210   3.657   2.798  0.2916 -0.0301  0.0896
14786TIP3    H165849   3.254   3.668   2.714 -1.3796  2.6387 -0.5432
14786TIP3    H265850   3.133   3.603   2.779 -0.3903  1.0363 -0.2594
14787TIP3   OH265851   6.462   6.597   5.265 -0.1486  0.1665  1.0422
14787TIP3    H165852   6.417   6.524   5.308 -0.1926 -0.2815  0.2564
14787TIP3    H265853   6.462   6.667   5.330 -0.9614 -0.2104  1.4652
14788TIP3   OH265854   1.700   2.211  15.001  0.6454  0.0955  0.0928
14788TIP3    H165855   1.614   2.238  15.035  0.8109 -0.0942  0.6760
14788TIP3    H265856   1.728   2.140  15.059  0.9592 -0.2096 -0.4238
14789TIP3   OH265857   1.916   0.545  13.754  0.2004  0.0428 -0.0576
14789TIP3    H165858   1.996   0.594  13.734 -0.4494  0.7959 -0.8855
14789TIP3    H265859   1.853   0.573  13.687 -0.1323 -2.1241 -0.7342
14790TIP3   OH265860   3.400   0.100  14.639  0.6578  0.4479  0.4109
14790TIP3    H165861   3.457   0.024  14.638  1.0719  0.7611 -0.4591
14790TIP3    H265862   3.385   0.121  14.547 -0.1841  0.8745  0.6315
14791TIP3   OH265863   5.635   4.404  14.964  0.2039  0.2012 -0.6203
14791TIP3    H165864   5.550   4.360  14.958  0.4086 -0.3016  0.0014
14791TIP3    H265865   5.631   4.452  15.047  1.4287 -1.8852  0.7705
14792TIP3   OH265866   4.814   5.951  17.183 -0.0457 -0.4151  0.3182
14792TIP3    H165867   4.795   5.860  17.205  1.4330 -0.3779  1.9285
14792TIP3    H265868   4.734   5.999  17.207 -0.9444 -1.2880 -0.8305
14793TIP3   OH265869   4.516   6.532   4.306 -0.2007  0.5496 -0.8453
14793TIP3    H165870   4.421   6.532   4.300 -0.2252  1.8448 -0.7836
14793TIP3    H265871   4.544   6.456   4.255 -1.2292  0.5573 -1.4416
14794TIP3   OH265872   4.842   6.620   1.867 -0.4410 -0.7328 -0.4113
14794TIP3    H165873   4.796   6.648   1.788 -0.5968 -0.6522 -0.2915
14794TIP3    H265874   4.870   6.701   1.909  0.6894 -0.7977 -0.9999
14795TIP3   OH265875   0.761   2.708  14.327  0.7542  0.1268 -0.1215
14795TIP3    H165876   0.839   2.714  14.383  0.9953  2.6508 -0.6191
14795TIP3    H265877   0.696   2.663  14.381  2.2244 -1.1631  0.6531
14796TIP3   OH265878   5.059   2.800  14.708  0.5450 -0.1109 -0.2194
14796TIP3    H165879   5.138   2.807  14.763 -0.1246 -0.9142  0.8764
14796TIP3    H265880   5.062   2.712  14.672 -0.5394 -0.6386  0.9289
14797TIP3   OH265881   5.703   2.385  14.385  0.2653 -0.0955 -0.1209
14797TIP3    H165882   5.757   2.312  14.416 -0.8282 -0.7786  0.2022
14797TIP3    H265883   5.654   2.350  14.311 -0.6180  0.1675  0.3324
14798TIP3   OH265884   6.212   3.579  13.439 -0.2320 -0.3463 -0.1820
14798TIP3    H165885   6.197   3.583  13.344 -0.6267 -1.5149 -0.1858
14798TIP3    H265886   6.294   3.530  13.448  0.2601  0.4988  0.0673
14799TIP3   OH265887   1.974   2.364  15.476  0.7753  0.3311  0.0775
14799TIP3    H165888   2.030   2.434  15.510 -0.4278  1.9693 -1.1702
14799TIP3    H265889   1.984   2.368  15.381 -0.0840 -0.5284 -0.0747
14800TIP3   OH265890   2.985   4.714  11.747 -0.5681 -0.0406 -0.3546
14800TIP3    H165891   2.913   4.707  11.684  0.0150  2.0853 -1.3363
14800TIP3    H265892   2.946   4.753  11.825 -1.2869 -2.6586  0.7335
14801TIP3   OH265893   6.097   4.637  11.334 -0.1845  0.1308  0.1044
14801TIP3    H165894   6.110   4.697  11.408 -0.9208 -0.1863  0.4947
14801TIP3    H265895   6.127   4.688  11.258  2.0890 -0.0985  0.7642
14802TIP3   OH265896   2.322   6.339  16.292 -0.7552 -0.5798 -0.7659
14802TIP3    H165897   2.287   6.279  16.226 -0.5089 -2.0668  0.3944
14802TIP3    H265898   2.405   6.299  16.319  0.1345  1.0348 -0.9280
14803TIP3   OH265899   6.079   2.571   0.309 -0.3922 -0.0775  0.0906
14803TIP3    H165900   6.046   2.554   0.398 -0.7851 -1.0118 -0.2208
14803TIP3    H265901   6.127   2.491   0.286  0.5161  0.5319 -0.1841
14804TIP3   OH265902   5.127   5.343   1.621  0.4010 -0.1380 -0.1737
14804TIP3    H165903   5.049   5.373   1.575  0.5643  1.8397  0.7732
14804TIP3    H265904   5.191   5.413   1.610  0.7644  0.0010  2.2052
14805TIP3   OH265905   4.853   2.394  16.819 -0.1260  0.3178  0.1707
14805TIP3    H165906   4.795   2.333  16.865  0.3664 -0.3044 -0.0197
14805TIP3    H265907   4.810   2.479  16.828 -1.7744 -0.3320 -1.1342
14806TIP3   OH265908   3.220   3.735  15.982  0.2577  0.0173 -0.8083
14806TIP3    H165909   3.188   3.679  15.912 -0.0691  0.1454 -0.7637
14806TIP3    H265910   3.262   3.809  15.937 -1.9710  1.3007 -0.9360
14807TIP3   OH265911   1.343   6.742   2.557 -0.1537  0.1019 -0.1543
14807TIP3    H165912   1.373   6.821   2.512  0.2434 -1.5024 -2.9694
14807TIP3    H265913   1.416   6.681   2.550 -0.8519 -0.9079  0.9219
14808TIP3   OH265914   4.233   4.741  13.760  0.3503 -0.0220  0.0206
14808TIP3    H165915   4.163   4.681  13.785  1.5899 -1.0491  1.2440
14808TIP3    H265916   4.227   4.812  13.825  0.4856 -0.1514  0.1758
14809TIP3   OH265917   2.199   1.991   4.544  0.9982 -0.4368 -0.0137
14809TIP3    H165918   2.171   1.928   4.611 -0.5627 -0.4402 -0.6285
14809TIP3    H265919   2.227   2.068   4.594  0.8650 -0.8328  0.6783
14810TIP3   OH265920   4.713   4.938  11.590  0.1366  0.6953  0.5356
14810TIP3    H165921   4.683   4.876  11.657  1.3919 -0.4319  0.1085
14810TIP3    H265922   4.646   5.006  11.589  0.2092  0.9312  3.1439
14811TIP3   OH265923   4.371   5.865  15.713 -0.1324  0.3336 -0.2376
14811TIP3    H165924   4.431   5.792  15.699 -0.5137  0.0700 -0.5154
14811TIP3    H265925   4.291   5.825  15.747 -0.2821  0.6389 -0.2225
14812TIP3   OH265926   3.006   3.475  13.075 -0.2542 -0.2243 -0.2391
14812TIP3    H165927   3.098   3.450  13.072 -0.5737 -1.6188  0.8873
14812TIP3    H265928   2.965   3.413  13.135 -2.1883 -0.4094 -1.6534
14813TIP3   OH265929   4.630   3.198  12.722  0.3498 -0.1920  0.0914
14813TIP3    H165930   4.544   3.199  12.764  0.4443  0.8480  0.2886
14813TIP3    H265931   4.655   3.291  12.715  1.9590 -0.5145  1.0854
14814TIP3   OH265932   2.862   0.050  15.810 -0.1071  0.1617  0.0263
14814TIP3    H165933   2.895  -0.026  15.762  0.6664  0.3040  0.3272
14814TIP3    H265934   2.909   0.049  15.893  0.3189  1.2709 -0.1799
14815TIP3   OH265935   2.398   2.037   4.082 -0.3076 -0.9371 -0.3845
14815TIP3    H165936   2.437   2.074   4.162  0.8111 -1.3127 -0.7334
14815TIP3    H265937   2.314   2.082   4.074  0.1313  0.0670  0.3022
14816TIP3   OH265938   5.702   3.264  13.574 -0.0086 -0.0851 -0.5990
14816TIP3    H165939   5.759   3.276  13.650 -2.0272 -3.2054  1.6851
14816TIP3    H265940   5.755   3.215  13.512  1.0224  0.6072 -0.2952
14817TIP3   OH265941   0.976   6.086  12.748 -0.5913  0.2270  0.2054
14817TIP3    H165942   1.053   6.072  12.693  0.3474  1.6896  1.0764
14817TIP3    H265943   0.910   6.027  12.712  0.3557  0.2629 -1.7180
14818TIP3   OH265944   0.663   6.049   1.619  0.4506 -0.7346  0.6690
14818TIP3    H165945   0.713   6.018   1.544 -0.0599  0.1108 -0.0361
14818TIP3    H265946   0.595   5.983   1.631  1.1783 -1.4262  1.0748
14819TIP3   OH265947   2.396   1.755   5.025 -0.5658 -0.3726  0.4486
14819TIP3    H165948   2.490   1.761   5.043 -0.3138  1.2365 -1.0970
14819TIP3    H265949   2.378   1.661   5.024  0.5840 -0.6891  2.6717
14820TIP3   OH265950   2.680   0.625   6.546  0.0829 -0.1565 -0.4655
14820TIP3    H165951   2.632   0.559   6.496 -1.0393 -0.1372  0.5475
14820TIP3    H265952   2.706   0.690   6.480 -0.1882 -0.8024 -1.2258
14821TIP3   OH265953   5.510   4.942  13.925 -0.1492  0.5006 -0.0160
14821TIP3    H165954   5.591   4.904  13.892 -0.3370 -0.3939  0.5338
14821TIP3    H265955   5.529   4.965  14.016 -0.2230  1.1805 -0.1644
14822TIP3   OH265956   2.925   3.237  12.822 -0.2984  0.4781 -0.3109
14822TIP3    H165957   2.930   3.315  12.767  0.1151  0.1605 -0.7325
14822TIP3    H265958   3.013   3.201  12.822 -0.3101  0.4412  0.5255
14823TIP3   OH265959   5.977   5.082   3.402  0.3822 -0.1194  0.4000
14823TIP3    H165960   6.020   5.016   3.456  0.8188  0.5669  0.9114
14823TIP3    H265961   6.046   5.113   3.343  0.2069 -0.0466  0.2345
14824TIP3   OH265962   6.534   2.238  10.856 -0.1682 -0.3255 -0.1596
14824TIP3    H165963   6.614   2.198  10.821 -0.9156 -0.2879 -2.0616
14824TIP3    H265964   6.503   2.176  10.922  0.5056 -1.2026 -0.6334
14825TIP3   OH265965   6.054   5.531   3.484  0.4349  0.8174  0.6957
14825TIP3    H165966   6.052   5.477   3.563  0.6325 -0.1658  0.0467
14825TIP3    H265967   6.146   5.532   3.457 -0.0048 -1.6598 -1.3453
14826TIP3   OH265968   1.500   2.278   2.772  0.4453 -0.3856  0.0602
14826TIP3    H165969   1.451   2.339   2.718 -0.2950  0.2345  1.3945
14826TIP3    H265970   1.459   2.283   2.858  0.5001 -2.6095  0.2778
14827TIP3   OH265971   2.676   2.031   4.781 -0.2687  0.3622 -0.5384
14827TIP3    H165972   2.769   2.009   4.796 -0.6120 -0.3158  0.7945
14827TIP3    H265973   2.672   2.126   4.793  0.1828  0.3362 -0.1518
14828TIP3   OH265974   3.315   2.580   1.710  0.0780  0.5377 -0.2449
14828TIP3    H165975   3.258   2.536   1.646  2.6847 -0.3440 -2.1511
14828TIP3    H265976   3.358   2.508   1.756  0.2852  1.1733  0.5688
14829TIP3   OH265977   2.052   3.691  13.424 -0.1308  0.3730  0.9061
14829TIP3    H165978   2.103   3.680  13.344  0.0897 -0.5390  1.1586
14829TIP3    H265979   2.110   3.738  13.484 -0.3152  1.1057  0.5198
14830TIP3   OH265980   3.672   4.461   1.507 -0.3527 -0.3516 -0.3793
14830TIP3    H165981   3.585   4.477   1.470 -0.5238  0.4044  0.3311
14830TIP3    H265982   3.660   4.470   1.601  0.4306 -0.5802 -0.2527
14831TIP3   OH265983   2.752   2.215  15.878 -0.1823 -0.7152 -0.3756
14831TIP3    H165984   2.730   2.128  15.912 -3.7091  0.3567  0.4617
14831TIP3    H265985   2.768   2.200  15.785  0.7316 -2.3966 -0.0059
14832TIP3   OH265986   2.198   6.640  15.591 -0.5346  0.1465  0.5293
14832TIP3    H165987   2.168   6.723  15.553 -0.1635 -0.5040 -1.2627
14832TIP3    H265988   2.277   6.619  15.543 -0.1328 -0.8255  1.5771
14833TIP3   OH265989   3.906   5.751  12.237 -0.5646  0.2762  0.0590
14833TIP3    H165990   3.818   5.719  12.260 -0.3135  0.0734  0.7396
14833TIP3    H265991   3.918   5.721  12.146 -0.6422 -0.9445  0.4253
14834TIP3   OH265992   3.110   2.762   5.459  0.2827  0.5271 -0.4193
14834TIP3    H165993   3.032   2.727   5.502  1.0473  1.4410  1.8115
14834TIP3    H265994   3.182   2.746   5.520  1.3702  2.1494 -1.1874
14835TIP3   OH265995   4.894   6.415  13.477 -0.0694 -0.3836  0.5452
14835TIP3    H165996   4.978   6.461  13.471  0.2732 -0.9877  0.6299
14835TIP3    H265997   4.911   6.328  13.442 -0.3882 -0.8702  1.5331
14836TIP3   OH265998   6.797   3.504  12.720  0.0154 -0.0769 -0.2415
14836TIP3    H165999   6.810   3.453  12.801  0.5891  0.0424 -0.2565
14836TIP3    H266000   6.874   3.484  12.667  0.4539  1.1234 -0.0799
14837TIP3   OH266001   5.479   6.775  15.234 -0.6272 -0.0323 -0.1656
14837TIP3    H166002   5.429   6.856  15.245  0.8188  0.8925 -0.0386
14837TIP3    H266003   5.565   6.804  15.203 -0.6902 -1.6851 -2.1277
14838TIP3   OH266004   5.266   2.185  15.670  0.4122 -0.2290 -0.7812
14838TIP3    H166005   5.259   2.223  15.758 -0.2708  0.5861 -1.1693
14838TIP3    H266006   5.240   2.256  15.612 -0.5554 -1.1945 -1.5606
14839TIP3   OH266007   0.422   5.581  10.691  0.5014  0.2995 -0.6033
14839TIP3    H166008   0.369   5.502  10.703 -0.5827  1.1685  0.6644
14839TIP3    H266009   0.357   5.651  10.678  1.3569  1.2891  0.3356
14840TIP3   OH266010   3.622   6.366   2.597  0.2301 -0.4249  0.6459
14840TIP3    H166011   3.700   6.380   2.651  0.1507 -1.5112  1.0610
14840TIP3    H266012   3.637   6.282   2.554  0.2679  0.4040 -1.0062
14841TIP3   OH266013   2.314   2.099   3.210 -0.0583  0.1544  0.0484
14841TIP3    H166014   2.284   2.152   3.136 -1.8335 -1.4261 -0.4224
14841TIP3    H266015   2.332   2.013   3.173  0.6043 -0.2139  1.1832
14842TIP3   OH266016   5.480   6.434   3.664 -0.0362  0.4260 -0.0299
14842TIP3    H166017   5.477   6.518   3.620  1.1627  1.3225  1.4799
14842TIP3    H266018   5.569   6.429   3.700 -0.5356 -0.8151  1.1404
14843TIP3   OH266019   3.554   3.163   1.774 -0.2976 -0.0253  0.3189
14843TIP3    H166020   3.584   3.234   1.718  0.9191 -1.8262 -1.4443
14843TIP3    H266021   3.486   3.118   1.723  0.7348 -1.6104  0.2508
14844TIP3   OH266022   2.876   3.233   3.899  0.3185 -0.3588 -0.2235
14844TIP3    H166023   2.933   3.157   3.895  0.7783 -0.1173  1.1042
14844TIP3    H266024   2.866   3.262   3.808  2.9608  0.0748 -0.4542
14845TIP3   OH266025   0.188   0.139  14.218  0.1034 -0.5244  0.6923
14845TIP3    H166026   0.113   0.087  14.190  0.1897 -0.8169  0.9873
14845TIP3    H266027   0.164   0.229  14.200  0.0543 -0.6846 -0.0737
14846TIP3   OH266028   1.034   0.669   4.469 -0.0323  0.0910  0.8199
14846TIP3    H166029   1.026   0.652   4.375 -0.3802 -1.5139  1.1020
14846TIP3    H266030   1.109   0.728   4.476 -0.1657  0.4580 -0.4781
14847TIP3   OH266031   3.940   3.657   0.627 -0.1965 -0.6123 -0.4715
14847TIP3    H166032   3.932   3.612   0.711  1.0068 -3.5595 -1.8004
14847TIP3    H266033   3.852   3.656   0.590 -0.4287 -0.6753  0.0702
14848TIP3   OH266034   0.779   6.597   6.130 -0.1239  0.5215  0.0555
14848TIP3    H166035   0.750   6.534   6.065  0.5233  1.3008 -1.0274
14848TIP3    H266036   0.701   6.617   6.182 -0.1567 -1.7902  1.0109
14849TIP3   OH266037   2.309   2.237   5.041 -0.0992  0.0273 -0.0341
14849TIP3    H166038   2.224   2.194   5.050  0.2160 -0.8163 -0.9072
14849TIP3    H266039   2.288   2.330   5.031 -0.9932 -0.2806 -1.2580
14850TIP3   OH266040   4.424   1.771   2.462  0.1740  0.3098 -0.1538
14850TIP3    H166041   4.332   1.748   2.476  0.5751 -1.1377  0.3601
14850TIP3    H266042   4.464   1.689   2.433  1.6245  0.4775  1.2452
14851TIP3   OH266043   3.609   4.468   5.304 -0.4410 -0.3222  0.2074
14851TIP3    H166044   3.636   4.466   5.212 -0.6207 -1.6663  0.1556
14851TIP3    H266045   3.616   4.377   5.333 -0.8471  0.0003  1.3918
14852TIP3   OH266046   5.910   6.083   2.766 -0.5495  0.4159 -0.2676
14852TIP3    H166047   5.870   5.996   2.767  2.3563 -1.0291  0.7054
14852TIP3    H266048   5.931   6.099   2.674 -0.9481  0.0155 -0.4313
14853TIP3   OH266049   0.636   1.518  14.743 -0.7480 -0.1334 -0.1795
14853TIP3    H166050   0.576   1.557  14.806  1.0164  1.0659  0.8205
14853TIP3    H266051   0.688   1.457  14.794 -0.7677 -0.7925 -0.9354
14854TIP3   OH266052   5.938   5.154   0.998  0.2464  0.0033  0.2131
14854TIP3    H166053   6.026   5.184   0.977  0.4142 -1.2736 -1.0028
14854TIP3    H266054   5.917   5.089   0.931 -2.0969  1.1154 -0.2602
14855TIP3   OH266055   1.614   3.795   3.579 -0.4172  0.2829  0.0292
14855TIP3    H166056   1.642   3.806   3.670 -0.3141 -0.2347  0.0638
14855TIP3    H266057   1.581   3.882   3.554 -0.3488  0.4599  0.5230
14856TIP3   OH266058   4.765   3.957   4.559  0.4558  0.0872  0.7480
14856TIP3    H166059   4.707   4.005   4.500  0.8256  0.2530  0.5168
14856TIP3    H266060   4.774   3.870   4.519  1.2068  0.3989  0.2200
14857TIP3   OH266061   6.364   6.573   2.097  0.7126  0.4494  0.2402
14857TIP3    H166062   6.446   6.588   2.049  1.1072  1.4874  1.1899
14857TIP3    H266063   6.375   6.621   2.179 -0.9359  0.7862  0.3050
14858TIP3   OH266064   4.926   0.344   0.266  0.2136 -0.1607 -0.3760
14858TIP3    H166065   4.911   0.416   0.205  0.5468 -0.4126 -0.7593
14858TIP3    H266066   4.865   0.360   0.338 -0.0241  0.2597 -0.6701
14859TIP3   OH266067   3.920   6.075   2.878 -0.0727  0.1630 -0.3497
14859TIP3    H166068   4.012   6.054   2.860  0.2463  0.2882  0.9935
14859TIP3    H266069   3.892   6.008   2.940 -0.3049  1.1934  0.7110
14860TIP3   OH266070   4.351   4.209  16.378  0.7102 -0.1940 -0.2967
14860TIP3    H166071   4.373   4.301  16.389  1.0854 -0.3248  0.0919
14860TIP3    H266072   4.303   4.186  16.457 -1.5284  0.2663 -1.4434
14861TIP3   OH266073   2.552   0.220  17.208  0.2846 -0.5646 -0.2490
14861TIP3    H166074   2.509   0.306  17.205 -0.6047 -0.9673  0.5756
14861TIP3    H266075   2.524   0.182  17.291  2.7377 -0.6000  0.6544
14862TIP3   OH266076   2.854   1.742  12.754  0.0996 -0.2342  0.1446
14862TIP3    H166077   2.876   1.709  12.841  0.0525 -0.2317  0.1572
14862TIP3    H266078   2.764   1.774  12.763  0.1235 -0.1597  0.1146
14863TIP3   OH266079   4.559   0.671   1.512  0.1033 -0.6190  0.6076
14863TIP3    H166080   4.516   0.743   1.558  0.2970 -1.5163  2.2576
14863TIP3    H266081   4.582   0.708   1.426 -2.3496  0.4189  0.3057
14864TIP3   OH266082   3.150   2.652  13.489 -0.4081  0.1523 -0.1879
14864TIP3    H166083   3.225   2.699  13.526  0.0937 -1.9275  1.6959
14864TIP3    H266084   3.189   2.577  13.443 -1.2518  0.5143 -1.5414
14865TIP3   OH266085   3.189   3.041   4.461 -0.1073  0.3631  0.0342
14865TIP3    H166086   3.213   3.073   4.374  0.0135  0.5745  0.1445
14865TIP3    H266087   3.142   2.960   4.444  0.4412  0.0906 -0.1957
14866TIP3   OH266088   3.435   4.036  11.217 -0.4035  0.5517 -0.3149
14866TIP3    H166089   3.488   4.030  11.137 -1.6624 -1.8581 -1.0986
14866TIP3    H266090   3.424   3.945  11.244 -1.2729  1.2269  1.7782
14867TIP3   OH266091   6.778   6.576   1.183 -0.6094  0.0793 -1.0093
14867TIP3    H166092   6.804   6.622   1.103 -0.7086  0.5646 -0.7724
14867TIP3    H266093   6.851   6.517   1.202  0.4818  1.6086 -0.2059
14868TIP3   OH266094   3.902   6.220  14.324 -0.1693  0.2188 -0.1310
14868TIP3    H166095   3.808   6.234  14.334  0.0842  0.4291  3.1620
14868TIP3    H266096   3.918   6.136  14.367  1.1279  0.0538 -0.8931
14869TIP3   OH266097   3.508   2.743   1.251  0.2084 -0.8468  0.2962
14869TIP3    H166098   3.587   2.695   1.229  0.2522 -0.1698 -1.1663
14869TIP3    H266099   3.461   2.752   1.168 -0.4706  0.4103  0.7834
14870TIP3   OH266100   3.379   1.244  11.208 -0.0712  0.6840  0.0938
14870TIP3    H166101   3.394   1.189  11.285 -1.3221  0.8275  0.4521
14870TIP3    H266102   3.309   1.303  11.234 -2.0131 -0.6528 -1.8284
14871TIP3   OH266103   1.735   2.607  16.784  0.0348 -0.0990 -0.8569
14871TIP3    H166104   1.642   2.586  16.793 -0.1453  0.4505 -1.3410
14871TIP3    H266105   1.780   2.545  16.841 -0.7410  0.6579  0.6448
14872TIP3   OH266106   4.875   0.200   5.088 -0.6327 -0.0521  0.4730
14872TIP3    H166107   4.870   0.227   5.180 -1.3670 -3.4814  1.5719
14872TIP3    H266108   4.801   0.141   5.076 -0.2107 -0.1402 -2.2034
14873TIP3   OH266109   5.453   4.436  12.717  0.0824 -0.0650  0.0083
14873TIP3    H166110   5.413   4.361  12.761 -1.4254 -0.0574 -1.2745
14873TIP3    H266111   5.547   4.420  12.723 -0.1356 -0.8916  1.7327
14874TIP3   OH266112   6.793   1.653   5.592  0.0503 -0.2360 -0.3250
14874TIP3    H166113   6.777   1.679   5.501  1.7010  2.1774 -0.0250
14874TIP3    H266114   6.880   1.689   5.612  0.1202 -1.4815  1.9440
14875TIP3   OH266115   4.397   5.908   4.538 -0.3937  0.0260  0.1800
14875TIP3    H166116   4.350   5.886   4.458  0.3918 -0.5275 -0.1472
14875TIP3    H266117   4.439   5.992   4.520  2.0315 -1.3157 -1.0707
14876TIP3   OH266118   3.883   0.426   4.320 -0.2225 -0.2224 -0.4981
14876TIP3    H166119   3.859   0.442   4.229 -0.9803  1.5776 -0.0117
14876TIP3    H266120   3.933   0.504   4.347  1.4703 -1.4500  0.1656
14877TIP3   OH266121   5.779   6.000   3.803 -0.0894  0.2307 -0.1910
14877TIP3    H166122   5.726   6.046   3.868  2.2662  0.5588  1.6091
14877TIP3    H266123   5.757   6.043   3.720  1.0808  3.9125  1.1996
14878TIP3   OH266124   3.702   6.111   3.795  0.5109 -0.5301  0.2261
14878TIP3    H166125   3.666   6.077   3.877 -2.1737 -2.0452 -1.4246
14878TIP3    H266126   3.796   6.098   3.803  0.1956 -2.0184  2.4672
14879TIP3   OH266127   1.991   3.987   5.211 -0.2080 -0.1652  0.2859
14879TIP3    H166128   1.904   3.997   5.248 -0.6648 -0.3416 -0.7057
14879TIP3    H266129   1.994   3.896   5.181  0.9942 -0.7385  1.9540
14880TIP3   OH266130   2.544   0.764  13.770  0.3959 -0.4562 -0.4417
14880TIP3    H166131   2.506   0.738  13.686  1.0140 -1.2188 -0.4845
14880TIP3    H266132   2.613   0.701  13.787 -0.3732 -0.9276  1.1311
14881TIP3   OH266133   5.149   2.573   1.026 -0.5913  0.0113 -0.8880
14881TIP3    H166134   5.241   2.548   1.024 -1.1950 -3.3330  2.0032
14881TIP3    H266135   5.143   2.638   1.097 -0.4951 -0.0569 -0.8171
14882TIP3   OH266136   0.654   3.197  16.586  0.4057  0.7475 -0.1281
14882TIP3    H166137   0.696   3.189  16.672 -1.1980  1.7572  0.8073
14882TIP3    H266138   0.614   3.112  16.571 -1.4426  1.2565  1.3799
14883TIP3   OH266139   0.615   1.979   3.251  0.4492  0.2286 -0.3558
14883TIP3    H166140   0.672   2.022   3.187  1.1833 -1.1166 -0.6345
14883TIP3    H266141   0.552   1.930   3.198 -0.6486  1.2660 -0.0450
14884TIP3   OH266142   0.405   4.848  13.134 -0.8075  0.6784  0.1133
14884TIP3    H166143   0.482   4.862  13.079 -0.6926  1.5662  0.4831
14884TIP3    H266144   0.386   4.935  13.171 -1.3703  0.2611  0.8241
14885TIP3   OH266145   4.335   4.021   4.394  0.2880 -0.4323 -0.2063
14885TIP3    H166146   4.387   3.950   4.430  0.9766 -0.2982 -0.9058
14885TIP3    H266147   4.248   3.983   4.380  0.4597 -0.9328  0.0794
14886TIP3   OH266148   2.444   4.131   2.305  0.2069 -0.0409 -0.4143
14886TIP3    H166149   2.446   4.227   2.303 -0.3507 -0.0006  0.2440
14886TIP3    H266150   2.362   4.110   2.351  0.7236 -0.8210  0.1835
14887TIP3   OH266151   6.269   6.677  14.730 -0.1176  0.2108  1.1679
14887TIP3    H166152   6.192   6.718  14.771 -2.6447 -1.2913 -1.6520
14887TIP3    H266153   6.260   6.698  14.637  3.4913  0.6743  0.7832
14888TIP3   OH266154   1.388   1.793   5.055 -0.5933 -0.7133 -0.0985
14888TIP3    H166155   1.376   1.718   5.113 -1.2310 -0.3002  0.3191
14888TIP3    H266156   1.299   1.821   5.033 -0.4189 -2.0008 -2.8086
14889TIP3   OH266157   6.600   5.938   2.903 -0.0557 -0.2971  0.2441
14889TIP3    H166158   6.540   5.872   2.939  2.5578 -2.9152  0.1969
14889TIP3    H266159   6.679   5.931   2.957  0.5627  2.4886 -0.1407
14890TIP3   OH266160   3.225   4.572   3.208 -0.4680 -0.6589  0.5199
14890TIP3    H166161   3.298   4.562   3.146 -1.8353 -0.7419 -1.1455
14890TIP3    H266162   3.203   4.482   3.233 -0.8547 -0.7345 -0.0544
14891TIP3   OH266163   6.033   2.101   4.189 -0.1401  0.1556 -0.6696
14891TIP3    H166164   6.063   2.021   4.231  2.2597  0.9329 -0.7213
14891TIP3    H266165   5.987   2.072   4.111 -0.2720 -1.1774 -0.1119
14892TIP3   OH266166   0.730   2.224  16.638 -0.2945 -0.0255  0.2532
14892TIP3    H166167   0.661   2.284  16.667  0.0451  0.3979  0.2050
14892TIP3    H266168   0.762   2.263  16.557  0.9761  0.5660  1.0193
14893TIP3   OH266169   2.457   2.616   0.268  0.1187 -0.1954 -0.5107
14893TIP3    H166170   2.544   2.629   0.230 -0.4632 -1.0113 -2.1967
14893TIP3    H266171   2.402   2.681   0.224 -0.0226  0.8099  1.0662
14894TIP3   OH266172   5.305   3.628   3.333 -0.7237 -0.1514  0.6922
14894TIP3    H166173   5.354   3.572   3.391 -1.5253 -0.1971  1.3469
14894TIP3    H266174   5.282   3.705   3.386 -0.0441  0.5876 -0.0502
14895TIP3   OH266175   6.527   3.728   2.350 -0.3218  0.1375  0.4257
14895TIP3    H166176   6.490   3.800   2.299  0.2248  1.7859  2.2268
14895TIP3    H266177   6.451   3.682   2.386 -0.7051  1.6304  1.6133
14896TIP3   OH266178   1.065   1.305   2.859  0.1279  0.0461  0.5156
14896TIP3    H166179   1.154   1.324   2.830 -0.0753  1.2349  0.6446
14896TIP3    H266180   1.074   1.230   2.919  1.2337  1.1294  1.7486
14897TIP3   OH266181   0.933   3.443  13.008  0.2264  0.1776 -0.5793
14897TIP3    H166182   1.029   3.441  13.014  0.2014 -0.8209 -0.4686
14897TIP3    H266183   0.906   3.352  13.018 -0.8191  0.5963  0.6359
14898TIP3   OH266184   5.609   1.453   1.689  0.2015  0.2588  0.1918
14898TIP3    H166185   5.694   1.493   1.705  0.2585  1.4128 -2.5857
14898TIP3    H266186   5.548   1.503   1.744  1.2085 -0.4216  2.0101
14899TIP3   OH266187   3.378   2.471  13.677  0.5124  0.2901  0.1029
14899TIP3    H166188   3.309   2.407  13.661  0.1868  0.7379 -0.3263
14899TIP3    H266189   3.453   2.419  13.706  0.6364 -0.4339 -1.3797
14900TIP3   OH266190   3.838   2.157  13.788  0.8395 -0.0462 -0.3396
14900TIP3    H166191   3.878   2.204  13.714  1.3994  1.4885  0.8809
14900TIP3    H266192   3.864   2.208  13.865  0.2076 -1.5616  0.9194
14901TIP3   OH266193   5.215   3.307  12.496  0.0970  0.8273 -0.3700
14901TIP3    H166194   5.305   3.316  12.526 -0.3655  0.3868  1.3046
14901TIP3    H266195   5.198   3.212  12.501 -0.9609  1.0499  1.0629
14902TIP3   OH266196   5.654   2.718   1.033  0.1511  0.4616 -0.1830
14902TIP3    H166197   5.730   2.727   0.974 -0.5941 -2.1807 -1.7474
14902TIP3    H266198   5.689   2.735   1.120  1.9706  1.7484 -1.1003
14903TIP3   OH266199   1.781   2.215   1.290  0.2818  0.0849 -0.2789
14903TIP3    H166200   1.797   2.204   1.383  0.8447 -0.7008 -0.4568
14903TIP3    H266201   1.847   2.161   1.247 -1.7187 -1.9469 -1.0610
14904TIP3   OH266202   4.318   3.351   1.053  0.1365 -0.5366 -0.2723
14904TIP3    H166203   4.290   3.266   1.089 -2.2659  1.1669  2.3202
14904TIP3    H266204   4.351   3.399   1.129  0.7130  1.1261 -1.5178
14905TIP3   OH266205   6.033   2.420   4.374  0.7742  0.2361 -0.1027
14905TIP3    H166206   6.023   2.433   4.280  1.4926  0.1761 -0.1922
14905TIP3    H266207   5.962   2.361   4.398  0.5251  0.3319 -0.5858
14906TIP3   OH266208   4.663   3.421  16.781  0.9142 -0.4939 -0.3526
14906TIP3    H166209   4.736   3.401  16.839 -0.5246 -1.5121  1.1881
14906TIP3    H266210   4.663   3.517  16.775  0.7376 -0.3099  1.8587
14907TIP3   OH266211   1.857   4.224  13.186  0.2530  0.0714 -0.0923
14907TIP3    H166212   1.909   4.211  13.265  0.4516 -0.4243 -0.3038
14907TIP3    H266213   1.768   4.197  13.210  0.8318 -2.7280 -0.7954
14908TIP3   OH266214   5.202   3.043  14.393  0.5138 -0.5135  0.4647
14908TIP3    H166215   5.132   3.026  14.331  0.5105  1.1946 -0.0563
14908TIP3    H266216   5.277   2.995  14.359  0.7180  0.9605 -1.3347
14909TIP3   OH266217   6.214   3.656  16.604 -0.0319  0.4658 -0.2167
14909TIP3    H166218   6.211   3.588  16.536 -1.1492 -0.0695  0.3354
14909TIP3    H266219   6.272   3.723  16.568  1.2042 -0.8224 -0.7199
14910TIP3   OH266220   0.057   6.107   5.660  0.1885 -0.2098  0.0997
14910TIP3    H166221   0.013   6.026   5.634  2.3851 -1.2796 -0.5118
14910TIP3    H266222   0.024   6.173   5.600 -0.6038 -0.9484 -0.2939
14911TIP3   OH266223   6.638   5.385  14.276  0.8536 -0.4407  0.6399
14911TIP3    H166224   6.680   5.468  14.253  0.7343 -0.1615  1.4100
14911TIP3    H266225   6.596   5.356  14.195  0.3466  0.5752  0.5242
14912TIP3   OH266226   4.749   1.369  16.602 -0.4115 -0.0121 -0.5731
14912TIP3    H166227   4.738   1.464  16.605 -1.9251 -0.1726  1.7542
14912TIP3    H266228   4.669   1.337  16.559 -1.2716 -0.3343  1.1927
14913TIP3   OH266229   6.623   5.919   0.625 -0.4468 -0.1115 -0.1844
14913TIP3    H166230   6.548   5.863   0.642 -0.6670  0.5592  1.1977
14913TIP3    H266231   6.639   5.964   0.709  1.0128  0.3205 -0.6653
14914TIP3   OH266232   3.188   5.453   4.188 -0.0644  0.0377 -0.8942
14914TIP3    H166233   3.221   5.365   4.207  0.6217  0.4269 -0.2307
14914TIP3    H266234   3.096   5.439   4.165 -0.3247 -0.7336  0.4801
14915TIP3   OH266235   2.870   6.766   2.494  0.2723  0.2410 -0.4699
14915TIP3    H166236   2.836   6.697   2.436  0.9670 -2.3680  1.9605
14915TIP3    H266237   2.936   6.811   2.441  1.9874 -2.9927 -1.4002
14916TIP3   OH266238   5.387   4.473   2.738 -0.3206 -0.5125 -0.0464
14916TIP3    H166239   5.480   4.480   2.759  0.2128 -0.4689 -2.1163
14916TIP3    H266240   5.378   4.387   2.698 -1.2462 -0.6437  0.4200
14917TIP3   OH266241   5.477   0.273  15.229  0.0276  0.2695  0.2817
14917TIP3    H166242   5.428   0.315  15.159  0.1996 -0.1811 -0.1118
14917TIP3    H266243   5.568   0.297  15.213  0.1426 -0.3487 -0.0199
14918TIP3   OH266244   5.481   4.846   5.822 -0.3431 -0.4345  0.2742
14918TIP3    H166245   5.403   4.799   5.849  0.2120 -1.0588  0.8214
14918TIP3    H266246   5.475   4.849   5.726 -0.9593 -0.5921  0.3035
14919TIP3   OH266247   5.059   3.290  14.731  0.5152  0.1037 -0.0402
14919TIP3    H166248   5.146   3.325  14.712  0.5820  0.3377  0.6798
14919TIP3    H266249   5.073   3.226  14.800 -0.0173  0.9173  0.8436
14920TIP3   OH266250   3.369   5.647  15.471  0.0721  0.0341  0.4426
14920TIP3    H166251   3.408   5.575  15.520  0.6438 -0.3828 -0.5889
14920TIP3    H266252   3.432   5.666  15.402 -0.3916  1.0673  0.2837
14921TIP3   OH266253   6.768   2.894  11.218 -0.0905  0.4211  0.0350
14921TIP3    H166254   6.721   2.811  11.228  0.3955  0.1406  0.0207
14921TIP3    H266255   6.700   2.961  11.224 -0.2743  0.1086  1.7075
14922TIP3   OH266256   6.451   4.541  15.520  0.2828  0.1657  0.3000
14922TIP3    H166257   6.476   4.487  15.445 -1.2008 -0.9209  0.5428
14922TIP3    H266258   6.357   4.557  15.508  0.6913  2.8228  0.1946
14923TIP3   OH266259   0.371   6.490   1.008 -0.3043 -0.5994 -0.6156
14923TIP3    H166260   0.416   6.535   1.080 -1.9415  1.4715 -0.8012
14923TIP3    H266261   0.283   6.474   1.042 -0.7531 -0.6100 -1.7698
14924TIP3   OH266262   2.571   0.871   3.632  0.0727 -0.4213  0.8082
14924TIP3    H166263   2.480   0.858   3.657 -0.5280 -0.3619 -1.1737
14924TIP3    H266264   2.572   0.957   3.589  0.5806 -1.3315 -1.1040
14925TIP3   OH266265   1.641   3.993  15.725  0.1682  0.9693  0.0021
14925TIP3    H166266   1.667   4.033  15.642  1.5023  0.1208 -0.0238
14925TIP3    H266267   1.722   3.958  15.761 -0.8871 -1.6174  0.0777
14926TIP3   OH266268   2.367   2.577  12.474  0.1527  0.2885 -0.1999
14926TIP3    H166269   2.461   2.568  12.489  0.0906  0.0006  0.0120
14926TIP3    H266270   2.361   2.630  12.394  0.4745  1.8595  0.7804
14927TIP3   OH266271   0.112   0.599   6.153 -0.7624 -0.1993  0.1489
14927TIP3    H166272   0.030   0.550   6.160  0.5009 -2.5015 -0.3431
14927TIP3    H266273   0.159   0.580   6.235  0.6998 -1.7505 -0.9808
14928TIP3   OH266274   2.021   4.246   0.509 -0.2206  0.6341  0.3669
14928TIP3    H166275   2.000   4.337   0.528 -0.7595  0.4267  0.7652
14928TIP3    H266276   2.078   4.219   0.582 -1.1048  0.2753  0.9399
14929TIP3   OH266277   2.922   6.512   0.933 -0.2930  0.1357 -0.1086
14929TIP3    H166278   2.930   6.454   1.009  1.4906 -0.4411 -0.6966
14929TIP3    H266279   2.965   6.465   0.862 -1.6191  0.8246 -1.4030
14930TIP3   OH266280   3.236   4.079  16.104  0.1123  0.2030 -0.2100
14930TIP3    H166281   3.225   4.133  16.026 -2.3376 -1.0382 -0.8330
14930TIP3    H266282   3.318   4.032  16.089  0.4284  1.0565 -1.3226
14931TIP3   OH266283   1.155   0.955  13.298  0.5739 -0.1762 -0.2041
14931TIP3    H166284   1.097   0.951  13.221 -1.7997  1.5614  1.3672
14931TIP3    H266285   1.176   0.863  13.315  1.5279 -0.6144 -3.0908
14932TIP3   OH266286   3.487   5.996   0.747 -0.6123  0.6864  0.0103
14932TIP3    H166287   3.447   6.002   0.834  1.1055  0.4914  0.8624
14932TIP3    H266288   3.499   6.087   0.720 -0.5332  0.7604  0.2858
14933TIP3   OH266289   5.005   5.114   4.751  0.0283  0.3349 -0.2580
14933TIP3    H166290   4.992   5.031   4.705 -0.0554  0.2887 -0.1509
14933TIP3    H266291   4.936   5.116   4.818  1.5448 -0.7184  1.4496
14934TIP3   OH266292   3.065   3.557   4.586  0.1102 -0.5536  0.2154
14934TIP3    H166293   3.065   3.579   4.493  0.6451  0.3119  0.4097
14934TIP3    H266294   3.006   3.482   4.593 -2.3937  1.2327 -0.3938
14935TIP3   OH266295   4.088   0.035  12.716  0.3547  0.0809 -0.1365
14935TIP3    H166296   4.010  -0.014  12.742  0.7814  1.3105  4.3794
14935TIP3    H266297   4.160  -0.026  12.727  0.4806  0.4349  1.1003
14936TIP3   OH266298   4.097   0.440   0.065 -0.1607  0.5724  0.1888
14936TIP3    H166299   4.009   0.432   0.103 -0.1514  3.4674  1.0789
14936TIP3    H266300   4.155   0.399   0.129 -0.6378  0.9715  0.8908
14937TIP3   OH266301   2.083   6.727   3.557 -0.2440 -0.3484  0.0179
14937TIP3    H166302   2.114   6.817   3.551 -0.5179 -0.3418 -1.5715
14937TIP3    H266303   2.097   6.690   3.470 -0.5065 -1.7268  0.5305
14938TIP3   OH266304   0.976   5.559   2.493  0.1064 -0.1340 -0.2972
14938TIP3    H166305   0.898   5.513   2.525  0.2338 -0.2413 -0.1404
14938TIP3    H266306   0.945   5.606   2.415  0.0252 -0.6737 -0.6022
14939TIP3   OH266307   2.383   1.447  11.790  0.1657  0.4079 -0.1759
14939TIP3    H166308   2.458   1.428  11.847 -0.4430 -0.9804  0.1868
14939TIP3    H266309   2.383   1.543  11.783  0.3805  0.6199  2.0004
14940TIP3   OH266310   3.150   3.708  10.483  0.1815  0.5524 -0.2537
14940TIP3    H166311   3.165   3.697  10.577 -3.1547  0.8734  0.4200
14940TIP3    H266312   3.151   3.619  10.448 -0.0530  0.3110  0.3495
14941TIP3   OH266313   5.979   6.027  17.133  0.1625 -0.1982 -0.1880
14941TIP3    H166314   5.945   5.959  17.075 -0.1111 -0.3459  0.1371
14941TIP3    H266315   5.900   6.067  17.171  0.3167  0.4397 -0.5359
14942TIP3   OH266316   3.938   0.383   3.507 -0.1398  0.1880 -0.1673
14942TIP3    H166317   3.967   0.352   3.593  1.1089  2.4504  0.3118
14942TIP3    H266318   4.011   0.362   3.448  0.7352  2.0731  0.1694
14943TIP3   OH266319   3.218   5.522  14.358 -0.2119  0.5924  0.3289
14943TIP3    H166320   3.245   5.579  14.286 -1.2900  1.3841  0.5209
14943TIP3    H266321   3.202   5.582  14.431 -3.0743  0.3230  0.0471
14944TIP3   OH266322   1.476   3.801   1.141  0.2397 -0.7247 -0.5103
14944TIP3    H166323   1.556   3.845   1.169 -0.2360 -0.1431 -0.0471
14944TIP3    H266324   1.503   3.711   1.123  0.9102 -0.6508  0.0901
14945TIP3   OH266325   1.556   3.565   1.306 -0.2354  0.3399  0.4017
14945TIP3    H166326   1.548   3.487   1.360 -1.2218 -0.1884 -0.4834
14945TIP3    H266327   1.636   3.607   1.337  0.5017 -1.1910  0.6899
14946TIP3   OH266328   3.815   3.062   1.111  0.3777 -0.3541 -0.4721
14946TIP3    H166329   3.761   3.119   1.166  0.1045 -0.5788 -0.5031
14946TIP3    H266330   3.772   3.063   1.026  0.7540 -0.0742 -0.6609
14947TIP3   OH266331   1.565   1.117   2.032 -0.5934 -0.0204  0.2428
14947TIP3    H166332   1.539   1.151   1.946  0.1243  1.0774  0.4385
14947TIP3    H266333   1.660   1.105   2.026 -0.6120 -0.4386  0.7113
14948TIP3   OH266334   4.606   0.078  14.643 -0.0086 -0.4799 -0.2913
14948TIP3    H166335   4.641   0.135  14.711  0.7036 -1.5026  0.2284
14948TIP3    H266336   4.574   0.138  14.575  0.3199  0.5294  0.4282
14949TIP3   OH266337   5.619   6.254  15.868 -0.7002 -0.1725  0.2430
14949TIP3    H166338   5.624   6.158  15.868  1.9343 -0.1584 -2.2124
14949TIP3    H266339   5.555   6.274  15.799 -2.3652 -0.1001  1.7480
14950TIP3   OH266340   5.955   4.489   0.011 -0.4881 -0.2564  0.5615
14950TIP3    H166341   5.866   4.454   0.001 -0.6178  0.2332 -0.0497
14950TIP3    H266342   5.957   4.523   0.101 -0.9350 -0.2094  0.5565
14951TIP3   OH266343   2.207   2.039  17.170  1.1194  1.1057 -0.0452
14951TIP3    H166344   2.221   2.132  17.153 -0.9960  1.4010 -0.4503
14951TIP3    H266345   2.170   2.036  17.258  2.1527  0.5318  0.3847
14952TIP3   OH266346   3.130   0.140  17.097 -0.8233  0.8278 -0.0426
14952TIP3    H166347   3.140   0.053  17.134 -0.6296  0.9821  0.2710
14952TIP3    H266348   3.056   0.132  17.036 -0.4577  0.3140 -0.4289
14953TIP3   OH266349   4.595   2.958   4.995  0.6572 -0.3204  0.3321
14953TIP3    H166350   4.622   2.874   5.033 -0.0995 -1.9144 -2.3911
14953TIP3    H266351   4.673   2.990   4.950  0.4527 -0.4463 -0.1102
14954TIP3   OH266352   4.678   6.056   5.065 -0.2168 -0.2361 -0.2825
14954TIP3    H166353   4.654   6.114   4.992 -0.1408 -1.0295 -0.9613
14954TIP3    H266354   4.740   5.994   5.026 -0.4301 -0.8768  0.3741
14955TIP3   OH266355   4.831   1.587   2.754  0.1482 -0.1215  0.0773
14955TIP3    H166356   4.831   1.638   2.835 -2.0630 -0.5083  0.3891
14955TIP3    H266357   4.810   1.652   2.686 -1.4717 -0.3420  0.3190
14956TIP3   OH266358   0.253   5.527   0.108  0.0204 -0.4145 -0.1811
14956TIP3    H166359   0.189   5.538   0.037 -0.7350  1.8873  0.7604
14956TIP3    H266360   0.199   5.518   0.187  0.8388  0.5532  0.5047
14957TIP3   OH266361   6.353   3.910  14.323 -0.0862 -0.5183  0.4467
14957TIP3    H166362   6.310   3.983  14.368 -0.1705  0.1287 -0.6367
14957TIP3    H266363   6.282   3.851  14.299 -0.5274  0.8077 -1.8134
14958TIP3   OH266364   1.918   5.984   5.739 -0.0698  0.0099 -0.5187
14958TIP3    H166365   1.832   5.947   5.722  0.0478 -0.4301 -0.1703
14958TIP3    H266366   1.934   5.968   5.832 -0.3668  1.6891 -0.1477
14959TIP3   OH266367   4.179   6.627  13.443  0.2690 -0.6670  0.1616
14959TIP3    H166368   4.113   6.585  13.497  0.9162 -1.7656  0.1488
14959TIP3    H266369   4.236   6.673  13.505 -0.4313  0.1891  0.1796
14960TIP3   OH266370   1.853   4.120  17.034  0.6927  0.0771 -0.0529
14960TIP3    H166371   1.802   4.142  16.956 -0.2215 -0.0506  0.5031
14960TIP3    H266372   1.796   4.141  17.108  0.8226 -1.5894  0.5561
14961TIP3   OH266373   4.945   0.562   4.160 -0.3597  0.0633 -0.4102
14961TIP3    H166374   4.908   0.633   4.108 -1.0703  0.1375  0.1869
14961TIP3    H266375   4.986   0.606   4.234 -0.0765 -0.0982 -0.4706
14962TIP3   OH266376   0.588   1.456   1.730 -0.1915  0.0204  0.2517
14962TIP3    H166377   0.538   1.441   1.650 -3.7390  0.1438  2.2491
14962TIP3    H266378   0.650   1.382   1.733  0.2341  0.1448 -2.6080
14963TIP3   OH266379   3.131   3.670   5.904  0.7078  0.6913 -0.1461
14963TIP3    H166380   3.185   3.590   5.907 -1.5046 -0.9411 -0.7562
14963TIP3    H266381   3.102   3.683   5.994 -0.2726 -0.2489 -0.2968
14964TIP3   OH266382   1.029   1.024   0.947  0.0715 -0.3011 -0.1327
14964TIP3    H166383   0.936   1.009   0.963 -0.5290  0.2184 -2.7360
14964TIP3    H266384   1.073   0.956   0.998 -1.7518 -0.9318  0.6845
14965TIP3   OH266385   2.212   0.732  16.091  0.2107  0.7515  0.8374
14965TIP3    H166386   2.144   0.776  16.040 -1.8761 -2.1810  0.8280
14965TIP3    H266387   2.180   0.735  16.181  1.2339  1.2830  1.2011
14966TIP3   OH266388   3.311   2.194  12.303  0.2244 -0.4376  0.0661
14966TIP3    H166389   3.339   2.105  12.323  0.9699 -0.5812 -1.4891
14966TIP3    H266390   3.392   2.241  12.283 -0.1738  0.5732  0.7176
14967TIP3   OH266391   1.845   1.628   1.941 -0.1032  0.4726  0.0974
14967TIP3    H166392   1.918   1.614   1.882  0.6363 -0.4849  1.2086
14967TIP3    H266393   1.882   1.675   2.015 -0.8212  0.8395  0.2405
14968TIP3   OH266394   5.199   3.802  15.521 -0.3804 -0.2938  0.3291
14968TIP3    H166395   5.246   3.811  15.604  0.6554 -1.6000 -0.0748
14968TIP3    H266396   5.147   3.881  15.514 -0.4427 -0.1313  2.1977
14969TIP3   OH266397   6.160   6.037   5.768  0.1985 -0.6730  0.0429
14969TIP3    H166398   6.163   6.129   5.796 -1.8183 -0.6380  0.2556
14969TIP3    H266399   6.158   6.041   5.673  0.4010 -0.5178  0.0430
14970TIP3   OH266400   6.008   0.391  14.625 -0.8110 -0.1185  0.0065
14970TIP3    H166401   5.912   0.392  14.624 -0.9003  2.5414  1.0141
14970TIP3    H266402   6.033   0.372  14.535 -2.2567 -1.3597 -0.1705
14971TIP3   OH266403   2.652   6.238  13.009  0.3335 -0.0301  0.2019
14971TIP3    H166404   2.591   6.256  12.938  0.8647  1.9813  0.2000
14971TIP3    H266405   2.597   6.235  13.087 -0.1916 -1.8016 -0.1981
14972TIP3   OH266406   3.666   0.107  14.098 -0.4447 -0.0795  0.4966
14972TIP3    H166407   3.760   0.115  14.088 -0.1290 -2.5130  0.8493
14972TIP3    H266408   3.648   0.145  14.184  0.2091  0.3572  0.4463
14973TIP3   OH266409   2.624   2.423  14.987  0.1035 -0.4699 -0.0870
14973TIP3    H166410   2.604   2.468  14.905 -0.5099 -1.9540 -0.7692
14973TIP3    H266411   2.711   2.455  15.011 -1.3999  3.3310  1.0428
14974TIP3   OH266412   0.012   6.068  17.074 -0.1508  0.2090  0.0316
14974TIP3    H166413   0.043   6.127  17.006 -1.3253  0.1756 -0.5634
14974TIP3    H266414   0.020   6.118  17.156  1.3235  0.2280 -0.0987
14975TIP3   OH266415   5.227   4.317   4.899 -0.1610  0.2171  0.1200
14975TIP3    H166416   5.186   4.231   4.894  0.6376 -0.1435 -0.5825
14975TIP3    H266417   5.166   4.376   4.856 -0.1821 -0.2188 -0.4577
14976TIP3   OH266418   0.723   4.089  15.702  0.1294 -0.0453  0.4956
14976TIP3    H166419   0.698   4.156  15.638 -2.6051 -1.7194 -0.3843
14976TIP3    H266420   0.803   4.050  15.666 -0.3360  0.2791 -0.9606
14977TIP3   OH266421   0.024   5.466   4.866  0.5641 -0.2600 -0.6139
14977TIP3    H166422  -0.026   5.543   4.894  1.9548  0.9313 -1.2729
14977TIP3    H266423   0.069   5.436   4.945  0.5868  0.0551 -0.5057
14978TIP3   OH266424   3.671   3.078  10.804 -0.5853  0.5500 -0.0576
14978TIP3    H166425   3.737   3.113  10.864 -0.2764 -3.0578  1.9916
14978TIP3    H266426   3.701   3.106  10.717  1.0293  2.8512  1.1146
14979TIP3   OH266427   1.970   0.809   6.623 -0.2608 -0.3786 -0.3253
14979TIP3    H166428   1.878   0.783   6.626 -0.5336  0.4657 -1.0340
14979TIP3    H266429   2.018   0.728   6.637 -1.0857 -1.1370 -1.6638
14980TIP3   OH266430   3.820   3.625   3.326  0.3445  0.4648  0.0998
14980TIP3    H166431   3.876   3.665   3.392  2.4106 -1.1275 -0.5627
14980TIP3    H266432   3.741   3.600   3.373  1.8040 -0.7619  2.0669
14981TIP3   OH266433   3.935   3.938  16.723  0.3808  0.4672  0.1141
14981TIP3    H166434   3.887   3.865  16.683 -0.1378  1.4479 -1.1080
14981TIP3    H266435   3.974   3.900  16.802  1.6571 -1.6272 -1.4153
14982TIP3   OH266436   6.198   6.744   1.817 -0.1801 -0.1384 -0.0409
14982TIP3    H166437   6.218   6.748   1.723  1.1126  0.8936  0.2502
14982TIP3    H266438   6.275   6.782   1.859 -1.9360  2.1897  1.2835
14983TIP3   OH266439   6.729   6.587  13.084  0.3756  0.1395 -0.1151
14983TIP3    H166440   6.685   6.645  13.146  1.9104  2.6222 -1.1732
14983TIP3    H266441   6.718   6.500  13.121 -1.5262  1.1347  1.9174
14984TIP3   OH266442   0.582   5.323   2.795 -0.3759 -0.2981  0.7268
14984TIP3    H166443   0.565   5.286   2.881 -0.4211 -2.0862 -0.0148
14984TIP3    H266444   0.516   5.391   2.785 -0.5076 -0.2118  2.0004
14985TIP3   OH266445   1.698   2.782  15.911  0.3149 -0.0230 -0.4777
14985TIP3    H166446   1.690   2.811  16.002  1.5437 -1.5401  0.1585
14985TIP3    H266447   1.697   2.686  15.916 -0.1522 -0.1466 -2.1410
14986TIP3   OH266448   4.996   0.041   3.562 -0.3267 -0.8270  0.0274
14986TIP3    H166449   4.980   0.015   3.653  1.4033  0.6513  0.8261
14986TIP3    H266450   5.065   0.106   3.568  0.1882 -1.0533 -2.4266
14987TIP3   OH266451   5.271   4.899   2.649  0.5346  0.1547 -0.4996
14987TIP3    H166452   5.228   4.957   2.586  0.0514 -0.3511 -0.6493
14987TIP3    H266453   5.239   4.811   2.626  0.4935 -0.0581  0.3320
14988TIP3   OH266454   0.017   3.757  13.350  0.2726  0.0950  0.7171
14988TIP3    H166455   0.069   3.729  13.275 -0.1514  1.3663 -0.0919
14988TIP3    H266456   0.066   3.727  13.426  1.9832  0.8747 -0.0176
14989TIP3   OH266457   5.350   4.157   5.429  0.4044 -0.1931 -0.0069
14989TIP3    H166458   5.438   4.194   5.442  0.9663 -1.3347 -0.3686
14989TIP3    H266459   5.318   4.199   5.349  1.6610 -1.5452 -1.2873
14990TIP3   OH266460   3.851   1.497  14.487 -1.0652 -0.1837 -0.8619
14990TIP3    H166461   3.833   1.558  14.416 -1.6347  1.3234  0.4915
14990TIP3    H266462   3.924   1.444  14.455 -0.5456  1.2028 -2.1328
14991TIP3   OH266463   0.635   5.354   3.462  0.6396 -0.1309 -0.0945
14991TIP3    H166464   0.609   5.417   3.394 -0.6701  0.2458  0.7317
14991TIP3    H266465   0.723   5.327   3.436  1.2450  2.0422 -0.4716
14992TIP3   OH266466   6.380   4.521  13.809 -0.4652  0.3311  0.1089
14992TIP3    H166467   6.319   4.449  13.793 -0.3917 -0.1645  1.9000
14992TIP3    H266468   6.428   4.530  13.726 -1.6387 -0.5370 -0.6940
14993TIP3   OH266469   0.581   5.512  16.980  0.1422 -0.0281 -0.0859
14993TIP3    H166470   0.497   5.467  16.995  0.5724 -0.5531  0.8280
14993TIP3    H266471   0.601   5.494  16.888 -0.4454 -0.4214 -0.1508
14994TIP3   OH266472   3.608   4.270   3.452 -0.5552  0.3274  0.0948
14994TIP3    H166473   3.576   4.359   3.470 -1.7620  0.4605 -2.2270
14994TIP3    H266474   3.692   4.283   3.409 -0.4594  0.3094  0.2755
14995TIP3   OH266475   6.496   2.814   3.758  0.7245 -0.5652 -0.0708
14995TIP3    H166476   6.535   2.788   3.675 -0.2106 -0.7256 -0.4830
14995TIP3    H266477   6.516   2.742   3.818  3.3817  0.5595  0.5485
14996TIP3   OH266478   6.412   3.692  12.366 -0.7241 -0.2282 -0.2321
14996TIP3    H166479   6.386   3.628  12.300 -0.3163 -1.2362  0.5382
14996TIP3    H266480   6.346   3.685  12.435  0.1484 -0.9885  0.5741
14997TIP3   OH266481   0.160   3.136  16.170  0.0859  0.5413  0.6293
14997TIP3    H166482   0.253   3.135  16.191  0.2832  1.3099 -0.1424
14997TIP3    H266483   0.156   3.116  16.076 -0.5031  0.8707  0.5789
14998TIP3   OH266484   2.601   2.341   3.979 -0.4717  0.5176  0.2715
14998TIP3    H166485   2.544   2.276   3.938  2.9569 -1.8329 -1.3336
14998TIP3    H266486   2.581   2.336   4.073 -1.8773 -1.2365 -0.0813
14999TIP3   OH266487   0.424   1.474   2.848  0.1382 -1.0721 -0.5186
14999TIP3    H166488   0.483   1.399   2.847  1.5464 -0.0307  0.4648
14999TIP3    H266489   0.380   1.470   2.763  0.1398 -3.0107 -0.4709
15000TIP3   OH266490   3.459   3.940  15.300  0.4705 -0.6271 -0.0788
15000TIP3    H166491   3.535   3.914  15.351 -0.3972 -3.0844  0.1132
15000TIP3    H266492   3.437   3.862  15.249 -1.6919  0.1236 -0.4045
15001TIP3   OH266493   0.383   3.300  15.951 -0.1229  0.2473 -0.1992
15001TIP3    H166494   0.387   3.209  15.980  0.8488  0.3331 -0.0494
15001TIP3    H266495   0.466   3.338  15.978 -0.6242  1.2569 -0.0351
15002TIP3   OH266496   0.331   4.148  10.556  0.0827  0.5404  0.7982
15002TIP3    H166497   0.253   4.139  10.611  0.5059  0.2984  1.3636
15002TIP3    H266498   0.301   4.125  10.468 -0.5884  0.8823  0.9348
15003TIP3   OH266499   3.674   2.651   4.516 -0.3288 -0.2211  0.8169
15003TIP3    H166500   3.607   2.718   4.499  0.5392  0.5642  0.3718
15003TIP3    H266501   3.651   2.579   4.457 -0.4776  0.2601  0.2807
15004TIP3   OH266502   4.378   2.441   0.611  0.0947 -0.3380 -0.1169
15004TIP3    H166503   4.453   2.488   0.573  0.1796  1.0676  1.6626
15004TIP3    H266504   4.302   2.493   0.587  0.1305  0.4596  1.4147
15005TIP3   OH266505   5.485   0.210   0.263 -0.3423 -0.0647 -0.7722
15005TIP3    H166506   5.555   0.250   0.211  0.9862  0.0210  0.9673
15005TIP3    H266507   5.519   0.123   0.286 -1.1869 -0.3586 -0.5988
15006TIP3   OH266508   2.062   0.150   2.970 -0.1353  0.1306  0.7640
15006TIP3    H166509   2.004   0.075   2.985  0.2015 -0.3696 -0.3085
15006TIP3    H266510   2.032   0.187   2.888 -0.1086  1.0074  1.1443
15007TIP3   OH266511   0.324   0.242  15.584  0.0055  0.3251 -0.1721
15007TIP3    H166512   0.365   0.275  15.505  0.3481  2.4185  0.8141
15007TIP3    H266513   0.350   0.149  15.587 -1.4306 -0.2946 -3.3168
15008TIP3   OH266514   4.406   3.913   4.874 -0.7573 -0.3212 -0.3333
15008TIP3    H166515   4.350   3.935   4.799 -1.5686 -2.3771 -0.3938
15008TIP3    H266516   4.346   3.872   4.937  0.2259 -0.1823  0.7134
15009TIP3   OH266517   5.181   2.672   1.276 -0.2227  0.5690 -0.5497
15009TIP3    H166518   5.221   2.759   1.269  1.2268 -0.0530 -0.3748
15009TIP3    H266519   5.255   2.613   1.292 -1.4014 -0.3946  1.7851
15010TIP3   OH266520   2.289   4.630   4.998  0.2784 -0.4733  0.0365
15010TIP3    H166521   2.385   4.633   4.994  0.3612 -0.9339  1.1981
15010TIP3    H266522   2.270   4.558   5.058 -0.8155 -0.7859 -0.6588
15011TIP3   OH266523   4.954   2.525   0.286  0.1576  0.1467  0.5760
15011TIP3    H166524   4.899   2.448   0.271 -0.9048  1.5003 -4.9855
15011TIP3    H266525   5.044   2.492   0.280 -0.2281 -0.9570  0.6797
15012TIP3   OH266526   3.816   3.114   4.561 -0.0881 -0.2746  0.6440
15012TIP3    H166527   3.875   3.148   4.629 -1.2063  0.0076  1.5043
15012TIP3    H266528   3.729   3.140   4.590 -1.2095 -4.6349  1.9117
15013TIP3   OH266529   4.084   3.994   6.088 -0.6773 -0.2625 -0.1101
15013TIP3    H166530   4.084   4.041   6.171 -1.6488  0.5687 -0.5566
15013TIP3    H266531   4.056   3.905   6.109  0.9794 -0.6332  0.7199
15014TIP3   OH266532   5.832   0.369   0.436  0.1048 -0.2271  0.5339
15014TIP3    H166533   5.835   0.281   0.473  0.8140 -0.6773 -0.5131
15014TIP3    H266534   5.742   0.398   0.448 -0.4512 -1.5774 -0.1468
15015TIP3   OH266535   2.717   1.952  15.951 -0.2062  0.1189 -0.0279
15015TIP3    H166536   2.726   1.935  16.045 -0.2531 -0.1153 -0.0679
15015TIP3    H266537   2.680   1.872  15.915 -0.6106  0.3724 -0.1791
15016TIP3   OH266538   4.703   6.083  13.498 -0.0142  0.2931 -0.3514
15016TIP3    H166539   4.729   6.110  13.587 -0.7436 -0.2070  0.0232
15016TIP3    H266540   4.618   6.125  13.484 -0.5814 -0.7824 -0.2383
15017TIP3   OH266541   5.742   0.048   1.790 -0.1685  0.2350 -0.0304
15017TIP3    H166542   5.753   0.038   1.695  0.0158  1.1902 -0.1206
15017TIP3    H266543   5.750   0.142   1.805 -1.7880  0.2836  0.7342
15018TIP3   OH266544   0.797   5.843   0.230  0.0377  0.2531  0.3321
15018TIP3    H166545   0.767   5.758   0.198 -0.2719 -0.5522  2.5972
15018TIP3    H266546   0.882   5.855   0.188  0.0881 -1.1586 -0.0349
15019TIP3   OH266547   1.191   2.051   0.440  0.1584  0.6401  0.4553
15019TIP3    H166548   1.098   2.028   0.445 -0.2111  1.9018 -0.2970
15019TIP3    H266549   1.195   2.124   0.379  1.9532 -1.0207 -1.6196
15020TIP3   OH266550   6.323   0.171   6.789 -0.3656  0.1338 -0.6074
15020TIP3    H166551   6.342   0.102   6.852 -1.3520 -0.1978 -0.6716
15020TIP3    H266552   6.400   0.173   6.732  0.1092 -0.2164  0.0104
15021TIP3   OH266553   3.175   1.087  11.601 -0.6870  0.3606  0.1571
15021TIP3    H166554   3.246   1.123  11.548  0.5767 -0.3845  1.2934
15021TIP3    H266555   3.187   0.992  11.596 -2.0339  0.1858 -0.1806
15022TIP3   OH266556   6.248   3.943  12.359 -0.4313 -0.6371 -0.3516
15022TIP3    H166557   6.314   4.012  12.359  0.3134 -1.3063  1.0327
15022TIP3    H266558   6.297   3.861  12.353 -1.2459 -1.0866 -1.0920
15023TIP3   OH266559   0.667   0.950   5.958  0.1146  0.2413  0.8319
15023TIP3    H166560   0.612   0.885   5.914 -0.5904  0.2403  1.6757
15023TIP3    H266561   0.716   0.992   5.888 -1.6283  0.8724 -0.0506
15024TIP3   OH266562   5.119   3.502   5.041  0.1844  0.1987  0.3369
15024TIP3    H166563   5.052   3.455   5.091  0.3013 -0.2727  0.0600
15024TIP3    H266564   5.095   3.594   5.048  0.0737  0.1171  1.0734
15025TIP3   OH266565   0.741   1.754  13.422  0.4109  0.4363 -0.5389
15025TIP3    H166566   0.715   1.689  13.357  0.3491 -1.1468  0.9833
15025TIP3    H266567   0.658   1.793  13.452 -0.1171 -2.2343  1.9143
15026TIP3   OH266568   2.729   2.759  15.527 -0.5616  0.2544  0.1744
15026TIP3    H166569   2.663   2.739  15.461 -0.3173 -0.1449  0.0466
15026TIP3    H266570   2.774   2.676  15.542 -1.8397 -0.1294  2.2214
15027TIP3   OH266571   5.132   0.427  13.301  0.4420 -0.3851  0.1587
15027TIP3    H166572   5.205   0.416  13.240  1.8426  1.5596  1.3893
15027TIP3    H266573   5.055   0.433  13.244  1.6620  1.1035 -1.4586
15028TIP3   OH266574   0.894   4.211   0.971  0.1154  0.7693  0.2419
15028TIP3    H166575   0.804   4.209   1.002 -0.3524  1.0347 -1.0373
15028TIP3    H266576   0.887   4.203   0.876  1.6050 -2.2216  0.2943
15029TIP3   OH266577   4.167   2.757  15.427  0.1671  0.1645 -0.2384
15029TIP3    H166578   4.121   2.781  15.347  0.1804 -0.0068 -0.2985
15029TIP3    H266579   4.103   2.771  15.497  0.3930  1.0311 -0.1928
15030TIP3   OH266580   0.296   4.447  13.540 -0.3554 -0.0713  0.2703
15030TIP3    H166581   0.236   4.522  13.535  0.1887  0.4531  1.1872
15030TIP3    H266582   0.266   4.398  13.617  0.7868  0.5912  1.1825
15031TIP3   OH266583   4.923   5.315  15.582 -0.1563  0.5971 -0.2880
15031TIP3    H166584   5.000   5.258  15.582 -0.0730  0.7104 -0.6830
15031TIP3    H266585   4.877   5.293  15.663 -0.9624 -1.1652 -1.1589
15032TIP3   OH266586   2.400   1.670  13.720  0.7459 -0.0463 -0.8439
15032TIP3    H166587   2.431   1.687  13.808 -2.7880 -0.7177  0.7043
15032TIP3    H266588   2.395   1.756  13.679 -0.1846  0.6411  0.6360
15033TIP3   OH266589   2.003   3.345  16.191  0.2087  0.0350 -0.6285
15033TIP3    H166590   1.994   3.439  16.204  1.1064  0.0173  0.2469
15033TIP3    H266591   1.933   3.306  16.244 -1.4904  0.2360 -2.5797
15034TIP3   OH266592   4.734   6.651  11.592  0.0481  0.1891 -0.2470
15034TIP3    H166593   4.720   6.744  11.574 -0.3160  0.4193  1.1541
15034TIP3    H266594   4.771   6.648  11.680  0.3177 -0.9816 -0.3796
15035TIP3   OH266595   6.818   1.461   2.914  0.5873 -0.4150 -0.0132
15035TIP3    H166596   6.818   1.552   2.944  1.4398 -1.0806  2.2572
15035TIP3    H266597   6.735   1.425   2.947 -0.0852 -0.3311 -1.5179
15036TIP3   OH266598   4.665   1.560  12.914  0.7762  0.3224 -0.9309
15036TIP3    H166599   4.682   1.479  12.962  1.4294 -0.2111 -2.0157
15036TIP3    H266600   4.672   1.629  12.979 -0.1036 -0.5083  0.0838
15037TIP3   OH266601   6.562   3.777  16.451 -0.0157 -0.0639  0.3069
15037TIP3    H166602   6.587   3.841  16.385  1.6464 -1.1737 -0.2003
15037TIP3    H266603   6.494   3.725  16.409 -1.0944  1.0638  0.5839
15038TIP3   OH266604   2.781   0.867  13.506  0.1930  0.3646  0.3694
15038TIP3    H166605   2.787   0.806  13.579 -0.1875  2.2722  2.0903
15038TIP3    H266606   2.852   0.929  13.521  0.0774  0.8224 -0.8808
15039TIP3   OH266607   0.500   5.294  14.014 -0.3444  0.2795  0.1015
15039TIP3    H166608   0.524   5.254  14.097  0.2743 -0.9982 -0.6722
15039TIP3    H266609   0.582   5.327  13.978 -0.1098 -1.6089 -1.2432
15040TIP3   OH266610   0.844   3.215  14.871  0.1656 -0.6912  0.2975
15040TIP3    H166611   0.894   3.137  14.847  0.7114  0.5978 -3.5211
15040TIP3    H266612   0.905   3.268  14.923  0.4990 -1.8433  1.1227
15041TIP3   OH266613   5.129   6.137  12.728 -0.3332  0.0048 -0.6853
15041TIP3    H166614   5.051   6.182  12.759  0.5544  0.7591  0.5876
15041TIP3    H266615   5.195   6.206  12.720  0.5582 -0.7980 -0.4378
15042TIP3   OH266616   6.292   5.382  16.463  0.3831  0.1935 -0.0532
15042TIP3    H166617   6.306   5.289  16.445 -0.9059 -0.1140  0.4026
15042TIP3    H266618   6.256   5.418  16.382 -2.0159 -0.4097  0.6584
15043TIP3   OH266619   1.610   3.193  13.875 -0.0128  0.1923  0.5403
15043TIP3    H166620   1.651   3.266  13.922 -2.4370  0.2971  2.7262
15043TIP3    H266621   1.540   3.233  13.823  0.7358 -0.2668 -0.8726
15044TIP3   OH266622   1.849   6.513  16.505  0.3495  0.8262 -0.3571
15044TIP3    H166623   1.918   6.447  16.512 -0.8685 -0.4676  0.2404
15044TIP3    H266624   1.800   6.504  16.587 -0.2879  1.9797 -0.5887
15045TIP3   OH266625   3.651   1.250  16.039  1.2850  0.9994  0.0785
15045TIP3    H166626   3.672   1.343  16.040 -0.7111  1.5064 -0.5809
15045TIP3    H266627   3.690   1.215  16.119  0.9474  2.6660  1.0009
15046TIP3   OH266628   1.344   5.692  14.103  0.1836 -0.1672  0.4622
15046TIP3    H166629   1.410   5.632  14.068 -1.2778  0.6148 -4.3780
15046TIP3    H266630   1.274   5.635  14.133  0.0921 -1.0007 -1.2026
15047TIP3   OH266631   5.395   1.987  14.801  0.0612  0.4049  0.3420
15047TIP3    H166632   5.466   1.982  14.864  1.3460  0.5223 -1.0383
15047TIP3    H266633   5.400   2.075  14.764  0.1124 -0.0347 -0.7552
15048TIP3   OH266634   0.652   5.860  14.641 -0.1264 -0.0528 -0.9196
15048TIP3    H166635   0.656   5.770  14.674 -1.2852  0.8879  2.0711
15048TIP3    H266636   0.727   5.867  14.582  1.8265 -2.0897  1.1296
15049TIP3   OH266637   1.637   6.023   0.501 -0.1095 -0.0899  0.1385
15049TIP3    H166638   1.571   5.968   0.458 -0.8557 -1.0169  2.3083
15049TIP3    H266639   1.611   6.113   0.479 -1.7659 -0.4584  0.4063
15050TIP3   OH266640   6.417   4.479   0.394  0.0403  0.0931  0.0185
15050TIP3    H166641   6.481   4.407   0.386 -0.3795 -0.4369  1.2873
15050TIP3    H266642   6.469   4.554   0.423  0.0376 -0.4827  1.6100
15051TIP3   OH266643   3.758   5.497  13.818 -0.2527  0.1961  0.6119
15051TIP3    H166644   3.708   5.534  13.891  1.3056  0.3951  1.6308
15051TIP3    H266645   3.708   5.521  13.740 -0.9272  1.7148  1.4699
15052TIP3   OH266646   5.771   1.240   1.556  0.6170 -0.3301  0.4860
15052TIP3    H166647   5.839   1.305   1.537 -1.2950  1.4590 -0.7394
15052TIP3    H266648   5.704   1.290   1.603 -1.7179 -0.8888 -2.0388
15053TIP3   OH266649   0.835   4.433   2.173  0.0185 -0.7017  0.1512
15053TIP3    H166650   0.842   4.385   2.091 -2.7806 -1.9225  0.5088
15053TIP3    H266651   0.888   4.384   2.235  1.4988 -0.2241 -0.6941
15054TIP3   OH266652   0.234   4.399  15.502 -0.5277  0.7798 -0.7087
15054TIP3    H166653   0.261   4.437  15.586 -3.3696 -1.4301  1.4234
15054TIP3    H266654   0.197   4.473  15.453 -1.1602  1.7099  1.0835
15055TIP3   OH266655   0.856   1.572  11.261  0.0401  0.2321 -0.0738
15055TIP3    H166656   0.891   1.488  11.292  0.2298  0.5674  0.6443
15055TIP3    H266657   0.933   1.629  11.256 -0.0474  0.2987 -0.8164
15056TIP3   OH266658   0.544   3.160   3.002  0.3602  0.0769  0.1941
15056TIP3    H166659   0.566   3.205   3.083 -1.6752  1.3277  0.1256
15056TIP3    H266660   0.541   3.230   2.936 -0.3672 -0.5442 -0.4508
15057TIP3   OH266661   1.485   0.222  16.363  0.5306 -0.1242 -0.5725
15057TIP3    H166662   1.495   0.313  16.337  1.7740  0.0795  0.4994
15057TIP3    H266663   1.512   0.172  16.286  0.9363  0.4278 -0.7929
15058TIP3   OH266664   3.422   4.124  11.794 -0.0657 -0.2267 -0.6604
15058TIP3    H166665   3.504   4.130  11.746 -0.3343  0.4774 -1.0526
15058TIP3    H266666   3.397   4.032  11.787 -0.4637 -0.0222 -2.5212
15059TIP3   OH266667   4.307   0.438  12.430 -0.1655  0.0793  0.1729
15059TIP3    H166668   4.245   0.481  12.371  1.0256  1.9065  0.1494
15059TIP3    H266669   4.319   0.501  12.501 -2.3254 -2.4635  3.0049
15060TIP3   OH266670   5.698   2.348  11.144  0.3297 -0.1480  0.2935
15060TIP3    H166671   5.739   2.420  11.192 -2.6508  1.8820  0.0838
15060TIP3    H266672   5.636   2.310  11.207 -0.0334 -0.7636 -0.4287
15061TIP3   OH266673   5.974   4.440  12.578 -0.4560  0.1770  0.6199
15061TIP3    H166674   6.036   4.505  12.544  0.2718  0.2081  1.9388
15061TIP3    H266675   6.024   4.359  12.581 -1.0007 -0.1836  0.1159
15062TIP3   OH266676   2.272   5.658  11.248 -0.2933  0.1629  0.0309
15062TIP3    H166677   2.257   5.634  11.156 -2.0781 -1.5998  0.7224
15062TIP3    H266678   2.348   5.715  11.245 -0.4799  0.4093 -2.5849
15063TIP3   OH266679   0.367   3.581  14.547 -0.3535 -0.3096  0.3808
15063TIP3    H166680   0.385   3.499  14.502  0.2252  0.9473 -1.8126
15063TIP3    H266681   0.274   3.577  14.569 -0.6098 -1.0506 -0.7690
15064TIP3   OH266682   2.217   1.752   6.061  0.3886  0.4749  0.1044
15064TIP3    H166683   2.173   1.719   6.140 -1.4390 -0.4882 -1.2303
15064TIP3    H266684   2.171   1.833   6.040 -0.4381 -0.2474 -0.9886
15065TIP3   OH266685   1.844   5.536  15.495  0.1475  0.6470 -0.1129
15065TIP3    H166686   1.899   5.468  15.534 -0.8017  1.1129  2.1677
15065TIP3    H266687   1.764   5.490  15.470  0.3853  0.5260 -0.6686
15066TIP3   OH266688   6.793   4.778   1.053  0.0700  0.1074  0.2999
15066TIP3    H166689   6.753   4.711   1.109 -1.4033  0.0535 -0.7342
15066TIP3    H266690   6.764   4.754   0.965  2.8488 -0.1961 -0.6137
15067TIP3   OH266691   6.174   0.541   1.614  0.2196  0.3040 -0.3288
15067TIP3    H166692   6.202   0.626   1.647  0.8047 -0.1186  0.3207
15067TIP3    H266693   6.079   0.549   1.602 -0.2114  0.2592  2.3358
15068TIP3   OH266694   3.521   4.294   0.186  0.5343  0.3819 -0.6638
15068TIP3    H166695   3.587   4.225   0.188 -0.5598 -0.6959 -0.7397
15068TIP3    H266696   3.564   4.367   0.141  1.4907 -0.4855 -1.1969
15069TIP3   OH266697   5.206   2.626  13.111  0.5161  0.1048 -0.1101
15069TIP3    H166698   5.202   2.720  13.091 -2.6738  0.3485  1.0786
15069TIP3    H266699   5.179   2.583  13.030  2.3629  0.1375 -0.7784
15070TIP3   OH266700   2.161   4.969  12.724  0.1152 -0.9897  0.0304
15070TIP3    H166701   2.126   5.058  12.729  0.2237 -0.8130 -1.8209
15070TIP3    H266702   2.130   4.927  12.805 -0.4579  0.5242  0.6438
15071TIP3   OH266703   3.700   3.004  16.639  0.5470 -0.0938 -0.6347
15071TIP3    H166704   3.715   3.093  16.607 -0.3627  0.6477  0.8988
15071TIP3    H266705   3.780   2.983  16.687  1.4478 -0.7805 -2.3376
15072TIP3   OH266706   4.108   0.298   3.316 -0.4140  0.3564  0.0503
15072TIP3    H166707   4.140   0.303   3.226  0.8297  0.5563  0.4821
15072TIP3    H266708   4.077   0.208   3.325  1.8183 -0.4547  0.1491
15073TIP3   OH266709   1.100   0.045   2.893 -0.1961 -0.0371  0.5053
15073TIP3    H166710   1.180  -0.006   2.907 -1.1438 -1.4261  1.0181
15073TIP3    H266711   1.128   0.136   2.907  1.1426 -0.5468  1.4071
15074TIP3   OH266712   3.678   1.558  12.945  0.2574  0.4862  0.5605
15074TIP3    H166713   3.727   1.600  13.015  3.2911 -1.1856 -0.3620
15074TIP3    H266714   3.676   1.622  12.874  0.6090  0.8025  0.8338
15075TIP3   OH266715   6.192   1.823  12.051 -0.7579 -0.0893 -0.2761
15075TIP3    H166716   6.227   1.777  11.975 -1.8481 -1.7901  0.1871
15075TIP3    H266717   6.181   1.754  12.117 -1.6197  1.0075  0.7648
15076TIP3   OH266718   1.956   2.360  13.552 -0.0484 -0.5593  0.0880
15076TIP3    H166719   1.918   2.402  13.629 -0.7504 -1.8901  0.5088
15076TIP3    H266720   1.889   2.368  13.484  1.0905  1.8171 -0.8831
15077TIP3   OH266721   1.141   3.960   3.992  0.1619 -0.0051  0.2791
15077TIP3    H166722   1.142   4.031   4.057 -0.3371  1.5036 -1.2811
15077TIP3    H266723   1.208   3.984   3.929 -1.3625  0.1841 -1.3511
15078TIP3   OH266724   3.954   6.330   2.267 -0.6838  0.2451 -0.4557
15078TIP3    H166725   3.962   6.381   2.186 -0.8269  1.3545  0.1976
15078TIP3    H266726   3.931   6.395   2.334 -2.4763 -0.9004  0.1407
15079TIP3   OH266727   2.333   0.158  14.488  0.7437  0.4437 -0.0759
15079TIP3    H166728   2.404   0.096  14.504 -0.0439 -0.1285  1.3835
15079TIP3    H266729   2.377   0.242  14.477  1.7694 -0.2091 -1.2898
15080TIP3   OH266730   1.129   4.514   4.068  0.4113 -0.0059 -0.0620
15080TIP3    H166731   1.178   4.595   4.081 -0.5958  0.3674  1.7133
15080TIP3    H266732   1.042   4.532   4.105  0.0579 -1.8035  0.0867
15081TIP3   OH266733   3.381   6.512  13.008  0.3426 -0.1488 -0.1590
15081TIP3    H166734   3.299   6.544  12.970  0.6145  0.2925 -0.3835
15081TIP3    H266735   3.354   6.452  13.078 -0.1676  0.2259 -0.0339
15082TIP3   OH266736   3.550   5.863   0.516 -0.1890  0.5272  0.2528
15082TIP3    H166737   3.587   5.936   0.467 -1.9371  2.1446  1.2260
15082TIP3    H266738   3.512   5.903   0.595 -2.3052 -1.2321  0.2380
15083TIP3   OH266739   3.753   5.673  13.542 -0.5379 -0.2929 -0.6442
15083TIP3    H166740   3.690   5.745  13.538 -0.9130 -0.6220 -0.5967
15083TIP3    H266741   3.701   5.595  13.554 -0.0453 -0.4407  0.6787
15084TIP3   OH266742   3.175   0.233  16.400  0.1662 -0.5183  0.1754
15084TIP3    H166743   3.217   0.317  16.382  3.2678 -1.3366  2.6806
15084TIP3    H266744   3.107   0.254  16.465 -0.2643  0.2557 -0.5140
15085TIP3   OH266745   0.850   4.819  13.366 -0.0279 -0.4106 -0.0938
15085TIP3    H166746   0.922   4.812  13.428 -0.1094  1.4628  0.2711
15085TIP3    H266747   0.772   4.797  13.416  0.0868 -0.5956  0.0041
15086TIP3   OH266748   1.194   4.029  11.197  0.0564 -0.0099 -0.2283
15086TIP3    H166749   1.124   4.094  11.202 -0.6170 -0.7565  0.3685
15086TIP3    H266750   1.256   4.064  11.132  0.5715  2.0339  1.2670
15087TIP3   OH266751   3.165   6.730   0.867 -0.4640 -0.4854 -0.3468
15087TIP3    H166752   3.110   6.693   0.936 -1.0816  0.3896 -0.3555
15087TIP3    H266753   3.250   6.688   0.879 -0.5468 -0.3157  0.9859
15088TIP3   OH266754   2.717   3.082  13.724 -0.0754  0.0633  0.1805
15088TIP3    H166755   2.796   3.035  13.750  0.0137  0.4612  0.6431
15088TIP3    H266756   2.745   3.172  13.711 -0.6948  0.5153  1.7235
15089TIP3   OH266757   4.257   6.665  12.717  0.6499 -0.1546  0.5281
15089TIP3    H166758   4.207   6.584  12.716 -0.0035  0.2290  0.9842
15089TIP3    H266759   4.348   6.638  12.724  0.5089 -0.8658 -0.3096
15090TIP3   OH266760   0.091   4.055   2.699  0.0687  0.0911 -0.5995
15090TIP3    H166761   0.060   4.022   2.783  0.6105 -0.4261 -0.5941
15090TIP3    H266762   0.160   4.117   2.721 -0.8733  1.1794 -0.6137
15091TIP3   OH266763   4.457   4.868  11.734  0.3725  0.0668  0.9720
15091TIP3    H166764   4.427   4.778  11.721  0.8129 -0.1240  1.2209
15091TIP3    H266765   4.385   4.923  11.705 -0.6853 -0.3802  2.6271
15092TIP3   OH266766   5.442   0.656  17.032 -0.2661 -0.6629  0.6690
15092TIP3    H166767   5.472   0.747  17.022 -0.5968 -0.6916 -0.8288
15092TIP3    H266768   5.349   0.659  17.009 -0.1198 -1.4854 -0.0404
15093TIP3   OH266769   5.209   5.546   4.456  0.4545 -0.7684 -0.7229
15093TIP3    H166770   5.211   5.462   4.410  0.1722 -0.5612 -1.1108
15093TIP3    H266771   5.249   5.527   4.541  1.9186 -0.9341 -1.4193
15094TIP3   OH266772   0.899   0.451  13.743  0.4015 -0.2159  0.2933
15094TIP3    H166773   0.970   0.432  13.804  0.2684  0.6741  0.7373
15094TIP3    H266774   0.825   0.475  13.799  0.5387  1.5233 -0.2115
15095TIP3   OH266775   3.157   2.742   1.194 -0.5078 -0.0321  0.0995
15095TIP3    H166776   3.067   2.717   1.212 -1.0818  2.1413  0.5430
15095TIP3    H266777   3.152   2.833   1.165  1.5531  0.1783  0.2079
15096TIP3   OH266778   3.284   2.192   4.521 -0.5138  0.4575 -0.1033
15096TIP3    H166779   3.357   2.244   4.556 -0.5567  1.0980 -0.9374
15096TIP3    H266780   3.322   2.146   4.446 -0.5246 -0.5841  0.5266
15097TIP3   OH266781   1.639   2.599  12.548 -0.2545 -0.0155 -0.2814
15097TIP3    H166782   1.601   2.597  12.460 -1.4191  1.3868  0.1521
15097TIP3    H266783   1.734   2.602  12.534 -0.2532 -2.5955 -1.4157
15098TIP3   OH266784   1.790   1.613   5.700 -0.6898  0.2770 -0.1450
15098TIP3    H166785   1.781   1.627   5.606  0.7384  1.3412 -0.1553
15098TIP3    H266786   1.736   1.536   5.718 -1.0032  0.0680 -1.8217
15099TIP3   OH266787   5.701   1.702   2.290  0.2368  0.4532  0.1165
15099TIP3    H166788   5.730   1.717   2.380 -2.4229  3.7791  0.6324
15099TIP3    H266789   5.633   1.635   2.297  2.8773 -2.4788 -0.1915
15100TIP3   OH266790   0.970   2.103  15.176 -0.0154  0.1878 -0.7174
15100TIP3    H166791   0.951   2.138  15.089 -1.1307 -0.0361 -0.5797
15100TIP3    H266792   1.000   2.014  15.159 -0.5540  0.0279 -0.8627
15101TIP3   OH266793   3.769   1.653  11.978 -0.7030  0.1845 -0.6510
15101TIP3    H166794   3.763   1.617  11.889  1.0030  0.0416 -0.7446
15101TIP3    H266795   3.760   1.576  12.035  0.3787 -0.0659 -0.7864
15102TIP3   OH266796   6.687   6.326   4.207  0.0383 -0.1583 -0.6205
15102TIP3    H166797   6.744   6.280   4.269 -1.6898 -0.9130  0.4840
15102TIP3    H266798   6.719   6.416   4.207  1.4446 -0.6412 -0.3091
15103TIP3   OH266799   0.096   4.354   0.444  0.6782  0.1804 -0.2052
15103TIP3    H166800   0.070   4.422   0.505  2.4534  0.6869  0.0365
15103TIP3    H266801   0.175   4.388   0.403  0.8202 -1.1566 -1.0931
15104TIP3   OH266802   3.788   5.953  16.443 -0.1549  0.4086  0.1367
15104TIP3    H166803   3.773   5.880  16.504 -0.0760  0.2502 -0.0325
15104TIP3    H266804   3.707   5.960  16.393 -0.1293  0.3757  0.0900
15105TIP3   OH266805   6.538   4.518  12.883 -0.6778 -0.1082  1.1438
15105TIP3    H166806   6.582   4.544  12.964 -0.2421  1.2696  0.5087
15105TIP3    H266807   6.521   4.601  12.838 -0.6125 -0.8619 -0.3188
15106TIP3   OH266808   0.091   5.260  10.445  0.0736  0.0265 -0.2492
15106TIP3    H166809   0.171   5.208  10.443 -1.0619 -1.8495 -0.0960
15106TIP3    H266810   0.032   5.210  10.502 -1.0688  1.5592 -0.0389
15107TIP3   OH266811   3.858   2.098  11.531 -0.0695 -0.3710  0.5775
15107TIP3    H166812   3.894   2.031  11.473  0.9716  0.1168  0.6503
15107TIP3    H266813   3.897   2.079  11.616 -0.7604 -0.4301  0.8850
15108TIP3   OH266814   3.077   3.512   3.650 -0.2117  0.2234 -0.3797
15108TIP3    H166815   3.136   3.438   3.661 -2.6299 -1.9978 -1.3182
15108TIP3    H266816   3.089   3.539   3.559 -0.7805 -0.4313 -0.6640
15109TIP3   OH266817   6.046   4.410  16.887 -0.1110  0.0062  0.0666
15109TIP3    H166818   6.061   4.504  16.875 -0.0430  0.0547  0.5238
15109TIP3    H266819   5.952   4.402  16.904 -0.7685 -0.3186 -2.9923
15110TIP3   OH266820   5.213   1.210   1.785 -0.1915  0.0587 -0.5737
15110TIP3    H166821   5.307   1.200   1.794 -0.3611  0.6168  3.3424
15110TIP3    H266822   5.201   1.254   1.701  3.1517  1.7045 -0.3188
15111TIP3   OH266823   6.199   3.520   3.467 -0.0113  0.0845  0.3124
15111TIP3    H166824   6.248   3.590   3.423 -1.8080  0.4784 -1.1603
15111TIP3    H266825   6.197   3.547   3.559 -1.7111  2.6803 -0.3860
15112TIP3   OH266826   3.320   2.319  13.225 -0.4057  0.5261 -0.2328
15112TIP3    H166827   3.237   2.286  13.192  0.0669 -0.1194 -0.8115
15112TIP3    H266828   3.370   2.240  13.247 -0.0081  0.9093  0.2678
15113TIP3   OH266829   2.433   4.696   4.002 -0.5010 -1.0174 -0.1191
15113TIP3    H166830   2.467   4.646   3.928  0.5524 -3.1436  1.6937
15113TIP3    H266831   2.339   4.703   3.984 -0.5918 -3.1687 -0.7453
15114TIP3   OH266832   0.151   2.537  14.495 -0.3917  0.3752 -0.0222
15114TIP3    H166833   0.109   2.477  14.557 -0.0791 -1.7273 -1.7120
15114TIP3    H266834   0.080   2.592  14.463 -1.4376 -1.4010 -0.9192
15115TIP3   OH266835   3.320   5.613   2.634 -0.0437 -0.6316 -0.2722
15115TIP3    H166836   3.322   5.702   2.669 -1.1289 -0.1188 -1.4127
15115TIP3    H266837   3.327   5.557   2.711  2.5837  0.3874  0.3394
15116TIP3   OH266838   4.778   0.936  13.090 -0.4017  0.2820 -0.9923
15116TIP3    H166839   4.713   0.913  13.024 -1.9189 -1.6216  1.0180
15116TIP3    H266840   4.826   0.854  13.106  0.5820  0.9440 -0.4170
15117TIP3   OH266841   1.378   2.243  15.589  0.5876 -0.3708 -0.2221
15117TIP3    H166842   1.456   2.237  15.644 -1.1107 -0.0355  2.4055
15117TIP3    H266843   1.342   2.154  15.589  0.4322 -0.3096 -0.5875
15118TIP3   OH266844   4.705   3.059   5.748  0.1046 -0.4335  0.4591
15118TIP3    H166845   4.730   3.015   5.667 -0.6125  1.4266 -0.8125
15118TIP3    H266846   4.628   3.111   5.725  0.4389  0.8571  2.0903
15119TIP3   OH266847   2.098   1.962   5.946 -0.8391  0.0932  0.6611
15119TIP3    H166848   2.092   2.035   5.885 -1.0873  0.0442  0.6231
15119TIP3    H266849   2.031   1.981   6.012  0.9968  1.3605  2.2527
15120TIP3   OH266850   6.647   1.397   0.864  0.6315  0.0249  0.1490
15120TIP3    H166851   6.663   1.387   0.770 -0.5841  0.0336 -0.0713
15120TIP3    H266852   6.554   1.377   0.875  0.1287  2.4384  0.9750
15121TIP3   OH266853   1.386   4.610  15.328  0.4891 -0.2500  0.1242
15121TIP3    H166854   1.478   4.598  15.306  0.4269  1.9995 -1.7834
15121TIP3    H266855   1.375   4.705  15.335 -1.2045 -0.5327  2.8565
15122TIP3   OH266856   5.279   4.753   4.317 -0.1351  0.0972 -0.0820
15122TIP3    H166857   5.292   4.802   4.236 -1.8640 -1.6536 -1.4999
15122TIP3    H266858   5.353   4.693   4.320  0.5101  0.8880  0.2307
15123TIP3   OH266859   5.432   1.560   1.871  0.3850  0.2874  0.0676
15123TIP3    H166860   5.339   1.534   1.870  0.4222  0.1529 -0.4319
15123TIP3    H266861   5.431   1.650   1.904  0.0443  0.3868 -0.1947
15124TIP3   OH266862   0.882   3.460  14.230  0.0693 -0.5517  0.3994
15124TIP3    H166863   0.896   3.529  14.164  1.2450 -2.0777 -1.0362
15124TIP3    H266864   0.787   3.455  14.240 -0.0901  0.3922 -0.4604
15125TIP3   OH266865   0.516   0.111   0.210  0.4646  0.1583  0.6211
15125TIP3    H166866   0.508   0.075   0.299 -0.7072  0.2420  0.5628
15125TIP3    H266867   0.567   0.045   0.163  0.0304 -0.4974  1.0388
15126TIP3   OH266868   4.506   1.157  16.274  0.1577  0.2153 -0.1840
15126TIP3    H166869   4.454   1.078  16.261  0.2026  0.2638 -0.6851
15126TIP3    H266870   4.573   1.154  16.206  0.0446  0.7749 -0.3282
15127TIP3   OH266871   0.422   3.548   4.110  0.0908  0.0119  0.4750
15127TIP3    H166872   0.440   3.464   4.068 -0.5715  0.0540  0.0920
15127TIP3    H266873   0.328   3.560   4.099  0.3456  1.3182 -0.4075
15128TIP3   OH266874   1.347   5.010  10.728  0.4193 -0.2816  0.4091
15128TIP3    H166875   1.315   4.990  10.640 -1.3093 -0.0512  0.9416
15128TIP3    H266876   1.395   4.932  10.754 -0.5701 -1.0845 -0.0805
15129TIP3   OH266877   6.830   6.079   1.613  0.0082  0.2817 -0.2948
15129TIP3    H166878   6.914   6.033   1.621  0.1603  0.3429 -1.3968
15129TIP3    H266879   6.779   6.049   1.688  1.2707  0.7810  0.7978
15130TIP3   OH266880   4.735   0.281  14.745 -0.0997  0.2954 -0.6038
15130TIP3    H166881   4.823   0.311  14.723 -0.7209 -0.2002 -4.4764
15130TIP3    H266882   4.677   0.346  14.706 -1.4987 -0.1387  0.6486
15131TIP3   OH266883   3.587   0.285  14.785  0.3982  0.3615  0.1229
15131TIP3    H166884   3.516   0.230  14.752  0.1481 -1.1557  2.8144
15131TIP3    H266885   3.546   0.369  14.805 -0.1127  0.2458 -0.4223
15132TIP3   OH266886   2.304   5.449   3.767 -0.0446  0.1431  0.3109
15132TIP3    H166887   2.235   5.483   3.823  0.3212 -0.3821  1.1093
15132TIP3    H266888   2.276   5.470   3.678 -2.2559 -1.8211  0.4407
15133TIP3   OH266889   0.597   5.901   3.007 -0.5203  0.8228 -0.2558
15133TIP3    H166890   0.519   5.926   3.057  0.1432  0.5743  0.9530
15133TIP3    H266891   0.563   5.845   2.936 -1.3245 -0.5519  1.1329
15134TIP3   OH266892   0.695   1.984   5.748  0.0652  0.7203 -0.6410
15134TIP3    H166893   0.614   2.030   5.769 -1.4528 -1.5724 -1.0659
15134TIP3    H266894   0.701   1.987   5.652 -0.4016 -0.4188 -0.7288
15135TIP3   OH266895   3.000   4.047   3.217  0.2509 -0.1447 -0.1104
15135TIP3    H166896   2.964   4.013   3.298 -0.8037  0.2580 -0.3954
15135TIP3    H266897   2.959   4.133   3.206 -1.5282 -1.1585 -2.2733
15136TIP3   OH266898   2.341   5.713  13.137  0.4682  0.1116  0.1021
15136TIP3    H166899   2.351   5.695  13.231  1.2371  0.4351  0.0896
15136TIP3    H266900   2.361   5.806  13.128 -1.9415  0.6896 -0.0592
15137TIP3   OH266901   6.167   3.513   3.745  0.2519 -0.2233  0.2642
15137TIP3    H166902   6.110   3.587   3.767 -1.1095 -1.4082  0.8195
15137TIP3    H266903   6.241   3.522   3.806  1.0145  1.6255 -0.8251
15138TIP3   OH266904   4.704   1.404  12.494 -0.0533 -0.4646 -0.1486
15138TIP3    H166905   4.778   1.450  12.454  0.9902 -0.9145  1.2079
15138TIP3    H266906   4.685   1.452  12.574  0.1435 -1.5619  0.5790
15139TIP3   OH266907   5.202   6.450  14.291  0.2240 -0.2379  0.6146
15139TIP3    H166908   5.164   6.526  14.247  0.4904  0.1235  1.0007
15139TIP3    H266909   5.149   6.376  14.262  0.6995 -0.0766 -0.6983
15140TIP3   OH266910   1.559   4.826  12.628 -0.7174 -0.0181  0.2930
15140TIP3    H166911   1.588   4.900  12.574 -0.6399 -0.1969  0.0924
15140TIP3    H266912   1.551   4.753  12.567 -1.8181  0.0808  0.2922
15141TIP3   OH266913   2.583   2.261  14.516 -0.2935 -0.4753 -0.1873
15141TIP3    H166914   2.497   2.220  14.521 -1.1984  0.9992 -1.9469
15141TIP3    H266915   2.636   2.202  14.462 -0.9184 -0.3851 -0.9198
15142TIP3   OH266916   2.473   0.011   4.840  0.4598  0.0656  0.1859
15142TIP3    H166917   2.480  -0.054   4.770  0.3854  0.0406  0.2016
15142TIP3    H266918   2.394  -0.015   4.889  0.3793  0.2204  0.1374
15143TIP3   OH266919   5.833   5.001   4.139  0.0559  0.8454  0.2788
15143TIP3    H166920   5.749   4.959   4.120 -0.1489  1.0170  0.7837
15143TIP3    H266921   5.818   5.049   4.220  0.5801  1.0633  0.2515
15144TIP3   OH266922   4.312   5.805  12.596  0.3654  0.2055  0.2186
15144TIP3    H166923   4.338   5.808  12.504 -2.6378  0.3450 -0.7239
15144TIP3    H266924   4.368   5.871  12.639  2.7849 -0.8125 -1.1497
15145TIP3   OH266925   5.914   0.523   3.669  0.0876  0.3483 -0.0494
15145TIP3    H166926   5.984   0.568   3.623  0.7247 -0.6087 -0.0474
15145TIP3    H266927   5.911   0.436   3.629 -1.5308  0.5601 -0.4957
15146TIP3   OH266928   0.374   1.832   3.110 -0.9885 -0.4031  0.2115
15146TIP3    H166929   0.379   1.738   3.091 -1.3410 -0.2173 -0.8840
15146TIP3    H266930   0.341   1.871   3.029  2.2455  1.0782 -0.5568
15147TIP3   OH266931   0.463   6.266   1.856 -0.0954 -0.0302 -0.2249
15147TIP3    H166932   0.558   6.258   1.867 -0.1454 -0.6250 -0.1953
15147TIP3    H266933   0.444   6.357   1.879  0.3204 -0.2027  0.8507
15148TIP3   OH266934   0.001   5.078   5.153 -0.3502 -0.0215  0.4618
15148TIP3    H166935   0.083   5.047   5.191 -0.6170 -0.7183  0.4915
15148TIP3    H266936  -0.066   5.051   5.215 -0.4594  2.1579  1.3533
15149TIP3   OH266937   5.305   0.521  13.749  0.3734  0.3917  0.2399
15149TIP3    H166938   5.303   0.536  13.655  0.0521  1.7883  0.4457
15149TIP3    H266939   5.341   0.603  13.786  3.3544 -1.1645  1.1513
15150TIP3   OH266940   2.607   5.082  15.221 -0.1080  0.5791 -0.3234
15150TIP3    H166941   2.534   5.100  15.162  0.5228  1.3544 -0.8875
15150TIP3    H266942   2.573   5.101  15.308 -0.4825  1.2412 -0.6105
15151TIP3   OH266943   5.720   4.423   4.676 -0.2296  0.4622  0.8284
15151TIP3    H166944   5.692   4.340   4.713  1.0113  0.6648  2.2893
15151TIP3    H266945   5.641   4.478   4.679 -0.6909 -0.2060  1.1439
15152TIP3   OH266946   6.153   4.482   0.464 -0.2620 -0.5472 -0.2784
15152TIP3    H166947   6.153   4.399   0.512  2.5345  0.0269  0.8835
15152TIP3    H266948   6.244   4.496   0.439 -0.0970  3.3532  1.7514
15153TIP3   OH266949   6.370   5.728   5.947  1.1095  0.0360 -0.6353
15153TIP3    H166950   6.331   5.749   5.862  0.7714 -0.0711 -0.5103
15153TIP3    H266951   6.417   5.645   5.932 -0.9454 -1.2922 -0.1637
15154TIP3   OH266952   0.666   5.105   5.989 -0.5061 -0.1487 -0.2717
15154TIP3    H166953   0.705   5.164   6.053  1.1415 -1.8022  0.2996
15154TIP3    H266954   0.628   5.164   5.923  4.6693  1.7773 -2.0299
15155TIP3   OH266955   6.247   0.774   4.839  0.5143 -0.5370  0.1724
15155TIP3    H166956   6.339   0.773   4.815  0.6427 -1.9286  0.6224
15155TIP3    H266957   6.207   0.706   4.785 -0.3895  0.4983 -0.4969
15156TIP3   OH266958   1.030   2.024   0.045 -0.6181  0.4518 -0.8637
15156TIP3    H166959   0.978   2.104   0.054 -0.1186  0.5544  2.6404
15156TIP3    H266960   0.966   1.953   0.044 -0.9730  0.7611 -2.0607
15157TIP3   OH266961   6.169   6.072  15.444  0.0444  0.3890 -0.3631
15157TIP3    H166962   6.225   6.090  15.368 -0.1129  0.8815 -0.3687
15157TIP3    H266963   6.167   6.155  15.492  1.0862 -0.2558  0.8163
15158TIP3   OH266964   2.030   5.387  11.841  0.1519  0.5167  0.3670
15158TIP3    H166965   2.019   5.356  11.931 -1.0376 -1.0968 -0.2909
15158TIP3    H266966   1.941   5.403  11.810  0.3482 -1.3387 -1.2997
15159TIP3   OH266967   1.590   4.172  16.351 -0.5952 -0.4237  0.7538
15159TIP3    H166968   1.617   4.253  16.309 -0.8727 -0.4371  0.5477
15159TIP3    H266969   1.494   4.172  16.344 -0.5756 -0.9616  0.3882
15160TIP3   OH266970   1.300   4.023  14.424 -0.8100  0.1462 -0.3283
15160TIP3    H166971   1.379   4.004  14.474  0.1991  1.7040 -1.2217
15160TIP3    H266972   1.239   3.953  14.447  0.8149 -1.0988  0.3972
15161TIP3   OH266973   6.481   5.404  14.533  0.0126 -0.2298 -0.3099
15161TIP3    H166974   6.423   5.330  14.518  1.2875 -1.2684 -0.3113
15161TIP3    H266975   6.493   5.444  14.446  0.8812 -1.2522 -0.6841
15162TIP3   OH266976   1.461   1.373   2.385  0.4329  0.8089 -0.1386
15162TIP3    H166977   1.520   1.302   2.360 -0.8201 -0.3193 -0.0018
15162TIP3    H266978   1.513   1.452   2.373  0.8839  0.1538 -3.4091
15163TIP3   OH266979   4.701   3.085   4.758  0.4214  0.1699 -0.4642
15163TIP3    H166980   4.759   3.119   4.690  0.1509  0.9045 -0.3350
15163TIP3    H266981   4.658   3.162   4.794  2.9076  0.2441  2.7770
15164TIP3   OH266982   5.486   3.937   0.841 -0.3779  0.3335 -0.5247
15164TIP3    H166983   5.430   3.924   0.764  1.5879 -0.0159 -2.0000
15164TIP3    H266984   5.532   4.019   0.823 -0.0293  0.3474  0.3899
15165TIP3   OH266985   5.331   3.887   5.452  0.5567 -0.1712 -0.0500
15165TIP3    H166986   5.389   3.861   5.380  1.6521  1.0398  0.3604
15165TIP3    H266987   5.345   3.982   5.462 -1.4420  0.1595  0.1238
15166TIP3   OH266988   6.378   5.673   4.653  0.1842 -0.1366 -0.5475
15166TIP3    H166989   6.321   5.596   4.654  0.6082 -0.4847 -1.5207
15166TIP3    H266990   6.429   5.663   4.573  3.1986 -1.0285  1.3121
15167TIP3   OH266991   4.155   3.729   1.745  0.2458 -0.7042  0.5647
15167TIP3    H166992   4.092   3.665   1.711 -0.3726 -0.3180  0.9511
15167TIP3    H266993   4.107   3.812   1.742  1.0564 -0.2446  0.0159
15168TIP3   OH266994   0.442   1.832   1.217 -0.5303  0.2023  0.1195
15168TIP3    H166995   0.494   1.841   1.296  0.0073 -0.1615 -0.1782
15168TIP3    H266996   0.420   1.921   1.191  2.4466  0.6473 -1.3601
15169TIP3   OH266997   2.051   5.788  16.630  0.7690 -0.1409  0.1934
15169TIP3    H166998   2.042   5.709  16.682 -1.7502 -0.7430 -1.0267
15169TIP3    H266999   2.113   5.765  16.561  1.1491 -0.5504  0.6626
15170TIP3   OH267000   2.952   0.562  14.971 -0.5981  0.4107 -0.3241
15170TIP3    H167001   2.907   0.641  14.940 -2.9762 -1.0978 -0.9258
15170TIP3    H267002   2.919   0.549  15.060  1.1461  1.0088  0.4631
15171TIP3   OH267003   3.235   1.981   3.781  0.1275  0.2420 -0.2452
15171TIP3    H167004   3.167   1.987   3.848 -0.9043  1.9235 -1.3634
15171TIP3    H267005   3.239   1.887   3.760 -2.5905  0.1527 -0.8170
15172TIP3   OH267006   1.658   0.675   3.066 -0.1063 -0.2966 -0.2428
15172TIP3    H167007   1.707   0.735   3.123 -0.4849  0.7613 -0.9863
15172TIP3    H267008   1.595   0.633   3.124 -0.4497  0.7196  0.1541
15173TIP3   OH267009   5.939   1.348  16.379 -0.0676  0.3218 -0.2577
15173TIP3    H167010   5.985   1.266  16.395 -1.9050 -0.7889 -0.4007
15173TIP3    H267011   5.857   1.339  16.427 -1.1610  1.2336 -1.8854
15174TIP3   OH267012   0.373   5.158  12.602  0.1456 -0.4136  0.8443
15174TIP3    H167013   0.342   5.113  12.523  0.3135  0.0163  0.5272
15174TIP3    H267014   0.316   5.127  12.672 -0.6206 -0.0886  0.3822
15175TIP3   OH267015   5.571   4.604   1.353  0.2046 -0.0386 -0.0138
15175TIP3    H167016   5.526   4.538   1.300  1.9912 -0.9941 -0.4470
15175TIP3    H267017   5.612   4.662   1.289  1.3929 -0.5037  0.2870
15176TIP3   OH267018   2.575   6.363   6.597 -0.2169  0.1327  0.5077
15176TIP3    H167019   2.633   6.291   6.624  0.9336  0.5032 -0.8158
15176TIP3    H267020   2.593   6.433   6.659  2.9974  1.2779 -1.4766
15177TIP3   OH267021   6.805   3.226   3.651  0.4952  0.7703  0.5372
15177TIP3    H167022   6.825   3.159   3.716 -0.4621  1.3830  1.4951
15177TIP3    H267023   6.711   3.240   3.660  0.0793 -0.0448 -1.8893
15178TIP3   OH267024   5.446   6.297   2.712 -0.2407  0.9822 -0.3029
15178TIP3    H167025   5.446   6.392   2.721  1.5219  1.0883 -1.0540
15178TIP3    H267026   5.427   6.281   2.620  0.1153  0.6459 -0.3237
15179TIP3   OH267027   4.889   2.628   1.287  0.2245  0.2183 -0.1427
15179TIP3    H167028   4.857   2.640   1.198  2.5983 -0.9752 -1.2667
15179TIP3    H267029   4.984   2.635   1.279  0.5393 -0.5222  2.1938
15180TIP3   OH267030   1.414   3.165   1.012  0.2234  0.0039  0.0612
15180TIP3    H167031   1.409   3.258   1.034 -2.1505 -0.0599  0.0047
15180TIP3    H267032   1.464   3.163   0.930 -1.3094  1.4445 -0.9663
15181TIP3   OH267033   0.244   3.487   3.446 -0.3075 -0.3845 -0.5354
15181TIP3    H167034   0.189   3.534   3.383 -1.4619 -0.9256  0.0353
15181TIP3    H267035   0.258   3.550   3.516 -2.8814 -1.1735  0.8188
15182TIP3   OH267036   2.250   4.115   2.918 -0.0001 -0.2905 -0.2958
15182TIP3    H167037   2.310   4.127   2.991  1.8444 -1.2596 -1.5748
15182TIP3    H267038   2.289   4.164   2.845 -2.3210  1.5254 -0.4401
15183TIP3   OH267039   1.314   4.018   1.050  0.3385  0.0110 -0.0018
15183TIP3    H167040   1.379   3.954   1.080  0.8328  0.0952 -0.8474
15183TIP3    H267041   1.230   3.978   1.069  0.6300 -0.1284  1.0573
15184TIP3   OH267042   1.069   3.249  12.524 -0.4818 -0.0450  0.3035
15184TIP3    H167043   1.028   3.277  12.606  0.6496  1.7214  0.3432
15184TIP3    H267044   0.998   3.250  12.460 -1.0855  0.0718  0.9597
15185TIP3   OH267045   4.471   1.299  16.968 -0.1502 -0.8556  0.2820
15185TIP3    H167046   4.480   1.372  16.907  0.4874  0.9050  2.3905
15185TIP3    H267047   4.395   1.321  17.022  0.3418 -1.5008  1.2655
15186TIP3   OH267048   6.415   6.027  12.392  0.6862  0.1773  0.1685
15186TIP3    H167049   6.501   6.000  12.423  0.1548 -0.7538  0.9137
15186TIP3    H267050   6.419   6.015  12.297  1.2376 -0.2859  0.2444
15187TIP3   OH267051   2.841   2.762   2.804 -0.3837 -0.2684  0.4640
15187TIP3    H167052   2.820   2.855   2.805 -0.9903 -0.3893 -0.3542
15187TIP3    H267053   2.810   2.731   2.719 -0.9242 -1.3849  1.0546
15188TIP3   OH267054   1.652   3.789   0.463  0.2958  1.0419 -0.2703
15188TIP3    H167055   1.607   3.862   0.506 -0.2949 -0.1635  1.2418
15188TIP3    H267056   1.744   3.812   0.467  0.1307  1.6438  0.3169
15189TIP3   OH267057   4.132   4.341   6.155 -0.3188  0.0844  0.3789
15189TIP3    H167058   4.057   4.288   6.183  0.9335 -0.9745  1.9234
15189TIP3    H267059   4.209   4.292   6.186  1.0899  0.5389 -2.1485
15190TIP3   OH267060   6.435   0.621  14.099 -0.1068  0.2330  0.2420
15190TIP3    H167061   6.525   0.617  14.133 -0.6143 -2.7806  1.5927
15190TIP3    H267062   6.445   0.634  14.005  1.5740  2.6194  0.6452
15191TIP3   OH267063   1.888   5.873  13.635 -0.2869  0.7193  0.2827
15191TIP3    H167064   1.894   5.780  13.656  0.0878  0.7309  0.2495
15191TIP3    H267065   1.819   5.907  13.691 -0.6888  0.3459  0.0213
15192TIP3   OH267066   3.027   3.415   1.801  0.0013 -0.7157 -0.4878
15192TIP3    H167067   3.115   3.382   1.787  0.7093  1.7894 -2.5808
15192TIP3    H267068   3.036   3.480   1.872 -0.2686 -0.8409 -0.3353
15193TIP3   OH267069   2.148   3.837   1.428  0.2223 -0.3528  0.3443
15193TIP3    H167070   2.201   3.763   1.399  0.8540  0.1326  0.2379
15193TIP3    H267071   2.084   3.850   1.357  0.2863 -0.6216  0.2390
15194TIP3   OH267072   1.155   0.711  11.726 -0.1606  0.5619 -0.7744
15194TIP3    H167073   1.120   0.702  11.637 -2.6005 -0.8835  0.2162
15194TIP3    H267074   1.244   0.676  11.721 -1.1984 -2.1799 -2.1507
15195TIP3   OH267075   3.468   5.631   5.344  0.6952  1.0364 -0.2225
15195TIP3    H167076   3.547   5.619   5.398  0.3548  1.7330  0.4651
15195TIP3    H267077   3.408   5.679   5.402 -0.8417 -0.8611 -0.1683
15196TIP3   OH267078   0.661   2.442   5.229  0.3360  0.5505 -0.4056
15196TIP3    H167079   0.686   2.534   5.228  1.4855  0.2416 -0.9824
15196TIP3    H267080   0.689   2.408   5.145  2.1427 -0.8883  0.7077
15197TIP3   OH267081   0.220   5.903  16.927 -0.1666  0.3573 -0.4865
15197TIP3    H167082   0.220   5.860  17.012 -1.4476  1.3735  0.0710
15197TIP3    H267083   0.275   5.981  16.939 -0.8467  0.8318 -0.3899
15198TIP3   OH267084   3.668   2.073  16.983 -0.1149 -0.1069 -0.3395
15198TIP3    H167085   3.738   2.095  16.922  0.2155 -2.3792 -0.8408
15198TIP3    H267086   3.709   2.018  17.049 -1.1580 -0.3596  0.1286
15199TIP3   OH267087   4.904   2.822   0.537 -0.4749 -0.4915  0.0255
15199TIP3    H167088   4.862   2.905   0.559 -2.2202 -1.3497  0.0343
15199TIP3    H267089   4.846   2.781   0.474  0.4108 -1.6890 -0.0501
15200TIP3   OH267090   6.120   4.913   5.492 -0.5853  0.4918  0.1882
15200TIP3    H167091   6.144   4.899   5.584  0.5593 -0.1810 -0.1830
15200TIP3    H267092   6.031   4.880   5.485  0.6600 -3.5100  0.2290
15201TIP3   OH267093   5.215   4.643   2.596 -0.4815  0.3319 -0.4077
15201TIP3    H167094   5.275   4.579   2.634  0.9101  1.5337 -0.4964
15201TIP3    H267095   5.234   4.640   2.502  0.4265  1.6555 -0.2895
15202TIP3   OH267096   3.061   0.207   2.786  0.0839  0.1851  0.0353
15202TIP3    H167097   3.057   0.112   2.792 -0.8761  0.1894 -0.4026
15202TIP3    H267098   2.970   0.235   2.795  0.4925  1.1608  1.7110
15203TIP3   OH267099   1.124   0.500   2.773  0.5170  0.0706  0.2352
15203TIP3    H167100   1.097   0.408   2.778  0.5313  0.0428 -0.1707
15203TIP3    H267101   1.126   0.529   2.864  0.7189 -0.3913  0.3795
15204TIP3   OH267102   1.108   2.010  16.348 -0.4162 -0.0605 -0.3714
15204TIP3    H167103   1.085   1.954  16.273  0.3966 -1.4388  0.3701
15204TIP3    H267104   1.155   2.084  16.309  0.1340 -0.8397 -1.2293
15205TIP3   OH267105   5.506   1.224  16.610 -0.2865 -0.2565  0.7412
15205TIP3    H167106   5.579   1.283  16.627 -0.1311 -0.6407  1.4096
15205TIP3    H267107   5.521   1.194  16.520 -0.2575  0.5516  0.4670
15206TIP3   OH267108   3.235   3.012   1.682  0.3592 -0.4660 -0.1055
15206TIP3    H167109   3.156   3.039   1.730  0.3906  1.3424 -0.9852
15206TIP3    H267110   3.264   2.933   1.727 -0.0159  0.7374  2.4518
15207TIP3   OH267111   4.043   2.221   5.697 -0.2937  0.7174  0.1575
15207TIP3    H167112   4.025   2.188   5.609  3.3835 -0.0881 -0.4636
15207TIP3    H267113   4.044   2.143   5.752  0.6442  0.7456  0.2079
15208TIP3   OH267114   1.677   4.111   4.690  0.0206 -0.1783  0.2664
15208TIP3    H167115   1.724   4.057   4.753  0.1667  0.2258  0.5021
15208TIP3    H267116   1.726   4.100   4.608  1.2404  1.1664  0.7745
15209TIP3   OH267117   1.680   5.265   3.734 -0.0849 -0.0568 -0.0920
15209TIP3    H167118   1.762   5.313   3.742  0.4170 -0.5640 -1.7518
15209TIP3    H267119   1.656   5.243   3.824  2.4542 -1.3066  0.3583
15210TIP3   OH267120   5.494   4.762  16.408 -0.0015 -0.0548  0.6393
15210TIP3    H167121   5.429   4.813  16.457 -0.3150  0.8958 -0.7118
15210TIP3    H267122   5.459   4.759  16.319  0.7905 -1.3403  0.3606
15211TIP3   OH267123   4.272   3.717   0.466  0.3894  0.1936  0.0813
15211TIP3    H167124   4.193   3.676   0.430  0.5093 -0.9348  1.0327
15211TIP3    H267125   4.323   3.742   0.390 -0.3137 -0.2166 -0.5393
15212TIP3   OH267126   5.459   1.006   4.441 -0.2789  0.0006  0.3754
15212TIP3    H167127   5.422   0.920   4.423 -0.4786 -0.2131  1.7565
15212TIP3    H267128   5.383   1.061   4.461 -0.1713  0.5623 -0.6849
15213TIP3   OH267129   3.486   6.025  15.279  0.3806 -1.2058 -0.2518
15213TIP3    H167130   3.566   5.983  15.309  0.4065 -1.1863 -0.2933
15213TIP3    H267131   3.498   6.118  15.299 -0.2515 -1.3904  1.1150
15214TIP3   OH267132   4.959   3.988   1.809  0.1844  0.0495  0.4203
15214TIP3    H167133   4.900   3.918   1.781  1.6800 -0.8275 -0.6829
15214TIP3    H267134   4.980   3.966   1.900 -0.0486 -0.4654  0.3575
15215TIP3   OH267135   1.057   2.133  13.868 -0.2184 -0.0279 -0.1749
15215TIP3    H167136   1.088   2.049  13.834 -1.5462 -0.6697  0.1548
15215TIP3    H267137   1.039   2.185  13.789  0.1734 -0.2083 -0.3865
15216TIP3   OH267138   3.132   6.132   6.233  0.5316 -0.2456 -0.0549
15216TIP3    H167139   3.154   6.063   6.169  1.2713  0.9933 -1.1957
15216TIP3    H267140   3.172   6.211   6.197 -0.7894  0.9136  0.9182
15217TIP3   OH267141   4.417   1.161  14.250 -0.0930 -0.3072 -0.5333
15217TIP3    H167142   4.469   1.239  14.230 -0.2979 -0.4551 -1.6957
15217TIP3    H267143   4.411   1.161  14.346  1.4666  0.0784 -0.4007
15218TIP3   OH267144   1.894   4.331  11.824  0.5708  0.4079 -0.0737
15218TIP3    H167145   1.917   4.285  11.905 -2.7273 -1.9262 -0.2836
15218TIP3    H267146   1.960   4.302  11.761 -0.1405 -2.5266  0.3773
15219TIP3   OH267147   0.453   3.223   3.908 -0.4072 -0.0804 -0.2133
15219TIP3    H167148   0.479   3.276   3.833 -1.1848 -0.9544 -1.1383
15219TIP3    H267149   0.369   3.260   3.935 -0.7795 -0.6080 -0.6359
15220TIP3   OH267150   0.325   2.077  15.124 -0.1977  0.1376  0.2215
15220TIP3    H167151   0.390   2.143  15.148 -1.3002  1.8386 -1.1769
15220TIP3    H267152   0.285   2.052  15.207 -0.3675  1.9658  0.7527
15221TIP3   OH267153   0.906   5.505   4.693 -0.0161 -0.0030  0.2204
15221TIP3    H167154   0.833   5.445   4.704  0.9587 -1.2622  0.0372
15221TIP3    H267155   0.964   5.486   4.767  0.3767  0.6118  0.0807
15222TIP3   OH267156   3.374   0.718   4.524 -0.0989  0.2333 -0.4068
15222TIP3    H167157   3.445   0.655   4.515 -0.0473  0.3758 -1.1025
15222TIP3    H267158   3.331   0.695   4.606  0.1937 -0.4229 -0.4320
15223TIP3   OH267159   2.719   0.846  11.407  0.3681  0.2588 -0.7089
15223TIP3    H167160   2.729   0.850  11.502  0.1009 -0.8783 -0.6263
15223TIP3    H267161   2.629   0.818  11.393  1.2229 -2.5461 -1.2093
15224TIP3   OH267162   5.031   1.716   2.021 -0.1098  0.1739 -0.4096
15224TIP3    H167163   5.060   1.635   1.978 -1.2032 -0.0931 -0.6642
15224TIP3    H267164   4.941   1.729   1.990 -0.3376  0.8802  0.5056
15225TIP3   OH267165   1.338   1.351   2.795  0.1485  0.1938 -0.3466
15225TIP3    H167166   1.347   1.432   2.745 -0.1728 -0.2993 -1.2275
15225TIP3    H267167   1.407   1.356   2.862 -0.8424  1.8975  0.6180
15226TIP3   OH267168   6.454   6.511   1.453 -0.6900  0.0341  0.1352
15226TIP3    H167169   6.383   6.517   1.390 -0.1475  1.0030 -0.4013
15226TIP3    H267170   6.423   6.449   1.519 -2.0350  0.4464 -0.0895
15227TIP3   OH267171   0.585   6.416   3.430  0.5010 -0.4573 -0.3897
15227TIP3    H167172   0.633   6.395   3.350 -0.4983 -0.9496 -0.8742
15227TIP3    H267173   0.498   6.378   3.417  1.2465 -3.5200  2.2771
15228TIP3   OH267174   6.291   4.328  14.579  0.0149  0.6114  0.2776
15228TIP3    H167175   6.244   4.282  14.648 -1.3138  0.6467 -0.5590
15228TIP3    H267176   6.222   4.366  14.525  1.0571  2.1014 -0.0534
15229TIP3   OH267177   5.560   0.466  13.826  0.2494  0.1726  0.3453
15229TIP3    H167178   5.582   0.388  13.775  1.8492  1.0138 -0.3516
15229TIP3    H267179   5.465   0.473  13.821  0.1332 -1.3900 -0.0584
15230TIP3   OH267180   5.637   1.720  11.794 -0.8233 -0.2290 -0.0643
15230TIP3    H167181   5.699   1.647  11.793  0.3453  0.5397  3.3093
15230TIP3    H267182   5.676   1.784  11.734 -1.1105 -1.6858 -1.9221
15231TIP3   OH267183   3.655   4.518   4.978  0.2449 -0.3803  0.3483
15231TIP3    H167184   3.602   4.464   4.921 -0.2204 -0.4862  0.8713
15231TIP3    H267185   3.614   4.605   4.974  0.8839 -0.0981 -0.3503
15232TIP3   OH267186   2.903   1.360  10.335  0.0139  0.0859 -0.1168
15232TIP3    H167187   2.991   1.395  10.318  0.8943 -0.6255  2.5829
15232TIP3    H267188   2.918   1.276  10.378 -1.8905  0.8756  2.3541
15233TIP3   OH267189   4.202   6.456  11.921 -0.7031 -1.1434  0.3083
15233TIP3    H167190   4.210   6.366  11.888 -1.9231 -1.1897  0.0806
15233TIP3    H267191   4.120   6.488  11.882  0.6653  0.7558 -1.1703
15234TIP3   OH267192   3.361   5.691  14.086  0.1187  0.3133  0.3030
15234TIP3    H167193   3.335   5.683  13.994 -0.5163  0.5647  0.4576
15234TIP3    H267194   3.304   5.760  14.121  2.0007  1.9616  0.2753
15235TIP3   OH267195   3.812   3.980   5.372  0.0181 -0.0965  0.1284
15235TIP3    H167196   3.855   4.049   5.321 -0.0080  0.2008  0.5106
15235TIP3    H267197   3.818   4.009   5.463  2.4088 -1.8804  0.6126
15236TIP3   OH267198   5.006   4.370  14.931  0.0105 -0.4715 -0.2203
15236TIP3    H167199   5.047   4.326  14.857 -1.1264 -0.6206 -0.7871
15236TIP3    H267200   4.971   4.452  14.894 -0.6737 -0.6029  0.1122
15237TIP3   OH267201   1.422   1.463   5.614 -0.4208 -0.5160 -0.1198
15237TIP3    H167202   1.492   1.487   5.675  1.0768 -0.9328 -1.6242
15237TIP3    H267203   1.342   1.465   5.668  0.5289  1.2383  1.3496
15238TIP3   OH267204   6.576   0.959   4.685  0.0423  0.4687 -0.1212
15238TIP3    H167205   6.569   1.048   4.652 -1.4451  0.1638 -0.6902
15238TIP3    H267206   6.558   0.904   4.608  3.1038 -0.4202 -0.3525
15239TIP3   OH267207   6.375   0.775   3.662  0.1452 -0.1028 -0.2261
15239TIP3    H167208   6.412   0.715   3.597  1.8924  0.3630  0.2897
15239TIP3    H267209   6.398   0.862   3.630  0.3437  0.1628  0.6266
15240TIP3   OH267210   3.644   4.190   6.317  0.2229 -0.2121 -0.3835
15240TIP3    H167211   3.558   4.184   6.358  0.9596  1.1619  1.4895
15240TIP3    H267212   3.695   4.121   6.358 -0.0298 -1.2396 -1.7294
15241TIP3   OH267213   5.141   3.788   5.104 -0.5736  0.2559  0.1373
15241TIP3    H167214   5.171   3.788   5.013 -3.5173  0.2247 -0.9514
15241TIP3    H267215   5.146   3.880   5.131  2.1653  0.0176  0.7195
15242TIP3   OH267216   1.020   2.715  14.459 -0.3592  0.8149 -0.0928
15242TIP3    H167217   1.080   2.790  14.464  0.3549  0.4078 -1.8023
15242TIP3    H267218   0.988   2.704  14.548  2.4818  0.7662  1.0278
15243TIP3   OH267219   1.437   0.412  10.371 -0.3059 -0.1133  0.3229
15243TIP3    H167220   1.442   0.508  10.368 -1.5667 -0.0170  0.5204
15243TIP3    H267221   1.466   0.389  10.459  1.6469 -0.0672 -0.2745
15244TIP3   OH267222   0.871   5.010   4.674  0.9648  0.3012 -0.4631
15244TIP3    H167223   0.929   5.017   4.750  1.4125 -2.0444 -0.5326
15244TIP3    H267224   0.876   4.918   4.648 -1.1942  0.4831 -1.7495
15245TIP3   OH267225   0.913   4.980  15.798  0.1440  0.0660 -0.1603
15245TIP3    H167226   0.883   4.893  15.775 -0.2008  0.6429 -2.0481
15245TIP3    H267227   0.836   5.036  15.790  0.9635  1.0455 -2.1282
15246TIP3   OH267228   5.793   6.632  16.851  0.1294 -0.3399 -0.2087
15246TIP3    H167229   5.748   6.574  16.913 -0.5664 -1.3888 -1.6367
15246TIP3    H267230   5.876   6.654  16.895 -0.1299 -1.4280  0.8971
15247TIP3   OH267231   6.464   1.127  13.992 -0.2240  0.3773 -0.2392
15247TIP3    H167232   6.403   1.094  14.058 -0.9039  2.1132  0.0499
15247TIP3    H267233   6.511   1.197  14.036  1.6565 -0.5778 -0.6273
15248TIP3   OH267234   6.187   4.611  15.612  0.2488 -0.1822  0.1704
15248TIP3    H167235   6.092   4.622  15.613  0.3387  0.8208 -0.2039
15248TIP3    H267236   6.217   4.653  15.692  0.3977 -0.2278  0.1393
15249TIP3   OH267237   5.445   2.047   6.168  0.4306 -0.2096 -0.1101
15249TIP3    H167238   5.486   2.130   6.144 -3.6824  2.0998  0.0196
15249TIP3    H267239   5.358   2.071   6.198 -0.2307 -4.4638  2.0635
15250TIP3   OH267240   1.599   2.138   2.338 -0.0370  0.1607 -0.1299
15250TIP3    H167241   1.557   2.219   2.309  2.2532  1.1169 -1.0100
15250TIP3    H267242   1.640   2.160   2.422  1.4051  0.2551 -0.8231
15251TIP3   OH267243   3.495   1.185  11.800  0.7316  0.1691  0.3990
15251TIP3    H167244   3.539   1.150  11.723 -0.0857 -2.2870  0.9637
15251TIP3    H267245   3.562   1.235  11.846  2.1100 -1.0154 -0.2638
15252TIP3   OH267246   5.430   2.958  13.266 -0.7356 -0.4632  0.0246
15252TIP3    H167247   5.421   3.027  13.331  1.8630 -1.6961  1.8543
15252TIP3    H267248   5.497   2.990  13.206  0.0532 -1.0952  0.5431
15253TIP3   OH267249   0.039   3.977  15.310  0.6791 -0.3943  0.0844
15253TIP3    H167250   0.113   3.961  15.251 -0.2545 -1.0743 -0.9481
15253TIP3    H267251   0.050   4.067  15.338  1.3705 -0.1717 -0.8315
15254TIP3   OH267252   0.268   0.180   3.120  0.2766 -0.6890  0.5806
15254TIP3    H167253   0.206   0.157   3.052  1.6598  0.4738 -1.1525
15254TIP3    H267254   0.294   0.096   3.158  0.9637 -1.5812 -1.7002
15255TIP3   OH267255   0.808   2.731  10.680  0.5700 -0.3800  0.2812
15255TIP3    H167256   0.794   2.823  10.658 -1.2961 -0.4395  1.0276
15255TIP3    H267257   0.897   2.712  10.652  0.7058  1.4405 -0.6077
15256TIP3   OH267258   1.582   2.149   4.924  0.4039  0.0442  0.2174
15256TIP3    H167259   1.534   2.215   4.975 -0.7960 -1.1927  0.7637
15256TIP3    H267260   1.605   2.194   4.843 -0.8093  1.0132  0.3666
15257TIP3   OH267261   3.747   3.692  13.105  0.7695  0.4831 -0.2822
15257TIP3    H167262   3.656   3.721  13.110 -0.1163 -2.0920  0.1944
15257TIP3    H267263   3.791   3.739  13.176 -0.7159  0.1458  0.9112
15258TIP3   OH267264   0.178   3.085   2.456  0.8288 -0.6768  0.4409
15258TIP3    H167265   0.124   3.160   2.428  0.7960 -0.0553  2.0276
15258TIP3    H267266   0.197   3.037   2.376 -0.2386  0.3297 -0.4475
15259TIP3   OH267267   2.533   5.936  14.360  0.3241 -0.3916 -0.6006
15259TIP3    H167268   2.585   6.014  14.378 -0.8532 -0.1975  2.7241
15259TIP3    H267269   2.561   5.872  14.426 -2.2808 -0.8942  0.1493
15260TIP3   OH267270   3.378   5.412   3.396  0.0480  0.4841  0.0570
15260TIP3    H167271   3.421   5.402   3.481  0.8394 -0.5672 -0.4489
15260TIP3    H267272   3.429   5.357   3.337  0.0683  1.8931 -1.3126
15261TIP3   OH267273   2.254   4.227  13.882  0.0906 -0.7566 -0.1368
15261TIP3    H167274   2.199   4.281  13.939  1.6457 -0.4670  1.1588
15261TIP3    H267275   2.197   4.204  13.809 -1.2455  0.8898  0.3239
15262TIP3   OH267276   3.909   5.840  13.026  0.3660 -0.0839  0.0983
15262TIP3    H167277   3.858   5.776  12.975  0.4875  0.2854 -0.4985
15262TIP3    H267278   3.907   5.806  13.115 -1.1703  0.0796  0.1463
15263TIP3   OH267279   2.274   5.098   5.735  1.1734  0.3037  0.3651
15263TIP3    H167280   2.225   5.164   5.685  0.2347 -0.6408 -0.0000
15263TIP3    H267281   2.293   5.141   5.819  0.0670  0.8435  0.3553
15264TIP3   OH267282   3.406   0.858  14.346  0.3442 -0.5694  0.1965
15264TIP3    H167283   3.500   0.863  14.363  0.0519 -0.3045  1.9212
15264TIP3    H267284   3.367   0.920  14.407 -0.8251  0.9197 -1.9482
15265TIP3   OH267285   3.346   6.126  11.834  0.5478 -0.2123 -0.1744
15265TIP3    H167286   3.352   6.207  11.783  0.5642  0.3410  0.6949
15265TIP3    H267287   3.395   6.145  11.914  0.1780 -0.9338  0.2256
15266TIP3   OH267288   4.737   6.615  12.905  0.1977  0.3752 -0.5996
15266TIP3    H167289   4.804   6.596  12.971 -0.6245  0.9128  0.4238
15266TIP3    H267290   4.688   6.533  12.896 -0.9427  0.8385  0.9733
15267TIP3   OH267291   4.740   6.652   1.106 -0.7915 -0.8614 -0.3938
15267TIP3    H167292   4.800   6.608   1.166 -1.6409 -0.4266  0.8014
15267TIP3    H267293   4.693   6.581   1.062 -0.3048 -1.1753 -0.4175
15268TIP3   OH267294   3.463   3.431  12.818  0.2146  0.4512 -0.0779
15268TIP3    H167295   3.371   3.437  12.791  0.5350  1.1444 -1.0868
15268TIP3    H267296   3.512   3.470  12.745  1.2770  0.5377  0.6564
15269TIP3   OH267297   1.162   0.963  15.252  0.3031  0.1430 -0.2583
15269TIP3    H167298   1.225   0.996  15.188 -0.1164  0.1684 -0.6684
15269TIP3    H267299   1.212   0.951  15.332  1.1047 -1.0305 -0.9149
15270TIP3   OH267300   3.790   3.494   0.990 -0.0454  0.2690  0.3183
15270TIP3    H167301   3.823   3.508   1.079  1.4802  0.5766 -0.2648
15270TIP3    H267302   3.850   3.430   0.952 -0.5254  0.3379 -0.5846
15271TIP3   OH267303   5.382   6.563  15.769  0.4999 -0.1748 -0.0793
15271TIP3    H167304   5.408   6.528  15.854 -1.1420 -0.5106  0.3181
15271TIP3    H267305   5.367   6.485  15.715  2.2652  0.0417 -0.9406
15272TIP3   OH267306   0.847   0.235   5.309  0.0146 -0.2057  0.1329
15272TIP3    H167307   0.771   0.261   5.257  1.1738 -0.5889 -1.8284
15272TIP3    H267308   0.917   0.295   5.282  1.3144 -1.9862 -0.6405
15273TIP3   OH267309   6.195   6.083  12.079  0.3367  0.3628 -0.4354
15273TIP3    H167310   6.144   6.134  12.142  0.5554  0.3884 -0.2750
15273TIP3    H267311   6.173   5.992  12.098 -0.0485  0.3938 -0.7173
15274TIP3   OH267312   2.839   0.311  17.148  0.2960 -0.5540 -0.3891
15274TIP3    H167313   2.771   0.248  17.171  0.9199 -1.0874  0.0235
15274TIP3    H267314   2.914   0.257  17.122  0.9999  0.0029  0.4452
15275TIP3   OH267315   3.624   2.370   6.215 -0.3938 -0.3962 -0.1132
15275TIP3    H167316   3.665   2.296   6.169 -0.8067 -0.5060 -0.3088
15275TIP3    H267317   3.530   2.350   6.214 -0.7545  1.1322 -2.0279
15276TIP3   OH267318   1.315   1.010   4.149  0.3258  0.1186  0.0039
15276TIP3    H167319   1.369   0.932   4.156 -1.2184 -0.8496  2.6848
15276TIP3    H267320   1.360   1.065   4.084  2.5311 -2.0896 -0.4878
15277TIP3   OH267321   4.692   2.071   5.362  0.0460  0.2970  0.1898
15277TIP3    H167322   4.636   2.003   5.326 -0.8257  1.3229 -0.4489
15277TIP3    H267323   4.697   2.051   5.456 -0.5515 -0.3923  0.0839
15278TIP3   OH267324   4.584   6.403  16.033  0.4838 -0.2196 -0.1300
15278TIP3    H167325   4.537   6.347  15.972  0.1399  0.3599 -0.4011
15278TIP3    H267326   4.660   6.435  15.983  0.0161  0.5317 -0.3805
15279TIP3   OH267327   6.545   0.225   0.593 -0.7890 -0.3881 -0.2072
15279TIP3    H167328   6.599   0.182   0.526  2.7886  0.5935  1.7802
15279TIP3    H267329   6.571   0.317   0.588  0.3863 -0.4312  3.0376
15280TIP3   OH267330   2.288   2.729  13.095  0.4198 -0.3277 -0.2940
15280TIP3    H167331   2.330   2.694  13.017  0.9022  0.4536 -0.3901
15280TIP3    H267332   2.312   2.821  13.097 -0.5734 -0.0621  0.1288
15281TIP3   OH267333   5.408   0.160  13.937 -0.0969 -0.4318 -0.5843
15281TIP3    H167334   5.380   0.245  13.970  3.9930  0.6782  0.6812
15281TIP3    H267335   5.339   0.133  13.877 -2.3489  2.9921  0.2026
15282TIP3   OH267336   5.347   4.344   1.358  0.4019  0.6380  0.4125
15282TIP3    H167337   5.411   4.332   1.287  0.0183  1.2966 -0.0598
15282TIP3    H267338   5.307   4.429   1.340 -2.2037 -0.6909 -0.5949
15283TIP3   OH267339   1.278   5.251  12.043 -0.6927 -0.1051  0.0999
15283TIP3    H167340   1.335   5.287  11.975 -1.7721  0.9609 -0.2711
15283TIP3    H267341   1.190   5.254  12.006 -1.0356 -1.7158  0.6606
15284TIP3   OH267342   2.752   1.592   5.375 -0.2096 -0.1510  0.2045
15284TIP3    H167343   2.687   1.592   5.304  0.2923  2.1596 -0.3050
15284TIP3    H267344   2.732   1.511   5.424 -1.4836 -1.0798 -1.6975
15285TIP3   OH267345   3.900   0.655  11.817 -0.0231 -0.2205 -0.0760
15285TIP3    H167346   3.826   0.691  11.770 -0.0446  0.0821  0.1862
15285TIP3    H267347   3.874   0.566  11.840 -0.0660 -0.3190 -0.5091
15286TIP3   OH267348   0.671   1.607  13.165 -0.6146  0.5408  0.3165
15286TIP3    H167349   0.666   1.664  13.088  0.4923  0.3239  0.0697
15286TIP3    H267350   0.741   1.545  13.145  0.3336  1.0614  1.8820
15287TIP3   OH267351   5.753   1.361  16.947  0.5033 -0.2310 -0.1021
15287TIP3    H167352   5.724   1.326  17.031  2.2368 -1.9103 -0.1545
15287TIP3    H267353   5.694   1.436  16.931  0.8016  0.8439  3.0985
15288TIP3   OH267354   6.064   5.838  11.619 -0.2648  0.2809  0.0717
15288TIP3    H167355   6.147   5.860  11.576 -0.0817  0.3288  0.4448
15288TIP3    H267356   6.003   5.906  11.591 -0.2097  0.1776 -0.2983
15289TIP3   OH267357   5.850   2.532   2.491  0.3531  0.1645  0.4330
15289TIP3    H167358   5.919   2.472   2.464 -0.2954 -0.9913  1.2380
15289TIP3    H267359   5.818   2.496   2.574 -0.6597  1.1277  0.4881
15290TIP3   OH267360   0.895   1.404   1.906  0.1114  0.0295 -0.3200
15290TIP3    H167361   0.966   1.452   1.863  0.2111 -0.0557 -0.2512
15290TIP3    H267362   0.931   1.317   1.923  0.0252  0.0184 -0.1907
15291TIP3   OH267363   2.527   4.651  13.272  0.0299  0.2234  0.6549
15291TIP3    H167364   2.583   4.722  13.304 -0.2758 -0.4198  2.7672
15291TIP3    H267365   2.438   4.682  13.286 -0.1052 -0.3425  1.0986
15292TIP3   OH267366   1.483   6.062   4.756 -0.4918  0.7267  0.5449
15292TIP3    H167367   1.562   6.103   4.720  0.2201 -0.2915  0.9107
15292TIP3    H267368   1.412   6.122   4.731  0.4415  1.9023  0.6171
15293TIP3   OH267369   1.717   4.114  14.314  0.1932  0.0069  0.9235
15293TIP3    H167370   1.700   4.184  14.250 -0.8597 -0.2556  0.8996
15293TIP3    H267371   1.782   4.152  14.373  0.1801  0.7446  0.4869
15294TIP3   OH267372   6.762   0.006  16.960  0.7308  0.3081  0.0024
15294TIP3    H167373   6.679  -0.039  16.976 -0.1043  1.0285 -1.9978
15294TIP3    H267374   6.746   0.097  16.988  0.0015  1.0214 -2.4921
15295TIP3   OH267375   1.302   3.480   2.540 -0.1725  0.2921  0.4500
15295TIP3    H167376   1.355   3.445   2.469 -0.3399 -0.1058  0.5192
15295TIP3    H267377   1.340   3.567   2.558  0.5216 -0.0315  0.5757
15296TIP3   OH267378   3.360   3.397   4.029 -0.0430  0.2519 -0.0640
15296TIP3    H167379   3.395   3.338   3.962  0.7968  0.6220  0.0343
15296TIP3    H267380   3.274   3.424   3.995  0.2492  0.2166 -0.8642
15297TIP3   OH267381   2.117   3.092  10.505 -0.5519 -0.4302 -0.2835
15297TIP3    H167382   2.106   3.089  10.410  0.9993 -0.0391 -0.5032
15297TIP3    H267383   2.188   3.031  10.524  0.4914  0.9353  0.3707
15298TIP3   OH267384   1.047   3.650   1.469 -0.0423  0.2958  0.6880
15298TIP3    H167385   0.970   3.597   1.490 -1.2679  0.0972 -3.3925
15298TIP3    H267386   1.120   3.588   1.471 -0.6936 -0.4959  0.5414
15299TIP3   OH267387   5.855   0.376  15.643 -0.0605  0.2402  0.3735
15299TIP3    H167388   5.863   0.311  15.713 -0.8309  2.1209  2.3517
15299TIP3    H267389   5.931   0.433  15.654 -0.6238  1.0461  0.2548
15300TIP3   OH267390   2.331   0.292  11.452 -0.4476  0.5771 -0.2130
15300TIP3    H167391   2.396   0.333  11.509 -1.4180  1.2479  0.4559
15300TIP3    H267392   2.292   0.365  11.404 -1.8540  0.4090  0.6240
15301TIP3   OH267393   4.314   6.418  16.863  0.1972 -0.0398  1.1800
15301TIP3    H167394   4.366   6.338  16.851 -0.6538 -0.5337  0.6158
15301TIP3    H267395   4.325   6.440  16.955  0.4140 -0.8363  1.3565
15302TIP3   OH267396   3.766   2.776  15.860  0.3322  0.1965  0.1328
15302TIP3    H167397   3.690   2.795  15.805  0.1839 -0.9856 -0.0790
15302TIP3    H267398   3.778   2.856  15.911  0.0003  1.0265 -1.0511
15303TIP3   OH267399   0.042   2.743  13.448  0.8516 -0.4057 -0.1620
15303TIP3    H167400   0.094   2.749  13.368  0.1910 -0.3404 -0.6001
15303TIP3    H267401  -0.047   2.726  13.417  0.5688 -0.2703  0.5551
15304TIP3   OH267402   4.825   6.087   3.084 -0.0243 -1.0436 -0.9196
15304TIP3    H167403   4.757   6.054   3.143  0.4378 -0.0306  0.2087
15304TIP3    H267404   4.787   6.164   3.043  0.4329 -0.4887 -0.3036
15305TIP3   OH267405   1.631   5.262  10.838  0.3499  0.5766 -0.3970
15305TIP3    H167406   1.596   5.288  10.923 -0.3439  0.7452 -0.7348
15305TIP3    H267407   1.640   5.167  10.844 -2.4828  0.1951 -1.1492
15306TIP3   OH267408   4.500   1.560  16.196 -0.6796  0.1430 -0.0377
15306TIP3    H167409   4.576   1.560  16.138 -0.0162 -3.8691  0.5451
15306TIP3    H267410   4.426   1.537  16.139 -0.4550 -1.2819  0.2000
15307TIP3   OH267411   5.602   2.797   3.804  0.2672  0.1550  0.4765
15307TIP3    H167412   5.530   2.811   3.743  0.1312  1.1676  0.8492
15307TIP3    H267413   5.626   2.705   3.792  3.1782  1.1790 -4.2861
15308TIP3   OH267414   2.807   5.309  11.070  0.3761  0.2922 -0.1349
15308TIP3    H167415   2.824   5.218  11.044  0.4490  0.5341 -0.9422
15308TIP3    H267416   2.856   5.362  11.007 -0.9583  0.9288 -0.6649
15309TIP3   OH267417   3.085   3.771  14.290  0.6917 -0.2857 -0.7049
15309TIP3    H167418   3.056   3.686  14.324 -0.3323  0.2348 -0.2649
15309TIP3    H267419   3.164   3.750  14.239  2.1139 -1.1492  1.6955
15310TIP3   OH267420   5.962   3.906  16.129  0.4328 -0.4433  0.4336
15310TIP3    H167421   5.995   3.949  16.208  2.5120  1.2124 -1.2107
15310TIP3    H267422   5.901   3.969  16.091  0.9589 -0.3444 -0.2728
15311TIP3   OH267423   1.946   3.225   1.875 -0.4158 -0.0861 -0.1173
15311TIP3    H167424   1.947   3.318   1.853 -0.7317 -0.2031 -0.6418
15311TIP3    H267425   1.912   3.182   1.796 -0.1900 -0.6527  0.0892
15312TIP3   OH267426   3.122   6.153  15.130 -0.2664  0.0344 -0.4112
15312TIP3    H167427   3.166   6.102  15.198 -0.7859  0.2785  0.1224
15312TIP3    H267428   3.041   6.182  15.172  0.6307  2.4883 -0.2094
15313TIP3   OH267429   1.855   0.010  12.377 -0.1079 -0.7234  0.0577
15313TIP3    H167430   1.868  -0.076  12.336 -2.4135 -1.3502  0.5124
15313TIP3    H267431   1.888  -0.001  12.466  1.5362 -0.4589 -0.4850
15314TIP3   OH267432   5.385   0.313  13.234  0.2981  0.2704  0.0267
15314TIP3    H167433   5.448   0.379  13.262  0.2515  0.2952  0.0747
15314TIP3    H267434   5.402   0.300  13.141  0.9862 -0.3917  0.2303
15315TIP3   OH267435   4.593   6.386   4.048  0.4935  0.2069  0.2281
15315TIP3    H167436   4.597   6.302   4.095  1.7359  0.1262  0.0337
15315TIP3    H267437   4.513   6.381   3.996  0.7147 -1.0237 -0.0424
15316TIP3   OH267438   3.178   2.159  11.877  0.2864 -0.2066 -0.1908
15316TIP3    H167439   3.127   2.228  11.836  0.7172 -0.6027 -1.4427
15316TIP3    H267440   3.240   2.205  11.933 -0.5405  0.3282  0.3231
15317TIP3   OH267441   2.642   3.716  16.012 -0.7432  0.1322 -0.2638
15317TIP3    H167442   2.565   3.742  15.961  0.0340 -0.8245 -2.0149
15317TIP3    H267443   2.647   3.781  16.082 -4.1047 -0.7435  0.9841
15318TIP3   OH267444   1.349   5.506   5.664  0.1604  0.0807 -0.1675
15318TIP3    H167445   1.318   5.596   5.662 -0.0898 -0.0123 -1.0799
15318TIP3    H267446   1.444   5.514   5.674  0.2353  0.4831 -1.0794
15319TIP3   OH267447   5.148   4.727   2.220  0.3712 -0.4553  0.0578
15319TIP3    H167448   5.233   4.740   2.263 -0.0068 -0.7677  0.9266
15319TIP3    H267449   5.140   4.632   2.210  0.2677 -0.4066 -0.3059
15320TIP3   OH267450   3.923   1.641  16.642  0.1434  0.0717  0.7502
15320TIP3    H167451   3.990   1.639  16.574  0.2147  2.5673  0.6271
15320TIP3    H267452   3.840   1.642  16.594  0.1526  0.4614  0.7362
15321TIP3   OH267453   4.574   6.669   3.425  0.0327  0.3905  0.0850
15321TIP3    H167454   4.590   6.741   3.487  0.3736  0.0087  0.4427
15321TIP3    H267455   4.571   6.591   3.480 -1.6584  0.2711 -0.1232
15322TIP3   OH267456   6.051   5.219  12.370  0.5659  0.9427 -0.1656
15322TIP3    H167457   6.023   5.145  12.316 -0.5831  0.6207  0.8408
15322TIP3    H267458   6.020   5.296  12.323  0.9610  0.7581 -0.7483
15323TIP3   OH267459   1.666   2.611   2.525  0.2607  0.0931 -0.0219
15323TIP3    H167460   1.734   2.576   2.582  0.0367 -0.9876 -0.3974
15323TIP3    H267461   1.595   2.635   2.584 -0.4925 -2.2167  0.1102
15324TIP3   OH267462   5.984   1.391   2.214  0.9005 -0.8694  0.3152
15324TIP3    H167463   5.926   1.368   2.142  1.1775 -2.3489  0.5394
15324TIP3    H267464   5.988   1.487   2.212 -1.8008 -0.6709  0.4784
15325TIP3   OH267465   0.899   4.538  16.907 -0.6587  0.1928 -0.3407
15325TIP3    H167466   0.817   4.507  16.944  0.1153 -2.1932 -0.4338
15325TIP3    H267467   0.964   4.520  16.975 -0.0359  0.8520 -0.7473
15326TIP3   OH267468   4.360   6.559   5.279  0.1709  0.3935  0.2972
15326TIP3    H167469   4.369   6.641   5.231  1.1591  0.4915  0.6321
15326TIP3    H267470   4.428   6.502   5.243 -0.0164 -0.0281  0.5932
15327TIP3   OH267471   2.150   1.525   1.329  0.4012  0.0511 -0.4100
15327TIP3    H167472   2.193   1.450   1.369 -0.9159 -0.0696  0.8805
15327TIP3    H267473   2.058   1.517   1.355  0.2849  2.3273  0.1462
15328TIP3   OH267474   4.738   4.722   5.221  0.1126  0.2776  0.0937
15328TIP3    H167475   4.828   4.744   5.199  0.1748  0.9530  0.9931
15328TIP3    H267476   4.702   4.801   5.260 -0.7871 -0.0743  0.0056
15329TIP3   OH267477   0.808   3.819  16.085  0.3052  0.5160 -0.5602
15329TIP3    H167478   0.896   3.849  16.105  0.8732 -1.7997  0.6829
15329TIP3    H267479   0.813   3.789  15.994  1.6006 -1.9962  0.2385
15330TIP3   OH267480   0.026   0.559   1.723  0.5172  0.4371 -0.5396
15330TIP3    H167481   0.065   0.535   1.807 -1.0042  1.4064  0.4954
15330TIP3    H267482  -0.011   0.647   1.737 -2.7416 -0.6869 -1.1080
15331TIP3   OH267483   5.691   3.756   3.460  0.1040 -0.3705  0.4736
15331TIP3    H167484   5.669   3.771   3.368  1.2627 -0.7696  0.1176
15331TIP3    H267485   5.739   3.834   3.487  0.0341 -0.3893  0.6561
15332TIP3   OH267486   2.499   0.558  10.847 -0.3022  0.0551 -0.0546
15332TIP3    H167487   2.537   0.573  10.760  0.7339  0.1030  0.3986
15332TIP3    H267488   2.488   0.463  10.852 -2.6729  0.2023 -1.1715
15333TIP3   OH267489   6.721   5.414   3.696  0.3603 -0.1184  0.8267
15333TIP3    H167490   6.692   5.487   3.641 -0.2325 -1.7540 -1.1441
15333TIP3    H267491   6.775   5.455   3.764  1.0526  2.0270 -0.9164
15334TIP3   OH267492   6.108   5.527   4.413  0.5350  0.2333  0.1676
15334TIP3    H167493   6.026   5.576   4.407 -0.5748 -1.1780  2.3062
15334TIP3    H267494   6.132   5.531   4.506  1.8420 -1.0147 -0.0612
15335TIP3   OH267495   1.487   1.031   5.140  0.6049  0.1571 -0.0781
15335TIP3    H167496   1.456   0.966   5.204  1.5888 -0.9174 -0.6429
15335TIP3    H267497   1.416   1.094   5.134 -1.0432 -1.6395 -0.5734
15336TIP3   OH267498   6.117   6.356   4.183  0.1307 -0.0268 -0.4046
15336TIP3    H167499   6.124   6.365   4.088  2.1294 -0.8426 -0.3859
15336TIP3    H267500   6.183   6.290   4.206 -0.1981  0.2583  1.5728
15337TIP3   OH267501   6.445   4.984  10.740 -0.0094  0.3472 -0.2192
15337TIP3    H167502   6.441   5.069  10.783 -2.0497  0.1591  0.0563
15337TIP3    H267503   6.488   5.001  10.656  2.0770  1.1121  0.9563
15338TIP3   OH267504   3.467   1.059   5.634  0.4687  0.3381 -0.5478
15338TIP3    H167505   3.560   1.051   5.654  0.8236  1.6866 -1.4703
15338TIP3    H267506   3.432   0.971   5.645  1.5784  0.0626  1.0644
15339TIP3   OH267507   0.974   3.422  15.060  0.5451 -0.2663 -0.4277
15339TIP3    H167508   0.884   3.441  15.088 -0.0196 -1.8441 -1.0530
15339TIP3    H267509   1.027   3.443  15.137 -0.6687 -1.8772  0.9476
15340TIP3   OH267510   4.766   0.449   5.350  0.4585 -0.4417  1.0317
15340TIP3    H167511   4.731   0.385   5.412  0.5140 -0.8625  0.6373
15340TIP3    H267512   4.861   0.448   5.366  0.4431 -0.3503  1.1271
15341TIP3   OH267513   1.097   5.588   2.888 -0.6249  0.1296 -0.2117
15341TIP3    H167514   1.173   5.592   2.945 -0.4340 -0.5021 -0.4117
15341TIP3    H267515   1.126   5.538   2.812 -1.7190 -1.6983  0.5040
15342TIP3   OH267516   2.429   4.067   4.176  0.1239 -0.1010  0.0127
15342TIP3    H167517   2.395   4.047   4.088 -0.6216 -2.6437  0.7824
15342TIP3    H267518   2.377   4.141   4.205  0.0566  0.4850 -1.5078
15343TIP3   OH267519   1.756   2.077  13.439  0.1502  0.3982 -0.5354
15343TIP3    H167520   1.718   2.010  13.383 -0.6038  1.1935 -1.0045
15343TIP3    H267521   1.851   2.067  13.428  0.1340 -1.5512  0.5705
15344TIP3   OH267522   3.431   1.501  14.816  0.2668  0.1818 -0.0288
15344TIP3    H167523   3.442   1.427  14.757  0.0384 -1.0542  1.4287
15344TIP3    H267524   3.338   1.524  14.808  0.3907  0.4894 -0.6617
15345TIP3   OH267525   2.408   0.079  15.875  0.4833 -0.1782 -0.8731
15345TIP3    H167526   2.374   0.143  15.812  0.6287 -0.0233 -0.7977
15345TIP3    H267527   2.351   0.003  15.865 -0.0652  0.1840 -0.5421
15346TIP3   OH267528   1.957   6.804   0.334  0.2709  1.1013 -0.0837
15346TIP3    H167529   1.863   6.790   0.323  0.5388  0.0031 -1.1644
15346TIP3    H267530   1.993   6.801   0.245  1.5557 -0.2656  0.4402
15347TIP3   OH267531   6.587   5.130  14.945  0.4191 -0.7281 -0.2564
15347TIP3    H167532   6.597   5.225  14.950 -1.9296 -0.4644  1.2869
15347TIP3    H267533   6.558   5.114  14.855 -3.3784  0.6523  0.5364
15348TIP3   OH267534   5.240   5.279  13.106 -0.6062 -0.1042  0.1765
15348TIP3    H167535   5.308   5.268  13.039  0.5309  2.0363  0.8804
15348TIP3    H267536   5.253   5.206  13.167  0.1868 -0.4566 -0.4073
15349TIP3   OH267537   1.728   3.975  16.484 -0.3686  0.2665 -0.4244
15349TIP3    H167538   1.797   4.009  16.542 -2.0620  0.0324  1.8951
15349TIP3    H267539   1.688   4.053  16.446 -0.9202  0.6385  0.8488
15350TIP3   OH267540   5.644   1.937  15.610  0.4125  0.7430 -0.3219
15350TIP3    H167541   5.614   1.979  15.529  1.5193  0.0418 -1.1189
15350TIP3    H267542   5.697   1.863  15.581  0.3018  0.0851  1.0576
15351TIP3   OH267543   6.729   1.214  12.876 -0.5163  0.0404 -0.1588
15351TIP3    H167544   6.726   1.229  12.781  1.9385  0.9202 -0.1551
15351TIP3    H267545   6.644   1.247  12.907 -0.7503  1.2187 -1.8598
15352TIP3   OH267546   1.472   1.015   1.761  0.3535 -0.4562  0.0295
15352TIP3    H167547   1.529   0.939   1.755  0.0538 -0.5776 -2.7647
15352TIP3    H267548   1.390   0.988   1.719 -0.7443  0.6060  1.3671
15353TIP3   OH267549   4.042   3.929   0.577 -0.2032 -0.2397  0.0177
15353TIP3    H167550   4.131   3.896   0.564  0.2422  0.7463  0.4658
15353TIP3    H267551   3.988   3.850   0.577  0.2712 -0.6811 -3.1292
15354TIP3   OH267552   6.217   5.266   5.587  0.3823  0.2877 -0.0098
15354TIP3    H167553   6.191   5.256   5.495 -0.2464 -0.1953  0.2113
15354TIP3    H267554   6.302   5.224   5.592  0.3940  0.2664 -0.3653
15355TIP3   OH267555   4.617   4.585  14.606  0.1123  0.1286 -0.1495
15355TIP3    H167556   4.708   4.564  14.629  0.5966 -1.3168 -2.9337
15355TIP3    H267557   4.566   4.512  14.640  0.3880 -0.3527 -0.7299
15356TIP3   OH267558   6.540   2.242   4.903 -1.0850  0.1214  0.4870
15356TIP3    H167559   6.601   2.293   4.850 -4.0469  1.4099 -2.0711
15356TIP3    H267560   6.502   2.305   4.964 -0.0635 -0.6225  1.9444
15357TIP3   OH267561   2.511   4.618  11.108 -0.2088 -0.0362  0.9080
15357TIP3    H167562   2.520   4.619  11.012 -1.1594 -1.1473  0.7736
15357TIP3    H267563   2.424   4.654  11.124  0.9140  2.6349  1.5795
15358TIP3   OH267564   6.488   4.657  11.663  0.1700 -0.1311 -0.4612
15358TIP3    H167565   6.558   4.706  11.619  0.8632 -0.2947  0.4226
15358TIP3    H267566   6.509   4.664  11.756  1.8754 -4.2611 -0.3110
15359TIP3   OH267567   5.341   1.084  12.669 -0.0846  0.3928  0.2141
15359TIP3    H167568   5.413   1.055  12.725  0.4136  2.9010  0.9864
15359TIP3    H267569   5.262   1.066  12.720  0.0923 -0.6673  0.1434
15360TIP3   OH267570   0.675   0.044  12.372  1.0431  0.1510  0.4424
15360TIP3    H167571   0.713   0.101  12.305 -1.0658 -0.3661 -1.3240
15360TIP3    H267572   0.729  -0.034  12.372 -0.2325 -0.8594 -2.4854
15361TIP3   OH267573   3.748   1.655   3.816  0.4823  0.0216  0.0627
15361TIP3    H167574   3.698   1.602   3.879  1.6168 -0.9724  0.1726
15361TIP3    H267575   3.748   1.603   3.736  0.5519  0.4543 -0.2212
15362TIP3   OH267576   5.213   5.528   2.519 -0.1563 -0.0543  0.1280
15362TIP3    H167577   5.125   5.555   2.544 -0.3313 -0.4297 -0.0696
15362TIP3    H267578   5.271   5.574   2.580 -0.4497  0.6489 -0.1121
15363TIP3   OH267579   5.625   4.295   3.417  0.0302  0.3950 -0.0339
15363TIP3    H167580   5.598   4.386   3.422 -1.3664 -0.0395  0.5633
15363TIP3    H267581   5.625   4.264   3.507  0.5222 -0.2051 -0.2278
15364TIP3   OH267582   4.499   5.524  12.968  0.7140  0.2198 -0.0276
15364TIP3    H167583   4.535   5.559  12.887  1.6932 -0.0242  0.2894
15364TIP3    H267584   4.551   5.446  12.987  0.0832 -0.0894  0.5028
15365TIP3   OH267585   0.243   2.925   2.227  0.0423 -0.3354  0.6197
15365TIP3    H167586   0.258   2.984   2.153  0.4852 -0.6300  0.4705
15365TIP3    H267587   0.186   2.857   2.191 -1.5780  0.6947  1.1416
15366TIP3   OH267588   1.498   5.684  15.938 -0.5712 -0.5261  0.0758
15366TIP3    H167589   1.415   5.687  15.890  0.0032  2.1207 -0.9788
15366TIP3    H267590   1.499   5.765  15.989  1.6659 -0.0235 -0.6250
15367TIP3   OH267591   1.974   4.870  15.820  0.0212 -0.0090 -0.1526
15367TIP3    H167592   1.995   4.962  15.837  0.0772 -0.3880  2.1011
15367TIP3    H267593   1.888   4.857  15.861 -0.5351 -0.6833 -1.4890
15368TIP3   OH267594   1.867   4.118   2.367  0.5157 -0.3582 -0.1308
15368TIP3    H167595   1.830   4.159   2.445  0.1235  0.0914 -0.5487
15368TIP3    H267596   1.955   4.090   2.394  1.2570  1.7733 -0.1351
15369TIP3   OH267597   0.840   0.415   1.907  0.0696  0.2509  0.6099
15369TIP3    H167598   0.886   0.401   1.989  1.4212 -2.1328 -0.4504
15369TIP3    H267599   0.790   0.335   1.894 -1.2307  1.1653 -0.2426
15370TIP3   OH267600   4.237   4.027  13.527  0.4147 -0.0277 -0.0811
15370TIP3    H167601   4.226   3.932  13.522 -1.6123  0.1357  0.5406
15370TIP3    H267602   4.241   4.055  13.435 -1.8852 -0.4737 -0.3866
15371TIP3   OH267603   3.030   4.679  12.895 -0.1523 -0.4681  0.1143
15371TIP3    H167604   3.016   4.699  12.802  0.5047 -0.9412 -0.0949
15371TIP3    H267605   3.026   4.765  12.938  2.3553  0.1490 -0.7280
15372TIP3   OH267606   0.955   3.387  13.772  0.1153  0.1329 -0.0224
15372TIP3    H167607   0.880   3.347  13.728  0.2997 -0.6203  0.3168
15372TIP3    H267608   1.019   3.316  13.776  0.5614  0.5593  0.3465
15373TIP3   OH267609   1.473   2.976   5.458  0.3975  0.4996  0.0009
15373TIP3    H167610   1.497   3.068   5.445  1.3700  0.4492  1.1957
15373TIP3    H267611   1.397   2.979   5.517  0.7302  0.5335  0.4325
15374TIP3   OH267612   6.415   4.279   1.288  0.2869  0.3702  0.9825
15374TIP3    H167613   6.468   4.206   1.322  1.1603  0.5138  0.0015
15374TIP3    H267614   6.412   4.342   1.360  0.3338 -0.2145  1.5076
15375TIP3   OH267615   3.092   0.243  14.557  0.1745  0.2712  0.4438
15375TIP3    H167616   3.019   0.252  14.619 -1.0065  0.0993 -0.8871
15375TIP3    H267617   3.083   0.317  14.497  2.2784  1.3892  1.3797
15376TIP3   OH267618   0.399   4.777  15.198 -0.4922 -0.2215 -0.3075
15376TIP3    H167619   0.370   4.843  15.135  0.5877  0.8412  0.2713
15376TIP3    H267620   0.352   4.799  15.278  2.3040  2.0317  0.8866
15377TIP3   OH267621   1.873   2.163  14.755  0.0679  0.8867  0.1057
15377TIP3    H167622   1.818   2.206  14.690 -1.4124  1.6303  1.7499
15377TIP3    H267623   1.835   2.189  14.839  1.7078 -0.2739  1.2706
15378TIP3   OH267624   5.872   3.203   4.625 -0.3199 -0.0830  0.5257
15378TIP3    H167625   5.952   3.153   4.612 -1.3007 -1.6327  0.2367
15378TIP3    H267626   5.837   3.172   4.708 -0.3931  0.9361  0.8939
15379TIP3   OH267627   4.295   5.901  13.217  0.3411  0.8401 -0.1371
15379TIP3    H167628   4.278   5.834  13.284  0.4592 -0.6393 -1.5269
15379TIP3    H267629   4.383   5.880  13.185  0.9409  2.5114  0.3062
15380TIP3   OH267630   5.606   1.384  12.928 -0.4019 -0.0043  0.2856
15380TIP3    H167631   5.666   1.309  12.931  1.1474  1.2033  1.0067
15380TIP3    H267632   5.568   1.389  13.015  1.0352  1.2031  0.8775
15381TIP3   OH267633   4.573   0.051  16.055 -0.8270  0.1601 -0.2307
15381TIP3    H167634   4.580   0.102  15.974  1.5795  1.2653  0.5975
15381TIP3    H267635   4.510  -0.018  16.034 -1.1320  1.0766 -2.6710
15382TIP3   OH267636   6.049   4.604  16.605  0.2397 -0.4589 -0.2793
15382TIP3    H167637   5.991   4.679  16.622 -0.0325 -0.9203  0.9652
15382TIP3    H267638   6.019   4.569  16.521 -1.5596 -0.9031  0.4952
15383TIP3   OH267639   3.959   5.585  16.411 -0.2859 -0.2340 -0.2569
15383TIP3    H167640   4.014   5.641  16.466 -0.7761  1.0400 -1.0190
15383TIP3    H267641   3.922   5.520  16.471  0.8801 -0.2050  0.5155
15384TIP3   OH267642   5.053   5.051   0.538 -0.3924  0.1889  0.3003
15384TIP3    H167643   5.049   5.003   0.621 -1.2264 -0.1287  0.0878
15384TIP3    H267644   5.092   4.988   0.477  0.4060  0.4903  0.4891
15385TIP3   OH267645   4.064   3.006  11.969 -0.3063  0.1996  0.4290
15385TIP3    H167646   4.058   3.077  11.905  1.0579  0.1852  0.2394
15385TIP3    H267647   4.141   3.028  12.021  2.1003 -2.6006 -1.5868
15386TIP3   OH267648   1.069   5.041   3.190 -0.2454 -0.1131 -0.4798
15386TIP3    H167649   1.044   5.110   3.129 -1.1746  0.6622  0.7205
15386TIP3    H267650   1.051   5.078   3.277  1.3982 -1.0321  0.2924
15387TIP3   OH267651   4.678   0.194  12.111  0.0676 -0.4501  0.2075
15387TIP3    H167652   4.754   0.135  12.106  0.0398 -0.5468  0.7973
15387TIP3    H267653   4.603   0.135  12.111 -0.1112 -0.3099 -1.8831
15388TIP3   OH267654   4.702   5.793   6.023  0.0305  0.0436 -0.3554
15388TIP3    H167655   4.689   5.765   6.113 -2.3269  4.4475  0.9635
15388TIP3    H267656   4.797   5.792   6.011  0.3774 -1.2605  1.8734
15389TIP3   OH267657   3.739   1.325  14.254  0.2306 -0.4893 -0.0564
15389TIP3    H167658   3.679   1.349  14.325  0.8367 -1.0235  0.6574
15389TIP3    H267659   3.708   1.240  14.224  0.5616 -0.7201  0.2468
15390TIP3   OH267660   2.237   4.993   2.039  0.1978  0.4334 -0.1214
15390TIP3    H167661   2.221   4.956   2.126  1.1533 -1.4143 -0.6512
15390TIP3    H267662   2.206   4.925   1.979  0.4799  1.2452 -1.2112
15391TIP3   OH267663   4.741   3.577  11.909  0.0684 -0.4245  0.5479
15391TIP3    H167664   4.657   3.618  11.887  1.0110  1.7139  0.6864
15391TIP3    H267665   4.784   3.563  11.824 -0.7960 -2.5160  0.3914
15392TIP3   OH267666   6.057   3.638   2.818  0.3539 -0.3689  0.3010
15392TIP3    H167667   6.028   3.685   2.896  2.5385  0.6492  0.5768
15392TIP3    H267668   6.024   3.549   2.830  0.5621 -0.2273  2.3714
15393TIP3   OH267669   2.928   3.587  11.919 -0.9927  0.0757 -0.3535
15393TIP3    H167670   3.001   3.526  11.911 -0.5288  0.5146  0.4207
15393TIP3    H267671   2.913   3.594  12.014 -1.2663  0.8846 -0.4482
15394TIP3   OH267672   3.035   4.871  15.547 -0.0085  0.7410 -0.1986
15394TIP3    H167673   3.030   4.966  15.557  0.8580  0.6116  2.0392
15394TIP3    H267674   2.964   4.838  15.602 -0.6093  0.0707 -1.3412
15395TIP3   OH267675   2.182   1.069  13.470 -0.3994  0.1106  0.2925
15395TIP3    H167676   2.111   1.071  13.535  1.2527  0.9294  2.2059
15395TIP3    H267677   2.251   1.018  13.512  0.2376 -0.5135 -1.4417
15396TIP3   OH267678   0.751   0.113  17.149 -0.1455 -0.2069 -0.0523
15396TIP3    H167679   0.721   0.157  17.069 -0.1601 -0.4729 -0.1913
15396TIP3    H267680   0.687   0.043  17.163 -0.1632 -0.1408  0.2152
15397TIP3   OH267681   5.533   2.985   4.027  0.5260 -0.0373  1.2039
15397TIP3    H167682   5.566   3.054   3.969  2.3104 -0.6625  1.4100
15397TIP3    H267683   5.537   2.905   3.975 -0.6021 -0.1610  1.2833
15398TIP3   OH267684   3.421   3.081  13.432  0.5383 -0.0719  0.3586
15398TIP3    H167685   3.452   3.002  13.387 -1.5529 -2.0555  2.1652
15398TIP3    H267686   3.496   3.111  13.484  1.4770 -0.5865 -0.6648
15399TIP3   OH267687   6.461   0.066  13.127  0.2182 -0.0304 -0.3126
15399TIP3    H167688   6.545   0.049  13.169  1.4311  1.6204 -1.9496
15399TIP3    H267689   6.416  -0.019  13.129  2.1972 -1.1267 -0.0300
15400TIP3   OH267690   6.734   5.079  12.727  0.1984 -0.3013 -0.5836
15400TIP3    H167691   6.812   5.134  12.720  0.2395 -0.2558  0.1539
15400TIP3    H267692   6.662   5.141  12.737  0.2672 -0.3705  0.4539
15401TIP3   OH267693   4.646   0.740  16.907 -0.3414 -0.0036 -0.8115
15401TIP3    H167694   4.701   0.663  16.922  0.1723  0.3489 -0.8626
15401TIP3    H267695   4.673   0.803  16.974  0.8856  0.9978 -2.1899
15402TIP3   OH267696   3.366   5.053  16.901  0.7067  0.0706  0.2456
15402TIP3    H167697   3.442   5.093  16.858 -0.0758  0.5247 -0.7454
15402TIP3    H267698   3.390   4.961  16.911  1.7321  0.3748  0.7585
15403TIP3   OH267699   4.974   1.694   5.143 -0.2418  0.2600 -0.1900
15403TIP3    H167700   4.987   1.774   5.194  1.1878 -0.2123  0.2380
15403TIP3    H267701   5.025   1.708   5.063 -0.1370 -0.1405 -0.1959
15404TIP3   OH267702   1.505   3.459  12.140  0.0736  0.5270  0.5449
15404TIP3    H167703   1.519   3.368  12.164  1.1522  0.4990 -0.1495
15404TIP3    H267704   1.434   3.457  12.076 -1.3083  0.3976  2.0052
15405TIP3   OH267705   5.040   0.144   4.061  0.2090 -0.2125  0.1900
15405TIP3    H167706   4.989   0.224   4.047  2.2098  1.0102 -0.5346
15405TIP3    H267707   5.004   0.082   3.997 -1.0399  0.2539  0.4088
15406TIP3   OH267708   5.207   6.028   1.166  0.8492 -0.7496 -0.0838
15406TIP3    H167709   5.261   6.108   1.163  1.0113 -0.8760 -1.6160
15406TIP3    H267710   5.216   5.991   1.078  1.3529 -2.8522  0.8140
15407TIP3   OH267711   6.231   1.881  15.939  0.6348 -0.1681 -0.6208
15407TIP3    H167712   6.184   1.799  15.955 -0.9152  0.5164 -1.4655
15407TIP3    H267713   6.217   1.933  16.018  0.1030 -0.0283 -0.8077
15408TIP3   OH267714   6.158   1.708   4.209  0.3625 -0.6684  0.6488
15408TIP3    H167715   6.113   1.773   4.263  0.4381  0.5910 -0.7503
15408TIP3    H267716   6.213   1.659   4.271  0.4244  0.7097  1.7234
15409TIP3   OH267717   0.573   2.534  14.452  0.4220  0.1671 -0.6796
15409TIP3    H167718   0.538   2.545  14.540  1.1226 -1.7856 -0.1038
15409TIP3    H267719   0.497   2.516  14.397 -0.0484  1.6662 -0.5649
15410TIP3   OH267720   2.145   3.096   2.764 -0.3000  0.4724 -0.2935
15410TIP3    H167721   2.129   3.164   2.831  0.8534 -0.8083  1.3596
15410TIP3    H267722   2.231   3.061   2.786 -1.1732 -2.0362 -0.6413
15411TIP3   OH267723   4.575   6.104   2.319 -0.8759  0.2333 -0.0031
15411TIP3    H167724   4.665   6.076   2.302 -0.6632  1.1138 -0.3520
15411TIP3    H267725   4.521   6.030   2.288 -0.4371  1.0459 -3.0584
15412TIP3   OH267726   1.877   0.217  11.785  0.0831 -0.7056  0.1236
15412TIP3    H167727   1.848   0.158  11.716  1.1099 -1.0609 -0.0274
15412TIP3    H267728   1.821   0.294  11.777  0.6839 -0.4081 -1.6246
15413TIP3   OH267729   6.488   0.512  14.468 -0.1988 -0.5088  0.1129
15413TIP3    H167730   6.517   0.477  14.384  1.7466 -1.4890  1.1225
15413TIP3    H267731   6.521   0.602  14.469 -1.7349  0.1029 -0.8375
15414TIP3   OH267732   6.559   6.549   0.360  0.0538 -0.2539  0.0136
15414TIP3    H167733   6.475   6.584   0.332  0.2337  0.6928  0.6213
15414TIP3    H267734   6.595   6.507   0.282  0.0230  1.2917 -0.8607
15415TIP3   OH267735   5.762   6.480   4.981 -0.4730 -0.0738  0.4053
15415TIP3    H167736   5.738   6.550   4.920  1.6049 -1.8108 -2.6766
15415TIP3    H267737   5.696   6.413   4.969  0.8255 -1.1017 -1.2653
15416TIP3   OH267738   0.701   6.045   5.158 -0.1046  0.1305  0.7283
15416TIP3    H167739   0.652   6.125   5.181 -0.9957 -0.4254  0.8044
15416TIP3    H267740   0.742   6.018   5.240 -1.4440 -0.5972  1.1740
15417TIP3   OH267741   3.422   3.468   1.564  0.1477 -0.7853  0.0030
15417TIP3    H167742   3.423   3.373   1.572  0.8486 -0.6673  1.4867
15417TIP3    H267743   3.489   3.487   1.498  0.1591 -1.2981 -0.1372
15418TIP3   OH267744   3.600   6.278  10.420 -0.1284  0.1453  1.0023
15418TIP3    H167745   3.557   6.364  10.417  1.1388  0.7755 -0.8133
15418TIP3    H267746   3.563   6.235  10.497  1.6865  3.6162  4.1165
15419TIP3   OH267747   3.888   2.657   4.932 -0.1283  0.2072 -0.4373
15419TIP3    H167748   3.844   2.701   5.005 -0.2100  0.7908 -0.8293
15419TIP3    H267749   3.859   2.566   4.937  1.6570 -0.3548  1.6844
15420TIP3   OH267750   1.476   2.153  12.300  0.4185 -0.3351 -0.3928
15420TIP3    H167751   1.558   2.108  12.319  0.6782  0.6505  0.8997
15420TIP3    H267752   1.470   2.151  12.204  2.7367  0.9114 -0.6343
15421TIP3   OH267753   3.218   3.988   0.877 -0.1728 -0.3710  0.1815
15421TIP3    H167754   3.286   3.924   0.858 -0.2578 -0.1297 -1.0411
15421TIP3    H267755   3.183   4.011   0.791 -2.0105 -0.7198  0.7991
15422TIP3   OH267756   2.741   4.306  14.311 -0.4940  0.5195  0.0311
15422TIP3    H167757   2.722   4.360  14.234 -1.4935  2.2762  1.4423
15422TIP3    H267758   2.833   4.281  14.301 -0.4390  1.1987 -1.4270
15423TIP3   OH267759   0.308   1.130  16.276  0.2543  0.2957  0.3940
15423TIP3    H167760   0.289   1.106  16.185  3.1903 -1.6272  0.1540
15423TIP3    H267761   0.350   1.216  16.270  1.0883 -0.1352 -0.2027
15424TIP3   OH267762   5.421   5.459   1.755  0.0671  0.0784 -0.1245
15424TIP3    H167763   5.365   5.490   1.826 -0.9219 -0.9831 -0.4173
15424TIP3    H267764   5.385   5.498   1.676  0.8449  0.8338 -0.1170
15425TIP3   OH267765   5.290   0.368  14.081 -0.3029  0.7474 -0.5597
15425TIP3    H167766   5.250   0.344  14.164 -2.5740  0.9874 -1.5171
15425TIP3    H267767   5.340   0.448  14.100 -1.1003  1.0132  0.4957
15426TIP3   OH267768   0.605   3.783  16.256 -0.1090 -0.0813  0.3781
15426TIP3    H167769   0.544   3.739  16.197 -0.2104  1.9130 -1.1039
15426TIP3    H267770   0.680   3.806  16.201 -0.0200  1.4817  1.0914
15427TIP3   OH267771   3.306   0.457   1.391 -0.2222  0.3180 -0.0622
15427TIP3    H167772   3.329   0.507   1.470  0.9218 -0.7551  0.3023
15427TIP3    H267773   3.210   0.457   1.391 -0.2388  0.7857  1.0353
15428TIP3   OH267774   1.984   5.503   5.502  0.5283  0.2104  0.3715
15428TIP3    H167775   2.016   5.538   5.585 -0.0041 -0.6798  0.9615
15428TIP3    H267776   1.918   5.566   5.473  0.6878  0.5005  0.6264
15429TIP3   OH267777   4.134   2.795  15.917  0.4289  0.0222  0.1379
15429TIP3    H167778   4.123   2.879  15.872 -0.7078 -0.0973  0.1683
15429TIP3    H267779   4.123   2.729  15.849 -0.3763 -0.1324  0.4007
15430TIP3   OH267780   6.691   6.745   0.032  0.1960  0.0228 -0.1456
15430TIP3    H167781   6.618   6.692   0.066  1.2160 -0.7822  0.8801
15430TIP3    H267782   6.649   6.818  -0.013 -1.2445 -0.6537  0.0431
15431TIP3   OH267783   6.769   5.644   2.265  0.2291 -0.5240 -0.5233
15431TIP3    H167784   6.856   5.681   2.252 -0.0760  1.1146  1.4800
15431TIP3    H267785   6.713   5.720   2.285 -1.6870 -1.5217 -1.7881
15432TIP3   OH267786   2.314   5.567  11.497 -0.2811 -0.1150 -0.0487
15432TIP3    H167787   2.294   5.577  11.404 -1.0020 -3.8146 -0.4401
15432TIP3    H267788   2.398   5.521  11.499 -0.2716 -0.0884  1.1447
15433TIP3   OH267789   1.163   1.417  11.077 -0.5650 -0.1096 -0.3203
15433TIP3    H167790   1.211   1.360  11.018  0.2092  0.5595 -0.3433
15433TIP3    H267791   1.076   1.377  11.083 -0.0249 -1.3118 -0.2989
15434TIP3   OH267792   2.136   6.604  11.696  0.2623 -0.4679 -0.5674
15434TIP3    H167793   2.191   6.673  11.659  1.2409 -1.1381 -0.3936
15434TIP3    H267794   2.192   6.561  11.760 -0.6163 -0.8939 -0.0762
15435TIP3   OH267795   6.089   2.362  15.789  0.1059  0.0252  0.2138
15435TIP3    H167796   6.053   2.307  15.720  1.6370 -1.6751  0.6886
15435TIP3    H267797   6.017   2.374  15.851 -0.6497 -0.2630 -0.5958
15436TIP3   OH267798   6.308   5.360   0.553  0.0335 -0.2159  0.1440
15436TIP3    H167799   6.369   5.399   0.490 -1.8261  3.4821  0.4172
15436TIP3    H267800   6.332   5.397   0.637 -0.0954 -1.9153  0.9729
15437TIP3   OH267801   2.576   2.721  14.990  0.1154 -0.0658  0.7464
15437TIP3    H167802   2.607   2.697  15.078  1.2916  1.2566  0.7110
15437TIP3    H267803   2.573   2.816  14.991  2.0475  0.0858 -1.2575
15438TIP3   OH267804   0.806   0.390  13.286  0.4408 -0.8064 -0.0870
15438TIP3    H167805   0.714   0.403  13.312 -0.1029  1.2630 -2.5895
15438TIP3    H267806   0.802   0.339  13.206  1.5044 -0.7729 -0.1768
15439TIP3   OH267807   2.030   4.801  16.211 -0.6322  0.0752  0.2606
15439TIP3    H167808   2.030   4.878  16.268 -0.7667 -0.2106  0.6495
15439TIP3    H267809   2.016   4.727  16.270 -1.6706 -0.1506 -0.2463
15440TIP3   OH267810   5.803   4.756   6.366 -0.3117 -0.1427  0.7838
15440TIP3    H167811   5.793   4.667   6.400 -2.2409 -0.6425 -0.9141
15440TIP3    H267812   5.714   4.792   6.366 -0.2917  0.2082 -2.5464
15441TIP3   OH267813   2.848   0.348  12.035 -0.3135  0.1286  0.5796
15441TIP3    H167814   2.787   0.278  12.013  0.3707 -0.3962  0.2747
15441TIP3    H267815   2.845   0.407  11.960  0.7175 -0.7424 -0.1973
15442TIP3   OH267816   3.398   1.261   0.237  0.1617 -0.2210  0.2184
15442TIP3    H167817   3.481   1.213   0.244 -0.9277 -2.1224  0.7146
15442TIP3    H267818   3.389   1.305   0.321  0.7905  0.2471  0.0519
15443TIP3   OH267819   6.430   0.055  14.162  0.8889 -1.0804  0.2593
15443TIP3    H167820   6.384   0.047  14.246  1.7851 -0.7651  0.7966
15443TIP3    H267821   6.502   0.115  14.181  0.1548  0.3222 -1.1550
15444TIP3   OH267822   5.300   6.212   4.449 -0.1006 -0.3424  0.1841
15444TIP3    H167823   5.258   6.151   4.511 -3.1202 -1.0518 -2.3009
15444TIP3    H267824   5.255   6.196   4.366  2.5489  1.7806 -1.8350
15445TIP3   OH267825   1.975   0.975  16.315  1.0400  0.7902  0.2167
15445TIP3    H167826   1.948   0.928  16.236 -0.6968 -0.5038  1.5093
15445TIP3    H267827   2.070   0.975  16.311  0.9983  1.3963 -2.2170
15446TIP3   OH267828   5.455   3.827  14.467  0.0107  0.4067 -0.2719
15446TIP3    H167829   5.496   3.778  14.538 -0.7246  1.1294  0.6884
15446TIP3    H267830   5.365   3.794  14.464 -0.4491  1.5533  0.2816
15447TIP3   OH267831   4.414   1.282   0.832 -1.0113 -0.0278 -0.3039
15447TIP3    H167832   4.510   1.278   0.833 -1.0121 -0.0070 -0.0732
15447TIP3    H267833   4.393   1.332   0.754 -0.7998  0.8920  0.2127
15448TIP3   OH267834   4.197   6.545  15.609  0.1235  0.5190  0.2510
15448TIP3    H167835   4.173   6.453  15.602  0.0527  0.6636 -3.7044
15448TIP3    H267836   4.124   6.593  15.570  1.0725  2.0751  0.2692
15449TIP3   OH267837   1.479   4.527   1.727  0.4519  0.8865  0.2328
15449TIP3    H167838   1.513   4.589   1.791 -0.7166  1.5309  0.2509
15449TIP3    H267839   1.525   4.549   1.646  0.7052  1.1693  0.4524
15450TIP3   OH267840   1.148   4.677   3.020 -0.5503  0.4252  0.2979
15450TIP3    H167841   1.181   4.587   3.026 -0.4468  0.4706  0.3991
15450TIP3    H267842   1.073   4.679   3.079 -1.8333 -0.1707 -1.2263
15451TIP3   OH267843   4.636   0.868  12.876  0.6200  1.0602  0.0752
15451TIP3    H167844   4.547   0.885  12.847 -0.2903 -0.5039  1.7778
15451TIP3    H267845   4.689   0.873  12.796 -1.0624  1.3784 -1.0525
15452TIP3   OH267846   3.713   6.037  13.304  0.2219 -0.3011 -0.2795
15452TIP3    H167847   3.784   6.076  13.252  1.5825 -1.8482  0.3517
15452TIP3    H267848   3.747   5.953  13.333 -2.2316 -1.5554 -0.7310
15453TIP3   OH267849   3.461   0.056   2.585 -0.6833  0.4706 -0.6819
15453TIP3    H167850   3.427  -0.004   2.519  1.8235 -1.0129 -0.7315
15453TIP3    H267851   3.455   0.142   2.544  0.1070 -0.3276 -2.6094
15454TIP3   OH267852   1.926   2.500  11.479 -0.0658 -0.0902 -0.0420
15454TIP3    H167853   1.842   2.545  11.468 -0.0710 -0.6882 -4.6775
15454TIP3    H267854   1.903   2.410  11.502 -0.7099 -0.1594 -0.9286
15455TIP3   OH267855   3.943   1.431   1.639  0.0165  0.3009 -0.2680
15455TIP3    H167856   3.861   1.476   1.657  0.9290  2.0542 -0.2844
15455TIP3    H267857   3.952   1.434   1.544 -1.6412 -3.2124 -0.6900
15456TIP3   OH267858   5.721   0.038  15.197  0.0248  0.1510 -0.1380
15456TIP3    H167859   5.801  -0.006  15.166  0.6152  0.5680  0.7599
15456TIP3    H267860   5.735   0.050  15.291  0.0631  2.6115 -0.3926
15457TIP3   OH267861   2.849   6.199   2.197  0.0775 -0.1317  0.5795
15457TIP3    H167862   2.902   6.279   2.193  1.3788 -1.0046 -1.1623
15457TIP3    H267863   2.887   6.147   2.267  0.0268  0.2388  0.8817
15458TIP3   OH267864   5.967   3.711  15.925  0.4564  0.1830 -0.6086
15458TIP3    H167865   5.877   3.703  15.895  0.6775 -0.5037 -1.1252
15458TIP3    H267866   5.974   3.800  15.960 -0.3748  0.2866 -0.6999
15459TIP3   OH267867   6.590   5.403   2.214 -0.2649  0.1535 -0.1044
15459TIP3    H167868   6.548   5.459   2.149 -2.7796 -0.2410  1.0834
15459TIP3    H267869   6.658   5.458   2.252  0.0517  0.9867 -1.7747
15460TIP3   OH267870   4.687   5.960   1.507  0.0024  0.0220 -0.2799
15460TIP3    H167871   4.640   5.964   1.590 -0.1026 -0.1164 -0.3320
15460TIP3    H267872   4.774   5.995   1.527  0.3305 -0.9876  0.1298
15461TIP3   OH267873   5.028   6.749   3.900 -0.5717  0.4843 -0.6250
15461TIP3    H167874   4.993   6.663   3.922 -1.1827  0.9935  0.5345
15461TIP3    H267875   5.123   6.736   3.891 -0.4853 -0.0906  0.8455
15462TIP3   OH267876   5.343   0.347   4.037  0.0780  0.7594  0.1038
15462TIP3    H167877   5.312   0.351   3.946  0.6884  0.5590 -0.1125
15462TIP3    H267878   5.265   0.368   4.089 -0.5328 -0.1714 -0.4162
15463TIP3   OH267879   4.205   2.711   0.850 -0.0487 -0.0312  0.5916
15463TIP3    H167880   4.115   2.732   0.822  0.5163 -0.3045 -1.6292
15463TIP3    H267881   4.258   2.784   0.818  0.8383 -1.0303 -0.2891
15464TIP3   OH267882   3.074   5.937  16.565 -0.0150  0.6410  0.0471
15464TIP3    H167883   3.049   5.847  16.546  0.4335  0.9050 -2.0617
15464TIP3    H267884   2.992   5.986  16.564 -0.0178  0.6398 -1.3911
15465TIP3   OH267885   0.069   2.541   2.085  0.2497 -0.3995 -0.2092
15465TIP3    H167886   0.014   2.474   2.124  1.2480 -1.6733 -0.9001
15465TIP3    H267887   0.136   2.492   2.038 -0.1432  1.0711 -2.4299
15466TIP3   OH267888   2.404   0.150   0.237 -0.2487 -0.2023 -0.0876
15466TIP3    H167889   2.373   0.221   0.293  1.0148  1.6710 -1.6324
15466TIP3    H267890   2.343   0.078   0.254 -1.4331  1.1353  1.7352
15467TIP3   OH267891   5.272   2.690   3.980 -0.0293  0.1018  0.2316
15467TIP3    H167892   5.360   2.651   3.988 -1.1289 -2.7024 -0.0357
15467TIP3    H267893   5.274   2.765   4.040  3.0297  1.2113 -1.0312
15468TIP3   OH267894   4.754   6.214  13.741  0.2937  0.4795 -0.2816
15468TIP3    H167895   4.732   6.307  13.729 -2.0998  0.0045 -0.2264
15468TIP3    H267896   4.724   6.194  13.829 -1.4813 -0.8514 -1.1156
15469TIP3   OH267897   3.709   1.740   2.762 -0.5368 -0.4686  0.8768
15469TIP3    H167898   3.804   1.740   2.772 -0.2913 -0.3349 -1.0228
15469TIP3    H267899   3.694   1.780   2.676 -2.1876 -2.2278  0.2674
15470TIP3   OH267900   4.938   5.423   1.397  0.6110  0.0769  0.3649
15470TIP3    H167901   4.943   5.474   1.316  2.1239 -1.5110 -0.6146
15470TIP3    H267902   4.848   5.433   1.426  0.1353  1.0053 -1.2987
15471TIP3   OH267903   2.846   5.665  15.445 -0.2339  1.1612  0.3297
15471TIP3    H167904   2.850   5.598  15.513  0.5048  0.4169 -0.4205
15471TIP3    H267905   2.923   5.719  15.460 -1.2801  2.4099  1.4646
15472TIP3   OH267906   0.002   1.026   0.843  0.2253 -0.0808 -0.4628
15472TIP3    H167907  -0.094   1.030   0.837  0.2866  0.3710 -1.2563
15472TIP3    H267908   0.029   0.984   0.761  0.7053 -0.1750 -0.2550
15473TIP3   OH267909   5.374   6.291   5.329 -0.1096 -0.2626  0.1104
15473TIP3    H167910   5.378   6.381   5.297 -0.7762 -0.5042 -0.6779
15473TIP3    H267911   5.465   6.267   5.345  0.1350  0.2685 -0.4595
15474TIP3   OH267912   2.477   4.233  14.766 -0.8461  0.1835  0.7527
15474TIP3    H167913   2.419   4.307  14.784 -0.6834  0.3620  0.5437
15474TIP3    H267914   2.437   4.190  14.690  0.4229  1.5331 -0.7604
15475TIP3   OH267915   4.965   4.074   5.569 -0.2934  0.2486 -0.4416
15475TIP3    H167916   4.941   4.157   5.611  1.0696  0.0983  0.7388
15475TIP3    H267917   4.968   4.012   5.641  2.2164 -0.0103 -0.6818
15476TIP3   OH267918   3.399   3.695  16.786 -0.1686  0.6140 -0.2655
15476TIP3    H167919   3.308   3.724  16.778  0.0371  1.5213  0.5865
15476TIP3    H267920   3.406   3.664  16.876  0.1663 -0.2181 -0.5641
15477TIP3   OH267921   5.360   6.201   6.762 -0.2551  0.0818 -0.1928
15477TIP3    H167922   5.356   6.176   6.855  1.2322  0.1088 -0.1013
15477TIP3    H267923   5.334   6.122   6.715  0.6256 -0.4636  0.2103
15478TIP3   OH267924   2.264   0.927  16.404 -0.2541  0.4944  0.0641
15478TIP3    H167925   2.334   0.894  16.460 -0.8468 -0.9250  0.0194
15478TIP3    H267926   2.308   0.953  16.323  0.2876  0.0754  0.2163
15479TIP3   OH267927   3.430   1.174  11.458  0.0457 -0.4615  0.3407
15479TIP3    H167928   3.501   1.116  11.483  0.0895  0.4461  2.5075
15479TIP3    H267929   3.442   1.252  11.512 -1.6291  0.4071 -0.4463
15480TIP3   OH267930   4.909   5.547   4.539 -0.0509  0.1217  0.1987
15480TIP3    H167931   4.911   5.502   4.623 -1.1992  1.0445  0.7427
15480TIP3    H267932   5.002   5.553   4.514  0.3372  0.0563  1.5214
15481TIP3   OH267933   2.203   4.640  16.394 -0.1369  0.2997 -0.6547
15481TIP3    H167934   2.224   4.714  16.452  0.8888 -1.0462  0.7758
15481TIP3    H267935   2.206   4.563  16.452 -2.1861 -0.7855 -1.8659
15482TIP3   OH267936   2.153   2.961  15.284 -1.0166 -0.1856 -0.1324
15482TIP3    H167937   2.186   2.882  15.240  1.9712 -0.0161  1.5169
15482TIP3    H267938   2.218   3.028  15.265 -1.1110  0.6435  2.0903
15483TIP3   OH267939   5.973   6.327   2.934 -0.7045  0.0039  0.2139
15483TIP3    H167940   6.063   6.334   2.900 -0.6071  0.6576  0.5802
15483TIP3    H267941   5.926   6.275   2.869  0.1921 -1.2416  0.5140
15484TIP3   OH267942   1.337   5.445   4.793 -0.3428  0.3063 -0.0492
15484TIP3    H167943   1.412   5.499   4.767 -0.7523  0.1200 -1.7876
15484TIP3    H267944   1.261   5.492   4.758 -0.9561  0.0186  0.8777
15485TIP3   OH267945   1.629   1.590  11.205  0.0949  0.0479  0.3933
15485TIP3    H167946   1.596   1.676  11.179 -0.5667  1.1004  4.1129
15485TIP3    H267947   1.557   1.530  11.185 -1.3524  1.1832  1.8687
15486TIP3   OH267948   1.861   5.016   4.061 -0.3661 -0.4644 -0.0882
15486TIP3    H167949   1.810   4.941   4.031 -0.6125 -0.9466  1.4848
15486TIP3    H267950   1.907   5.047   3.982 -1.4888 -1.2721 -1.0899
15487TIP3   OH267951   3.755   1.595   3.546 -0.1100 -0.1079 -0.2206
15487TIP3    H167952   3.746   1.659   3.476 -1.2748  0.2666  0.2545
15487TIP3    H267953   3.821   1.533   3.513 -0.2870  0.3235 -1.4406
15488TIP3   OH267954   5.674   5.470  15.188 -0.2268  0.3332  0.5426
15488TIP3    H167955   5.709   5.528  15.256  0.3761  2.2796 -1.3122
15488TIP3    H267956   5.594   5.513  15.158  1.6487  1.9541 -2.7965
15489TIP3   OH267957   3.334   0.615   5.142  0.0237  0.2652  0.3019
15489TIP3    H167958   3.316   0.688   5.202  0.0502 -0.4202  1.1791
15489TIP3    H267959   3.425   0.627   5.116 -0.8714  2.4649 -2.3392
15490TIP3   OH267960   5.681   3.042  14.623  0.4032  0.1395 -0.1371
15490TIP3    H167961   5.724   3.023  14.706  1.4652 -0.5449 -0.8174
15490TIP3    H267962   5.695   2.963  14.570 -1.4267  0.0214 -0.5061
15491TIP3   OH267963   1.066   4.879  15.372  0.3624 -0.3964 -1.0424
15491TIP3    H167964   1.147   4.918  15.341  0.2624  0.3416 -0.4120
15491TIP3    H267965   1.092   4.827  15.448  0.3888 -0.9751 -1.4459
15492TIP3   OH267966   2.853   3.559   5.826 -0.4000 -0.4889 -0.7753
15492TIP3    H167967   2.943   3.527   5.826 -0.6025 -1.0952 -1.8920
15492TIP3    H267968   2.832   3.571   5.919  0.6376 -0.8612 -0.4779
15493TIP3   OH267969   0.330   4.566  15.059  0.9914  0.0384  0.1408
15493TIP3    H167970   0.369   4.628  15.120  1.2196  0.3791 -0.3456
15493TIP3    H267971   0.244   4.603  15.039  0.0217 -1.1332  1.8606
15494TIP3   OH267972   5.673   2.211   3.513  0.2706  0.0637 -0.3584
15494TIP3    H167973   5.637   2.124   3.495  1.0085 -0.6245  1.3550
15494TIP3    H267974   5.600   2.271   3.494 -0.5239 -0.9853 -0.7065
15495TIP3   OH267975   1.358   6.648  14.093 -0.3453 -0.3404  0.1396
15495TIP3    H167976   1.287   6.600  14.136  1.2928 -3.2124 -0.1692
15495TIP3    H267977   1.315   6.691  14.019 -1.7794 -2.2152 -0.2100
15496TIP3   OH267978   4.937   6.393  15.323  0.3113 -0.0689  0.3853
15496TIP3    H167979   4.968   6.483  15.310  0.7960 -0.2481  0.2794
15496TIP3    H267980   4.955   6.349  15.240  2.5035 -0.9603  1.2592
15497TIP3   OH267981   1.808   6.527   5.834 -0.4477  0.2147 -0.1441
15497TIP3    H167982   1.773   6.478   5.909 -1.5553 -0.9776 -1.3797
15497TIP3    H267983   1.777   6.478   5.757  2.0775  0.4011 -1.3840
15498TIP3   OH267984   1.469   0.017   3.554  0.3589 -0.0405  0.4044
15498TIP3    H167985   1.512  -0.015   3.633 -0.2511 -0.9743  0.3629
15498TIP3    H267986   1.529   0.084   3.520  0.6330  0.3482  1.6297
15499TIP3   OH267987   5.931   3.895   4.151 -0.0616  0.0731 -0.3105
15499TIP3    H167988   5.997   3.952   4.192  0.4556 -0.9973  0.3742
15499TIP3    H267989   5.888   3.952   4.087  2.2885  0.5358 -1.6084
15500TIP3   OH267990   2.243   0.367   2.946  0.1906  0.3904  0.2169
15500TIP3    H167991   2.309   0.325   3.001  0.1027 -0.3486 -0.2345
15500TIP3    H267992   2.167   0.308   2.949  1.0204 -0.9765 -2.6520
15501TIP3   OH267993   0.327   3.809   0.491  0.3995  0.0054  0.4316
15501TIP3    H167994   0.357   3.768   0.409  1.7773  1.9065 -0.1106
15501TIP3    H267995   0.245   3.765   0.512  0.9114 -1.7537 -1.0122
15502TIP3   OH267996   4.742   1.280  14.247  0.1613  0.2358 -0.2157
15502TIP3    H167997   4.716   1.247  14.161 -0.3422  1.0033 -0.3693
15502TIP3    H267998   4.788   1.362  14.229  0.1082  0.3704  0.2432
15503TIP3   OH267999   4.374   6.403  11.339 -0.0586  0.4678  0.0139
15503TIP3    H168000   4.372   6.310  11.314 -1.8066 -0.2574  2.4537
15503TIP3    H268001   4.468   6.424  11.344  0.3752 -0.5940 -2.2911
15504TIP3   OH268002   0.700   2.823   3.237 -0.0752 -0.7266 -0.2701
15504TIP3    H168003   0.668   2.733   3.246 -0.5252 -0.5707 -0.3058
15504TIP3    H268004   0.656   2.857   3.159 -1.4453  0.1708  0.8395
15505TIP3   OH268005   0.302   5.016  12.326 -0.1127 -0.2833 -0.1026
15505TIP3    H168006   0.218   5.005  12.372 -0.6463  2.4803 -0.2374
15505TIP3    H268007   0.285   4.983  12.238 -1.4612  1.2730 -0.4658
15506TIP3   OH268008   0.009   3.126  15.614 -0.3411  0.9085 -0.0266
15506TIP3    H168009   0.030   3.215  15.586  1.2856  0.3708 -0.6148
15506TIP3    H268010   0.084   3.074  15.587 -1.6117 -0.8107 -0.4317
15507TIP3   OH268011   4.053   5.441  13.046 -0.2514 -0.0351 -0.0579
15507TIP3    H168012   4.035   5.491  13.126 -1.9643 -0.2592 -0.2620
15507TIP3    H268013   4.047   5.506  12.976 -1.6176 -0.3147 -0.2391
15508TIP3   OH268014   1.196   2.256  16.231 -0.0123 -0.3399 -0.1229
15508TIP3    H168015   1.272   2.288  16.182 -0.7341  1.2814 -0.2485
15508TIP3    H268016   1.143   2.334  16.245 -0.7228 -1.1064  1.6543
15509TIP3   OH268017   1.119   2.648   5.138 -0.2332 -0.4141  0.1774
15509TIP3    H168018   1.169   2.609   5.067  0.7681 -2.6586  2.0214
15509TIP3    H268019   1.181   2.656   5.210 -1.5416  0.5988  1.2485
15510TIP3   OH268020   3.590   3.731   4.515  0.8532  0.3497  0.4132
15510TIP3    H168021   3.646   3.654   4.526 -1.2967 -1.1735  1.7380
15510TIP3    H268022   3.565   3.755   4.605 -0.1896  1.2702 -0.0950
15511TIP3   OH268023   6.361   1.766   3.576  0.2415  0.0981 -0.1703
15511TIP3    H168024   6.383   1.821   3.501  0.8849  2.2709  1.5054
15511TIP3    H268025   6.267   1.751   3.568  0.4173 -0.3507 -1.7681
15512TIP3   OH268026   2.972   2.317   0.071  0.2112 -0.1261  0.0253
15512TIP3    H168027   3.067   2.326   0.080 -0.0166  0.9460  2.2841
15512TIP3    H268028   2.941   2.405   0.049 -0.2881 -0.3387 -0.1375
15513TIP3   OH268029   3.969   2.683   3.322 -0.3424  0.0403 -0.2917
15513TIP3    H168030   3.995   2.775   3.329 -1.0819  0.1991  0.4622
15513TIP3    H268031   3.966   2.666   3.228 -3.9940  1.9428 -0.7062
15514TIP3   OH268032   3.034   2.637  10.694  0.4199 -0.2869 -0.7986
15514TIP3    H168033   3.052   2.663  10.604 -0.5987  0.5258 -0.7783
15514TIP3    H268034   3.020   2.543  10.690 -1.5982  0.0197 -1.8350
15515TIP3   OH268035   4.150   5.414   6.011  0.6032 -0.1335  0.0989
15515TIP3    H168036   4.101   5.367   5.944 -0.4035  1.1874 -0.1334
15515TIP3    H268037   4.135   5.364   6.091 -0.2048 -0.3713 -0.1957
15516TIP3   OH268038   4.482   6.225  15.511 -0.2029 -0.4031  0.2197
15516TIP3    H168039   4.450   6.207  15.422  0.3608  0.1982 -0.1102
15516TIP3    H268040   4.406   6.207  15.567 -0.8462  0.0841 -0.4599
15517TIP3   OH268041   2.007   1.127  13.709 -0.7906 -0.5867 -0.1415
15517TIP3    H168042   1.942   1.120  13.779 -1.0509  1.4579 -0.1061
15517TIP3    H268043   1.964   1.179  13.641  1.6950  3.6648  1.1981
15518TIP3   OH268044   2.691   0.900  16.149  0.0430  0.1430 -0.4411
15518TIP3    H168045   2.764   0.946  16.107 -0.6661  0.4125 -1.4174
15518TIP3    H268046   2.664   0.833  16.086 -0.7010  0.2037 -0.2042
15519TIP3   OH268047   2.800   1.864  16.543  0.2212 -0.2499 -0.0506
15519TIP3    H168048   2.886   1.849  16.504  0.1181 -0.0570 -0.3574
15519TIP3    H268049   2.775   1.779  16.580 -0.0059 -0.6389 -1.0605
15520TIP3   OH268050   1.479   0.340   2.863 -0.7788 -0.6739 -0.3685
15520TIP3    H168051   1.537   0.304   2.931 -0.6966 -3.6802 -1.8675
15520TIP3    H268052   1.535   0.401   2.814 -0.4687  0.5137  1.3623
15521TIP3   OH268053   2.064   0.089   6.146  0.3101  0.2353  0.7643
15521TIP3    H168054   2.112   0.079   6.228  0.2328  0.6624  0.8614
15521TIP3    H268055   2.002   0.160   6.162  0.5617  0.5890  0.2057
15522TIP3   OH268056   2.644   3.686   4.141 -0.0456 -0.0101  0.5073
15522TIP3    H168057   2.656   3.598   4.177 -0.3510 -0.5822 -0.7530
15522TIP3    H268058   2.572   3.723   4.193 -1.7674 -1.5167 -0.6887
15523TIP3   OH268059   2.176   0.366   3.817  0.4103  0.4293 -0.6228
15523TIP3    H168060   2.196   0.439   3.758  1.0675  1.7341  1.1062
15523TIP3    H268061   2.261   0.328   3.838  0.0816 -0.7404 -1.3639
15524TIP3   OH268062   1.234   5.918  10.570  0.0138 -0.0005  0.1910
15524TIP3    H168063   1.218   6.001  10.526  0.1872 -0.6095 -1.0701
15524TIP3    H268064   1.230   5.853  10.500 -0.0198 -1.0438  1.1389
15525TIP3   OH268065   5.168   5.071   1.608 -0.5408  0.1726  0.1248
15525TIP3    H168066   5.153   5.166   1.605  1.8795  0.5960 -1.8818
15525TIP3    H268067   5.114   5.037   1.537 -0.6508  0.1535  0.2161
15526TIP3   OH268068   0.890   4.600  13.190 -0.5073  0.1467 -0.2002
15526TIP3    H168069   0.869   4.675  13.246 -1.4706 -0.4703  0.2862
15526TIP3    H268070   0.972   4.566  13.226 -0.2967  0.6994 -0.1492
15527TIP3   OH268071   6.620   6.568  11.478  0.1857 -0.0263 -0.8018
15527TIP3    H168072   6.715   6.572  11.494  0.1990 -0.0894 -0.8643
15527TIP3    H268073   6.584   6.539  11.562  0.2847 -0.6643 -0.9784
15528TIP3   OH268074   2.487   6.388  14.562 -0.6533  0.5301 -0.3157
15528TIP3    H168075   2.417   6.442  14.525  1.1541  2.5662 -1.0420
15528TIP3    H268076   2.523   6.441  14.633  1.3368  0.4590 -1.1838
15529TIP3   OH268077   4.288   6.244   1.035  0.3706  0.3009  0.1222
15529TIP3    H168078   4.312   6.223   0.945  0.6149 -0.0532  0.2638
15529TIP3    H268079   4.197   6.274   1.030  0.8811  1.8537 -0.4611
15530TIP3   OH268080   4.363   2.969   5.548 -0.6216 -0.5823  0.3335
15530TIP3    H168081   4.439   2.910   5.551 -0.9811 -1.0621  0.1700
15530TIP3    H268082   4.304   2.934   5.615 -1.2447 -0.9783 -0.4158
15531TIP3   OH268083   1.003   4.351  16.462 -0.8338  0.4280 -0.0182
15531TIP3    H168084   1.058   4.422  16.495 -0.8911  0.2266  0.5110
15531TIP3    H268085   0.922   4.395  16.436 -1.1567  0.4540  1.0170
15532TIP3   OH268086   4.771   0.982   0.790  0.2139  0.0773  0.5635
15532TIP3    H168087   4.731   0.925   0.856  0.1471 -1.8773 -1.0681
15532TIP3    H268088   4.860   0.996   0.820  0.1770 -0.7796  1.1003
15533TIP3   OH268089   2.092   4.188   5.409  0.2834 -0.0926 -0.1391
15533TIP3    H168090   2.127   4.102   5.433 -0.7747  0.1359  2.6378
15533TIP3    H268091   2.023   4.169   5.346 -0.2756 -1.3706  0.8067
15534TIP3   OH268092   0.025   3.188   5.275 -0.1459 -0.0995  0.3095
15534TIP3    H168093   0.111   3.203   5.235  0.5372 -1.3513  1.2509
15534TIP3    H268094  -0.009   3.276   5.293  0.9957  0.4041  0.0728
15535TIP3   OH268095   5.889   4.398   2.681  0.2290  0.1216 -0.2648
15535TIP3    H168096   5.884   4.369   2.590  1.0169 -1.0192  0.0381
15535TIP3    H268097   5.951   4.338   2.722 -0.6171  0.1841  1.1889
15536TIP3   OH268098   0.749   1.945  14.613 -0.2286 -0.0223  0.0916
15536TIP3    H168099   0.839   1.959  14.584  0.0563  0.9391  1.3300
15536TIP3    H268100   0.703   2.024  14.584 -0.1720  0.4629  1.2412
15537TIP3   OH268101   3.114   3.944   4.130 -0.2854  0.1487 -0.0068
15537TIP3    H168102   3.195   3.986   4.102 -1.2366 -0.2731 -3.8668
15537TIP3    H268103   3.136   3.851   4.139  0.1435  0.3590  1.3537
15538TIP3   OH268104   5.683   2.816   0.434  0.0795 -0.2183 -0.2657
15538TIP3    H168105   5.697   2.762   0.356 -1.1792 -0.7446 -0.1480
15538TIP3    H268106   5.616   2.770   0.484  1.4152 -0.3230  1.5555
15539TIP3   OH268107   6.117   5.406  13.692 -0.0459  0.4831  0.4011
15539TIP3    H168108   6.141   5.494  13.721 -1.9533  0.9862  0.6238
15539TIP3    H268109   6.045   5.420  13.631  2.1781 -0.7275 -2.7194
15540TIP3   OH268110   1.535   6.253   3.673 -0.2936 -0.3795 -0.1972
15540TIP3    H168111   1.604   6.190   3.653  2.3972  2.1955  0.1834
15540TIP3    H268112   1.505   6.230   3.761  1.4096 -0.5326  0.3693
15541TIP3   OH268113   0.171   0.640   1.004 -0.0982  0.3704  1.2002
15541TIP3    H168114   0.106   0.618   0.937  1.7458 -2.4822  0.1786
15541TIP3    H268115   0.190   0.733   0.988 -2.0061  0.5946 -0.1424
15542TIP3   OH268116   0.747   5.035  13.201  0.7582  0.4503  0.0179
15542TIP3    H168117   0.720   4.986  13.123  1.2099  0.1657  0.0366
15542TIP3    H268118   0.779   4.968  13.261  3.3456  0.8969 -0.7338
15543TIP3   OH268119   0.516   4.977  13.504  0.2074 -0.4592 -0.5160
15543TIP3    H168120   0.476   5.007  13.422 -0.8062  1.4394  0.5822
15543TIP3    H268121   0.553   4.892  13.483 -1.1795 -0.6303 -2.6031
15544TIP3   OH268122   2.563   3.715   0.990 -0.1158 -0.0324 -0.2197
15544TIP3    H168123   2.612   3.666   0.924  0.0308  0.9634 -0.8639
15544TIP3    H268124   2.504   3.770   0.940 -0.1552  0.5768  0.4872
15545TIP3   OH268125   2.813   3.650   4.758 -0.5927 -0.8525 -0.0988
15545TIP3    H168126   2.851   3.701   4.686  3.6550 -2.0641  1.0279
15545TIP3    H268127   2.791   3.566   4.718  0.2553 -0.9869 -0.2870
15546TIP3   OH268128   5.534   4.161   2.220 -0.0667 -0.3932 -0.0963
15546TIP3    H168129   5.589   4.123   2.289 -0.0147 -0.1193  0.0164
15546TIP3    H268130   5.513   4.088   2.163  0.9311 -0.3866 -0.4876
15547TIP3   OH268131   0.965   6.705   2.714 -0.0885  0.3853  0.5624
15547TIP3    H168132   1.011   6.746   2.788 -1.0419  1.2392  0.7012
15547TIP3    H268133   0.935   6.621   2.748 -0.5667  0.7930  1.1689
15548TIP3   OH268134   4.457   2.867   5.843 -0.5916  0.3698 -0.5118
15548TIP3    H168135   4.517   2.861   5.769  1.3947 -1.1495  1.1040
15548TIP3    H268136   4.387   2.804   5.823 -0.2478  0.2085 -1.2173
15549TIP3   OH268137   3.400   5.416   3.968 -0.5486 -0.5433  0.2245
15549TIP3    H168138   3.363   5.331   3.943 -0.4586 -0.4187 -0.3562
15549TIP3    H268139   3.346   5.446   4.041 -0.3697 -1.2490  0.6476
15550TIP3   OH268140   5.059   3.147   3.068  0.3600 -0.1142  0.3626
15550TIP3    H168141   5.009   3.160   2.987 -0.1212 -1.3663  0.4361
15550TIP3    H268142   4.996   3.166   3.138  0.8993  1.4020  0.4673
15551TIP3   OH268143   3.865   5.120   6.117 -0.6847 -0.3498  0.6440
15551TIP3    H168144   3.930   5.173   6.163  0.3165  1.5233 -2.6277
15551TIP3    H268145   3.889   5.029   6.137  0.7806  0.3326  2.2397
15552TIP3   OH268146   5.752   3.856   5.517 -0.1693 -0.2514  0.7723
15552TIP3    H168147   5.721   3.884   5.603 -2.0990 -0.0442  0.0633
15552TIP3    H268148   5.680   3.877   5.458  1.5747  0.7261 -1.1160
15553TIP3   OH268149   4.658   6.159   1.173  0.0809  0.1432 -0.5212
15553TIP3    H168150   4.731   6.098   1.167  0.1197  0.0871  0.3516
15553TIP3    H268151   4.691   6.231   1.227  0.6415  1.8531 -3.0070
15554TIP3   OH268152   6.186   0.927  11.981 -0.7430  0.0904  0.3796
15554TIP3    H168153   6.272   0.966  11.971  0.1225 -1.4673  1.2975
15554TIP3    H268154   6.200   0.833  11.968 -2.2965 -0.2001  0.5384
15555TIP3   OH268155   3.317   4.500   1.614  0.1146 -0.4532 -0.0488
15555TIP3    H168156   3.230   4.530   1.589  0.2129 -1.1020 -1.2008
15555TIP3    H268157   3.377   4.560   1.569  0.2807 -1.1835 -0.8185
15556TIP3   OH268158   5.125   0.562  12.553 -0.2840  0.2738  0.1756
15556TIP3    H168159   5.127   0.623  12.627  0.0034 -0.0344  0.4244
15556TIP3    H268160   5.195   0.500  12.572 -0.5715 -0.1280 -0.0832
15557TIP3   OH268161   2.348   0.069   6.136 -0.3374 -0.0700 -1.1676
15557TIP3    H168162   2.341   0.123   6.214  0.6281 -1.9344  0.2968
15557TIP3    H268163   2.263   0.078   6.093 -1.0831  0.6144  0.3591
15558TIP3   OH268164   4.116   2.813   2.591 -0.5115  0.5440 -0.4873
15558TIP3    H168165   4.097   2.887   2.534 -0.2535  0.4555 -0.6930
15558TIP3    H268166   4.206   2.827   2.620 -0.1840 -0.0855 -1.1529
15559TIP3   OH268167   3.616   2.064  14.947 -0.4516  0.1495 -0.2216
15559TIP3    H168168   3.598   1.972  14.967  1.4171 -0.1866  0.0918
15559TIP3    H268169   3.643   2.102  15.031 -0.6207  0.8344 -0.4712
15560TIP3   OH268170   4.668   3.004  15.803  0.0578 -0.2103  0.6192
15560TIP3    H168171   4.619   2.944  15.859  2.4335 -2.1678  0.7467
15560TIP3    H268172   4.750   3.020  15.850  0.7581  0.7189 -0.8274
15561TIP3   OH268173   3.837   1.472  14.756 -0.3889 -0.2132  0.7573
15561TIP3    H168174   3.862   1.470  14.664  0.4791 -0.7506  0.9922
15561TIP3    H268175   3.742   1.480  14.755 -0.3325  0.5302 -0.1736
15562TIP3   OH268176   1.445   6.803  14.893  0.5693  0.6739 -0.4038
15562TIP3    H168177   1.428   6.721  14.848 -0.1363 -0.4517  1.7831
15562TIP3    H268178   1.361   6.827  14.933  1.8718 -0.5257  3.5356
15563TIP3   OH268179   2.192   2.281  13.702 -0.4962 -0.4173  0.0623
15563TIP3    H168180   2.118   2.298  13.644 -0.5566 -1.8072 -0.3230
15563TIP3    H268181   2.265   2.262  13.643 -0.2023 -0.4911  0.4429
15564TIP3   OH268182   5.909   1.100  15.158  0.2562  0.3067 -0.0165
15564TIP3    H168183   5.893   1.171  15.220  2.1626 -0.0911  1.0326
15564TIP3    H268184   5.928   1.024  15.214 -0.5761 -0.7502 -1.1110
15565TIP3   OH268185   3.574   2.848  11.387 -0.6974  0.1514  0.1658
15565TIP3    H168186   3.660   2.853  11.345 -0.5614  0.9439  0.5251
15565TIP3    H268187   3.524   2.919  11.349 -1.1327 -0.1766  0.1177
15566TIP3   OH268188   6.222   0.340  16.770 -0.5199  0.1318 -0.1247
15566TIP3    H168189   6.194   0.430  16.784  0.9587  0.6720 -0.4612
15566TIP3    H268190   6.317   0.342  16.783 -0.4645 -1.3839 -0.1245
15567TIP3   OH268191   5.285   3.201  13.146 -0.2741 -0.3337  0.1428
15567TIP3    H168192   5.223   3.159  13.206 -0.8506  1.0487  0.5553
15567TIP3    H268193   5.363   3.145  13.149 -0.6023 -0.7686  1.5166
15568TIP3   OH268194   5.112   6.093   5.067  0.5369  0.3624  0.2721
15568TIP3    H168195   5.202   6.103   5.099 -0.3077 -0.4291  3.1900
15568TIP3    H268196   5.107   6.001   5.041  1.0786  0.8899 -1.9701
15569TIP3   OH268197   0.285   0.390   2.458  0.1019 -0.4654  0.5543
15569TIP3    H168198   0.305   0.467   2.512 -0.0609 -0.9975  1.3888
15569TIP3    H268199   0.366   0.338   2.460  0.5419  0.1222 -0.7941
15570TIP3   OH268200   2.521   3.374   4.803 -0.1560  0.2900 -0.4907
15570TIP3    H168201   2.515   3.398   4.711 -0.3484 -0.2035 -0.6109
15570TIP3    H268202   2.600   3.320   4.809 -0.2869  0.1037 -0.4180
15571TIP3   OH268203   6.175   1.341  13.414 -0.4126  0.2282  0.4548
15571TIP3    H168204   6.267   1.365  13.422 -0.6643  1.0179  1.2337
15571TIP3    H268205   6.150   1.314  13.503 -0.4504 -1.8928 -0.1452
15572TIP3   OH268206   5.205   6.272  12.081 -0.9942  0.3754 -0.1610
15572TIP3    H168207   5.178   6.364  12.082 -0.4838  0.5325 -0.5592
15572TIP3    H268208   5.291   6.272  12.038  1.3619  0.3602  3.9990
15573TIP3   OH268209   1.271   5.963   3.439 -0.5228  0.0915  0.3844
15573TIP3    H168210   1.354   5.927   3.408  0.8647  1.6542  2.0488
15573TIP3    H268211   1.218   5.975   3.360  0.1988 -2.3715 -0.5667
15574TIP3   OH268212   2.005   2.511   0.316 -0.0230  0.5867 -0.5111
15574TIP3    H168213   1.989   2.455   0.239 -0.2456  0.8817 -0.6839
15574TIP3    H268214   1.952   2.589   0.299  1.1095  1.3086 -0.7699
15575TIP3   OH268215   5.774   4.618  15.877  0.3503  0.0320  0.3561
15575TIP3    H168216   5.811   4.535  15.906  2.6652  0.8912  0.0186
15575TIP3    H268217   5.793   4.679  15.948 -1.4551  0.2997  0.6628
15576TIP3   OH268218   4.087   6.543  16.768 -0.1050  0.0304  0.3852
15576TIP3    H168219   4.159   6.493  16.807 -1.2453 -0.8588  1.4052
15576TIP3    H268220   4.083   6.624  16.819  0.7512  0.5109 -0.2796
15577TIP3   OH268221   0.797   0.266  14.669  0.0705 -0.0116 -0.0571
15577TIP3    H168222   0.737   0.208  14.623 -0.0453  0.5454 -0.6169
15577TIP3    H268223   0.743   0.338  14.699  0.4986  0.6648 -0.8581
15578TIP3   OH268224   6.311   4.531  16.290  0.3602 -0.6319  0.3388
15578TIP3    H168225   6.349   4.448  16.317 -0.9210 -1.8871 -1.5079
15578TIP3    H268226   6.311   4.528  16.195  1.0076  1.8692  0.1881
15579TIP3   OH268227   4.685   5.234  11.946 -0.2770 -0.5988  0.2831
15579TIP3    H168228   4.711   5.299  12.011 -1.7948 -0.8124  1.1576
15579TIP3    H268229   4.712   5.150  11.984  0.4602 -0.5918 -0.2141
15580TIP3   OH268230   6.537   1.843   2.680 -0.1699  0.1602  0.2208
15580TIP3    H168231   6.551   1.854   2.774 -2.0948  0.4813  0.5037
15580TIP3    H268232   6.456   1.793   2.673 -0.1947  0.3534 -1.2797
15581TIP3   OH268233   0.733   3.678  14.972 -0.3686  0.1860 -0.2733
15581TIP3    H168234   0.645   3.680  14.934 -0.3473  1.1048 -0.2919
15581TIP3    H268235   0.741   3.590  15.009 -0.6299 -0.5106 -1.8088
15582TIP3   OH268236   4.232   6.821   1.692 -0.1601  0.0606  0.5878
15582TIP3    H168237   4.232   6.765   1.614  0.1545 -0.0629  0.6752
15582TIP3    H268238   4.188   6.902   1.663  1.1170  0.5423 -0.1012
15583TIP3   OH268239   5.274   4.293   5.178 -0.6944  0.3271  0.2619
15583TIP3    H168240   5.234   4.329   5.099 -1.5632 -0.7475  0.1867
15583TIP3    H268241   5.368   4.294   5.159 -0.8977 -0.1362 -0.9015
15584TIP3   OH268242   6.360   5.820  12.202  0.3819  0.4120 -0.6339
15584TIP3    H168243   6.371   5.861  12.287  1.7835  1.7239 -1.3938
15584TIP3    H268244   6.292   5.753  12.215 -0.5648  1.6514  1.1115
15585TIP3   OH268245   3.681   2.958   4.830  0.9696  0.0325 -0.4537
15585TIP3    H168246   3.736   2.907   4.771  2.2186 -0.8077  1.3564
15585TIP3    H268247   3.638   2.892   4.885 -1.8625  0.6618 -1.7386
15586TIP3   OH268248   0.201   5.671   3.098  0.1710  0.0465 -1.0037
15586TIP3    H168249   0.213   5.578   3.119  1.1391 -0.0622 -1.8991
15586TIP3    H268250   0.141   5.703   3.164  1.0840 -0.8465  0.3227
15587TIP3   OH268251   5.439   2.808   6.306  0.2334 -0.2553 -0.2652
15587TIP3    H168252   5.370   2.744   6.316  0.9211 -1.1150 -0.8855
15587TIP3    H268253   5.394   2.888   6.279 -0.4751 -0.9698 -1.2820
15588TIP3   OH268254   1.591   1.946  12.609  0.4498 -0.5599  0.5488
15588TIP3    H168255   1.607   1.952  12.515 -1.5611 -0.3099  0.1793
15588TIP3    H268256   1.667   1.988  12.649  0.3011  1.3730 -1.0350
15589TIP3   OH268257   5.990   4.276   5.183 -0.1658  0.3056  0.4964
15589TIP3    H168258   6.045   4.349   5.209  0.5990  0.2164 -0.7546
15589TIP3    H268259   5.996   4.214   5.255  1.8745  0.0513  0.1878
15590TIP3   OH268260   0.497   4.631  16.979 -0.3442 -0.0335 -0.4298
15590TIP3    H168261   0.511   4.634  16.884 -0.3977 -1.9799 -0.5426
15590TIP3    H268262   0.473   4.721  17.002  2.4237  1.1876 -1.7847
15591TIP3   OH268263   0.006   3.109   3.056  0.4266 -0.1142  0.3901
15591TIP3    H168264  -0.019   3.063   2.976 -0.7074 -0.2555  0.8132
15591TIP3    H268265   0.078   3.166   3.030  1.0205 -1.2105 -0.4161
15592TIP3   OH268266   4.342   0.516  14.173  0.3333  0.5261  0.8993
15592TIP3    H168267   4.372   0.568  14.098 -1.0760 -1.3997 -1.1325
15592TIP3    H268268   4.260   0.556  14.199 -0.9659 -0.7744 -0.9322
15593TIP3   OH268269   5.639   6.580   3.124  0.7210 -0.1030 -0.0923
15593TIP3    H168270   5.608   6.642   3.191  1.0328 -2.1054  2.0434
15593TIP3    H268271   5.731   6.565   3.146  0.4949 -1.7568 -0.1425
15594TIP3   OH268272   4.968   1.406   6.661 -0.0165 -0.0421  0.2763
15594TIP3    H168273   4.935   1.441   6.578  0.4471  1.4540  0.6768
15594TIP3    H268274   4.908   1.441   6.727 -0.0120 -0.6919  0.6311
15595TIP3   OH268275   0.581   5.580  16.453  0.3321 -0.2301 -0.1273
15595TIP3    H168276   0.546   5.664  16.481 -1.0041 -0.5751 -0.6918
15595TIP3    H268277   0.614   5.539  16.533 -0.3816  0.1993  0.3911
15596TIP3   OH268278   3.524   6.187  13.908  0.4272 -0.4239 -0.1551
15596TIP3    H168279   3.545   6.215  13.818  1.3014 -1.0552 -0.1606
15596TIP3    H268280   3.508   6.269  13.955  1.0160 -0.0175 -0.6436
15597TIP3   OH268281   0.952   3.322   6.544 -0.1102 -0.6147 -0.2476
15597TIP3    H168282   1.021   3.257   6.526  1.7927  1.4387 -0.8413
15597TIP3    H268283   0.916   3.343   6.458  1.0682  0.8836 -0.4313
15598TIP3   OH268284   6.221   2.736  13.006  0.1759 -0.8686  0.0658
15598TIP3    H168285   6.151   2.797  13.030  0.4879 -0.5888  0.2636
15598TIP3    H268286   6.175   2.661  12.969 -0.1792 -0.2146 -0.8620
15599TIP3   OH268287   5.890   0.948   3.670 -0.3475 -0.5669  0.7774
15599TIP3    H168288   5.944   0.872   3.690  1.0384 -0.4539 -2.0454
15599TIP3    H268289   5.942   1.023   3.700 -0.6413 -0.6006  1.3927
15600TIP3   OH268290   4.815   3.520  17.069  0.2018 -0.4631 -0.2603
15600TIP3    H168291   4.773   3.435  17.082 -1.4809  0.2795 -0.5928
15600TIP3    H268292   4.906   3.506  17.095  0.1651 -2.5717 -1.0868
15601TIP3   OH268293   3.493   3.080   1.337 -0.1067  0.1507 -0.1865
15601TIP3    H168294   3.557   3.134   1.291  0.8955 -1.1743 -0.4092
15601TIP3    H268295   3.519   2.990   1.317 -0.5893 -0.4503  1.6804
15602TIP3   OH268296   6.400   6.070   3.538  0.4834 -0.6187 -0.2305
15602TIP3    H168297   6.329   6.066   3.601 -2.6822  1.4691 -3.3079
15602TIP3    H268298   6.380   6.003   3.473  1.6973 -0.4179 -0.8552
15603TIP3   OH268299   4.703   6.746  16.714  0.4908  0.5475 -0.0628
15603TIP3    H168300   4.735   6.704  16.634  3.3831  1.8172  0.3016
15603TIP3    H268301   4.686   6.836  16.688 -1.4567  0.2763  0.1426
15604TIP3   OH268302   4.403   0.970  16.658  0.1214  0.4919 -0.2238
15604TIP3    H168303   4.450   0.896  16.696 -0.9024  0.2441  0.5982
15604TIP3    H268304   4.433   1.046  16.709 -0.6857  0.2684  0.6096
15605TIP3   OH268305   1.286   1.184   1.010 -0.5840  0.6132 -0.4635
15605TIP3    H168306   1.263   1.276   1.022 -2.5289  0.0520  0.3798
15605TIP3    H268307   1.204   1.137   1.018  0.5709 -1.3507  0.7313
15606TIP3   OH268308   2.161   6.389   5.965 -0.1847 -1.2999 -0.3776
15606TIP3    H168309   2.131   6.392   5.874  0.9440 -0.4333 -0.7429
15606TIP3    H268310   2.120   6.466   6.006  0.5562 -0.7935 -0.5709
15607TIP3   OH268311   5.618   6.809   0.778 -0.6566 -0.1445 -0.3383
15607TIP3    H168312   5.694   6.864   0.797  1.1989 -2.4739 -0.5020
15607TIP3    H268313   5.601   6.762   0.860 -0.8154 -0.8754 -0.7756
15608TIP3   OH268314   0.615   1.402  15.756  0.7268 -0.0453  0.1437
15608TIP3    H168315   0.642   1.346  15.683 -0.1529 -0.4541  0.1281
15608TIP3    H268316   0.523   1.381  15.770  0.8030  0.2650  1.1629
15609TIP3   OH268317   2.963   2.023   0.265  0.4908 -0.0883  0.1916
15609TIP3    H168318   2.939   2.084   0.195  0.0309  0.3536  0.7266
15609TIP3    H268319   3.036   2.067   0.310 -0.8521  0.8283  1.5550
15610TIP3   OH268320   5.400   4.904   0.059 -0.3559 -0.3394 -0.4313
15610TIP3    H168321   5.421   4.906   0.153  2.6918  0.6575 -1.0178
15610TIP3    H268322   5.398   4.811   0.037  0.5237 -0.5576  0.3393
15611TIP3   OH268323   3.883   3.924  16.036  0.0646  0.2764  0.0591
15611TIP3    H168324   3.919   3.841  16.069 -2.3943 -1.7835 -1.9732
15611TIP3    H268325   3.829   3.957  16.107  2.0014  0.8854  1.3410
15612TIP3   OH268326   2.866   4.369   0.751 -0.5515  0.6708  0.4351
15612TIP3    H168327   2.909   4.388   0.835  0.4146  1.1882 -0.1511
15612TIP3    H268328   2.849   4.456   0.713  0.5367  0.4403 -0.6331
15613TIP3   OH268329   4.129   4.068  12.441 -0.4326 -0.2168  0.2423
15613TIP3    H168330   4.196   4.001  12.434 -0.9521 -0.6480 -0.8320
15613TIP3    H268331   4.090   4.054  12.527  0.4018 -0.3823  0.5993
15614TIP3   OH268332   1.153   2.954  14.519 -0.1450 -0.6835 -0.5113
15614TIP3    H168333   1.140   3.004  14.439  0.5177  0.4868  0.0948
15614TIP3    H268334   1.248   2.955  14.532 -0.2293 -1.0866  0.1554
15615TIP3   OH268335   3.666   2.345  11.957  0.4299 -0.1089  0.2487
15615TIP3    H168336   3.628   2.429  11.983  0.1980 -0.1574  0.0791
15615TIP3    H268337   3.702   2.361  11.870  0.2630 -0.2212  0.1590
15616TIP3   OH268338   1.115   2.931   6.213 -1.0161 -0.0497  0.6226
15616TIP3    H168339   1.115   2.847   6.259 -0.8270 -1.0837 -1.1774
15616TIP3    H268340   1.022   2.955   6.208 -1.4162 -1.7224 -1.4813
15617TIP3   OH268341   1.848   0.501  10.641 -0.0365  0.5603  0.5039
15617TIP3    H168342   1.766   0.505  10.690  0.9824  1.1121  2.2584
15617TIP3    H268343   1.909   0.555  10.691  2.2091 -2.0713  0.8434
15618TIP3   OH268344   4.008   5.203   5.878 -0.0353  0.4629 -0.2354
15618TIP3    H168345   4.036   5.146   5.807  1.3306 -0.6876  1.1570
15618TIP3    H268346   3.968   5.144   5.942 -0.6187  1.3764  0.2593
15619TIP3   OH268347   3.113   3.968  13.702 -0.5183  1.0019 -0.5566
15619TIP3    H168348   3.087   3.955  13.611  2.5665 -0.0182 -1.4182
15619TIP3    H268349   3.141   3.881  13.731  3.2199  2.1193 -0.3545
15620TIP3   OH268350   6.573   5.030   4.076  0.0544 -0.0200  0.5747
15620TIP3    H168351   6.486   4.996   4.095 -0.6243  1.5948  0.5070
15620TIP3    H268352   6.561   5.083   3.997  0.5215  2.2569  1.9415
15621TIP3   OH268353   2.125   1.362  11.936 -0.1748 -0.2156  0.5555
15621TIP3    H168354   2.210   1.384  11.898 -0.0714  1.9579  1.8239
15621TIP3    H268355   2.076   1.445  11.934 -0.9374 -0.5199  3.0276
15622TIP3   OH268356   1.725   0.058   4.723  0.1879 -0.0699  0.5495
15622TIP3    H168357   1.760   0.143   4.751  1.4480 -0.4354  0.1414
15622TIP3    H268358   1.653   0.041   4.783 -1.1069  1.9903 -0.3072
15623TIP3   OH268359   1.053   5.001   0.204  0.2315 -0.1655  0.1908
15623TIP3    H168360   1.089   5.032   0.121 -0.2530 -1.5202 -0.5518
15623TIP3    H268361   0.960   5.024   0.200  0.2304 -0.1301  0.4091
15624TIP3   OH268362   4.157   4.720  14.224 -0.5854 -0.0283 -0.5132
15624TIP3    H168363   4.236   4.772  14.209 -0.2502 -0.7328 -1.2088
15624TIP3    H268364   4.142   4.674  14.142 -2.7526  1.4512 -1.0457
15625TIP3   OH268365   1.470   1.863  16.868 -1.6181  0.2486 -0.0833
15625TIP3    H168366   1.415   1.917  16.926  0.5068  0.7826  1.5479
15625TIP3    H268367   1.551   1.913  16.859 -0.4698 -1.5854 -0.4458
15626TIP3   OH268368   4.253   5.987  14.354  0.1547  0.0123 -0.0745
15626TIP3    H168369   4.171   6.004  14.400  0.4794  2.5594 -0.3093
15626TIP3    H268370   4.227   5.947  14.271 -0.9062  1.2530 -0.3595
15627TIP3   OH268371   3.723   5.673   1.625  0.3679  0.1538  0.1527
15627TIP3    H168372   3.693   5.757   1.590  1.2805 -0.6209 -2.7526
15627TIP3    H268373   3.656   5.649   1.690 -1.3507  1.8506 -0.8795
15628TIP3   OH268374   6.449   2.038   6.051 -0.3537 -0.9425 -0.3792
15628TIP3    H168375   6.527   2.081   6.087  0.1093 -0.1633 -2.1821
15628TIP3    H268376   6.375   2.081   6.094  0.1365  0.9819 -1.3362
15629TIP3   OH268377   5.906   0.375  13.781 -0.5516 -0.1470 -0.1972
15629TIP3    H168378   5.973   0.331  13.729 -0.1330 -0.7039  0.7882
15629TIP3    H268379   5.954   0.418  13.851 -1.1951 -0.2595  0.3235
15630TIP3   OH268380   2.223   5.247   1.727 -0.7990  0.0311 -0.3385
15630TIP3    H168381   2.278   5.221   1.801 -1.4589 -0.6341 -0.0679
15630TIP3    H268382   2.194   5.164   1.689 -3.7639  0.2746  1.1258
15631TIP3   OH268383   2.973   1.818  12.504 -0.2934  0.1019  0.9315
15631TIP3    H168384   2.927   1.796  12.585  0.2576 -1.1968  0.9091
15631TIP3    H268385   2.922   1.777  12.435  0.6022 -0.9679  0.8668
15632TIP3   OH268386   6.056   0.388   0.090 -0.2020  0.1608  0.4105
15632TIP3    H168387   6.005   0.459   0.129  0.8265  0.6607  0.8785
15632TIP3    H268388   6.084   0.422   0.005  0.3442  0.3483  0.6616
15633TIP3   OH268389   4.056   2.850  15.196  0.1918  0.0840  0.8430
15633TIP3    H168390   3.983   2.804  15.237  0.0765 -0.6234 -0.1207
15633TIP3    H268391   4.027   2.867  15.106  0.6319  1.1479  0.8775
15634TIP3   OH268392   1.021   5.353  15.860  0.3139 -0.5192 -0.1470
15634TIP3    H168393   1.068   5.296  15.799 -0.3207  0.4100 -1.5671
15634TIP3    H268394   0.941   5.377  15.813  0.3691  1.1986  0.5729
15635TIP3   OH268395   5.095   3.437   0.442  0.5304  0.2315  0.1017
15635TIP3    H168396   5.164   3.475   0.387 -0.9788 -0.1893 -2.2040
15635TIP3    H268397   5.014   3.463   0.400 -0.6451 -2.8370  0.2618
15636TIP3   OH268398   4.583   2.660  13.775 -0.0741  0.5509  0.4092
15636TIP3    H168399   4.661   2.650  13.829  0.8709  1.6224 -0.7098
15636TIP3    H268400   4.517   2.606  13.819  0.8905  0.6950  2.1274
15637TIP3   OH268401   5.748   0.560   4.688 -0.2920  0.3133 -0.7256
15637TIP3    H168402   5.762   0.470   4.657  1.3218 -0.0396  0.8236
15637TIP3    H268403   5.829   0.605   4.666  0.3439  0.4136  1.5505
15638TIP3   OH268404   1.280   3.995   0.762  0.7973 -0.2862 -0.1969
15638TIP3    H168405   1.319   4.010   0.848  1.7110  0.3717 -0.7066
15638TIP3    H268406   1.270   4.082   0.724 -0.0822 -0.5349 -0.5545
15639TIP3   OH268407   3.195   2.074   2.407 -0.1275  0.2229  0.2452
15639TIP3    H168408   3.193   2.101   2.499 -1.5371  1.5680 -0.1331
15639TIP3    H268409   3.171   1.981   2.410  0.5444  0.0645  1.2822
15640TIP3   OH268410   2.529   2.236   0.065  0.7263  0.3552  0.5154
15640TIP3    H168411   2.568   2.312   0.022  2.3200 -0.2048  0.8770
15640TIP3    H268412   2.489   2.271   0.145 -2.0580  1.3646 -1.1993
15641TIP3   OH268413   6.274   3.384  15.073 -0.7114 -0.3504  0.1026
15641TIP3    H168414   6.184   3.405  15.048 -0.8222  2.9640  2.4639
15641TIP3    H268415   6.266   3.308  15.131 -1.9904 -0.2104  0.1334
15642TIP3   OH268416   4.307   2.717   3.111 -0.7760 -0.6158  0.2955
15642TIP3    H168417   4.232   2.710   3.051 -1.6975  2.3908  0.8794
15642TIP3    H268418   4.320   2.812   3.120  2.1582 -1.0476  1.4337
15643TIP3   OH268419   1.387   2.022  13.284  0.1475 -0.1894  0.3363
15643TIP3    H168420   1.418   1.990  13.199 -1.1017  1.1424 -0.6741
15643TIP3    H268421   1.346   1.945  13.324 -0.6832 -0.4900 -0.9931
15644TIP3   OH268422   3.487   0.559  14.558  0.0256  0.4968  0.7449
15644TIP3    H168423   3.493   0.544  14.652  2.4699  1.9582  0.9216
15644TIP3    H268424   3.578   0.575  14.530 -0.7121  0.9166 -1.7120
15645TIP3   OH268425   0.907   5.097  15.284  0.0841 -0.0643 -0.4264
15645TIP3    H168426   0.952   5.014  15.296  1.2799  0.4556 -1.0877
15645TIP3    H268427   0.951   5.137  15.209  0.2996  1.6560  0.5687
15646TIP3   OH268428   4.939   3.977  16.264  0.4378 -0.3744  0.0396
15646TIP3    H168429   5.028   3.991  16.233  0.7913 -0.8044  0.8337
15646TIP3    H268430   4.884   3.991  16.187  1.2156 -0.4077 -0.5272
15647TIP3   OH268431   6.658   5.119   3.115  0.2571 -0.3066 -0.0468
15647TIP3    H168432   6.578   5.112   3.169  0.0517  0.2843 -0.2641
15647TIP3    H268433   6.626   5.127   3.026  0.6149 -1.8629 -0.3401
15648TIP3   OH268434   3.116   0.004  12.122  0.0742 -0.0674  0.1675
15648TIP3    H168435   3.093   0.018  12.030 -2.4336 -2.0418  0.3714
15648TIP3    H268436   3.200  -0.041  12.120 -1.3606 -3.0128 -1.4903
15649TIP3   OH268437   2.213   0.159  16.501 -0.0939 -0.4788  0.2268
15649TIP3    H168438   2.191   0.225  16.435 -0.1064 -2.1751 -1.5731
15649TIP3    H268439   2.198   0.202  16.585 -0.1038  1.7803 -0.8631
15650TIP3   OH268440   2.694   4.714  10.566 -0.3756  0.0033 -0.2951
15650TIP3    H168441   2.777   4.673  10.542 -1.1040 -0.8165 -1.5267
15650TIP3    H268442   2.713   4.808  10.565  0.7501 -0.2066  0.3095
15651TIP3   OH268443   4.312   0.843  11.961 -0.2110 -0.2632 -0.4340
15651TIP3    H168444   4.380   0.882  11.906 -0.5010  2.0983  0.7206
15651TIP3    H268445   4.355   0.828  12.045 -0.4961 -1.1533 -0.4339
15652TIP3   OH268446   1.814   1.168  14.452 -0.1905  0.3916 -0.0969
15652TIP3    H168447   1.809   1.148  14.545  1.9934 -0.3472 -0.0837
15652TIP3    H268448   1.723   1.180  14.425 -0.7684  2.8765  2.5625
15653TIP3   OH268449   4.271   2.230  12.186  0.9150 -0.1405 -0.1413
15653TIP3    H168450   4.197   2.175  12.158  0.9250 -0.1785 -0.0940
15653TIP3    H268451   4.340   2.167  12.208  1.6690 -0.0722 -2.1197
15654TIP3   OH268452   5.051   4.510  15.303  0.0705 -0.3237 -0.4030
15654TIP3    H168453   5.124   4.572  15.296  1.3674 -1.8221 -0.9900
15654TIP3    H268454   4.977   4.555  15.264  1.1312  0.6230 -1.4047
15655TIP3   OH268455   5.708   5.364  11.543  0.5761  0.1448  0.2005
15655TIP3    H168456   5.648   5.372  11.617  0.2671  0.0091 -0.0313
15655TIP3    H268457   5.669   5.297  11.488  1.3135 -0.4500  0.3921
15656TIP3   OH268458   6.007   6.123   2.163 -0.0548  0.1639 -0.1121
15656TIP3    H168459   5.934   6.084   2.211 -0.5789  0.2739 -0.8042
15656TIP3    H268460   6.014   6.212   2.199  0.1578 -0.0599  0.4042
15657TIP3   OH268461   6.017   2.658  14.785  0.1487 -0.9708 -0.3803
15657TIP3    H168462   5.968   2.638  14.704 -0.4429 -2.1838  0.2505
15657TIP3    H268463   5.966   2.616  14.854  0.5764  0.1665  0.6596
15658TIP3   OH268464   0.155   0.958  12.806 -0.1229 -0.5824 -0.0743
15658TIP3    H168465   0.121   0.911  12.730 -0.9401 -0.1753  0.0323
15658TIP3    H268466   0.245   0.982  12.781  0.3814 -2.3209 -0.0582
15659TIP3   OH268467   0.424   1.847   1.503  0.7289  0.2851  0.3632
15659TIP3    H168468   0.395   1.938   1.502  1.0923  0.4059 -0.6441
15659TIP3    H268469   0.358   1.801   1.556 -0.1946  0.9072 -0.2245
15660TIP3   OH268470   3.734   5.381  16.862  0.1701 -0.6360  0.3367
15660TIP3    H168471   3.784   5.417  16.789  0.8943 -1.3230  0.4835
15660TIP3    H268472   3.707   5.457  16.913 -0.0198 -0.1736 -0.4379
15661TIP3   OH268473   0.598   4.275  14.031  0.7043  0.0928  0.3269
15661TIP3    H168474   0.601   4.197  13.976  0.2499  0.9123 -0.9038
15661TIP3    H268475   0.621   4.347  13.972 -0.6838  1.1183  0.9808
15662TIP3   OH268476   0.021   0.540   0.805  0.4564  0.7837 -0.2722
15662TIP3    H168477   0.008   0.445   0.811  1.4654  0.5716 -1.0789
15662TIP3    H268478   0.057   0.553   0.717 -0.4610  2.0160 -0.4751
15663TIP3   OH268479   5.191   0.145   1.073  0.2472 -0.2661  0.5848
15663TIP3    H168480   5.126   0.088   1.031  2.1461 -2.1781  0.0944
15663TIP3    H268481   5.149   0.231   1.075 -1.9568 -1.2345 -0.4631
15664TIP3   OH268482   0.684   3.462   5.825 -0.1140 -0.4456 -0.2290
15664TIP3    H168483   0.738   3.535   5.794  1.4104 -0.3932  2.2683
15664TIP3    H268484   0.594   3.494   5.818  0.1024 -0.1907 -3.6629
15665TIP3   OH268485   6.234   0.023  11.958  0.2165 -0.0539 -0.0026
15665TIP3    H168486   6.160   0.034  11.899  1.1260  1.3105 -0.9321
15665TIP3    H268487   6.240  -0.071  11.972  0.1096 -0.4424 -2.2711
15666TIP3   OH268488   2.050   6.114  14.919 -0.3669  0.1941 -0.2108
15666TIP3    H168489   2.057   6.143  14.828  0.3790 -0.5024 -0.3887
15666TIP3    H268490   2.022   6.192  14.967  0.1320  0.8138 -0.9006
15667TIP3   OH268491   5.828   2.757   3.612  0.4005  0.0366 -0.2170
15667TIP3    H168492   5.774   2.836   3.618 -0.6074 -0.3631 -2.8294
15667TIP3    H268493   5.774   2.689   3.651  0.1922  0.1751 -0.2598
15668TIP3   OH268494   0.985   6.371   6.207 -0.1098 -0.0553 -0.6017
15668TIP3    H168495   0.925   6.342   6.275 -1.1818  2.9675 -0.1088
15668TIP3    H268496   1.001   6.293   6.154 -1.0859 -1.9457  1.7210
15669TIP3   OH268497   3.557   4.409  12.206  0.0963 -0.0185  0.5461
15669TIP3    H168498   3.542   4.475  12.138 -2.6569 -1.4320 -0.3714
15669TIP3    H268499   3.636   4.363  12.179 -1.4211 -1.1568 -2.3430
15670TIP3   OH268500   2.661   5.142   2.479  0.1594 -0.4843 -0.1636
15670TIP3    H168501   2.699   5.100   2.556  2.4468  0.5013 -0.6428
15670TIP3    H268502   2.729   5.134   2.412 -1.0902  0.1587 -1.5656
15671TIP3   OH268503   5.771   1.763  15.046 -0.0651  0.2583 -0.2443
15671TIP3    H168504   5.858   1.789  15.075  0.2551 -0.4735 -0.5331
15671TIP3    H268505   5.761   1.673  15.078 -0.2354 -0.0861 -1.2272
15672TIP3   OH268506   5.472   5.613   0.824  0.6712 -0.3818 -0.6308
15672TIP3    H168507   5.496   5.526   0.856  1.8748  0.3964  0.6674
15672TIP3    H268508   5.534   5.630   0.753 -0.4189 -1.0868 -1.8073
15673TIP3   OH268509   3.974   2.066   4.006 -0.0721  0.3875 -0.3778
15673TIP3    H168510   4.045   2.130   4.015 -0.8798  0.9893  3.3323
15673TIP3    H268511   3.895   2.115   4.031 -1.0400 -1.4989  0.4286
15674TIP3   OH268512   1.289   5.469  10.992  0.2142 -0.2591 -0.0816
15674TIP3    H168513   1.341   5.502  10.919 -0.9091 -0.5993 -1.0780
15674TIP3    H268514   1.329   5.507  11.070  1.8509 -0.4131 -0.8066
15675TIP3   OH268515   1.500   3.906   5.062 -0.5328  0.6305  0.1406
15675TIP3    H168516   1.559   3.840   5.095 -1.7151 -0.0291  1.0162
15675TIP3    H268517   1.533   3.989   5.098  1.0169  0.5816 -1.0581
15676TIP3   OH268518   2.480   6.334   0.654 -0.0004 -0.1588 -0.1311
15676TIP3    H168519   2.492   6.273   0.582 -0.2216 -1.6508  1.0547
15676TIP3    H268520   2.395   6.312   0.692  0.0027  0.7481  0.4551
15677TIP3   OH268521   0.286   3.908   3.338 -0.6192 -0.4639  0.3722
15677TIP3    H168522   0.243   3.872   3.415 -1.6447 -0.1991 -0.0590
15677TIP3    H268523   0.254   3.998   3.331  1.0747  0.2018  0.8096
15678TIP3   OH268524   6.041   2.786   4.409 -0.0250  0.0190 -0.1794
15678TIP3    H168525   6.115   2.827   4.363  0.1764 -2.0233 -1.8330
15678TIP3    H268526   5.978   2.766   4.340 -1.6543  0.6705  1.0542
15679TIP3   OH268527   6.456   5.145   5.584  0.4481 -0.1417 -0.1162
15679TIP3    H168528   6.507   5.225   5.574  1.0233 -0.5179 -0.1928
15679TIP3    H268529   6.501   5.080   5.531 -1.3277  0.0604 -2.0072
15680TIP3   OH268530   4.335   3.142  16.578 -0.2229 -0.0177 -0.2929
15680TIP3    H168531   4.289   3.120  16.660 -0.0708 -0.6355 -0.3713
15680TIP3    H268532   4.380   3.062  16.553  1.9274  0.9083  0.4242
15681TIP3   OH268533   2.368   6.531   5.752 -0.7960  0.4594 -0.3717
15681TIP3    H168534   2.285   6.579   5.750 -0.6309  0.8505  1.0019
15681TIP3    H268535   2.435   6.599   5.750 -0.5490  0.2493  0.4036
15682TIP3   OH268536   2.153   3.028  16.381 -0.1548  0.6330 -0.1332
15682TIP3    H168537   2.122   2.961  16.442  0.5460 -0.6958 -1.1964
15682TIP3    H268538   2.209   3.084  16.434  1.4009 -1.1780  0.2443
15683TIP3   OH268539   3.222   5.300  12.091  0.0241 -0.6283 -1.1171
15683TIP3    H168540   3.206   5.337  12.178  1.8244  0.5531 -1.2325
15683TIP3    H268541   3.294   5.238  12.105  0.7323  0.0074 -1.8195
15684TIP3   OH268542   0.478   4.646  12.141  0.0782 -0.0678  0.0557
15684TIP3    H168543   0.557   4.693  12.169 -0.8545  0.9410  1.1391
15684TIP3    H268544   0.439   4.614  12.222 -1.0452  0.1554 -0.3731
15685TIP3   OH268545   4.126   1.306   5.069  0.5632 -0.1426  0.6640
15685TIP3    H168546   4.084   1.385   5.102 -1.4772 -1.4859  1.4892
15685TIP3    H268547   4.177   1.335   4.994 -0.6804  1.8336  0.5267
15686TIP3   OH268548   5.597   3.196  16.044  0.2977 -0.3515  0.3648
15686TIP3    H168549   5.593   3.211  15.949 -1.0794  0.7988  0.5762
15686TIP3    H268550   5.690   3.204  16.065  0.4954  0.5777 -0.7298
15687TIP3   OH268551   4.831   4.500   5.439 -0.5150  0.2956 -0.0360
15687TIP3    H168552   4.750   4.483   5.391 -1.4690 -0.3274  1.6708
15687TIP3    H268553   4.891   4.431   5.410 -1.6852 -1.2141  0.9335
15688TIP3   OH268554   2.280   4.760  15.545  0.3935 -0.0544  0.2311
15688TIP3    H168555   2.256   4.770  15.452  0.5800 -0.1809  0.1703
15688TIP3    H268556   2.359   4.706  15.544 -1.0590 -2.3100  0.5924
15689TIP3   OH268557   2.189   0.002  17.113  0.0859  0.0398  0.0678
15689TIP3    H168558   2.191  -0.066  17.180 -0.7649 -1.9474 -1.8090
15689TIP3    H268559   2.281   0.014  17.088  0.1564 -1.4298 -0.4788
15690TIP3   OH268560   0.741   4.819  14.915 -0.3412  0.4212  0.0171
15690TIP3    H168561   0.666   4.787  14.964  0.8226 -0.0456  1.5722
15690TIP3    H268562   0.766   4.746  14.858 -1.3253  0.7475 -0.8558
15691TIP3   OH268563   3.128   5.254   0.904  0.1769  0.0374  0.2673
15691TIP3    H168564   3.066   5.201   0.952 -0.4154 -0.6953 -1.2425
15691TIP3    H268565   3.099   5.250   0.813  0.8278  1.9512 -0.0902
15692TIP3   OH268566   4.600   2.706  12.509 -0.1070 -0.1147 -0.1229
15692TIP3    H168567   4.669   2.643  12.485  1.8066  2.2057 -1.1616
15692TIP3    H268568   4.519   2.667  12.475  1.0984 -1.6840 -1.3540
15693TIP3   OH268569   1.780   0.685  15.722  0.2006  0.8454  0.2567
15693TIP3    H168570   1.773   0.747  15.649 -0.4895  0.3609 -0.0940
15693TIP3    H268571   1.822   0.608  15.684  0.4321  0.8365  0.5298
15694TIP3   OH268572   2.642   4.524   1.545 -0.2318 -0.4709  0.4001
15694TIP3    H168573   2.587   4.596   1.577  0.0347 -0.9492  2.0381
15694TIP3    H268574   2.580   4.454   1.525 -0.4267 -0.0737 -0.3982
15695TIP3   OH268575   5.970   6.284   0.535  0.2399  0.1086 -0.3272
15695TIP3    H168576   5.988   6.207   0.481 -0.8421 -1.0108  0.8233
15695TIP3    H268577   5.902   6.331   0.488 -0.1774 -0.4714 -0.3153
15696TIP3   OH268578   2.107   5.993   2.742  0.1232  0.2104  0.1379
15696TIP3    H168579   2.033   6.028   2.791 -0.3578 -1.0070  0.3185
15696TIP3    H268580   2.147   5.928   2.800  1.1947  0.6708 -0.0512
15697TIP3   OH268581   3.446   3.902   0.216  0.2181 -0.3103  0.2328
15697TIP3    H168582   3.529   3.877   0.177  0.9300  0.9093  0.9113
15697TIP3    H268583   3.469   3.934   0.303 -0.9556  0.1301  0.4034
15698TIP3   OH268584   4.698   1.970  15.163 -0.3861  0.3112  0.2276
15698TIP3    H168585   4.640   1.950  15.089 -0.4914  0.1750  0.3470
15698TIP3    H268586   4.653   1.934  15.239 -0.2599  0.4220  0.3531
15699TIP3   OH268587   1.963   2.812  10.852  0.1498  0.5653 -0.1897
15699TIP3    H168588   2.042   2.804  10.798 -0.4583 -1.3568 -0.8899
15699TIP3    H268589   1.995   2.840  10.938  1.4980  0.6188 -0.6815
15700TIP3   OH268590   6.613   3.228  11.585 -0.0140  0.5294  0.4845
15700TIP3    H168591   6.582   3.176  11.658  1.4768  0.3440  1.0206
15700TIP3    H268592   6.660   3.301  11.626 -1.1689  1.7609 -0.2647
15701TIP3   OH268593   5.916   0.242   3.633  0.0514 -0.0108 -0.0013
15701TIP3    H168594   5.960   0.192   3.702  1.8660  0.0729 -1.0306
15701TIP3    H268595   5.828   0.258   3.667 -0.0487 -2.4401  1.0595
15702TIP3   OH268596   2.527   5.105  11.896  0.7680 -0.5286  0.4949
15702TIP3    H168597   2.498   5.166  11.963  0.7888  0.5109 -0.4259
15702TIP3    H268598   2.573   5.036  11.945 -0.1229 -0.3396  1.6252
15703TIP3   OH268599   1.009   0.905  16.621 -0.6838  0.0633  0.1277
15703TIP3    H168600   1.085   0.899  16.679 -1.0531 -1.2343  0.5066
15703TIP3    H268601   1.046   0.906  16.533 -0.1829  0.6407  0.3350
15704TIP3   OH268602   1.916   5.286  15.983 -0.5934  0.2318 -0.3131
15704TIP3    H168603   2.006   5.259  15.964 -0.9446  0.2432 -2.1628
15704TIP3    H268604   1.924   5.374  16.017  0.2097 -0.3998  1.2244
15705TIP3   OH268605   6.251   4.346   4.929 -0.3328 -0.1504 -0.1748
15705TIP3    H168606   6.342   4.356   4.902 -0.0227 -0.5690  0.6435
15705TIP3    H268607   6.199   4.360   4.850  0.4302  0.3293 -0.5955
15706TIP3   OH268608   0.104   2.604  12.484 -0.3903  0.8515 -0.1298
15706TIP3    H168609   0.044   2.660  12.533 -1.1199 -0.4024  0.4483
15706TIP3    H268610   0.050   2.561  12.418 -0.1517 -0.3262  0.4244
15707TIP3   OH268611   6.768   3.489   0.395  0.1918 -0.5743 -0.0284
15707TIP3    H168612   6.694   3.530   0.350  0.8907  1.2591  0.4106
15707TIP3    H268613   6.728   3.446   0.471 -0.4454  0.3191  0.1610
15708TIP3   OH268614   5.303   5.625  12.317 -0.9071  0.0675  0.2537
15708TIP3    H168615   5.312   5.582  12.232  0.0918  0.0347  0.3674
15708TIP3    H268616   5.213   5.657  12.317 -1.2956 -0.9541 -0.3289
15709TIP3   OH268617   1.481   4.434   4.551 -1.0068 -0.1149  0.1108
15709TIP3    H168618   1.494   4.391   4.466 -0.7580 -0.3428  0.2631
15709TIP3    H268619   1.510   4.524   4.536  1.6467 -0.7836  0.6439
15710TIP3   OH268620   4.418   4.352  14.676 -0.4869 -0.3297  0.2715
15710TIP3    H168621   4.363   4.281  14.642 -1.1159 -0.3115  1.2202
15710TIP3    H268622   4.368   4.389  14.748  0.5465  0.0490  0.8153
15711TIP3   OH268623   1.458   5.393   0.921  0.5883  0.2627 -0.6339
15711TIP3    H168624   1.528   5.340   0.959  0.4436  0.0369 -0.6846
15711TIP3    H268625   1.458   5.369   0.828 -0.2619 -0.5224 -0.4379
15712TIP3   OH268626   6.034   4.080   5.951  0.0322 -0.0977 -0.6083
15712TIP3    H168627   6.062   4.135   6.024 -0.0185 -0.4472 -0.3231
15712TIP3    H268628   6.065   3.993   5.974 -2.6158 -0.8527  0.5162
15713TIP3   OH268629   1.132   6.829   5.476  0.1094  0.5502 -0.0344
15713TIP3    H168630   1.123   6.751   5.531 -2.2823  0.4899 -0.4146
15713TIP3    H268631   1.056   6.883   5.497  0.1170  1.3849 -1.8939
15714TIP3   OH268632   5.228   5.862   5.635  0.2113 -0.2384  0.1446
15714TIP3    H168633   5.253   5.860   5.727 -2.4534  0.3513  0.9683
15714TIP3    H268634   5.226   5.955   5.613 -1.8091 -0.1965  0.3507
15715TIP3   OH268635   3.242   6.508   3.436 -0.0029 -0.3593  0.1702
15715TIP3    H168636   3.269   6.439   3.374  0.4281 -1.7552  1.8463
15715TIP3    H268637   3.285   6.587   3.403 -0.2288 -0.9216 -1.6120
15716TIP3   OH268638   0.775   5.133  14.130  0.0286  0.2462 -0.0771
15716TIP3    H168639   0.855   5.082  14.119  0.2335  0.5241  0.1146
15716TIP3    H268640   0.782   5.203  14.065  0.1267  0.5027  0.2100
15717TIP3   OH268641   1.947   2.269   0.459 -0.7741  0.0547  0.4042
15717TIP3    H168642   1.999   2.349   0.447  0.5618 -1.0364 -1.6489
15717TIP3    H268643   1.865   2.287   0.411 -0.3035  0.0541 -0.4173
15718TIP3   OH268644   5.960   4.685   0.918 -0.3562  0.1102  0.3203
15718TIP3    H168645   5.979   4.754   0.982  0.8776 -1.7266  2.0634
15718TIP3    H268646   5.911   4.619   0.968  0.4015 -1.2547 -0.6773
15719TIP3   OH268647   1.481   1.336   1.525 -0.7110 -0.1894 -0.0600
15719TIP3    H168648   1.544   1.274   1.487 -0.2998 -0.1879  0.6065
15719TIP3    H268649   1.512   1.422   1.496  0.2265 -0.0986  1.1099
15720TIP3   OH268650   5.447   4.601   4.898 -0.5742  0.0085 -0.7214
15720TIP3    H168651   5.407   4.592   4.812 -1.9931 -1.5122  0.0338
15720TIP3    H268652   5.373   4.617   4.957  0.4160  1.5941  0.1740
15721TIP3   OH268653   4.902   4.215   4.393  0.4305 -0.0757 -0.1649
15721TIP3    H168654   4.848   4.149   4.349 -0.2584  1.0159 -0.9953
15721TIP3    H268655   4.949   4.259   4.323 -0.8005  1.7984  0.1091
15722TIP3   OH268656   4.765   5.089   4.857  0.4006  0.1390  0.1081
15722TIP3    H168657   4.691   5.039   4.892  0.6132 -0.3648 -0.1568
15722TIP3    H268658   4.730   5.177   4.843  0.1039  0.1492  0.8562
15723TIP3   OH268659   5.696   0.960  11.822 -0.1920 -0.8785  0.3062
15723TIP3    H168660   5.658   1.041  11.788  1.9391 -0.4202 -1.2149
15723TIP3    H268661   5.649   0.890  11.776 -0.8869 -0.4649  0.3669
15724TIP3   OH268662   4.269   2.676  14.105  0.3819  0.2002 -0.4478
15724TIP3    H168663   4.282   2.609  14.039 -0.8086 -0.7979  0.2946
15724TIP3    H268664   4.329   2.652  14.176 -0.5925 -0.5384  0.1407
15725TIP3   OH268665   1.500   4.629   2.951 -0.4430  0.3999 -0.1331
15725TIP3    H168666   1.567   4.560   2.950 -0.6554  0.1513 -2.0230
15725TIP3    H268667   1.429   4.594   3.005 -0.7428 -1.1051 -1.4310
15726TIP3   OH268668   2.182   6.020   4.923 -0.1551 -0.9917 -0.0571
15726TIP3    H168669   2.207   6.094   4.868 -0.1719  0.1739  1.4449
15726TIP3    H268670   2.264   5.993   4.966 -0.4274 -0.8408  0.5642
15727TIP3   OH268671   5.431   5.214  12.929 -0.4047  0.5283 -0.1495
15727TIP3    H168672   5.423   5.127  12.890  2.3996 -0.9566  2.2578
15727TIP3    H268673   5.496   5.259  12.875  0.5537 -0.0985  0.4552
15728TIP3   OH268674   3.011   2.482   0.752 -0.0001 -0.1962  0.3085
15728TIP3    H168675   3.022   2.557   0.810 -3.7679 -0.9441  2.2947
15728TIP3    H268676   2.957   2.515   0.680  0.4228 -0.4554 -0.1351
15729TIP3   OH268677   6.799   6.500  14.065 -0.4013  0.3254  0.4726
15729TIP3    H168678   6.845   6.487  13.981  1.1310 -5.3792  1.7315
15729TIP3    H268679   6.706   6.488  14.043 -0.1961  0.6008 -0.6287
15730TIP3   OH268680   3.083   3.427   0.251 -0.0143 -0.0123  0.2274
15730TIP3    H168681   3.069   3.332   0.241  1.2367 -0.2682  0.6627
15730TIP3    H268682   3.094   3.458   0.161 -1.3138 -0.1140  0.0172
15731TIP3   OH268683   3.842   1.068  11.152 -0.2539 -0.1355  0.1780
15731TIP3    H168684   3.922   1.119  11.167  0.1641 -0.6005 -0.4098
15731TIP3    H268685   3.851   1.035  11.063 -1.0133 -0.3644  0.1778
15732TIP3   OH268686   6.237   6.822   2.872  0.3890  0.0310 -0.5374
15732TIP3    H168687   6.277   6.866   2.796 -1.5739 -1.7565 -2.7550
15732TIP3    H268688   6.225   6.732   2.843 -1.7620 -0.3772  1.3970
15733TIP3   OH268689   6.001   1.617   4.564 -0.1116  0.2694 -0.0896
15733TIP3    H168690   6.071   1.681   4.578  0.1903 -0.1776  0.4673
15733TIP3    H268691   6.046   1.536   4.542 -0.5169  0.5900 -2.3992
15734TIP3   OH268692   6.805   0.169   2.800  0.0859 -0.3556 -0.0041
15734TIP3    H168693   6.842   0.087   2.767 -1.7252 -1.1352 -0.1807
15734TIP3    H268694   6.836   0.235   2.738  0.5857 -1.0838 -0.5567
15735TIP3   OH268695   0.550   4.310  16.443  0.1136  0.2585  0.3684
15735TIP3    H168696   0.575   4.223  16.414 -0.5403 -0.3072  1.4555
15735TIP3    H268697   0.496   4.296  16.520  2.1684  1.7337  2.2025
15736TIP3   OH268698   4.378   3.894   1.953  0.3996  0.2047  1.2819
15736TIP3    H168699   4.318   3.875   1.881  0.7266  1.9878  0.4830
15736TIP3    H268700   4.464   3.872   1.919  0.6035  1.4615  0.9258
15737TIP3   OH268701   2.393   0.788   3.389 -0.1679  0.6465  0.3714
15737TIP3    H168702   2.348   0.859   3.343  1.4488 -0.5389 -3.4516
15737TIP3    H268703   2.445   0.832   3.457 -0.6367  2.9197 -0.6485
15738TIP3   OH268704   3.289   0.164   3.789  0.6922  0.5210  0.3973
15738TIP3    H168705   3.333   0.087   3.754  0.1369  0.6191 -0.5386
15738TIP3    H268706   3.238   0.131   3.863 -0.0444 -0.1355 -0.3917
15739TIP3   OH268707   1.343   4.200  12.788 -0.0700 -0.2543  0.5014
15739TIP3    H168708   1.273   4.196  12.854  1.3436 -0.9420  2.0498
15739TIP3    H268709   1.406   4.261  12.825  0.2630  0.1880 -0.7692
15740TIP3   OH268710   0.440   5.694  14.527 -0.1806  0.2926  0.5004
15740TIP3    H168711   0.458   5.754  14.455 -0.4571  0.0034  0.1914
15740TIP3    H268712   0.357   5.653  14.505  0.8763 -1.5955 -0.2342
15741TIP3   OH268713   4.989   1.745  15.937 -0.4567  0.2588  0.3060
15741TIP3    H168714   5.016   1.684  15.869  0.3007  0.2625  0.5956
15741TIP3    H268715   4.939   1.692  15.999  0.1210 -0.0504  0.5101
15742TIP3   OH268716   3.938   5.946  15.802  0.1249 -0.1050  0.1905
15742TIP3    H168717   3.865   5.888  15.783  0.0124 -0.5857  1.8893
15742TIP3    H268718   3.921   6.025  15.750  0.0872 -1.4002 -1.8644
15743TIP3   OH268719   4.923   3.794   0.964  0.4283  0.1030  0.1714
15743TIP3    H168720   4.960   3.779   1.051  1.0776 -0.3867 -0.1784
15743TIP3    H268721   4.832   3.819   0.980  0.0174 -1.7238  0.9057
15744TIP3   OH268722   3.474   6.580  16.651 -0.3546  0.0554  0.7620
15744TIP3    H168723   3.446   6.633  16.577  0.2455 -0.5681  0.0736
15744TIP3    H268724   3.508   6.643  16.715 -1.0881  0.6150  0.6101
15745TIP3   OH268725   3.189   0.104   2.577  0.3423 -0.0434  0.1670
15745TIP3    H168726   3.276   0.145   2.585  0.5841 -0.2983 -0.9574
15745TIP3    H268727   3.132   0.161   2.628  1.1120  0.3251  0.6460
15746TIP3   OH268728   5.662   1.866   6.590 -0.4107 -0.4301  0.5105
15746TIP3    H168729   5.642   1.815   6.668 -1.3050 -1.3954 -0.3201
15746TIP3    H268730   5.611   1.824   6.520  0.5565  0.2553 -0.6421
15747TIP3   OH268731   6.765   4.383  16.838  0.2608  0.0181 -0.3406
15747TIP3    H168732   6.764   4.393  16.933  0.5735  1.1368 -0.4491
15747TIP3    H268733   6.821   4.453  16.806  1.2895 -1.1828 -1.2711
15748TIP3   OH268734   3.749   3.116  13.936 -0.2577 -0.1244  0.3112
15748TIP3    H168735   3.722   3.117  13.844  0.7895  1.6428 -0.0354
15748TIP3    H268736   3.826   3.061  13.939  0.1383  0.4029 -0.0299
15749TIP3   OH268737   6.031   0.668  12.082 -0.0929 -0.0715 -0.0754
15749TIP3    H168738   6.116   0.699  12.052 -1.0246  1.5591 -1.2043
15749TIP3    H268739   6.030   0.575  12.059  1.7013 -0.3348  0.8069
15750TIP3   OH268740   3.695   2.767  11.787 -0.3675  0.2113  0.1286
15750TIP3    H168741   3.635   2.720  11.730  0.9971 -0.1725 -1.0387
15750TIP3    H268742   3.740   2.829  11.729 -0.3726  1.2151  1.1701
15751TIP3   OH268743   2.415   2.043   4.869 -0.1377  0.0854 -0.1406
15751TIP3    H168744   2.387   2.090   4.948 -0.5685 -1.4559  0.6580
15751TIP3    H268745   2.510   2.059   4.865 -0.4943  2.5515 -0.9846
15752TIP3   OH268746   4.113   2.738   5.414  0.2159 -0.2036 -0.1107
15752TIP3    H168747   4.173   2.677   5.456  0.2209 -1.3435 -1.6626
15752TIP3    H268748   4.032   2.731   5.464  0.9253  0.2607  1.1230
15753TIP3   OH268749   0.649   4.665   2.006  0.4291 -0.0986 -0.0652
15753TIP3    H168750   0.626   4.610   2.080 -0.8577  0.7555  0.1916
15753TIP3    H268751   0.740   4.691   2.023  0.1638  0.0544  1.2103
15754TIP3   OH268752   4.957   2.958  14.501  0.6465  0.4296  0.3516
15754TIP3    H168753   4.925   2.891  14.440  0.0715  0.6319  0.4248
15754TIP3    H268754   4.988   2.908  14.577  2.1991  0.1141 -0.4429
15755TIP3   OH268755   2.467   6.768   5.902  0.2795 -0.0215 -0.0374
15755TIP3    H168756   2.389   6.773   5.958 -0.2324 -0.0867 -0.7229
15755TIP3    H268757   2.441   6.812   5.821  1.2086  0.6050 -0.0066
15756TIP3   OH268758   2.003   5.889   1.719 -0.2871  0.6889 -0.5673
15756TIP3    H168759   2.085   5.857   1.680 -0.4143 -0.5449  0.1224
15756TIP3    H268760   1.973   5.817   1.774 -0.9935  1.7460  0.4790
15757TIP3   OH268761   1.282   2.197  14.848  0.7012  0.4104  0.2363
15757TIP3    H168762   1.219   2.240  14.791  0.5742  0.8113  0.6671
15757TIP3    H268763   1.278   2.104  14.824  0.2912  0.5046 -0.0597
15758TIP3   OH268764   5.565   6.830   5.863  0.3336  0.2665 -0.2690
15758TIP3    H168765   5.587   6.739   5.843  1.3935  0.4101  0.1706
15758TIP3    H268766   5.495   6.852   5.801  1.0655 -0.4049 -1.3699
15759TIP3   OH268767   3.424   2.487  12.997  0.0407 -0.4064  0.1218
15759TIP3    H168768   3.516   2.509  13.013 -0.3765  1.1778  0.5091
15759TIP3    H268769   3.404   2.420  13.064  0.8482 -0.6299  0.1539
15760TIP3   OH268770   1.060   0.089   0.499  0.3825  0.0696 -0.0049
15760TIP3    H168771   0.967   0.108   0.507  0.5060  1.1648 -0.9548
15760TIP3    H268772   1.089   0.140   0.424  1.5710 -0.9488 -0.2721
15761TIP3   OH268773   3.126   0.182   0.551  0.1042 -0.5152  0.2019
15761TIP3    H168774   3.071   0.212   0.623 -3.2375  0.9737 -2.6917
15761TIP3    H268775   3.169   0.261   0.519  1.4539 -1.1396  0.3693
15762TIP3   OH268776   1.320   2.568  16.425 -0.1095  0.0184 -0.3873
15762TIP3    H168777   1.392   2.570  16.362 -1.7934  2.3451 -2.4471
15762TIP3    H268778   1.358   2.600  16.507  1.6849 -1.1008 -0.7484
15763TIP3   OH268779   3.919   3.285  12.576  0.3512  0.6689 -0.2223
15763TIP3    H168780   3.950   3.237  12.499  2.7812  2.3032 -0.4090
15763TIP3    H268781   3.961   3.371  12.568 -0.8749  1.5512  1.9591
15764TIP3   OH268782   6.493   0.253   5.351  0.4649 -0.1182 -0.3395
15764TIP3    H168783   6.420   0.194   5.337  0.3990 -0.4465  1.1883
15764TIP3    H268784   6.461   0.315   5.417  1.2523  0.2935 -0.3333
15765TIP3   OH268785   5.025   4.469   5.099  0.3176  0.1047  0.4997
15765TIP3    H168786   5.016   4.535   5.167  1.6456  1.7169 -0.8026
15765TIP3    H268787   5.027   4.386   5.146  2.2313  1.1963  2.5438
15766TIP3   OH268788   6.067   2.582  16.272 -0.4550 -0.5477 -0.1856
15766TIP3    H168789   5.985   2.612  16.311 -0.9779 -0.8524 -1.0322
15766TIP3    H268790   6.071   2.489  16.292  0.3170 -0.2972  0.9358
15767TIP3   OH268791   2.911   5.155   3.503  0.5664 -0.0603 -0.0502
15767TIP3    H168792   2.945   5.151   3.414  0.6493 -2.0781  0.0211
15767TIP3    H268793   2.843   5.221   3.500 -0.4699 -1.1289 -2.0147
15768TIP3   OH268794   1.259   0.060  12.551 -0.2812  0.3526 -0.7560
15768TIP3    H168795   1.324   0.098  12.492 -1.3812  0.9215 -1.6532
15768TIP3    H268796   1.261  -0.033  12.532  0.9633  0.2171 -0.0473
15769TIP3   OH268797   3.216   1.222   4.252 -0.1278  0.1392  0.6827
15769TIP3    H168798   3.218   1.178   4.337 -2.0826  0.3613  0.8970
15769TIP3    H268799   3.161   1.166   4.197  0.0158  0.6741 -0.0171
15770TIP3   OH268800   6.702   5.238  14.487  0.6066  0.5720  0.0699
15770TIP3    H168801   6.677   5.293  14.413  3.3035  1.0180 -0.6152
15770TIP3    H268802   6.758   5.170  14.448 -1.1894 -1.6721  1.1598
15771TIP3   OH268803   4.549   3.786  14.993 -0.1179 -0.2886  0.1087
15771TIP3    H168804   4.632   3.769  15.036  1.8033  2.7301 -1.9941
15771TIP3    H268805   4.521   3.871  15.027  0.2819  1.0622 -2.6291
15772TIP3   OH268806   3.080   0.868   3.779 -0.0877  0.0373 -0.1259
15772TIP3    H168807   3.003   0.906   3.737  0.1194  0.6536  0.0522
15772TIP3    H268808   3.071   0.774   3.763 -1.1895  0.0393  0.4078
15773TIP3   OH268809   2.834   0.500   0.165  0.6707  0.4482  0.4056
15773TIP3    H168810   2.910   0.548   0.198  1.5254 -1.6019  1.6255
15773TIP3    H268811   2.864   0.462   0.082  0.1360  1.5789 -0.3383
15774TIP3   OH268812   4.764   3.769  14.349 -0.4207  0.8493 -1.1658
15774TIP3    H168813   4.694   3.718  14.392 -1.4286  2.7273 -0.4613
15774TIP3    H268814   4.841   3.713  14.356 -0.9394  0.2979  1.5904
15775TIP3   OH268815   4.065   5.823  14.665 -0.0225  0.7733  0.1861
15775TIP3    H168816   4.148   5.870  14.666  0.1583  0.4558  1.4534
15775TIP3    H268817   4.088   5.735  14.636  0.3782  0.2193  2.0615
15776TIP3   OH268818   2.665   2.379   3.672  0.3984  0.1837 -0.5182
15776TIP3    H168819   2.715   2.460   3.684 -0.2874  0.4644  0.6906
15776TIP3    H268820   2.574   2.409   3.663  0.3147 -0.3714 -1.6621
15777TIP3   OH268821   1.523   5.448  14.384 -0.1372 -0.3479  0.4388
15777TIP3    H168822   1.551   5.378  14.444 -0.4005 -0.6765  0.1806
15777TIP3    H268823   1.576   5.435  14.306  0.7745  0.5678  0.8891
15778TIP3   OH268824   6.141   6.103   1.113 -0.4846  0.3794  0.5608
15778TIP3    H168825   6.196   6.031   1.084 -1.4377 -0.3114  0.4077
15778TIP3    H268826   6.057   6.062   1.133 -1.3466  1.5857 -0.4578
15779TIP3   OH268827   3.765   0.496  14.175  0.2933  0.2861  0.6016
15779TIP3    H168828   3.687   0.504  14.231  0.4663 -2.1422  1.3191
15779TIP3    H268829   3.730   0.502  14.086 -0.2540  2.2363  0.8947
15780TIP3   OH268830   0.524   4.292   5.359  0.0365  0.3261 -0.5117
15780TIP3    H168831   0.441   4.297   5.312 -0.5286 -4.0079 -0.3874
15780TIP3    H268832   0.499   4.281   5.451  0.6426 -1.6461 -0.5481
15781TIP3   OH268833   6.365   5.883   0.698  0.1264 -0.0212  0.0747
15781TIP3    H168834   6.291   5.824   0.713  1.6680 -2.0242  0.1943
15781TIP3    H268835   6.352   5.916   0.609 -0.5201 -0.9220 -0.1724
15782TIP3   OH268836   6.100   5.290  13.414  0.4430 -0.2659  0.2374
15782TIP3    H168837   6.060   5.315  13.331 -0.5898 -3.1388 -0.2512
15782TIP3    H268838   6.077   5.361  13.475 -1.5036  0.3642 -1.1522
15783TIP3   OH268839   0.863   1.937  13.120 -0.3856 -0.5957  0.2207
15783TIP3    H168840   0.894   1.992  13.048 -1.5713 -1.4850 -1.0286
15783TIP3    H268841   0.826   1.860  13.077 -1.4795 -0.9876  1.7646
15784TIP3   OH268842   3.301   2.783  14.164 -0.1634  0.0943  0.0899
15784TIP3    H168843   3.326   2.871  14.191  0.7692  0.1848 -0.9907
15784TIP3    H268844   3.352   2.725  14.221 -0.6583  0.2467  0.6936
15785TIP3   OH268845   0.409   1.470  15.182  0.4105 -0.1091  0.1597
15785TIP3    H168846   0.428   1.376  15.187  0.4845 -0.1206 -0.3581
15785TIP3    H268847   0.318   1.477  15.210  0.2333 -0.3973 -0.3443
15786TIP3   OH268848   3.755   2.424   5.007  0.2283  0.2628 -0.1957
15786TIP3    H168849   3.788   2.348   5.055  0.3383 -0.4721 -1.4048
15786TIP3    H268850   3.660   2.417   5.013  0.2419  0.1283 -0.1505
15787TIP3   OH268851   3.134   2.290  10.408 -0.2876  0.0925 -0.1377
15787TIP3    H168852   3.113   2.364  10.351  0.4386  0.1971 -0.2819
15787TIP3    H268853   3.083   2.217  10.373  0.5610  0.0064 -1.2947
15788TIP3   OH268854   6.597   5.569  11.033 -0.3856  0.0376 -0.0723
15788TIP3    H168855   6.503   5.554  11.037 -0.4417 -0.6524 -2.4143
15788TIP3    H268856   6.609   5.657  11.068 -1.9487  0.2753 -0.0712
15789TIP3   OH268857   1.455   4.012   4.221 -0.4476 -0.4963  0.4197
15789TIP3    H168858   1.513   4.077   4.262 -0.6721 -0.7866  1.2006
15789TIP3    H268859   1.368   4.048   4.233 -0.3968  0.5861 -1.8813
15790TIP3   OH268860   6.822   6.592   3.540 -0.1935 -0.6281  0.2160
15790TIP3    H168861   6.735   6.553   3.547  0.0000 -1.0281  0.4949
15790TIP3    H268862   6.840   6.625   3.629 -1.0060  1.5656 -0.3606
15791TIP3   OH268863   0.680   4.537   3.179  0.3716 -0.7051  0.1498
15791TIP3    H168864   0.589   4.555   3.155  0.4762 -1.4768 -0.9224
15791TIP3    H268865   0.686   4.561   3.271 -0.8517 -0.3895  0.1661
15792TIP3   OH268866   2.444   3.575   2.456 -0.1407  0.2579  0.3773
15792TIP3    H168867   2.503   3.587   2.381  0.7697  0.5367  1.1283
15792TIP3    H268868   2.501   3.548   2.528 -1.0315 -0.1805  0.9395
15793TIP3   OH268869   5.764   2.082  16.071 -0.2742 -0.1059 -0.0219
15793TIP3    H168870   5.784   1.992  16.045 -0.6190 -0.4862  0.9875
15793TIP3    H268871   5.707   2.115  16.002  0.0602 -0.5698 -0.5266
15794TIP3   OH268872   1.337   2.345   3.001  0.5145 -0.5586 -0.0833
15794TIP3    H168873   1.261   2.289   2.989 -1.7244  1.9345  1.4232
15794TIP3    H268874   1.343   2.358   3.096  1.2346  1.3015 -0.3433
15795TIP3   OH268875   0.600   6.789   2.904 -0.0340  0.1020 -0.2976
15795TIP3    H168876   0.569   6.880   2.911 -0.3871 -0.1397  2.1757
15795TIP3    H268877   0.573   6.762   2.816 -3.3652  1.1947  0.2234
15796TIP3   OH268878   1.160   6.811  13.976 -0.0869  0.2210  0.2682
15796TIP3    H168879   1.102   6.747  13.936  0.1878 -0.3115  0.7166
15796TIP3    H268880   1.224   6.832  13.908 -1.1894  1.3239 -0.4658
15797TIP3   OH268881   0.624   2.261  14.880 -0.1685  0.0925  0.2977
15797TIP3    H168882   0.566   2.199  14.837  0.8143 -0.6916  0.0621
15797TIP3    H268883   0.712   2.235  14.852  0.2615  1.8222 -0.1207
15798TIP3   OH268884   1.999   3.069  12.623  0.1880  0.3319  0.2900
15798TIP3    H168885   1.910   3.075  12.655  0.2544 -1.4287  0.8820
15798TIP3    H268886   2.022   3.159  12.599 -1.2817  1.0149  1.3285
15799TIP3   OH268887   2.862   3.300   1.191  0.1169 -0.2803 -0.2308
15799TIP3    H168888   2.870   3.330   1.100 -0.8814 -0.2942 -0.3385
15799TIP3    H268889   2.767   3.294   1.206  0.2733 -0.7013  0.6739
15800TIP3   OH268890   1.195   5.807   1.094  0.1488 -0.0147  0.3275
15800TIP3    H168891   1.223   5.888   1.052  0.7933  0.6332  1.9261
15800TIP3    H268892   1.257   5.741   1.063  0.0148  0.2348 -0.4831
15801TIP3   OH268893   5.030   4.036   4.537 -0.4967 -0.0571 -0.4725
15801TIP3    H168894   4.944   4.010   4.570 -1.3875 -1.8364 -3.8075
15801TIP3    H268895   5.013   4.114   4.484  0.3165  0.7222  0.3761
15802TIP3   OH268896   2.518   0.962   2.929  0.5960 -0.0919  0.2020
15802TIP3    H168897   2.549   1.000   2.846  2.2223  1.2247  1.3453
15802TIP3    H268898   2.591   0.909   2.960  1.4453  2.2195  2.4430
15803TIP3   OH268899   1.864   6.179  15.557  0.1126  0.0337 -0.6316
15803TIP3    H168900   1.842   6.227  15.478 -1.4993 -0.1040 -0.3096
15803TIP3    H268901   1.893   6.246  15.619  1.5113  0.1262 -1.3513
15804TIP3   OH268902   1.273   5.348  12.453  0.7320 -0.0807 -0.4740
15804TIP3    H168903   1.313   5.419  12.402 -2.1203  0.5524 -2.0648
15804TIP3    H268904   1.299   5.268  12.407  0.3640  0.3038 -1.3794
15805TIP3   OH268905   4.732   2.256   6.493  0.0456 -0.4878  0.3205
15805TIP3    H168906   4.659   2.234   6.434  0.7375 -2.0264 -0.0222
15805TIP3    H268907   4.708   2.214   6.576 -0.4645  0.8495  0.8692
15806TIP3   OH268908   0.546   0.001   1.078 -0.0330  0.4535  0.3636
15806TIP3    H168909   0.604  -0.073   1.095 -0.1069  0.2730 -0.1474
15806TIP3    H268910   0.508  -0.018   0.992  0.1678  1.2234  0.0944
15807TIP3   OH268911   5.463   5.938   1.309 -0.0812 -0.1894 -0.0519
15807TIP3    H168912   5.534   5.875   1.304 -0.7521 -1.0336  0.8108
15807TIP3    H268913   5.502   6.020   1.278  0.5211 -1.2234 -2.2449
15808TIP3   OH268914   0.433   5.133   4.953 -0.4028 -0.2809 -0.5302
15808TIP3    H168915   0.474   5.201   5.008 -0.2664 -1.3272  0.6961
15808TIP3    H268916   0.498   5.116   4.885 -0.2077  0.4302 -0.5300
15809TIP3   OH268917   0.849   4.099   0.466  0.1602  0.0327  0.3211
15809TIP3    H168918   0.756   4.075   0.471  0.2700 -0.1719  1.7604
15809TIP3    H268919   0.856   4.153   0.387 -1.1513 -0.0714  0.1174
15810TIP3   OH268920   3.460   0.561   2.551 -0.1749 -0.7211  0.0485
15810TIP3    H168921   3.494   0.556   2.462  0.1209 -1.1498  0.1859
15810TIP3    H268922   3.511   0.632   2.591  1.2979 -2.0113  0.5607
15811TIP3   OH268923   2.614   3.370   1.622  0.6374  0.3413 -0.0231
15811TIP3    H168924   2.531   3.322   1.621  0.9965 -0.3036 -1.8258
15811TIP3    H268925   2.620   3.409   1.535  1.9836  0.8352  0.2718
15812TIP3   OH268926   0.666   6.409  11.389 -0.6992 -0.7163  0.7779
15812TIP3    H168927   0.669   6.438  11.298 -1.8301 -1.5733  0.4427
15812TIP3    H268928   0.645   6.488  11.439 -1.0156 -0.4268  0.1895
15813TIP3   OH268929   2.491   6.085   0.842 -0.5852 -0.4259  0.0731
15813TIP3    H168930   2.446   6.002   0.825  1.0857 -1.5210  0.7732
15813TIP3    H268931   2.433   6.131   0.903 -2.3247 -0.3049 -1.5809
15814TIP3   OH268932   6.835   1.490  16.303  0.0574  0.3281  0.6399
15814TIP3    H168933   6.905   1.496  16.367  0.3432 -0.4750  0.4183
15814TIP3    H268934   6.767   1.437  16.346  0.2929 -0.3007  0.2611
15815TIP3   OH268935   2.748   4.380   4.607 -0.3141  0.1998 -0.1878
15815TIP3    H168936   2.810   4.453   4.621  0.1946 -0.1913 -0.3626
15815TIP3    H268937   2.759   4.357   4.515  0.0342 -0.5441  0.0327
15816TIP3   OH268938   3.960   1.151  14.358  0.0069  0.7502  0.4453
15816TIP3    H168939   3.915   1.120  14.437 -1.2697  0.0599 -0.5277
15816TIP3    H268940   3.906   1.223  14.326 -0.4509 -0.1055 -0.7541
15817TIP3   OH268941   0.255   6.075  14.003 -0.4955  0.4929 -0.5305
15817TIP3    H168942   0.197   6.004  13.976 -0.3875  0.5948 -1.0429
15817TIP3    H268943   0.328   6.071  13.941 -0.1102  0.5740 -0.0965
15818TIP3   OH268944   5.930   6.028   3.387 -0.7809  0.8476 -0.1478
15818TIP3    H168945   5.958   6.032   3.296 -0.5021  0.6507 -0.0729
15818TIP3    H268946   5.906   5.937   3.402  1.8508  0.2111  0.7317
15819TIP3   OH268947   2.127   6.128  12.809 -0.7870  0.9482  0.0772
15819TIP3    H168948   2.154   6.079  12.887 -0.0235  0.4733 -0.4658
15819TIP3    H268949   2.071   6.068  12.760 -0.2810  0.7901 -0.3258
15820TIP3   OH268950   4.472   4.796  16.774 -0.1865  0.2280  0.0631
15820TIP3    H168951   4.438   4.794  16.685  0.6006  0.3644 -0.2471
15820TIP3    H268952   4.401   4.762  16.828 -0.8640  0.6470 -0.5524
15821TIP3   OH268953   5.639   6.499  15.167 -0.5972 -0.1609 -0.1404
15821TIP3    H168954   5.697   6.569  15.194  0.0443 -0.9477  0.5873
15821TIP3    H268955   5.596   6.471  15.248 -0.4568 -0.9489 -0.3303
15822TIP3   OH268956   0.472   1.847  15.538  0.0705 -0.5847 -0.0041
15822TIP3    H168957   0.425   1.772  15.501 -0.3541 -0.2536 -0.1509
15822TIP3    H268958   0.552   1.853  15.487  0.1782 -1.0325  0.1093
15823TIP3   OH268959   2.297   5.208   5.972 -0.3067  0.0035 -0.2348
15823TIP3    H168960   2.303   5.290   6.020 -0.6021  0.4545 -0.9564
15823TIP3    H268961   2.306   5.140   6.040 -3.1777  0.5737  0.8547
15824TIP3   OH268962   1.770   4.172   4.178  0.0592  0.9895 -0.8029
15824TIP3    H168963   1.825   4.251   4.175 -0.1761  1.2509  0.7370
15824TIP3    H268964   1.755   4.149   4.087  0.2820  2.6269 -1.2782
15825TIP3   OH268965   1.668   2.596  15.255  0.0094 -0.4675 -0.3696
15825TIP3    H168966   1.619   2.656  15.199  2.5867  1.2293 -0.9897
15825TIP3    H268967   1.696   2.651  15.329  0.9966 -1.3272 -0.0864
15826TIP3   OH268968   0.349   4.541   1.519 -0.2019  0.0629  0.3327
15826TIP3    H168969   0.257   4.551   1.497 -0.0154  1.4481  0.0856
15826TIP3    H268970   0.352   4.549   1.614 -0.1632  1.8082  0.2123
15827TIP3   OH268971   2.414   3.299   3.024  1.0181  0.4989 -0.0152
15827TIP3    H168972   2.332   3.277   2.980  1.7459 -1.2032 -0.6270
15827TIP3    H268973   2.418   3.240   3.099  1.7003  0.5179 -0.0244
15828TIP3   OH268974   3.348   4.190  12.890  0.0826 -0.2035  0.3118
15828TIP3    H168975   3.405   4.131  12.841  1.4126  0.9761  0.3682
15828TIP3    H268976   3.360   4.276  12.849  1.4681  0.8997  2.7550
15829TIP3   OH268977   0.005   5.632   3.530 -0.2212 -0.1530  0.1071
15829TIP3    H168978   0.026   5.725   3.514 -0.9755 -0.2056 -1.3302
15829TIP3    H268979   0.090   5.590   3.540  0.1739  0.5072 -0.3977
15830TIP3   OH268980   4.533   0.158  13.704  0.3744 -0.1569 -0.8542
15830TIP3    H168981   4.585   0.220  13.756  0.5092 -0.1767 -0.9634
15830TIP3    H268982   4.452   0.205  13.684  0.6007  0.0992 -1.1935
15831TIP3   OH268983   5.390   1.476  12.213 -0.2795 -0.0133 -0.2802
15831TIP3    H168984   5.405   1.562  12.251  0.6097  0.3808 -1.4574
15831TIP3    H268985   5.398   1.489  12.119 -2.8110 -0.8821 -0.6773
15832TIP3   OH268986   4.914   3.277   2.152 -0.2768  0.2132 -0.3804
15832TIP3    H168987   4.928   3.369   2.129  0.5773 -0.0799 -1.0973
15832TIP3    H268988   4.995   3.233   2.125 -0.7695 -0.7941 -0.2701
15833TIP3   OH268989   4.593   3.695   0.016  0.1087 -0.3052  0.2467
15833TIP3    H168990   4.554   3.719  -0.068  0.8584  0.7577  0.1772
15833TIP3    H268991   4.563   3.606   0.032 -0.8864 -0.1483 -0.6437
15834TIP3   OH268992   6.761   5.571  16.160  0.2299  0.0895 -0.3128
15834TIP3    H168993   6.755   5.558  16.254 -0.4448 -0.2675 -0.4023
15834TIP3    H268994   6.788   5.663  16.150  0.7483  0.0047  0.2259
15835TIP3   OH268995   4.880   5.656   1.556  0.1588 -0.0422 -0.6484
15835TIP3    H168996   4.822   5.647   1.631 -0.1512 -1.9770 -1.0409
15835TIP3    H268997   4.956   5.704   1.589 -0.3970 -0.0024  0.6286
15836TIP3   OH268998   3.262   1.822  10.991  0.0704 -0.0762  0.1642
15836TIP3    H168999   3.233   1.737  11.027  1.7777 -0.8121 -0.1138
15836TIP3    H269000   3.222   1.825  10.904 -1.9132  0.5105  1.0329
15837TIP3   OH269001   4.263   2.170   1.045 -0.2183 -0.4865  0.5285
15837TIP3    H169002   4.290   2.090   0.999 -2.9679 -0.1681 -1.9171
15837TIP3    H269003   4.326   2.236   1.018 -0.3408 -0.9107 -0.8942
15838TIP3   OH269004   4.153   1.575  10.772 -0.4931  0.3617  0.0958
15838TIP3    H169005   4.220   1.611  10.830 -1.3998  0.4301  1.1436
15838TIP3    H269006   4.110   1.651  10.734 -1.8687  0.4293  1.6798
15839TIP3   OH269007   1.849   2.277   3.196 -0.6598  0.2585  0.6191
15839TIP3    H169008   1.909   2.205   3.217 -0.7601  0.2204  0.7717
15839TIP3    H269009   1.767   2.253   3.238 -1.6739 -1.0837 -1.8798
15840TIP3   OH269010   2.485   6.550   2.757  0.0570  0.2176  0.1373
15840TIP3    H169011   2.433   6.615   2.804 -0.1355 -0.2526  0.5841
15840TIP3    H269012   2.564   6.597   2.730 -0.7136  1.0218 -0.8147
15841TIP3   OH269013   3.573   0.643  15.089  0.5748 -0.0650 -0.5887
15841TIP3    H169014   3.650   0.658  15.034  1.2299  0.9640  0.5442
15841TIP3    H269015   3.605   0.659  15.178 -1.0332  0.7199 -0.1182
15842TIP3   OH269016   1.658   5.595   0.966  0.1452 -0.2515  0.0988
15842TIP3    H169017   1.577   5.551   0.992 -1.0751  2.0208  0.4293
15842TIP3    H269018   1.657   5.593   0.871 -0.0365 -0.7091  0.1116
15843TIP3   OH269019   3.328   4.584   5.407  0.6914  0.1342 -0.2107
15843TIP3    H169020   3.338   4.516   5.474 -0.0366 -0.1978 -0.4179
15843TIP3    H269021   3.294   4.660   5.454  1.1534  0.2319 -0.0370
15844TIP3   OH269022   6.446   4.705   1.099 -0.3117 -0.4229  0.4923
15844TIP3    H169023   6.401   4.765   1.039 -0.3682 -1.6800 -0.7922
15844TIP3    H269024   6.436   4.619   1.058  1.5030 -1.0252  1.2273
15845TIP3   OH269025   5.163   1.758  14.534  0.0028  0.0275 -1.1072
15845TIP3    H169026   5.152   1.842  14.578 -1.7983 -0.1789 -1.0968
15845TIP3    H269027   5.155   1.693  14.604  1.0769 -0.1922 -1.1656
15846TIP3   OH269028   2.056   0.610  10.808  0.3286  0.9966  0.1696
15846TIP3    H169029   2.119   0.676  10.837  0.4956 -0.4476  3.6418
15846TIP3    H269030   2.099   0.527  10.827 -2.1987 -0.0342  1.8841
15847TIP3   OH269031   4.595   1.100  16.850  0.3660 -0.0962  0.3011
15847TIP3    H169032   4.576   1.172  16.910  0.7787  0.9499 -0.7744
15847TIP3    H269033   4.686   1.078  16.867  0.4371  0.0967  0.1789
15848TIP3   OH269034   5.468   5.488  14.350 -0.7111  0.3553 -0.7983
15848TIP3    H169035   5.501   5.577  14.347 -0.8109  0.4067 -0.3828
15848TIP3    H269036   5.381   5.495  14.389  0.2657 -0.1942  1.6611
15849TIP3   OH269037   0.814   0.414  14.987  0.2218 -0.1464  0.0442
15849TIP3    H169038   0.905   0.384  14.986  1.0565  2.0419  1.5925
15849TIP3    H269039   0.802   0.456  14.902  1.2044  0.9030  0.3979
15850TIP3   OH269040   0.319   3.908   5.844  0.0843 -0.6562  0.9284
15850TIP3    H169041   0.360   3.946   5.767  0.7219  1.1500  2.0927
15850TIP3    H269042   0.370   3.942   5.918 -0.9377 -1.7426  2.1925
15851TIP3   OH269043   4.588   6.816   4.275  0.6614  0.3504 -0.1859
15851TIP3    H169044   4.549   6.736   4.310 -1.0282  1.3873  0.4454
15851TIP3    H269045   4.677   6.817   4.309  0.4138 -0.7991  0.5421
15852TIP3   OH269046   3.211   6.442   4.745  0.0325 -0.0909  0.0283
15852TIP3    H169047   3.189   6.442   4.838 -2.8644 -2.6727 -0.5077
15852TIP3    H269048   3.155   6.509   4.706  0.2710  0.0566 -0.0688
15853TIP3   OH269049   2.317   0.814   2.654  0.1766 -0.1886  0.0531
15853TIP3    H169050   2.393   0.845   2.604 -0.9533  0.5730 -1.2585
15853TIP3    H269051   2.314   0.720   2.636  0.4243 -0.1104 -0.4120
15854TIP3   OH269052   1.623   5.923   5.746 -0.4608  0.2788 -0.9364
15854TIP3    H169053   1.612   5.831   5.719 -1.1287  0.3626 -0.9723
15854TIP3    H269054   1.645   5.969   5.665  2.2525 -0.1909 -0.5700
15855TIP3   OH269055   1.319   3.329  12.391 -0.5311 -0.1625 -0.0184
15855TIP3    H169056   1.338   3.266  12.322 -0.0006  1.0675 -1.0400
15855TIP3    H269057   1.250   3.288  12.443 -1.5813 -0.7604 -1.7935
15856TIP3   OH269058   6.713   4.307  15.916  0.0443  0.7163 -0.0942
15856TIP3    H169059   6.671   4.354  15.988  3.0348  2.0692  0.9253
15856TIP3    H269060   6.782   4.366  15.886  0.7235 -1.0107 -2.2059
15857TIP3   OH269061   4.635   4.860   4.965 -0.2381  0.0753  0.3684
15857TIP3    H169062   4.665   4.772   4.946  0.5921  0.5271 -0.5095
15857TIP3    H269063   4.541   4.850   4.984 -0.0996 -1.0111  0.5197
15858TIP3   OH269064   6.691   6.050  13.210 -0.2412  0.1290 -0.1995
15858TIP3    H169065   6.659   6.018  13.294  0.4392  0.7668  0.3138
15858TIP3    H269066   6.738   5.975  13.172 -0.5784 -0.1683 -0.0360
15859TIP3   OH269067   1.459   0.233  10.650  0.0723 -0.2191  0.1175
15859TIP3    H169068   1.395   0.194  10.710 -0.9716  0.0434 -0.7809
15859TIP3    H269069   1.507   0.158  10.614 -2.2681 -0.8487 -1.9997
15860TIP3   OH269070   3.614   2.640   0.987 -0.3637  0.0494 -0.1743
15860TIP3    H169071   3.699   2.605   0.960 -0.3010  1.2122 -1.6511
15860TIP3    H269072   3.551   2.570   0.969 -0.0785  0.1801 -1.8560
15861TIP3   OH269073   5.690   1.254  17.183  0.1169  0.0656 -0.2098
15861TIP3    H169074   5.751   1.220  17.248  0.4860 -0.4992 -0.8321
15861TIP3    H269075   5.672   1.179  17.126 -1.7179  0.0251  0.3607
15862TIP3   OH269076   4.806   2.817  14.901  0.3530 -0.4034 -0.2302
15862TIP3    H169077   4.882   2.821  14.843 -0.0916 -0.8876 -0.8617
15862TIP3    H269078   4.761   2.737  14.877 -1.3595  0.7610 -1.1373
15863TIP3   OH269079   0.247   1.398   1.338 -0.1560  0.4445 -0.0544
15863TIP3    H169080   0.192   1.320   1.348 -0.3901  0.8096  2.1472
15863TIP3    H269081   0.240   1.422   1.246 -1.4289 -1.1528 -0.4069
15864TIP3   OH269082   1.313   4.858  14.642  0.5024  0.3510  0.0544
15864TIP3    H169083   1.271   4.844  14.557  0.3124 -1.7971  0.4655
15864TIP3    H269084   1.242   4.892  14.698  0.1689  0.0289 -0.1686
15865TIP3   OH269085   1.341   0.121  15.945  0.3624 -0.2620  0.0689
15865TIP3    H169086   1.426   0.093  15.979  1.3368  0.7464 -1.4163
15865TIP3    H269087   1.326   0.067  15.868  0.0650  0.1630 -0.1770
15866TIP3   OH269088   3.956   2.965   3.329 -0.1345 -0.8096  0.5000
15866TIP3    H169089   3.980   2.999   3.242 -2.7108  1.6728  0.5950
15866TIP3    H269090   4.002   3.022   3.390 -1.6054  0.2754  0.6677
15867TIP3   OH269091   6.785   3.312   1.114 -0.4469  0.2750  0.3465
15867TIP3    H169092   6.692   3.333   1.119 -1.1150 -2.4986  3.6959
15867TIP3    H269093   6.788   3.222   1.082  0.8944 -0.2248  1.7271
15868TIP3   OH269094   4.657   2.182   4.968  0.1535 -0.2561 -0.3165
15868TIP3    H169095   4.730   2.205   4.910 -0.2010 -1.6364 -1.3495
15868TIP3    H269096   4.696   2.122   5.031 -0.1793 -1.4577 -1.2207
15869TIP3   OH269097   3.687   6.774  15.373  0.3780 -0.4670 -0.8471
15869TIP3    H169098   3.596   6.762  15.346  0.9015  0.3501 -3.3230
15869TIP3    H269099   3.685   6.850  15.431 -0.4734 -0.2181 -1.1836
15870TIP3   OH269100   5.071   2.747   1.838 -0.3741  0.3057  0.1551
15870TIP3    H169101   5.146   2.761   1.895 -1.6804 -3.2648  3.2749
15870TIP3    H269102   5.001   2.801   1.876 -0.4339  0.4240 -0.1192
15871TIP3   OH269103   3.135   3.837  15.418 -0.0095 -0.6960 -0.2968
15871TIP3    H169104   3.225   3.835  15.450 -0.4111 -1.9371  0.8746
15871TIP3    H269105   3.102   3.923  15.444  0.9005 -0.1297 -0.9735
15872TIP3   OH269106   1.289   0.430  13.608 -0.0082  0.4019 -0.6297
15872TIP3    H169107   1.355   0.391  13.666  0.1136  1.2705 -0.1613
15872TIP3    H269108   1.241   0.490  13.665  1.1747  2.5271 -1.7462
15873TIP3   OH269109   3.213   3.296   3.719  0.1657 -0.1174  0.0073
15873TIP3    H169110   3.166   3.214   3.737  0.1818 -0.2016 -0.3270
15873TIP3    H269111   3.305   3.273   3.731  0.2165 -0.3265 -0.7524
15874TIP3   OH269112   2.334   4.753  15.813 -0.2619 -0.0504  0.3008
15874TIP3    H169113   2.328   4.758  15.717  0.0776  1.9381  0.3497
15874TIP3    H269114   2.243   4.753  15.843 -0.3647 -0.4103 -0.0050
15875TIP3   OH269115   0.617   6.185   0.987  0.3725 -0.2636 -0.1560
15875TIP3    H169116   0.625   6.138   0.904  1.0846  0.9395 -0.8003
15875TIP3    H269117   0.527   6.217   0.988  0.1451 -0.8945 -0.1151
15876TIP3   OH269118   6.135   6.271   5.138 -0.7893 -0.0784 -0.0055
15876TIP3    H169119   6.188   6.229   5.070 -1.8106  0.1762 -0.9795
15876TIP3    H269120   6.045   6.244   5.119 -1.4350  2.1488 -0.4075
15877TIP3   OH269121   1.725   4.055   3.906  0.7627  0.6621 -0.2877
15877TIP3    H169122   1.782   4.039   3.832 -0.1142 -0.1067 -0.8137
15877TIP3    H269123   1.662   4.121   3.874 -0.2444 -0.4119 -0.5881
15878TIP3   OH269124   6.041   1.917  15.014 -0.4829 -0.5430  0.5902
15878TIP3    H169125   6.076   1.992  14.966 -1.7979 -0.2348  0.0710
15878TIP3    H269126   6.078   1.840  14.970  1.1247 -0.2326  1.3214
15879TIP3   OH269127   6.542   5.304   2.665 -0.0985 -0.4128 -0.0675
15879TIP3    H169128   6.539   5.398   2.686  1.0123 -0.2286 -0.6480
15879TIP3    H269129   6.470   5.290   2.604 -0.2746  0.0635  0.0283
15880TIP3   OH269130   4.194   4.894   3.767  0.0080 -0.5210  0.2551
15880TIP3    H169131   4.124   4.854   3.820  0.4555  0.3774  1.5926
15880TIP3    H269132   4.228   4.965   3.823 -0.1966  1.1922 -1.6662
15881TIP3   OH269133   3.045   6.562  10.786  0.5572 -0.0492 -0.0774
15881TIP3    H169134   3.138   6.557  10.764  0.6893  0.3637  0.3722
15881TIP3    H269135   3.027   6.655  10.796 -0.0805 -0.0776 -0.8529
15882TIP3   OH269136   5.992   6.581  16.350 -0.2132 -0.2152  0.5079
15882TIP3    H169137   5.916   6.552  16.299 -0.1093 -0.2272  0.3591
15882TIP3    H269138   6.064   6.580  16.287  0.3641 -2.2247  1.1386
15883TIP3   OH269139   3.123   6.252   0.027  0.4192 -0.1107 -0.4247
15883TIP3    H169140   3.077   6.305  -0.038  1.1588 -0.3871 -1.1968
15883TIP3    H269141   3.134   6.167  -0.016 -0.2040 -0.7130  0.5579
15884TIP3   OH269142   0.489   2.508  12.776  0.5453 -0.6165 -0.2732
15884TIP3    H169143   0.501   2.500  12.681  0.0390 -0.2519 -0.3714
15884TIP3    H269144   0.394   2.516  12.787  0.5938 -0.7841  0.2767
15885TIP3   OH269145   6.785   3.653   4.155  0.3862 -0.1782  0.2187
15885TIP3    H169146   6.850   3.607   4.207  0.9328 -0.4518 -0.6937
15885TIP3    H269147   6.704   3.603   4.167  0.3826  0.0370  1.1733
15886TIP3   OH269148   2.449   5.911   1.717 -0.2398  0.4218 -0.1337
15886TIP3    H169149   2.514   5.972   1.751 -0.1247  0.0250  0.3642
15886TIP3    H269150   2.444   5.842   1.783  2.7427 -2.3781 -2.4900
15887TIP3   OH269151   0.007   2.012   0.275  0.2354 -0.1798 -0.7606
15887TIP3    H169152  -0.008   1.929   0.320  1.6445  0.3548  0.7930
15887TIP3    H269153  -0.069   2.022   0.217 -0.2644 -2.2369 -0.5365
15888TIP3   OH269154   0.150   4.675  16.045  0.1820 -0.0042 -0.4752
15888TIP3    H169155   0.189   4.751  16.088  0.3230  0.3913 -1.2813
15888TIP3    H269156   0.215   4.605  16.056  0.8002  0.4502 -1.1667
15889TIP3   OH269157   1.903   3.284  11.795 -0.3206  0.0158  0.5691
15889TIP3    H169158   1.900   3.342  11.719  1.1002 -1.5568 -0.7672
15889TIP3    H269159   1.892   3.197  11.759  0.3636 -0.7750  2.1863
15890TIP3   OH269160   3.581   2.427   4.353  0.2090 -0.3023  0.1163
15890TIP3    H169161   3.658   2.398   4.304 -0.6249  0.9873 -2.1247
15890TIP3    H269162   3.507   2.407   4.295 -0.7313  2.3285  0.2766
15891TIP3   OH269163   5.344   2.671   3.323  0.8400  0.6185 -0.3804
15891TIP3    H169164   5.336   2.652   3.417  0.2441 -0.1715 -0.5844
15891TIP3    H269165   5.361   2.766   3.320 -0.3875  0.8921  0.4760
15892TIP3   OH269166   5.002   6.470   2.103 -0.6403  0.3630 -0.6161
15892TIP3    H169167   4.958   6.551   2.075 -0.7453  0.6047  0.2415
15892TIP3    H269168   5.095   6.489   2.097 -0.6316  1.3854  1.8835
15893TIP3   OH269169   3.453   6.798   0.709 -0.1750  0.4276 -0.3634
15893TIP3    H169170   3.456   6.869   0.644  1.1412 -0.2549 -1.0824
15893TIP3    H269171   3.427   6.721   0.659  0.7592 -0.0873 -0.0573
15894TIP3   OH269172   0.554   6.488  12.206  0.2705 -0.1443 -0.0470
15894TIP3    H169173   0.568   6.559  12.143  2.1709 -0.0361  0.4537
15894TIP3    H269174   0.601   6.414  12.169 -1.3631 -1.0854 -0.3615
15895TIP3   OH269175   1.276   1.875   5.362 -0.1628 -0.1478 -0.1345
15895TIP3    H169176   1.274   1.904   5.271  1.0680 -1.3009 -0.5633
15895TIP3    H269177   1.185   1.876   5.389 -1.0882 -3.3419 -2.5719
15896TIP3   OH269178   1.600   1.250   1.763  0.3708 -0.8705 -0.0348
15896TIP3    H169179   1.579   1.159   1.740 -0.3711 -0.9686  0.9394
15896TIP3    H269180   1.557   1.303   1.696 -0.2810 -1.2078  0.1011
15897TIP3   OH269181   3.866   1.985   4.655  0.4531  0.0575 -0.4195
15897TIP3    H169182   3.845   2.012   4.744  2.1926 -1.2461  0.4334
15897TIP3    H269183   3.783   1.994   4.607 -0.2632  1.8180  1.0256
15898TIP3   OH269184   6.653   0.427   4.890  0.7771  0.5270  1.0714
15898TIP3    H169185   6.721   0.362   4.907 -1.9418 -2.5251  1.1479
15898TIP3    H269186   6.601   0.430   4.970  0.0173  1.7815  0.5626
15899TIP3   OH269187   2.977   1.969  13.335 -0.6154 -0.0630 -0.3272
15899TIP3    H169188   3.061   1.931  13.309 -0.2846  0.0987  0.4593
15899TIP3    H269189   2.924   1.893  13.360 -1.0219 -0.2394 -1.6671
15900TIP3   OH269190   0.377   5.337  14.600 -0.0486 -0.0932 -0.3521
15900TIP3    H169191   0.414   5.356  14.685  0.6985 -0.5666 -0.5673
15900TIP3    H269192   0.404   5.247  14.580 -0.6945 -0.1964 -0.8339
15901TIP3   OH269193   1.335   6.283   4.674 -0.0976  0.9270  0.0075
15901TIP3    H169194   1.328   6.346   4.746  1.2885  0.2286  0.7869
15901TIP3    H269195   1.416   6.307   4.629  0.8231 -0.6371  0.7172
15902TIP3   OH269196   2.797   1.056   3.207  0.5748  0.1740  0.5793
15902TIP3    H169197   2.855   1.057   3.284 -1.3154 -0.3536  2.0849
15902TIP3    H269198   2.739   0.981   3.222 -0.2191  0.4149 -1.0932
15903TIP3   OH269199   3.056   0.806  13.265  0.2799 -0.6489  0.1193
15903TIP3    H169200   3.069   0.896  13.233 -1.5877  0.1953  1.5620
15903TIP3    H269201   2.988   0.770  13.208 -0.7946 -0.2297  1.1015
15904TIP3   OH269202   4.102   6.809   2.822  0.0635  0.6907 -0.0327
15904TIP3    H169203   4.100   6.722   2.782 -1.1227  0.2526  0.9155
15904TIP3    H269204   4.179   6.852   2.784  1.6676 -1.3639  0.7138
15905TIP3   OH269205   5.170   4.321   0.641  0.1463 -0.6947  0.2747
15905TIP3    H169206   5.169   4.381   0.715 -1.4922 -1.9308  1.3440
15905TIP3    H269207   5.092   4.345   0.590  0.6390 -0.5798 -0.4360
15906TIP3   OH269208   4.154   5.166   2.484 -0.0585  0.0077 -0.2382
15906TIP3    H169209   4.207   5.133   2.556 -0.8937 -0.6059  0.1087
15906TIP3    H269210   4.154   5.095   2.419  1.5141  0.9261 -1.3320
15907TIP3   OH269211   5.436   4.118  14.026  0.0473 -0.0052 -0.4790
15907TIP3    H169212   5.453   4.084  13.939  3.0776 -0.2956  0.1024
15907TIP3    H269213   5.480   4.203  14.028 -1.2328  0.6729  0.3458
15908TIP3   OH269214   5.279   0.858   2.420  0.9107  0.4482  0.0439
15908TIP3    H169215   5.336   0.814   2.484  0.7636  1.0049  0.5617
15908TIP3    H269216   5.220   0.912   2.472  0.9317  1.0853 -0.5726
15909TIP3   OH269217   6.371   4.624  14.793  0.0345  0.4539  0.0973
15909TIP3    H169218   6.320   4.663  14.864  0.2496  0.7201  0.1094
15909TIP3    H269219   6.355   4.682  14.718 -0.7072 -0.1837 -0.2525
15910TIP3   OH269220   1.194   1.188   4.587 -0.0401  0.0445 -0.5201
15910TIP3    H169221   1.107   1.149   4.589 -0.3730  0.8058  0.2497
15910TIP3    H269222   1.185   1.267   4.534  0.1866  0.1160 -0.4563
15911TIP3   OH269223   3.414   2.029  14.763 -0.2644 -0.0321 -0.0321
15911TIP3    H169224   3.429   2.086  14.687  2.2206  0.3774  0.6685
15911TIP3    H269225   3.459   2.073  14.835 -1.6537 -0.9507  1.4739
15912TIP3   OH269226   5.493   3.607  10.982  0.0311  0.3261 -0.4676
15912TIP3    H169227   5.492   3.559  10.899  0.7107  0.8410 -0.7831
15912TIP3    H269228   5.586   3.615  11.004 -0.1732 -0.8453  0.9653
15913TIP3   OH269229   5.547   2.900  17.137  0.1492  0.0791  0.1281
15913TIP3    H169230   5.581   2.811  17.130  1.8842  0.7969 -1.4295
15913TIP3    H269231   5.618   2.949  17.180 -0.0974  1.0353 -0.5262
15914TIP3   OH269232   3.041   1.977   4.360  0.0665 -0.2842  0.0627
15914TIP3    H169233   2.948   1.997   4.352  0.3308  0.8293 -0.5356
15914TIP3    H269234   3.051   1.892   4.318 -0.1994  1.0704 -3.0560
15915TIP3   OH269235   3.461   1.129   2.620  0.1557  0.0302  0.1993
15915TIP3    H169236   3.491   1.059   2.679  1.1793  1.7227  1.8060
15915TIP3    H269237   3.382   1.163   2.662 -0.3107 -0.0870 -0.5555
15916TIP3   OH269238   4.472   6.215   3.308  0.6432 -0.4342 -0.3648
15916TIP3    H169239   4.456   6.230   3.401 -0.5846  0.8225 -0.7447
15916TIP3    H269240   4.537   6.281   3.284 -1.4003  1.4412 -1.0471
15917TIP3   OH269241   1.724   5.447  16.247 -0.3177 -0.4586 -0.1030
15917TIP3    H169242   1.633   5.478  16.254  0.2456  0.8756  2.6093
15917TIP3    H269243   1.728   5.370  16.303  0.3108 -0.2253  0.1861
15918TIP3   OH269244   1.566   1.858   0.955 -0.2816  0.2204  0.1036
15918TIP3    H169245   1.588   1.854   0.862  0.2146 -1.2248  0.2503
15918TIP3    H269246   1.470   1.861   0.957 -0.3464 -0.8575 -0.4621
15919TIP3   OH269247   0.293   0.801   3.698  0.0606  0.5126 -0.2926
15919TIP3    H169248   0.233   0.727   3.702  0.0913  0.4427 -1.0473
15919TIP3    H269249   0.344   0.795   3.779 -0.8109  0.4620  0.2646
15920TIP3   OH269250   2.027   1.645  15.531 -0.3847  0.8253  0.1963
15920TIP3    H169251   1.989   1.706  15.467 -1.7318 -0.1127  0.0295
15920TIP3    H269252   1.953   1.589  15.555  0.9283 -1.1734 -0.1949
15921TIP3   OH269253   3.026   0.954   1.103  0.2231 -0.2270 -0.2290
15921TIP3    H169254   3.010   1.013   1.030  0.1839 -0.2911 -0.2732
15921TIP3    H269255   2.957   0.887   1.094 -0.0859  0.0349  0.1508
15922TIP3   OH269256   6.382   1.256   2.409 -0.0562 -0.0969  0.0856
15922TIP3    H169257   6.431   1.302   2.341  0.5212  0.8298  1.0925
15922TIP3    H269258   6.321   1.199   2.361  2.4395 -1.8401 -1.2445
15923TIP3   OH269259   3.809   6.265   5.590  0.6355  0.1167 -0.0681
15923TIP3    H169260   3.748   6.204   5.631  0.9162 -0.1739 -0.0816
15923TIP3    H269261   3.754   6.338   5.562  0.4840  0.4795  1.1191
15924TIP3   OH269262   1.684   1.998  13.715 -0.1936  0.6481  0.4390
15924TIP3    H169263   1.708   2.014  13.624 -0.0622  2.4127  0.7526
15924TIP3    H269264   1.599   1.954  13.710 -1.3630  2.8464 -0.5505
15925TIP3   OH269265   2.661   1.859  15.429 -0.0199  0.0722 -0.7184
15925TIP3    H169266   2.754   1.841  15.414 -0.8519 -2.9923 -3.1302
15925TIP3    H269267   2.637   1.799  15.500 -0.5895 -0.7515 -1.5932
15926TIP3   OH269268   6.719   4.657   1.593 -0.2259  0.1311 -0.6388
15926TIP3    H169269   6.764   4.621   1.517 -0.2831 -1.0321 -0.1483
15926TIP3    H269270   6.781   4.647   1.665 -1.0132 -0.9491 -0.0767
15927TIP3   OH269271   3.201   2.275  14.726  0.5281 -0.0048 -1.3753
15927TIP3    H169272   3.282   2.324  14.735  1.1317 -1.1814  0.1477
15927TIP3    H269273   3.191   2.230  14.810 -2.7812  1.6688 -0.6969
15928TIP3   OH269274   6.460   0.639  16.360  0.1930  0.6704  0.4563
15928TIP3    H169275   6.509   0.657  16.280  0.8565  0.3504  0.7872
15928TIP3    H269276   6.523   0.599  16.419 -0.3958  0.5099  0.9937
15929TIP3   OH269277   3.215   2.532  16.820 -0.3273 -0.4452 -0.0789
15929TIP3    H169278   3.224   2.573  16.734  0.1772  0.8012  0.5438
15929TIP3    H269279   3.287   2.567  16.872  0.8766 -3.0313  0.1925
15930TIP3   OH269280   4.076   3.471  11.403 -0.1149 -0.3489  0.4001
15930TIP3    H169281   4.142   3.438  11.342  1.5168  2.3339  0.6162
15930TIP3    H269282   3.997   3.481  11.348  0.8447  0.4204 -0.8866
15931TIP3   OH269283   3.025   0.449  14.408 -0.7517 -0.1869  0.0761
15931TIP3    H169284   3.096   0.509  14.384 -0.0331 -0.6808  0.8915
15931TIP3    H269285   2.948   0.506  14.418 -0.0772  0.6158  0.8746
15932TIP3   OH269286   4.433   2.769   0.665 -0.4643  0.7164 -0.1952
15932TIP3    H169287   4.369   2.736   0.602 -1.1502 -0.0320  0.8675
15932TIP3    H269288   4.495   2.820   0.612 -1.2429  0.4333 -1.4074
15933TIP3   OH269289   2.295   3.943   0.167  0.4856 -0.4578 -0.1405
15933TIP3    H169290   2.232   3.872   0.157  0.4972 -0.9606  2.5967
15933TIP3    H269291   2.242   4.020   0.185  0.5562 -0.4915  0.2352
15934TIP3   OH269292   6.286   5.669   1.253 -0.1904  0.5572  0.2432
15934TIP3    H169293   6.234   5.719   1.191 -1.2997 -0.5818  0.2270
15934TIP3    H269294   6.327   5.735   1.309  0.3440  1.5780 -1.2799
15935TIP3   OH269295   1.696   5.724   3.138  0.7345 -0.4835  0.2014
15935TIP3    H169296   1.735   5.782   3.071  2.0326 -0.4047  1.0017
15935TIP3    H269297   1.687   5.640   3.094  0.4589 -0.1268 -0.4419
15936TIP3   OH269298   6.075   1.190   2.806 -0.4194 -0.4541 -0.3336
15936TIP3    H169299   6.001   1.221   2.754 -0.5181 -0.0109  0.0664
15936TIP3    H269300   6.049   1.205   2.897  0.0908 -0.4422 -0.1850
15937TIP3   OH269301   5.051   5.130   0.838 -0.1567 -0.0891 -0.2475
15937TIP3    H169302   5.082   5.040   0.827 -1.6166 -0.5457 -0.8762
15937TIP3    H269303   5.123   5.174   0.883  1.0883 -1.2526 -0.9912
15938TIP3   OH269304   1.121   0.370  12.493  0.5200 -0.2817 -0.1899
15938TIP3    H169305   1.167   0.332  12.568  0.3980 -1.2933 -0.6108
15938TIP3    H269306   1.172   0.447  12.470  0.3391  0.2738  1.1684
15939TIP3   OH269307   6.388   6.139  13.973  0.8301 -0.6202  0.2200
15939TIP3    H169308   6.317   6.148  13.910  1.5837  0.7741 -0.4506
15939TIP3    H269309   6.350   6.086  14.044 -1.5937  1.8342  0.9108
15940TIP3   OH269310   3.215   6.569   3.788 -0.0626 -0.8576 -0.1260
15940TIP3    H169311   3.215   6.477   3.761 -1.2821 -1.3772  1.5042
15940TIP3    H269312   3.158   6.612   3.724 -1.9773 -1.8494  0.8256
15941TIP3   OH269313   1.330   1.247  14.874 -0.2216  0.6080 -0.0863
15941TIP3    H169314   1.320   1.266  14.780 -0.2272  0.8583 -0.0350
15941TIP3    H269315   1.268   1.306  14.917 -2.4500 -1.5265 -0.1084
15942TIP3   OH269316   2.821   2.459  16.264  0.5392  0.2995 -0.0873
15942TIP3    H169317   2.757   2.394  16.233 -0.9993  0.6404  2.0963
15942TIP3    H269318   2.844   2.429  16.352 -0.3882  2.7464  1.0861
15943TIP3   OH269319   0.520   1.928  13.186 -0.3119  0.1336  0.6238
15943TIP3    H169320   0.535   1.917  13.280  3.0542 -0.1644  0.1451
15943TIP3    H269321   0.489   2.019  13.177  0.1011  0.4200  1.9490
15944TIP3   OH269322   3.450   6.790   3.709  0.3752 -0.2211  0.4354
15944TIP3    H169323   3.447   6.823   3.620 -1.2160 -0.0711  0.5039
15944TIP3    H269324   3.456   6.695   3.699 -0.5173 -0.2551  0.1388
15945TIP3   OH269325   5.780   0.753  11.640 -0.5914  0.1267 -0.2005
15945TIP3    H169326   5.826   0.669  11.634  0.4554  0.6873 -0.3274
15945TIP3    H269327   5.817   0.794  11.718  0.9524  1.6180 -1.6185
15946TIP3   OH269328   6.806   3.442  12.258  0.3571  0.3094  0.0482
15946TIP3    H169329   6.783   3.521  12.210 -0.3131  1.1044  1.6028
15946TIP3    H269330   6.902   3.443  12.260  0.3498  1.5897  0.8154
15947TIP3   OH269331   2.676   4.861   4.003  0.3344 -0.1451 -0.6344
15947TIP3    H169332   2.626   4.900   3.931 -0.5082 -0.1194 -0.0424
15947TIP3    H269333   2.610   4.824   4.061  1.0580 -1.1843 -0.4447
15948TIP3   OH269334   0.337   5.890   3.057  0.3723 -0.2695  0.1440
15948TIP3    H169335   0.255   5.925   3.022  0.3724  1.6038  1.8771
15948TIP3    H269336   0.319   5.797   3.073 -1.2822  0.0265  0.1269
15949TIP3   OH269337   6.139   3.948  13.427  0.2995  0.1727 -0.0037
15949TIP3    H169338   6.078   3.970  13.357  0.0041  0.6158  0.3843
15949TIP3    H269339   6.180   3.867  13.398 -1.2935 -0.7730  0.2221
15950TIP3   OH269340   5.570   1.291  14.977 -0.1473  0.1263 -0.9187
15950TIP3    H169341   5.544   1.229  15.045 -2.3312  0.8325 -1.0291
15950TIP3    H269342   5.539   1.251  14.895 -2.3002  1.6409 -0.9146
15951TIP3   OH269343   2.137   4.620  12.906  0.3288 -0.4498 -0.2778
15951TIP3    H169344   2.130   4.566  12.985 -1.1487 -0.4169 -0.3563
15951TIP3    H269345   2.059   4.599  12.856 -0.0886  1.4506 -0.5069
15952TIP3   OH269346   1.221   4.277  14.323 -0.1905 -1.0287 -0.0335
15952TIP3    H169347   1.265   4.344  14.377 -0.6700 -0.4169 -0.3961
15952TIP3    H269348   1.275   4.199  14.336  0.4010 -0.5747  0.3767
15953TIP3   OH269349   0.174   5.407  13.564  0.0624  0.4095  0.4300
15953TIP3    H169350   0.135   5.490  13.593 -0.5283 -0.3613  1.9582
15953TIP3    H269351   0.205   5.366  13.645 -0.2656 -1.1625 -0.2105
15954TIP3   OH269352   4.158   3.959  11.845 -1.0389 -0.1974 -0.0890
15954TIP3    H169353   4.065   3.964  11.826 -1.3076 -2.0743  0.6082
15954TIP3    H269354   4.167   3.997  11.932 -0.7717  2.0510 -1.0112
15955TIP3   OH269355   2.515   6.353   3.229  0.1356  0.2894  0.2149
15955TIP3    H169356   2.522   6.366   3.135 -1.5998 -0.8169 -0.1149
15955TIP3    H269357   2.580   6.285   3.249  1.4996  1.5201  0.0922
15956TIP3   OH269358   4.883   0.840   3.316 -0.1518  0.0065  0.1288
15956TIP3    H169359   4.939   0.904   3.272 -0.6460  0.0327 -0.4933
15956TIP3    H269360   4.878   0.766   3.254 -0.8774  0.0528  0.1203
15957TIP3   OH269361   1.355   1.003  13.472  0.4092  0.0424 -1.2344
15957TIP3    H169362   1.285   1.005  13.407 -0.5507 -2.2818 -0.3726
15957TIP3    H269363   1.350   0.915  13.511  1.8109  0.8595  1.0162
15958TIP3   OH269364   0.120   1.796  13.150  0.1011  0.5876 -0.0124
15958TIP3    H169365   0.200   1.758  13.186 -0.6727 -1.9471 -0.7880
15958TIP3    H269366   0.151   1.860  13.086  1.5540 -0.5944 -0.5470
15959TIP3   OH269367   5.257   1.145  12.368 -0.3076  0.0508  0.2699
15959TIP3    H169368   5.185   1.091  12.402 -0.4084  1.1242  1.8516
15959TIP3    H269369   5.334   1.115  12.417 -0.3180  1.1293  0.9660
15960TIP3   OH269370   6.254   5.484   0.944 -0.1815  0.0590  0.2040
15960TIP3    H169371   6.173   5.459   0.989 -1.6069 -0.2831 -2.3504
15960TIP3    H269372   6.293   5.401   0.918  0.1622  0.2758  0.0233
15961TIP3   OH269373   4.263   4.286   4.974 -0.5720  0.3300 -0.0990
15961TIP3    H169374   4.220   4.206   4.943  1.0539 -0.6227 -0.0222
15961TIP3    H269375   4.200   4.325   5.034 -1.2260 -1.1599  0.2413
15962TIP3   OH269376   1.080   2.983   1.798  0.0092 -0.0911  0.5272
15962TIP3    H169377   0.999   2.994   1.847  0.3749  0.1251  1.0968
15962TIP3    H269378   1.057   2.926   1.725 -1.4352  2.5219 -1.2337
15963TIP3   OH269379   5.651   3.888  11.242  0.0714 -0.0047  0.4840
15963TIP3    H169380   5.722   3.939  11.203 -0.5327  0.5919  0.1338
15963TIP3    H269381   5.575   3.907  11.187 -0.3852 -0.5610  0.9057
15964TIP3   OH269382   1.615   6.017  15.870 -0.3708  0.2039 -0.8045
15964TIP3    H169383   1.698   5.971  15.881 -1.1533 -1.3660 -1.0030
15964TIP3    H269384   1.566   5.996  15.949 -1.5225 -1.1035 -1.8049
15965TIP3   OH269385   4.540   2.935   6.102 -0.1660 -0.7689 -0.1827
15965TIP3    H169386   4.502   2.925   6.015 -0.6962 -0.9193  0.0640
15965TIP3    H269387   4.635   2.934   6.087 -0.2536 -0.3648 -0.8021
15966TIP3   OH269388   2.955   4.139   4.573  0.3134  0.1394 -0.4514
15966TIP3    H169389   3.001   4.055   4.582 -0.0774 -0.2678 -1.8979
15966TIP3    H269390   2.915   4.154   4.658 -0.0596 -1.4222 -0.3195
15967TIP3   OH269391   0.138   6.246   4.088  0.0949  0.6060  0.6529
15967TIP3    H169392   0.156   6.201   4.171  2.8703 -0.5940 -0.4741
15967TIP3    H269393   0.105   6.178   4.030  2.0246  0.4566 -0.3549
15968TIP3   OH269394   6.089   1.202  13.625 -0.4968  0.2393  0.1611
15968TIP3    H169395   6.050   1.121  13.591  0.0382 -0.2461  0.6804
15968TIP3    H269396   6.131   1.175  13.706 -0.5893  1.1155  0.4994
15969TIP3   OH269397   3.257   5.014   2.325  0.0894 -0.6020 -0.2813
15969TIP3    H169398   3.192   4.987   2.260 -1.1212 -0.1426  0.6980
15969TIP3    H269399   3.325   4.947   2.320 -1.3988 -2.1947  0.0258
15970TIP3   OH269400   1.305   4.424   1.534 -0.4074  0.1370  0.1927
15970TIP3    H169401   1.351   4.436   1.617 -0.7077 -0.0324  0.3814
15970TIP3    H269402   1.256   4.505   1.522 -0.8129 -0.0651  0.4615
15971TIP3   OH269403   4.876   4.335   1.174  0.8260  0.8253 -0.0554
15971TIP3    H169404   4.854   4.422   1.206  0.6309  0.9893 -0.6192
15971TIP3    H269405   4.934   4.351   1.099  0.8094  0.4774 -0.1439
15972TIP3   OH269406   4.932   1.356  16.820  0.5454 -0.6940 -0.1072
15972TIP3    H169407   4.889   1.333  16.738 -0.9733 -0.2307  0.5288
15972TIP3    H269408   4.916   1.450  16.830 -2.0809 -1.2748  2.2279
15973TIP3   OH269409   0.974   4.702   2.262  0.7626 -0.4570 -0.0045
15973TIP3    H169410   0.935   4.688   2.175  0.4004 -0.2742  0.1284
15973TIP3    H269411   0.915   4.657   2.322  1.4014 -1.2053  0.0774
15974TIP3   OH269412   0.661   3.528  12.168 -0.0733  0.1391  0.5678
15974TIP3    H169413   0.641   3.597  12.232 -1.0492 -1.9831  2.7100
15974TIP3    H269414   0.607   3.550  12.092  0.2835  2.1509  0.8302
15975TIP3   OH269415   1.957   5.945  16.393  0.1324 -0.3286 -0.6241
15975TIP3    H169416   1.868   5.949  16.428  0.4811  0.7232  0.1827
15975TIP3    H269417   2.007   6.005  16.448  1.5298 -1.5220 -0.5268
15976TIP3   OH269418   4.453   3.417   6.271  0.1946 -0.3490 -0.7904
15976TIP3    H169419   4.505   3.482   6.317 -1.6081  1.4122 -1.0993
15976TIP3    H269420   4.481   3.333   6.308  2.0271  0.6388  0.1854
15977TIP3   OH269421   4.398   0.184   3.132  0.1782  0.2455 -0.3243
15977TIP3    H169422   4.424   0.155   3.219 -2.0996 -0.3291  0.2330
15977TIP3    H269423   4.303   0.180   3.133  0.0154  1.9894 -2.2632
15978TIP3   OH269424   2.513   5.423   6.359 -0.1962 -0.2148  0.0668
15978TIP3    H169425   2.582   5.465   6.410  2.4426 -0.7226 -2.7985
15978TIP3    H269426   2.517   5.331   6.386  0.9781 -0.4201 -0.6853
15979TIP3   OH269427   2.806   5.187  15.956 -0.2874 -0.0761  0.1312
15979TIP3    H169428   2.824   5.204  15.864 -0.0101 -0.3955  0.1258
15979TIP3    H269429   2.715   5.156  15.957 -0.8450  1.4794  0.1563
15980TIP3   OH269430   1.524   2.720  11.699 -0.4618  0.6735  0.4382
15980TIP3    H169431   1.514   2.678  11.784  1.3001  1.4415  1.0652
15980TIP3    H269432   1.616   2.745  11.694 -0.2030 -0.4178 -2.2207
15981TIP3   OH269433   3.026   3.968   5.157  0.2128  0.3632  0.2499
15981TIP3    H169434   2.955   3.903   5.150  0.3906  0.2659 -0.7267
15981TIP3    H269435   3.036   3.981   5.251 -2.0409  1.4102  0.4230
15982TIP3   OH269436   4.612   4.168  13.264  0.2995 -0.0618 -0.1182
15982TIP3    H169437   4.649   4.083  13.288  2.3696  1.2116  1.6452
15982TIP3    H269438   4.626   4.175  13.170 -0.4271 -1.8584 -0.3961
15983TIP3   OH269439   1.928   6.780  16.611 -0.3234  0.1372 -0.1049
15983TIP3    H169440   1.862   6.841  16.580 -2.2802 -1.6785  0.2519
15983TIP3    H269441   1.900   6.695  16.578 -0.0458 -1.2188  2.7901
15984TIP3   OH269442   2.939   0.505   3.543  0.0092  0.1417  0.1890
15984TIP3    H169443   2.988   0.442   3.490  0.6337 -0.5477  1.5279
15984TIP3    H269444   2.920   0.577   3.483 -0.8939 -1.3853 -1.4233
15985TIP3   OH269445   5.504   2.640   0.507 -0.0814 -0.2600  0.2503
15985TIP3    H169446   5.550   2.584   0.570  0.7484 -0.0480 -0.1474
15985TIP3    H269447   5.484   2.583   0.434  1.2005  0.0385 -0.3694
15986TIP3   OH269448   5.445   1.011  11.316  0.2723 -0.1496  0.0324
15986TIP3    H169449   5.509   0.954  11.359 -1.1066 -1.6253  0.2282
15986TIP3    H269450   5.448   1.092  11.366  1.7761 -0.2840  0.2039
15987TIP3   OH269451   6.344   5.048  13.975  0.0287 -0.1820  0.5676
15987TIP3    H169452   6.323   5.066  13.884  0.7320 -1.6011  0.1045
15987TIP3    H269453   6.303   5.120  14.024 -0.7264  0.3492 -0.8106
15988TIP3   OH269454   2.924   4.807  15.113  0.1965  0.0840 -0.3488
15988TIP3    H169455   2.992   4.840  15.171  0.0196  0.9222 -0.6125
15988TIP3    H269456   2.863   4.880  15.103 -2.0702 -1.3058  1.8070
15989TIP3   OH269457   1.257   1.522  16.424  0.1150 -0.2128 -0.0705
15989TIP3    H169458   1.340   1.564  16.445 -0.8928  2.3188 -0.8158
15989TIP3    H269459   1.233   1.559  16.339 -2.3511  0.0833  0.6800
15990TIP3   OH269460   1.942   2.888   5.345 -0.2741  0.0291 -0.2290
15990TIP3    H169461   1.851   2.875   5.319 -0.5088  1.3635 -0.1846
15990TIP3    H269462   1.977   2.950   5.281  1.1013 -1.6722 -1.1961
15991TIP3   OH269463   2.751   5.470   3.479  0.2059  0.2723  0.3766
15991TIP3    H169464   2.686   5.538   3.460  0.3716  0.5457  0.7843
15991TIP3    H269465   2.711   5.389   3.446  0.9301  0.8676 -2.1110
15992TIP3   OH269466   3.398   3.438  15.035 -0.4361 -0.6082  0.6894
15992TIP3    H169467   3.452   3.469  14.962 -1.7889  0.2891  0.0039
15992TIP3    H269468   3.458   3.388  15.091  1.3078  1.1313  0.4902
15993TIP3   OH269469   0.594   4.740  16.630  0.1564 -0.4772 -0.1436
15993TIP3    H169470   0.570   4.804  16.697  0.7346  1.3528 -1.6135
15993TIP3    H269471   0.571   4.656  16.669 -1.2979  0.6354  1.5954
15994TIP3   OH269472   2.558   4.491  16.486 -0.5809  0.0346  0.0289
15994TIP3    H169473   2.562   4.531  16.399 -1.6038 -0.9703 -0.5072
15994TIP3    H269474   2.648   4.467  16.506 -0.3793 -0.0031 -0.8921
15995TIP3   OH269475   0.223   1.314  12.771  0.1502  0.2857 -0.4172
15995TIP3    H169476   0.164   1.272  12.708 -0.6271  0.5985  0.0931
15995TIP3    H269477   0.165   1.356  12.834  0.8851  1.9290 -0.7689
15996TIP3   OH269478   2.333   4.262  13.222 -0.1227  0.2173  0.3061
15996TIP3    H169479   2.396   4.279  13.292  0.4378  0.3710 -0.2220
15996TIP3    H269480   2.368   4.185  13.177 -1.0776 -0.5682  0.8776
15997TIP3   OH269481   2.587   0.118  13.402  0.0044  0.2694  0.3665
15997TIP3    H169482   2.614   0.167  13.324 -2.3207 -0.2680 -0.8523
15997TIP3    H269483   2.657   0.053  13.415  0.1006 -0.1245 -1.7552
15998TIP3   OH269484   3.498   2.336   0.555 -0.1018 -0.9735  0.3004
15998TIP3    H169485   3.513   2.296   0.469 -1.1806 -0.2538 -0.2489
15998TIP3    H269486   3.582   2.331   0.599  0.5049 -1.2523 -0.8530
15999TIP3   OH269487   5.457   1.906  16.129 -0.2562  0.4199 -0.3840
15999TIP3    H169488   5.465   1.937  16.039 -1.4013  0.1830 -0.5889
15999TIP3    H269489   5.448   1.811  16.120 -1.2870  0.4799 -0.0960
16000TIP3   OH269490   0.279   6.608  13.457 -0.0473 -0.1057  0.5732
16000TIP3    H169491   0.343   6.663  13.502  0.7370 -1.1237  0.7507
16000TIP3    H269492   0.232   6.668  13.399 -0.1474  0.9849  1.7323
16001TIP3   OH269493   0.466   6.835  17.102 -0.1094 -0.7990 -0.1467
16001TIP3    H169494   0.414   6.835  17.182  1.2413 -1.2147  0.7675
16001TIP3    H269495   0.409   6.877  17.037 -0.7902  0.6881  1.3119
16002TIP3   OH269496   5.005   4.049   0.141  0.2726 -0.1223  0.1905
16002TIP3    H169497   4.946   4.118   0.171  0.7004  0.3583 -0.0511
16002TIP3    H269498   5.012   4.063   0.046  0.7089 -0.2178  0.2055
16003TIP3   OH269499   0.948   0.746  17.192  0.3122 -0.5023  0.6725
16003TIP3    H169500   0.969   0.777  17.280  1.6661 -0.4611  0.3578
16003TIP3    H269501   0.863   0.704  17.201  0.7875 -1.2083  2.1822
16004TIP3   OH269502   3.640   2.444   1.277 -0.1593 -0.1444  0.4576
16004TIP3    H169503   3.581   2.504   1.324 -0.4270 -0.3452  0.3772
16004TIP3    H269504   3.585   2.405   1.209 -0.5545 -2.0316  1.7882
16005TIP3   OH269505   1.960   3.717  15.426 -0.3798 -0.1418 -0.0808
16005TIP3    H169506   1.930   3.801  15.461  0.0991 -0.2975  0.7179
16005TIP3    H269507   1.993   3.739  15.338 -0.7372  0.4091 -0.0875
16006TIP3   OH269508   4.535   2.270   2.285  0.0169 -0.2359  0.1359
16006TIP3    H169509   4.539   2.181   2.318 -0.2898 -0.3261 -0.0710
16006TIP3    H269510   4.623   2.306   2.302  0.1255 -0.5596  0.2570
16007TIP3   OH269511   1.758   0.253   1.065  0.0618 -0.1203  0.5000
16007TIP3    H169512   1.851   0.257   1.088  0.1070  1.4763  0.1908
16007TIP3    H269513   1.726   0.342   1.080 -0.8175  0.0255 -1.8241
16008TIP3   OH269514   3.439   3.968   5.480 -0.3515  0.3554  0.0908
16008TIP3    H169515   3.447   4.003   5.391 -1.0828  0.7996  0.1948
16008TIP3    H269516   3.487   4.029   5.535  2.1974 -1.1902 -0.2695
16009TIP3   OH269517   0.384   5.632   2.163 -0.1101  0.2253 -0.4163
16009TIP3    H169518   0.397   5.538   2.154 -0.5806  0.2947 -2.2969
16009TIP3    H269519   0.407   5.667   2.077 -1.1099  1.6832 -0.1223
16010TIP3   OH269520   4.302   6.616  13.822  0.3326  0.4623  0.0459
16010TIP3    H169521   4.267   6.676  13.757  1.8261  0.1984 -1.0577
16010TIP3    H269522   4.279   6.529  13.790 -0.5962  0.3817  0.8984
16011TIP3   OH269523   6.355   2.067   4.616  0.0246 -0.4317  0.5004
16011TIP3    H169524   6.352   2.039   4.524  1.2555  0.7358  0.0784
16011TIP3    H269525   6.264   2.087   4.637 -0.1050  0.5635 -0.8934
16012TIP3   OH269526   6.145   2.137   6.058  0.0924 -0.3762  0.1858
16012TIP3    H169527   6.151   2.219   6.107 -2.2421 -0.9815  1.6583
16012TIP3    H269528   6.119   2.072   6.123  2.3634 -2.4615 -0.8407
16013TIP3   OH269529   1.299   5.552   2.185  0.1721 -0.4337 -0.7654
16013TIP3    H169530   1.267   5.586   2.268 -1.0216  0.1202 -1.4165
16013TIP3    H269531   1.242   5.477   2.166 -0.7760  0.5361 -1.9224
16014TIP3   OH269532   4.941   2.385  14.994  0.2513 -0.6718  0.3582
16014TIP3    H169533   4.887   2.305  15.000 -0.7864 -0.0176  0.0833
16014TIP3    H269534   4.969   2.389  14.903  0.3577 -0.7643  0.3877
16015TIP3   OH269535   5.672   5.163  11.966  0.6464 -0.1104  0.0499
16015TIP3    H169536   5.663   5.156  12.061  0.8206  0.1245  0.0837
16015TIP3    H269537   5.765   5.181  11.952  0.7924 -0.9785 -0.2120
16016TIP3   OH269538   5.310   0.886   0.070 -0.0270  1.0463 -0.3194
16016TIP3    H169539   5.347   0.904  -0.017  0.9032  2.0584  0.2604
16016TIP3    H269540   5.367   0.933   0.131 -0.6214  0.2963  0.8592
16017TIP3   OH269541   6.719   6.057  11.712  0.2479 -0.2750 -0.0662
16017TIP3    H169542   6.729   6.133  11.770 -1.5351 -0.8382  1.0661
16017TIP3    H269543   6.657   6.085  11.646  0.7549 -0.2827 -0.5550
16018TIP3   OH269544   2.116   2.893   3.523 -0.6524 -0.4259  0.4805
16018TIP3    H169545   2.122   2.800   3.499 -0.9787 -0.4843  0.6101
16018TIP3    H269546   2.073   2.934   3.448  0.2717 -0.2200  0.0524
16019TIP3   OH269547   3.473   0.477  16.521 -0.0569 -0.4865  0.8506
16019TIP3    H169548   3.458   0.571  16.508  1.2053 -0.3295  0.3880
16019TIP3    H269549   3.455   0.438  16.436  2.2306 -0.2563  0.1938
16020TIP3   OH269550   2.738   4.092   3.038  0.4588 -0.2566 -0.1104
16020TIP3    H169551   2.754   4.004   3.071 -1.2922 -0.2407  0.9002
16020TIP3    H269552   2.713   4.079   2.946  1.7938 -0.6229 -0.4494
16021TIP3   OH269553   0.781   5.266   1.547  0.2528 -0.3730  0.4631
16021TIP3    H169554   0.834   5.345   1.554 -0.0605  0.0160 -1.0726
16021TIP3    H269555   0.835   5.204   1.498  0.4005 -1.0372  1.4394
16022TIP3   OH269556   0.796   5.535  11.483 -0.3020  0.0939  0.4744
16022TIP3    H169557   0.881   5.551  11.441  0.2426 -1.0331  1.0946
16022TIP3    H269558   0.747   5.616  11.469  0.5875  0.4844 -0.5694
16023TIP3   OH269559   5.615   4.882   2.128  0.5345 -0.0667  0.6551
16023TIP3    H169560   5.561   4.961   2.122 -0.3783 -0.7955 -1.3972
16023TIP3    H269561   5.674   4.887   2.054 -0.0465 -1.6525  0.0521
16024TIP3   OH269562   4.027   1.746  11.074 -0.0829  0.0903 -0.2673
16024TIP3    H169563   4.021   1.821  11.014  0.8268  0.9008  0.6025
16024TIP3    H269564   4.112   1.707  11.054 -0.5678 -0.7330 -0.7322
16025TIP3   OH269565   0.033   1.205   1.371  0.2079 -0.1305 -0.3462
16025TIP3    H169566  -0.054   1.218   1.332  0.1530  0.7630  0.0518
16025TIP3    H269567   0.055   1.114   1.350 -0.8316 -0.3745 -0.4364
16026TIP3   OH269568   4.968   0.890  16.035 -0.0605  0.3982  0.3451
16026TIP3    H169569   4.910   0.855  16.104  1.3869  0.4340  1.6328
16026TIP3    H269570   5.031   0.944  16.082 -0.8311  2.9417 -1.3499
16027TIP3   OH269571   6.203   0.325  11.686  0.1036  0.1271 -0.0327
16027TIP3    H169572   6.274   0.262  11.692  0.3432  0.2001 -1.5885
16027TIP3    H269573   6.224   0.378  11.609 -0.8999  1.0843  0.3130
16028TIP3   OH269574   3.929   3.072   2.063 -0.2541  0.2623  0.4584
16028TIP3    H169575   3.877   3.017   2.123 -0.0674  0.4099  0.7554
16028TIP3    H269576   3.910   3.036   1.976  0.3838 -0.7047  0.7042
16029TIP3   OH269577   4.055   0.131  12.447 -0.0779  0.9713 -0.1331
16029TIP3    H169578   4.113   0.076  12.394 -1.9483 -0.2074 -1.0812
16029TIP3    H269579   4.077   0.109  12.538  0.3757 -0.1032 -0.4869
16030TIP3   OH269580   1.793   1.329   2.440  0.0217 -0.4802  0.6903
16030TIP3    H169581   1.729   1.281   2.387 -0.4820  1.4221 -0.5263
16030TIP3    H269582   1.861   1.353   2.378  0.0279  0.7413  1.1444
16031TIP3   OH269583   1.941   0.152   3.330  0.5702  0.5502 -0.0226
16031TIP3    H169584   1.955   0.145   3.236  0.2236  0.9763 -0.1101
16031TIP3    H269585   2.027   0.172   3.366  0.4173  2.1197 -0.4404
16032TIP3   OH269586   3.884   0.364  12.482  0.0643 -0.0187 -0.2555
16032TIP3    H169587   3.804   0.342  12.530 -1.7256  0.0538 -2.9705
16032TIP3    H269588   3.934   0.283  12.480  0.3371  0.0508  1.8696
16033TIP3   OH269589   3.105   6.575  13.006 -0.1169 -0.0932  0.3257
16033TIP3    H169590   3.037   6.527  13.054 -0.7133  1.6215  1.2745
16033TIP3    H269591   3.065   6.659  12.984  1.0836  0.2240 -0.7666
16034TIP3   OH269592   5.934   4.810   2.208 -0.1976 -0.2710 -0.5221
16034TIP3    H169593   6.018   4.854   2.202 -1.2443  1.5779 -3.0852
16034TIP3    H269594   5.928   4.756   2.129 -3.0848  3.0630 -2.8992
16035TIP3   OH269595   3.993   6.635  12.436  0.3015 -0.5517 -0.4897
16035TIP3    H169596   4.035   6.663  12.517  1.5989 -1.1320 -0.9482
16035TIP3    H269597   3.963   6.546  12.455 -0.9242 -0.0853 -0.1106
16036TIP3   OH269598   4.133   6.287  11.234 -0.3088  0.6694  0.2437
16036TIP3    H169599   4.129   6.248  11.321 -1.0710  2.5587  1.1073
16036TIP3    H269600   4.153   6.214  11.175 -1.3201 -0.9146  1.7995
16037TIP3   OH269601   4.340   2.982   4.035  0.5431 -0.1078  0.0102
16037TIP3    H169602   4.340   2.978   4.131 -0.9241  0.3828  0.0540
16037TIP3    H269603   4.249   2.968   4.011  0.8540  0.0727 -1.3101
16038TIP3   OH269604   3.636   4.983  14.846 -0.2056 -0.1970  0.2446
16038TIP3    H169605   3.568   4.967  14.911 -1.5891  0.2660 -1.0422
16038TIP3    H269606   3.589   5.002  14.765  1.4494  0.7844 -0.5465
16039TIP3   OH269607   3.638   2.378  16.268  0.2186 -0.6982  0.2531
16039TIP3    H169608   3.682   2.303  16.307 -1.5499 -1.2675  1.2703
16039TIP3    H269609   3.660   2.451  16.325  0.6929 -0.7432  0.1362
16040TIP3   OH269610   0.863   2.553  16.065  0.1861  0.0237 -0.7674
16040TIP3    H169611   0.794   2.486  16.061  1.4346 -1.4752  0.8350
16040TIP3    H269612   0.816   2.636  16.069 -1.4666 -0.8330 -1.2247
16041TIP3   OH269613   3.278   2.573  11.249 -0.3495 -0.5859 -0.1637
16041TIP3    H169614   3.293   2.599  11.158 -1.1736  0.6066  0.0170
16041TIP3    H269615   3.326   2.637  11.301 -1.6623  0.0814  0.2785
16042TIP3   OH269616   4.684   1.764  13.650 -0.1596 -0.1351  0.1862
16042TIP3    H169617   4.687   1.855  13.623 -0.4246 -0.8340 -2.5090
16042TIP3    H269618   4.742   1.719  13.588  0.2221 -1.7845  1.6398
16043TIP3   OH269619   0.182   2.442  16.897 -0.0515  0.2483 -0.0913
16043TIP3    H169620   0.151   2.532  16.907  0.7327  0.4509  0.5974
16043TIP3    H269621   0.115   2.389  16.940 -0.8339  0.4395 -1.0497
16044TIP3   OH269622   1.060   4.382  15.818  0.1855  0.1558  0.5086
16044TIP3    H169623   1.146   4.385  15.775  0.5116  0.3596  1.1593
16044TIP3    H269624   1.035   4.474  15.827  0.0977  0.1122  0.7119
16045TIP3   OH269625   1.782   5.102  11.867  0.1273  0.2469  0.0961
16045TIP3    H169626   1.765   5.155  11.789 -1.2660 -0.7955 -0.3620
16045TIP3    H269627   1.780   5.165  11.940  0.9805  1.1622 -0.6396
16046TIP3   OH269628   4.249   0.774  13.481  0.5925 -0.8209 -0.0867
16046TIP3    H169629   4.262   0.694  13.532 -0.4503 -0.5638  0.5977
16046TIP3    H269630   4.181   0.822  13.528 -0.3996 -0.5699 -1.7145
16047TIP3   OH269631   2.660   1.854   5.009  0.1968 -0.4187 -0.0097
16047TIP3    H169632   2.713   1.786   4.968  0.1774  0.3826 -1.4672
16047TIP3    H269633   2.625   1.905   4.935  2.1024  2.5930  0.9626
16048TIP3   OH269634   4.132   0.676  17.113 -0.4093  0.3229 -0.2212
16048TIP3    H169635   4.209   0.656  17.060 -0.7088 -1.2550 -0.1085
16048TIP3    H269636   4.102   0.591  17.145 -2.0148  0.9332 -0.0033
16049TIP3   OH269637   6.431   2.230  16.126  0.9418 -0.3565 -0.3654
16049TIP3    H169638   6.482   2.257  16.051  1.4058 -1.9331 -0.6588
16049TIP3    H269639   6.432   2.305  16.185  0.6562  0.8670 -1.8617
16050TIP3   OH269640   4.576   6.035   0.037  0.1067 -0.0286 -0.0670
16050TIP3    H169641   4.547   5.973   0.104 -0.4740  1.0527  0.7074
16050TIP3    H269642   4.516   6.020  -0.037 -1.3034  0.9353  0.8465
16051TIP3   OH269643   1.397   1.475  13.076  0.3607 -0.4615 -0.3016
16051TIP3    H169644   1.462   1.437  13.017  1.2144  0.0598  0.2876
16051TIP3    H269645   1.317   1.425  13.058  1.0541 -1.4904 -0.6444
16052TIP3   OH269646   4.786   5.631  13.134  0.2262 -0.6873  0.0292
16052TIP3    H169647   4.832   5.676  13.205 -1.6133  1.0057  0.2188
16052TIP3    H269648   4.855   5.581  13.089  1.7056 -0.5757  2.0230
16053TIP3   OH269649   4.741   6.486  14.787  0.2946 -0.7988 -0.1496
16053TIP3    H169650   4.808   6.524  14.844  1.0819 -1.8113 -0.3671
16053TIP3    H269651   4.778   6.491  14.699 -1.0444  1.0483 -0.6736
16054TIP3   OH269652   3.570   6.212  15.669 -0.0087 -0.0447  0.5060
16054TIP3    H169653   3.567   6.242  15.760 -2.1930  0.9971  0.1597
16054TIP3    H269654   3.516   6.276  15.621  0.9855 -0.6431 -1.5038
16055TIP3   OH269655   6.209   4.835  11.482 -0.3359  0.4292 -0.3863
16055TIP3    H169656   6.221   4.798  11.570 -0.3136 -0.9311 -0.9393
16055TIP3    H269657   6.299   4.849  11.450 -0.3304  0.0718 -0.5322
16056TIP3   OH269658   4.607   5.681   1.013 -0.7502  0.4700 -0.0028
16056TIP3    H169659   4.604   5.773   0.985 -0.6785  0.1640 -1.0555
16056TIP3    H269660   4.690   5.648   0.979  0.0586  0.4607  1.8751
16057TIP3   OH269661   3.782   0.118  17.071  0.2942 -0.0389 -0.0199
16057TIP3    H169662   3.702   0.103  17.121  0.1657  0.4495 -0.0701
16057TIP3    H269663   3.828   0.186  17.120  1.2317 -1.1099  0.6329
16058TIP3   OH269664   1.961   1.047   1.803 -0.3869 -0.7021 -0.0396
16058TIP3    H169665   1.911   1.109   1.857 -0.4491 -0.1809 -0.6796
16058TIP3    H269666   1.967   0.968   1.857  0.0555 -0.0092  0.9726
16059TIP3   OH269667   4.275   2.641  13.739 -0.3304  0.0821 -0.2106
16059TIP3    H169668   4.260   2.623  13.646  2.5011 -1.1345 -0.5163
16059TIP3    H269669   4.228   2.572  13.785 -1.7511  0.6896 -0.6737
16060TIP3   OH269670   4.472   1.423   1.072 -0.4272 -1.1568 -0.1715
16060TIP3    H169671   4.489   1.353   1.134 -1.2093 -1.5286 -0.3591
16060TIP3    H269672   4.450   1.378   0.990 -3.9139 -0.8595  0.4318
16061TIP3   OH269673   0.937   0.743  12.983  1.0296 -0.1348 -0.0306
16061TIP3    H169674   1.027   0.751  12.950  1.0757  0.7505  0.2852
16061TIP3    H269675   0.933   0.806  13.055  1.2507 -2.7336  2.3867
16062TIP3   OH269676   1.201   0.591  14.648 -0.0528 -0.1702  0.1427
16062TIP3    H169677   1.126   0.573  14.592 -1.1432 -1.7218  2.0095
16062TIP3    H269678   1.232   0.505  14.676  0.9520  0.5381  1.3163
16063TIP3   OH269679   4.136   3.776   5.119  0.0448 -0.1362 -0.6663
16063TIP3    H169680   4.088   3.694   5.119 -1.8371  0.6406  3.8510
16063TIP3    H269681   4.217   3.756   5.166  0.6785  0.1686 -1.5989
16064TIP3   OH269682   2.504   0.934   5.225  0.0642 -0.3651 -0.3701
16064TIP3    H169683   2.462   0.995   5.164 -2.1544 -1.7481 -0.3464
16064TIP3    H269684   2.459   0.851   5.210  1.2338 -1.3664  1.3741
16065TIP3   OH269685   0.523   1.987  11.767 -0.1271  0.0396  0.5182
16065TIP3    H169686   0.464   2.008  11.695  0.9327 -0.3227 -0.4940
16065TIP3    H269687   0.484   1.911  11.808 -0.0321 -0.6203 -0.5681
16066TIP3   OH269688   5.663   5.857   5.900 -0.0183 -0.3332 -0.1743
16066TIP3    H169689   5.622   5.779   5.863 -1.5648  0.7225 -0.8399
16066TIP3    H269690   5.686   5.910   5.823  0.4058  0.1526  0.2790
16067TIP3   OH269691   1.520   5.617   5.897  0.0195  0.1294 -0.1551
16067TIP3    H169692   1.443   5.675   5.890 -1.0568 -1.1386  0.7163
16067TIP3    H269693   1.559   5.640   5.981  1.8023  2.1209 -1.4232
16068TIP3   OH269694   1.285   2.400  12.774  0.6104 -0.1815  0.2377
16068TIP3    H169695   1.358   2.349  12.737  0.0346 -0.1632 -0.9906
16068TIP3    H269696   1.327   2.470  12.824  1.4192 -1.1371  0.9447
16069TIP3   OH269697   5.055   1.869   4.604 -0.2941 -0.1791 -0.0622
16069TIP3    H169698   5.030   1.943   4.549 -2.0401 -1.9292 -1.7532
16069TIP3    H269699   5.098   1.909   4.680  1.4314  2.4024 -2.2126
16070TIP3   OH269700   2.522   0.860   2.171  0.4138  0.2086  0.2049
16070TIP3    H169701   2.617   0.866   2.180  0.4074  1.1080 -0.2276
16070TIP3    H269702   2.496   0.794   2.234  1.1927  0.8422  1.2128
16071TIP3   OH269703   5.049   4.144  17.091 -0.0141  0.2663  0.4653
16071TIP3    H169704   4.996   4.224  17.089 -2.7941 -1.4113  1.2376
16071TIP3    H269705   5.101   4.149  17.011 -0.7803  2.3997  0.0189
16072TIP3   OH269706   2.778   5.479   3.754 -0.0983  0.1328 -0.2825
16072TIP3    H169707   2.769   5.483   3.659  0.6936 -2.9986 -0.5959
16072TIP3    H269708   2.872   5.488   3.770 -0.2435  0.8067  0.2182
16073TIP3   OH269709   2.832   3.275   2.722 -0.9096 -0.1222 -0.0528
16073TIP3    H169710   2.919   3.257   2.758 -1.4514 -0.8445  0.9363
16073TIP3    H269711   2.775   3.283   2.799 -1.6957  0.5143 -0.6783
16074TIP3   OH269712   1.449   3.516  14.538 -0.5672  0.7539  0.2255
16074TIP3    H169713   1.384   3.449  14.560  0.6688 -0.1921  1.0855
16074TIP3    H269714   1.413   3.558  14.459 -1.1871 -1.1729 -0.5882
16075TIP3   OH269715   5.607   1.627  12.823  0.1981 -0.1469  0.3473
16075TIP3    H169716   5.684   1.671  12.858 -0.9573  1.3292  1.1407
16075TIP3    H269717   5.616   1.536  12.852  1.8929 -0.1443 -0.0570
16076TIP3   OH269718   6.410   1.337  14.931  0.0866  0.0194  0.0436
16076TIP3    H169719   6.434   1.249  14.901 -0.2301 -0.2546  0.5799
16076TIP3    H269720   6.466   1.352  15.007  0.7705  0.6485 -0.5515
16077TIP3   OH269721   3.200   2.535  12.059 -0.2178 -0.6488  0.1369
16077TIP3    H169722   3.148   2.590  12.001  0.0085 -0.7221 -0.1404
16077TIP3    H269723   3.142   2.462  12.082 -0.2689 -0.6829 -0.0964
16078TIP3   OH269724   1.719   5.491  10.714  0.0123  0.3515  0.2088
16078TIP3    H169725   1.806   5.526  10.733  0.9162 -1.1009 -0.9331
16078TIP3    H269726   1.721   5.402  10.750 -0.6266 -0.0562 -0.7211
16079TIP3   OH269727   5.103   1.302  10.363 -0.6912 -0.1390  0.5341
16079TIP3    H169728   5.140   1.324  10.448  0.9486 -1.9304  0.3309
16079TIP3    H269729   5.021   1.256  10.383  0.9442 -2.9069  1.3241
16080TIP3   OH269730   3.719   0.727  13.890 -0.5896 -0.0456 -0.0342
16080TIP3    H169731   3.796   0.777  13.862  0.4466 -1.5904 -0.1076
16080TIP3    H269732   3.664   0.722  13.812 -0.4619  0.5451 -0.1632
16081TIP3   OH269733   5.623   6.002  15.412  0.1950  0.1359 -0.6353
16081TIP3    H169734   5.622   5.947  15.334 -1.3484 -1.6320  0.5490
16081TIP3    H269735   5.708   5.982  15.453  1.3698  1.6788 -2.1944
16082TIP3   OH269736   1.118   3.769  11.074 -0.3351 -0.2849  0.1000
16082TIP3    H169737   1.181   3.719  11.125  0.8899  0.1604 -0.9468
16082TIP3    H269738   1.101   3.847  11.127  2.0940  0.9312 -0.7788
16083TIP3   OH269739   5.814   6.423  12.399  0.2541  0.1892 -0.3509
16083TIP3    H169740   5.857   6.474  12.467  2.3883 -0.7921 -0.8737
16083TIP3    H269741   5.758   6.485  12.354  0.4186  1.3333  0.9527
16084TIP3   OH269742   5.985   0.508  15.369  0.5469 -0.1087 -0.1531
16084TIP3    H169743   5.920   0.516  15.438 -1.4386  0.7945 -1.9945
16084TIP3    H269744   5.972   0.420  15.333 -1.1716  0.7451 -1.8185
16085TIP3   OH269745   0.684   3.505   4.315 -0.5258 -0.4161  0.3677
16085TIP3    H169746   0.703   3.565   4.387 -0.7819  0.8846 -0.6318
16085TIP3    H269747   0.589   3.499   4.312 -0.4940 -1.3033  0.7945
16086TIP3   OH269748   5.603   0.347   4.144  0.4291 -0.1007 -0.2130
16086TIP3    H169749   5.567   0.358   4.056  0.0808 -1.2802 -0.2426
16086TIP3    H269750   5.681   0.292   4.131  1.9960  1.9819 -0.0890
16087TIP3   OH269751   5.618   5.171   0.010 -0.4091 -0.3759  0.0249
16087TIP3    H169752   5.622   5.079  -0.015  0.2019 -0.6442  1.0720
16087TIP3    H269753   5.634   5.172   0.104  2.5314  0.9935 -0.3573
16088TIP3   OH269754   5.280   6.294   3.808  0.0668 -0.5176  0.2098
16088TIP3    H169755   5.350   6.313   3.745  0.0755  0.0162  0.3796
16088TIP3    H269756   5.310   6.334   3.890 -0.7267  0.2746  0.1279
16089TIP3   OH269757   2.827   4.364   5.251 -0.2449 -0.0681 -0.2097
16089TIP3    H169758   2.834   4.336   5.342 -1.5459 -0.4733 -0.2089
16089TIP3    H269759   2.895   4.315   5.205  0.3821  0.0899  0.5190
16090TIP3   OH269760   1.388   4.017  15.434  0.4547  0.3542  0.3887
16090TIP3    H169761   1.478   4.044  15.451  1.3739 -1.3131 -1.5073
16090TIP3    H269762   1.367   3.956  15.505  1.2731 -0.2082  0.1495
16091TIP3   OH269763   3.500   4.242  17.009  0.4992  0.5298  0.4223
16091TIP3    H169764   3.500   4.334  17.035 -1.2443  1.0462 -1.1491
16091TIP3    H269765   3.407   4.221  16.995  0.9082 -1.2777  0.1263
16092TIP3   OH269766   2.254   1.734   3.510  0.0074  0.5242  0.3277
16092TIP3    H169767   2.264   1.674   3.435  0.5243 -2.6012  2.6846
16092TIP3    H269768   2.299   1.690   3.582  0.7426  4.0290  2.2363
16093TIP3   OH269769   3.562   2.985   5.373 -0.0329  0.0909  0.0509
16093TIP3    H169770   3.588   2.913   5.429  2.8796  0.9955  0.0183
16093TIP3    H269771   3.467   2.993   5.385  0.0230 -1.8510  2.2344
16094TIP3   OH269772   0.220   1.701   5.630  0.2691 -0.1374 -0.2565
16094TIP3    H169773   0.235   1.609   5.609  0.0898 -0.1192 -0.4671
16094TIP3    H269774   0.300   1.745   5.603  0.1367 -0.1502 -0.6777
16095TIP3   OH269775   1.550   2.694  10.921  0.0539  0.1960 -0.0478
16095TIP3    H169776   1.535   2.684  10.827 -0.1732  0.5114 -0.0498
16095TIP3    H269777   1.518   2.613  10.959 -1.1135  0.6052 -0.1188
16096TIP3   OH269778   4.797   1.858   2.291  0.8432 -0.1626 -0.3016
16096TIP3    H169779   4.712   1.895   2.314 -0.0616 -0.6440 -2.5890
16096TIP3    H269780   4.859   1.931   2.301 -0.2596  0.8914 -1.0070
16097TIP3   OH269781   0.394   2.782   0.873  0.4439 -0.0973 -0.7593
16097TIP3    H169782   0.440   2.860   0.842 -0.8744  0.7090 -0.7258
16097TIP3    H269783   0.334   2.814   0.940 -0.7612 -1.0042 -1.3824
16098TIP3   OH269784   5.886   3.144  16.885 -0.4790 -0.0125 -0.1771
16098TIP3    H169785   5.972   3.186  16.879  0.4759 -2.0703 -2.6466
16098TIP3    H269786   5.838   3.197  16.949  1.8291  2.5543 -0.3849
16099TIP3   OH269787   2.099   5.983  15.645  0.3305 -0.9221  0.1177
16099TIP3    H169788   2.036   6.041  15.603  1.1184 -0.4872 -0.4970
16099TIP3    H269789   2.049   5.904  15.665 -0.6561 -0.1923  0.6082
16100TIP3   OH269790   2.312   3.032  13.335  0.1052 -0.2486  0.3149
16100TIP3    H169791   2.313   3.127  13.348  1.0883 -0.2519  0.3179
16100TIP3    H269792   2.346   2.996  13.416  0.5738 -0.5563 -0.0128
16101TIP3   OH269793   0.886   0.711   6.538 -0.0257  0.4063 -0.7053
16101TIP3    H169794   0.920   0.800   6.550 -2.7225  1.4409  0.1707
16101TIP3    H269795   0.891   0.671   6.625  0.6354 -0.0908 -0.9693
16102TIP3   OH269796   4.917   0.331  15.703  0.1537 -0.3799  0.2795
16102TIP3    H169797   4.871   0.394  15.647  1.5754  0.7655  0.3550
16102TIP3    H269798   4.847   0.289  15.753 -0.9097  0.5000 -0.4180
16103TIP3   OH269799   0.136   5.456   0.981 -0.0177 -0.5499  0.0988
16103TIP3    H169800   0.122   5.532   1.037 -1.4178 -0.8290  0.1733
16103TIP3    H269801   0.117   5.488   0.892 -2.5942 -1.2372  0.3335
16104TIP3   OH269802   1.703   6.159   2.048  0.2362  0.3639  0.3655
16104TIP3    H169803   1.643   6.150   1.974 -0.7950  0.4077  1.1679
16104TIP3    H269804   1.790   6.146   2.010 -0.1990  1.2277 -0.9950
16105TIP3   OH269805   1.499   3.643  13.373 -0.5746 -0.0456 -0.6495
16105TIP3    H169806   1.440   3.668  13.443  0.5487  2.1201 -0.4053
16105TIP3    H269807   1.587   3.649  13.412 -0.0599 -1.6077 -1.4556
16106TIP3   OH269808   5.849   1.323  14.977 -0.3008 -0.0429  0.5449
16106TIP3    H169809   5.906   1.378  15.031  1.6447 -1.3992 -0.0329
16106TIP3    H269810   5.760   1.350  15.001  0.5384  3.0551  0.5354
16107TIP3   OH269811   1.283   4.774   5.341  0.1592  0.0256 -0.0112
16107TIP3    H169812   1.230   4.849   5.312  0.1330 -0.2686 -0.7704
16107TIP3    H269813   1.373   4.807   5.343  0.1437  0.0935 -0.3111
16108TIP3   OH269814   0.759   6.041   2.265 -0.3792  0.2788  0.0988
16108TIP3    H169815   0.847   6.048   2.230  0.3746  0.1090  1.8678
16108TIP3    H269816   0.770   6.048   2.360 -2.0283 -1.6894  0.5113
16109TIP3   OH269817   0.453   5.807  16.567  0.4876  0.3164 -0.4157
16109TIP3    H169818   0.434   5.765  16.651 -1.6643  1.4708 -0.2701
16109TIP3    H269819   0.374   5.856  16.546  0.9788  0.0610 -3.1502
16110TIP3   OH269820   2.535   5.476   1.828  0.3989  0.1934 -0.4506
16110TIP3    H169821   2.614   5.520   1.798 -0.1902  0.3570 -1.8369
16110TIP3    H269822   2.549   5.463   1.922  1.2888  1.8505 -0.3120
16111TIP3   OH269823   2.017   1.751  13.789  0.1019  0.1289 -0.0341
16111TIP3    H169824   1.967   1.713  13.716  2.0867 -1.4844 -0.6380
16111TIP3    H269825   2.029   1.679  13.850  0.7681  0.7833  0.6300
16112TIP3   OH269826   3.049   2.270  11.623  0.1683  0.3132 -0.5394
16112TIP3    H169827   3.114   2.284  11.554 -2.2763  1.6292 -2.7427
16112TIP3    H269828   3.009   2.186  11.601  0.7615 -0.2714  0.5442
16113TIP3   OH269829   6.603   3.620   5.617  0.2353 -1.2029  0.1278
16113TIP3    H169830   6.624   3.527   5.613  0.9475 -1.0823  0.7947
16113TIP3    H269831   6.616   3.643   5.709  0.6226 -0.3169 -0.1375
16114TIP3   OH269832   2.278   0.068  11.658  0.9609  1.2144 -0.6453
16114TIP3    H169833   2.300   0.121  11.581 -1.2939  2.4554 -0.5259
16114TIP3    H269834   2.215   0.122  11.707 -0.5672 -1.1109  0.1048
16115TIP3   OH269835   4.757   5.373  12.252 -0.3917  0.1488 -0.1156
16115TIP3    H169836   4.732   5.415  12.170 -1.3033  0.7079  0.4310
16115TIP3    H269837   4.847   5.343  12.237 -0.2748  0.9146 -1.0544
16116TIP3   OH269838   2.956   1.829   5.069 -0.4254 -0.2060  0.3313
16116TIP3    H169839   3.023   1.762   5.061 -0.1520 -0.0437  1.1430
16116TIP3    H269840   2.876   1.780   5.090 -0.2041 -0.2774  1.0321
16117TIP3   OH269841   4.273   1.871  16.897 -0.3782 -0.0638  0.2295
16117TIP3    H169842   4.294   1.861  16.990  2.2258 -1.9729 -0.4254
16117TIP3    H269843   4.356   1.898  16.856 -0.3749 -2.7959 -1.9419
16118TIP3   OH269844   5.061   3.673   3.554  0.0781 -0.2653  0.3352
16118TIP3    H169845   4.982   3.621   3.570 -0.5886  0.9273  1.0189
16118TIP3    H269846   5.126   3.636   3.614 -0.3178 -0.4512  0.6575
16119TIP3   OH269847   3.990   6.220  14.041 -0.0837 -0.6338 -0.1365
16119TIP3    H169848   3.972   6.215  14.135  0.5958  2.0451  0.2092
16119TIP3    H269849   3.927   6.159  14.001 -2.9126  0.8178  1.7825
16120TIP3   OH269850   2.013   4.767   1.598  0.5145 -0.1218  0.4810
16120TIP3    H169851   1.952   4.777   1.524  0.6141 -1.0524  0.2637
16120TIP3    H269852   1.985   4.686   1.641  0.5970  0.2995  1.3440
16121TIP3   OH269853   2.629   4.951  16.768 -0.0958 -0.0299  0.2148
16121TIP3    H169854   2.657   4.966  16.859 -1.3246  1.5938  0.3805
16121TIP3    H269855   2.651   5.032  16.723  3.2275 -1.8195 -1.7658
16122TIP3   OH269856   0.837   0.893  13.753  0.4769 -0.0924  0.4893
16122TIP3    H169857   0.919   0.899  13.705  0.1053 -0.7768 -0.2448
16122TIP3    H269858   0.820   0.799  13.760 -0.9348  0.0437 -0.5904
16123TIP3   OH269859   4.102   5.684   0.770 -0.2530  0.6040 -0.2440
16123TIP3    H169860   4.090   5.756   0.708 -0.8944  0.2482 -0.5373
16123TIP3    H269861   4.061   5.715   0.851 -0.4586  0.5973 -0.3463
16124TIP3   OH269862   2.943   1.057   3.447  0.1643 -0.5662  0.1334
16124TIP3    H169863   2.926   1.019   3.534 -1.3851 -0.9704 -0.3230
16124TIP3    H269864   2.996   1.134   3.465  0.6648 -1.1615  1.3599
16125TIP3   OH269865   6.327   1.912   1.654 -0.3375 -0.4293 -0.5626
16125TIP3    H169866   6.366   2.000   1.656 -0.3118 -0.4551  0.8265
16125TIP3    H269867   6.401   1.853   1.661 -0.5224 -0.4860  1.5652
16126TIP3   OH269868   4.720   3.451  12.719 -0.3611 -0.4429 -0.5224
16126TIP3    H169869   4.809   3.479  12.737 -0.9341  1.7502 -0.7378
16126TIP3    H269870   4.690   3.509  12.649 -1.9116 -1.2031 -0.5429
16127TIP3   OH269871   4.699   2.810   4.095 -0.1119  0.9789  0.7311
16127TIP3    H169872   4.750   2.815   4.176  0.4602  3.7174  0.3062
16127TIP3    H269873   4.755   2.762   4.035 -0.0659 -0.1110  1.6110
16128TIP3   OH269874   3.295   4.506   4.712 -0.3049 -0.3083 -0.5090
16128TIP3    H169875   3.300   4.587   4.662  0.4879  0.0743  0.1601
16128TIP3    H269876   3.287   4.534   4.803  1.8041 -0.9255 -0.0700
16129TIP3   OH269877   3.697   4.259  14.616  0.5460  0.1866  0.3768
16129TIP3    H169878   3.629   4.303  14.566 -0.3806 -1.5343  0.0484
16129TIP3    H269879   3.666   4.263  14.707  0.7782  0.7507  0.4334
16130TIP3   OH269880   6.544   2.820  10.867  0.6491 -0.1377 -0.2975
16130TIP3    H169881   6.540   2.725  10.861 -1.3313 -0.0153 -2.3073
16130TIP3    H269882   6.455   2.849  10.846  0.9671  2.1514  1.1564
16131TIP3   OH269883   5.870   0.935   4.846 -0.0175  0.3519 -0.0710
16131TIP3    H169884   5.905   0.862   4.796 -1.6735 -0.1234 -0.5995
16131TIP3    H269885   5.798   0.898   4.897 -1.1437  1.6634 -0.6383
16132TIP3   OH269886   4.609   3.476   5.047 -0.7142 -0.0824  0.0019
16132TIP3    H169887   4.665   3.433   4.983  0.2903  0.6134  0.3895
16132TIP3    H269888   4.659   3.474   5.128 -0.0465  2.8310 -0.2090
16133TIP3   OH269889   2.160   6.028  11.794  0.0863  0.4727 -0.0974
16133TIP3    H169890   2.224   5.972  11.839 -1.0594 -0.9676 -0.2022
16133TIP3    H269891   2.203   6.114  11.790  2.4456 -0.6662 -1.1039
16134TIP3   OH269892   5.864   6.045  12.133  0.2923 -0.4409  0.4694
16134TIP3    H169893   5.913   6.112  12.180  0.2223  0.9421 -1.3425
16134TIP3    H269894   5.924   5.970  12.129  0.3634 -0.5470  2.5182
16135TIP3   OH269895   6.331   5.819   4.103  0.1274 -0.0272  0.5518
16135TIP3    H169896   6.269   5.749   4.123 -0.2177  0.3135  0.6828
16135TIP3    H269897   6.412   5.774   4.080  0.1354 -0.4519  1.3985
16136TIP3   OH269898   3.764   5.891   5.844  0.2077  0.3378 -0.2568
16136TIP3    H169899   3.802   5.823   5.788 -2.7296 -0.8218 -1.0296
16136TIP3    H269900   3.729   5.956   5.784 -1.1148  0.1427  0.2684
16137TIP3   OH269901   3.675   3.028  12.441 -0.3738  0.2095  0.4438
16137TIP3    H169902   3.622   2.989  12.371 -1.4651 -1.6648  2.2188
16137TIP3    H269903   3.744   2.963  12.458  0.3377  0.9926  0.6238
16138TIP3   OH269904   6.438   3.701   3.363  0.4986  0.6476 -0.4268
16138TIP3    H169905   6.489   3.709   3.282  0.1734  2.3199 -0.5003
16138TIP3    H269906   6.503   3.682   3.431  0.6334 -2.1647 -1.2378
16139TIP3   OH269907   0.741   0.528  14.749 -0.3689 -0.5738  0.8025
16139TIP3    H169908   0.713   0.608  14.794  0.2846  0.5175 -0.6372
16139TIP3    H269909   0.668   0.508  14.690  0.5472  0.5701 -0.8029
16140TIP3   OH269910   3.610   1.499   1.449  0.3253  0.3135 -0.5330
16140TIP3    H169911   3.534   1.448   1.477 -0.2812  1.0937 -0.6923
16140TIP3    H269912   3.671   1.435   1.414 -0.0920 -0.3775 -0.0340
16141TIP3   OH269913   0.068   1.205  14.206  0.1791  0.3119  0.5383
16141TIP3    H169914   0.019   1.124  14.195 -0.6918  0.8805  0.0953
16141TIP3    H269915   0.078   1.215  14.300  0.3948 -0.3705  0.5893
16142TIP3   OH269916   2.197   0.992  15.499 -0.5238  0.0254  0.1388
16142TIP3    H169917   2.180   0.900  15.520  0.9200 -0.1782  0.5329
16142TIP3    H269918   2.174   1.040  15.579  0.8754 -0.2721  0.7537
16143TIP3   OH269919   2.788   4.798  15.664 -0.5648 -0.8295 -0.0846
16143TIP3    H169920   2.820   4.714  15.696  0.8425 -0.4016 -0.2944
16143TIP3    H269921   2.719   4.822  15.726  1.4250 -0.4774  2.1720
16144TIP3   OH269922   4.481   0.950   3.381  0.1696  0.3514 -0.4277
16144TIP3    H169923   4.523   0.969   3.297  0.0780  0.5471 -0.4310
16144TIP3    H269924   4.551   0.958   3.445  0.5386 -1.0871 -0.6135
16145TIP3   OH269925   3.298   0.795  17.178  0.1271 -0.5224  0.3764
16145TIP3    H169926   3.368   0.829  17.122 -1.0945  1.7480  0.1211
16145TIP3    H269927   3.315   0.834  17.264 -0.8537  0.1177  0.2913
16146TIP3   OH269928   3.400   3.773   4.905 -0.2051  0.1374  0.5336
16146TIP3    H169929   3.333   3.720   4.860  0.1271  0.4112 -0.2961
16146TIP3    H269930   3.361   3.860   4.912 -0.3800  0.0192  1.0644
16147TIP3   OH269931   0.319   4.998  10.777 -0.4974 -0.8629  0.6387
16147TIP3    H169932   0.317   4.976  10.684 -1.3186 -0.3775  0.5303
16147TIP3    H269933   0.320   4.914  10.822  0.9849 -1.1156  0.1982
16148TIP3   OH269934   4.596   1.411  12.190  0.2654 -0.1046  0.1134
16148TIP3    H169935   4.583   1.404  12.284 -0.5966  1.2595  0.1316
16148TIP3    H269936   4.538   1.344  12.153 -1.2649  0.9436  0.5018
16149TIP3   OH269937   0.924   6.402   4.900 -0.1756  0.0082 -0.2571
16149TIP3    H169938   0.992   6.460   4.865 -0.1456  0.4562  0.5304
16149TIP3    H269939   0.926   6.417   4.994  0.0560 -1.5113  0.0071
16150TIP3   OH269940   3.586   4.706   5.439  0.2848 -0.1798  0.2594
16150TIP3    H169941   3.528   4.637   5.408  1.4843 -0.2112 -2.1471
16150TIP3    H269942   3.528   4.780   5.456 -0.6117 -0.5523 -1.0122
16151TIP3   OH269943   3.677   6.718   0.871 -0.2997 -0.1616  0.5706
16151TIP3    H169944   3.709   6.796   0.918  1.1717 -0.3688 -0.0430
16151TIP3    H269945   3.614   6.753   0.808  0.5082  0.5744  0.1464
16152TIP3   OH269946   6.192   1.574   5.587 -0.4682  0.0945  0.7066
16152TIP3    H169947   6.233   1.488   5.585  1.2840  0.8908  0.3223
16152TIP3    H269948   6.101   1.557   5.612 -1.2026 -2.2487 -2.8266
16153TIP3   OH269949   5.911   6.802   5.273  0.4186  0.2677 -0.6557
16153TIP3    H169950   5.994   6.760   5.298 -0.8612 -1.5781  0.8904
16153TIP3    H269951   5.883   6.755   5.195  0.2788  0.0496 -0.4782
16154TIP3   OH269952   3.450   4.608  13.102  0.3893  0.1675 -0.1099
16154TIP3    H169953   3.405   4.567  13.028  1.1035  3.5215 -2.6484
16154TIP3    H269954   3.543   4.601  13.079  0.6805  0.4297  0.9607
16155TIP3   OH269955   3.096   3.847  14.990 -0.0499 -0.5447  0.7207
16155TIP3    H169956   3.168   3.896  15.030  1.1899 -2.1280  0.5235
16155TIP3    H269957   3.079   3.893  14.908 -1.3399  1.6109  2.1078
16156TIP3   OH269958   4.674   1.755  16.332 -0.2790 -0.0712  0.1848
16156TIP3    H169959   4.681   1.659  16.330  1.2655  0.0247 -1.6583
16156TIP3    H269960   4.719   1.780  16.413 -3.0767 -0.9426  2.2057
16157TIP3   OH269961   4.087   3.234   5.675  0.2831 -0.3545 -0.1863
16157TIP3    H169962   4.102   3.145   5.644  1.1780  0.0444 -0.9176
16157TIP3    H269963   4.171   3.263   5.709  0.7326  1.1197 -2.3355
16158TIP3   OH269964   6.314   4.373  14.201 -0.2275 -0.0664  0.0657
16158TIP3    H169965   6.331   4.291  14.153 -1.3074 -1.3266  1.7234
16158TIP3    H269966   6.239   4.412  14.157  1.6313  1.2728 -2.1334
16159TIP3   OH269967   3.545   5.288   6.180 -0.3285  0.4804 -0.2012
16159TIP3    H169968   3.528   5.378   6.207 -0.0710  0.0467  1.4779
16159TIP3    H269969   3.474   5.236   6.218  0.1337 -0.1731 -0.1928
16160TIP3   OH269970   0.338   1.273  13.060 -0.1893  0.2471  0.6686
16160TIP3    H169971   0.360   1.337  12.993 -0.0064 -0.0511  0.4404
16160TIP3    H269972   0.419   1.224  13.074 -0.6310 -0.7099 -0.0112
16161TIP3   OH269973   2.330   5.491   5.734 -0.5874  0.0094  0.6873
16161TIP3    H169974   2.237   5.471   5.725 -0.5800  0.8961 -2.8682
16161TIP3    H269975   2.368   5.463   5.651  2.0526  1.0990  1.4416
16162TIP3   OH269976   2.565   5.196   5.881  0.4021 -0.4037 -0.4325
16162TIP3    H169977   2.472   5.190   5.906  0.2048 -0.4504 -1.1681
16162TIP3    H269978   2.592   5.105   5.868  0.0126 -0.2973 -2.1441
16163TIP3   OH269979   1.260   0.596  15.927  1.0363  0.2021  0.1204
16163TIP3    H169980   1.343   0.571  15.969  0.5615 -1.2945  0.2024
16163TIP3    H269981   1.245   0.528  15.861  0.0833  0.7011 -0.1929
16164TIP3   OH269982   4.924   1.919   4.889 -0.1926 -0.4310 -0.4847
16164TIP3    H169983   4.934   2.001   4.841  0.2608 -0.3983 -0.3469
16164TIP3    H269984   5.014   1.886   4.898 -0.5024 -1.8145 -2.0558
16165TIP3   OH269985   4.472   5.734   2.581  0.0845  0.3917 -0.1809
16165TIP3    H169986   4.399   5.734   2.643  0.1585  0.0675 -0.0912
16165TIP3    H269987   4.458   5.657   2.527  1.2509 -0.6293  0.9077
16166TIP3   OH269988   4.721   0.777   0.968  0.2074 -0.3462  0.1908
16166TIP3    H169989   4.671   0.713   0.916  1.0225 -0.5182 -0.3983
16166TIP3    H269990   4.810   0.742   0.971  0.6506  0.7190 -0.0852
16167TIP3   OH269991   3.455   5.269  13.702  0.1752  0.3142 -0.4054
16167TIP3    H169992   3.413   5.355  13.702 -1.7159 -0.5218 -2.0179
16167TIP3    H269993   3.415   5.223  13.628  0.3117 -2.3136  1.0209
16168TIP3   OH269994   5.411   3.968   4.264  0.2809  0.0060 -0.0498
16168TIP3    H169995   5.395   4.025   4.340  2.2931  1.1314 -0.3861
16168TIP3    H269996   5.476   3.905   4.295 -0.6389 -1.0330 -0.1948
16169TIP3   OH269997   5.063   4.859  12.849 -0.0896  0.2044  0.1728
16169TIP3    H169998   4.975   4.892  12.868 -0.8712 -0.8915 -1.4040
16169TIP3    H269999   5.056   4.819  12.763  1.8719 -0.2776  0.1920
16170TIP3   OH270000   4.722   4.429   0.298 -0.2823  0.2165  0.4783
16170TIP3    H170001   4.712   4.492   0.370  1.7214  1.2480 -0.0859
16170TIP3    H270002   4.666   4.464   0.229  2.2846  2.6887 -0.5812
16171TIP3   OH270003   0.575   3.385   1.415  0.4434 -0.3363 -0.3904
16171TIP3    H170004   0.648   3.330   1.387  0.1226 -1.0471  0.1385
16171TIP3    H270005   0.566   3.450   1.345 -0.6696 -2.3771 -2.2638
16172TIP3   OH270006   1.405   1.721  13.215 -0.1917  0.5509 -0.7006
16172TIP3    H170007   1.465   1.766  13.155 -1.4293  0.9399 -1.6752
16172TIP3    H270008   1.400   1.631  13.181  0.4351  0.2863 -0.1374
16173TIP3   OH270009   5.287   6.500  15.454  0.0441  0.1476  0.0210
16173TIP3    H170010   5.375   6.537  15.457  0.7197 -1.4522  1.1608
16173TIP3    H270011   5.230   6.573  15.480  0.9433  1.3353 -1.1680
16174TIP3   OH270012   4.622   3.260   3.827  0.0230 -0.3909  0.4996
16174TIP3    H170013   4.595   3.278   3.736 -1.4839 -1.9384  0.5824
16174TIP3    H270014   4.608   3.166   3.837 -0.0772 -0.1985  2.4225
16175TIP3   OH270015   1.269   1.831  13.450  0.2850 -0.1198  0.2766
16175TIP3    H170016   1.303   1.766  13.389 -0.8507 -0.6379  0.1649
16175TIP3    H270017   1.174   1.826  13.441  0.1618  2.0375 -0.2306
16176TIP3   OH270018   6.309   3.464   0.209 -0.1848 -0.3194  0.4739
16176TIP3    H170019   6.329   3.540   0.154  1.3911  0.1333  1.5956
16176TIP3    H270020   6.248   3.497   0.274  1.3648  0.3678  1.6613
16177TIP3   OH270021   4.900   3.586  11.694 -0.8827  0.3516  0.4882
16177TIP3    H170022   4.873   3.658  11.637  0.2908 -0.2361 -0.8607
16177TIP3    H270023   4.989   3.608  11.721 -1.1899  0.3034  1.6183
16178TIP3   OH270024   3.015   1.851  11.302 -0.1128  0.2709 -0.0978
16178TIP3    H170025   3.004   1.907  11.225  1.1187  1.3447  0.4557
16178TIP3    H270026   3.108   1.861  11.325  0.5219 -3.0599 -0.7380
16179TIP3   OH270027   5.287   0.416  15.026  0.2231 -0.4319 -0.3165
16179TIP3    H170028   5.223   0.377  15.086 -1.0614  1.2575 -0.5026
16179TIP3    H270029   5.298   0.351  14.956  1.2471 -2.1471  1.3538
16180TIP3   OH270030   0.401   2.769   1.993 -0.2663  0.3285 -0.4518
16180TIP3    H170031   0.419   2.675   2.000 -0.6331  0.3592  2.0857
16180TIP3    H270032   0.305   2.774   1.996 -0.2365  0.7762 -0.1933
16181TIP3   OH270033   6.045   5.645  15.494 -0.1047  0.1563  0.9986
16181TIP3    H170034   6.081   5.655  15.406 -1.8572  1.0667  0.3523
16181TIP3    H270035   6.072   5.724  15.540  0.5233 -0.1663  1.2092
16182TIP3   OH270036   1.449   0.982   6.009 -0.3998  0.5715  0.0594
16182TIP3    H170037   1.529   0.931   6.021 -0.3205 -0.2876 -3.2061
16182TIP3    H270038   1.397   0.963   6.087  0.3740 -3.1611 -0.1386
16183TIP3   OH270039   5.766   3.800   6.585 -0.9483  0.6170  0.2795
16183TIP3    H170040   5.707   3.842   6.523 -0.9590  0.1099 -0.0569
16183TIP3    H270041   5.757   3.851   6.666 -3.2234 -0.5236  0.8142
16184TIP3   OH270042   4.030   4.570  13.052  0.1521  0.3110 -0.2281
16184TIP3    H170043   4.000   4.651  13.092 -1.5414 -0.6045  0.4541
16184TIP3    H270044   4.049   4.512  13.126  2.9110  0.5489 -0.6441
16185TIP3   OH270045   3.238   1.865   2.216 -0.0664 -0.7047 -0.0151
16185TIP3    H170046   3.148   1.835   2.203 -0.1173 -1.1475  1.2128
16185TIP3    H270047   3.229   1.961   2.223 -0.6915 -0.8513  1.6993
16186TIP3   OH270048   2.707   3.208   4.993  0.2675  0.5517 -0.5109
16186TIP3    H170049   2.671   3.209   5.082  0.6960 -0.2539 -0.3170
16186TIP3    H270050   2.673   3.126   4.955  2.2470 -0.4784 -0.1640
16187TIP3   OH270051   5.554   6.601   0.164  0.2852  0.6274  0.0858
16187TIP3    H170052   5.562   6.507   0.184 -0.0265  0.5833  0.0149
16187TIP3    H270053   5.471   6.608   0.116 -0.6582  1.2091  1.7401
16188TIP3   OH270054   0.271   4.976   4.643 -0.9730  0.2850 -0.2039
16188TIP3    H170055   0.289   5.024   4.723  0.0090  2.1412 -1.4562
16188TIP3    H270056   0.354   4.936   4.619 -1.2436 -0.2153 -0.3174
16189TIP3   OH270057   0.764   4.250  12.624 -0.2902  0.1790  0.5475
16189TIP3    H170058   0.825   4.236  12.696  0.4734 -2.5283 -0.4907
16189TIP3    H270059   0.751   4.163  12.587 -1.0888  1.3751 -2.2349
16190TIP3   OH270060   0.950   2.378  16.855  0.1764 -0.1014 -0.3753
16190TIP3    H170061   0.899   2.301  16.880  1.8340 -1.0313  0.3454
16190TIP3    H270062   0.988   2.410  16.938  2.4243 -0.7401 -1.0727
16191TIP3   OH270063   2.468   1.883  14.670 -0.0089  0.4285 -0.0379
16191TIP3    H170064   2.474   1.917  14.581 -2.4175  2.9420  0.6151
16191TIP3    H270065   2.548   1.914  14.714  1.2809 -0.9855 -1.2777
16192TIP3   OH270066   3.380   4.800   2.076  0.0845 -0.0522  0.1682
16192TIP3    H170067   3.360   4.719   2.123 -0.0163 -0.8793 -1.2644
16192TIP3    H270068   3.476   4.803   2.072  0.0710 -1.1536 -1.5191
16193TIP3   OH270069   1.759   1.596   2.865 -0.5626  0.3783  0.5535
16193TIP3    H170070   1.708   1.672   2.893  1.2948  0.6919  3.5219
16193TIP3    H270071   1.694   1.527   2.849 -2.0330  1.3553  2.0930
16194TIP3   OH270072   3.266   2.894  14.829  0.1971 -0.0509  0.1563
16194TIP3    H170073   3.302   2.818  14.873  0.5211 -1.4984 -2.4295
16194TIP3    H270074   3.177   2.868  14.805  0.1746  0.5286 -0.4090
16195TIP3   OH270075   4.209   5.199  12.325 -0.4431 -0.1895 -0.2561
16195TIP3    H170076   4.196   5.154  12.409 -0.1995  1.9045  0.9682
16195TIP3    H270077   4.213   5.292  12.348 -1.2494  0.5276 -2.7050
16196TIP3   OH270078   3.771   0.009  16.089  0.9929 -0.8320  0.0028
16196TIP3    H170079   3.768  -0.007  16.184 -0.2568 -1.7045 -0.1579
16196TIP3    H270080   3.863  -0.002  16.066  1.7384  1.4954  1.4231
16197TIP3   OH270081   5.055   1.946   3.085 -0.0400  0.1309 -0.0493
16197TIP3    H170082   5.085   2.032   3.114 -0.8837 -0.0084  1.3422
16197TIP3    H270083   5.067   1.890   3.162 -0.8757 -0.6478 -0.4708
16198TIP3   OH270084   3.809   0.357   2.299  0.4934 -0.4076 -0.1741
16198TIP3    H170085   3.893   0.379   2.339  1.5068 -2.6870 -0.8549
16198TIP3    H270086   3.765   0.303   2.364 -0.5785  0.9339  0.2553
16199TIP3   OH270087   1.386   5.782   5.568  0.6167 -0.8797  0.6951
16199TIP3    H170088   1.423   5.752   5.485 -0.6815 -4.4140  1.2302
16199TIP3    H270089   1.402   5.877   5.568  0.0744 -0.5479 -3.8860
16200TIP3   OH270090   2.976   3.398  16.015 -0.2403 -0.4577  0.6461
16200TIP3    H170091   2.889   3.357  16.022 -0.5339  0.3831  2.5446
16200TIP3    H270092   2.975   3.468  16.080  1.0264  1.1760 -0.9920
16201TIP3   OH270093   4.040   2.627   0.181 -0.6615  0.7284  0.3725
16201TIP3    H170094   4.021   2.628   0.275 -1.4383 -0.8824  0.2656
16201TIP3    H270095   3.960   2.662   0.140 -1.0300 -0.2408  0.2393
16202TIP3   OH270096   0.147   3.836  13.657  0.3512  0.4604  0.1717
16202TIP3    H170097   0.169   3.918  13.699 -0.0365  0.9749 -0.6061
16202TIP3    H270098   0.053   3.843  13.638  0.3431 -0.1003 -0.0250
16203TIP3   OH270099   1.475   1.728   2.473 -0.2936  0.4795 -0.0044
16203TIP3    H170100   1.559   1.724   2.520 -0.1140  1.3237 -0.2318
16203TIP3    H270101   1.496   1.771   2.390 -0.1871 -2.7856 -1.8575
16204TIP3   OH270102   3.590   1.371   1.164  0.5290 -0.0135  0.9820
16204TIP3    H170103   3.610   1.319   1.242  1.2291 -0.5597  0.4451
16204TIP3    H270104   3.642   1.450   1.174  1.1035 -0.3634  0.7639
16205TIP3   OH270105   4.733   3.057   3.501 -0.1437  0.4832  0.1284
16205TIP3    H170106   4.718   2.992   3.570 -0.5599  0.6038  0.1541
16205TIP3    H270107   4.704   3.013   3.421  2.3761 -0.4993 -0.3484
16206TIP3   OH270108   4.367   4.508   4.322  0.2099  0.1986  0.5440
16206TIP3    H170109   4.329   4.433   4.368  1.7035 -0.9917 -0.0994
16206TIP3    H270110   4.455   4.518   4.360  0.3251  1.1456  0.0754
16207TIP3   OH270111   4.522   3.751  13.662 -0.7939  0.6528  0.7139
16207TIP3    H170112   4.592   3.721  13.604 -1.0128  1.8713 -0.2102
16207TIP3    H270113   4.523   3.688  13.735 -0.8678 -1.2358 -0.8425
16208TIP3   OH270114   0.817   3.142  11.547  0.3632  0.2507  0.2186
16208TIP3    H170115   0.788   3.232  11.561 -1.3945 -0.4215  1.2096
16208TIP3    H270116   0.886   3.149  11.481  0.1373  2.2899  0.1370
16209TIP3   OH270117   1.045   6.381  16.417 -0.2463 -0.2794  0.7708
16209TIP3    H170118   0.973   6.376  16.480 -0.3302  1.3170  0.8343
16209TIP3    H270119   1.113   6.430  16.463  0.3377 -0.5332  0.1868
16210TIP3   OH270120   6.218   6.182   2.825  0.4382  0.2733 -0.2285
16210TIP3    H170121   6.307   6.210   2.844  0.1036  0.1633  1.7382
16210TIP3    H270122   6.225   6.087   2.813  0.4085  0.0126  1.5215
16211TIP3   OH270123   1.686   3.423   1.723  0.1752  0.1537  0.6565
16211TIP3    H170124   1.673   3.350   1.663 -0.8635 -0.3615  1.4624
16211TIP3    H270125   1.628   3.492   1.691 -0.6652 -0.2578  1.2683
16212TIP3   OH270126   5.714   0.593   3.465 -0.2986  0.1691 -0.4992
16212TIP3    H170127   5.746   0.585   3.554 -0.1593 -4.6390 -0.7261
16212TIP3    H270128   5.787   0.566   3.410 -1.1679  0.4499 -1.8528
16213TIP3   OH270129   6.375   6.728   0.057 -0.2031  0.5789  0.3136
16213TIP3    H170130   6.386   6.811   0.103 -0.7112 -0.0883  1.6723
16213TIP3    H270131   6.293   6.692   0.091 -0.1681 -0.3239 -0.5148
16214TIP3   OH270132   1.418   6.106   2.531 -0.0221  0.3135 -0.0087
16214TIP3    H170133   1.434   6.138   2.442 -1.4066 -1.9409 -1.1793
16214TIP3    H270134   1.368   6.176   2.573  0.5019  1.3483 -1.0423
16215TIP3   OH270135   5.313   4.482   3.030 -0.3754  0.5595 -0.1603
16215TIP3    H170136   5.336   4.559   3.083 -2.3877  1.3708 -0.3754
16215TIP3    H270137   5.335   4.507   2.940  0.1517  0.3710 -0.0898
16216TIP3   OH270138   4.498   4.147   2.076  0.5383 -0.0408 -0.2770
16216TIP3    H170139   4.441   4.078   2.044  1.4426 -0.8838 -0.1461
16216TIP3    H270140   4.439   4.215   2.108 -0.3712 -0.1951 -1.5665
16217TIP3   OH270141   0.173   4.635   0.858  0.4996 -0.2760 -0.1457
16217TIP3    H170142   0.129   4.617   0.940  3.0518 -0.4927  1.2904
16217TIP3    H270143   0.153   4.727   0.839 -2.0598 -0.8658 -0.6411
16218TIP3   OH270144   1.174   2.972  13.408 -0.4411  0.3768 -0.1192
16218TIP3    H170145   1.186   3.067  13.405 -0.3332  0.4384  1.3683
16218TIP3    H270146   1.092   2.956  13.361 -0.0594  1.1065 -1.0628
16219TIP3   OH270147   1.670   0.917  14.573  0.5296  0.4746  0.6591
16219TIP3    H170148   1.612   0.862  14.625  0.7997 -0.5986 -0.1383
16219TIP3    H270149   1.720   0.967  14.637 -1.8165  2.0854  1.3842
16220TIP3   OH270150   4.566   0.854  11.832 -0.2957  0.0056 -0.1192
16220TIP3    H170151   4.554   0.824  11.742 -0.3662  0.0532 -0.1255
16220TIP3    H270152   4.560   0.774  11.885  1.0553 -0.2252 -0.2625
16221TIP3   OH270153   2.057   0.726  13.638 -0.2611  0.4776 -0.1666
16221TIP3    H170154   2.105   0.801  13.674  0.5915 -0.6079  1.0788
16221TIP3    H270155   2.123   0.677  13.589 -0.6314  0.1800 -0.3695
16222TIP3   OH270156   2.400   3.771  15.371 -0.1808 -0.1520  0.2936
16222TIP3    H170157   2.449   3.734  15.444  0.8232 -2.6051 -1.4985
16222TIP3    H270158   2.442   3.734  15.293 -1.0858  2.4728 -1.5799
16223TIP3   OH270159   4.781   2.269  12.653  0.1095 -0.2190 -0.4561
16223TIP3    H170160   4.847   2.313  12.707 -0.5590  0.6027 -0.3036
16223TIP3    H270161   4.750   2.197  12.707 -0.9431  0.9122  0.5120
16224TIP3   OH270162   0.216   6.015  12.893 -0.1901 -0.2401  0.5082
16224TIP3    H170163   0.297   6.046  12.853  0.2876 -0.5902  1.1722
16224TIP3    H270164   0.245   5.967  12.971 -1.0168 -0.6762  0.5622
16225TIP3   OH270165   4.571   5.126   5.782 -0.3339 -0.0306 -0.1572
16225TIP3    H170166   4.530   5.203   5.821 -1.5792  0.0367 -1.5167
16225TIP3    H270167   4.590   5.151   5.691  0.6557 -0.8284 -0.1939
16226TIP3   OH270168   6.030   0.681  16.967  0.0937  0.1237 -0.6832
16226TIP3    H170169   6.088   0.658  16.894  1.6513  2.2933 -0.2026
16226TIP3    H270170   6.087   0.685  17.043 -0.7384  1.8776 -0.1007
16227TIP3   OH270171   1.415   3.465   1.090 -0.3334  0.7407  0.4480
16227TIP3    H170172   1.471   3.488   1.016 -0.7703  0.6390  0.0765
16227TIP3    H270173   1.454   3.510   1.165  0.0389  0.9540  0.1309
16228TIP3   OH270174   3.058   0.617  13.675 -0.6098  0.4206 -0.0676
16228TIP3    H170175   3.106   0.682  13.726  0.9940 -0.4769 -0.3786
16228TIP3    H270176   3.091   0.626  13.586 -1.9790  0.6482 -0.5861
16229TIP3   OH270177   4.893   0.360   1.204  0.3446  0.1475 -0.0901
16229TIP3    H170178   4.912   0.377   1.296  2.6764 -0.2140 -0.4379
16229TIP3    H270179   4.965   0.402   1.157  0.4902 -1.6809 -1.5990
16230TIP3   OH270180   6.066   6.157  10.578  0.4984 -0.1713 -0.0580
16230TIP3    H170181   5.981   6.149  10.621  0.9907 -1.9103  0.6894
16230TIP3    H270182   6.127   6.173  10.650  1.2127 -2.2318 -0.1283
16231TIP3   OH270183   6.121   5.124   1.339 -0.0290  0.4198  0.2254
16231TIP3    H170184   6.036   5.080   1.343 -0.2575  0.8471  0.1205
16231TIP3    H270185   6.170   5.089   1.414 -0.4638  0.5219  0.5539
16232TIP3   OH270186   6.035   5.708  11.868 -0.1088 -0.1476 -0.0520
16232TIP3    H170187   6.056   5.740  11.780  1.4822  0.6159  0.5688
16232TIP3    H270188   5.941   5.721  11.877 -0.2342  0.0849 -1.5169
16233TIP3   OH270189   5.987   4.672   5.719  0.2654 -0.0248 -0.2895
16233TIP3    H170190   6.077   4.659   5.689  0.3512 -1.7007  0.5913
16233TIP3    H270191   5.940   4.596   5.685 -1.2543  1.6545 -2.1913
16234TIP3   OH270192   2.866   4.948   3.033 -0.2117  0.1849  0.3805
16234TIP3    H170193   2.809   5.025   3.032 -0.4238  0.0291  0.5335
16234TIP3    H270194   2.845   4.901   2.953  0.0891  0.4117  0.1679
16235TIP3   OH270195   6.487   5.751  16.113  0.1619 -0.2844  0.2777
16235TIP3    H170196   6.395   5.771  16.128 -0.4726 -1.0844 -2.1823
16235TIP3    H270197   6.527   5.756  16.200 -2.3745 -0.8796  1.5576
16236TIP3   OH270198   3.979   1.740  11.667 -0.5144  0.0087 -0.6878
16236TIP3    H170199   4.029   1.666  11.700  0.3126  0.9540  0.2738
16236TIP3    H270200   3.888   1.719  11.689 -0.1327 -0.0373  0.9845
16237TIP3   OH270201   1.845   1.112  14.721 -0.1760  0.1867 -0.1167
16237TIP3    H170202   1.889   1.050  14.779  0.5027  2.1706  1.6285
16237TIP3    H270203   1.798   1.170  14.781  1.2324  2.8533 -1.4570
16238TIP3   OH270204   1.996   1.460  13.219 -0.0104 -0.4393  0.4986
16238TIP3    H170205   2.048   1.412  13.284  0.7854  0.3673  0.4792
16238TIP3    H270206   1.912   1.477  13.262  0.6223  0.3713  1.4551
16239TIP3   OH270207   4.966   2.275  11.467 -0.2084  0.1285  0.3854
16239TIP3    H170208   4.894   2.336  11.482 -0.6847 -0.4012  0.2997
16239TIP3    H270209   4.927   2.189  11.483  0.4810 -0.1464  0.6043
16240TIP3   OH270210   0.015   4.544   4.873 -0.1398 -0.1330  0.4582
16240TIP3    H170211  -0.015   4.495   4.796 -1.3386  1.7130 -0.3229
16240TIP3    H270212  -0.030   4.628   4.867  1.0902  0.7252  2.2555
16241TIP3   OH270213   4.750   1.530   6.141  0.5120 -0.5121 -0.5588
16241TIP3    H170214   4.730   1.600   6.203  0.8033 -0.0939 -0.9335
16241TIP3    H270215   4.741   1.450   6.193  0.6654 -0.1771  0.0050
16242TIP3   OH270216   3.914   4.756  13.367 -0.5611  0.4637 -0.0870
16242TIP3    H170217   3.996   4.768  13.415 -1.1730  0.3210  1.0054
16242TIP3    H270218   3.933   4.789  13.279  1.1291 -0.9486 -0.2976
16243TIP3   OH270219   6.757   1.331  12.052 -0.6823  0.0173  0.0003
16243TIP3    H170220   6.821   1.267  12.022 -1.3369 -0.4503 -0.4210
16243TIP3    H270221   6.796   1.368  12.132  0.0548 -0.3272 -0.1891
16244TIP3   OH270222   2.791   4.174   3.691  0.1987  0.6731  0.3259
16244TIP3    H170223   2.858   4.166   3.624 -0.7893 -0.0824 -0.6095
16244TIP3    H270224   2.816   4.110   3.758  1.3153  1.5974  0.8312
16245TIP3   OH270225   1.318   6.148   3.853  0.5574 -0.2546  0.5753
16245TIP3    H170226   1.386   6.160   3.920  0.0556 -0.7279  1.1847
16245TIP3    H270227   1.331   6.059   3.821 -0.6519 -0.8773  1.7238
16246TIP3   OH270228   0.256   0.594  14.275  0.0576  0.3299  0.5297
16246TIP3    H170229   0.215   0.632  14.353 -0.2964 -2.6758  1.9619
16246TIP3    H270230   0.192   0.531  14.243  1.2667 -0.3528 -0.6304
16247TIP3   OH270231   5.562   1.320  10.606 -0.5183  0.0444  0.1285
16247TIP3    H170232   5.566   1.284  10.694 -1.0673 -1.0521 -0.2775
16247TIP3    H270233   5.653   1.318  10.575 -0.6526 -2.0967 -0.2848
16248TIP3   OH270234   6.741   0.974  16.165  0.4111 -0.0322  0.0287
16248TIP3    H170235   6.780   0.996  16.249 -0.4563  0.4587  0.3106
16248TIP3    H270236   6.784   0.893  16.139  1.6399  0.5158  0.3023
16249TIP3   OH270237   5.243   6.676   3.156  0.3892 -0.1485  0.9865
16249TIP3    H170238   5.187   6.608   3.195 -1.1431  0.0867 -0.6869
16249TIP3    H270239   5.187   6.720   3.092  1.6776  2.0000  1.2471
16250TIP3   OH270240   2.948   4.213   2.142 -0.2681  0.4335  0.2864
16250TIP3    H170241   2.916   4.129   2.175 -3.6497  0.2393 -2.8734
16250TIP3    H270242   2.893   4.278   2.184 -3.4314  0.2905 -3.1784
16251TIP3   OH270243   6.257   0.553  13.787 -0.5442  0.8707  0.9043
16251TIP3    H170244   6.182   0.527  13.841  0.1253  0.1339  1.4953
16251TIP3    H270245   6.320   0.482  13.797 -0.4642  0.6454 -0.9918
16252TIP3   OH270246   1.049   5.235   5.126 -0.5169  0.4938 -0.1141
16252TIP3    H170247   0.975   5.244   5.187 -2.1119 -0.6409 -1.7808
16252TIP3    H270248   1.045   5.315   5.073  1.4963  1.9833  1.7695
16253TIP3   OH270249   4.245   6.316   1.371 -0.3400 -0.3602 -0.1914
16253TIP3    H170250   4.321   6.274   1.332 -0.6857 -0.5405 -0.6882
16253TIP3    H270251   4.266   6.409   1.372 -0.2904 -0.3639 -0.7418
16254TIP3   OH270252   3.976   3.528  11.683 -0.1503 -0.1179 -0.0565
16254TIP3    H170253   4.066   3.539  11.715  0.7101  3.1371 -2.9275
16254TIP3    H270254   3.987   3.500  11.592 -1.9682  1.1445 -0.7190
16255TIP3   OH270255   5.044   6.108  14.782 -0.0998 -0.6223  0.0322
16255TIP3    H170256   4.973   6.061  14.825  0.8698 -1.5239  0.6919
16255TIP3    H270257   5.006   6.193  14.760 -1.7215 -1.4878 -0.6922
16256TIP3   OH270258   5.833   1.766   1.253 -0.4014  1.0715  0.6995
16256TIP3    H170259   5.785   1.683   1.247 -0.2595  1.0574 -0.6237
16256TIP3    H270260   5.924   1.740   1.262 -0.1509  1.0172 -1.4460
16257TIP3   OH270261   4.171   6.379   1.751 -0.5279  0.0809  0.3743
16257TIP3    H170262   4.241   6.338   1.802  0.4346  0.2296 -0.7979
16257TIP3    H270263   4.169   6.469   1.782 -0.6444 -0.0836  0.8601
16258TIP3   OH270264   0.076   0.805   3.264 -0.0615  0.5512 -0.2853
16258TIP3    H170265   0.131   0.730   3.289  0.3388  0.6606 -0.8175
16258TIP3    H270266  -0.013   0.779   3.286  0.1268  0.0913 -0.0641
16259TIP3   OH270267   5.696   6.574   5.551  0.0807 -0.3361  0.0933
16259TIP3    H170268   5.712   6.603   5.641  1.0491  0.4690 -0.3180
16259TIP3    H270269   5.601   6.560   5.547 -0.0024 -0.1590  1.1751
16260TIP3   OH270270   5.003   2.740  12.134 -0.0365 -0.5000  0.3694
16260TIP3    H170271   4.908   2.754  12.126 -0.0059 -1.0973 -1.6015
16260TIP3    H270272   5.013   2.645  12.134  0.5779 -0.4397  0.1814
16261TIP3   OH270273   0.482   2.341  16.327 -0.8010 -0.1322  0.0423
16261TIP3    H170274   0.524   2.255  16.329  1.2079  0.8089  0.6105
16261TIP3    H270275   0.388   2.321  16.326 -0.4020 -2.3206  0.1772
16262TIP3   OH270276   3.905   3.130  13.350  0.3462 -0.1822 -0.1970
16262TIP3    H170277   3.883   3.090  13.434 -1.0278 -1.2658 -1.0271
16262TIP3    H270278   3.887   3.061  13.286 -1.7417  1.6266 -1.6714
16263TIP3   OH270279   4.447   5.772  13.839  0.0024  0.1312 -0.4086
16263TIP3    H170280   4.410   5.744  13.755 -1.3735  0.0929  0.1855
16263TIP3    H270281   4.374   5.767  13.901  1.5605 -2.4256  1.4422
16264TIP3   OH270282   3.514   0.943  15.963  0.6564  0.2452  0.5578
16264TIP3    H170283   3.518   0.890  16.043  2.1539  1.6290  1.4505
16264TIP3    H270284   3.489   1.030  15.993 -2.0748  0.0970 -0.9253
16265TIP3   OH270285   2.735   5.569  17.073  0.3820  0.0673 -0.0814
16265TIP3    H170286   2.646   5.545  17.099 -0.6078  0.3870 -2.8913
16265TIP3    H270287   2.767   5.492  17.025  1.0087  0.5456 -0.4422
16266TIP3   OH270288   2.728   2.957   4.860 -0.0651 -0.0218  0.2825
16266TIP3    H170289   2.821   2.965   4.883 -0.0424 -0.0956  0.2163
16266TIP3    H270290   2.697   2.884   4.914 -0.3174  0.6323  1.0317
16267TIP3   OH270291   2.992   2.619  11.311  0.2021 -0.3679 -0.1917
16267TIP3    H170292   2.991   2.698  11.256 -0.7250 -1.1625 -1.3600
16267TIP3    H270293   3.081   2.584  11.301 -0.0262 -0.6449 -1.4312
16268TIP3   OH270294   2.585   2.684  16.979  0.0611 -0.3037 -0.1803
16268TIP3    H170295   2.639   2.735  17.039  0.1738 -2.3852  1.6202
16268TIP3    H270296   2.644   2.618  16.943 -0.6375 -0.7708 -0.4885
16269TIP3   OH270297   4.298   3.300   0.233 -0.7142  0.5553 -0.0768
16269TIP3    H170298   4.333   3.228   0.285 -1.7169 -0.3719 -0.6427
16269TIP3    H270299   4.223   3.332   0.282 -0.9500  0.4593 -0.3700
16270TIP3   OH270300   2.571   5.265  16.181 -0.8699 -0.3891  0.7125
16270TIP3    H170301   2.568   5.360  16.181  0.3748 -0.2787 -1.8879
16270TIP3    H270302   2.586   5.241  16.090 -2.1393 -3.1372  1.1283
16271TIP3   OH270303   4.331   5.768   5.468  0.4782  0.4843  0.0541
16271TIP3    H170304   4.349   5.778   5.375 -0.9934  0.4636 -0.2523
16271TIP3    H270305   4.278   5.844   5.491  2.1727  1.3637  1.2871
16272TIP3   OH270306   6.598   3.236  17.090 -0.3376  0.0145  0.0518
16272TIP3    H170307   6.563   3.324  17.073  2.9435  1.6114  0.6541
16272TIP3    H270308   6.680   3.234  17.040 -1.2484 -3.5724 -1.6019
16273TIP3   OH270309   0.268   5.524  12.554  0.1469  0.0503  0.2670
16273TIP3    H170310   0.347   5.489  12.513  0.8087 -0.6016  2.0497
16273TIP3    H270311   0.299   5.599  12.605 -0.4784  0.1204  0.5453
16274TIP3   OH270312   1.889   2.561  15.841 -0.0140 -0.0541  0.0253
16274TIP3    H170313   1.922   2.481  15.884  0.6239 -0.8093 -1.7823
16274TIP3    H270314   1.967   2.615  15.828  0.3159 -1.0141 -2.5428
16275TIP3   OH270315   2.501   6.795  14.239  0.7012 -0.4450  0.2738
16275TIP3    H170316   2.591   6.762  14.246  0.7275 -0.5782 -0.5874
16275TIP3    H270317   2.512   6.888  14.217  0.6510 -0.7474 -1.1297
16276TIP3   OH270318   3.898   5.794   5.293 -0.0304 -0.3888  0.0281
16276TIP3    H170319   3.903   5.859   5.363 -1.6626  0.6926 -0.7904
16276TIP3    H270320   3.842   5.835   5.226 -1.1419 -2.6414 -0.5164
16277TIP3   OH270321   6.252   5.214  11.384 -0.2896  0.3072  0.0110
16277TIP3    H170322   6.326   5.248  11.433  1.5860 -1.6581 -1.2541
16277TIP3    H270323   6.202   5.162  11.448  0.6361 -0.0839  0.4306
16278TIP3   OH270324   1.727   4.092   1.925 -0.0767  0.2311  0.0509
16278TIP3    H170325   1.682   4.096   1.841  1.0799 -1.3182 -0.7005
16278TIP3    H270326   1.666   4.048   1.984 -0.4490  0.2675 -0.3097
16279TIP3   OH270327   0.682   1.167   5.439  0.1627  0.3432 -0.2572
16279TIP3    H170328   0.758   1.138   5.489  0.1274  2.0580  0.8719
16279TIP3    H270329   0.621   1.201   5.505 -0.9349  0.4109 -1.2721
16280TIP3   OH270330   2.480   2.776   3.850  0.4528  0.2285  0.0238
16280TIP3    H170331   2.470   2.773   3.755  1.7635  0.2342 -0.1252
16280TIP3    H270332   2.450   2.864   3.874 -0.6747 -0.0564 -0.2624
16281TIP3   OH270333   3.680   5.237   5.953 -0.0129  0.1767  0.1099
16281TIP3    H170334   3.745   5.203   6.014 -1.4376 -1.2092  0.9253
16281TIP3    H270335   3.614   5.278   6.009 -1.3586 -1.1464 -0.4269
16282TIP3   OH270336   4.188   3.516   2.766  0.1489 -0.0105  0.0426
16282TIP3    H170337   4.132   3.453   2.720  0.0879  0.8533 -1.0930
16282TIP3    H270338   4.211   3.581   2.700  1.6990  0.1918  0.7361
16283TIP3   OH270339   1.134   4.980   1.976 -0.4032  0.3940 -0.7684
16283TIP3    H170340   1.172   4.901   2.013 -1.1920 -0.2536 -1.3127
16283TIP3    H270341   1.070   5.010   2.041 -2.0219 -0.9215 -1.6719
16284TIP3   OH270342   2.065   3.128   4.230 -0.2059  0.2676  0.1985
16284TIP3    H170343   2.128   3.110   4.160 -1.3250  0.4808 -0.8867
16284TIP3    H270344   2.015   3.204   4.198  1.9927  3.2154  3.0429
16285TIP3   OH270345   4.181   1.310  16.381 -0.0099  1.1367 -0.1105
16285TIP3    H170346   4.148   1.230  16.341  0.5123  0.9389 -0.1457
16285TIP3    H270347   4.267   1.324  16.341  0.2918  1.2165  0.5502
16286TIP3   OH270348   6.247   3.544   1.557  0.2446  0.1538  0.1397
16286TIP3    H170349   6.286   3.563   1.472 -0.4114  1.7789  0.1620
16286TIP3    H270350   6.211   3.628   1.586 -1.3909 -0.8030  1.0580
16287TIP3   OH270351   6.647   5.765  15.601 -0.4905 -0.2187 -0.2788
16287TIP3    H170352   6.720   5.782  15.542  0.1087 -2.6681 -0.3508
16287TIP3    H270353   6.689   5.741  15.684 -1.3085  2.1641  0.9050
16288TIP3   OH270354   5.584   1.090  15.197 -0.0439 -0.4664 -0.1961
16288TIP3    H170355   5.573   1.031  15.272  0.3699  0.7046  0.8151
16288TIP3    H270356   5.614   1.172  15.235 -1.3631  0.6678 -1.4838
16289TIP3   OH270357   6.225   1.070   4.532 -0.1795 -0.3370  0.0659
16289TIP3    H170358   6.291   1.033   4.472  2.5014  0.5403  2.2666
16289TIP3    H270359   6.145   1.022   4.512  1.3660 -2.2518 -2.0481
16290TIP3   OH270360   2.703   2.108  16.468  0.2348  0.0541 -0.0636
16290TIP3    H170361   2.628   2.069  16.422  0.5386  0.1157 -0.6152
16290TIP3    H270362   2.748   2.033  16.507  0.6309 -0.1294 -0.8476
16291TIP3   OH270363   0.975   0.136  15.400  0.4342  0.4608  0.1850
16291TIP3    H170364   1.007   0.048  15.420 -2.6689 -0.9018 -0.2238
16291TIP3    H270365   0.952   0.172  15.485  2.8145  1.4425  0.4792
16292TIP3   OH270366   1.180   1.645  10.654 -0.1669 -0.0931 -0.5690
16292TIP3    H170367   1.199   1.554  10.632 -1.4883 -0.5125 -0.1158
16292TIP3    H270368   1.192   1.650  10.748  1.6231  0.6804 -0.8074
16293TIP3   OH270369   2.613   6.149  13.797 -0.3213 -0.4493  0.5968
16293TIP3    H170370   2.610   6.230  13.746 -0.2916 -0.8798 -0.0914
16293TIP3    H270371   2.700   6.148  13.836 -0.3351 -0.1378  0.6417
16294TIP3   OH270372   2.580   2.327   4.838 -0.1520  0.5012  0.4294
16294TIP3    H170373   2.540   2.413   4.847  1.0573  1.2356 -0.7413
16294TIP3    H270374   2.644   2.322   4.909 -1.4398 -0.1956  1.5851
16295TIP3   OH270375   3.623   2.776   5.571  0.3201  0.0834  0.0355
16295TIP3    H170376   3.708   2.735   5.556  0.1878 -0.4466  0.6802
16295TIP3    H270377   3.621   2.793   5.665 -0.7467 -0.9753  0.2339
16296TIP3   OH270378   4.496   1.284  16.513 -0.1769  0.0589 -0.0438
16296TIP3    H170379   4.497   1.229  16.434 -2.5819 -1.2523  0.7225
16296TIP3    H270380   4.416   1.258  16.558  0.4926  1.6740  2.2168
16297TIP3   OH270381   0.133   0.997   2.715 -0.5145 -0.2841  0.3009
16297TIP3    H170382   0.193   1.047   2.770  0.1860  0.0663 -0.7351
16297TIP3    H270383   0.179   0.990   2.631 -2.9548  2.2400 -1.4064
16298TIP3   OH270384   0.174   0.632  13.201  0.1936 -0.3724 -0.0627
16298TIP3    H170385   0.268   0.647  13.192  0.0727  0.5811  0.1939
16298TIP3    H270386   0.161   0.541  13.172  1.0741 -0.2551 -0.8642
16299TIP3   OH270387   3.339   4.354   4.450 -0.0565 -0.4493 -0.1210
16299TIP3    H170388   3.393   4.428   4.479  1.0082 -0.7380 -1.2439
16299TIP3    H270389   3.339   4.361   4.354 -0.1958 -1.7297 -0.2367
16300TIP3   OH270390   3.262   6.549  16.269  0.6428 -0.4820  0.1825
16300TIP3    H170391   3.269   6.628  16.323  0.1047 -1.3862  1.6448
16300TIP3    H270392   3.344   6.546  16.219  0.8581  0.7565  0.4429
16301TIP3   OH270393   1.880   0.255   4.811 -0.3357 -0.1257  0.4499
16301TIP3    H170394   1.923   0.298   4.737  0.3970 -0.2156  0.8198
16301TIP3    H270395   1.932   0.279   4.887  0.6303 -2.3588  0.5624
16302TIP3   OH270396   4.460   4.061  12.198  0.4824 -0.3018 -0.5925
16302TIP3    H170397   4.510   4.119  12.140  1.5084  0.9459  1.4190
16302TIP3    H270398   4.519   3.987  12.213  0.5850 -0.1950 -0.4595
16303TIP3   OH270399   4.844   1.327   2.352 -0.3328  0.1714 -0.3435
16303TIP3    H170400   4.789   1.265   2.305 -0.4122  0.6390 -0.8742
16303TIP3    H270401   4.836   1.409   2.303  1.8417 -0.0606 -1.2244
16304TIP3   OH270402   5.135   1.399   4.981  0.9784  0.7497 -0.3289
16304TIP3    H170403   5.072   1.349   5.033  1.2947  0.4847 -0.1997
16304TIP3    H270404   5.093   1.407   4.895  1.7044 -1.3876 -0.9646
16305TIP3   OH270405   0.004   6.834  15.203 -0.3494 -0.2829  0.6858
16305TIP3    H170406  -0.035   6.784  15.275 -2.2009 -1.1412 -0.8519
16305TIP3    H270407   0.064   6.772  15.161 -0.4962 -0.2990  0.5013
16306TIP3   OH270408   5.766   3.357   1.005  0.6542  0.3223  0.0650
16306TIP3    H170409   5.719   3.274   1.005  2.2174 -0.6151  0.6334
16306TIP3    H270410   5.825   3.352   0.929  1.4999  0.4510  0.6963
16307TIP3   OH270411   3.923   1.401  11.784  0.2562 -0.3872 -0.1893
16307TIP3    H170412   3.988   1.470  11.795 -0.5602  0.4556 -0.5769
16307TIP3    H270413   3.965   1.338  11.725  1.1018 -0.3614  0.3680
16308TIP3   OH270414   5.779   3.126  16.617  0.2797 -0.1878 -0.4249
16308TIP3    H170415   5.702   3.180  16.599  0.9259  0.6172 -0.8681
16308TIP3    H270416   5.814   3.161  16.699 -0.0553 -0.8303  0.0023
16309TIP3   OH270417   6.109   6.669  15.377  0.7326 -0.5506  0.0088
16309TIP3    H170418   6.084   6.726  15.449 -0.8777  2.3793 -2.6004
16309TIP3    H270419   6.074   6.583  15.401  1.7933 -0.1671  3.3810
16310TIP3   OH270420   5.200   6.660  16.925  0.1385  0.3821 -0.0670
16310TIP3    H170421   5.148   6.607  16.986 -0.1368  1.6032  0.7951
16310TIP3    H270422   5.136   6.706  16.872  0.3682  0.2741 -0.4406
16311TIP3   OH270423   5.560   5.398   4.757 -0.0980 -0.1312  0.0511
16311TIP3    H170424   5.617   5.468   4.788  0.6191 -0.3012 -0.8510
16311TIP3    H270425   5.610   5.318   4.770  0.1071 -0.2356 -1.2264
16312TIP3   OH270426   0.306   6.729   2.228  0.0220 -0.3258  0.8824
16312TIP3    H170427   0.377   6.664   2.224  0.4931  0.2112  0.1553
16312TIP3    H270428   0.307   6.770   2.141  0.3871  1.3318  1.6276
16313TIP3   OH270429   4.707   5.083  13.110  0.1106  0.0536 -0.1494
16313TIP3    H170430   4.736   5.105  13.021 -1.5861  0.4332 -0.6522
16313TIP3    H270431   4.706   5.167  13.156  0.5700 -0.0771  0.1028
16314TIP3   OH270432   0.784   6.753   3.879 -0.1623  0.0984  0.7824
16314TIP3    H170433   0.756   6.783   3.793  0.9487  2.6545  1.2124
16314TIP3    H270434   0.707   6.764   3.935 -1.1095 -2.2648  0.0435
16315TIP3   OH270435   0.044   3.603  16.347 -0.2918 -0.3401 -0.1262
16315TIP3    H170436  -0.024   3.560  16.296  0.0231 -0.8010 -0.1628
16315TIP3    H270437   0.014   3.595  16.438 -0.8723  0.5171 -0.2331
16316TIP3   OH270438   6.206   0.384   0.864 -0.2145  0.1943  0.0102
16316TIP3    H170439   6.175   0.313   0.807 -0.5310 -0.2261  0.6933
16316TIP3    H270440   6.244   0.340   0.939  0.3975  0.7459  0.0376
16317TIP3   OH270441   4.564   6.269  14.760 -0.0142  0.2045 -0.3931
16317TIP3    H170442   4.634   6.318  14.803 -1.8191  2.1655  0.4635
16317TIP3    H270443   4.609   6.196  14.718  2.5636  1.4905 -0.0690
16318TIP3   OH270444   3.743   0.375   2.585  0.0943 -0.3441  0.1131
16318TIP3    H170445   3.736   0.281   2.567 -1.3909 -0.0857 -0.8859
16318TIP3    H270446   3.742   0.382   2.680  1.5726 -1.3991  0.2417
16319TIP3   OH270447   6.485   5.251  13.645 -0.3001 -0.0064  0.3762
16319TIP3    H170448   6.467   5.307  13.569 -1.0850  0.8830  1.1945
16319TIP3    H270449   6.580   5.252  13.654 -0.3297  1.9451  0.9071
16320TIP3   OH270450   4.735   1.838   1.416  0.6399  0.1983  0.1515
16320TIP3    H170451   4.815   1.792   1.391  0.0530 -1.5574  1.2742
16320TIP3    H270452   4.740   1.843   1.512 -0.2956  0.6409  0.1850
16321TIP3   OH270453   4.241   4.846   6.365  0.0021  0.0659  0.2282
16321TIP3    H170454   4.192   4.852   6.284  0.4105  0.0168 -0.0274
16321TIP3    H270455   4.262   4.937   6.388  1.4407  0.0066 -0.6974
16322TIP3   OH270456   1.998   5.964  12.636 -0.3682 -0.9374  0.0917
16322TIP3    H170457   2.042   5.890  12.593 -0.7261 -0.7277 -0.6555
16322TIP3    H270458   1.905   5.946  12.624 -0.4666  0.3342 -1.3615
16323TIP3   OH270459   4.563   2.812  15.252  0.1205  0.1397  0.4407
16323TIP3    H170460   4.556   2.898  15.293 -1.4301  0.4138 -0.2834
16323TIP3    H270461   4.655   2.788  15.261  0.0106  0.5225  3.3029
16324TIP3   OH270462   5.857   5.165  16.734 -0.5030  0.4324 -0.4494
16324TIP3    H170463   5.770   5.194  16.761 -1.7542 -2.7586 -0.6570
16324TIP3    H270464   5.895   5.125  16.813 -0.2748 -0.4297 -0.9808
16325TIP3   OH270465   3.328   1.122   2.011 -0.6842  0.1794 -0.0749
16325TIP3    H170466   3.392   1.133   2.082 -1.0201  0.8480  0.1314
16325TIP3    H270467   3.245   1.107   2.056 -0.6703 -0.7828 -0.3444
16326TIP3   OH270468   6.177   0.988   3.085 -0.0916  0.4828  0.5539
16326TIP3    H170469   6.196   1.044   3.160 -0.6241 -0.1967  1.2089
16326TIP3    H270470   6.082   0.981   3.084 -0.1002  0.5911 -0.2737
16327TIP3   OH270471   0.876   3.970  13.980  0.2807 -0.6936  0.4598
16327TIP3    H170472   0.867   4.048  14.035  2.1107  0.1823 -0.3720
16327TIP3    H270473   0.847   3.898  14.035  0.0457  0.3898  1.8193
16328TIP3   OH270474   1.079   2.101  11.409  0.2208 -0.1129 -0.3705
16328TIP3    H170475   1.164   2.129  11.443 -0.3936  2.8837 -0.9629
16328TIP3    H270476   1.025   2.086  11.486  0.3653  1.3442  0.0428
16329TIP3   OH270477   0.324   5.870  13.365  0.5528  0.3357  0.3740
16329TIP3    H170478   0.266   5.935  13.406  1.6531  0.6298  1.5061
16329TIP3    H270479   0.387   5.847  13.433  0.6719 -1.3471 -0.2656
16330TIP3   OH270480   6.595   4.347   2.969 -0.0973  0.2161 -0.1730
16330TIP3    H170481   6.526   4.295   3.010 -2.1210  2.1086 -0.9720
16330TIP3    H270482   6.630   4.291   2.900 -2.0425 -0.2182 -0.8693
16331TIP3   OH270483   0.631   6.514  13.170  0.0116  0.3054 -0.1645
16331TIP3    H170484   0.619   6.598  13.126  2.2794  1.0085  0.3976
16331TIP3    H270485   0.696   6.468  13.117  0.4174 -0.1630  0.7046
16332TIP3   OH270486   3.255   0.458   5.384  0.1017 -0.1346  0.3397
16332TIP3    H170487   3.312   0.486   5.313 -1.1836 -0.1304 -0.7338
16332TIP3    H270488   3.259   0.362   5.381  0.6301 -0.1327  0.7717
16333TIP3   OH270489   5.540   5.907   3.017  0.4809  0.6474  0.7022
16333TIP3    H170490   5.580   5.829   2.978 -1.2432  0.0537  0.0063
16333TIP3    H270491   5.614   5.962   3.043  1.7205 -0.4391 -0.3943
16334TIP3   OH270492   6.165   2.270   1.652  0.2267 -0.1822 -0.1296
16334TIP3    H170493   6.090   2.227   1.694 -0.7344  1.8506  0.3665
16334TIP3    H270494   6.147   2.262   1.558  0.2974 -1.2067 -0.0704
16335TIP3   OH270495   2.953   6.696   5.628  0.3366  0.1329  0.6752
16335TIP3    H170496   3.043   6.712   5.600  0.4071 -1.3765 -0.0664
16335TIP3    H270497   2.904   6.684   5.547 -0.2951 -0.2230  1.1037
16336TIP3   OH270498   2.615   0.623   2.574  0.1226 -0.5906 -0.0186
16336TIP3    H170499   2.682   0.556   2.585 -1.0179 -1.7366  0.2132
16336TIP3    H270500   2.558   0.613   2.650 -1.2301 -0.7448 -1.0091
16337TIP3   OH270501   5.983   2.115  13.178 -0.0302  0.0318 -0.1698
16337TIP3    H170502   5.937   2.066  13.110  0.1895 -0.3554 -0.0441
16337TIP3    H270503   6.003   2.050  13.246 -0.0149  0.3584  0.1453
16338TIP3   OH270504   6.512   1.968  11.545  0.0325 -0.8751  0.0553
16338TIP3    H170505   6.574   1.937  11.610  0.5065  0.6052  0.3501
16338TIP3    H270506   6.429   1.973  11.591 -0.5627 -3.5572 -0.5252
16339TIP3   OH270507   1.475   0.373   5.994 -0.3435 -0.1500  0.6424
16339TIP3    H170508   1.509   0.307   6.054 -2.1500 -3.5182 -1.6347
16339TIP3    H270509   1.380   0.373   6.010 -0.5980  0.4483 -0.7014
16340TIP3   OH270510   6.146   6.325  11.507 -0.0467 -0.5703  0.3146
16340TIP3    H170511   6.176   6.278  11.429 -2.1519 -0.0971 -0.8440
16340TIP3    H270512   6.091   6.262  11.554 -3.4914  0.7417 -1.6242
16341TIP3   OH270513   2.854   0.843  13.843 -0.2021  0.1034  0.3633
16341TIP3    H170514   2.884   0.752  13.842 -2.7341 -0.8045 -0.6975
16341TIP3    H270515   2.863   0.870  13.934  1.5716 -0.8250  0.5136
16342TIP3   OH270516   6.017   2.122  12.327 -0.0832  0.2520  0.1488
16342TIP3    H170517   6.033   2.063  12.401  0.3501  2.2850  1.7775
16342TIP3    H270518   6.097   2.117  12.274  1.2599  1.5810  1.9244
16343TIP3   OH270519   2.303   0.871  15.750 -0.2212 -0.7722  0.3125
16343TIP3    H170520   2.353   0.915  15.681 -2.1563 -0.0091 -0.7033
16343TIP3    H270521   2.365   0.860  15.821  0.8103  2.3313  0.0651
16344TIP3   OH270522   0.574   4.928   2.749  0.0344 -0.6004  0.7060
16344TIP3    H170523   0.527   4.874   2.813 -0.1055 -1.0395  0.2388
16344TIP3    H270524   0.615   4.865   2.689  3.2088 -0.3830  2.4017
16345TIP3   OH270525   6.537   0.101   6.662  0.3971  0.3356 -0.6900
16345TIP3    H170526   6.556   0.007   6.657  1.6832  0.6320 -1.9377
16345TIP3    H270527   6.621   0.144   6.648  0.0875  1.7087  1.1688
16346TIP3   OH270528   3.396   3.193   1.547  0.1876  0.4841 -0.0857
16346TIP3    H170529   3.452   3.151   1.482 -0.3591  0.4615 -0.5481
16346TIP3    H270530   3.318   3.137   1.551 -0.7133  1.6300 -0.9786
16347TIP3   OH270531   4.975   6.782   1.005  0.6306  0.2526 -0.5839
16347TIP3    H170532   4.917   6.761   0.932 -0.5792  0.5990  0.2483
16347TIP3    H270533   4.940   6.731   1.078  2.0630 -0.3975 -0.3208
16348TIP3   OH270534   4.786   0.732  12.416 -0.1246  0.1782  0.4129
16348TIP3    H170535   4.741   0.649  12.434  0.7606 -0.0429  1.6863
16348TIP3    H270536   4.753   0.759  12.330 -0.5900 -1.3772  0.0811
16349TIP3   OH270537   1.446   4.905  16.751  0.3580  0.3623  0.3619
16349TIP3    H170538   1.481   4.972  16.810  1.5795 -0.0908  0.1875
16349TIP3    H270539   1.499   4.827  16.770  1.0123  0.2977 -1.5809
16350TIP3   OH270540   4.237   2.729   3.585 -0.1333 -0.2355  0.1692
16350TIP3    H170541   4.248   2.823   3.573  0.1978 -0.4058 -0.9954
16350TIP3    H270542   4.295   2.707   3.658 -0.9031  0.5933  1.0619
16351TIP3   OH270543   4.379   4.523   5.056 -0.0123 -0.3118 -0.5764
16351TIP3    H170544   4.352   4.590   4.993  0.5296 -0.1672 -0.6633
16351TIP3    H270545   4.357   4.440   5.014  0.2945 -0.2140 -0.9431
16352TIP3   OH270546   4.483   5.416  15.722  0.2479  0.3949  0.0742
16352TIP3    H170547   4.446   5.387  15.805  1.8772  2.9467  1.8684
16352TIP3    H270548   4.510   5.336  15.677  0.0609 -1.0593  2.3983
16353TIP3   OH270549   2.265   3.226  13.082 -0.3520  0.4672  0.4991
16353TIP3    H170550   2.190   3.168  13.091 -1.5584  1.1810 -3.2331
16353TIP3    H270551   2.250   3.295  13.148 -1.5937 -0.6997  1.4952
16354TIP3   OH270552   6.551   6.093   5.080 -0.4877  0.2989 -1.0574
16354TIP3    H170553   6.634   6.061   5.115  0.2514  0.6639 -2.3813
16354TIP3    H270554   6.532   6.171   5.132 -0.1693  0.0309 -0.5296
16355TIP3   OH270555   5.008   1.606  14.791  0.0568  0.5587  0.2966
16355TIP3    H170556   4.957   1.650  14.723  1.5844  0.8270 -0.7250
16355TIP3    H270557   5.042   1.677  14.845 -0.9555  0.3582  1.2251
16356TIP3   OH270558   1.521   6.200  13.433 -0.6915 -0.2399  0.2804
16356TIP3    H170559   1.513   6.290  13.401  0.4834  0.0751  0.8115
16356TIP3    H270560   1.554   6.210  13.523  2.3339 -1.2215 -0.6171
16357TIP3   OH270561   4.791   1.334  11.278  0.3615 -0.3963  0.1052
16357TIP3    H170562   4.712   1.298  11.319  0.3170 -0.4188  0.0002
16357TIP3    H270563   4.855   1.263  11.283  1.1445  0.3910  2.3415
16358TIP3   OH270564   5.971   0.097  11.035  0.0632 -0.6315 -0.1478
16358TIP3    H170565   5.900   0.140  11.082  2.2754  1.5311  1.5281
16358TIP3    H270566   5.985   0.150  10.957  0.0905 -0.8297 -0.2797
16359TIP3   OH270567   6.692   6.582  16.394 -0.2331  0.2921 -0.0894
16359TIP3    H170568   6.677   6.554  16.484 -1.4952 -0.3948 -0.4723
16359TIP3    H270569   6.709   6.676  16.399 -0.9810  0.3893  0.8088
16360TIP3   OH270570   5.908   5.892  14.687 -0.2289 -0.3119  0.0563
16360TIP3    H170571   5.878   5.812  14.644 -0.2975 -0.6690  0.7370
16360TIP3    H270572   5.999   5.902  14.658 -0.7713  0.3976 -1.4787
16361TIP3   OH270573   5.795   5.902   0.637 -0.3089  0.1460 -0.2508
16361TIP3    H170574   5.876   5.934   0.678 -0.4369 -0.8752  0.8501
16361TIP3    H270575   5.820   5.881   0.547  1.1253 -1.8121  0.5295
16362TIP3   OH270576   3.454   0.822   1.590 -0.0598 -0.3190  0.4562
16362TIP3    H170577   3.384   0.778   1.638 -0.3124  0.5919  0.9340
16362TIP3    H270578   3.409   0.875   1.525  0.2073 -0.1411  0.4151
16363TIP3   OH270579   0.018   5.317  16.143  0.3186  0.0306 -0.5052
16363TIP3    H170580   0.111   5.330  16.125  0.8233  1.1934  2.3487
16363TIP3    H270581  -0.019   5.405  16.142 -0.7080 -0.3970 -1.3422
16364TIP3   OH270582   4.315   2.618   4.084  0.0070 -0.3634 -0.1271
16364TIP3    H170583   4.222   2.637   4.097  0.2214  0.2477  0.6292
16364TIP3    H270584   4.321   2.522   4.086 -0.6336 -0.4099 -0.4226
16365TIP3   OH270585   5.884   4.058  11.349 -0.4478 -0.0351  0.1642
16365TIP3    H170586   5.889   4.005  11.429 -0.0383 -1.5681 -0.8365
16365TIP3    H270587   5.903   3.996  11.278 -2.6474  0.8668 -1.2991
16366TIP3   OH270588   1.449   6.073  13.865  0.1575  0.9653  0.4518
16366TIP3    H170589   1.401   6.001  13.822  1.4890 -0.5016  1.3108
16366TIP3    H270590   1.404   6.084  13.949  1.2209 -0.3844  1.2409
16367TIP3   OH270591   0.924   3.802   4.084 -0.1568  0.7068  0.3969
16367TIP3    H170592   0.882   3.739   4.026  0.8640 -0.4186  0.8605
16367TIP3    H270593   0.997   3.837   4.034  1.0887 -0.7011  1.1591
16368TIP3   OH270594   5.949   2.563  14.089 -0.5991  1.0566 -0.3220
16368TIP3    H170595   5.878   2.511  14.051  0.4388 -0.0603 -0.7896
16368TIP3    H270596   6.022   2.552  14.027  1.2381 -1.0172  2.0066
16369TIP3   OH270597   2.106   4.458  13.131  0.8845 -0.3812 -0.6758
16369TIP3    H170598   2.045   4.393  13.164  0.2585  0.8349  0.6655
16369TIP3    H270599   2.183   4.449  13.188  1.9345 -1.7394 -2.2007
16370TIP3   OH270600   5.996   4.187  16.691  0.1871 -0.2368 -0.4550
16370TIP3    H170601   5.950   4.227  16.617 -0.7925 -1.9248 -0.8264
16370TIP3    H270602   5.939   4.203  16.766 -0.5713 -1.4586 -0.7336
16371TIP3   OH270603   6.601   4.311  14.790 -0.2093 -0.2920 -0.0432
16371TIP3    H170604   6.557   4.238  14.747  0.1026 -0.1678 -0.5802
16371TIP3    H270605   6.590   4.385  14.730 -0.2836  0.0315  0.3651
16372TIP3   OH270606   0.837   0.802  13.300 -0.0610 -0.3178 -0.1199
16372TIP3    H170607   0.771   0.767  13.359 -0.4166  0.1990 -0.2006
16372TIP3    H270608   0.825   0.897  13.304  1.1945 -0.1642  0.4695
16373TIP3   OH270609   5.158   4.302  16.897  0.7199  0.5788  0.3570
16373TIP3    H170610   5.192   4.316  16.809 -1.2801 -0.7636 -0.6970
16373TIP3    H270611   5.171   4.386  16.941  3.4650  0.7472 -0.5386
16374TIP3   OH270612   5.720   2.568  16.106 -0.4207  0.1748 -0.1136
16374TIP3    H170613   5.685   2.525  16.184 -0.4985 -0.7928 -0.6608
16374TIP3    H270614   5.643   2.607  16.064 -0.5588 -0.3368 -0.3360
16375TIP3   OH270615   5.546   3.992  14.241 -0.3721  0.4905  0.1768
16375TIP3    H170616   5.489   4.015  14.168  0.6818  0.0770 -0.8055
16375TIP3    H270617   5.486   3.969  14.312 -1.4174  1.2176 -0.4473
16376TIP3   OH270618   4.568   1.850  10.694 -0.6469 -0.4154 -0.0820
16376TIP3    H170619   4.633   1.779  10.692 -0.5037 -0.2849 -0.1365
16376TIP3    H270620   4.619   1.928  10.719 -0.5475 -0.0692 -1.2858
16377TIP3   OH270621   3.898   2.867  12.908 -0.6929 -0.1689 -0.2311
16377TIP3    H170622   3.877   2.928  12.837  1.2358  0.7829 -0.0485
16377TIP3    H270623   3.887   2.780  12.869 -0.4758  0.3300 -1.4513
16378TIP3   OH270624   2.393   1.641  16.945  0.2795 -0.1025  0.4892
16378TIP3    H170625   2.485   1.655  16.968  0.6252 -1.1176 -0.2104
16378TIP3    H270626   2.362   1.728  16.919  0.6305  0.5237  2.0874
16379TIP3   OH270627   6.466   5.503  11.744 -0.1827 -0.4018 -0.5938
16379TIP3    H170628   6.471   5.484  11.838 -0.9740 -0.5353 -0.5694
16379TIP3    H270629   6.423   5.588  11.739 -1.8374 -1.2140 -0.8762
16380TIP3   OH270630   3.318   2.618  16.572  0.4961 -0.3960 -0.3689
16380TIP3    H170631   3.361   2.601  16.488  1.4440  1.8583 -0.3932
16380TIP3    H270632   3.364   2.693  16.609 -0.6023 -0.6480  1.6888
16381TIP3   OH270633   4.258   1.250  14.020  0.3306  0.0637  0.2729
16381TIP3    H170634   4.270   1.201  14.101  0.0545  0.8539  0.7994
16381TIP3    H270635   4.342   1.241  13.974  0.1621 -1.1895  0.1909
16382TIP3   OH270636   4.268   0.174   2.401  0.3616 -0.1729  0.4536
16382TIP3    H170637   4.313   0.091   2.419 -2.2602 -1.6154  1.0124
16382TIP3    H270638   4.177   0.148   2.384 -0.9208  2.6981  2.1185
16383TIP3   OH270639   1.297   1.656  11.376  0.9072  0.3152 -0.3724
16383TIP3    H170640   1.369   1.681  11.434  2.3671 -1.5342 -1.3023
16383TIP3    H270641   1.245   1.596  11.427  0.9945  0.3255 -0.2704
16384TIP3   OH270642   5.211   5.307   5.147 -0.5785 -0.2364 -0.4962
16384TIP3    H170643   5.241   5.333   5.060  1.2204  2.6509  0.8369
16384TIP3    H270644   5.216   5.387   5.199 -2.0299 -1.7370  2.1901
16385TIP3   OH270645   2.132   0.518   0.701  0.0823  0.2579 -0.0633
16385TIP3    H170646   2.159   0.592   0.755 -0.5355 -0.7613  1.7199
16385TIP3    H270647   2.145   0.441   0.756  0.3883 -0.9649 -1.7433
16386TIP3   OH270648   3.529   0.323   3.718  0.2643  0.0946 -0.1893
16386TIP3    H170649   3.586   0.329   3.795  0.3349  0.4528 -0.2657
16386TIP3    H270650   3.441   0.313   3.754  0.1995  1.0987 -0.0458
16387TIP3   OH270651   5.745   0.067  14.362 -0.3141  0.1128 -0.2492
16387TIP3    H170652   5.767   0.072  14.455 -0.5772 -1.3086 -0.0886
16387TIP3    H270653   5.744   0.158  14.333 -0.0057  0.5676  1.0833
16388TIP3   OH270654   6.613   1.000   2.878  0.3232  0.2940  0.0843
16388TIP3    H170655   6.695   1.049   2.869 -0.7121  1.9740 -0.5148
16388TIP3    H270656   6.545   1.062   2.853 -1.1110 -1.2330  0.0615
16389TIP3   OH270657   6.362   0.403  14.774 -0.0519  0.1854 -0.0090
16389TIP3    H170658   6.373   0.439  14.686  0.1843  3.3322  1.1806
16389TIP3    H270659   6.448   0.369  14.797 -0.3847 -1.7248 -1.3287
16390TIP3   OH270660   4.396   3.554  12.701 -0.3154  0.5495  0.8044
16390TIP3    H170661   4.353   3.504  12.631  0.5706  2.7375 -1.4425
16390TIP3    H270662   4.461   3.493  12.737 -0.7788 -0.6404 -0.2949
16391TIP3   OH270663   2.425   2.357   0.773 -0.9137 -0.5085  0.3635
16391TIP3    H170664   2.422   2.276   0.824  2.3387 -2.1048 -1.6446
16391TIP3    H270665   2.474   2.419   0.827 -0.9328 -0.8388  0.7620
16392TIP3   OH270666   4.726   6.454   5.345  0.1303  0.0621  0.0736
16392TIP3    H170667   4.662   6.385   5.329  1.1994 -0.8719 -0.3253
16392TIP3    H270668   4.790   6.444   5.275  0.6347  1.0647  0.3793
16393TIP3   OH270669   5.998   2.594  13.227 -0.0457 -0.0846 -0.3574
16393TIP3    H170670   5.962   2.570  13.142 -0.4717 -0.9557  0.0559
16393TIP3    H270671   5.984   2.516  13.281 -1.7322  1.1835  1.1303
16394TIP3   OH270672   3.648   3.270   1.202  0.2660 -0.0790  0.1478
16394TIP3    H170673   3.579   3.335   1.211  1.8204  1.5858  0.5922
16394TIP3    H270674   3.728   3.314   1.232  1.3967 -2.1890  0.4760
16395TIP3   OH270675   6.119   3.968  10.508 -0.6321  0.4786  0.4006
16395TIP3    H170676   6.121   3.994  10.600 -1.6084  0.7703  0.3478
16395TIP3    H270677   6.066   3.889  10.506  0.5045 -0.2937  0.2612
16396TIP3   OH270678   3.483   2.559   0.414  0.1639 -0.8433 -0.0513
16396TIP3    H170679   3.397   2.580   0.376 -0.0716  0.0358  0.9199
16396TIP3    H270680   3.471   2.472   0.453 -0.3515 -0.6408  0.2510
16397TIP3   OH270681   1.362   0.627  11.936 -0.1862 -0.0724 -0.5494
16397TIP3    H170682   1.456   0.631  11.951 -0.0930  1.5262 -1.3002
16397TIP3    H270683   1.331   0.715  11.958 -1.2684 -0.1437 -1.6930
16398TIP3   OH270684   4.274   6.122  15.638  0.2709  0.0462 -0.4765
16398TIP3    H170685   4.309   6.033  15.647  0.5681  0.2499  0.5207
16398TIP3    H270686   4.216   6.133  15.714  0.8098  0.9485 -0.1803
16399TIP3   OH270687   2.709   1.072  13.138  0.3748 -0.3324 -0.8567
16399TIP3    H170688   2.738   1.003  13.198 -1.7614 -0.6131 -0.0724
16399TIP3    H270689   2.712   1.032  13.051 -0.6200 -1.3618 -0.4366
16400TIP3   OH270690   5.022   6.216   5.396  0.5245 -0.3836 -0.8043
16400TIP3    H170691   5.082   6.191   5.466  0.9730  2.1379 -0.1872
16400TIP3    H270692   4.945   6.160   5.410  1.5647 -1.6462  0.1705
16401TIP3   OH270693   4.392   0.528  15.509 -0.1752 -0.0292 -0.1652
16401TIP3    H170694   4.380   0.493  15.420  0.1049  1.1054 -0.6666
16401TIP3    H270695   4.467   0.587  15.501  0.8703 -1.1036  1.1902
16402TIP3   OH270696   1.718   2.135   0.116  0.5339 -0.1198  0.4202
16402TIP3    H170697   1.732   2.041   0.101  0.9931 -0.1881  1.2477
16402TIP3    H270698   1.636   2.140   0.165  0.6669 -0.1143  0.6447
16403TIP3   OH270699   5.311   2.929   1.218  0.5889  0.1700 -0.4189
16403TIP3    H170700   5.347   2.995   1.277  3.8335 -1.0955 -0.8139
16403TIP3    H270701   5.354   2.945   1.134  1.1675 -2.1262 -0.6333
16404TIP3   OH270702   4.134   6.304   5.856 -0.3544  0.2431 -0.1270
16404TIP3    H170703   4.212   6.321   5.908  0.1031 -0.3599 -0.5936
16404TIP3    H270704   4.069   6.272   5.918  0.4404 -1.2642 -0.0229
16405TIP3   OH270705   4.837   1.306   1.848  0.1636 -0.3016 -0.4092
16405TIP3    H170706   4.783   1.226   1.848 -0.2838 -0.0149 -1.0244
16405TIP3    H270707   4.902   1.292   1.917 -0.1754 -1.0179 -0.2267
16406TIP3   OH270708   3.219   1.972  15.123 -0.8599 -0.3601  0.0823
16406TIP3    H170709   3.242   1.882  15.098 -1.3571 -0.3647 -0.3661
16406TIP3    H270710   3.296   2.004  15.170 -0.0060 -0.4496 -1.2130
16407TIP3   OH270711   4.334   5.108   6.396  0.0125  0.3681  0.1015
16407TIP3    H170712   4.409   5.107   6.456  1.3536  2.7993 -1.3549
16407TIP3    H270713   4.278   5.178   6.429  0.2921  1.0831 -0.8866
16408TIP3   OH270714   3.591   4.568   0.117 -0.1991 -0.0876 -0.3646
16408TIP3    H170715   3.666   4.628   0.121  0.3868 -0.8486  0.7264
16408TIP3    H270716   3.530   4.603   0.183  0.1363 -0.6517  0.2613
16409TIP3   OH270717   4.959   6.151   0.384  0.0994 -0.3914  0.5464
16409TIP3    H170718   4.987   6.208   0.456  1.4143  1.1792 -1.1242
16409TIP3    H270719   4.975   6.202   0.305 -2.2670 -1.6662 -0.8522
16410TIP3   OH270720   2.841   6.723  16.398  0.4084  0.9374  0.0376
16410TIP3    H170721   2.811   6.650  16.344 -0.8634  1.4437  0.0284
16410TIP3    H270722   2.779   6.793  16.380  0.0238  1.1669  2.0369
16411TIP3   OH270723   3.546   3.312  15.965  0.5941  0.2454  0.6143
16411TIP3    H170724   3.493   3.382  16.004  1.1529  0.8883  0.2272
16411TIP3    H270725   3.560   3.340  15.874  0.9605 -0.2931  0.4998
16412TIP3   OH270726   0.302   3.233   3.079 -0.0640  0.1868  0.6329
16412TIP3    H170727   0.290   3.196   3.166 -0.2780  0.7346  0.8465
16412TIP3    H270728   0.369   3.179   3.038  0.2480  0.1015  1.2448
16413TIP3   OH270729   3.364   4.395   5.042  0.5383  0.4204 -0.5323
16413TIP3    H170730   3.305   4.345   5.098 -1.1485  0.2316 -2.3696
16413TIP3    H270731   3.352   4.486   5.070 -1.0234  0.4372 -1.1745
16414TIP3   OH270732   2.274   2.159   0.227  0.2275 -0.6396 -0.3841
16414TIP3    H170733   2.267   2.125   0.316  0.2217 -1.5195 -0.7067
16414TIP3    H270734   2.267   2.253   0.236  1.5616 -0.6124  0.6945
16415TIP3   OH270735   2.351   6.372  12.913  0.1105 -0.1210  0.2580
16415TIP3    H170736   2.332   6.465  12.914 -0.4499 -0.2265 -0.0846
16415TIP3    H270737   2.379   6.352  13.002 -0.3608  0.2546  0.4935
16416TIP3   OH270738   6.616   4.959   0.459  0.0825 -0.1376 -0.1926
16416TIP3    H170739   6.667   5.012   0.520 -0.7667  0.8461 -0.3198
16416TIP3    H270740   6.531   5.003   0.453 -0.4213 -1.1481 -0.8106
16417TIP3   OH270741   5.145   0.211   5.306 -0.3690  0.0310 -0.1300
16417TIP3    H170742   5.162   0.294   5.260  0.6009  0.1373  0.3816
16417TIP3    H270743   5.054   0.218   5.335 -0.1605  1.1354  0.3205
16418TIP3   OH270744   5.760   2.781   2.582  0.4270  0.4892 -0.6004
16418TIP3    H170745   5.690   2.795   2.518  1.3601  2.8794 -1.2159
16418TIP3    H270746   5.791   2.692   2.565 -0.5014  0.4488 -2.3172
16419TIP3   OH270747   4.272   1.869   5.235 -0.1034 -0.0237  0.1938
16419TIP3    H170748   4.295   1.823   5.316 -0.7448 -0.0014  0.3915
16419TIP3    H270749   4.191   1.915   5.256 -0.4957 -0.3439 -0.5786
16420TIP3   OH270750   2.314   3.299   1.031  0.5350 -0.0263 -0.0227
16420TIP3    H170751   2.263   3.236   0.980 -3.3776  1.8210  1.1991
16420TIP3    H270752   2.290   3.281   1.122  1.8382  1.2350  0.6078
16421TIP3   OH270753   1.515   4.918   3.428  0.2705  0.4626 -0.1443
16421TIP3    H170754   1.480   4.876   3.507 -0.5330  0.0931 -0.6787
16421TIP3    H270755   1.522   5.011   3.451  1.5065  0.1488  0.8538
16422TIP3   OH270756   2.372   4.381  16.655 -0.8993  0.3515 -0.1067
16422TIP3    H170757   2.425   4.338  16.722 -1.3774 -1.3703 -0.7658
16422TIP3    H270758   2.436   4.423  16.597 -0.3314 -0.4277 -0.0572
16423TIP3   OH270759   6.242   5.385  12.915 -0.4771 -0.4698 -0.0705
16423TIP3    H170760   6.303   5.317  12.945  1.9181  0.7752 -1.7975
16423TIP3    H270761   6.290   5.467  12.926 -2.6067  0.8141  0.2423
16424TIP3   OH270762   1.930   4.199  13.819  0.9422 -0.2205  0.3138
16424TIP3    H170763   1.894   4.177  13.733  1.8909 -1.3392  0.1857
16424TIP3    H270764   1.940   4.295  13.816  0.3784 -0.1700 -0.5694
16425TIP3   OH270765   0.145   4.447  16.553  0.1024  0.1439 -0.0896
16425TIP3    H170766   0.107   4.516  16.607  0.3501  1.3772 -1.4196
16425TIP3    H270767   0.114   4.366  16.593 -0.7049  1.0247  1.1680
16426TIP3   OH270768   1.804   5.039  10.303  0.1982 -0.0018 -0.1684
16426TIP3    H170769   1.763   5.074  10.382 -1.5439  0.8289 -1.3822
16426TIP3    H270770   1.824   4.948  10.325  0.7508  0.4957  1.5660
16427TIP3   OH270771   0.162   4.717   3.659  0.4780 -0.1644  0.4530
16427TIP3    H170772   0.208   4.801   3.660  0.8212 -0.3462  1.7828
16427TIP3    H270773   0.137   4.705   3.567  1.5357  0.7700  0.0142
16428TIP3   OH270774   5.939   6.739   1.898 -0.1400 -0.1592  0.2156
16428TIP3    H170775   6.022   6.772   1.864 -0.3108  0.0069 -0.0471
16428TIP3    H270776   5.873   6.793   1.855 -0.3913 -0.3971  0.2997
16429TIP3   OH270777   5.903   6.036   1.798 -0.2653 -0.4314  0.6280
16429TIP3    H170778   5.981   6.086   1.820 -0.4667 -0.3083  1.0759
16429TIP3    H270779   5.936   5.955   1.759  0.0734 -0.2139  0.4626
16430TIP3   OH270780   2.298   0.095   0.942  0.1986 -0.3098 -0.5156
16430TIP3    H170781   2.216   0.139   0.921 -0.9661 -2.6409 -1.1590
16430TIP3    H270782   2.325   0.052   0.861  0.8147 -1.4509  0.2499
16431TIP3   OH270783   0.362   0.312  14.408 -0.0167 -0.1359 -0.3991
16431TIP3    H170784   0.335   0.269  14.327 -0.3403 -0.7788  0.0431
16431TIP3    H270785   0.284   0.313  14.463  0.5773 -1.1439  0.5162
16432TIP3   OH270786   2.822   1.224   3.698 -0.1358 -0.4657 -0.2437
16432TIP3    H170787   2.860   1.245   3.784  1.0989 -0.9477 -0.6572
16432TIP3    H270788   2.759   1.294   3.683  3.5218  2.9725 -1.4007
16433TIP3   OH270789   6.268   2.977  13.321 -0.1844  0.0209  0.0188
16433TIP3    H170790   6.210   3.045  13.356 -1.8106 -0.9834 -0.6152
16433TIP3    H270791   6.346   2.981  13.378 -0.1592  2.4341 -0.0591
16434TIP3   OH270792   5.733   4.180   1.215 -0.2699  0.1115  0.5776
16434TIP3    H170793   5.688   4.192   1.298 -0.0347 -0.3885  0.7840
16434TIP3    H270794   5.769   4.266   1.195 -0.0532  0.1612  1.1568
16435TIP3   OH270795   2.192   3.819  11.208 -0.3876  0.1322 -0.1201
16435TIP3    H170796   2.127   3.815  11.137  0.7104 -0.3884 -1.1370
16435TIP3    H270797   2.241   3.899  11.192 -1.8443  1.4794  1.6763
16436TIP3   OH270798   0.442   3.992  11.812 -0.3320 -0.1437 -0.3300
16436TIP3    H170799   0.499   3.996  11.889 -2.1141  2.3187  0.9911
16436TIP3    H270800   0.499   3.961  11.742  2.1820  0.5201  1.2796
16437TIP3   OH270801   5.802   4.545  14.098 -0.1782 -0.3584  0.2429
16437TIP3    H170802   5.713   4.574  14.117 -0.3862 -1.4635  1.0460
16437TIP3    H270803   5.829   4.598  14.023 -1.4800  0.0433  0.0369
16438TIP3   OH270804   0.133   0.361  15.336 -0.5891 -0.2509 -0.1816
16438TIP3    H170805   0.211   0.306  15.322  0.0703  0.4205  0.7292
16438TIP3    H270806   0.168   0.447  15.358 -1.6154  0.4855 -1.3558
16439TIP3   OH270807   1.480   1.429   3.767  0.7075 -0.0460 -0.3026
16439TIP3    H170808   1.416   1.360   3.752 -1.4988  1.9944 -0.8549
16439TIP3    H270809   1.501   1.422   3.861  0.7244 -1.5732 -0.3977
16440TIP3   OH270810   3.840   5.996   5.476 -0.0731  0.2434  0.0417
16440TIP3    H170811   3.779   6.065   5.501 -0.2999  0.4717 -1.1209
16440TIP3    H270812   3.900   5.989   5.551 -0.7611  0.8692  0.6646
16441TIP3   OH270813   1.532   3.405  16.202  0.3978  0.1529 -0.0694
16441TIP3    H170814   1.505   3.410  16.111  1.3860 -0.8580 -0.4474
16441TIP3    H270815   1.469   3.459  16.250  0.0980  1.0113 -1.3937
16442TIP3   OH270816   3.618   3.985   3.387 -0.0716 -0.1374 -0.1106
16442TIP3    H170817   3.573   4.063   3.419 -0.7666 -1.0324  1.1393
16442TIP3    H270818   3.703   3.986   3.432  1.6886  2.0303 -3.1212
16443TIP3   OH270819   5.217   6.428   5.091 -0.5781 -0.0238 -0.1729
16443TIP3    H170820   5.135   6.407   5.136  0.7442 -1.2471  1.8405
16443TIP3    H270821   5.231   6.521   5.109 -1.3226  0.0971 -0.1969
16444TIP3   OH270822   6.561   6.029   0.215  0.5414  0.1309  0.0195
16444TIP3    H170823   6.520   6.086   0.151 -1.0463  0.3491  1.1717
16444TIP3    H270824   6.588   6.087   0.286 -1.8596 -0.5364  1.6001
16445TIP3   OH270825   4.356   5.311   0.581 -0.3082 -0.0749  0.5623
16445TIP3    H170826   4.302   5.355   0.648  1.2637  1.0598  1.1455
16445TIP3    H270827   4.445   5.340   0.600  0.6498 -2.5215  0.1237
16446TIP3   OH270828   3.544   6.477   1.365  0.0614  0.1768  0.1843
16446TIP3    H170829   3.610   6.508   1.426 -0.3575  0.4230  0.5143
16446TIP3    H270830   3.479   6.548   1.361  1.2417  1.2384 -2.3638
16447TIP3   OH270831   6.406   1.794   5.499 -0.2432  0.4050  0.1312
16447TIP3    H170832   6.456   1.715   5.478  0.5315  1.3177 -1.6731
16447TIP3    H270833   6.389   1.835   5.414  0.0467  2.5832  1.0614
16448TIP3   OH270834   6.531   6.157  16.421 -0.2407  0.3239 -0.1892
16448TIP3    H170835   6.439   6.140  16.443 -0.5273  1.1253 -0.7338
16448TIP3    H270836   6.528   6.235  16.366  0.5401 -0.9213 -2.1340
16449TIP3   OH270837   1.878   5.993  12.935 -0.2599 -0.5740  0.9414
16449TIP3    H170838   1.856   6.071  12.885 -1.3924 -0.3231  1.7998
16449TIP3    H270839   1.797   5.942  12.937  0.2487 -1.3976  1.0591
16450TIP3   OH270840   1.809   4.060   3.395 -0.0005 -0.1319 -0.1212
16450TIP3    H170841   1.715   4.069   3.414 -0.1466 -2.7899  0.8424
16450TIP3    H270842   1.820   3.967   3.373  2.1795  0.4383 -1.7468
16451TIP3   OH270843   0.512   5.590   3.303  0.4220  0.8604  0.0402
16451TIP3    H170844   0.489   5.672   3.347 -1.2179  0.3019  0.2745
16451TIP3    H270845   0.431   5.540   3.302  1.6024 -1.1750  0.7590
16452TIP3   OH270846   5.681   4.378   3.050 -0.4426 -0.3102 -0.0426
16452TIP3    H170847   5.623   4.314   3.090  0.1781  0.6289  2.5139
16452TIP3    H270848   5.639   4.462   3.068  0.6824  0.2435  0.0366
16453TIP3   OH270849   6.205   5.457  14.978  0.9940  0.4034  0.3335
16453TIP3    H170850   6.125   5.447  15.030  1.0669  0.6974  0.4994
16453TIP3    H270851   6.175   5.450  14.887  1.2269 -3.0871  0.3931
16454TIP3   OH270852   5.418   6.432   6.628  0.5382 -0.1545 -0.1278
16454TIP3    H170853   5.359   6.376   6.679  0.9129 -0.0767  0.4010
16454TIP3    H270854   5.496   6.440   6.682  0.2852  1.3107  0.0578
16455TIP3   OH270855   3.741   1.498   0.649 -0.1102  0.4368  0.5432
16455TIP3    H170856   3.746   1.403   0.645  1.3187  0.5104  0.0291
16455TIP3    H270857   3.652   1.516   0.679 -0.3918 -1.0520  0.6793
16456TIP3   OH270858   4.430   1.812   4.791 -0.0405  0.4579  0.1423
16456TIP3    H170859   4.511   1.760   4.794  0.1984  0.8552  1.7546
16456TIP3    H270860   4.457   1.896   4.754 -0.3628 -0.3882 -2.1703
16457TIP3   OH270861   6.714   0.449  14.965 -0.6759 -0.6953 -0.0608
16457TIP3    H170862   6.787   0.388  14.975  0.5068  0.7113  0.1479
16457TIP3    H270863   6.640   0.404  15.006  0.6752 -1.1177  2.0995
16458TIP3   OH270864   6.478   4.659   5.252 -0.1927 -0.8790  0.0756
16458TIP3    H170865   6.442   4.570   5.245 -1.1049 -0.5835  0.7719
16458TIP3    H270866   6.509   4.679   5.164 -0.3892 -1.7143 -0.1963
16459TIP3   OH270867   4.702   5.386  16.943  1.2516  0.6156 -0.3726
16459TIP3    H170868   4.615   5.407  16.908  0.5705 -0.0669  0.8404
16459TIP3    H270869   4.686   5.363  17.034  2.3915 -1.8645 -0.7275
16460TIP3   OH270870   5.488   4.813  15.483 -0.5557  0.4818  0.1129
16460TIP3    H170871   5.500   4.907  15.497 -2.2404  0.9086 -0.9863
16460TIP3    H270872   5.559   4.788  15.424 -0.5448  1.2451 -0.2036
16461TIP3   OH270873   3.073   6.384   0.748 -0.1736  0.1814 -0.3217
16461TIP3    H170874   3.104   6.323   0.681 -0.6968  0.3111 -0.6887
16461TIP3    H270875   3.150   6.436   0.771 -0.2567  1.0002 -1.7672
16462TIP3   OH270876   2.783   6.204  12.547 -0.1914 -0.3700  0.5669
16462TIP3    H170877   2.695   6.238  12.563 -1.2292 -2.0426 -1.1450
16462TIP3    H270878   2.824   6.269  12.490 -0.7631 -0.1252  0.4259
16463TIP3   OH270879   0.206   6.365  15.705  0.6054 -0.4626 -0.3639
16463TIP3    H170880   0.282   6.409  15.668 -0.0871  0.6626 -0.4971
16463TIP3    H270881   0.133   6.390  15.648  0.1365 -1.5913 -0.2942
16464TIP3   OH270882   1.240   1.337  12.781  0.2108  0.1272  0.4267
16464TIP3    H170883   1.326   1.380  12.788 -0.5417  1.6980  0.5535
16464TIP3    H270884   1.218   1.342  12.688 -0.4577  1.2784  0.6202
16465TIP3   OH270885   2.282   4.447   5.206 -0.1387  0.0913  0.6427
16465TIP3    H170886   2.322   4.360   5.208 -1.3416 -0.4873  1.2777
16465TIP3    H270887   2.204   4.438   5.262  1.1793  2.3139  3.0826
16466TIP3   OH270888   4.780   3.842  11.508  0.4149  0.1971  0.0210
16466TIP3    H170889   4.825   3.924  11.487  0.4611  0.2805  0.4292
16466TIP3    H270890   4.745   3.811  11.424  1.3864  0.0315 -0.3421
16467TIP3   OH270891   1.050   6.307   1.807 -0.0983 -0.4984 -0.5155
16467TIP3    H170892   0.996   6.342   1.878 -1.7682 -1.2433 -1.3542
16467TIP3    H270893   0.987   6.277   1.741  1.3783 -0.3577 -2.0781
16468TIP3   OH270894   6.495   3.903   0.812  0.6313 -0.2779  0.0353
16468TIP3    H170895   6.413   3.895   0.764  0.4348  3.2298 -0.4695
16468TIP3    H270896   6.474   3.961   0.885  2.0928 -1.5474  1.5605
16469TIP3   OH270897   4.567   0.541  17.209 -0.0087 -0.3584  0.6730
16469TIP3    H170898   4.648   0.576  17.245 -0.7267 -0.3510  2.3536
16469TIP3    H270899   4.560   0.453  17.247 -0.0679 -0.9266 -0.6102
16470TIP3   OH270900   1.390   2.623   5.039  0.2292  0.1136 -0.1936
16470TIP3    H170901   1.479   2.652   5.018  0.2480  1.3360  1.4173
16470TIP3    H270902   1.333   2.685   4.993  0.2193 -0.2871 -0.7197
16471TIP3   OH270903   4.808   1.081  11.904 -0.0859  0.2989  0.1909
16471TIP3    H170904   4.835   1.092  11.813  0.7675 -0.5712  0.3232
16471TIP3    H270905   4.782   0.989  11.910 -0.1608  0.3566  0.8177
16472TIP3   OH270906   0.638   2.575   2.181  0.2237  0.0771  0.0450
16472TIP3    H170907   0.639   2.670   2.187  0.2407  0.1479 -0.9578
16472TIP3    H270908   0.720   2.553   2.136 -0.9982 -0.2112 -2.1772
16473TIP3   OH270909   2.740   0.963  14.416  0.3900  0.5434  0.0553
16473TIP3    H170910   2.730   0.977  14.322 -0.5835 -0.2834  0.0212
16473TIP3    H270911   2.829   0.929  14.426 -0.0537 -0.9628 -0.7803
16474TIP3   OH270912   6.083   0.026  13.790 -0.4352 -0.5748 -0.7469
16474TIP3    H170913   6.000   0.022  13.839  0.0875 -0.0664  0.2035
16474TIP3    H270914   6.069   0.095  13.726 -0.2595  0.5320  0.3745
16475TIP3   OH270915   1.176   6.601  15.038 -0.0098  0.5528  0.6448
16475TIP3    H170916   1.141   6.531  14.983 -1.0625 -0.1107  2.1039
16475TIP3    H270917   1.118   6.675  15.023 -0.5157  0.2577  1.1355
16476TIP3   OH270918   1.343   6.232  11.967  0.0942  0.4478 -0.1026
16476TIP3    H170919   1.300   6.161  11.918 -0.0930 -0.3628  1.1691
16476TIP3    H270920   1.431   6.238  11.929 -0.2397  0.2585 -0.9242
16477TIP3   OH270921   0.725   2.775  13.327 -0.0126  0.8484  0.5838
16477TIP3    H170922   0.754   2.706  13.387 -0.0954  0.0128 -0.3175
16477TIP3    H270923   0.805   2.826  13.310  0.5651 -0.3363 -0.4351
16478TIP3   OH270924   4.745   0.270  17.117  0.3699  0.0766  0.2773
16478TIP3    H170925   4.828   0.318  17.125  0.4583 -0.2474  1.4686
16478TIP3    H270926   4.712   0.263  17.206 -1.0337  0.3263 -0.1961
16479TIP3   OH270927   1.899   0.457  14.567 -0.2518 -0.1631 -0.2401
16479TIP3    H170928   1.875   0.365  14.565 -1.3853  0.0728  0.9725
16479TIP3    H270929   1.819   0.503  14.542  0.5310  0.4801 -1.6513
16480TIP3   OH270930   2.266   0.064  11.166  0.2502 -0.0966  0.2891
16480TIP3    H170931   2.174   0.093  11.168  0.1502 -0.4483  1.5635
16480TIP3    H270932   2.312   0.136  11.124 -0.3847  0.8142  1.0898
16481TIP3   OH270933   5.436   2.543   1.056 -0.3449 -0.1612  0.3778
16481TIP3    H170934   5.520   2.589   1.057  2.2942 -4.4780  0.3539
16481TIP3    H270935   5.416   2.528   1.148 -0.5855 -0.0447  0.3466
16482TIP3   OH270936   5.233   5.668  12.653 -0.5138  0.0766 -0.7916
16482TIP3    H170937   5.218   5.762  12.651 -1.7491 -0.0511  0.5627
16482TIP3    H270938   5.188   5.635  12.575  2.1420  0.8124 -2.7551
16483TIP3   OH270939   4.587   5.750   3.792 -0.2522 -0.1148  0.1224
16483TIP3    H170940   4.607   5.718   3.704  1.0820 -0.0831  0.3835
16483TIP3    H270941   4.660   5.717   3.845 -0.2057  1.1897  0.8999
16484TIP3   OH270942   1.547   1.896  13.046 -0.0786  0.3987  0.0134
16484TIP3    H170943   1.502   1.916  12.965  1.2009 -0.3073 -0.9030
16484TIP3    H270944   1.640   1.911  13.027  0.2728 -0.0488  1.2438
16485TIP3   OH270945   0.752   2.091   2.750 -0.1308  0.1079 -0.2359
16485TIP3    H170946   0.840   2.096   2.787 -0.6277 -0.9891  1.2028
16485TIP3    H270947   0.728   2.182   2.733  0.8194  0.5265  0.5156
16486TIP3   OH270948   1.833   0.523  15.523 -0.4846 -0.4124 -0.0980
16486TIP3    H170949   1.847   0.428  15.530  1.5649 -0.0950  0.7974
16486TIP3    H270950   1.797   0.534  15.435  0.5186 -1.9309 -0.7671
16487TIP3   OH270951   6.145   1.710  14.822  0.1600  0.2352  0.0985
16487TIP3    H170952   6.164   1.616  14.820 -0.8814  0.0033  0.6624
16487TIP3    H270953   6.106   1.728  14.736 -0.6979 -0.0955  0.4038
16488TIP3   OH270954   0.882   3.173  12.290  0.4040  0.1367  0.0603
16488TIP3    H170955   0.801   3.135  12.323  0.1467  1.0913  0.5631
16488TIP3    H270956   0.945   3.101  12.293 -0.4984 -0.7296 -0.7089
16489TIP3   OH270957   0.822   4.714  15.779 -0.1275  0.5026  0.2575
16489TIP3    H170958   0.896   4.656  15.791 -0.8584 -0.6693 -0.6933
16489TIP3    H270959   0.775   4.679  15.703 -2.6845  0.0752  1.8953
16490TIP3   OH270960   2.395   5.261  13.148  0.6366 -0.2867 -0.1370
16490TIP3    H170961   2.375   5.288  13.238 -0.9249 -1.7553 -0.0034
16490TIP3    H270962   2.311   5.235  13.111  1.2554  0.2563 -2.0439
16491TIP3   OH270963   4.716   0.825  12.175 -0.1606 -0.1732 -0.3813
16491TIP3    H170964   4.651   0.887  12.209 -0.1719 -0.9621  1.0786
16491TIP3    H270965   4.792   0.880  12.154  0.1788  0.2575  1.7877
16492TIP3   OH270966   3.165   1.097   5.523  0.9238 -0.7746  0.2816
16492TIP3    H170967   3.179   1.108   5.617 -1.8849  1.0483  0.6061
16492TIP3    H270968   3.073   1.069   5.516  1.2167 -1.3368 -1.9245
16493TIP3   OH270969   3.617   0.547   3.035 -0.2051  0.0585  0.5002
16493TIP3    H170970   3.545   0.607   3.056  1.8342  2.4130  1.2743
16493TIP3    H270971   3.591   0.464   3.074 -1.9421  1.1769  1.9089
16494TIP3   OH270972   4.978   1.926  12.592 -0.0459 -0.1419 -0.1009
16494TIP3    H170973   4.986   1.848  12.538  1.9364 -2.3455  3.0876
16494TIP3    H270974   4.889   1.921  12.628  0.1141 -0.9856  0.1783
16495TIP3   OH270975   2.642   2.360   3.403  0.0737 -0.1690 -0.5155
16495TIP3    H170976   2.548   2.346   3.413  0.2560 -1.1840 -0.1138
16495TIP3    H270977   2.678   2.349   3.491  0.5803  0.1659 -0.6732
16496TIP3   OH270978   6.679   6.281   1.789  0.0114  0.3769  0.1639
16496TIP3    H170979   6.595   6.251   1.754 -0.6246 -1.2965  2.8274
16496TIP3    H270980   6.720   6.202   1.825  2.4457  1.2836 -0.4242
16497TIP3   OH270981   0.805   5.806   5.081 -0.1557  0.6715 -0.0118
16497TIP3    H170982   0.751   5.879   5.111 -0.2034  1.2460 -1.4462
16497TIP3    H270983   0.774   5.788   4.993  1.6091  0.6583 -0.6679
16498TIP3   OH270984   2.528   1.024   4.883 -0.2698  0.0846  0.3264
16498TIP3    H170985   2.513   1.094   4.947  2.3765  1.4678 -0.4136
16498TIP3    H270986   2.550   0.947   4.937  0.6391  0.8746  1.1185
16499TIP3   OH270987   6.716   4.024   2.484 -0.3026  0.3153  0.5386
16499TIP3    H170988   6.725   4.092   2.551  0.1880  0.4159  0.3739
16499TIP3    H270989   6.623   4.001   2.486 -0.0708 -0.6161  2.1583
16500TIP3   OH270990   1.521   5.123  15.346 -1.2892  0.1976 -0.1702
16500TIP3    H170991   1.597   5.105  15.400 -0.2289 -0.2408 -1.7238
16500TIP3    H270992   1.525   5.217  15.329 -0.6918  0.0746 -0.7730
16501TIP3   OH270993   6.633   0.389  12.115 -0.4954 -0.2505 -0.5925
16501TIP3    H170994   6.577   0.426  12.046 -1.7513 -1.8745 -0.4921
16501TIP3    H270995   6.622   0.448  12.189 -0.5101  0.5295 -1.1968
16502TIP3   OH270996   6.709   4.318   2.288  0.2344 -0.1592  0.6167
16502TIP3    H170997   6.657   4.367   2.225  0.9453 -1.4513 -1.0558
16502TIP3    H270998   6.792   4.366   2.293 -0.0228  0.2484  0.9947
16503TIP3   OH270999   1.293   1.318   4.358  0.0554 -0.0262  0.1466
16503TIP3    H171000   1.282   1.223   4.363 -0.5166  0.0902  3.0274
16503TIP3    H271001   1.385   1.332   4.382  0.3905  0.1223 -1.1893
16504TIP3   OH271002   2.908   2.579   0.016  0.0575 -0.3479  0.5659
16504TIP3    H171003   2.976   2.637   0.052  1.0699 -0.3291 -1.2632
16504TIP3    H271004   2.912   2.593  -0.078 -2.3451 -0.5590  0.3750
16505TIP3   OH271005   5.414   5.111   2.861 -0.1292  1.0037  0.2420
16505TIP3    H171006   5.355   5.134   2.788  0.4736  0.7546 -0.3350
16505TIP3    H271007   5.422   5.192   2.911 -0.6977  1.1303  0.1409
16506TIP3   OH271008   1.240   0.227   4.010  0.1280 -0.5859  0.4859
16506TIP3    H171009   1.179   0.253   4.080  0.3403  2.2414 -0.2413
16506TIP3    H271010   1.184   0.202   3.937 -0.0999 -2.0528  1.1410
16507TIP3   OH271011   1.758   3.046   1.219  0.7261 -0.0578  0.2150
16507TIP3    H171012   1.708   3.014   1.143  0.2015  1.1367  0.0392
16507TIP3    H271013   1.849   3.038   1.193  0.5993 -0.8968 -0.0245
16508TIP3   OH271014   3.616   4.087   5.685  0.2511  0.4443  0.0939
16508TIP3    H171015   3.642   4.008   5.733  1.3685  0.7077 -0.0523
16508TIP3    H271016   3.699   4.129   5.662 -0.2350  3.5352  3.2115
16509TIP3   OH271017   6.603   2.483   5.555 -0.1632  0.2527  0.1797
16509TIP3    H171018   6.654   2.405   5.534 -1.0799 -0.4500  0.5069
16509TIP3    H271019   6.665   2.555   5.547  0.7619 -0.5329  0.1214
16510TIP3   OH271020   1.386   5.134   4.877 -0.0712 -0.3555  0.5458
16510TIP3    H171021   1.352   5.222   4.862 -1.0031 -0.8849 -0.5549
16510TIP3    H271022   1.363   5.085   4.798  0.9005 -1.4548  0.9150
16511TIP3   OH271023   6.507   6.749   5.529 -0.6431 -0.2175  0.1636
16511TIP3    H171024   6.417   6.756   5.561 -0.4241 -0.1412  0.7830
16511TIP3    H271025   6.561   6.767   5.606 -0.0940  0.7683 -0.4320
16512TIP3   OH271026   6.539   5.453  16.638  0.8325  0.4959  0.3679
16512TIP3    H171027   6.504   5.542  16.635 -0.1398  0.0946 -0.8452
16512TIP3    H271028   6.470   5.399  16.602  2.7717 -0.2960 -2.5412
16513TIP3   OH271029   3.146   4.841  15.295  0.1532 -0.0357 -0.0445
16513TIP3    H171030   3.227   4.891  15.284  0.5518 -0.9765 -1.7101
16513TIP3    H271031   3.120   4.857  15.385  1.6223  1.1460  0.2021
16514TIP3   OH271032   0.344   4.305  11.658 -0.5765  0.1287  0.8736
16514TIP3    H171033   0.320   4.244  11.727 -0.9396 -0.6826  0.0450
16514TIP3    H271034   0.263   4.319  11.609 -0.4842  1.2223  1.0065
16515TIP3   OH271035   2.144   1.736  11.782 -0.4274  0.5423  0.1846
16515TIP3    H171036   2.174   1.713  11.694  0.6872  0.1633  0.6448
16515TIP3    H271037   2.098   1.658  11.813 -0.1052  0.3733  0.2429
16516TIP3   OH271038   3.775   1.905  15.314 -0.1014  0.1025  0.1961
16516TIP3    H171039   3.826   1.871  15.241  0.5152  0.6881  0.3472
16516TIP3    H271040   3.797   1.998  15.318  0.5792 -0.0900  1.6840
16517TIP3   OH271041   2.756   3.797   3.921  0.5357  0.0614  0.5731
16517TIP3    H171042   2.725   3.736   3.988  0.5325  0.5691  1.0397
16517TIP3    H271043   2.727   3.883   3.951  1.8612  0.4901  0.7288
16518TIP3   OH271044   4.341   2.789  12.239 -0.2416 -0.0516 -0.2584
16518TIP3    H171045   4.272   2.780  12.174  0.1521 -0.1763 -0.6621
16518TIP3    H271046   4.312   2.735  12.312 -0.9928  0.5863 -0.0627
16519TIP3   OH271047   6.434   3.269  11.377  0.4791 -0.3723 -0.1566
16519TIP3    H171048   6.514   3.263  11.429  0.3713 -2.6627 -0.1862
16519TIP3    H271049   6.371   3.215  11.424 -0.9464  1.0245 -0.3911
16520TIP3   OH271050   3.782   6.617  13.719  0.7448  0.5993 -0.2995
16520TIP3    H171051   3.789   6.694  13.662  1.3138 -0.3821 -1.6022
16520TIP3    H271052   3.869   6.577  13.714  0.8473  0.5679  1.4053
16521TIP3   OH271053   4.281   4.862  12.940 -0.0156  0.0349 -0.2057
16521TIP3    H171054   4.211   4.920  12.910  0.8893  1.2727  0.0055
16521TIP3    H271055   4.260   4.777  12.901 -1.8616  0.2629  0.2040
16522TIP3   OH271056   3.283   1.500   2.801 -0.7916  0.4460  0.0416
16522TIP3    H171057   3.378   1.500   2.784 -0.4268  0.8445  1.9343
16522TIP3    H271058   3.259   1.408   2.800 -0.3967  0.3403 -0.4340
16523TIP3   OH271059   6.016   0.439   2.026  0.0792  0.6425 -0.5496
16523TIP3    H171060   5.993   0.519   2.073 -0.8037 -0.2147  0.5453
16523TIP3    H271061   6.023   0.372   2.095  0.2361 -0.3419 -1.4968
16524TIP3   OH271062   2.860   1.881  14.402  0.3254 -0.2736  0.1908
16524TIP3    H171063   2.888   1.902  14.313  1.0703  0.5932  0.6183
16524TIP3    H271064   2.904   1.946  14.457 -2.3767  1.0631  0.9214
16525TIP3   OH271065   2.769   2.567  13.352  0.0213 -0.2800 -0.3867
16525TIP3    H171066   2.684   2.577  13.310 -0.3569  0.4490  0.5305
16525TIP3    H271067   2.823   2.635  13.313 -0.4171  0.5970  0.5009
16526TIP3   OH271068   3.913   1.159  15.737  0.5230  0.5905 -0.1936
16526TIP3    H171069   3.901   1.084  15.795  0.7975 -0.0043 -0.8913
16526TIP3    H271070   3.981   1.132  15.676 -0.3759  0.8419 -1.3557
16527TIP3   OH271071   1.923   5.315   2.302 -0.7515  0.2266 -0.1199
16527TIP3    H171072   1.892   5.229   2.274  0.9938 -0.1386 -1.1002
16527TIP3    H271073   1.994   5.296   2.364 -1.0629  0.9830  0.4830
16528TIP3   OH271074   5.174   1.689   4.402 -0.1762  0.8600 -0.5130
16528TIP3    H171075   5.227   1.766   4.382  0.9676 -0.0494 -1.1100
16528TIP3    H271076   5.118   1.716   4.475  0.9592  1.9154 -0.0063
16529TIP3   OH271077   1.451   2.989   3.479  0.4359 -0.3454 -0.2553
16529TIP3    H171078   1.521   3.053   3.464 -0.7702  1.2606  0.5811
16529TIP3    H271079   1.462   2.923   3.411  1.8961  0.6199 -0.9903
16530TIP3   OH271080   6.764   2.388  16.402 -0.1326 -0.2063 -0.2047
16530TIP3    H171081   6.798   2.310  16.445  1.0182 -0.3357 -1.2725
16530TIP3    H271082   6.673   2.394  16.429  0.1317 -1.1513  0.9603
16531TIP3   OH271083   0.057   2.048  12.559 -0.4486  0.3344 -0.1107
16531TIP3    H171084   0.123   2.042  12.490 -1.3857 -1.0110 -0.9417
16531TIP3    H271085   0.054   2.142  12.580  0.4063  0.6783 -1.3620
16532TIP3   OH271086   2.245   0.225  12.131  0.2359 -1.3432 -0.2298
16532TIP3    H171087   2.268   0.135  12.106  1.2779 -0.4660 -2.7294
16532TIP3    H271088   2.329   0.271  12.134 -0.3687 -0.2233  0.0510
16533TIP3   OH271089   1.693   6.115   6.136 -0.0712  0.2450 -0.0141
16533TIP3    H171090   1.629   6.059   6.092  0.4171  0.3319 -0.8524
16533TIP3    H271091   1.640   6.175   6.189 -0.7520  0.8920 -1.3680
16534TIP3   OH271092   4.390   3.657   3.626 -0.0784 -0.2468  0.1381
16534TIP3    H171093   4.312   3.692   3.582 -1.7687 -0.7655  2.5103
16534TIP3    H271094   4.374   3.562   3.631  1.0792 -0.4622  0.0173
16535TIP3   OH271095   3.095   2.001  14.002  0.3939 -0.6936 -0.2411
16535TIP3    H171096   3.185   1.975  14.024  0.3584 -0.2132  0.5134
16535TIP3    H271097   3.051   1.918  13.982  0.7108 -1.0515  0.5003
16536TIP3   OH271098   0.995   0.013   4.669 -0.3243 -0.2461 -0.0112
16536TIP3    H171099   0.911  -0.008   4.711 -0.9328  0.2322 -0.9355
16536TIP3    H271100   1.023   0.094   4.711 -1.2612  0.5941 -0.9387
16537TIP3   OH271101   0.773   2.142   3.722  0.3904 -0.5685  0.2440
16537TIP3    H171102   0.827   2.176   3.794 -0.6561 -0.0829  0.8205
16537TIP3    H271103   0.757   2.051   3.745  0.7706 -0.6534  0.1828
16538TIP3   OH271104   1.519   3.347  15.133 -0.3351  0.5638  0.0295
16538TIP3    H171105   1.474   3.386  15.207 -1.7623  0.4283 -0.7167
16538TIP3    H271106   1.548   3.421  15.080 -0.5821  0.6434  0.0052
16539TIP3   OH271107   0.084   5.533  17.063 -0.0835 -0.8955  0.1058
16539TIP3    H171108   0.011   5.475  17.084 -0.5598 -0.3465 -0.0152
16539TIP3    H271109   0.044   5.618  17.048  0.4482 -0.8492 -1.1702
16540TIP3   OH271110   0.907   5.215   1.149 -0.2923 -0.6370 -0.5940
16540TIP3    H171111   0.984   5.205   1.093 -0.6707 -1.2669 -1.0178
16540TIP3    H271112   0.901   5.309   1.165  0.2500 -0.5273 -1.0043
16541TIP3   OH271113   1.229   0.760  12.943  0.2882  0.2286  0.1944
16541TIP3    H171114   1.294   0.778  12.876  2.4421 -0.7351  1.8855
16541TIP3    H271115   1.227   0.665  12.950 -1.0434  0.2525  0.4626
16542TIP3   OH271116   4.733   6.013   0.415  0.2252 -0.2086 -0.1507
16542TIP3    H171117   4.820   6.053   0.409  0.2625 -0.3533 -0.5732
16542TIP3    H271118   4.673   6.087   0.421  0.2854 -0.0813 -1.0569
16543TIP3   OH271119   4.454   3.446  12.375  0.1975 -0.4554  0.4184
16543TIP3    H171120   4.519   3.476  12.438  0.7175 -1.6724  0.4864
16543TIP3    H271121   4.419   3.366  12.413 -0.4896 -0.4581 -0.1902
16544TIP3   OH271122   0.260   6.299   0.372 -0.1412  0.3903  0.4016
16544TIP3    H171123   0.301   6.213   0.375  0.1626  0.4815  4.5634
16544TIP3    H271124   0.166   6.280   0.363  0.1184 -0.1155 -1.9188
16545TIP3   OH271125   5.572   4.367   0.520 -0.3874 -0.2630  0.0046
16545TIP3    H171126   5.506   4.298   0.514 -0.9647  0.0294  2.0402
16545TIP3    H271127   5.569   4.394   0.612  0.1413  2.1498 -0.6195
16546TIP3   OH271128   2.333   5.693   1.842  0.4933 -0.4248  0.3144
16546TIP3    H171129   2.357   5.707   1.934 -0.2447  0.3111  0.4100
16546TIP3    H271130   2.324   5.599   1.833 -0.2377 -0.4555  1.2175
16547TIP3   OH271131   2.033   4.826  13.504 -0.4041  0.0873  0.1133
16547TIP3    H171132   2.016   4.792  13.416 -1.7914  0.0570  0.3711
16547TIP3    H271133   1.998   4.759  13.562  1.6144 -0.4997  0.7586
16548TIP3   OH271134   4.438   3.956   6.340 -0.1227 -0.4625  0.6157
16548TIP3    H171135   4.376   3.897   6.381  0.3308 -0.7847  0.8441
16548TIP3    H271136   4.476   3.905   6.268 -1.0315  0.1466 -0.3312
16549TIP3   OH271137   6.270   6.620   3.735  0.1655 -0.6467 -0.3158
16549TIP3    H171138   6.200   6.612   3.800 -0.5822  2.0683 -0.6600
16549TIP3    H271139   6.224   6.620   3.651  0.6881 -0.1325 -0.6088
16550TIP3   OH271140   0.264   0.783   2.021  0.1507  0.3784  0.2672
16550TIP3    H171141   0.185   0.834   2.034  0.4380  0.5476  1.3978
16550TIP3    H271142   0.310   0.828   1.949  1.0367  2.5360  2.0805
16551TIP3   OH271143   6.614   1.691  13.895  0.5898  0.1365 -0.7872
16551TIP3    H171144   6.630   1.611  13.945  2.1681  0.5570 -0.5401
16551TIP3    H271145   6.701   1.730  13.885 -0.1637  1.9906 -0.6005
16552TIP3   OH271146   4.813   1.094   1.446 -0.8383  0.8042 -0.0120
16552TIP3    H171147   4.786   1.013   1.490 -0.8012  0.3267 -0.8414
16552TIP3    H271148   4.732   1.144   1.436 -0.9719  0.5739 -0.0820
16553TIP3   OH271149   4.244   1.024  16.437 -0.2325  0.3516 -0.1477
16553TIP3    H171150   4.164   1.010  16.489 -0.5037  0.0052 -0.6463
16553TIP3    H271151   4.315   0.996  16.495 -0.4402  1.0080  0.4350
16554TIP3   OH271152   1.396   0.850  11.587  0.5708 -0.0191 -0.1212
16554TIP3    H171153   1.366   0.814  11.503  0.5787  1.5163 -0.8114
16554TIP3    H271154   1.315   0.874  11.632  0.6095  0.1880 -0.1641
16555TIP3   OH271155   4.088   1.468   2.911  0.6044  0.6013 -0.2595
16555TIP3    H171156   4.059   1.377   2.904 -2.6368  1.4270  0.6301
16555TIP3    H271157   4.158   1.477   2.846 -0.7614 -1.8531 -2.2305
16556TIP3   OH271158   1.150   1.497  11.513  0.2666 -0.3605  0.0374
16556TIP3    H171159   1.081   1.549  11.553 -0.0408 -0.3967 -0.4357
16556TIP3    H271160   1.116   1.407  11.516 -0.1782 -0.2459 -1.1522
16557TIP3   OH271161   4.135   4.129   1.441 -0.3267  0.3427  0.2776
16557TIP3    H171162   4.168   4.207   1.396  0.0236  0.2295  0.3352
16557TIP3    H271163   4.113   4.160   1.529 -0.6045  0.4723  0.1606
16558TIP3   OH271164   5.522   1.911  11.338  0.6135 -0.1521  0.4697
16558TIP3    H171165   5.440   1.960  11.347  0.7524 -0.0862  1.4937
16558TIP3    H271166   5.572   1.959  11.273 -0.2165 -0.2636 -0.2628
16559TIP3   OH271167   3.620   5.226   2.750 -0.3871  0.2770  0.1708
16559TIP3    H171168   3.616   5.136   2.717 -1.2884 -0.2355  1.6099
16559TIP3    H271169   3.603   5.280   2.673  2.0090 -0.6659 -1.1325
16560TIP3   OH271170   2.063   0.645   2.127 -0.3361  0.1842 -0.1540
16560TIP3    H171171   1.993   0.657   2.192  0.4817  0.8097  0.6291
16560TIP3    H271172   2.144   0.652   2.177  0.2980 -0.8483 -1.0041
16561TIP3   OH271173   4.873   5.984   1.184 -0.4745 -0.2432  0.8088
16561TIP3    H171174   4.965   6.006   1.201 -0.2289  0.3339 -1.0842
16561TIP3    H271175   4.864   5.893   1.213  0.8974 -0.5433  0.3529
16562TIP3   OH271176   5.144   1.420  12.704 -0.5418 -0.3217  0.1077
16562TIP3    H171177   5.174   1.438  12.615 -0.3337  0.3463  0.3016
16562TIP3    H271178   5.052   1.394  12.694 -0.0007 -2.1195 -0.4681
16563TIP3   OH271179   0.483   6.750  11.997  0.3013 -0.2795 -0.1263
16563TIP3    H171180   0.574   6.772  12.017 -0.1498  1.1200  0.5114
16563TIP3    H271181   0.439   6.751  12.082 -0.4693 -0.1107 -0.5199
16564TIP3   OH271182   2.637   6.702   2.246 -0.4359 -0.7315 -0.2116
16564TIP3    H171183   2.648   6.792   2.277 -1.1760  0.4428 -3.0055
16564TIP3    H271184   2.552   6.703   2.202  0.0987 -2.4712 -1.3677
16565TIP3   OH271185   1.077   3.316   1.463 -0.2183 -0.3471 -0.2646
16565TIP3    H171186   1.144   3.378   1.493 -0.9279  0.6905 -0.7578
16565TIP3    H271187   1.122   3.232   1.459  0.5045 -0.0799  1.4255
16566TIP3   OH271188   2.603   4.517  17.050  0.4110  0.2258  0.3150
16566TIP3    H171189   2.679   4.476  17.008 -0.2638 -0.2243 -0.5121
16566TIP3    H271190   2.575   4.583  16.987 -1.7101 -1.6639 -0.8671
16567TIP3   OH271191   4.887   5.739   1.294  0.2775 -0.0780  0.1149
16567TIP3    H171192   4.917   5.676   1.228  1.3195 -0.0165  0.5059
16567TIP3    H271193   4.897   5.693   1.377 -0.9641 -0.1310  0.2415
16568TIP3   OH271194   3.106   2.620  14.102 -0.0488 -0.0240 -0.6682
16568TIP3    H171195   3.060   2.631  14.186 -0.8325 -1.3842 -0.8872
16568TIP3    H271196   3.187   2.670  14.113 -0.1849 -0.0762  0.8610
16569TIP3   OH271197   4.254   2.359  11.378 -0.3024  0.3106  0.3968
16569TIP3    H171198   4.193   2.335  11.448 -1.6909  0.4336 -0.7193
16569TIP3    H271199   4.202   2.350  11.298  0.7274  1.8141 -0.4777
16570TIP3   OH271200   2.732   4.797  12.868 -0.7299  0.4231  0.0867
16570TIP3    H171201   2.820   4.808  12.906 -0.8477  0.1809  0.4393
16570TIP3    H271202   2.691   4.730  12.923 -0.7775 -0.2042 -0.6963
16571TIP3   OH271203   5.415   5.171  13.772  0.7762  0.1161  0.2224
16571TIP3    H171204   5.335   5.199  13.817  2.1504  0.7773  2.3864
16571TIP3    H271205   5.446   5.096  13.824  1.1707 -0.6168 -1.0432
16572TIP3   OH271206   1.000   6.645  16.306 -0.1477  0.0241 -0.1538
16572TIP3    H171207   1.025   6.661  16.397  1.4046 -1.1676 -0.3220
16572TIP3    H271208   0.955   6.561  16.308  1.2913 -0.7922 -0.6601
16573TIP3   OH271209   5.998   4.561   0.277  0.1861 -0.0599 -0.3569
16573TIP3    H171210   5.937   4.567   0.351 -0.5708 -3.0582 -0.6114
16573TIP3    H271211   6.078   4.525   0.315  0.3163 -0.1800 -0.7449
16574TIP3   OH271212   1.987   0.271  14.901 -0.2052 -0.1851  0.4279
16574TIP3    H171213   1.910   0.218  14.880  0.0910 -0.1654 -0.7905
16574TIP3    H271214   1.965   0.359  14.869  0.6497 -0.3753 -0.7346
16575TIP3   OH271215   4.315   0.511  14.499 -0.0498 -0.1108 -0.5184
16575TIP3    H171216   4.307   0.416  14.507  0.5977 -0.0419  1.8840
16575TIP3    H271217   4.239   0.537  14.448 -1.9407 -1.6748  1.2866
16576TIP3   OH271218   5.199   6.806   2.901  0.3547 -0.2580  0.4985
16576TIP3    H171219   5.250   6.726   2.887 -0.7114 -0.9777  0.5309
16576TIP3    H271220   5.136   6.807   2.829 -0.0556  0.2165  0.8554
16577TIP3   OH271221   4.224   6.283  16.112  0.2094  0.2747  0.2925
16577TIP3    H171222   4.195   6.359  16.062 -0.0798 -0.3493 -0.5322
16577TIP3    H271223   4.193   6.208  16.060  0.4237 -0.4002  1.1151
16578TIP3   OH271224   5.917   3.512  12.654 -0.3582 -0.3226 -0.7240
16578TIP3    H171225   5.962   3.429  12.672  0.1934 -0.3480 -2.0660
16578TIP3    H271226   5.948   3.571  12.723  0.9789 -0.6280 -1.0260
16579TIP3   OH271227   4.392   5.613   0.043  0.1311  0.1325 -0.4572
16579TIP3    H171228   4.420   5.551   0.109 -0.1059  1.0368  0.5227
16579TIP3    H271229   4.432   5.582  -0.039  2.9708  0.6648  0.6244
16580TIP3   OH271230   4.543   4.010   3.178 -0.4373  0.3855 -0.1210
16580TIP3    H171231   4.631   4.023   3.215 -0.1759  0.9202 -0.9170
16580TIP3    H271232   4.490   4.078   3.220 -0.2312  0.7356 -0.4214
16581TIP3   OH271233   3.191   4.590  15.186 -0.0710  0.5034 -0.0964
16581TIP3    H171234   3.133   4.522  15.221  1.4790 -0.3244  0.9998
16581TIP3    H271235   3.176   4.666  15.243 -0.5042  0.4951 -0.1951
16582TIP3   OH271236   4.002   5.733   1.615  0.3303  0.1368  0.4159
16582TIP3    H171237   4.014   5.771   1.528  0.5823 -1.5328 -0.3196
16582TIP3    H271238   3.912   5.702   1.615  0.4673 -0.2679  0.5707
16583TIP3   OH271239   2.551   5.473   0.903 -0.3803  0.7367 -0.4885
16583TIP3    H171240   2.583   5.484   0.813  0.3067 -2.7129 -0.8226
16583TIP3    H271241   2.611   5.410   0.942 -1.4077  1.1901  2.0030
16584TIP3   OH271242   1.910   4.454   2.810 -0.3255 -0.3356  0.4757
16584TIP3    H171243   1.892   4.379   2.754 -0.1301  0.1337 -0.2242
16584TIP3    H271244   1.836   4.457   2.871  0.4478 -2.0534  1.5716
16585TIP3   OH271245   2.602   0.255  12.366 -0.4876  0.5253  0.7970
16585TIP3    H171246   2.652   0.322  12.412  0.7469  0.1094  0.1084
16585TIP3    H271247   2.584   0.188  12.432  0.5028  0.3499  0.9032
16586TIP3   OH271248   1.172   1.341   2.393  0.0245 -0.2779 -0.3029
16586TIP3    H171249   1.149   1.267   2.338  1.1884 -1.3363  0.5868
16586TIP3    H271250   1.267   1.343   2.393  0.0274  0.6901  0.3887
16587TIP3   OH271251   3.865   1.652  13.449  0.2786 -0.2005 -0.3491
16587TIP3    H171252   3.829   1.571  13.484  2.5947 -1.1162  0.1123
16587TIP3    H271253   3.883   1.632  13.357 -1.4796  0.6789 -0.9323
16588TIP3   OH271254   3.121   4.476  10.791  0.2244  0.5090 -0.1527
16588TIP3    H171255   3.036   4.518  10.780  0.5691  1.9782  2.2457
16588TIP3    H271256   3.183   4.548  10.799  1.6217 -0.5343 -1.0805
16589TIP3   OH271257   2.753   4.844  14.209  0.3036 -0.4687  0.0044
16589TIP3    H171258   2.844   4.863  14.232  0.2845  2.1016 -1.5772
16589TIP3    H271259   2.760   4.780  14.138  0.8274 -0.9198  0.4529
16590TIP3   OH271260   4.050   5.630  16.967 -0.1177 -0.4943  0.2062
16590TIP3    H171261   3.962   5.620  17.004 -0.1578  1.1558  0.6204
16590TIP3    H271262   4.060   5.724  16.953  0.7617 -0.8494 -1.9092
16591TIP3   OH271263   0.790   1.059  13.266  0.2616  0.1404  0.0555
16591TIP3    H171264   0.709   1.106  13.284 -0.3984 -1.8078  2.6617
16591TIP3    H271265   0.859   1.120  13.290 -0.4976  0.8423  0.4972
16592TIP3   OH271266   4.562   0.706  15.447 -0.0147 -0.0827 -0.2060
16592TIP3    H171267   4.618   0.734  15.374  1.2672  0.2702  0.8717
16592TIP3    H271268   4.529   0.787  15.484  0.9882 -0.1409  0.8495
16593TIP3   OH271269   5.849   1.726  14.358  0.1019  0.9276  0.2274
16593TIP3    H171270   5.757   1.746  14.376 -0.1629  1.0219 -1.1107
16593TIP3    H271271   5.848   1.689  14.270  1.2913  0.4113  0.4189
16594TIP3   OH271272   6.441   5.304   0.009 -0.4789 -0.4007  0.2435
16594TIP3    H171273   6.509   5.236   0.001  0.3763  0.3768  0.7784
16594TIP3    H271274   6.474   5.377  -0.043 -1.1190 -0.1698  0.1542
16595TIP3   OH271275   5.910   3.140   4.048  0.2352 -0.2097 -0.2405
16595TIP3    H171276   5.890   3.187   3.967 -0.3651 -0.1430 -0.0621
16595TIP3    H271277   5.870   3.053   4.036 -0.0448 -0.1274  0.0633
16596TIP3   OH271278   0.039   6.748  16.606 -0.2198  0.2459  0.2555
16596TIP3    H171279   0.007   6.817  16.664 -0.8499 -1.0298  1.5044
16596TIP3    H271280   0.061   6.676  16.666 -0.5324 -0.9858 -1.0690
16597TIP3   OH271281   1.051   4.312  15.431 -0.1358 -0.4093  0.1884
16597TIP3    H171282   1.098   4.238  15.394 -0.3602 -0.1028 -0.7284
16597TIP3    H271283   1.045   4.375  15.359 -0.0908  0.4304  0.9062
16598TIP3   OH271284   0.986   6.274   2.943 -0.1825  0.4257  0.4300
16598TIP3    H171285   0.962   6.252   3.033 -0.3130 -0.1128  0.2619
16598TIP3    H271286   1.038   6.200   2.912  0.8092  1.0974  0.4286
16599TIP3   OH271287   5.130   0.690  14.668  0.1311 -0.1612  0.1682
16599TIP3    H171288   5.116   0.762  14.730  0.8259  1.8854 -1.9047
16599TIP3    H271289   5.223   0.672  14.674  0.6602  1.5716 -1.7213
16600TIP3   OH271290   0.040   4.208  12.773 -0.7404 -0.2606  0.1435
16600TIP3    H171291   0.118   4.238  12.726 -0.4133  1.9763  1.9365
16600TIP3    H271292   0.031   4.116  12.748 -0.1807  0.5290 -3.6160
16601TIP3   OH271293   3.593   5.776   6.381 -0.1975  0.2263  0.6258
16601TIP3    H171294   3.521   5.834   6.357 -1.5889 -0.9860  1.7176
16601TIP3    H271295   3.577   5.695   6.333  0.2563 -0.1803  1.1436
16602TIP3   OH271296   1.694   6.151  11.846 -0.5568 -0.3991  0.1843
16602TIP3    H171297   1.718   6.242  11.865 -2.3559 -0.2133  1.8197
16602TIP3    H271298   1.747   6.100  11.907 -0.6302 -0.3389  0.3000
16603TIP3   OH271299   5.172   1.666   5.395  0.0931 -0.0358  0.8236
16603TIP3    H171300   5.223   1.635   5.320  0.5392  1.4195  0.5030
16603TIP3    H271301   5.139   1.586   5.436  0.6877 -0.8973 -0.3293
16604TIP3   OH271302   4.038   4.318  16.247 -0.4377  0.7703  0.6103
16604TIP3    H171303   3.978   4.376  16.201 -0.0033 -0.0220 -1.0682
16604TIP3    H271304   4.122   4.365  16.247 -0.0765  0.1959 -0.7821
16605TIP3   OH271305   6.143   1.467  15.411 -0.0945 -0.0516  0.3376
16605TIP3    H171306   6.161   1.389  15.463 -0.2925 -0.0607  0.3932
16605TIP3    H271307   6.176   1.445  15.323  0.2411 -0.0335  0.4602
16606TIP3   OH271308   1.801   4.664   2.074  0.1982 -0.0776  0.3653
16606TIP3    H171309   1.804   4.599   2.143  0.4154  0.0693  0.4947
16606TIP3    H271310   1.715   4.705   2.082  0.1674 -0.1618  0.4532
16607TIP3   OH271311   1.811   0.295   2.275 -0.6754 -0.2431 -0.2586
16607TIP3    H171312   1.831   0.385   2.303  1.4517 -0.6420 -0.3540
16607TIP3    H271313   1.718   0.298   2.252 -0.6636  1.9339 -0.2575
16608TIP3   OH271314   5.653   2.584  11.714 -0.7700  0.2899  0.0482
16608TIP3    H171315   5.717   2.655  11.718 -0.8914  0.6407 -2.3910
16608TIP3    H271316   5.568   2.629  11.710 -0.9917 -0.0770  0.5216
16609TIP3   OH271317   1.917   4.738  15.047  0.2511 -0.0832 -0.6302
16609TIP3    H171318   1.986   4.795  15.014  0.7372 -0.5729 -0.4763
16609TIP3    H271319   1.850   4.798  15.079  0.6560  0.4007 -0.6759
16610TIP3   OH271320   2.831   1.221   0.690  0.0034  0.5207 -0.0942
16610TIP3    H171321   2.875   1.299   0.658  0.5219  0.7342  1.0772
16610TIP3    H271322   2.737   1.241   0.683 -0.0716 -0.3345 -3.6013
16611TIP3   OH271323   6.026   6.098   5.543  0.0255  0.0605 -0.4136
16611TIP3    H171324   5.950   6.148   5.515 -0.1129 -0.4039 -0.8865
16611TIP3    H271325   6.073   6.077   5.463  0.5858  0.2309 -0.1369
16612TIP3   OH271326   4.956   3.268  12.990 -0.4129 -0.5230 -0.0953
16612TIP3    H171327   5.045   3.250  13.021 -1.0913 -0.6132  1.9313
16612TIP3    H271328   4.965   3.344  12.933  0.9002 -0.3199  0.3535
16613TIP3   OH271329   0.651   5.103  14.914  0.6077 -0.2118  0.1014
16613TIP3    H171330   0.690   5.016  14.915 -1.2136 -1.0905 -0.0523
16613TIP3    H271331   0.683   5.146  14.993 -0.0641 -1.8008  1.2959
16614TIP3   OH271332   5.262   1.251   3.298 -0.0249  0.3485 -0.1068
16614TIP3    H171333   5.312   1.326   3.328  0.0388 -0.3027  1.5652
16614TIP3    H271334   5.321   1.176   3.311 -0.8964 -0.2526  0.5375
16615TIP3   OH271335   4.027   1.644  10.488 -0.2634  0.5476  0.1763
16615TIP3    H171336   4.011   1.684  10.402  2.0224 -0.1019 -0.6027
16615TIP3    H271337   4.056   1.717  10.543 -0.4023  0.7283  0.0133
16616TIP3   OH271338   4.731   5.473   4.330  0.0563 -0.3777  0.0660
16616TIP3    H171339   4.668   5.544   4.341  1.2965  1.1430 -1.7269
16616TIP3    H271340   4.800   5.493   4.394  1.2726  1.2091 -1.6020
16617TIP3   OH271341   1.161   5.067  11.596 -0.2715  0.0531  0.1441
16617TIP3    H171342   1.072   5.087  11.624 -0.4625 -0.9437  0.2757
16617TIP3    H271343   1.179   4.981  11.633 -0.7141 -1.5942 -3.1095
16618TIP3   OH271344   2.492   6.826   5.162 -0.4015 -0.2161 -0.0608
16618TIP3    H171345   2.443   6.903   5.134  0.0503 -0.7756 -2.6201
16618TIP3    H271346   2.427   6.769   5.203 -1.4903  0.0007 -1.4261
16619TIP3   OH271347   5.096   5.456  15.299 -0.0559  0.2814  0.4097
16619TIP3    H171348   5.044   5.387  15.339  0.4315 -0.4453 -0.2057
16619TIP3    H271349   5.094   5.438  15.205  0.9809  0.4517  0.3357
16620TIP3   OH271350   0.669   2.303  15.707  0.1557  0.7408 -0.5429
16620TIP3    H171351   0.688   2.352  15.627  1.4668  0.8572 -0.1818
16620TIP3    H271352   0.745   2.245  15.717 -1.2520 -1.2398 -0.8517
16621TIP3   OH271353   0.275   6.629   5.107  0.1356 -0.4332 -0.8207
16621TIP3    H171354   0.338   6.607   5.039  0.0741 -2.7740 -0.2269
16621TIP3    H271355   0.208   6.560   5.101 -1.0896  0.6227  0.1175
16622TIP3   OH271356   1.926   6.272  16.151  0.0622 -0.0273 -0.0660
16622TIP3    H171357   1.942   6.226  16.069  0.1434 -0.4883  0.2001
16622TIP3    H271358   1.951   6.208  16.219  0.4597  0.5124  0.3085
16623TIP3   OH271359   5.778   3.823   2.701  0.3572  0.0241  0.2707
16623TIP3    H171360   5.812   3.841   2.789 -2.2897 -0.8429  1.5871
16623TIP3    H271361   5.758   3.729   2.702 -3.1526  0.6403  0.1465
16624TIP3   OH271362   0.885   2.933  16.538 -0.0036 -0.4528  0.1009
16624TIP3    H171363   0.809   2.881  16.513  1.0692 -1.3169 -1.4466
16624TIP3    H271364   0.877   2.942  16.633 -1.3067 -1.6785  0.1400
16625TIP3   OH271365   5.109   0.853   0.850 -0.5135  0.6087 -0.2623
16625TIP3    H171366   5.121   0.784   0.915  0.8528 -0.0162 -1.1508
16625TIP3    H271367   5.146   0.931   0.890 -0.1365  0.3446 -0.0977
16626TIP3   OH271368   2.012   2.340   6.016  0.2046  0.1264 -0.2161
16626TIP3    H171369   1.989   2.351   6.108  1.0110 -1.8347  0.2760
16626TIP3    H271370   2.022   2.429   5.983 -0.4096  0.8805  1.4971
16627TIP3   OH271371   3.629   2.993   0.053 -0.1938  0.1569 -0.2988
16627TIP3    H171372   3.685   3.009  -0.022 -0.8715  1.4813 -0.5328
16627TIP3    H271373   3.542   2.977   0.016 -0.0839 -1.6089  0.0789
16628TIP3   OH271374   1.709   0.048  15.208  0.2926  0.5162 -0.1793
16628TIP3    H171375   1.796   0.049  15.248  0.7658  0.2163 -1.1605
16628TIP3    H271376   1.724   0.082  15.119 -0.4151 -0.4348 -0.6806
16629TIP3   OH271377   2.859   3.418  15.608  0.0558 -0.2382 -0.0395
16629TIP3    H171378   2.779   3.376  15.575 -1.1027  1.6507  0.1956
16629TIP3    H271379   2.908   3.440  15.529  0.1115 -0.9635 -0.2145
16630TIP3   OH271380   0.814   4.478   0.677 -0.4536  0.3185  0.5925
16630TIP3    H171381   0.847   4.390   0.694 -2.2484 -0.7035 -0.8646
16630TIP3    H271382   0.772   4.504   0.759  0.6433  0.1084  1.2435
16631TIP3   OH271383   3.071   4.557   2.578 -1.0098  0.1547 -0.2171
16631TIP3    H171384   3.058   4.487   2.642  0.2764  1.0323  1.0647
16631TIP3    H271385   3.016   4.532   2.503 -0.0348 -2.6079 -0.1323
16632TIP3   OH271386   4.581   4.239  16.650  0.3761  0.3385 -0.5795
16632TIP3    H171387   4.493   4.211  16.678  0.7018 -0.6631 -0.5035
16632TIP3    H271388   4.575   4.245  16.554  0.2362  0.2107 -0.5800
16633TIP3   OH271389   1.097   6.362   1.325 -0.0047  0.1668 -0.5094
16633TIP3    H171390   1.187   6.342   1.351 -0.0870 -0.2227 -0.5213
16633TIP3    H271391   1.042   6.314   1.387 -0.2078  0.7168 -0.2607
16634TIP3   OH271392   3.302   3.919  17.087 -0.0052 -0.0763 -0.1877
16634TIP3    H171393   3.287   4.004  17.046 -0.7082  0.8597  1.8707
16634TIP3    H271394   3.224   3.868  17.065 -0.0509  0.1602 -0.5816
16635TIP3   OH271395   4.301   1.933  11.913 -0.0820  0.0210 -0.4643
16635TIP3    H171396   4.254   1.963  11.990  1.3998  1.0112  0.1020
16635TIP3    H271397   4.240   1.948  11.840 -0.3415  2.1719  0.1187
16636TIP3   OH271398   6.453   4.767   0.781  0.1811 -0.7562 -0.1508
16636TIP3    H171399   6.363   4.737   0.766  0.6792 -2.8824  0.6874
16636TIP3    H271400   6.457   4.853   0.739 -1.8435 -1.1997 -1.4057
16637TIP3   OH271401   0.594   0.567   4.973  0.0664  0.0939 -0.1818
16637TIP3    H171402   0.590   0.651   4.926  1.5547  0.3001  0.0062
16637TIP3    H271403   0.584   0.591   5.065  1.1707  0.1830 -0.0614
16638TIP3   OH271404   1.587   2.485   2.241  0.8705  0.2469 -0.6321
16638TIP3    H171405   1.637   2.503   2.320  0.7511  0.2568 -0.5593
16638TIP3    H271406   1.608   2.558   2.182  1.6451 -0.2149 -0.9380
16639TIP3   OH271407   4.677   5.836  13.970 -0.5694  0.5199  0.0152
16639TIP3    H171408   4.730   5.798  13.901 -0.7080 -0.5200  0.4719
16639TIP3    H271409   4.587   5.825  13.941 -0.6368 -0.0894  0.4349
16640TIP3   OH271410   3.160   3.725   3.133  0.3541 -0.3265  0.7607
16640TIP3    H171411   3.207   3.783   3.193  0.3907 -0.6558  1.0534
16640TIP3    H271412   3.133   3.782   3.061 -0.3502  0.2361  1.4543
16641TIP3   OH271413   0.162   4.533  14.179  0.0736  0.1607  0.1972
16641TIP3    H171414   0.253   4.510  14.200  0.6179  2.0177  0.0624
16641TIP3    H271415   0.140   4.475  14.106  2.4097  1.9722 -2.1503
16642TIP3   OH271416   4.056   2.388   0.450  0.2162 -0.0098 -0.0448
16642TIP3    H171417   4.137   2.401   0.401  1.5328  1.5797  2.3279
16642TIP3    H271418   4.073   2.311   0.505 -0.1985 -0.1374 -0.0899
16643TIP3   OH271419   2.649   3.537   5.117  0.2143 -0.0709  0.1534
16643TIP3    H171420   2.715   3.484   5.072 -0.9519 -0.9521 -0.5677
16643TIP3    H271421   2.614   3.478   5.184  0.1525  0.3904  0.5299
16644TIP3   OH271422   3.412   6.622   1.956 -0.0777  0.0265  0.6957
16644TIP3    H171423   3.428   6.528   1.947 -0.2876 -0.0789  1.3792
16644TIP3    H271424   3.320   6.628   1.983 -0.5407  0.5069 -0.8626
16645TIP3   OH271425   5.072   1.540   4.137  0.5278  0.5184 -0.3844
16645TIP3    H171426   5.154   1.586   4.157  0.7674  0.1320 -0.4559
16645TIP3    H271427   5.005   1.591   4.182  0.6724  1.4286 -1.1690
16646TIP3   OH271428   1.491   4.537   5.429 -0.2276 -0.4149  0.1329
16646TIP3    H171429   1.538   4.608   5.385 -0.1004 -0.8393 -0.4174
16646TIP3    H271430   1.421   4.514   5.368  0.5152 -1.6453 -0.2863
16647TIP3   OH271431   4.597   4.012   1.692  0.1556  0.0351 -0.3594
16647TIP3    H171432   4.655   3.944   1.657  0.9870  0.2203  0.6227
16647TIP3    H271433   4.625   4.092   1.646 -1.5761 -0.4179 -2.3681
16648TIP3   OH271434   2.561   0.059   0.624  0.0294 -0.8706  0.5124
16648TIP3    H171435   2.601  -0.022   0.655  0.8400 -0.4771  0.5041
16648TIP3    H271436   2.610   0.083   0.545 -0.4581 -0.5783  0.2886
16649TIP3   OH271437   5.931   4.401  13.689 -0.8026 -1.1452  0.1190
16649TIP3    H171438   6.016   4.408  13.645 -0.7083 -1.9263  0.1662
16649TIP3    H271439   5.867   4.429  13.622 -0.4716  0.1335  0.3072
16650TIP3   OH271440   1.623   2.485  14.415 -0.1549 -0.7973  0.7710
16650TIP3    H171441   1.593   2.517  14.330  0.2264 -0.9973  0.5572
16650TIP3    H271442   1.605   2.557  14.475 -1.4005 -1.0453  0.7282
16651TIP3   OH271443   4.660   0.228  11.188 -0.2553  0.1346 -0.3550
16651TIP3    H171444   4.649   0.134  11.181 -1.4055  0.2832 -0.7222
16651TIP3    H271445   4.752   0.240  11.210 -0.2320 -1.0975  0.2919
16652TIP3   OH271446   3.559   1.770   0.044 -0.1273 -0.5727  0.3111
16652TIP3    H171447   3.633   1.771  -0.016  0.3407  0.4881  0.8759
16652TIP3    H271448   3.482   1.768  -0.013  0.3244 -2.1687 -0.2725
16653TIP3   OH271449   1.162   2.543   0.210 -0.2068 -0.3317 -0.6999
16653TIP3    H171450   1.216   2.561   0.133  0.0880 -2.9711 -1.2270
16653TIP3    H271451   1.072   2.559   0.182 -0.1813 -2.0372 -1.9476
16654TIP3   OH271452   4.445   5.323  12.632 -0.0072 -0.2495 -0.7025
16654TIP3    H171453   4.379   5.368  12.578 -0.7740 -2.3209 -1.6220
16654TIP3    H271454   4.524   5.322  12.578  0.7268  1.8354  0.2185
16655TIP3   OH271455   0.866   6.669   0.248  0.3639  0.1548  0.2688
16655TIP3    H171456   0.867   6.619   0.329  0.2274  0.2391  0.3224
16655TIP3    H271457   0.917   6.748   0.268  1.5372 -0.4763 -0.1462
16656TIP3   OH271458   5.983   5.985  16.401 -0.6307  0.0650 -0.0605
16656TIP3    H171459   5.960   6.013  16.313 -0.1478 -1.8816 -0.8556
16656TIP3    H271460   5.916   5.919  16.423  1.4630 -2.4358 -0.6580
16657TIP3   OH271461   4.863   6.675   5.928  0.0557 -0.4206  0.1020
16657TIP3    H171462   4.860   6.600   5.988  0.8108 -0.4320  0.1387
16657TIP3    H271463   4.955   6.681   5.902 -0.0595  0.2872 -0.1653
16658TIP3   OH271464   3.933   3.663  16.248  0.0750 -0.9653  0.0430
16658TIP3    H171465   3.967   3.608  16.319  0.2076  0.1525  0.8816
16658TIP3    H271466   3.858   3.614  16.214 -1.2874 -0.6425  2.3573
16659TIP3   OH271467   3.040   5.347  11.842 -0.1056  0.2111  0.4175
16659TIP3    H171468   3.120   5.391  11.872  0.2763  0.1755 -0.5220
16659TIP3    H271469   3.071   5.263  11.808 -0.4454  0.4828 -0.5932
16660TIP3   OH271470   6.325   5.745   1.549 -0.1447 -0.2690 -0.1949
16660TIP3    H171471   6.279   5.682   1.605  0.6565  1.6096  2.8413
16660TIP3    H271472   6.256   5.803   1.517 -0.3081  0.7791  1.9066
16661TIP3   OH271473   1.226   3.177  16.785  0.3472 -0.6825 -0.1807
16661TIP3    H171474   1.172   3.137  16.854 -0.4156  0.5563 -0.0284
16661TIP3    H271475   1.163   3.206  16.719  0.9903 -0.8569 -0.8816
16662TIP3   OH271476   4.567   4.472  13.599  0.4575 -0.1355  0.2988
16662TIP3    H171477   4.564   4.377  13.590  0.2669 -0.0050 -1.3712
16662TIP3    H271478   4.654   4.496  13.568 -0.0770  0.3421 -0.9183
16663TIP3   OH271479   3.370   2.993   6.170 -0.7769 -0.0866  0.6496
16663TIP3    H171480   3.378   2.900   6.190 -1.2130 -0.2460  0.1227
16663TIP3    H271481   3.457   3.019   6.140 -0.6560 -0.3212  0.7913
16664TIP3   OH271482   6.530   1.883  14.269  0.1128 -0.2228  0.1298
16664TIP3    H171483   6.466   1.833  14.319  1.9123 -1.5573  1.2203
16664TIP3    H271484   6.483   1.961  14.240 -2.5849 -2.0989 -0.9065
16665TIP3   OH271485   1.229   0.389  15.703 -0.8241 -0.4075 -0.8078
16665TIP3    H171486   1.205   0.446  15.630  0.1442  1.6687  0.4032
16665TIP3    H271487   1.324   0.380  15.696 -0.7809 -0.5757 -0.0963
16666TIP3   OH271488   6.617   0.267   3.987  0.2285  0.6926  0.5183
16666TIP3    H171489   6.674   0.343   3.983  1.8088 -0.4133  1.0052
16666TIP3    H271490   6.605   0.240   3.896 -0.2307  1.4321  0.3566
16667TIP3   OH271491   6.782   4.751   2.935  0.6703 -0.0545 -0.4311
16667TIP3    H171492   6.690   4.771   2.918  0.4245 -0.1439  0.7260
16667TIP3    H271493   6.780   4.666   2.979  1.1773  0.5896  0.9070
16668TIP3   OH271494   4.626   1.592   3.848  0.4028  0.0046 -0.3277
16668TIP3    H171495   4.705   1.538   3.848  0.5847  0.2574 -0.9412
16668TIP3    H271496   4.566   1.548   3.908  1.6422  0.7285  1.5465
16669TIP3   OH271497   1.862   3.060  16.252 -0.5654  0.0798 -0.2195
16669TIP3    H171498   1.794   3.069  16.319  0.0123  2.1168  0.1547
16669TIP3    H271499   1.927   3.001  16.292 -0.2529  1.2149  1.0313
16670TIP3   OH271500   0.364   0.104  15.838  0.4747 -0.3300 -0.3178
16670TIP3    H171501   0.442   0.098  15.783  0.1497 -0.8142 -0.7317
16670TIP3    H271502   0.319   0.182  15.807  0.7790 -0.0550 -0.0855
16671TIP3   OH271503   4.601   4.141  14.001 -0.0800  0.1524  0.2110
16671TIP3    H171504   4.558   4.092  13.931  0.5337 -1.0008  0.6024
16671TIP3    H271505   4.579   4.232  13.985  0.0085 -0.0950 -1.4458
16672TIP3   OH271506   5.293   3.878   3.476 -0.3649  0.5136  0.4270
16672TIP3    H171507   5.212   3.895   3.525  0.1481  1.6065  0.9320
16672TIP3    H271508   5.363   3.890   3.539  0.2427  0.4878 -0.2278
16673TIP3   OH271509   0.424   5.256   0.897 -0.1857  0.1239 -0.2666
16673TIP3    H171510   0.329   5.250   0.895 -0.4837  3.2596  0.2261
16673TIP3    H271511   0.448   5.225   0.984 -0.7904 -0.2081 -0.2154
16674TIP3   OH271512   1.319   1.724  14.154  0.8851  0.8844  0.0709
16674TIP3    H171513   1.233   1.752  14.126  0.4441 -0.2099  0.2808
16674TIP3    H271514   1.380   1.773  14.099  0.1083 -2.6208 -4.5194
16675TIP3   OH271515   4.372   1.095   2.612  0.3998  0.2029  0.0440
16675TIP3    H171516   4.302   1.066   2.670 -1.1376 -0.1417 -1.8861
16675TIP3    H271517   4.344   1.181   2.581  0.7091 -0.0223 -0.9060
16676TIP3   OH271518   3.300   4.645   6.644 -0.1029 -0.3938 -0.0606
16676TIP3    H171519   3.380   4.642   6.590  0.1275 -0.5158  0.2880
16676TIP3    H271520   3.321   4.707   6.714 -0.8766  0.8062 -0.8594
16677TIP3   OH271521   4.654   4.867   4.392 -0.0951  0.2976 -0.0164
16677TIP3    H171522   4.735   4.916   4.406  0.3103 -0.4576  0.3207
16677TIP3    H271523   4.585   4.923   4.429  0.4706  0.2141  1.2008
16678TIP3   OH271524   0.895   4.452   1.506 -0.3420  0.0830 -0.5905
16678TIP3    H171525   0.925   4.365   1.481  0.0408  0.8274 -3.0654
16678TIP3    H271526   0.799   4.448   1.496 -0.4195 -0.2895  0.2280
16679TIP3   OH271527   4.306   5.653  14.306 -0.1211 -0.2737  0.1095
16679TIP3    H171528   4.234   5.652  14.369 -1.0789  0.5510 -0.9292
16679TIP3    H271529   4.368   5.588  14.339 -1.1480 -0.7032  1.2562
16680TIP3   OH271530   3.402   4.238  13.507  0.2164  0.6280 -0.1955
16680TIP3    H171531   3.474   4.289  13.545 -0.9346  1.7952  0.5062
16680TIP3    H271532   3.437   4.206  13.423  2.1403 -0.3441  0.9122
16681TIP3   OH271533   2.722   2.703  14.312  0.6515  0.0712 -0.1538
16681TIP3    H171534   2.629   2.691  14.335  0.8459 -1.0608  0.1055
16681TIP3    H271535   2.725   2.690  14.217  0.3346  1.6394 -0.4188
16682TIP3   OH271536   1.333   4.717   4.627 -0.0135  0.0282  0.6359
16682TIP3    H171537   1.296   4.649   4.683  1.9058 -2.4971 -0.9467
16682TIP3    H271538   1.410   4.748   4.674 -0.0493  0.0549  0.6781
16683TIP3   OH271539   2.105   5.229   5.539  0.2989  0.3904  0.3375
16683TIP3    H171540   2.049   5.300   5.570 -0.1006  0.1274  0.2224
16683TIP3    H271541   2.151   5.266   5.464  0.6081  0.7446  0.6960
16684TIP3   OH271542   3.931   4.424  13.455  0.5864 -0.4275 -0.1301
16684TIP3    H171543   3.902   4.504  13.499 -0.4808 -0.3689 -0.8959
16684TIP3    H271544   4.026   4.422  13.469  0.7075  1.2423 -0.5101
16685TIP3   OH271545   2.629   0.627   3.834 -0.1608 -0.2927 -0.3343
16685TIP3    H171546   2.598   0.594   3.918 -2.0389  0.5476 -0.6569
16685TIP3    H271547   2.550   0.637   3.781  0.7773  0.8989 -1.5886
16686TIP3   OH271548   3.620   6.449   1.813  0.8584  0.4856  0.0066
16686TIP3    H171549   3.607   6.388   1.885 -0.8329  1.0858  0.2464
16686TIP3    H271550   3.710   6.434   1.785  1.4044 -0.0958  1.9202
16687TIP3   OH271551   6.227   3.632  17.154 -0.4896 -0.1199  0.5868
16687TIP3    H171552   6.185   3.683  17.224 -0.4464 -0.5028  0.8923
16687TIP3    H271553   6.155   3.601  17.100 -0.5832 -0.5157  0.9336
16688TIP3   OH271554   4.464   1.786  15.903 -0.0418 -0.0627 -0.3408
16688TIP3    H171555   4.405   1.861  15.911  0.3247  0.1171  0.8569
16688TIP3    H271556   4.551   1.822  15.916  0.0647 -0.8227  1.3697
16689TIP3   OH271557   4.119   2.984  17.082  0.0503 -0.3648 -0.2607
16689TIP3    H171558   4.191   3.029  17.037  1.1742 -1.4580  0.3780
16689TIP3    H271559   4.157   2.954  17.164 -0.2345 -3.6041 -1.1904
16690TIP3   OH271560   1.204   5.234  14.735  0.6127 -0.7940  0.0834
16690TIP3    H171561   1.143   5.171  14.697 -1.0990  0.9518 -0.1859
16690TIP3    H271562   1.242   5.278  14.659  0.4168 -0.2404  0.3065
16691TIP3   OH271563   0.771   3.569   4.052 -0.5853  0.5910  0.8603
16691TIP3    H171564   0.725   3.540   4.131 -1.3521 -0.4222  0.0597
16691TIP3    H271565   0.821   3.492   4.023  1.8954  1.7102  1.8361
16692TIP3   OH271566   3.181   5.087  15.043  0.6793 -0.2629  0.0778
16692TIP3    H171567   3.173   5.182  15.029  2.5543 -0.4454 -3.2719
16692TIP3    H271568   3.116   5.067  15.111 -0.9325  3.1275 -0.2568
16693TIP3   OH271569   3.655   5.614   1.228 -0.3298 -0.6018 -0.4565
16693TIP3    H171570   3.731   5.671   1.224 -0.2794 -0.6533 -0.2383
16693TIP3    H271571   3.638   5.602   1.321  0.5031 -2.0432 -0.4549
16694TIP3   OH271572   2.937   2.483  14.741  0.0154 -0.2597 -0.0583
16694TIP3    H171573   2.988   2.506  14.819 -0.6439  2.6417 -0.3689
16694TIP3    H271574   2.847   2.477  14.772 -0.2432  0.8618 -0.5500
16695TIP3   OH271575   5.549   0.682   4.484 -0.3507 -0.2842 -0.6466
16695TIP3    H171576   5.516   0.646   4.567  0.1258  1.0606  0.1572
16695TIP3    H271577   5.470   0.699   4.433 -0.6392 -1.3373 -0.5740
16696TIP3   OH271578   0.200   0.519   2.900 -0.2099  0.1529 -0.0216
16696TIP3    H171579   0.183   0.492   2.990 -0.4691  1.3594  0.3109
16696TIP3    H271580   0.155   0.604   2.892  0.4514  0.4239 -1.0478
16697TIP3   OH271581   0.154   2.789  12.244  0.1871 -0.0449  0.4057
16697TIP3    H171582   0.131   2.698  12.226  0.6720 -0.1856  0.4854
16697TIP3    H271583   0.190   2.788  12.333  0.1841  0.2261  0.4128
16698TIP3   OH271584   5.208   0.070  13.743  0.4179  0.4746  0.6194
16698TIP3    H171585   5.137   0.005  13.742 -0.5504  1.4334  2.0271
16698TIP3    H271586   5.179   0.138  13.683 -0.7394  1.6656  2.4130
16699TIP3   OH271587   3.840   5.793   1.251 -0.1214 -0.4257 -0.2123
16699TIP3    H171588   3.911   5.827   1.305 -0.3003 -3.5513  2.2986
16699TIP3    H271589   3.872   5.802   1.161  1.8901  1.4789  0.6133
16700TIP3   OH271590   4.722   6.382   4.890  0.3436  0.2273  0.3430
16700TIP3    H171591   4.809   6.345   4.902  0.6976  1.3353  1.2935
16700TIP3    H271592   4.671   6.310   4.851  2.2944  0.2969 -2.7084
16701TIP3   OH271593   4.927   4.013   1.324  0.0124 -0.3824  0.4013
16701TIP3    H171594   5.014   4.037   1.293 -0.1061 -1.0253 -0.4792
16701TIP3    H271595   4.934   4.015   1.419  1.4233 -1.8795  0.3669
16702TIP3   OH271596   6.713   2.208   5.593 -0.3888 -0.2642 -0.0514
16702TIP3    H171597   6.641   2.199   5.655  0.9396 -2.3426  1.3229
16702TIP3    H271598   6.752   2.121   5.589  1.1857  0.4508 -1.8410
16703TIP3   OH271599   2.528   4.632  10.793 -0.0782 -0.5463 -0.2717
16703TIP3    H171600   2.591   4.653  10.724 -0.2178  1.2732  0.1085
16703TIP3    H271601   2.492   4.547  10.767  0.9319 -0.5970 -1.6483
16704TIP3   OH271602   6.530   1.921   6.349  0.3974 -0.3623  0.0394
16704TIP3    H171603   6.465   1.991   6.347  0.5546 -0.2356 -0.9875
16704TIP3    H271604   6.478   1.841   6.361  0.1062 -0.1958 -0.1007
16705TIP3   OH271605   4.213   6.141  15.370  0.3275 -0.0970 -0.3619
16705TIP3    H171606   4.289   6.166  15.318  0.4951  0.7337  0.2585
16705TIP3    H271607   4.249   6.117  15.456 -0.2325  2.7427  0.7994
16706TIP3   OH271608   1.107   6.136  13.889 -0.0416  0.2751 -0.1068
16706TIP3    H171609   1.024   6.174  13.860 -1.0597 -1.0617  0.9255
16706TIP3    H271610   1.173   6.199  13.862 -1.3825  1.3200 -1.0617
16707TIP3   OH271611   5.897   5.545   3.942 -0.0122 -0.7787 -0.4930
16707TIP3    H171612   5.843   5.466   3.947 -0.2242 -0.6556 -0.8150
16707TIP3    H271613   5.856   5.605   4.006 -0.1348 -0.7611 -0.5865
16708TIP3   OH271614   6.455   4.082  16.051 -0.5328  0.3379 -0.0453
16708TIP3    H171615   6.404   4.008  16.083  0.6239 -0.3241  0.3330
16708TIP3    H271616   6.410   4.159  16.084 -2.0990 -0.1474 -0.9443
16709TIP3   OH271617   6.724   1.376  14.441 -0.4819 -0.0999  0.3370
16709TIP3    H171618   6.754   1.361  14.530 -0.3267 -1.4473  0.0731
16709TIP3    H271619   6.702   1.469  14.439  1.7153  0.5021  1.1080
16710TIP3   OH271620   1.138   3.861   5.543  0.5357 -0.2797  0.1509
16710TIP3    H171621   1.196   3.936   5.532  0.4440 -0.4445 -1.6444
16710TIP3    H271622   1.170   3.817   5.622  1.0160  1.2384  0.8375
16711TIP3   OH271623   4.574   3.011  12.487  0.0890 -0.2767 -0.1131
16711TIP3    H171624   4.589   2.919  12.511 -0.3282 -0.0449  1.1083
16711TIP3    H271625   4.607   3.061  12.562 -2.4448  0.4311  0.6099
16712TIP3   OH271626   5.959   4.580   4.740 -0.0071  0.2240  0.1137
16712TIP3    H171627   5.943   4.650   4.803  2.1150  1.9900 -1.2105
16712TIP3    H271628   5.871   4.547   4.719 -0.9208  1.0532  2.2838
16713TIP3   OH271629   0.076   3.844   1.020 -0.2290 -0.1152  0.4065
16713TIP3    H171630   0.104   3.862   1.110  0.1337 -0.9241  0.4689
16713TIP3    H271631   0.068   3.749   1.017 -0.1632 -0.0980 -0.4376
16714TIP3   OH271632   6.251   6.085   6.766 -0.3055  0.5386 -0.5190
16714TIP3    H171633   6.169   6.108   6.722  0.1155  2.5100 -0.3790
16714TIP3    H271634   6.225   6.022   6.833 -1.3361 -0.5981 -1.9185
16715TIP3   OH271635   4.435   3.635   2.244 -0.6122  0.3767  0.1187
16715TIP3    H171636   4.373   3.709   2.245 -0.9514  0.0967 -0.0831
16715TIP3    H271637   4.517   3.673   2.275 -0.5250  1.0719 -0.9101
16716TIP3   OH271638   6.806   5.281   2.667  0.1177  0.2823  0.6687
16716TIP3    H171639   6.712   5.264   2.661  0.0118 -0.4653  3.2538
16716TIP3    H271640   6.824   5.345   2.598 -2.1763  0.0906 -0.1799
16717TIP3   OH271641   1.767   0.832   4.591 -0.0160  0.1532  0.0938
16717TIP3    H171642   1.764   0.738   4.574  0.5328  0.2128 -0.3621
16717TIP3    H271643   1.706   0.845   4.664  1.2710 -0.8295  1.3981
16718TIP3   OH271644   0.418   3.109  15.057 -0.2902 -0.0467  0.0781
16718TIP3    H171645   0.490   3.049  15.041  0.6713  1.4003 -1.3165
16718TIP3    H271646   0.359   3.061  15.115  1.4957 -1.4760  0.7931
16719TIP3   OH271647   6.333   1.878   2.237  0.2559  0.3375 -0.5007
16719TIP3    H171648   6.424   1.899   2.256  0.5561 -0.3103 -1.1805
16719TIP3    H271649   6.283   1.924   2.305  1.0517  1.0920 -0.4163
16720TIP3   OH271650   1.872   0.695  13.193 -0.2043 -0.6624 -0.0384
16720TIP3    H171651   1.911   0.779  13.219  0.3457 -1.3242  1.3862
16720TIP3    H271652   1.936   0.657  13.133 -1.4451  0.8460 -2.4664
16721TIP3   OH271653   5.651   4.365  15.633  0.3443 -0.3659 -0.1455
16721TIP3    H171654   5.584   4.325  15.577 -0.8017  0.1650  0.8050
16721TIP3    H271655   5.601   4.411  15.701  1.4082  4.3676 -2.1968
16722TIP3   OH271656   1.104   3.114  10.653  0.3545 -0.7816  0.5660
16722TIP3    H171657   1.142   3.168  10.722 -1.5788  0.8669  0.4378
16722TIP3    H271658   1.174   3.102  10.590  1.2216  0.4552  1.2624
16723TIP3   OH271659   0.324   1.414  14.776 -0.0090  0.3765  0.0662
16723TIP3    H171660   0.239   1.416  14.819  0.6684  0.0051  1.4951
16723TIP3    H271661   0.373   1.486  14.814  0.5672  0.1285 -0.1790
16724TIP3   OH271662   6.832   2.931  13.914 -0.3791  0.0726  0.4325
16724TIP3    H171663   6.785   2.899  13.991  0.7935 -0.5737  0.9019
16724TIP3    H271664   6.893   2.860  13.892 -2.2032 -0.7759 -2.4752
16725TIP3   OH271665   3.272   0.491  15.072  0.5159 -0.1682 -0.3772
16725TIP3    H171666   3.198   0.541  15.107  0.2590  0.1799 -1.3730
16725TIP3    H271667   3.308   0.445  15.147 -0.6223 -0.2256  0.1566
16726TIP3   OH271668   4.324   2.545   2.774  0.0639  0.0999  0.0517
16726TIP3    H171669   4.370   2.620   2.737 -0.0035 -0.9430 -2.3236
16726TIP3    H271670   4.384   2.472   2.762 -0.9572 -0.7209 -0.2557
16727TIP3   OH271671   5.571   2.030  15.866  0.1516  0.3429 -0.4170
16727TIP3    H171672   5.484   2.054  15.835 -0.0566 -1.1026 -1.0245
16727TIP3    H271673   5.604   1.970  15.799  0.0023 -2.3021  1.7301
16728TIP3   OH271674   6.402   3.662  14.836 -0.0509  0.6008 -0.2666
16728TIP3    H171675   6.314   3.627  14.820  0.3823 -1.1508  0.8007
16728TIP3    H271676   6.387   3.742  14.886 -1.0449  0.8167 -0.8668
16729TIP3   OH271677   2.726   1.380   0.408 -0.2041  0.2810 -0.1186
16729TIP3    H171678   2.635   1.371   0.381  0.3365 -1.9947 -1.4590
16729TIP3    H271679   2.766   1.434   0.340  0.2580 -2.1246 -1.9118
16730TIP3   OH271680   2.090   3.260   0.030 -0.0852  0.4909 -0.3472
16730TIP3    H171681   2.103   3.330   0.094  2.6498 -0.1160 -0.1186
16730TIP3    H271682   2.152   3.278  -0.040 -0.5928 -0.7426 -1.1576
16731TIP3   OH271683   6.774   1.943  17.130  0.0400  0.5946  0.1711
16731TIP3    H171684   6.754   2.024  17.176 -1.6050 -0.3715  1.3005
16731TIP3    H271685   6.745   1.958  17.040  0.6905  1.5665  0.1091
16732TIP3   OH271686   3.081   1.784   0.178 -0.1456  0.1343  0.5468
16732TIP3    H171687   3.078   1.746   0.091 -1.1759  1.4831 -0.0372
16732TIP3    H271688   3.007   1.845   0.181  0.4030  0.7849  2.0477
16733TIP3   OH271689   1.498   4.632  12.469  0.5313  0.9864 -0.4005
16733TIP3    H171690   1.555   4.569  12.425  0.2998 -0.0870  0.7886
16733TIP3    H271691   1.424   4.644  12.409 -0.8015 -2.0166  0.4565
16734TIP3   OH271692   2.696   5.079  17.032  0.2058 -0.3451  0.5522
16734TIP3    H171693   2.772   5.048  17.082  0.2046 -1.1795  0.0478
16734TIP3    H271694   2.717   5.170  17.011  0.1925  0.0326  2.0822
16735TIP3   OH271695   2.707   1.403   1.539  0.3934  0.6878 -0.5392
16735TIP3    H171696   2.700   1.364   1.626  1.6473  0.5218 -0.4853
16735TIP3    H271697   2.794   1.444   1.538 -0.3753  2.4319 -1.0222
16736TIP3   OH271698   4.932   5.628   2.573 -0.1858  0.0170  0.1617
16736TIP3    H171699   4.878   5.707   2.571  0.0911  0.2372  1.0275
16736TIP3    H271700   4.874   5.558   2.543 -0.3918  0.5645 -0.7627
16737TIP3   OH271701   0.540   0.302   4.772  0.5013  0.4732 -0.1711
16737TIP3    H171702   0.566   0.350   4.850  0.8106 -1.5513  1.0362
16737TIP3    H271703   0.616   0.310   4.713  1.9171 -1.1779  1.3124
16738TIP3   OH271704   1.330   4.835  10.991 -0.1726 -0.2578 -0.3773
16738TIP3    H171705   1.373   4.820  10.906  0.0794 -0.4162 -0.2232
16738TIP3    H271706   1.353   4.759  11.043  0.2184  0.1502  0.0538
16739TIP3   OH271707   1.099   0.550  15.520  0.5760 -0.5974  0.1052
16739TIP3    H171708   1.147   0.598  15.452 -2.2348  1.8511 -0.3535
16739TIP3    H271709   1.100   0.608  15.596 -2.2125  0.0135 -0.1928
16740TIP3   OH271710   4.049   2.798   6.155 -0.3528  0.4481 -0.4518
16740TIP3    H171711   3.959   2.825   6.137 -0.9390 -0.4467  0.9498
16740TIP3    H271712   4.056   2.799   6.251  0.3834 -1.7209 -0.4113
16741TIP3   OH271713   1.074   4.777   1.064 -0.6309  0.1192 -0.2750
16741TIP3    H171714   1.121   4.694   1.077 -2.7998 -1.0113  0.8594
16741TIP3    H271715   1.081   4.794   0.970  0.2079 -1.1277 -0.4642
16742TIP3   OH271716   4.396   5.584   0.678  0.6386  0.0029 -0.5658
16742TIP3    H171717   4.392   5.667   0.726 -1.2692 -0.0251 -0.5714
16742TIP3    H271718   4.380   5.608   0.587  0.0620 -0.3452 -0.5647
16743TIP3   OH271719   3.749   1.759  14.069  0.7378 -0.4805 -0.9239
16743TIP3    H171720   3.715   1.802  14.147  0.9868 -0.3408 -0.8927
16743TIP3    H271721   3.732   1.821  13.998  0.2373 -0.7376 -1.0279
16744TIP3   OH271722   3.618   0.160  14.373  0.4716  0.1317 -0.4862
16744TIP3    H171723   3.523   0.167  14.377  0.1100 -3.2755  0.1082
16744TIP3    H271724   3.649   0.207  14.450 -0.5197  2.7790 -1.6040
16745TIP3   OH271725   5.179   2.641   2.839  0.7591 -0.0328 -0.1690
16745TIP3    H171726   5.159   2.548   2.839 -1.4982  0.3552 -2.1544
16745TIP3    H271727   5.106   2.682   2.885  0.7216  0.8931 -1.0256
16746TIP3   OH271728   1.824   1.676   0.972 -0.6603 -0.2158 -0.4162
16746TIP3    H171729   1.763   1.644   1.039  0.4026 -0.8423  0.2898
16746TIP3    H271730   1.908   1.636   0.996  0.0614  0.7514 -1.2634
16747TIP3   OH271731   5.472   4.226  11.883 -0.0604  0.3356  0.5291
16747TIP3    H171732   5.553   4.228  11.831 -0.1878 -1.1511  0.2445
16747TIP3    H271733   5.404   4.204  11.820 -0.7729  1.8876  0.7070
16748TIP3   OH271734   5.596   4.390   0.808  0.6248 -0.2280 -0.0913
16748TIP3    H171735   5.524   4.338   0.843 -0.0412 -0.5331 -1.8486
16748TIP3    H271736   5.575   4.480   0.834  0.3743 -0.4814  0.6182
16749TIP3   OH271737   5.608   1.274  11.729  0.1866  0.4017  0.5274
16749TIP3    H171738   5.635   1.365  11.714  1.4415 -0.0073  0.1665
16749TIP3    H271739   5.537   1.260  11.667 -0.2213  1.2267  0.7961
16750TIP3   OH271740   1.535   5.415   3.421  0.1566 -0.1856  0.1678
16750TIP3    H171741   1.446   5.396   3.391 -0.5102  1.5415  0.9354
16750TIP3    H271742   1.590   5.404   3.343 -1.0087  0.5985 -0.7974
16751TIP3   OH271743   5.626   1.370   3.637  0.0401 -0.7413  0.7335
16751TIP3    H171744   5.569   1.387   3.562 -0.3366  0.1430  1.2037
16751TIP3    H271745   5.608   1.279   3.660  0.5026 -1.1698 -0.5216
16752TIP3   OH271746   1.167   1.027   5.560  0.2589  0.0609 -0.4038
16752TIP3    H171747   1.251   1.071   5.550  0.6136 -0.9515 -2.5778
16752TIP3    H271748   1.183   0.960   5.626 -0.0474  2.4503  2.2601
16753TIP3   OH271749   1.079   4.783   3.843  0.0139  0.0977  0.4714
16753TIP3    H171750   1.172   4.775   3.819  0.0638 -0.6468  0.8679
16753TIP3    H271751   1.080   4.823   3.930 -0.1426  2.1887 -0.4283
16754TIP3   OH271752   3.492   4.225   0.726  0.2522 -0.8209 -0.1214
16754TIP3    H171753   3.396   4.215   0.730  0.1667  0.2672  1.1027
16754TIP3    H271754   3.514   4.205   0.635 -1.0125 -2.0431 -0.2058
16755TIP3   OH271755   0.988   1.680   3.661  0.4438  0.3930 -0.1549
16755TIP3    H171756   0.990   1.642   3.573 -0.0007  2.1920 -0.9911
16755TIP3    H271757   0.987   1.774   3.646 -0.2509  0.7333  1.7825
16756TIP3   OH271758   0.175   0.047  12.206 -0.0775  0.1013 -0.3901
16756TIP3    H171759   0.094   0.096  12.214  0.8373  2.0412 -2.0146
16756TIP3    H271760   0.238   0.111  12.172  1.9270 -1.5294  0.0787
16757TIP3   OH271761   0.230   1.566   2.004  0.2019 -0.3642 -0.1032
16757TIP3    H171762   0.148   1.602   1.972  1.2745  0.7120 -1.7844
16757TIP3    H271763   0.242   1.605   2.090 -0.6010  0.1976 -0.2372
16758TIP3   OH271764   5.707   2.864  11.921  0.3333  0.2535  0.3667
16758TIP3    H171765   5.782   2.825  11.875 -0.2436  0.1451 -0.4938
16758TIP3    H271766   5.671   2.926  11.858  0.8663  1.7620  1.4870
16759TIP3   OH271767   0.791   4.131  13.650 -0.4748 -0.2038 -0.1275
16759TIP3    H171768   0.718   4.168  13.600 -0.6209  1.3721  1.1647
16759TIP3    H271769   0.754   4.110  13.735  0.6740  1.2012  0.7664
16760TIP3   OH271770   5.265   5.572  15.486 -0.4878 -0.5018  0.1138
16760TIP3    H171771   5.211   5.566  15.407 -1.4504  0.1846  0.6987
16760TIP3    H271772   5.252   5.488  15.531 -0.7572 -0.4865  0.0609
16761TIP3   OH271773   6.323   1.052  10.920 -0.4307  0.6086  0.2624
16761TIP3    H171774   6.263   0.981  10.943 -0.2942  0.8640  1.4987
16761TIP3    H271775   6.295   1.080  10.833 -0.3176 -1.1199 -0.3561
16762TIP3   OH271776   5.924   6.523  12.699 -0.1553 -0.3263  0.1583
16762TIP3    H171777   5.983   6.494  12.628  0.2457  0.6529  0.0751
16762TIP3    H271778   5.962   6.484  12.778 -0.5853 -1.3990 -0.1416
16763TIP3   OH271779   6.647   3.640   0.826  0.3283  0.2240 -0.2288
16763TIP3    H171780   6.677   3.726   0.796 -1.2638  0.3731 -1.4761
16763TIP3    H271781   6.580   3.615   0.764 -2.5518  0.1263  2.6756
16764TIP3   OH271782   1.009   1.163   2.010 -0.5911 -0.1893  0.5052
16764TIP3    H171783   1.011   1.160   2.105  0.4248  0.3540  0.5040
16764TIP3    H271784   1.093   1.126   1.982  0.2478  2.0343 -0.1042
16765TIP3   OH271785   2.418   0.552  11.951  0.2339  0.0342  0.1772
16765TIP3    H171786   2.434   0.512  12.037  1.5719 -0.4003 -0.2449
16765TIP3    H271787   2.426   0.646  11.967 -0.0638 -0.0116  0.6256
16766TIP3   OH271788   4.317   6.106   5.317 -0.5754  1.3047  0.6646
16766TIP3    H171789   4.259   6.149   5.254 -2.1375 -0.3265  0.8996
16766TIP3    H271790   4.260   6.084   5.391 -0.8442 -4.0582 -0.7550
16767TIP3   OH271791   4.867   5.864  12.987  0.7951 -0.3729 -0.5405
16767TIP3    H171792   4.847   5.788  13.042 -1.0975 -0.6339 -1.5261
16767TIP3    H271793   4.962   5.874  12.995  0.6902 -0.6990  2.3514
16768TIP3   OH271794   5.878   6.157  14.720 -0.2484  0.7930  1.0147
16768TIP3    H171795   5.871   6.062  14.711 -1.1187  0.9769 -0.6993
16768TIP3    H271796   5.926   6.170  14.801  3.0212 -1.1852 -0.4081
16769TIP3   OH271797   4.220   5.860  12.000  0.0698  1.2955 -0.3955
16769TIP3    H171798   4.311   5.834  12.010  0.3077  2.0036 -0.7193
16769TIP3    H271799   4.200   5.910  12.080  0.1138  1.5732 -0.5587
16770TIP3   OH271800   6.328   4.939   4.140  0.3394  0.1004  0.1669
16770TIP3    H171801   6.246   4.888   4.142 -0.0106  0.6626  0.2314
16770TIP3    H271802   6.364   4.927   4.228  1.4535 -1.9362 -0.4905
16771TIP3   OH271803   3.537   0.750   5.005 -0.7067 -0.3694  0.5758
16771TIP3    H171804   3.470   0.796   4.954 -0.9478  0.1785  1.3759
16771TIP3    H271805   3.577   0.819   5.058 -0.9557 -1.0627  1.6751
16772TIP3   OH271806   5.282   3.674  13.950 -0.6499  0.6319  0.4666
16772TIP3    H171807   5.198   3.632  13.965 -0.4255  0.4606  1.3108
16772TIP3    H271808   5.269   3.765  13.978 -1.2883  1.3308 -1.8479
16773TIP3   OH271809   0.686   2.277  13.184 -0.2359 -0.2067  0.2288
16773TIP3    H171810   0.612   2.306  13.130  0.6284 -0.2254 -1.0196
16773TIP3    H271811   0.658   2.292  13.274 -2.7567 -2.4771 -0.0446
16774TIP3   OH271812   5.904   1.954   0.525 -0.0695  0.2372  0.5193
16774TIP3    H171813   5.995   1.948   0.551 -0.2370 -0.4061  0.9717
16774TIP3    H271814   5.873   1.863   0.524 -0.8733  0.4954  1.0095
16775TIP3   OH271815   2.992   5.118  12.229 -0.4814 -0.3473 -0.0342
16775TIP3    H171816   2.951   5.136  12.144  2.2770 -0.8465 -1.5755
16775TIP3    H271817   3.008   5.204  12.266 -0.1112 -0.0432 -0.8639
16776TIP3   OH271818   3.980   2.770   4.455  0.5290 -0.2416  0.5460
16776TIP3    H171819   3.925   2.737   4.527 -1.6728 -2.3693 -1.9062
16776TIP3    H271820   4.028   2.694   4.424 -0.4222 -0.0156 -1.7161
16777TIP3   OH271821   5.603   4.770   1.659 -0.3580 -0.6040  0.3181
16777TIP3    H171822   5.535   4.824   1.620  0.7826  0.3908 -0.3376
16777TIP3    H271823   5.631   4.711   1.589 -0.8277 -1.3183  0.7137
16778TIP3   OH271824   2.974   2.913  16.987 -0.4241 -1.0445  0.6765
16778TIP3    H171825   2.959   2.999  16.949 -1.9038 -1.7227 -0.3915
16778TIP3    H271826   2.951   2.922  17.079  0.8626  0.0357  0.9266
16779TIP3   OH271827   1.930   4.449   0.058 -0.5747  0.1489 -0.0324
16779TIP3    H171828   1.884   4.486  -0.017  0.5644 -0.9764 -1.3255
16779TIP3    H271829   1.864   4.400   0.106 -0.7263 -1.6672 -2.0076
16780TIP3   OH271830   1.785   3.944  11.235  0.0686  0.0736 -0.3545
16780TIP3    H171831   1.690   3.931  11.233 -0.0885  0.9627  0.6273
16780TIP3    H271832   1.816   3.882  11.301 -0.1149  1.2632  0.8981
16781TIP3   OH271833   3.890   6.242   6.495 -0.2380 -0.0780  0.6218
16781TIP3    H171834   3.948   6.206   6.427  0.0547  0.2572  0.6925
16781TIP3    H271835   3.807   6.197   6.481 -1.0314  1.8626 -1.6839
16782TIP3   OH271836   2.848   1.913  10.771  0.1458  0.2882 -0.0940
16782TIP3    H171837   2.828   1.820  10.772 -1.4908  0.4538  4.2014
16782TIP3    H271838   2.944   1.918  10.767  0.2067 -1.3802 -2.3326
16783TIP3   OH271839   4.775   3.664  15.113 -0.0335  0.0412  0.0960
16783TIP3    H171840   4.843   3.652  15.047 -1.0629  0.2259 -1.0334
16783TIP3    H271841   4.823   3.677  15.195  1.3366  1.7497 -0.9090
16784TIP3   OH271842   5.220   3.332  14.086  0.3959 -0.0573 -0.0098
16784TIP3    H171843   5.293   3.305  14.030  1.3450  0.0253  1.1392
16784TIP3    H271844   5.158   3.374  14.026  1.9445  1.1729 -0.8496
16785TIP3   OH271845   6.675   2.000  11.994  0.1248 -0.4315 -0.1294
16785TIP3    H171846   6.669   2.088  12.032 -0.7711 -0.0182 -1.1870
16785TIP3    H271847   6.680   1.942  12.070 -0.3503  0.4595  0.6056
16786TIP3   OH271848   5.972   2.555  15.543  0.0101 -0.4358  0.8759
16786TIP3    H171849   5.904   2.589  15.486 -0.1796 -0.6412  0.9799
16786TIP3    H271850   5.934   2.559  15.631 -0.1252 -1.2006  0.8574
16787TIP3   OH271851   5.470   3.991   6.093 -0.6813  0.1827  0.1640
16787TIP3    H171852   5.500   4.044   6.019  1.6584 -0.1492  0.7714
16787TIP3    H271853   5.466   4.053   6.167  0.3295 -0.1024  0.4786
16788TIP3   OH271854   4.181   1.583  15.008  0.0634 -0.3009  0.0144
16788TIP3    H171855   4.157   1.596  14.916 -1.9475  0.6389  0.6077
16788TIP3    H271856   4.276   1.572  15.007  0.4875  2.4993 -1.8953
16789TIP3   OH271857   6.416   3.356   1.661  0.2127 -0.2434 -0.5882
16789TIP3    H171858   6.480   3.424   1.680 -1.2089  1.2119 -0.7892
16789TIP3    H271859   6.341   3.403   1.624 -1.4703 -1.7027  0.7951
16790TIP3   OH271860   5.836   2.775  13.922  0.2350  0.0186  0.2404
16790TIP3    H171861   5.876   2.726  13.994  0.2999 -0.0786  0.1379
16790TIP3    H271862   5.831   2.712  13.850  1.6750  0.5605 -0.3726
16791TIP3   OH271863   6.230   6.680   5.667 -0.6326  0.5326  0.4261
16791TIP3    H171864   6.252   6.730   5.746  0.1884  0.4353  0.2744
16791TIP3    H271865   6.270   6.594   5.682  2.7784  1.5791 -1.5805
16792TIP3   OH271866   1.015   6.305  16.091 -0.2196  0.3339  0.0250
16792TIP3    H171867   1.054   6.353  16.165 -1.5749  0.7725  0.4774
16792TIP3    H271868   0.922   6.328  16.093 -0.3696  0.0043 -1.5612
16793TIP3   OH271869   4.213   4.566   6.472  0.2256 -0.0015 -0.0368
16793TIP3    H171870   4.255   4.650   6.489 -1.1625  0.2844  2.2825
16793TIP3    H271871   4.135   4.588   6.421 -0.6787  0.2693  1.4283
16794TIP3   OH271872   3.290   4.358   0.618 -0.0122 -0.0006  0.1118
16794TIP3    H171873   3.240   4.439   0.621  2.3146  1.5268  1.9231
16794TIP3    H271874   3.364   4.377   0.560  0.8124 -0.6017  0.9168
16795TIP3   OH271875   5.696   4.775  13.582 -0.6381  0.3072 -0.1080
16795TIP3    H171876   5.776   4.744  13.540 -0.5750  0.7302 -0.3055
16795TIP3    H271877   5.700   4.871  13.574  0.4088  0.5945  2.6745
16796TIP3   OH271878   3.945   4.170  15.957 -0.1958 -0.0711  0.1428
16796TIP3    H171879   3.978   4.165  15.867 -1.4058  0.1214 -0.3292
16796TIP3    H271880   3.950   4.079  15.988 -1.9938 -0.6127 -0.9723
16797TIP3   OH271881   2.350   4.369   0.651  0.8167  0.2437 -0.0844
16797TIP3    H171882   2.424   4.423   0.679  1.6227 -0.7326 -0.2800
16797TIP3    H271883   2.273   4.411   0.690  1.6829  0.0540  1.9353
16798TIP3   OH271884   5.453   5.135   1.003  0.2946  0.5160  0.6970
16798TIP3    H171885   5.365   5.111   1.031  0.2260  1.4282  1.3285
16798TIP3    H271886   5.450   5.231   0.993  0.3145  0.3179 -2.4428
16799TIP3   OH271887   5.268   1.650  16.099  0.0413  0.2627 -0.6333
16799TIP3    H171888   5.217   1.618  16.173  1.3272  3.9557  2.1084
16799TIP3    H271889   5.338   1.585  16.088 -0.1698 -0.3572  1.3813
16800TIP3   OH271890   3.670   0.855  14.698 -0.8598 -0.2642  0.2901
16800TIP3    H171891   3.592   0.889  14.742 -0.8422 -0.8203  0.7661
16800TIP3    H271892   3.657   0.876  14.606 -1.3092  0.1434  0.4428
16801TIP3   OH271893   5.889   0.279   1.862  0.5786 -0.2251  0.0087
16801TIP3    H171894   5.908   0.324   1.944 -0.1722  0.1499 -0.0132
16801TIP3    H271895   5.974   0.269   1.819  0.5537  3.3046 -1.1066
16802TIP3   OH271896   3.543   5.653  13.124 -0.0224 -1.0165 -0.0199
16802TIP3    H171897   3.450   5.663  13.104  0.1678  1.3929 -0.0587
16802TIP3    H271898   3.579   5.741  13.114  1.6565 -1.2106  2.9545
16803TIP3   OH271899   4.216   2.961   4.573  0.2884  0.1640 -1.0003
16803TIP3    H171900   4.169   3.016   4.636  2.4717 -0.3085  1.1917
16803TIP3    H271901   4.154   2.891   4.551 -0.2037 -0.2628  1.4963
16804TIP3   OH271902   5.963   1.034  12.355  0.2732  0.3072 -0.2980
16804TIP3    H171903   5.940   1.059  12.266 -0.7691  1.7838  0.3416
16804TIP3    H271904   5.892   0.976  12.383  0.1298  0.5588 -0.1361
16805TIP3   OH271905   5.515   6.367   0.333  0.0148 -0.0387  0.4069
16805TIP3    H171906   5.493   6.275   0.350 -3.4093  1.0342  2.8338
16805TIP3    H271907   5.461   6.392   0.259  1.6847 -0.1376 -0.9027
16806TIP3   OH271908   0.943   4.336   2.824 -0.4169 -0.0196 -0.0844
16806TIP3    H171909   0.914   4.371   2.739  1.7140  1.2336 -0.3850
16806TIP3    H271910   1.000   4.405   2.859  2.0862 -2.2039  0.4143
16807TIP3   OH271911   3.381   2.270   1.734 -0.0935 -0.8524 -0.6874
16807TIP3    H171912   3.385   2.238   1.824 -1.3655 -0.0195 -0.3100
16807TIP3    H271913   3.289   2.258   1.708 -0.2339  0.8366 -1.1203
16808TIP3   OH271914   5.143   2.612  11.261  0.1100  0.2718 -0.4384
16808TIP3    H171915   5.233   2.584  11.277 -0.0425  0.5124  0.9087
16808TIP3    H271916   5.140   2.702  11.295 -0.5031  0.4511 -0.9510
16809TIP3   OH271917   2.985   1.117   1.908 -0.1252  0.6957  0.4665
16809TIP3    H171918   2.984   1.150   1.818 -1.5080  2.0011  0.9270
16809TIP3    H271919   3.041   1.040   1.904 -2.5154 -1.1300 -2.1869
16810TIP3   OH271920   6.119   3.005   5.634  0.4718 -0.4793 -0.1504
16810TIP3    H171921   6.090   3.051   5.556  1.6940  0.2689 -0.1978
16810TIP3    H271922   6.087   2.915   5.623  0.4616 -0.3333 -1.4135
16811TIP3   OH271923   0.111   5.924  13.779  0.5052  0.2777 -0.5512
16811TIP3    H171924   0.032   5.881  13.747  0.2255  1.0015 -0.8449
16811TIP3    H271925   0.110   6.010  13.738  0.2465  1.1768  1.2236
16812TIP3   OH271926   1.708   1.296   4.943 -0.4104  0.0772 -0.0499
16812TIP3    H171927   1.800   1.298   4.915 -0.1058  2.7825  0.8870
16812TIP3    H271928   1.708   1.241   5.022  0.2903 -0.3784 -0.3588
16813TIP3   OH271929   3.342   3.374   4.673  0.0381 -0.2720  0.7526
16813TIP3    H171930   3.323   3.380   4.579 -1.3943  1.6988  1.1148
16813TIP3    H271931   3.322   3.283   4.695 -0.4170 -0.5471 -0.6906
16814TIP3   OH271932   0.487   2.467  12.087  0.2886 -0.7110  0.0905
16814TIP3    H171933   0.471   2.541  12.028  1.8096 -0.0727  0.4284
16814TIP3    H271934   0.518   2.397  12.031  0.9334 -0.3727  0.0132
16815TIP3   OH271935   1.004   5.477   1.891  0.2521 -0.2894 -0.4894
16815TIP3    H171936   0.949   5.407   1.925  0.0477 -0.8983 -1.9862
16815TIP3    H271937   0.943   5.537   1.847  0.6399 -0.3322 -1.1047
16816TIP3   OH271938   2.857   2.483   5.233  0.7715 -0.1111 -0.0070
16816TIP3    H171939   2.842   2.542   5.308  0.5121  0.4410 -0.4838
16816TIP3    H271940   2.952   2.467   5.234  0.7805 -0.0380  0.3897
16817TIP3   OH271941   5.647   4.643   0.066 -0.1819 -0.6971  0.1928
16817TIP3    H171942   5.581   4.651  -0.003 -1.5458 -0.6924  1.4438
16817TIP3    H271943   5.677   4.552   0.060  0.9020 -0.2708 -1.4037
16818TIP3   OH271944   3.350   4.913  13.593  0.1342 -0.5878  0.3738
16818TIP3    H171945   3.347   4.818  13.606  2.8345 -1.1187 -1.8702
16818TIP3    H271946   3.442   4.931  13.573 -0.6135  2.2240 -1.0350
16819TIP3   OH271947   0.111   4.206   1.706  0.6533  0.4037  0.7637
16819TIP3    H171948   0.110   4.214   1.610  0.5702  0.7648  0.7926
16819TIP3    H271949   0.179   4.142   1.724  0.5392  0.1909  0.4507
16820TIP3   OH271950   4.979   4.494  12.875  0.5227  0.1179  0.6362
16820TIP3    H171951   4.930   4.531  12.948  0.5058  0.7372  0.3156
16820TIP3    H271952   5.063   4.468  12.913  0.0692 -0.6760  1.1251
16821TIP3   OH271953   6.696   3.001   6.205 -0.4676  0.4594  0.1493
16821TIP3    H171954   6.753   3.077   6.199 -0.7695  0.5625 -2.2567
16821TIP3    H271955   6.607   3.037   6.204 -0.6190  0.1457  1.0218
16822TIP3   OH271956   3.385   5.830   4.106 -0.1904 -0.4936  0.4391
16822TIP3    H171957   3.338   5.798   4.183  0.4202 -2.5856  0.0049
16822TIP3    H271958   3.367   5.924   4.105 -2.5814 -0.8625  1.4852
16823TIP3   OH271959   5.386   2.252  13.490  0.3851 -0.1868 -0.2985
16823TIP3    H171960   5.463   2.303  13.514  0.5173 -0.4535 -0.1505
16823TIP3    H271961   5.376   2.266  13.396 -0.5416  1.4232  0.0055
16824TIP3   OH271962   4.880   2.993  16.507  0.2134 -0.6033 -0.1857
16824TIP3    H171963   4.862   2.905  16.539  1.9658 -0.3809  1.6201
16824TIP3    H271964   4.794   3.029  16.485 -0.6584 -2.2862  0.3266
16825TIP3   OH271965   0.844   1.171   0.257  0.0243  0.2438 -0.0263
16825TIP3    H171966   0.806   1.083   0.260  1.9534 -0.6136  1.4346
16825TIP3    H271967   0.929   1.162   0.300  1.3518  2.3249 -1.9895
16826TIP3   OH271968   1.532   0.354  11.254 -0.4015  0.3007  0.0221
16826TIP3    H171969   1.569   0.332  11.339 -1.7876  1.3223  0.9186
16826TIP3    H271970   1.470   0.284  11.236  0.1635 -0.1188 -0.3572
16827TIP3   OH271971   5.928   3.508  12.037 -0.3550 -0.1394 -0.0602
16827TIP3    H171972   5.981   3.515  12.116  2.0932 -0.1600 -1.5869
16827TIP3    H271973   5.869   3.583  12.041  0.3416  0.3688  1.3419
16828TIP3   OH271974   1.533   0.049   4.910 -0.4240  0.0961  0.0905
16828TIP3    H171975   1.489   0.127   4.943  0.1070  0.1481  0.7089
16828TIP3    H271976   1.608   0.037   4.969 -1.0150 -1.4016  0.6052
16829TIP3   OH271977   3.454   3.100  11.774  0.0456  0.9553  0.5600
16829TIP3    H171978   3.548   3.085  11.781 -0.2691 -1.2629  0.7593
16829TIP3    H271979   3.421   3.084  11.863 -0.6883  0.1912  0.1549
16830TIP3   OH271980   4.783   0.071   4.720 -0.3287  0.1587 -0.0148
16830TIP3    H171981   4.760  -0.021   4.705 -0.6349 -0.0150  1.3514
16830TIP3    H271982   4.729   0.097   4.795  2.5944  0.2628  2.2301
16831TIP3   OH271983   2.867   1.469  11.259 -0.4340 -0.1537 -0.2385
16831TIP3    H171984   2.952   1.461  11.217  0.4131  1.2248  1.1071
16831TIP3    H271985   2.874   1.547  11.314 -2.1808 -0.6505  0.7978
16832TIP3   OH271986   5.646   5.079   3.856 -0.8076 -0.4772  0.0333
16832TIP3    H171987   5.573   5.104   3.799 -0.2718  1.0167 -0.0360
16832TIP3    H271988   5.684   5.162   3.884  2.4169 -1.1250 -1.9186
16833TIP3   OH271989   5.208   3.242   1.404 -0.3215  0.7560 -0.2132
16833TIP3    H171990   5.164   3.322   1.432 -0.0190  0.7188  0.3660
16833TIP3    H271991   5.136   3.184   1.377 -0.7871  0.1183  2.1888
16834TIP3   OH271992   3.899   0.019  15.723 -0.5976 -0.0020  0.5347
16834TIP3    H171993   3.819   0.072  15.721 -0.8989 -0.4622  0.2831
16834TIP3    H271994   3.970   0.083  15.708 -0.9647  0.3138  0.0970
16835TIP3   OH271995   6.283   2.405   1.937  0.0871 -0.3097 -0.0099
16835TIP3    H171996   6.376   2.387   1.946  0.2293 -0.2238 -1.1177
16835TIP3    H271997   6.274   2.440   1.848 -1.1203 -1.1855 -0.2696
16836TIP3   OH271998   0.581   5.774  11.935  0.1209 -0.0530 -0.1580
16836TIP3    H171999   0.514   5.822  11.984  2.0413  0.9235  1.6366
16836TIP3    H272000   0.580   5.686  11.974 -1.4981 -0.7292 -1.5856
16837TIP3   OH272001   2.733   3.083   4.092  0.3478 -0.1228  0.2900
16837TIP3    H172002   2.777   3.130   4.020  0.8316 -0.6899  0.1991
16837TIP3    H272003   2.797   3.017   4.119 -0.4267 -0.9262  0.2063
16838TIP3   OH272004   3.361   1.936  16.454 -0.0063  0.1749  0.2114
16838TIP3    H172005   3.318   1.872  16.398 -0.7888  0.3092  0.6493
16838TIP3    H272006   3.391   2.004  16.394  0.4389 -0.3749 -0.2019
16839TIP3   OH272007   0.451   2.654  11.890  0.3597 -0.1481 -0.4272
16839TIP3    H172008   0.464   2.578  11.833 -0.4515  0.3419 -1.2989
16839TIP3    H272009   0.508   2.721  11.852  0.7436 -0.1839  0.0804
16840TIP3   OH272010   0.739   0.008  16.679 -0.8163  0.1366  0.1402
16840TIP3    H172011   0.733   0.100  16.653  0.5229 -0.0328 -0.8571
16840TIP3    H272012   0.813   0.006  16.740 -1.5866 -0.1051  1.0923
16841TIP3   OH272013   5.764   0.156   1.061  0.4443 -0.4834 -0.2075
16841TIP3    H172014   5.808   0.074   1.085 -0.2686 -0.3519  1.7016
16841TIP3    H272015   5.808   0.223   1.112 -0.4188  0.0027 -0.0858
16842TIP3   OH272016   0.557   5.281   0.616 -0.1186 -0.0829 -0.0871
16842TIP3    H172017   0.541   5.256   0.706 -0.5163  1.0457  0.1673
16842TIP3    H272018   0.497   5.353   0.599 -1.5602 -1.5738 -1.9146
16843TIP3   OH272019   0.939   2.138   1.656  0.1829  0.0414 -0.7879
16843TIP3    H172020   0.887   2.067   1.619  0.3539  0.3450 -1.6543
16843TIP3    H272021   0.912   2.216   1.607  1.7322  0.1337 -1.5750
16844TIP3   OH272022   2.017   5.783  11.147  0.6686  0.7751 -0.3496
16844TIP3    H172023   2.092   5.808  11.203  0.8677  2.0053 -1.1295
16844TIP3    H272024   2.008   5.856  11.086  1.1290 -1.0117 -2.6478
16845TIP3   OH272025   5.987   1.177  16.887 -0.0244  0.4271 -0.8325
16845TIP3    H172026   5.905   1.175  16.937 -0.5171  0.8844 -1.6029
16845TIP3    H272027   5.969   1.126  16.809  0.7454 -0.2866 -0.5616
16846TIP3   OH272028   1.247   0.891   5.813  0.2659 -0.1456  0.6986
16846TIP3    H172029   1.279   0.804   5.788 -1.8333 -1.1314  1.2321
16846TIP3    H272030   1.311   0.923   5.876  2.0444 -0.4818 -0.8274
16847TIP3   OH272031   3.303   2.334   2.228  0.0079  0.0023 -0.2444
16847TIP3    H172032   3.227   2.381   2.192  0.9597  0.7965 -1.2697
16847TIP3    H272033   3.373   2.399   2.232  0.6662 -0.7314  0.6522
16848TIP3   OH272034   4.682   3.777   2.292 -0.2906  0.6530 -0.0168
16848TIP3    H172035   4.755   3.716   2.301 -0.3343  0.2412 -2.0062
16848TIP3    H272036   4.722   3.863   2.291 -0.1565  0.6572  2.0498
16849TIP3   OH272037   1.265   4.428  15.163 -0.1289 -0.3926 -0.5340
16849TIP3    H172038   1.305   4.496  15.217 -0.1323 -0.2219 -0.7407
16849TIP3    H272039   1.339   4.384  15.121 -0.1788  1.0114 -2.2257
16850TIP3   OH272040   3.428   5.217  15.419  0.0862  0.2185 -1.1120
16850TIP3    H172041   3.470   5.302  15.403  0.3748  0.3292  0.1038
16850TIP3    H272042   3.335   5.233  15.406  0.1535  0.6942 -1.0257
16851TIP3   OH272043   4.376   3.034   3.177  0.8132  0.5508  0.1198
16851TIP3    H172044   4.415   3.065   3.095  2.2338  0.9407  0.9146
16851TIP3    H272045   4.367   3.112   3.231  2.7677 -0.0984  1.4752
16852TIP3   OH272046   0.280   5.338  16.047 -0.0371  0.0089  0.2378
16852TIP3    H172047   0.314   5.391  16.119  0.4445 -0.0516  0.0551
16852TIP3    H272048   0.329   5.367  15.970 -2.1850  1.7786 -0.5741
16853TIP3   OH272049   4.168   6.029  10.515  0.2696  0.2814  0.4265
16853TIP3    H172050   4.209   5.943  10.514 -0.4186 -0.0601  1.0553
16853TIP3    H272051   4.199   6.070  10.596  1.1049  0.8882 -0.1803
16854TIP3   OH272052   1.771   6.062   4.738 -0.0310 -0.1180 -0.1300
16854TIP3    H172053   1.785   6.132   4.675  1.4318 -1.6443 -1.6116
16854TIP3    H272054   1.767   5.982   4.685 -1.2521 -1.2192  1.5136
16855TIP3   OH272055   1.432   0.421  12.414 -0.0878  0.3251  0.3688
16855TIP3    H172056   1.484   0.437  12.335  0.9213 -0.1899  0.9065
16855TIP3    H272057   1.438   0.502  12.464 -2.6044  1.4958 -1.0673
16856TIP3   OH272058   2.520   0.274  14.851  0.2106 -0.9674 -1.0684
16856TIP3    H172059   2.496   0.327  14.775 -0.8863 -1.1261 -0.8461
16856TIP3    H272060   2.559   0.337  14.912  1.0426 -0.8282 -1.7184
16857TIP3   OH272061   5.238   4.540   0.887  0.4413 -0.4632  0.2543
16857TIP3    H172062   5.204   4.618   0.844  1.5213 -1.6664 -3.0931
16857TIP3    H272063   5.328   4.562   0.910  0.4273 -0.3900  0.2388
16858TIP3   OH272064   0.009   1.430   2.634 -0.3974  0.0704  0.3833
16858TIP3    H172065   0.001   1.450   2.727  1.1916  1.7995  0.2092
16858TIP3    H272066  -0.041   1.498   2.590 -2.5798 -1.7037 -0.0498
16859TIP3   OH272067   4.504   5.162  11.714  0.1780  0.2006 -0.5431
16859TIP3    H172068   4.439   5.094  11.729  1.6649 -1.2064 -0.1999
16859TIP3    H272069   4.546   5.175  11.799  0.4912  0.9445 -0.7989
16860TIP3   OH272070   1.227   5.028  14.952  0.1583  0.0086 -0.0441
16860TIP3    H172071   1.242   5.082  14.874  0.4947 -0.4928 -0.3321
16860TIP3    H272072   1.311   5.026  14.997  0.2585 -0.6223 -0.2583
16861TIP3   OH272073   6.798   3.428  13.881 -1.1220  0.7213  0.1208
16861TIP3    H172074   6.759   3.509  13.913 -0.7065  1.1969 -0.5569
16861TIP3    H272075   6.833   3.386  13.960  0.6379  2.2696  0.2331
16862TIP3   OH272076   3.496   1.852   2.052 -0.3569 -0.0759 -0.3009
16862TIP3    H172077   3.405   1.861   2.078 -0.6552  0.1036 -1.3509
16862TIP3    H272078   3.546   1.870   2.132 -1.2080  1.1899 -0.0190
16863TIP3   OH272079   4.327   0.584  11.825  0.4398 -0.4766 -0.2681
16863TIP3    H172080   4.322   0.646  11.898 -1.0894  0.2621 -0.9757
16863TIP3    H272081   4.421   0.581  11.803  0.7083  0.5133  0.6620
16864TIP3   OH272082   6.097   0.529  11.240  0.4175 -0.1221  0.1422
16864TIP3    H172083   6.152   0.541  11.162  0.3317 -1.0352 -0.0707
16864TIP3    H272084   6.028   0.470  11.211  1.0382 -1.4216  1.2081
16865TIP3   OH272085   4.456   5.712  11.052 -0.1504 -0.0640  0.0988
16865TIP3    H172086   4.409   5.711  10.969 -1.3710 -0.0381  0.7464
16865TIP3    H272087   4.402   5.768  11.109 -0.0291 -1.0649  1.2567
16866TIP3   OH272088   1.067   2.073   4.960 -0.5129  0.1089  0.0100
16866TIP3    H172089   1.058   1.981   4.935 -0.6343  0.0529  0.2549
16866TIP3    H272090   0.996   2.088   5.022  1.2077 -0.4385  2.2594
16867TIP3   OH272091   1.471   4.155  17.020 -0.3667 -0.1191  0.6509
16867TIP3    H172092   1.548   4.100  17.029 -0.5541 -0.5231 -0.1892
16867TIP3    H272093   1.397   4.095  17.023 -0.6124  0.1760  0.6166
16868TIP3   OH272094   3.538   3.116  13.119 -0.2892 -0.4741  0.1992
16868TIP3    H172095   3.530   3.200  13.164  0.8543 -0.0470 -0.3647
16868TIP3    H272096   3.499   3.131  13.033 -1.0194 -0.8380  0.4516
16869TIP3   OH272097   0.797   6.647  12.143  0.7127  0.5987  0.2799
16869TIP3    H172098   0.814   6.640  12.237  0.5471  1.5007  0.3851
16869TIP3    H272099   0.834   6.567  12.106  2.7015  1.1733  0.8635
16870TIP3   OH272100   1.182   0.399  16.942 -0.2621  0.2269 -0.0857
16870TIP3    H172101   1.089   0.379  16.927 -0.3220 -1.1746  1.7399
16870TIP3    H272102   1.184   0.494  16.954 -1.2538  0.4354 -1.3144
16871TIP3   OH272103   4.872   3.713   0.071 -0.6435 -0.1634 -0.2433
16871TIP3    H172104   4.935   3.662   0.019 -0.7500 -0.9673  0.3887
16871TIP3    H272105   4.786   3.684   0.039 -0.7092  0.8962 -1.0693
16872TIP3   OH272106   5.559   6.372  11.260  0.2748  0.4547 -0.2785
16872TIP3    H172107   5.584   6.433  11.329 -0.0481  1.7096 -1.2302
16872TIP3    H272108   5.594   6.411  11.180 -1.5193  0.3634 -1.1581
16873TIP3   OH272109   0.141   2.463   4.993  0.5244 -0.8799 -0.2060
16873TIP3    H172110   0.176   2.520   5.061  2.0879 -1.7737 -0.2000
16873TIP3    H272111   0.218   2.415   4.961 -0.7537 -3.2454  0.0628
16874TIP3   OH272112   2.010   0.908  12.164 -0.0839 -0.3739  0.5584
16874TIP3    H172113   1.969   0.947  12.241 -1.8340 -1.9405  0.4861
16874TIP3    H272114   2.045   0.982  12.115  0.6640  0.6890  2.5938
16875TIP3   OH272115   5.321   3.095  14.654 -0.0089 -0.4930 -0.4933
16875TIP3    H172116   5.283   3.060  14.574  1.1232 -0.3407 -1.1203
16875TIP3    H272117   5.403   3.136  14.626  0.6372 -0.8373  0.8027
16876TIP3   OH272118   3.063   2.117  15.388  0.8119 -0.2669 -0.8803
16876TIP3    H172119   3.136   2.160  15.433  0.6857 -0.2790 -0.6628
16876TIP3    H272120   2.993   2.117  15.452  0.6648 -0.3851 -1.0422
16877TIP3   OH272121   0.527   6.377   4.692 -0.0242  0.6096  0.2849
16877TIP3    H172122   0.538   6.297   4.640  1.2914  0.0198  1.4104
16877TIP3    H272123   0.609   6.426   4.678  0.0934  0.7268  1.3073
16878TIP3   OH272124   0.947   0.345   3.944  0.2079 -0.3945 -0.0894
16878TIP3    H172125   0.889   0.308   4.011 -0.8384  2.2240  0.5974
16878TIP3    H272126   0.974   0.270   3.891 -2.1818 -2.0115  0.8140
16879TIP3   OH272127   2.141   5.787  12.495  0.0680  0.8403  0.4312
16879TIP3    H172128   2.111   5.721  12.433  1.3100 -0.2972  0.9790
16879TIP3    H272129   2.211   5.833  12.449 -0.4483  1.4427  0.2366
16880TIP3   OH272130   0.460   6.734  14.798  0.4972  0.9780 -0.0872
16880TIP3    H172131   0.461   6.813  14.744  2.4464  1.6035  0.7743
16880TIP3    H272132   0.445   6.765  14.887  1.6147  0.4454  0.3101
16881TIP3   OH272133   1.291   3.618  11.951  0.1123 -0.0319  0.0708
16881TIP3    H172134   1.228   3.546  11.954  1.5295 -1.4664 -1.9794
16881TIP3    H272135   1.247   3.686  11.900 -0.3384 -0.4069 -0.0445
16882TIP3   OH272136   6.619   5.218   3.876 -0.4126 -0.0714  0.5586
16882TIP3    H172137   6.664   5.291   3.834  1.0711 -1.0500  0.3492
16882TIP3    H272138   6.662   5.140   3.839 -1.5286 -1.0265  1.2286
16883TIP3   OH272139   0.211   6.075  10.882  0.0084 -0.1771 -0.3548
16883TIP3    H172140   0.244   6.152  10.929  1.8682 -0.9316 -0.3407
16883TIP3    H272141   0.218   6.099  10.790 -0.3188  0.0036 -0.3362
16884TIP3   OH272142   2.466   5.522   4.628 -0.2223  0.2051 -0.5196
16884TIP3    H172143   2.497   5.591   4.569  0.1570 -1.1418 -1.9663
16884TIP3    H272144   2.393   5.562   4.675  1.5546  2.4139  0.6068
16885TIP3   OH272145   6.806   2.471   2.894 -0.3131  0.0468 -0.1599
16885TIP3    H172146   6.821   2.566   2.903  2.7684 -0.1746 -1.5997
16885TIP3    H272147   6.894   2.434   2.889 -1.3938 -3.1397  1.8729
16886TIP3   OH272148   5.187   3.920  13.297  0.0101  0.1724  0.0827
16886TIP3    H172149   5.192   3.923  13.392 -1.3781 -1.3036  0.2431
16886TIP3    H272150   5.216   3.832  13.274  2.8580  1.2997 -1.1209
16887TIP3   OH272151   6.836   5.584   4.374 -0.2032 -0.2174 -0.2349
16887TIP3    H172152   6.876   5.558   4.458  0.5183 -1.1324 -0.8439
16887TIP3    H272153   6.869   5.520   4.311  0.3722  1.2796 -1.5020
16888TIP3   OH272154   2.717   5.554   4.956  0.3984 -0.1061  0.4511
16888TIP3    H172155   2.806   5.521   4.950  0.5131  0.2741 -0.0251
16888TIP3    H272156   2.663   5.476   4.971  0.7951 -0.3487  0.6353
16889TIP3   OH272157   1.182   1.244  13.308  0.0294 -0.4485  0.4338
16889TIP3    H172158   1.167   1.149  13.304  0.4935 -0.5093  0.1285
16889TIP3    H272159   1.196   1.271  13.218  0.4551 -0.1806  0.5758
16890TIP3   OH272160   5.872   3.461  14.263  0.3443  0.2590 -0.8948
16890TIP3    H172161   5.839   3.408  14.190  0.5999  0.3923 -1.1065
16890TIP3    H272162   5.805   3.529  14.275 -0.3224 -0.4849 -0.1912
16891TIP3   OH272163   2.864   5.690  14.168  0.5227  0.4878  0.0501
16891TIP3    H172164   2.956   5.717  14.178 -0.2640  4.6280 -1.7573
16891TIP3    H272165   2.815   5.772  14.169 -3.0119 -1.4127 -0.9418
16892TIP3   OH272166   0.850   6.239  13.885 -0.7515  0.6797 -0.0286
16892TIP3    H172167   0.841   6.314  13.944 -0.6633  0.5008  0.2135
16892TIP3    H272168   0.801   6.264  13.807 -1.4254  0.6591  0.3726
16893TIP3   OH272169   5.747   5.960  16.678 -0.1734  0.0222 -0.1322
16893TIP3    H172170   5.765   6.024  16.609 -1.3873  0.0322 -0.4596
16893TIP3    H272171   5.764   5.875  16.638 -1.8708 -0.0320 -0.7985
16894TIP3   OH272172   6.701   5.095  15.694  0.0518  0.3370  0.0080
16894TIP3    H172173   6.752   5.065  15.619 -1.1313  0.2757 -0.7937
16894TIP3    H272174   6.766   5.119  15.760  1.0898 -0.9510 -0.5090
16895TIP3   OH272175   2.268   6.705   4.417  0.4251  0.0915 -0.0865
16895TIP3    H172176   2.195   6.749   4.373  1.1166  0.2421 -1.1086
16895TIP3    H272177   2.296   6.767   4.484 -1.0825 -0.4236  1.0930
16896TIP3   OH272178   3.185   1.570  12.855 -0.3564  0.3331  0.1919
16896TIP3    H172179   3.249   1.566  12.926 -0.1984 -1.2127  0.0010
16896TIP3    H272180   3.236   1.595  12.778 -0.1090 -0.1286  0.1991
16897TIP3   OH272181   3.964   5.969  14.433  0.2098 -0.1712 -0.0392
16897TIP3    H172182   3.882   5.922  14.416 -0.1405 -0.1237  1.3534
16897TIP3    H272183   3.996   5.931  14.515  1.0431  0.5458 -0.0206
16898TIP3   OH272184   3.170   1.563  13.287 -0.3109 -0.4181  0.0102
16898TIP3    H172185   3.092   1.618  13.276  0.4693  0.5888 -0.7467
16898TIP3    H272186   3.168   1.537  13.379 -1.3597 -0.1449  0.0824
16899TIP3   OH272187   0.491   4.582   0.169 -0.3144  0.4936  0.5254
16899TIP3    H172188   0.509   4.539   0.252  1.7008  0.6698  0.2388
16899TIP3    H272189   0.457   4.512   0.113  2.6264 -0.8318  0.1488
16900TIP3   OH272190   4.784   1.454   3.536 -0.2191 -0.4969 -0.0179
16900TIP3    H172191   4.728   1.386   3.575 -0.5060 -0.6154 -0.6269
16900TIP3    H272192   4.870   1.439   3.575 -0.3832 -0.9255  0.1917
16901TIP3   OH272193   1.278   0.888  11.978 -0.3739 -0.0185  0.7199
16901TIP3    H172194   1.272   0.929  12.065 -0.2750  1.4092  0.0923
16901TIP3    H272195   1.214   0.936  11.926  1.6909  1.2609 -0.7682
16902TIP3   OH272196   3.418   6.832   0.286 -0.7618 -0.2481  0.0927
16902TIP3    H172197   3.434   6.749   0.242 -1.9523  0.4353 -1.7488
16902TIP3    H272198   3.464   6.897   0.233 -0.7458  0.4112  0.8817
16903TIP3   OH272199   4.718   5.811   2.592 -0.0614  0.1496 -0.3349
16903TIP3    H172200   4.702   5.885   2.650  0.8008 -0.6398  0.9569
16903TIP3    H272201   4.634   5.764   2.589 -0.4696  0.8809 -0.7710
16904TIP3   OH272202   0.433   4.879  17.124  0.3071  0.6791  0.0938
16904TIP3    H172203   0.438   4.932  17.204  0.0383 -0.2933  0.7835
16904TIP3    H272204   0.353   4.908  17.082  0.3345  1.0514  0.2898
16905TIP3   OH272205   6.381   0.297  13.819  0.3204 -0.0679 -0.8961
16905TIP3    H172206   6.418   0.306  13.907  2.0060  1.4381 -1.6761
16905TIP3    H272207   6.372   0.203  13.806  2.7464 -0.4894 -0.1195
16906TIP3   OH272208   6.311   1.664   2.727  0.4569  0.0461  0.2397
16906TIP3    H172209   6.292   1.570   2.728  2.5817 -0.4446  0.9654
16906TIP3    H272210   6.252   1.701   2.792  0.8022 -1.1012  1.2504
16907TIP3   OH272211   3.806   6.054   1.399 -0.8745  0.0313  0.2458
16907TIP3    H172212   3.760   6.138   1.409 -0.3895  0.2565  0.6348
16907TIP3    H272213   3.895   6.072   1.429 -0.2920 -0.1802 -1.2480
16908TIP3   OH272214   5.385   3.746  11.799 -0.5810  0.3560 -0.1504
16908TIP3    H172215   5.439   3.670  11.818 -0.6830 -0.0384 -1.3845
16908TIP3    H272216   5.427   3.817  11.848  0.2053 -0.2413  0.0679
16909TIP3   OH272217   3.275   5.467  13.686  0.2132 -0.7049  0.3342
16909TIP3    H172218   3.207   5.472  13.619  2.1860  0.6663 -1.6946
16909TIP3    H272219   3.287   5.558  13.714  1.3311 -0.9040  0.5222
16910TIP3   OH272220   0.343   1.084  14.961 -0.5104 -0.0255  0.2568
16910TIP3    H172221   0.392   1.164  14.976 -1.2415  0.0073  2.9094
16910TIP3    H272222   0.267   1.112  14.910  1.2089  0.1988 -2.3855
16911TIP3   OH272223   1.762   3.287  16.605 -0.4268 -0.3318  0.1157
16911TIP3    H172224   1.852   3.268  16.581 -1.0105  0.2317 -2.9928
16911TIP3    H272225   1.753   3.382  16.591 -1.2152 -0.1697  1.5298
16912TIP3   OH272226   0.558   3.473   1.752  0.1940 -0.1673  0.0311
16912TIP3    H172227   0.489   3.426   1.704 -0.3675  1.2719 -0.6425
16912TIP3    H272228   0.633   3.474   1.692  0.1613 -0.1080 -0.0095
16913TIP3   OH272229   4.215   5.654  13.686  0.1023 -0.2283  0.3545
16913TIP3    H172230   4.180   5.722  13.628 -1.0949 -1.4335 -0.4064
16913TIP3    H272231   4.137   5.606  13.715  0.9837 -2.0676 -0.1717
16914TIP3   OH272232   3.488   2.693  16.985 -0.6850  0.0419 -0.2836
16914TIP3    H172233   3.531   2.777  16.971  1.0598 -0.6813  0.4810
16914TIP3    H272234   3.394   2.713  16.980 -0.3185  1.6114 -2.3596
16915TIP3   OH272235   5.961   0.340   5.424  0.1327 -0.2381 -0.0771
16915TIP3    H172236   5.977   0.318   5.333  0.6466  0.7794 -0.2439
16915TIP3    H272237   5.898   0.412   5.420 -1.8483 -1.8390  0.4637
16916TIP3   OH272238   0.242   3.379  16.488 -0.6700 -0.2765  0.4453
16916TIP3    H172239   0.337   3.381  16.493 -0.6794 -0.3891  0.6619
16916TIP3    H272240   0.214   3.465  16.521 -0.6256 -0.0480 -0.0865
16917TIP3   OH272241   2.940   6.668  15.656 -0.4692  0.2531 -0.1345
16917TIP3    H172242   3.031   6.654  15.684  0.1645 -0.4016 -2.3226
16917TIP3    H272243   2.902   6.580  15.653 -0.9397  0.4491 -0.0190
16918TIP3   OH272244   2.423   2.755  11.289  0.1028  0.4492  0.0349
16918TIP3    H172245   2.398   2.772  11.380 -1.6701 -1.6777  0.0277
16918TIP3    H272246   2.352   2.790  11.237  0.5290  0.5758 -0.4679
16919TIP3   OH272247   0.697   5.145   0.373  0.4091 -0.1152 -0.0371
16919TIP3    H172248   0.699   5.056   0.407  0.8925  0.2152  0.8343
16919TIP3    H272249   0.649   5.195   0.438 -0.3223  0.1674 -0.7773
16920TIP3   OH272250   3.041   0.233   5.531 -0.2249 -0.3678  0.0296
16920TIP3    H172251   3.002   0.226   5.444 -0.2883  3.4294 -0.4165
16920TIP3    H272252   3.133   0.212   5.519 -0.3580 -0.5111 -0.7857
16921TIP3   OH272253   5.495   0.193  16.601  0.2895  0.8191 -0.0801
16921TIP3    H172254   5.570   0.143  16.633 -0.5272 -0.4414 -0.0307
16921TIP3    H272255   5.426   0.177  16.666 -0.7607 -0.0899 -1.3561
16922TIP3   OH272256   3.427   4.355   2.495  0.4184  0.0046 -0.5122
16922TIP3    H172257   3.485   4.296   2.447  0.0153 -1.6807  0.9614
16922TIP3    H272258   3.339   4.322   2.477  0.2833 -1.0570  1.7806
16923TIP3   OH272259   0.109   5.423   3.857 -0.3090  0.0189 -0.1887
16923TIP3    H172260   0.139   5.335   3.879 -1.1883 -0.5350 -1.1075
16923TIP3    H272261   0.107   5.469   3.941 -1.4073 -1.3351  0.5914
16924TIP3   OH272262   4.161   2.752  14.743 -0.1649 -0.4946  0.5212
16924TIP3    H172263   4.250   2.787  14.748  0.2081 -1.1885 -0.7067
16924TIP3    H272264   4.144   2.744  14.649 -0.7455 -2.2868  0.7423
16925TIP3   OH272265   0.495   4.973   1.635  0.2794  0.7845  0.1039
16925TIP3    H172266   0.513   5.067   1.640 -0.6610  0.9591  0.4502
16925TIP3    H272267   0.409   4.968   1.594  0.4547  0.0605 -0.1725
16926TIP3   OH272268   2.359   2.862   1.103  0.0420 -0.6368 -0.4262
16926TIP3    H172269   2.419   2.854   1.029 -1.6998  0.0270 -2.0220
16926TIP3    H272270   2.314   2.778   1.106  0.5956 -0.9106  0.3505
16927TIP3   OH272271   0.855   2.934  11.748  0.0750 -0.6977  0.4895
16927TIP3    H172272   0.780   2.910  11.802 -1.7894 -2.8169 -2.7527
16927TIP3    H272273   0.833   3.021  11.713 -0.1827 -0.7083  0.6265
16928TIP3   OH272274   3.164   6.731   2.995  0.2698  0.7153  0.4131
16928TIP3    H172275   3.111   6.707   2.919 -1.2582 -1.0260  1.9321
16928TIP3    H272276   3.104   6.725   3.069  1.9392  1.3785  1.9029
16929TIP3   OH272277   6.394   0.220  16.518  0.2933  0.5675  0.4299
16929TIP3    H172278   6.320   0.277  16.496 -0.6809  0.2027  2.5747
16929TIP3    H272279   6.469   0.279  16.519 -0.1733  1.2140 -0.3722
16930TIP3   OH272280   5.654   3.517  16.611 -0.2551 -0.0084  0.2687
16930TIP3    H172281   5.639   3.430  16.574  0.3498  0.8908 -2.3189
16930TIP3    H272282   5.663   3.502  16.705 -2.6589 -2.3939  0.2453
16931TIP3   OH272283   3.688   1.370   5.696 -0.0872  0.9565  0.4761
16931TIP3    H172284   3.698   1.324   5.779  0.5851 -1.2262 -0.7309
16931TIP3    H272285   3.603   1.342   5.662  1.1593 -1.1257 -1.1870
16932TIP3   OH272286   5.859   6.695  13.286 -0.6968  0.0815 -0.2008
16932TIP3    H172287   5.849   6.786  13.259  2.7132  0.6899  0.1237
16932TIP3    H272288   5.811   6.688  13.368 -0.4985  1.7804  0.0804
16933TIP3   OH272289   6.565   3.290  15.983  0.1407  0.1320 -0.1772
16933TIP3    H172290   6.578   3.345  15.906  0.6969 -1.0552 -0.9635
16933TIP3    H272291   6.638   3.228  15.981  0.9314  0.8996  2.0692
16934TIP3   OH272292   0.171   2.490   0.018  0.7985 -0.3032 -0.5984
16934TIP3    H172293   0.105   2.454  -0.040  1.9851  1.2643 -3.0919
16934TIP3    H272294   0.245   2.430   0.011  0.4477 -0.9069  0.5326
16935TIP3   OH272295   1.470   1.120  12.536  0.6961  0.2678 -0.2061
16935TIP3    H172296   1.546   1.069  12.563 -0.3453 -0.3260  1.7563
16935TIP3    H272297   1.436   1.074  12.459  1.3506 -0.4178 -0.0875
16936TIP3   OH272298   4.209   5.444  16.858 -0.3972 -0.0797  0.3839
16936TIP3    H172299   4.146   5.375  16.839 -0.1529  0.1079 -1.2488
16936TIP3    H272300   4.158   5.511  16.904 -1.5456  0.2522 -1.2652
16937TIP3   OH272301   1.617   5.990  14.345  0.0960  0.0457 -0.3312
16937TIP3    H172302   1.589   6.011  14.256  0.4508 -1.4049 -0.8082
16937TIP3    H272303   1.613   5.895  14.350  1.7407 -0.0192  0.6537
16938TIP3   OH272304   1.563   1.711  14.520 -0.5344 -0.0246 -0.3710
16938TIP3    H172305   1.537   1.637  14.465 -1.5382 -1.1943  1.5731
16938TIP3    H272306   1.496   1.715  14.588 -0.5683  2.7927 -0.4621
16939TIP3   OH272307   2.671   3.820  13.027  0.4558  0.4231 -0.1967
16939TIP3    H172308   2.579   3.846  13.030 -0.1828 -1.6733  0.0121
16939TIP3    H272309   2.690   3.811  12.934  0.2295  0.1477 -0.2168
16940TIP3   OH272310   0.502   5.493  15.679 -0.1276  0.2028 -0.2168
16940TIP3    H172311   0.489   5.588  15.688  0.4878  0.4242 -1.3642
16940TIP3    H272312   0.487   5.476  15.586 -0.3938 -0.8651  0.0046
16941TIP3   OH272313   2.246   4.120   6.376 -0.4640 -0.1039 -0.1660
16941TIP3    H172314   2.198   4.075   6.307 -2.5420  1.6029  0.0556
16941TIP3    H272315   2.210   4.085   6.457 -0.7421  0.5516  0.0041
16942TIP3   OH272316   4.230   3.794  10.558 -0.6398  0.0357 -0.1436
16942TIP3    H172317   4.308   3.848  10.572 -1.1654  0.4654  1.2837
16942TIP3    H272318   4.244   3.717  10.612 -2.4477  1.4487  2.5317
16943TIP3   OH272319   2.762   6.081  15.634 -0.4326  0.1737 -0.0140
16943TIP3    H172320   2.841   6.115  15.593 -0.2497  0.8411  0.8410
16943TIP3    H272321   2.693   6.096  15.570  0.1042 -0.2710 -0.7030
16944TIP3   OH272322   0.070   4.167  10.674  0.7136 -0.1587  0.5827
16944TIP3    H172323   0.048   4.085  10.630 -0.5916 -0.0549  0.9875
16944TIP3    H272324   0.001   4.228  10.646  0.4221  0.1832  1.9631
16945TIP3   OH272325   3.526   5.600   4.269 -0.3558 -0.3102  0.4443
16945TIP3    H172326   3.538   5.531   4.334  0.4380  0.1614  0.8080
16945TIP3    H272327   3.460   5.658   4.308 -2.2919 -1.7048 -0.5797
16946TIP3   OH272328   2.505   0.930   1.176 -0.1821 -0.7542  0.2565
16946TIP3    H172329   2.576   0.911   1.238  0.6294 -3.1188 -1.2843
16946TIP3    H272330   2.544   0.993   1.115 -0.2154 -0.2220  0.7748
16947TIP3   OH272331   2.706   1.254  10.165 -0.0056 -0.6341 -0.4045
16947TIP3    H172332   2.725   1.219  10.252 -0.7816 -1.5071 -0.5708
16947TIP3    H272333   2.742   1.343  10.167  0.4534 -0.8249  0.6247
16948TIP3   OH272334   6.569   4.866   5.580  0.2901 -0.4439  0.1208
16948TIP3    H172335   6.631   4.902   5.643 -0.9489  0.4664  0.8643
16948TIP3    H272336   6.545   4.780   5.616  0.3228 -0.3445  0.3791
16949TIP3   OH272337   3.397   4.820   4.651 -0.0265  0.1017 -0.0193
16949TIP3    H172338   3.470   4.848   4.596 -0.2532  0.8263  0.0358
16949TIP3    H272339   3.319   4.841   4.600 -0.2166 -2.4276 -0.9243
16950TIP3   OH272340   1.411   1.914   0.369  0.2011 -0.4114 -0.0628
16950TIP3    H172341   1.350   1.964   0.424  0.0112 -0.5176 -0.1787
16950TIP3    H272342   1.357   1.875   0.301  0.4185 -0.3882 -0.2528
16951TIP3   OH272343   2.725   6.688   5.231  0.1495  0.2082  0.3236
16951TIP3    H172344   2.682   6.727   5.154  0.6126 -1.0733 -0.6298
16951TIP3    H272345   2.697   6.743   5.304 -2.6212 -0.2048 -0.3147
16952TIP3   OH272346   6.688   3.162   4.981 -0.3294  0.4323  0.0574
16952TIP3    H172347   6.750   3.233   4.963 -1.6812  1.6997  0.1829
16952TIP3    H272348   6.712   3.130   5.069  0.3265  0.6908 -0.0252
16953TIP3   OH272349   4.225   1.028   5.590  0.5460 -0.5883 -0.9164
16953TIP3    H172350   4.218   1.066   5.677  1.6762 -2.2658 -0.0162
16953TIP3    H272351   4.317   1.042   5.565  0.5042 -1.0591 -1.3584
16954TIP3   OH272352   2.804   5.711   3.158  0.6283 -0.4222  0.2474
16954TIP3    H172353   2.873   5.762   3.199 -0.6074  0.8288  0.8613
16954TIP3    H272354   2.733   5.710   3.223 -0.7000  0.0840 -1.1116
16955TIP3   OH272355   1.039   4.564   0.563  0.1855  0.2799  0.4818
16955TIP3    H172356   1.028   4.609   0.479 -1.0985  0.4189  0.7029
16955TIP3    H272357   0.954   4.574   0.607  0.2210 -1.3964  1.0034
16956TIP3   OH272358   5.626   5.526   5.004  0.0095  0.2756  0.3842
16956TIP3    H172359   5.604   5.495   5.092  1.4243 -1.4869  0.1626
16956TIP3    H272360   5.701   5.585   5.017 -0.6897  1.1802  0.4679
16957TIP3   OH272361   6.716   5.186   4.294 -0.0867 -0.4485 -0.1791
16957TIP3    H172362   6.708   5.128   4.218 -1.6926  0.3295 -0.6441
16957TIP3    H272363   6.626   5.198   4.324  0.0586  2.5370 -0.6570
16958TIP3   OH272364   1.412   0.753  16.614 -0.6086 -0.5433  0.2104
16958TIP3    H172365   1.500   0.760  16.576 -0.8681 -0.7901 -0.4583
16958TIP3    H272366   1.397   0.659  16.622 -1.5498 -0.5818 -1.4919
16959TIP3   OH272367   6.619   1.272   4.019 -0.0154  0.3386 -0.0473
16959TIP3    H172368   6.630   1.181   3.991  1.3455  0.5595 -0.3133
16959TIP3    H272369   6.683   1.321   3.967 -0.4447  1.3897  0.3896
16960TIP3   OH272370   5.745   1.029  14.411 -0.3958 -0.4264  0.0398
16960TIP3    H172371   5.734   1.115  14.452  1.0529  0.4741 -1.3356
16960TIP3    H272372   5.839   1.012  14.419 -0.3641 -1.0067 -1.3369
16961TIP3   OH272373   3.493   3.217   4.955  0.4827 -0.2888 -0.0172
16961TIP3    H172374   3.397   3.219   4.955  0.4492  2.5052 -0.8365
16961TIP3    H272375   3.517   3.236   5.046  0.2632 -0.5383  0.0949
16962TIP3   OH272376   5.509   4.328   5.050 -0.8471 -0.1667  0.0885
16962TIP3    H172377   5.462   4.410   5.033 -0.8734 -0.6096 -2.3849
16962TIP3    H272378   5.595   4.356   5.081 -0.6435  0.8726 -1.2854
16963TIP3   OH272379   4.383   0.463  15.237 -0.1413 -0.0702 -0.3847
16963TIP3    H172380   4.429   0.496  15.160  0.9469  0.6003  0.5179
16963TIP3    H272381   4.303   0.423  15.202  0.4695 -0.0655 -1.8784
16964TIP3   OH272382   0.066   0.194  16.294 -0.2046 -0.2654  0.6412
16964TIP3    H172383   0.001   0.201  16.224 -0.0091 -0.9711  0.3855
16964TIP3    H272384   0.138   0.144  16.255  0.8587  1.1804  0.6604
16965TIP3   OH272385   6.447   3.021   1.189 -0.6707 -0.4174  0.2833
16965TIP3    H172386   6.486   2.961   1.253  0.3937 -0.9513 -0.8342
16965TIP3    H272387   6.361   3.041   1.225 -0.6644 -1.8495  1.1734
16966TIP3   OH272388   3.779   6.636   0.044 -0.1072 -0.7566  0.7944
16966TIP3    H172389   3.720   6.663  -0.026  1.2378 -0.3175 -0.2316
16966TIP3    H272390   3.770   6.703   0.112  0.1200 -0.0079  0.1008
16967TIP3   OH272391   5.626   6.510   1.713 -0.4265 -0.1108  0.2836
16967TIP3    H172392   5.702   6.452   1.716 -0.4106 -0.2702 -1.6373
16967TIP3    H272393   5.591   6.499   1.624 -1.7532  1.1517  0.6041
16968TIP3   OH272394   0.511   2.883  14.667 -0.2409  0.5481 -0.2478
16968TIP3    H172395   0.599   2.916  14.650 -0.5149  2.0103  0.9550
16968TIP3    H272396   0.494   2.907  14.758 -1.4221 -0.8225 -0.0708
16969TIP3   OH272397   4.789   4.788   5.834 -0.0493 -0.5805 -0.2220
16969TIP3    H172398   4.762   4.817   5.747 -1.5128  1.0262  0.6860
16969TIP3    H272399   4.744   4.848   5.894  1.4460 -1.2033  1.6330
16970TIP3   OH272400   1.241   6.223  12.224  0.1782  0.3175 -0.3618
16970TIP3    H172401   1.149   6.202  12.205 -0.6144  0.6087  2.6766
16970TIP3    H272402   1.282   6.227  12.137 -2.4099 -0.8522 -1.7914
16971TIP3   OH272403   3.427   1.627  16.096 -0.0593  0.1336 -0.0981
16971TIP3    H172404   3.505   1.593  16.052  0.3292 -0.0398  0.7053
16971TIP3    H272405   3.354   1.582  16.054  0.3831 -0.8897  0.2063
16972TIP3   OH272406   3.237   1.758  14.101  0.1732  0.6079 -0.0493
16972TIP3    H172407   3.261   1.742  14.193  0.6296 -2.0510 -0.5648
16972TIP3    H272408   3.154   1.712  14.090  1.1029 -0.8290 -1.4291
16973TIP3   OH272409   0.174   6.384   3.713 -0.1806  0.2729  0.1101
16973TIP3    H172410   0.107   6.316   3.714 -0.7626  0.8186 -0.3254
16973TIP3    H272411   0.125   6.466   3.711  0.4901  0.6725 -0.9765
16974TIP3   OH272412   0.557   2.658   3.464  0.3195  0.6994  0.4270
16974TIP3    H172413   0.572   2.566   3.484  1.7499  0.4657 -1.4456
16974TIP3    H272414   0.516   2.694   3.543  1.1593 -1.1690  1.7662
16975TIP3   OH272415   3.791   2.131  16.345 -0.1186  0.0652  0.0305
16975TIP3    H172416   3.880   2.096  16.340  0.2289  1.0806 -1.5787
16975TIP3    H272417   3.775   2.143  16.439  0.7108 -1.8759  0.4681
16976TIP3   OH272418   5.784   5.945   1.536 -0.1498  0.1216  0.3589
16976TIP3    H172419   5.770   5.918   1.627 -0.5115  0.3203  0.3653
16976TIP3    H272420   5.729   5.886   1.485  0.7772 -0.6109  0.1865
16977TIP3   OH272421   3.553   4.054  16.775 -0.3909 -0.2206 -0.0681
16977TIP3    H172422   3.641   4.090  16.765 -0.2832 -0.3757  0.3005
16977TIP3    H272423   3.495   4.128  16.757 -0.2293 -0.5537 -2.1508
16978TIP3   OH272424   6.225   6.382   1.675 -0.3598  0.0986 -0.7077
16978TIP3    H172425   6.140   6.416   1.705 -0.8895 -1.6875 -0.0593
16978TIP3    H272426   6.206   6.294   1.642  1.3903 -0.8329  0.5767
16979TIP3   OH272427   5.389   6.664  13.684 -0.3116  0.1216  0.1319
16979TIP3    H172428   5.434   6.732  13.733 -0.7407 -0.0748  0.8210
16979TIP3    H272429   5.307   6.705  13.654 -0.7992 -0.2112  0.9621
16980TIP3   OH272430   6.588   4.986   0.008  0.3282  0.2230 -0.1939
16980TIP3    H172431   6.522   4.983  -0.061 -0.6213 -0.7371  0.7216
16980TIP3    H272432   6.670   5.002  -0.038 -0.2953 -0.2572 -1.5285
16981TIP3   OH272433   2.964   1.260  16.171 -0.2137  0.5533  0.1807
16981TIP3    H172434   2.973   1.243  16.264  2.2272 -0.4944 -0.1546
16981TIP3    H272435   2.979   1.355  16.162 -0.7197  0.7025  0.8566
16982TIP3   OH272436   2.865   2.720  12.688  0.6475  0.2222  0.3351
16982TIP3    H172437   2.960   2.710  12.677  0.4929 -0.7933 -0.1847
16982TIP3    H272438   2.855   2.798  12.742  1.7380  1.1038 -0.6999
16983TIP3   OH272439   1.718   4.547  11.726 -0.1822 -0.0407 -1.3372
16983TIP3    H172440   1.690   4.456  11.732  1.4719 -0.7247 -3.0125
16983TIP3    H272441   1.813   4.543  11.738 -0.0280  1.4137 -1.9144
16984TIP3   OH272442   4.045   2.520   2.630  0.0011 -0.0615  0.0275
16984TIP3    H172443   3.950   2.507   2.619  0.2195 -1.7823 -0.0690
16984TIP3    H272444   4.057   2.614   2.617 -1.9189  0.5128  1.8424
16985TIP3   OH272445   1.729   5.971  12.573  0.1231 -0.1991  0.1658
16985TIP3    H172446   1.663   6.023  12.618  1.9074 -0.3898  3.3330
16985TIP3    H272447   1.701   5.970  12.482 -3.6744  0.4935  1.1436
16986TIP3   OH272448   2.923   0.245   5.786  0.0084 -0.6752 -0.2943
16986TIP3    H172449   2.991   0.189   5.823  1.6373  0.4479 -1.4539
16986TIP3    H272450   2.950   0.259   5.695 -0.2090  2.1318 -0.0093
16987TIP3   OH272451   3.252   0.599  14.391 -0.6304  0.1736  0.0395
16987TIP3    H172452   3.286   0.687  14.406  0.7524 -0.3093 -0.1133
16987TIP3    H272453   3.308   0.542  14.444 -1.1368 -0.6651 -0.3079
16988TIP3   OH272454   0.142   6.584  14.271  0.3248  0.5062  0.0479
16988TIP3    H172455   0.082   6.533  14.218 -0.9652  0.8267  1.1467
16988TIP3    H272456   0.119   6.562  14.362  2.2422  0.2158  0.5150
16989TIP3   OH272457   1.507   3.434   5.211  0.3852  0.3539 -0.6939
16989TIP3    H172458   1.532   3.418   5.120 -0.9890  1.3071 -1.2692
16989TIP3    H272459   1.412   3.442   5.209  0.2111 -0.7301  1.0284
16990TIP3   OH272460   2.826   0.329   4.656  0.1677  0.2918 -0.8665
16990TIP3    H172461   2.789   0.408   4.695 -0.3666 -0.1520 -0.4636
16990TIP3    H272462   2.919   0.333   4.676  0.2344  1.0640 -1.2784
16991TIP3   OH272463   2.208   3.657   4.379 -0.2077  0.2339 -0.0126
16991TIP3    H172464   2.289   3.673   4.428 -0.1200 -1.3671  0.4365
16991TIP3    H272465   2.145   3.719   4.414  0.6031  0.9459  0.2100
16992TIP3   OH272466   2.109   3.490   4.093  0.0519  0.0338  0.5026
16992TIP3    H172467   2.079   3.440   4.169 -0.5128 -1.2781 -0.5193
16992TIP3    H272468   2.184   3.441   4.060 -1.3466 -1.0471 -1.3340
16993TIP3   OH272469   4.881   6.231   2.001 -0.1339  0.2883  0.5866
16993TIP3    H172470   4.946   6.189   1.944 -0.5851 -0.1033  0.3534
16993TIP3    H272471   4.926   6.309   2.035  0.0365  0.7327 -0.5807
16994TIP3   OH272472   0.496   6.228  10.470  0.3129  0.3048 -0.0495
16994TIP3    H172473   0.427   6.164  10.489 -0.5777  1.0396 -0.7424
16994TIP3    H272474   0.492   6.290  10.543 -0.4543  0.9120 -0.5925
16995TIP3   OH272475   5.496   0.952  14.522  0.0259 -0.0405  0.0303
16995TIP3    H172476   5.573   1.009  14.513 -0.5374  0.8398  0.5698
16995TIP3    H272477   5.424   1.003  14.483 -0.2967 -0.8385 -0.4351
16996TIP3   OH272478   2.494   4.936   3.518 -0.4762 -0.1502  0.1402
16996TIP3    H172479   2.430   4.989   3.566  0.7200 -1.2138  3.1512
16996TIP3    H272480   2.441   4.883   3.459 -2.3505 -0.3340  1.8490
16997TIP3   OH272481   2.171   2.363  16.456  0.4605  0.0805 -0.3287
16997TIP3    H172482   2.209   2.450  16.458  0.4036  0.1099 -0.5005
16997TIP3    H272483   2.227   2.311  16.514  0.5833  0.1919 -0.3474
16998TIP3   OH272484   1.996   1.817  17.094  0.1935  0.4951 -0.0180
16998TIP3    H172485   2.068   1.876  17.115  0.2601  0.8391 -1.1041
16998TIP3    H272486   1.963   1.786  17.178  0.9421  1.1440  0.5193
16999TIP3   OH272487   3.860   4.478  14.952 -0.2198 -0.1178 -0.0755
16999TIP3    H172488   3.888   4.533  14.879 -1.0162  0.4316  0.0188
16999TIP3    H272489   3.828   4.540  15.017 -0.1821 -0.6454  0.4502
17000TIP3   OH272490   6.815   0.243   1.089  1.0430  0.4966  0.2954
17000TIP3    H172491   6.796   0.168   1.146  2.2168  1.6061  2.2509
17000TIP3    H272492   6.764   0.315   1.127 -0.1075  0.7365 -1.5765
17001TIP3   OH272493   6.430   6.234   0.088 -0.4983  0.2187  0.0664
17001TIP3    H172494   6.356   6.241   0.148 -0.6274 -0.2602 -0.0296
17001TIP3    H272495   6.390   6.239   0.001 -0.8283 -2.9903 -0.0823
17002TIP3   OH272496   2.475   1.217  15.879  0.2718  0.2772  0.0808
17002TIP3    H172497   2.542   1.160  15.917  0.4900  2.0148  2.6368
17002TIP3    H272498   2.392   1.174  15.900  0.5012 -0.3666 -0.3225
17003TIP3   OH272499   0.360   5.311   2.160  0.1804 -0.1291 -0.0191
17003TIP3    H172500   0.272   5.312   2.198  0.4201  0.9251  0.5598
17003TIP3    H272501   0.388   5.220   2.166 -1.6591 -0.9384 -2.1337
17004TIP3   OH272502   2.195   3.961   2.172  0.1419  0.9876 -0.0300
17004TIP3    H172503   2.272   3.934   2.123  0.7444  2.1081  0.2653
17004TIP3    H272504   2.127   3.898   2.147  0.2997  1.7123 -2.6025
17005TIP3   OH272505   0.486   2.610  13.744 -0.1172 -0.3205 -0.3380
17005TIP3    H172506   0.511   2.571  13.828  0.0916 -0.0686 -0.2814
17005TIP3    H272507   0.526   2.697  13.746  0.6712 -0.6552 -1.0879
17006TIP3   OH272508   3.266   4.361  13.794  0.0278 -0.2090  0.6121
17006TIP3    H172509   3.305   4.323  13.873 -1.5239 -0.0527  1.5105
17006TIP3    H272510   3.215   4.289  13.756  2.2638 -0.8517 -1.3749
17007TIP3   OH272511   6.772   3.574  11.449  0.2870  0.3926  0.3043
17007TIP3    H172512   6.783   3.633  11.523  0.8844 -0.1267  0.6382
17007TIP3    H272513   6.816   3.617  11.376  0.4836  0.4795  0.4764
17008TIP3   OH272514   0.035   6.198  12.986  0.7352  0.1156 -0.1528
17008TIP3    H172515   0.098   6.129  12.966 -0.5965 -2.0229  2.3795
17008TIP3    H272516   0.037   6.206  13.081 -1.6104  1.1159 -0.1149
17009TIP3   OH272517   2.083   0.870   5.983 -0.0017 -0.1415  0.2698
17009TIP3    H172518   2.038   0.941   5.937 -0.5019 -0.5482  0.1185
17009TIP3    H272519   2.176   0.886   5.968 -0.0118  1.3687  1.5355
17010TIP3   OH272520   3.705   0.825  12.454 -0.7044 -0.0308  0.3551
17010TIP3    H172521   3.671   0.739  12.430  0.9780 -0.5378 -0.3436
17010TIP3    H272522   3.799   0.812  12.464 -0.6029  1.4207  1.7139
17011TIP3   OH272523   6.245   0.909  13.581 -0.2182  0.0911  0.1950
17011TIP3    H172524   6.154   0.904  13.553 -0.0755  0.0591 -0.2767
17011TIP3    H272525   6.244   0.883  13.673 -0.7784  0.7546  0.3881
17012TIP3   OH272526   1.187   3.203  16.013  0.1095 -0.2436 -0.9409
17012TIP3    H172527   1.270   3.247  15.995 -0.2425  0.2423 -1.4288
17012TIP3    H272528   1.166   3.228  16.103  0.7960 -0.8837 -0.5956
17013TIP3   OH272529   0.040   3.702   3.323  0.4327  0.3678 -0.1395
17013TIP3    H172530   0.024   3.788   3.360 -1.1228  0.0433  0.0451
17013TIP3    H272531  -0.042   3.655   3.337  0.1598 -0.1676 -2.8768
17014TIP3   OH272532   0.757   5.568   3.184 -0.1826  0.0125  0.2990
17014TIP3    H172533   0.673   5.596   3.218  0.0063 -1.0993  1.7770
17014TIP3    H272534   0.752   5.473   3.182 -0.0032 -0.0093 -2.4352
17015TIP3   OH272535   3.014   6.354   5.898 -0.6306 -0.1442 -0.9678
17015TIP3    H172536   3.038   6.352   5.805 -2.2495 -1.4384 -1.4094
17015TIP3    H272537   2.985   6.265   5.917 -2.2562  0.5775  0.2097
17016TIP3   OH272538   3.505   6.195  12.051  0.7492 -0.1389 -0.6884
17016TIP3    H172539   3.520   6.132  12.122  1.4185  0.6544 -0.1055
17016TIP3    H272540   3.471   6.273  12.095 -0.1807 -0.1072 -1.4179
17017TIP3   OH272541   4.574   1.808   6.181  0.2660  0.1869  0.3843
17017TIP3    H172542   4.570   1.899   6.211  0.1791 -0.3644  2.1297
17017TIP3    H272543   4.482   1.784   6.165  0.3829  0.8376 -1.6085
17018TIP3   OH272544   1.125   5.658   4.162  0.2969 -0.2083 -0.2207
17018TIP3    H172545   1.082   5.598   4.222  0.8710  0.2408  0.6550
17018TIP3    H272546   1.160   5.602   4.093 -2.1066 -0.5555 -1.2705
17019TIP3   OH272547   1.590   2.745  13.357  0.2257  0.7290  0.2997
17019TIP3    H172548   1.651   2.734  13.430  0.3942  0.2498  0.0897
17019TIP3    H272549   1.561   2.656  13.336 -0.8018  0.9737  0.6069
17020TIP3   OH272550   2.992   6.344  15.233  0.3612  0.4024  0.1994
17020TIP3    H172551   2.953   6.431  15.224  2.8259  1.5029 -0.5794
17020TIP3    H272552   3.086   6.359  15.228  0.8555 -2.4053 -0.7537
17021TIP3   OH272553   5.626   0.879   1.387 -0.5702 -0.0541 -0.5278
17021TIP3    H172554   5.642   0.788   1.366  2.5334  0.5498 -1.1691
17021TIP3    H272555   5.600   0.879   1.479 -1.2309 -1.5965 -0.6934
17022TIP3   OH272556   2.193   2.233   2.532  0.7726  0.3958 -0.5869
17022TIP3    H172557   2.184   2.138   2.538 -1.8793  0.6521  0.6268
17022TIP3    H272558   2.262   2.254   2.595 -0.6247 -0.5075  1.3327
17023TIP3   OH272559   3.210   3.574  12.163 -0.3426 -0.2666  0.4016
17023TIP3    H172560   3.214   3.666  12.135  2.1253  0.0876  1.5980
17023TIP3    H272561   3.176   3.527  12.087  0.7184  1.3393 -1.1429
17024TIP3   OH272562   5.012   5.124  12.285  0.1213  0.8778  0.2018
17024TIP3    H172563   4.932   5.137  12.337  0.1858 -1.0841  0.8773
17024TIP3    H272564   4.986   5.062  12.217  1.2287 -0.4463  0.9345
17025TIP3   OH272565   1.547   0.942  11.862 -0.5299  0.7251 -0.0198
17025TIP3    H172566   1.459   0.917  11.889 -0.5521 -0.3037 -1.0114
17025TIP3    H272567   1.535   1.025  11.816 -1.3890 -0.6570 -2.4488
17026TIP3   OH272568   1.675   0.827   4.230 -0.6688 -0.4486 -0.3862
17026TIP3    H172569   1.678   0.921   4.215 -0.6507 -0.4037 -0.1006
17026TIP3    H272570   1.763   0.797   4.211 -0.6264 -0.3818 -0.2924
17027TIP3   OH272571   2.421   1.926   5.870 -0.3105  0.2000  0.2055
17027TIP3    H172572   2.426   2.020   5.853  0.2151 -0.0307 -0.9568
17027TIP3    H272573   2.495   1.908   5.928 -0.1873  0.4351  0.1212
17028TIP3   OH272574   2.192   1.172   1.793  0.2454 -0.5788 -0.1790
17028TIP3    H172575   2.108   1.129   1.779 -0.3903 -0.0712  1.7278
17028TIP3    H272576   2.239   1.114   1.853  0.8539 -0.3668 -0.4408
17029TIP3   OH272577   5.136   4.744  12.379  0.5095  0.0916 -0.0101
17029TIP3    H172578   5.172   4.808  12.441 -0.3417  0.7810 -0.2163
17029TIP3    H272579   5.159   4.659  12.417 -0.4902  0.4906  1.5784
17030TIP3   OH272580   6.786   6.587   6.202  0.7780 -0.5939 -0.3369
17030TIP3    H172581   6.828   6.509   6.238 -0.4863 -0.5245  1.4445
17030TIP3    H272582   6.692   6.567   6.205  0.4814  0.6833 -0.5917
17031TIP3   OH272583   3.700   4.984  15.338 -0.1904  0.4528  0.0666
17031TIP3    H172584   3.677   4.895  15.312 -0.9792  0.9424 -0.9593
17031TIP3    H272585   3.652   4.999  15.419 -1.9110  0.7225 -0.9491
17032TIP3   OH272586   2.098   5.687   4.154 -0.0882 -0.5753 -0.0828
17032TIP3    H172587   2.135   5.744   4.222  0.5351 -1.0096 -0.0452
17032TIP3    H272588   2.174   5.647   4.112 -0.5158 -1.7273  0.1937
17033TIP3   OH272589   4.832   1.671   4.214  0.3618  1.2910  0.0539
17033TIP3    H172590   4.752   1.622   4.192 -0.3787  1.8096  1.4836
17033TIP3    H272591   4.803   1.761   4.225  1.5014  1.8515 -1.2806
17034TIP3   OH272592   0.464   3.472  15.279  0.2234  0.1360 -0.1245
17034TIP3    H172593   0.374   3.476  15.311 -0.0997 -0.7686 -0.8677
17034TIP3    H272594   0.511   3.423  15.346 -0.1487 -0.5565 -0.3534
17035TIP3   OH272595   4.271   5.929   3.069  0.0466 -0.3973  0.4696
17035TIP3    H172596   4.246   5.938   2.977  0.3840  0.7093  0.4714
17035TIP3    H272597   4.274   6.018   3.102  0.2638 -0.7612  1.4725
17036TIP3   OH272598   2.730   4.180   4.781  0.4310  0.0795 -0.6535
17036TIP3    H172599   2.678   4.104   4.756 -1.2023  0.8091  0.3589
17036TIP3    H272600   2.734   4.234   4.702  4.4173 -2.3970 -2.4825
17037TIP3   OH272601   0.470   0.915   2.612 -0.4120  0.0797  0.3956
17037TIP3    H172602   0.402   0.964   2.566 -1.8163 -0.8317  1.4519
17037TIP3    H272603   0.434   0.898   2.699  1.3931  0.0543  1.2000
17038TIP3   OH272604   0.467   0.852  12.515  0.0512  0.1168  0.0256
17038TIP3    H172605   0.395   0.858  12.577 -0.0991  0.1483 -0.1539
17038TIP3    H272606   0.521   0.780  12.548 -1.0328 -1.1343 -0.8560
17039TIP3   OH272607   2.647   6.811   2.637  0.2909  0.1258 -0.4371
17039TIP3    H172608   2.581   6.818   2.568  0.3972 -1.4302 -0.7257
17039TIP3    H272609   2.727   6.788   2.591  1.1683  2.3431 -0.1281
17040TIP3   OH272610   2.838   0.501  13.555 -0.2904  0.9275 -0.3505
17040TIP3    H172611   2.793   0.499  13.640  1.2178 -1.5876  0.4898
17040TIP3    H272612   2.917   0.553  13.571  0.4727 -0.3240  0.1159
17041TIP3   OH272613   4.420   2.417   5.057 -0.2992  0.3868  0.4656
17041TIP3    H172614   4.459   2.502   5.082  0.3846 -0.1236  1.1990
17041TIP3    H272615   4.465   2.394   4.976 -0.4004  0.6727  0.3271
17042TIP3   OH272616   4.933   1.124  10.475 -0.2065  0.1642  0.0901
17042TIP3    H172617   4.959   1.032  10.479 -0.7502 -0.0334 -0.5957
17042TIP3    H272618   4.864   1.132  10.541  0.2207  0.2160  0.5346
17043TIP3   OH272619   3.010   2.200  13.838 -0.0215  0.0547  0.2124
17043TIP3    H172620   3.038   2.286  13.869 -0.5492 -0.0670  1.0368
17043TIP3    H272621   3.039   2.139  13.906 -1.7912 -0.1342  0.8391
17044TIP3   OH272622   2.532   5.718  15.528 -0.2526 -0.2311 -0.0942
17044TIP3    H172623   2.535   5.759  15.442 -2.2263  0.8282  0.2890
17044TIP3    H272624   2.494   5.631  15.512 -0.8746  0.0693 -0.2717
17045TIP3   OH272625   1.700   1.693  17.076 -1.1625 -0.0769 -0.1064
17045TIP3    H172626   1.759   1.637  17.128 -0.7034 -0.9385 -1.4835
17045TIP3    H272627   1.637   1.632  17.038 -2.3811  0.7245  0.5943
17046TIP3   OH272628   5.848   3.259  16.030  0.6741  0.1337 -0.8117
17046TIP3    H172629   5.917   3.284  15.969  2.3157 -1.7161  0.1772
17046TIP3    H272630   5.864   3.312  16.108 -0.7546  1.6833 -1.4929
17047TIP3   OH272631   2.792   5.077  16.451 -0.3819 -0.0696 -0.4431
17047TIP3    H172632   2.824   5.097  16.539 -3.2803  1.6171  0.3683
17047TIP3    H272633   2.854   5.120  16.392  2.2719 -2.1982  0.5982
17048TIP3   OH272634   4.438   4.024  13.804  0.3206 -0.0637 -0.2338
17048TIP3    H172635   4.476   3.945  13.766  0.8891 -0.1884  0.5641
17048TIP3    H272636   4.356   3.996  13.843 -0.4475  0.1348 -1.6562
17049TIP3   OH272637   0.013   4.573   0.613  0.1137 -0.0085  0.1938
17049TIP3    H172638   0.073   4.599   0.683 -1.7512  2.5617  0.9969
17049TIP3    H272639  -0.072   4.562   0.657 -0.6167 -0.7544 -1.3146
17050TIP3   OH272640   1.186   2.218   1.456 -0.2796 -0.6386  0.4454
17050TIP3    H172641   1.245   2.261   1.394 -0.0860 -1.7248 -0.1565
17050TIP3    H272642   1.244   2.175   1.518 -0.4513  1.8073  2.4498
17051TIP3   OH272643   6.618   3.168  14.641 -0.0089 -0.2022  0.3252
17051TIP3    H172644   6.681   3.173  14.570  0.1908 -1.1364  0.4315
17051TIP3    H272645   6.550   3.110  14.609 -0.3212  0.0092  0.5955
17052TIP3   OH272646   5.218   0.128  13.364 -0.2648  0.3663 -0.0509
17052TIP3    H172647   5.264   0.188  13.305 -0.4013 -0.2892 -0.8462
17052TIP3    H272648   5.161   0.184  13.416  1.0528  1.1434  0.6079
17053TIP3   OH272649   5.320   6.574   4.845  0.2057 -0.0241 -0.6105
17053TIP3    H172650   5.327   6.479   4.843  0.4544 -0.0539  0.8694
17053TIP3    H272651   5.411   6.605   4.846  0.2409  0.0690  2.7381
17054TIP3   OH272652   2.267   4.395  14.855 -0.0889 -0.6740 -0.4092
17054TIP3    H172653   2.181   4.429  14.832 -0.0543 -0.0786  0.3176
17054TIP3    H272654   2.292   4.443  14.934  1.5608  0.2304 -1.4221
17055TIP3   OH272655   1.581   6.700  10.397  0.1307 -0.2961 -0.0493
17055TIP3    H172656   1.568   6.646  10.474  2.3808 -0.2995  0.3891
17055TIP3    H272657   1.612   6.784  10.431 -0.0148  0.1099 -0.8862
17056TIP3   OH272658   0.913   1.317  11.940 -0.1251  0.8696 -0.6573
17056TIP3    H172659   0.844   1.279  11.885 -1.2251 -0.5321  1.5161
17056TIP3    H272660   0.888   1.409  11.948 -0.5081  0.8673 -1.6695
17057TIP3   OH272661   3.161   3.694   6.180  0.2011 -0.3869  0.0537
17057TIP3    H172662   3.103   3.689   6.256 -0.6684  1.7088 -0.4091
17057TIP3    H272663   3.223   3.623   6.193 -0.4878 -0.6686  2.2404
17058TIP3   OH272664   3.792   2.898  11.568 -0.4632  0.7256 -0.7204
17058TIP3    H172665   3.853   2.825  11.555  0.2015  1.2637 -0.7034
17058TIP3    H272666   3.722   2.881  11.506 -0.6556 -0.2756 -0.2586
17059TIP3   OH272667   2.053   4.700   4.578  0.1086  0.0555  0.7593
17059TIP3    H172668   2.043   4.796   4.575 -1.6835 -0.0608 -3.0151
17059TIP3    H272669   2.140   4.685   4.541  1.4193  0.1612  3.5486
17060TIP3   OH272670   3.910   2.349  14.605  0.8762 -0.2833  0.5014
17060TIP3    H172671   3.866   2.432  14.586  1.2381  0.2447  1.8383
17060TIP3    H272672   4.003   2.368  14.592  0.9621 -0.4539  0.8531
17061TIP3   OH272673   3.020   0.528   5.487  0.4885  0.0012  0.2849
17061TIP3    H172674   3.009   0.441   5.525  1.9471 -0.4112 -0.1608
17061TIP3    H272675   3.115   0.538   5.477  0.2763  1.1058 -0.9043
17062TIP3   OH272676   6.333   4.915  16.175  0.0700 -0.0904  0.2350
17062TIP3    H172677   6.425   4.907  16.198  0.1627 -1.5912 -0.5424
17062TIP3    H272678   6.317   5.010  16.172  1.4918  0.1849  0.6581
17063TIP3   OH272679   3.149   2.777   4.072 -0.2325 -0.1872 -0.1302
17063TIP3    H172680   3.090   2.852   4.079 -1.2287 -0.8033 -1.5544
17063TIP3    H272681   3.192   2.789   3.987  2.0093  0.4301  1.0053
17064TIP3   OH272682   2.240   3.477   3.283  0.3134  0.5373 -0.4939
17064TIP3    H172683   2.306   3.523   3.230  1.7991 -1.1017 -0.1637
17064TIP3    H272684   2.291   3.418   3.339 -1.4639 -0.9317 -0.3307
17065TIP3   OH272685   5.330   2.192  16.961 -0.1985  0.6801 -0.4184
17065TIP3    H172686   5.393   2.239  17.016 -0.3914 -0.2059  0.5935
17065TIP3    H272687   5.248   2.241  16.972 -0.2933  0.3847  0.2926
17066TIP3   OH272688   3.767   2.832   2.748  0.5126  0.1458  0.6123
17066TIP3    H172689   3.803   2.890   2.815  0.2528  1.1438 -0.0969
17066TIP3    H272690   3.758   2.887   2.670 -1.1327 -0.4613  0.3391
17067TIP3   OH272691   2.733   3.213  15.127  0.0435 -0.1002  0.0029
17067TIP3    H172692   2.826   3.238  15.122  0.0673 -0.4527 -1.7307
17067TIP3    H272693   2.687   3.281  15.079 -0.6061 -0.0252  0.7044
17068TIP3   OH272694   6.136   3.153  16.295  0.2981  0.2249  0.1855
17068TIP3    H172695   6.055   3.107  16.315  1.0927 -2.0012 -1.2839
17068TIP3    H272696   6.205   3.089  16.311  1.6667  1.6264  0.1374
17069TIP3   OH272697   5.626   4.342  13.984  0.1714 -0.6680  0.1840
17069TIP3    H172698   5.716   4.360  14.010 -0.5697  2.0857  1.2249
17069TIP3    H272699   5.573   4.392  14.046 -2.0122 -0.4723 -1.7080
17070TIP3   OH272700   0.966   6.420  14.136  0.4887 -0.3833 -0.7770
17070TIP3    H172701   0.908   6.446  14.208  2.3664 -0.4132  0.8274
17070TIP3    H272702   0.976   6.499  14.083 -0.7931 -0.3142 -0.9474
17071TIP3   OH272703   2.021   5.008  16.414 -0.3580  0.1399  0.3738
17071TIP3    H172704   2.112   5.038  16.409 -0.1820 -0.3684  0.5436
17071TIP3    H272705   2.004   4.996  16.507 -0.2344 -0.8788  0.2735
17072TIP3   OH272706   1.040   6.407  15.595 -0.2314  0.5300  0.5143
17072TIP3    H172707   1.097   6.354  15.540 -0.8418 -0.5425  0.8769
17072TIP3    H272708   1.081   6.405  15.681 -0.2285  0.6999  0.5177
17073TIP3   OH272709   0.207   1.062   5.211 -0.3200 -0.2034  0.5969
17073TIP3    H172710   0.216   1.038   5.303 -1.3687 -0.7393  0.5718
17073TIP3    H272711   0.219   0.980   5.163  0.2075  0.0693  0.2505
17074TIP3   OH272712   4.141   2.147   0.557 -0.2987  0.0252 -0.5853
17074TIP3    H172713   4.233   2.149   0.582 -0.3877 -0.2251 -0.2303
17074TIP3    H272714   4.107   2.067   0.597 -0.3721 -0.5605 -1.7813
17075TIP3   OH272715   4.401   2.862  14.762  0.3773 -0.5695 -0.3602
17075TIP3    H172716   4.399   2.833  14.853  1.0486 -0.7700 -0.4027
17075TIP3    H272717   4.444   2.948  14.766 -0.3116 -0.2206 -0.3989
17076TIP3   OH272718   3.229   3.591   4.804  0.0241  0.6698  0.4589
17076TIP3    H172719   3.293   3.522   4.786 -0.9286 -0.3826  1.0131
17076TIP3    H272720   3.169   3.588   4.730  0.4154  1.4452  0.0965
17077TIP3   OH272721   4.633   4.127   1.259 -0.0540 -0.2112  0.0478
17077TIP3    H172722   4.716   4.082   1.277 -0.5144 -0.9525  0.3775
17077TIP3    H272723   4.583   4.117   1.340 -0.3275  0.5446 -0.0280
17078TIP3   OH272724   4.188   3.863   0.856 -0.5326 -0.6337  0.3517
17078TIP3    H172725   4.147   3.927   0.798 -0.6181 -0.5875  0.4644
17078TIP3    H272726   4.264   3.832   0.807 -1.9068 -2.3673 -0.7998
17079TIP3   OH272727   1.503   6.471   2.631 -0.0419  0.8928 -0.0756
17079TIP3    H172728   1.555   6.492   2.708  1.6309 -2.2824 -0.1700
17079TIP3    H272729   1.567   6.462   2.560 -1.2597  1.2827 -1.2692
17080TIP3   OH272730   5.502   0.172  15.471 -0.3691  0.3802 -0.6673
17080TIP3    H172731   5.432   0.130  15.521 -0.6908  1.3331 -0.2937
17080TIP3    H272732   5.465   0.184  15.383 -0.7047  0.9299 -0.4569
17081TIP3   OH272733   5.091   4.012  12.416  0.1073  0.8003  0.0946
17081TIP3    H172734   5.176   3.969  12.424  0.4995  1.3400 -0.9881
17081TIP3    H272735   5.111   4.105  12.407 -0.6591  1.0619  0.8920
17082TIP3   OH272736   3.244   1.766  12.396 -0.2191 -0.0458 -1.1378
17082TIP3    H172737   3.262   1.691  12.340  0.9478 -0.8604  0.2611
17082TIP3    H272738   3.155   1.751  12.428  0.3926 -1.4496 -0.0007
17083TIP3   OH272739   6.542   4.281   5.382  0.5695 -0.1569 -0.3245
17083TIP3    H172740   6.501   4.242   5.459  0.7436  1.6837  0.7522
17083TIP3    H272741   6.571   4.368   5.411  1.3436  0.2838 -2.2508
17084TIP3   OH272742   2.699   2.271   2.461 -0.4867  0.1131 -0.6275
17084TIP3    H172743   2.632   2.275   2.393 -0.2332  2.5636 -0.8237
17084TIP3    H272744   2.696   2.357   2.503  0.2328 -0.8847  1.6354
17085TIP3   OH272745   4.875   3.281   5.085 -0.3447  0.1125  0.6417
17085TIP3    H172746   4.830   3.257   5.165 -1.6604  0.9021  0.1770
17085TIP3    H272747   4.909   3.198   5.050 -0.1966 -0.2959  1.7370
17086TIP3   OH272748   1.292   6.717   0.520  0.0975 -0.4017  0.2984
17086TIP3    H172749   1.257   6.663   0.591 -0.6838  1.3631  1.3411
17086TIP3    H272750   1.232   6.792   0.517  0.1894 -0.3713 -2.1731
17087TIP3   OH272751   0.722   1.706   5.753  0.4847  0.2048  0.5476
17087TIP3    H172752   0.711   1.800   5.735 -0.3779  0.4646  2.2027
17087TIP3    H272753   0.678   1.693   5.837 -0.7414 -2.0007 -0.3690
17088TIP3   OH272754   0.783   3.704  14.082  0.1906 -0.0455 -0.2545
17088TIP3    H172755   0.760   3.666  13.997 -1.7411  0.0528  0.1709
17088TIP3    H272756   0.705   3.691  14.136  0.8992  1.0614  1.1114
17089TIP3   OH272757   2.443   6.038  10.909 -0.0656  0.0398  0.1137
17089TIP3    H172758   2.365   6.069  10.955 -0.7375  0.1556 -1.0570
17089TIP3    H272759   2.414   5.958  10.865  0.3402  0.3324 -0.7040
17090TIP3   OH272760   5.126   0.446   1.083 -0.2071  0.1376 -0.0223
17090TIP3    H172761   5.218   0.458   1.060  0.6564 -0.8727  2.5126
17090TIP3    H272762   5.080   0.451   0.999  1.6618  4.1822 -1.0517
17091TIP3   OH272763   2.296   6.094  14.245  0.2031 -0.0232  0.1042
17091TIP3    H172764   2.362   6.114  14.179  0.7424  0.2825  0.7253
17091TIP3    H272765   2.345   6.054  14.317 -0.4408 -0.7718  0.1375
17092TIP3   OH272766   1.506   4.394   3.338 -0.5401 -0.7190  0.1255
17092TIP3    H172767   1.594   4.429   3.326 -0.0425 -1.0736  2.3266
17092TIP3    H272768   1.518   4.316   3.393 -2.2460 -0.5029  0.8766
17093TIP3   OH272769   5.897   6.536  17.141  0.2843  0.0302  0.5940
17093TIP3    H172770   5.956   6.568  17.073 -1.2636  2.0295  0.1099
17093TIP3    H272771   5.809   6.550  17.106 -0.6402  2.4030  3.4418
17094TIP3   OH272772   5.454   2.621   4.972  0.3877 -0.0866 -0.8873
17094TIP3    H172773   5.504   2.667   4.904 -1.0025  1.0248 -1.2025
17094TIP3    H272774   5.508   2.630   5.050  1.3671 -0.1869 -1.5323
17095TIP3   OH272775   3.018   5.376  11.453 -0.2066 -0.1512  0.3112
17095TIP3    H172776   3.042   5.384  11.360  2.7100  0.1790  0.9974
17095TIP3    H272777   3.095   5.338  11.494 -0.2700  2.4000  3.1029
17096TIP3   OH272778   1.633   3.022   4.455  0.3594  0.5268  0.1344
17096TIP3    H172779   1.587   3.063   4.382 -0.2282 -1.2136 -0.5292
17096TIP3    H272780   1.726   3.030   4.432  0.1812 -0.0705 -0.8717
17097TIP3   OH272781   4.564   5.455   3.549 -0.1691 -0.4574 -0.7005
17097TIP3    H172782   4.634   5.499   3.598 -0.1979  1.3147 -2.1487
17097TIP3    H272783   4.585   5.470   3.457 -1.7874 -0.9875 -1.1985
17098TIP3   OH272784   6.190   2.833  15.294 -0.0961  0.2650 -0.0602
17098TIP3    H172785   6.201   2.879  15.377 -0.2391  0.3641 -0.0966
17098TIP3    H272786   6.098   2.847  15.270 -0.2716 -0.4372  0.1695
17099TIP3   OH272787   2.210   3.870  11.555 -0.1889  0.1257 -0.9457
17099TIP3    H172788   2.202   3.783  11.516 -0.6757 -0.8749  1.2158
17099TIP3    H272789   2.304   3.882  11.568 -0.2187 -1.2643  1.0641
17100TIP3   OH272790   4.463   5.018   2.923  0.2153 -0.2259  0.3633
17100TIP3    H172791   4.419   4.947   2.877  1.4238  0.2276 -1.6351
17100TIP3    H272792   4.552   4.985   2.938  1.6478  1.6293 -2.9553
17101TIP3   OH272793   6.428   2.196   1.681 -0.0121 -0.4175 -0.6298
17101TIP3    H172794   6.340   2.224   1.706  0.2271 -1.0182  1.0242
17101TIP3    H272795   6.480   2.206   1.761  1.7636  1.1289 -1.8909
17102TIP3   OH272796   5.342   0.354  12.579 -0.3949 -0.3791  0.7504
17102TIP3    H172797   5.394   0.356  12.499 -0.9649  1.0450  0.3705
17102TIP3    H272798   5.369   0.275  12.624  2.6492  0.6394  0.9369
17103TIP3   OH272799   6.430   3.565   5.976 -0.3966 -0.9942  0.3503
17103TIP3    H172800   6.363   3.571   5.908 -0.6457 -0.1729  0.6547
17103TIP3    H272801   6.502   3.619   5.945 -0.9247  0.2267  1.1919
17104TIP3   OH272802   1.434   3.381   0.630 -0.3702 -0.5408  0.8805
17104TIP3    H172803   1.378   3.339   0.565  1.4310  1.7062 -2.4065
17104TIP3    H272804   1.396   3.469   0.641  1.4639  0.4362 -0.1560
17105TIP3   OH272805   5.906   1.233   5.560 -0.4567  0.2952 -0.0265
17105TIP3    H172806   5.974   1.175   5.595  0.8639  0.9007 -1.5085
17105TIP3    H272807   5.938   1.321   5.576 -1.1943  0.6047 -0.1992
17106TIP3   OH272808   6.547   1.049   2.021 -0.4216 -0.0858  0.1344
17106TIP3    H172809   6.558   1.141   2.045 -1.6440  0.1887 -0.2438
17106TIP3    H272810   6.621   1.029   1.965 -0.9773  1.1597 -1.0939
17107TIP3   OH272811   2.517   4.873  14.341 -0.1264 -0.0990 -0.0617
17107TIP3    H172812   2.521   4.811  14.414  0.1624 -2.8770 -2.2531
17107TIP3    H272813   2.604   4.871  14.302 -0.5653  0.4730 -1.1190
17108TIP3   OH272814   4.034   5.518   3.194  0.4806 -0.4973  0.0626
17108TIP3    H172815   3.977   5.508   3.271  1.3372  0.9157  0.9132
17108TIP3    H272816   4.110   5.462   3.214  0.1501 -1.0960 -0.3303
17109TIP3   OH272817   3.769   3.538   4.335 -0.0079 -0.0069  0.4063
17109TIP3    H172818   3.813   3.598   4.275 -1.5405 -0.5341 -1.3321
17109TIP3    H272819   3.840   3.490   4.378  1.1770  1.6553  0.3737
17110TIP3   OH272820   0.926   4.187   6.479  0.4962  0.3821  0.1247
17110TIP3    H172821   0.934   4.126   6.553  1.3370  0.0609 -0.2222
17110TIP3    H272822   1.005   4.241   6.484  0.9936 -0.2134 -1.0361
17111TIP3   OH272823   4.692   4.349   3.942  0.2911 -0.0770 -0.3168
17111TIP3    H172824   4.768   4.384   3.989 -0.8131  1.8476  0.1189
17111TIP3    H272825   4.692   4.396   3.858 -0.2065 -0.3525 -0.4748
17112TIP3   OH272826   2.565   5.128   0.939 -0.3861 -0.3561 -0.3860
17112TIP3    H172827   2.485   5.176   0.957 -0.6199 -0.5634 -0.8736
17112TIP3    H272828   2.581   5.078   1.019  1.0595  2.1499  1.0322
17113TIP3   OH272829   4.531   5.739  15.398 -0.1047 -0.3846 -0.4146
17113TIP3    H172830   4.617   5.707  15.371  1.1946  2.8897 -0.6494
17113TIP3    H272831   4.527   5.724  15.492  0.7899 -0.4537 -0.3850
17114TIP3   OH272832   5.633   1.774  12.565 -0.2018  0.2964 -0.0463
17114TIP3    H172833   5.625   1.789  12.471  0.6860 -1.4315 -0.4282
17114TIP3    H272834   5.559   1.717  12.586 -0.6318  1.0028  0.3987
17115TIP3   OH272835   6.257   0.469   1.852  0.1768  0.6582 -0.5838
17115TIP3    H172836   6.168   0.472   1.887 -0.3887 -1.0920 -1.7141
17115TIP3    H272837   6.244   0.471   1.757  1.3496  0.4507 -0.7530
17116TIP3   OH272838   6.618   0.997  13.060  0.0337 -0.4187  0.2173
17116TIP3    H172839   6.575   1.076  13.095  0.2649 -0.0584 -0.2912
17116TIP3    H272840   6.627   0.939  13.135 -1.6568 -0.6427  0.2768
17117TIP3   OH272841   6.361   3.408   5.507 -0.2284  0.0350 -0.1182
17117TIP3    H172842   6.379   3.410   5.413  1.3406  0.0845  0.1599
17117TIP3    H272843   6.358   3.500   5.533  1.6059  0.0212  0.2549
17118TIP3   OH272844   3.137   5.023   2.914  0.5088 -0.2622  0.0334
17118TIP3    H172845   3.056   5.072   2.931  0.7481 -0.4801  1.9648
17118TIP3    H272846   3.112   4.931   2.925  0.7458 -0.4040 -0.5927
17119TIP3   OH272847   0.798   5.917   5.404 -0.2037 -0.8075 -0.5766
17119TIP3    H172848   0.825   5.939   5.493 -0.5578 -1.2858 -0.3489
17119TIP3    H272849   0.720   5.864   5.415 -0.7047 -0.2192 -1.2040
17120TIP3   OH272850   6.176   1.431  14.817 -0.0469  0.2584 -0.5520
17120TIP3    H172851   6.253   1.381  14.843  0.8000  1.6354 -0.3246
17120TIP3    H272852   6.112   1.365  14.791  1.9546 -0.9304 -2.9700
17121TIP3   OH272853   4.527   1.986  14.930  0.2054  0.4246 -0.7864
17121TIP3    H172854   4.514   2.063  14.875 -0.0858  0.7397 -0.2795
17121TIP3    H272855   4.441   1.943  14.932  0.2315  0.3808 -0.6256
17122TIP3   OH272856   0.592   2.423   3.615  0.5917  0.5494 -0.3697
17122TIP3    H172857   0.627   2.473   3.688 -2.8903  1.0368  1.1536
17122TIP3    H272858   0.611   2.332   3.636 -0.1209  0.7098  1.0349
17123TIP3   OH272859   1.800   1.916   5.321 -0.0393 -0.0813  0.1874
17123TIP3    H172860   1.765   1.988   5.373 -0.3745  0.2732 -0.5215
17123TIP3    H272861   1.776   1.937   5.231  1.1492 -0.3294 -0.2018
17124TIP3   OH272862   4.659   3.458   1.056 -0.1235 -0.6079 -0.0781
17124TIP3    H172863   4.639   3.513   0.979  0.4915  0.2548  0.3622
17124TIP3    H272864   4.647   3.516   1.131  2.7055 -0.3570  0.3033
17125TIP3   OH272865   2.316   6.689  15.200 -0.0985  0.0202 -0.1160
17125TIP3    H172866   2.294   6.782  15.193 -1.0222  0.1684  3.2339
17125TIP3    H272867   2.333   6.662  15.110 -1.2056  3.0733 -1.3732
17126TIP3   OH272868   5.123   3.754  11.736  0.4250  0.4420 -0.4754
17126TIP3    H172869   5.107   3.812  11.811 -1.0361 -0.3753 -0.1166
17126TIP3    H272870   5.212   3.722  11.748 -0.5296 -1.5311  2.2736
17127TIP3   OH272871   0.637   3.689  13.374  0.1189  0.5217  0.3664
17127TIP3    H172872   0.643   3.782  13.350 -0.1570  0.2385 -0.8573
17127TIP3    H272873   0.719   3.651  13.343  0.0976  0.2959  0.5831
17128TIP3   OH272874   0.898   2.356   3.519  0.4844  0.3068  0.0681
17128TIP3    H172875   0.835   2.301   3.565 -0.5170  1.6024  0.3209
17128TIP3    H272876   0.972   2.362   3.579  1.0343 -1.4890 -0.3661
17129TIP3   OH272877   5.980   1.147  17.201  0.2929  0.7347 -0.2271
17129TIP3    H172878   5.979   1.151  17.296  0.6414  0.0226 -0.1866
17129TIP3    H272879   6.010   1.234  17.174 -1.0071  1.3592  0.2584
17130TIP3   OH272880   2.184   2.134   1.740 -0.1009  0.1877 -0.0754
17130TIP3    H172881   2.179   2.167   1.651 -0.1828  1.9082  0.5266
17130TIP3    H272882   2.098   2.154   1.778 -0.2748 -1.0503  0.2477
17131TIP3   OH272883   5.220   2.420  16.656  0.8250 -0.3586 -0.4205
17131TIP3    H172884   5.246   2.387  16.742 -0.7124 -1.0990 -0.1987
17131TIP3    H272885   5.269   2.501  16.645  1.6442 -0.6635  0.8067
17132TIP3   OH272886   6.009   1.885   4.369 -0.0078  0.5000  0.2156
17132TIP3    H172887   6.032   1.935   4.447  1.0552 -0.6176  0.6529
17132TIP3    H272888   5.915   1.871   4.376 -0.1881  1.7542  0.4754
17133TIP3   OH272889   3.392   3.463   1.092  0.0837  0.0625  0.0189
17133TIP3    H172890   3.344   3.457   1.175  0.0649 -0.6164 -0.0393
17133TIP3    H272891   3.336   3.519   1.037 -0.3588 -0.2481  0.1448
17134TIP3   OH272892   3.487   3.808  11.995 -0.3443  0.1694  0.1796
17134TIP3    H172893   3.446   3.796  11.909  0.1511  1.1789 -0.2062
17134TIP3    H272894   3.415   3.837  12.051 -0.5693 -0.0017 -0.0160
17135TIP3   OH272895   1.805   3.031  11.717  0.4233 -0.5169 -0.0336
17135TIP3    H172896   1.731   3.023  11.657  0.1002 -0.9927  0.4168
17135TIP3    H272897   1.784   2.971  11.789  1.6080 -1.2450 -0.2669
17136TIP3   OH272898   1.217   0.694  13.350 -0.0214  0.1936  0.0090
17136TIP3    H172899   1.291   0.634  13.334 -0.6282 -0.0915 -1.9897
17136TIP3    H272900   1.144   0.636  13.369 -0.6553  0.2197 -2.1091
17137TIP3   OH272901   0.328   0.187  13.388  0.6404 -0.3085  0.0254
17137TIP3    H172902   0.400   0.203  13.328  1.7897 -0.2097  1.3763
17137TIP3    H272903   0.249   0.196  13.335  1.5940  0.4122 -1.3000
17138TIP3   OH272904   2.445   1.387   4.260 -0.0971 -0.1232 -0.0222
17138TIP3    H172905   2.468   1.465   4.310  0.2071  0.4536 -1.0217
17138TIP3    H272906   2.525   1.364   4.213 -0.7086  0.1509 -1.2574
17139TIP3   OH272907   1.561   5.154   3.512  0.6133 -0.1652  0.1448
17139TIP3    H172908   1.610   5.156   3.594  1.8242  0.5727 -0.5566
17139TIP3    H272909   1.542   5.246   3.493 -1.4073 -0.4488  0.5641
17140TIP3   OH272910   0.552   5.560  14.750  0.0719  0.1716 -0.3787
17140TIP3    H172911   0.502   5.543  14.830  0.4967 -0.5760 -0.2654
17140TIP3    H272912   0.487   5.594  14.688 -0.2584  0.7701  0.2813
17141TIP3   OH272913   1.164   3.114   3.114 -0.8336 -0.1082 -0.2942
17141TIP3    H172914   1.182   3.207   3.106 -0.4280 -0.2593 -1.4209
17141TIP3    H272915   1.092   3.099   3.053 -4.5074  0.3368  3.4868
17142TIP3   OH272916   0.052   1.789  15.099 -0.3357 -0.0506  0.4282
17142TIP3    H172917   0.021   1.788  15.008  1.5933 -1.1252 -0.2844
17142TIP3    H272918  -0.005   1.728  15.145 -2.0185  1.3116  0.2229
17143TIP3   OH272919   5.950   6.724   0.434  0.1901  0.6039  0.0121
17143TIP3    H172920   5.870   6.723   0.487  0.9879  1.8409  1.3129
17143TIP3    H272921   5.921   6.748   0.346 -0.9367  0.3546  0.2977
17144TIP3   OH272922   3.134   4.200   1.060  0.1990 -0.1406  0.0461
17144TIP3    H172923   3.196   4.153   1.004  0.4247 -1.0955  1.0722
17144TIP3    H272924   3.051   4.154   1.046  0.4703 -1.0387  1.2300
17145TIP3   OH272925   2.903   1.294   3.997 -0.0827  0.4866 -0.3189
17145TIP3    H172926   2.950   1.357   3.942 -0.2091 -0.6169 -1.7772
17145TIP3    H272927   2.870   1.345   4.070 -1.8704  2.5751 -2.4141
17146TIP3   OH272928   0.265   3.707  16.204  0.4956  0.5352 -0.1649
17146TIP3    H172929   0.267   3.648  16.128  0.5134 -1.2753  1.1625
17146TIP3    H272930   0.207   3.662  16.266  0.8564  1.7410  1.0754
17147TIP3   OH272931   4.516   3.853   4.194  0.2880 -0.1801 -0.0103
17147TIP3    H172932   4.581   3.849   4.124  0.8330 -0.1919  0.4921
17147TIP3    H272933   4.540   3.783   4.254  0.6408  0.6779  0.8809
17148TIP3   OH272934   2.277   4.660   6.166 -0.8629 -0.0384 -0.0108
17148TIP3    H172935   2.289   4.646   6.072 -0.1252  0.1137  0.0531
17148TIP3    H272936   2.349   4.718   6.191 -0.2689 -1.1237  0.8848
17149TIP3   OH272937   1.228   0.265   2.969 -0.1042  0.2422  0.1804
17149TIP3    H172938   1.243   0.336   3.031 -1.0986  1.6365 -1.1169
17149TIP3    H272939   1.305   0.266   2.912  1.9512 -2.4894  2.5454
17150TIP3   OH272940   0.504   3.684  11.964 -0.1313  0.1941  0.0265
17150TIP3    H172941   0.561   3.704  11.889  1.1177 -1.2463  0.5360
17150TIP3    H272942   0.485   3.769  12.004  0.4922  0.8269 -0.9907
17151TIP3   OH272943   0.350   6.412   3.919  0.4627 -0.2554  1.1527
17151TIP3    H172944   0.365   6.337   3.978  0.2108 -0.7659  0.5775
17151TIP3    H272945   0.311   6.373   3.841  0.4424  0.4700  0.7983
17152TIP3   OH272946   5.290   3.920   0.666 -0.1528  0.6633  0.4023
17152TIP3    H172947   5.296   3.827   0.646  1.6348  1.0874 -1.2619
17152TIP3    H272948   5.208   3.948   0.626 -0.9749 -0.2687  1.3784
17153TIP3   OH272949   6.605   3.106  10.426  0.3030 -0.3067 -0.6495
17153TIP3    H172950   6.673   3.172  10.437 -0.6564  0.6715 -0.4395
17153TIP3    H272951   6.645   3.025  10.460  1.5442  0.1134 -1.0504
17154TIP3   OH272952   6.719   5.723   1.855 -0.2016  0.0236 -0.1979
17154TIP3    H172953   6.800   5.680   1.829 -0.4870 -0.7000  0.0736
17154TIP3    H272954   6.650   5.670   1.816 -0.5705  0.0317  0.4173
17155TIP3   OH272955   6.162   2.974   5.933  0.1875  0.2698  0.0595
17155TIP3    H172956   6.112   3.035   5.986 -1.7552 -1.1969  0.0253
17155TIP3    H272957   6.114   2.969   5.850  1.1358 -0.1981 -0.4864
17156TIP3   OH272958   1.836   5.781  11.385  0.4414  0.7054  0.1142
17156TIP3    H172959   1.906   5.817  11.331  0.1611 -0.8879 -1.3981
17156TIP3    H272960   1.758   5.784  11.329  0.4633 -2.4092 -0.2599
17157TIP3   OH272961   6.270   2.340  15.180 -0.1026  0.3010  0.0181
17157TIP3    H172962   6.247   2.354  15.271 -0.2669  0.2343 -0.0135
17157TIP3    H272963   6.354   2.295  15.183 -0.0588  0.3897  0.1347
17158TIP3   OH272964   1.186   4.741  15.591 -0.6299 -0.5122 -0.2359
17158TIP3    H172965   1.173   4.648  15.572 -1.4459 -0.2200 -1.1782
17158TIP3    H272966   1.281   4.753  15.586 -0.5835 -1.1200 -1.0019
17159TIP3   OH272967   0.823   3.869   1.693  0.0275 -0.1521  0.2450
17159TIP3    H172968   0.779   3.807   1.753 -0.3780  0.4433  0.5745
17159TIP3    H272969   0.762   3.942   1.687  0.3140  0.0252 -0.4889
17160TIP3   OH272970   0.158   0.388  17.011  0.3736 -0.2966 -0.1286
17160TIP3    H172971   0.163   0.321  17.079 -0.2596 -0.6568 -0.4330
17160TIP3    H272972   0.193   0.347  16.933 -0.9063 -0.6155 -0.5651
17161TIP3   OH272973   2.311   4.051  11.201  0.0786 -0.4608 -0.0713
17161TIP3    H172974   2.329   4.096  11.119  2.3798  3.5651  2.2551
17161TIP3    H272975   2.396   4.048  11.246 -1.2552 -1.2982  2.6407
17162TIP3   OH272976   2.392   0.430   6.105 -0.2018 -0.1889 -0.3174
17162TIP3    H172977   2.356   0.434   6.193  0.0918  2.3461 -0.2380
17162TIP3    H272978   2.472   0.379   6.113 -0.3720 -0.2984  0.7882
17163TIP3   OH272979   2.715   2.411   3.146  0.3423  0.2324 -0.0164
17163TIP3    H172980   2.808   2.388   3.144 -0.0748 -1.6488  0.3749
17163TIP3    H272981   2.688   2.393   3.236  0.2117  3.6497  0.7753
17164TIP3   OH272982   5.044   4.851  10.871  0.0078  0.4272  0.0713
17164TIP3    H172983   4.961   4.818  10.837 -0.7068  2.6823 -0.5683
17164TIP3    H272984   5.099   4.860  10.794  0.7287 -0.6257  0.4396
17165TIP3   OH272985   4.741   2.048  14.665  0.7467 -0.2429  0.0624
17165TIP3    H172986   4.727   2.140  14.642  0.5740 -0.2941 -0.0362
17165TIP3    H272987   4.746   2.003  14.581  1.1522 -0.2776  0.1043
17166TIP3   OH272988   4.103   2.595  15.755 -0.0345  0.2230 -0.3765
17166TIP3    H172989   4.060   2.509  15.761  1.0760 -0.3937 -0.9055
17166TIP3    H272990   4.068   2.633  15.675 -1.1119  0.6214  0.2532
17167TIP3   OH272991   3.535   0.698  10.828 -0.3604  0.1329  0.3499
17167TIP3    H172992   3.565   0.654  10.749 -0.0174 -1.9081  1.5479
17167TIP3    H272993   3.578   0.783  10.826  0.8455 -0.4640 -0.9039
17168TIP3   OH272994   5.378   6.253   2.448 -0.0676 -0.3859 -0.1992
17168TIP3    H172995   5.300   6.200   2.434 -2.5737  2.7144  0.7159
17168TIP3    H272996   5.368   6.326   2.386  2.1452  0.0873 -0.0665
17169TIP3   OH272997   4.487   0.445  15.799 -0.3037  0.2382  0.2181
17169TIP3    H172998   4.445   0.360  15.812  1.2248 -0.3108  1.8855
17169TIP3    H272999   4.415   0.503  15.771 -1.2800 -1.6732 -1.5086
17170TIP3   OH273000   2.756   0.411  12.747 -0.1728  0.6569 -0.4988
17170TIP3    H173001   2.814   0.488  12.748 -0.3396  0.8303 -1.8207
17170TIP3    H273002   2.682   0.438  12.692 -0.4380 -0.3082 -0.6332
17171TIP3   OH273003   3.014   1.718   1.190  0.2410  0.2967 -0.1074
17171TIP3    H173004   3.083   1.682   1.134  0.7200  1.9607 -0.6452
17171TIP3    H273005   2.961   1.642   1.215  1.0287 -0.7245 -1.4038
17172TIP3   OH273006   2.263   2.703  15.199  0.2020  0.4605  0.1253
17172TIP3    H173007   2.228   2.664  15.279 -1.1753  1.6752  0.1606
17172TIP3    H273008   2.320   2.635  15.162 -3.9712 -2.7220 -1.1817
17173TIP3   OH273009   1.633   6.092   5.009 -0.1099  0.2402 -0.0849
17173TIP3    H173010   1.586   6.066   4.930  0.0251  0.9909 -0.4128
17173TIP3    H273011   1.690   6.163   4.982  1.1526 -0.5729  0.3294
17174TIP3   OH273012   0.145   4.177  17.105 -0.2952  0.2153  0.0848
17174TIP3    H173013   0.164   4.246  17.042 -2.2568  0.9873  0.2998
17174TIP3    H273014   0.231   4.139  17.124  0.6508  1.6376 -1.1062
17175TIP3   OH273015   6.561   1.453  13.672 -0.1864 -0.2099  0.2573
17175TIP3    H173016   6.612   1.445  13.753  0.3458 -0.1171 -0.0673
17175TIP3    H273017   6.570   1.545  13.648 -1.2257  0.0189  0.6608
17176TIP3   OH273018   5.775   2.277  15.189  0.6088 -0.2907 -0.3041
17176TIP3    H173019   5.761   2.299  15.281  1.4797  0.6505 -0.3728
17176TIP3    H273020   5.845   2.212  15.190  0.7542 -0.1359 -0.3031
17177TIP3   OH273021   6.414   6.772  15.458  0.1749  0.7992 -0.2433
17177TIP3    H173022   6.365   6.746  15.537  1.7383 -0.2000  0.4454
17177TIP3    H273023   6.356   6.749  15.385 -0.9662  0.9728  0.5767
17178TIP3   OH273024   2.022   1.269  11.100 -0.4466 -0.3221  0.3154
17178TIP3    H173025   2.059   1.321  11.172  0.5116  0.8423 -0.9628
17178TIP3    H273026   1.929   1.290  11.100 -0.1134  1.2192 -0.0105
17179TIP3   OH273027   4.128   3.007  15.746  0.2805  0.2772  0.0642
17179TIP3    H173028   4.083   3.062  15.682 -0.2959 -0.3803 -0.1017
17179TIP3    H273029   4.220   3.010  15.718  0.1888  0.7831 -0.2109
17180TIP3   OH273030   2.887   3.466  13.897  0.5788  0.2499 -0.5947
17180TIP3    H173031   2.883   3.538  13.960 -0.2738 -0.2293 -0.0833
17180TIP3    H273032   2.862   3.388  13.947 -0.8972 -0.0230 -1.6840
17181TIP3   OH273033   5.586   2.676  12.104 -0.3470  0.0268 -0.7562
17181TIP3    H173034   5.642   2.705  12.032  0.1297  0.0102 -0.3941
17181TIP3    H273035   5.499   2.668  12.065 -0.5853  2.2512 -0.8098
17182TIP3   OH273036   5.082   2.551  11.795  0.0665 -0.2344 -0.0712
17182TIP3    H173037   5.097   2.643  11.816 -0.2921 -0.1742 -0.0664
17182TIP3    H273038   4.995   2.532  11.833  0.6901 -0.9208  1.0831
17183TIP3   OH273039   5.903   5.485   1.318  0.0690  0.0307  0.1425
17183TIP3    H173040   5.847   5.493   1.241  0.9995 -0.8656 -0.6562
17183TIP3    H273041   5.970   5.423   1.292 -0.3068 -1.2848  2.1101
17184TIP3   OH273042   3.769   6.173   3.115  0.5236  0.2831 -0.5535
17184TIP3    H173043   3.852   6.147   3.075  1.4006 -0.1202  1.4144
17184TIP3    H273044   3.794   6.233   3.185 -0.9738  1.1170 -0.6882
17185TIP3   OH273045   6.411   3.029  16.478 -0.3035 -0.0203 -0.4780
17185TIP3    H173046   6.391   2.991  16.393 -0.8575 -3.3299  0.9490
17185TIP3    H273047   6.505   3.047  16.475 -0.0550 -1.3214 -1.4057
17186TIP3   OH273048   3.998   4.562   4.685  0.2012 -0.0616 -0.1022
17186TIP3    H173049   4.017   4.617   4.761 -1.3649  1.5789 -0.8401
17186TIP3    H273050   3.914   4.521   4.705  0.6313 -1.0403 -0.2187
17187TIP3   OH273051   4.581   0.080  15.576  0.1616  0.1077 -0.0009
17187TIP3    H173052   4.596   0.109  15.486 -0.0223 -0.3999 -0.1973
17187TIP3    H273053   4.489   0.100  15.593  0.7937  2.5818  0.9696
17188TIP3   OH273054   3.213   1.839   2.815  0.2953 -0.1857 -0.1471
17188TIP3    H173055   3.133   1.862   2.768  0.6202 -0.2342 -0.7252
17188TIP3    H273056   3.182   1.787   2.890 -0.1486 -0.9074 -0.8147
17189TIP3   OH273057   0.408   0.798  10.979  0.0116 -0.2116  0.4548
17189TIP3    H173058   0.353   0.727  10.945  0.1287 -0.2358  0.3134
17189TIP3    H273059   0.454   0.759  11.053  1.4542 -0.8356 -0.7265
17190TIP3   OH273060   4.222   5.131   1.551  0.6531  0.1189 -0.1123
17190TIP3    H173061   4.257   5.109   1.637  0.3791  1.0694  0.2589
17190TIP3    H273062   4.158   5.200   1.569 -0.6511 -0.8541 -0.8942
17191TIP3   OH273063   3.421   4.625  11.986  0.1855 -0.2068 -0.5318
17191TIP3    H173064   3.395   4.534  11.973  1.2680 -0.7072  0.5605
17191TIP3    H273065   3.503   4.634  11.937  0.9634 -0.3312  0.6879
17192TIP3   OH273066   3.120   0.455  14.796 -0.1252 -0.2360  0.4268
17192TIP3    H173067   3.085   0.479  14.882 -1.7928 -1.1978  0.0640
17192TIP3    H273068   3.178   0.381  14.814 -1.9563 -1.7228  0.5894
17193TIP3   OH273069   2.739   2.273   5.119 -0.4872 -0.2714 -0.1555
17193TIP3    H173070   2.667   2.226   5.161 -1.2830  0.3405 -0.8120
17193TIP3    H273071   2.762   2.342   5.181 -0.0862 -0.8106  0.3021
17194TIP3   OH273072   4.088   5.143   5.619  0.2034  0.7531  0.0548
17194TIP3    H173073   4.161   5.204   5.612 -0.1335  1.3252  1.2366
17194TIP3    H273074   4.125   5.058   5.597  1.2221  1.0512  0.5751
17195TIP3   OH273075   5.128   0.794  15.405  0.6177 -0.7565  0.3798
17195TIP3    H173076   5.128   0.701  15.383  2.0045 -0.9461  1.0477
17195TIP3    H273077   5.220   0.815  15.420  0.2741  0.6090  0.7412
17196TIP3   OH273078   5.430   0.962  16.289  0.5928  0.6788 -0.0730
17196TIP3    H173079   5.478   0.960  16.206  1.2252  1.8949  0.2415
17196TIP3    H273080   5.481   0.905  16.347 -0.0498 -0.4654 -0.5982
17197TIP3   OH273081   1.645   0.568   2.211  0.3585 -0.2613  0.0041
17197TIP3    H173082   1.582   0.519   2.264  2.1305 -3.3630 -0.4782
17197TIP3    H273083   1.592   0.625   2.157 -1.6672  1.1884  3.2224
17198TIP3   OH273084   4.612   4.014   3.662  0.0553  0.4311  0.4841
17198TIP3    H173085   4.626   4.108   3.646  0.6290  0.2433 -0.1592
17198TIP3    H273086   4.544   3.989   3.599 -0.3618  0.4871  0.9051
17199TIP3   OH273087   0.269   5.742   4.650 -0.0152 -0.4822  0.1974
17199TIP3    H173088   0.331   5.677   4.682 -2.1500 -1.9306  1.7340
17199TIP3    H273089   0.215   5.694   4.586 -0.3152  0.3756 -0.2034
17200TIP3   OH273090   6.381   6.538  13.590  0.4988  0.0509  0.2464
17200TIP3    H173091   6.369   6.622  13.545 -0.5802  0.2942  0.9479
17200TIP3    H273092   6.294   6.516  13.623  0.8820 -1.0894  0.5211
17201TIP3   OH273093   0.716   0.558  15.793 -0.1630  0.5740 -0.1147
17201TIP3    H173094   0.648   0.491  15.791  0.2933  0.0443  1.2390
17201TIP3    H273095   0.749   0.561  15.703  0.2927 -1.5221 -0.0555
17202TIP3   OH273096   3.154   3.530  16.292  0.7997  0.2905 -0.3285
17202TIP3    H173097   3.186   3.562  16.377  2.9348 -0.4361 -0.7998
17202TIP3    H273098   3.086   3.467  16.315  2.0415 -0.6730  0.9586
17203TIP3   OH273099   2.536   0.813   0.056  0.0966  0.4779  1.0140
17203TIP3    H173100   2.459   0.783   0.008  0.8240  3.3558 -2.3635
17203TIP3    H273101   2.605   0.752   0.032 -0.7262 -1.4129  3.1126
17204TIP3   OH273102   2.356   3.925  15.575  0.1096 -1.2739 -0.3446
17204TIP3    H173103   2.302   3.993  15.535  0.3572 -0.2079  1.0806
17204TIP3    H273104   2.374   3.864  15.503 -0.9611 -0.3854 -1.4105
17205TIP3   OH273105   4.892   5.273   0.999  0.1230 -0.0880  0.0531
17205TIP3    H173106   4.934   5.216   0.935 -0.0501  0.3939 -0.4987
17205TIP3    H273107   4.874   5.216   1.074 -1.3954 -1.1451 -1.0497
17206TIP3   OH273108   6.281   6.462  16.460 -0.4661  0.2451 -0.7388
17206TIP3    H173109   6.256   6.443  16.370  0.0670 -1.4552 -0.5672
17206TIP3    H273110   6.318   6.550  16.457  0.1939 -0.0610 -2.3127
17207TIP3   OH273111   5.759   0.730   1.856  0.2450 -0.1072 -0.3852
17207TIP3    H173112   5.679   0.699   1.898  1.5078 -0.1335  2.2004
17207TIP3    H273113   5.747   0.825   1.851  0.9988  0.2393  2.4484
17208TIP3   OH273114   1.035   0.163  17.106 -0.3481  0.1968  0.6900
17208TIP3    H173115   1.056   0.251  17.076  0.0928  0.5198  1.9086
17208TIP3    H273116   0.945   0.169  17.137 -1.0502 -0.3009 -1.0970
17209TIP3   OH273117   4.746   4.267   2.080 -0.0876 -0.1822 -0.2002
17209TIP3    H173118   4.671   4.209   2.083  0.6641 -1.1584  0.7018
17209TIP3    H273119   4.804   4.229   2.014 -0.1084  0.2224 -0.4571
17210TIP3   OH273120   2.252   4.679   2.257  0.0249 -0.3815 -0.2879
17210TIP3    H173121   2.222   4.770   2.266 -0.0060 -0.5700  2.4107
17210TIP3    H273122   2.175   4.632   2.225 -1.2431 -0.0607  2.0589
17211TIP3   OH273123   5.142   4.039   1.616  0.1088 -0.6619  0.2648
17211TIP3    H173124   5.210   3.979   1.647  0.2902 -0.1057  0.9691
17211TIP3    H273125   5.078   4.042   1.687 -0.2714 -0.5885 -0.0749
17212TIP3   OH273126   1.455   6.322   5.184 -0.2929  0.5945  0.2063
17212TIP3    H173127   1.482   6.231   5.197  0.6617  1.2481  4.2397
17212TIP3    H273128   1.523   6.360   5.127  0.6818 -0.6398  0.5170
17213TIP3   OH273129   1.302   5.023   4.657 -0.6454  0.4606 -0.0740
17213TIP3    H173130   1.320   5.095   4.596  0.3872  1.3413  1.2047
17213TIP3    H273131   1.283   4.948   4.601  2.3518  0.6621 -1.6036
17214TIP3   OH273132   3.094   3.529   0.726  0.4832 -0.0056 -0.3309
17214TIP3    H173133   3.070   3.459   0.666  3.4078 -0.3242 -1.2668
17214TIP3    H273134   3.033   3.600   0.706 -0.1874 -0.9931 -1.9525
17215TIP3   OH273135   2.283   0.055  10.318 -0.2089 -0.4287 -0.0690
17215TIP3    H173136   2.194   0.045  10.351 -0.4313 -0.6783 -0.7254
17215TIP3    H273137   2.332   0.092  10.392 -0.8034 -0.4929  0.3665
17216TIP3   OH273138   2.696   2.298  13.188 -0.0705 -0.0575 -0.1643
17216TIP3    H173139   2.644   2.342  13.256 -0.7958 -1.0661 -0.0503
17216TIP3    H273140   2.767   2.257  13.236 -0.4514 -0.5740 -0.0349
17217TIP3   OH273141   0.655   6.012   6.030  0.4704  0.6791  0.3795
17217TIP3    H173142   0.710   6.005   5.951  1.7705 -0.7897  1.3575
17217TIP3    H273143   0.582   6.067   6.003 -0.2251 -1.4377 -2.5022
17218TIP3   OH273144   3.237   0.746  14.940 -0.4461 -0.1199 -0.1532
17218TIP3    H173145   3.272   0.657  14.938 -0.8129 -0.2579 -0.9516
17218TIP3    H273146   3.164   0.742  15.001  0.8274  0.1479  1.4629
17219TIP3   OH273147   6.536   0.269  10.707  0.2314 -0.0602 -0.3018
17219TIP3    H173148   6.582   0.351  10.725 -0.7665  0.4742 -0.0768
17219TIP3    H273149   6.480   0.256  10.784  0.6804 -1.1909 -0.1399
17220TIP3   OH273150   2.382   4.093   5.920 -0.4561  0.3120 -0.0713
17220TIP3    H173151   2.368   4.134   5.834  0.3518  0.5024 -0.1191
17220TIP3    H273152   2.385   3.999   5.901 -0.2378  0.3558 -0.2598
17221TIP3   OH273153   3.239   5.882   2.422  0.1100 -0.2492  0.5128
17221TIP3    H173154   3.189   5.863   2.501 -1.5683  2.2665  0.1691
17221TIP3    H273155   3.247   5.978   2.421  2.1922 -0.3535 -1.1476
17222TIP3   OH273156   1.903   1.364  15.254 -0.1897 -0.3133  0.0373
17222TIP3    H173157   1.971   1.430  15.266  0.6747 -1.1558 -0.1208
17222TIP3    H273158   1.829   1.412  15.217  0.2918  0.6290  0.2811
17223TIP3   OH273159   2.122   2.229  11.415 -0.1665  0.5731 -0.1594
17223TIP3    H173160   2.213   2.215  11.388 -0.2321 -1.2758  0.3966
17223TIP3    H273161   2.128   2.287  11.491  0.4709  1.1061 -0.6044
17224TIP3   OH273162   2.107   4.466  16.638 -0.0954  0.1612  0.6137
17224TIP3    H173163   2.071   4.474  16.726 -0.7714 -1.5520  0.5480
17224TIP3    H273164   2.200   4.448  16.651 -0.6410 -2.9033  1.2096
17225TIP3   OH273165   3.036   2.518  15.664 -0.0472 -0.3952  0.2266
17225TIP3    H173166   3.079   2.600  15.689 -2.1272  0.9590 -0.3758
17225TIP3    H273167   3.069   2.454  15.727  1.7829  0.8361  0.6117
17226TIP3   OH273168   5.736   2.653   5.718 -0.4077  0.6330  0.0279
17226TIP3    H173169   5.706   2.636   5.808  1.7968  0.0502  0.7186
17226TIP3    H273170   5.659   2.637   5.664 -1.7468  0.7613  1.7805
17227TIP3   OH273171   1.280   2.669   2.512 -0.1330 -0.4275 -0.1385
17227TIP3    H173172   1.329   2.751   2.516  0.6003 -0.8723  0.2079
17227TIP3    H273173   1.273   2.650   2.419  0.5855 -0.4916 -0.1827
17228TIP3   OH273174   6.012   5.273  13.938  0.0215  0.1557 -0.1388
17228TIP3    H173175   5.994   5.272  13.844 -1.9145  0.7271  0.1655
17228TIP3    H273176   6.044   5.186  13.958 -0.6221 -0.3366 -1.1734
17229TIP3   OH273177   5.220   6.762  10.812 -0.1129 -0.1386 -0.0533
17229TIP3    H173178   5.129   6.774  10.838  0.2804  2.0150  0.5761
17229TIP3    H273179   5.246   6.847  10.777  1.0153 -1.3560 -2.4770
17230TIP3   OH273180   4.288   4.712  13.207 -0.5321  0.3731 -0.3047
17230TIP3    H173181   4.311   4.668  13.125 -0.0071 -0.7624  0.4243
17230TIP3    H273182   4.211   4.764  13.186  1.6353  3.0321 -2.4778
17231TIP3   OH273183   4.184   2.494   1.019 -0.0791  0.1057 -0.0467
17231TIP3    H173184   4.153   2.569   0.968  0.1412 -0.1912 -0.6273
17231TIP3    H273185   4.105   2.457   1.058  0.0125  1.7945  1.8623
17232TIP3   OH273186   0.307   3.578   1.129  0.0233 -0.1106 -0.0453
17232TIP3    H173187   0.225   3.561   1.083 -0.3520 -1.6000  1.1105
17232TIP3    H273188   0.286   3.570   1.221  1.4737 -0.5678  0.2751
17233TIP3   OH273189   2.942   5.577   5.828  0.5983 -0.1184  0.1853
17233TIP3    H173190   3.017   5.605   5.775  1.0261 -0.1335  0.7752
17233TIP3    H273191   2.922   5.653   5.883  0.6918 -0.3835  0.5934
17234TIP3   OH273192   3.751   2.841  11.000  0.1204  0.4326 -0.9194
17234TIP3    H173193   3.680   2.791  10.958  0.8476 -1.5422  0.0637
17234TIP3    H273194   3.785   2.897  10.931  0.2992 -1.6247 -2.6138
17235TIP3   OH273195   5.774   6.445  14.866  0.0772 -0.2075  0.0148
17235TIP3    H173196   5.707   6.465  14.931 -0.6765 -2.4495  0.0126
17235TIP3    H273197   5.737   6.373  14.814  1.6483 -0.1059 -1.3417
17236TIP3   OH273198   2.228   4.365   4.077 -0.4889 -0.4208 -0.3644
17236TIP3    H173199   2.180   4.384   4.158 -0.3062 -0.3851 -0.2637
17236TIP3    H273200   2.191   4.426   4.012 -0.2840 -0.0952 -0.1797
17237TIP3   OH273201   4.483   5.128  13.693  0.0913 -0.0230 -0.5644
17237TIP3    H173202   4.488   5.101  13.601  0.3067  1.6903 -1.0827
17237TIP3    H273203   4.444   5.215  13.691  0.5393  0.2475  0.9405
17238TIP3   OH273204   6.080   5.315   1.558  0.3965  0.3056 -0.1931
17238TIP3    H173205   6.075   5.252   1.486  1.1955 -0.2078  0.1822
17238TIP3    H273206   5.998   5.302   1.607  0.0740  0.3151 -0.7253
17239TIP3   OH273207   3.904   5.811  13.317 -0.5337  0.1306  0.2035
17239TIP3    H173208   3.852   5.745  13.361 -2.1187 -0.4196 -2.2918
17239TIP3    H273209   3.988   5.810  13.363 -1.3008 -1.9274  1.7132
17240TIP3   OH273210   5.454   1.450  15.342 -0.2426  0.5147 -0.4778
17240TIP3    H173211   5.368   1.440  15.303 -0.4793  0.5652  0.0267
17240TIP3    H273212   5.440   1.506  15.418  0.2057  0.3955 -0.3019
17241TIP3   OH273213   0.282   0.097   1.729 -0.1272  0.1733 -0.0091
17241TIP3    H173214   0.329   0.164   1.679  0.8358 -0.2282  0.3452
17241TIP3    H273215   0.197   0.091   1.686  0.4542  0.2838 -1.2097
17242TIP3   OH273216   3.546   6.664  14.771  0.1582 -0.3149 -0.4331
17242TIP3    H173217   3.577   6.661  14.862  0.6395  1.3334 -0.4995
17242TIP3    H273218   3.624   6.687  14.721 -0.1702 -0.9207 -1.2322
17243TIP3   OH273219   3.598   2.365  15.730 -0.5076  0.3666  0.0542
17243TIP3    H173220   3.646   2.357  15.812  0.0879  2.3524 -0.0282
17243TIP3    H273221   3.537   2.438  15.745 -1.1827  0.0335 -0.9137
17244TIP3   OH273222   6.567   3.134  15.646  0.0997  0.6431  0.1853
17244TIP3    H173223   6.661   3.116  15.644  0.1274  0.7684  0.3313
17244TIP3    H273224   6.542   3.145  15.554  0.1928  0.4325  0.1358
17245TIP3   OH273225   2.063   5.641  12.695  0.9158  0.2348 -0.4790
17245TIP3    H173226   2.100   5.553  12.696 -1.2840 -0.7702 -1.0842
17245TIP3    H273227   2.122   5.692  12.638  1.7974 -1.0224 -0.7223
17246TIP3   OH273228   6.829   0.171  14.784  0.0394  0.1049 -0.2565
17246TIP3    H173229   6.866   0.211  14.862 -0.0854  1.6152 -0.9184
17246TIP3    H273230   6.738   0.203  14.781  0.3976  1.1143 -1.6480
17247TIP3   OH273231   1.199   2.143   1.007 -0.1226  0.1341 -0.6015
17247TIP3    H173232   1.246   2.133   1.089  0.6760 -1.9202 -1.2464
17247TIP3    H273233   1.119   2.190   1.031  1.1093  1.5698  0.9280
17248TIP3   OH273234   4.869   0.222  10.975  0.0160 -0.1789  0.3766
17248TIP3    H173235   4.896   0.285  10.908  2.2690 -0.7562  0.6588
17248TIP3    H273236   4.803   0.269  11.027  0.3027  1.2876 -0.5191
17249TIP3   OH273237   0.787   2.343   0.761  0.0098 -0.0852  0.4246
17249TIP3    H173238   0.750   2.319   0.845 -3.3932  0.5459 -0.7278
17249TIP3    H273239   0.875   2.305   0.761 -0.6658 -1.9445  3.3413
17250TIP3   OH273240   4.133   0.142   3.108 -0.2668 -0.0844  0.4504
17250TIP3    H173241   4.143   0.093   3.026  0.5307 -0.8971  1.0182
17250TIP3    H273242   4.073   0.089   3.160  0.4030 -0.3405  0.9713
17251TIP3   OH273243   2.644   0.871  11.119  0.1872  0.0841 -0.5549
17251TIP3    H173244   2.707   0.915  11.177  0.7846  0.1633 -1.2486
17251TIP3    H273245   2.573   0.934  11.109 -0.1356 -0.0984  0.4281
17252TIP3   OH273246   4.243   4.145  11.330 -0.8410 -0.3136  0.1628
17252TIP3    H173247   4.229   4.171  11.239  0.2458  1.4330  0.4433
17252TIP3    H273248   4.171   4.184  11.378  0.3234  1.6160  0.4588
17253TIP3   OH273249   1.897   5.015  13.332 -0.4223  0.5141  0.5445
17253TIP3    H173250   1.933   4.945  13.277 -0.8871 -2.5642  3.8369
17253TIP3    H273251   1.829   5.055  13.277  0.3102 -1.1415 -1.7456
17254TIP3   OH273252   0.128   1.983  12.936  0.0715  0.0271 -0.3580
17254TIP3    H173253   0.178   1.956  12.859  0.0705 -3.3475  0.6332
17254TIP3    H273254   0.038   1.993  12.905  0.2229 -0.4420 -0.9685
17255TIP3   OH273255   4.105   4.311   3.956  0.1639  0.7384 -0.3263
17255TIP3    H173256   4.165   4.385   3.965  0.7148  0.2591 -0.0361
17255TIP3    H273257   4.144   4.242   4.009 -0.1013  0.0884 -0.9663
17256TIP3   OH273258   6.602   3.624  11.185 -0.1504 -0.4060  0.1798
17256TIP3    H173259   6.680   3.629  11.240 -0.2028 -0.1783  0.2341
17256TIP3    H273260   6.636   3.606  11.097  0.0546  0.7909 -0.0128
17257TIP3   OH273261   5.852   3.208  12.897  0.4489  0.3409 -0.4096
17257TIP3    H173262   5.855   3.115  12.872  1.4685  0.0628  0.6574
17257TIP3    H273263   5.879   3.209  12.989 -1.1591  1.5346  0.0989
17258TIP3   OH273264   4.834   2.439  13.168 -0.4520  0.1142  0.0889
17258TIP3    H173265   4.928   2.430  13.149 -0.3636  0.9861  0.0714
17258TIP3    H273266   4.813   2.363  13.222  0.2919 -0.0264  0.1946
17259TIP3   OH273267   6.812   5.478  14.569 -0.5924  0.5429 -0.1778
17259TIP3    H173268   6.764   5.398  14.547 -0.1277  0.6545 -1.6950
17259TIP3    H273269   6.758   5.548  14.533  0.4282  0.6976 -1.4799
17260TIP3   OH273270   2.877   4.372  12.701  0.0178 -0.0407  0.0012
17260TIP3    H173271   2.898   4.370  12.794  2.9721  0.8513 -0.5269
17260TIP3    H273272   2.933   4.305  12.662  0.1882  0.8179 -1.3276
17261TIP3   OH273273   2.073   5.373   4.766 -0.1169 -0.1220 -0.1948
17261TIP3    H173274   1.979   5.391   4.767 -0.0310  0.3789  1.0044
17261TIP3    H273275   2.114   5.457   4.744  0.1050  0.1261  1.0710
17262TIP3   OH273276   2.863   0.056   0.213 -0.3255 -0.1988  0.5793
17262TIP3    H173277   2.857  -0.037   0.235 -0.0695 -0.0462  1.3244
17262TIP3    H273278   2.934   0.089   0.268  1.8758 -0.2465 -2.0541
17263TIP3   OH273279   1.045   1.848  15.405 -0.3699 -0.0295  0.0900
17263TIP3    H173280   1.127   1.799  15.399  1.2894  2.1750  2.6376
17263TIP3    H273281   1.059   1.925  15.350 -0.0839  1.0786  1.6424
17264TIP3   OH273282   5.373   6.322  12.625 -0.5630  0.3584 -0.1069
17264TIP3    H173283   5.393   6.278  12.542 -0.0775 -1.1690  0.7693
17264TIP3    H273284   5.457   6.359  12.653 -0.2599 -0.8501  0.6456
17265TIP3   OH273285   4.986   6.810  12.634 -0.4584  0.0279  0.3341
17265TIP3    H173286   4.999   6.885  12.693  0.4357  0.1456 -0.0103
17265TIP3    H273287   4.922   6.842  12.570 -1.3867 -0.0771  1.1814
17266TIP3   OH273288   4.647   2.691  10.543  0.2670  0.1050 -0.3763
17266TIP3    H173289   4.707   2.668  10.472  0.8768 -1.1016  0.4868
17266TIP3    H273290   4.596   2.612  10.558  0.2726  0.2782  0.6415
17267TIP3   OH273291   0.041   2.072  14.157  0.1405 -0.0783  0.6519
17267TIP3    H173292  -0.001   2.008  14.214 -0.2529 -1.1511 -0.7903
17267TIP3    H273293  -0.031   2.114  14.110  0.5568 -0.9380 -0.8091
17268TIP3   OH273294   2.265   3.925  12.918  0.2759 -0.4501  0.4009
17268TIP3    H173295   2.342   3.981  12.910  0.6428 -1.0820 -0.6903
17268TIP3    H273296   2.225   3.950  13.001  1.6104 -0.0459  0.9419
17269TIP3   OH273297   3.670   4.729  15.577 -0.4232 -0.3599  0.1362
17269TIP3    H173298   3.756   4.704  15.543 -1.3943 -0.4582 -2.5065
17269TIP3    H273299   3.673   4.824  15.583  0.0537 -0.4029  0.6232
17270TIP3   OH273300   0.680   4.581   0.883 -0.6369 -0.9003  0.3063
17270TIP3    H173301   0.725   4.566   0.966 -1.0480  2.2398  1.2185
17270TIP3    H273302   0.600   4.628   0.907 -1.4618 -1.0991 -1.7783
17271TIP3   OH273303   4.590   3.328  17.073 -0.1157  0.5238  0.6248
17271TIP3    H173304   4.509   3.352  17.117 -0.1699  0.3424  0.6279
17271TIP3    H273305   4.566   3.322  16.980 -0.1662  0.2239  0.6554
17272TIP3   OH273306   3.213   0.351   0.253  0.5107  0.1388  0.1719
17272TIP3    H173307   3.184   0.259   0.248 -0.5497  0.4903 -0.4477
17272TIP3    H273308   3.135   0.401   0.230  1.0358  1.2125  0.6834
17273TIP3   OH273309   2.601   0.019  13.650  0.1525  0.0388  0.1793
17273TIP3    H173310   2.587   0.013  13.556  1.1875 -2.4021  0.1087
17273TIP3    H273311   2.517   0.049  13.685 -0.7736 -0.6277 -1.3790
17274TIP3   OH273312   2.595   0.283  10.906 -0.0181  0.3512  0.0811
17274TIP3    H173313   2.688   0.278  10.930 -0.0098  0.7918  0.1616
17274TIP3    H273314   2.563   0.193  10.913  0.3637  0.2238  0.2185
17275TIP3   OH273315   0.836   0.732   5.763  0.0299  0.5737 -0.5824
17275TIP3    H173316   0.837   0.781   5.681  1.3438  1.9667  0.2123
17275TIP3    H273317   0.857   0.797   5.830  0.9160 -0.8917  0.6409
17276TIP3   OH273318   6.094   0.643   5.329 -0.6060 -0.3531 -0.4110
17276TIP3    H173319   6.135   0.726   5.305  0.1506 -0.8811 -1.0147
17276TIP3    H273320   6.049   0.661   5.411  1.5790  0.0314  0.7707
17277TIP3   OH273321   0.039   5.708   1.429 -0.0891 -0.0851 -0.1044
17277TIP3    H173322  -0.036   5.693   1.486 -1.3071 -0.5921 -1.7772
17277TIP3    H273323   0.103   5.752   1.485 -1.1635 -0.6817  1.6737
17278TIP3   OH273324   0.925   3.422   3.177 -0.1336  0.1226  0.0800
17278TIP3    H173325   0.875   3.347   3.210  0.2188 -0.1958 -0.1016
17278TIP3    H273326   1.014   3.407   3.209  0.4072 -0.6034 -1.6163
17279TIP3   OH273327   4.751   6.642   5.535  0.1512  0.2102 -0.4003
17279TIP3    H173328   4.829   6.687   5.502  1.5410 -0.7940  1.3420
17279TIP3    H273329   4.739   6.568   5.476 -0.2797  1.0681 -1.4245
17280TIP3   OH273330   4.124   5.530   4.087 -0.2051  0.3371  0.6465
17280TIP3    H173331   4.145   5.486   4.005  0.5267  2.3259 -0.2933
17280TIP3    H273332   4.028   5.522   4.095 -0.1534 -0.9164  0.2644
17281TIP3   OH273333   6.003   3.567  17.017  0.4546 -0.5848  0.0692
17281TIP3    H173334   5.972   3.584  16.928 -0.1272 -0.9280  0.1969
17281TIP3    H273335   5.986   3.648  17.064  3.5540  0.7175 -0.8258
17282TIP3   OH273336   6.199   2.017   5.562 -0.2986  0.7862  0.2931
17282TIP3    H173337   6.240   2.076   5.625  0.1505  2.1219 -1.1701
17282TIP3    H273338   6.117   2.060   5.538 -1.0667 -0.3205  0.8578
17283TIP3   OH273339   2.983   6.619  14.425  0.0522 -0.0273 -0.0324
17283TIP3    H173340   3.048   6.679  14.389 -1.4526  1.7473  0.0440
17283TIP3    H273341   2.964   6.653  14.512  1.5435 -2.6035  1.4264
17284TIP3   OH273342   3.060   0.613   0.303  0.3377  0.4250  0.2117
17284TIP3    H173343   3.028   0.583   0.388  1.9701 -0.5088  0.5382
17284TIP3    H273344   3.098   0.700   0.320  1.2145 -0.0202  0.5902
17285TIP3   OH273345   3.021   5.861  13.482 -0.2501  0.0212  0.2155
17285TIP3    H173346   3.069   5.931  13.525  0.2753 -0.2513  0.0861
17285TIP3    H273347   3.021   5.789  13.546  0.6905 -0.4494 -0.2909
17286TIP3   OH273348   1.501   2.413  15.136 -0.0828  0.3072  0.5620
17286TIP3    H173349   1.554   2.444  15.210 -0.3592  0.8895  0.5235
17286TIP3    H273350   1.444   2.487  15.116 -1.1695 -0.4396  0.8386
17287TIP3   OH273351   2.221   3.510  14.309 -0.3244  0.0433 -0.0480
17287TIP3    H173352   2.141   3.543  14.351 -0.1606 -1.3884  1.5295
17287TIP3    H273353   2.197   3.423  14.278  0.3903 -0.0634 -0.3107
17288TIP3   OH273354   6.111   2.443  11.714  0.2508  0.0707 -0.3084
17288TIP3    H173355   6.123   2.352  11.743 -1.7063  0.2284  1.2050
17288TIP3    H273356   6.116   2.438  11.619  1.4341 -1.4061 -0.2148
17289TIP3   OH273357   2.898   2.782   2.481  0.6297 -0.0734  0.3295
17289TIP3    H173358   2.952   2.790   2.560  1.1744 -2.0739  0.2178
17289TIP3    H273359   2.946   2.720   2.426  0.2877  1.3225 -1.6280
17290TIP3   OH273360   1.580   4.011  14.541  0.5921  0.2112 -0.2571
17290TIP3    H173361   1.651   4.016  14.477  2.4038 -1.1456  1.5178
17290TIP3    H273362   1.572   3.918  14.561 -0.4468  0.5267  0.9266
17291TIP3   OH273363   1.568   5.839   6.330  0.4670  0.1789 -0.0730
17291TIP3    H173364   1.625   5.789   6.271  2.3448  1.9798  0.1175
17291TIP3    H273365   1.628   5.892   6.382 -1.2896  0.5198  1.7282
17292TIP3   OH273366   3.817   3.034   5.672 -0.6112 -0.2288  0.5776
17292TIP3    H173367   3.874   3.069   5.603  0.5321  0.9537  2.0608
17292TIP3    H273368   3.731   3.069   5.651 -0.7832 -1.7120 -1.4787
17293TIP3   OH273369   2.983   2.681  11.895  0.4866 -0.2946  0.3955
17293TIP3    H173370   3.027   2.764  11.914  0.4671  0.0068 -0.7613
17293TIP3    H273371   2.895   2.707  11.867  0.4067 -0.7208  0.2424
17294TIP3   OH273372   0.469   0.169  15.138  0.4376  1.0767 -0.6072
17294TIP3    H173373   0.551   0.186  15.184  1.3854 -0.5192 -1.5956
17294TIP3    H273374   0.482   0.206  15.051  0.4153  0.2012 -0.9984
17295TIP3   OH273375   0.871   6.693  12.416 -0.5613  0.3779 -0.7332
17295TIP3    H173376   0.879   6.656  12.504  0.5547  0.2743 -0.8565
17295TIP3    H273377   0.962   6.710  12.390 -0.8117 -0.3721 -2.1915
17296TIP3   OH273378   2.189   2.023  15.475 -0.1503  0.5804  0.4095
17296TIP3    H173379   2.256   2.090  15.489 -0.8768  1.4469 -0.1454
17296TIP3    H273380   2.140   2.021  15.556  0.8793 -0.4765  1.0418
17297TIP3   OH273381   3.886   4.086   3.512 -1.0328 -0.2774 -0.2887
17297TIP3    H173382   3.960   4.042   3.555 -1.6682 -0.2716  0.8488
17297TIP3    H273383   3.835   4.124   3.584 -1.8148  0.2473 -1.0947
17298TIP3   OH273384   1.178   0.532   3.046  0.5089  0.0242  0.0998
17298TIP3    H173385   1.102   0.581   3.078 -1.2190 -1.5894 -1.2410
17298TIP3    H273386   1.248   0.597   3.041 -1.2478  2.0256 -0.2673
17299TIP3   OH273387   1.855   2.447   0.916 -0.1314  0.0454 -0.4860
17299TIP3    H173388   1.820   2.359   0.908  1.3526 -0.7132  0.8737
17299TIP3    H273389   1.907   2.446   0.997  2.0869  1.4067 -1.7732
17300TIP3   OH273390   3.820   3.852   4.313 -0.7774 -0.1674 -0.4164
17300TIP3    H173391   3.774   3.844   4.397  1.4269  1.4676  1.0905
17300TIP3    H273392   3.792   3.936   4.278  0.3678  0.4616  0.1173
17301TIP3   OH273393   5.485   0.914   1.142  0.2919  0.1573  0.2980
17301TIP3    H173394   5.538   0.919   1.221 -1.2228 -0.0530  1.3732
17301TIP3    H273395   5.513   0.834   1.099  0.5745 -0.1581  1.0538
17302TIP3   OH273396   3.046   4.185  15.747 -0.3602 -0.4304  0.0002
17302TIP3    H173397   3.136   4.197  15.775 -0.2853  1.8218 -0.9984
17302TIP3    H273398   2.996   4.175  15.828  0.4124  1.4409  0.7487
17303TIP3   OH273399   3.902   4.137   2.196 -0.1839  0.2681  0.1520
17303TIP3    H173400   3.845   4.151   2.272 -0.8821  0.7136 -0.4393
17303TIP3    H273401   3.971   4.080   2.229 -0.8750 -0.1541  0.9370
17304TIP3   OH273402   3.745   5.445   5.772  0.0394 -0.2568 -0.2550
17304TIP3    H173403   3.738   5.366   5.824  1.3878  0.1463  0.5979
17304TIP3    H273404   3.834   5.443   5.737  0.7510  1.6861  1.2308
17305TIP3   OH273405   6.764   5.371  16.785  0.3913  0.1380  0.4913
17305TIP3    H173406   6.669   5.366  16.774  0.5212 -1.9829 -0.2254
17305TIP3    H273407   6.798   5.357  16.696  1.3953  1.2555  0.6763
17306TIP3   OH273408   5.552   3.312  14.703 -0.2623 -0.2520  0.6417
17306TIP3    H173409   5.527   3.351  14.619 -1.5204  0.0356  1.1309
17306TIP3    H273410   5.623   3.252  14.681  0.0264  0.4604 -0.4983
17307TIP3   OH273411   5.950   0.456  16.058  0.3702 -0.8377  0.5998
17307TIP3    H173412   5.918   0.494  16.139 -1.7385  0.4333 -0.7629
17307TIP3    H273413   5.882   0.394  16.032  1.2525 -1.5891  0.0155
17308TIP3   OH273414   4.487   0.387  12.086 -0.5693  0.6424  0.2430
17308TIP3    H173415   4.548   0.326  12.126 -0.4850 -0.5866 -1.6595
17308TIP3    H273416   4.404   0.369  12.130 -0.0180  0.9463  1.4525
17309TIP3   OH273417   2.728   2.482  15.832  0.0700  0.3892  0.2523
17309TIP3    H173418   2.785   2.548  15.873  0.8612 -0.2119  0.1505
17309TIP3    H273419   2.758   2.399  15.868 -1.8080  0.1722  1.3897
17310TIP3   OH273420   6.288   1.660   2.444 -0.3776  0.0852 -0.7895
17310TIP3    H173421   6.258   1.749   2.424  0.1116  0.2568 -0.7923
17310TIP3    H273422   6.286   1.654   2.539 -4.1258 -1.2304 -0.7790
17311TIP3   OH273423   1.430   3.133  14.971 -0.1213 -0.8663  0.0086
17311TIP3    H173424   1.336   3.118  14.978  0.0222 -1.9513 -0.2362
17311TIP3    H273425   1.448   3.201  15.037 -1.5278  1.5603 -1.9190
17312TIP3   OH273426   3.654   3.257   2.085  0.2299 -0.1300  0.2060
17312TIP3    H173427   3.729   3.283   2.033  0.1778  0.7165  0.5351
17312TIP3    H273428   3.677   3.281   2.175  0.1809 -1.2541  0.5308
17313TIP3   OH273429   4.668   2.602   3.635  0.5329 -0.5398  0.1114
17313TIP3    H173430   4.600   2.543   3.604 -0.5469  0.7927 -0.1338
17313TIP3    H273431   4.694   2.652   3.558  0.3845  0.3092  0.5961
17314TIP3   OH273432   4.423   4.207   3.337 -0.1333 -0.1376 -0.4837
17314TIP3    H173433   4.455   4.145   3.404 -1.5916 -0.5758 -0.1655
17314TIP3    H273434   4.329   4.192   3.334 -0.2742  0.8927 -1.6386
17315TIP3   OH273435   5.932   5.435   3.249 -0.6650  0.4603  0.4542
17315TIP3    H173436   5.964   5.487   3.323  1.3436 -0.2104  0.1285
17315TIP3    H273437   5.854   5.482   3.219  0.5427  2.8383  0.7085
17316TIP3   OH273438   0.543   3.428   5.250 -0.5489  0.3605 -0.6192
17316TIP3    H173439   0.522   3.521   5.257  0.6133  0.9698 -3.6034
17316TIP3    H273440   0.619   3.416   5.306 -2.4094  0.4370  2.1203
17317TIP3   OH273441   2.424   4.364   1.458 -0.6577 -0.2854 -0.0309
17317TIP3    H173442   2.330   4.383   1.459 -1.4975 -3.7764  1.0167
17317TIP3    H273443   2.442   4.338   1.368 -0.9189 -0.4227 -0.0460
17318TIP3   OH273444   6.102   4.298  16.045  0.6144 -0.7290  0.8794
17318TIP3    H173445   6.109   4.261  15.957 -0.6763  0.8622  0.0496
17318TIP3    H273446   6.177   4.262  16.092  1.1015 -1.9539 -0.7374
17319TIP3   OH273447   3.432   1.465  12.948  0.5192 -0.0919  0.0998
17319TIP3    H173448   3.439   1.373  12.926  0.5603 -0.3069  0.9698
17319TIP3    H273449   3.522   1.494  12.960  0.4970  0.0134  0.0145
17320TIP3   OH273450   4.431   4.775   1.165 -0.4273  0.2362  0.0454
17320TIP3    H173451   4.351   4.801   1.210 -0.8379 -1.3621  0.2886
17320TIP3    H273452   4.429   4.824   1.083 -1.3453  0.6591  0.3044
17321TIP3   OH273453   5.416   4.445   2.330  0.7611  0.4649  0.1867
17321TIP3    H173454   5.441   4.356   2.305  1.7524  0.2663  1.7102
17321TIP3    H273455   5.498   4.486   2.356  0.0755  1.2102  1.2730
17322TIP3   OH273456   5.043   3.193   0.937 -0.5102 -0.5768 -0.3330
17322TIP3    H173457   5.048   3.099   0.958  0.0026 -0.0516  2.2198
17322TIP3    H273458   5.119   3.209   0.881  0.1800 -1.4789  0.2990
17323TIP3   OH273459   1.079   5.943  11.528  0.0470  0.0254 -0.5337
17323TIP3    H173460   1.059   5.906  11.442 -0.9291 -0.4561 -0.1172
17323TIP3    H273461   1.021   5.896  11.588  0.5572  0.5116  0.3592
17324TIP3   OH273462   2.232   4.096  15.119  0.3846 -0.0517  0.1283
17324TIP3    H173463   2.305   4.151  15.092  2.2704 -1.6666  1.6450
17324TIP3    H273464   2.180   4.084  15.039  2.2766  0.3976 -1.2217
17325TIP3   OH273465   4.587   3.327  15.994  0.7717 -0.3018 -0.3859
17325TIP3    H173466   4.563   3.330  15.901 -0.4589  0.0329 -0.0730
17325TIP3    H273467   4.678   3.356  15.996  0.6255  0.2798 -1.4234
17326TIP3   OH273468   6.795   4.995   7.017  0.6841 -0.8992 -0.0072
17326TIP3    H173469   6.757   5.078   7.044  2.2263 -0.5403  1.2039
17326TIP3    H273470   6.724   4.932   7.027 -0.5711  0.2706 -1.1411
17327TIP3   OH273471   3.913   0.747   2.502 -0.8244 -0.0787 -0.6163
17327TIP3    H173472   3.819   0.730   2.506 -1.0610  1.2700  1.8881
17327TIP3    H273473   3.925   0.806   2.428 -2.1403  0.5950 -0.3173
17328TIP3   OH273474   3.840   2.167   3.389  0.0638  0.0863 -0.7243
17328TIP3    H173475   3.825   2.183   3.296  1.4535  0.5463 -0.8959
17328TIP3    H273476   3.897   2.091   3.391 -1.7878 -1.3548 -0.1270
17329TIP3   OH273477   1.835   0.724   5.860  0.0743 -0.0084 -0.5686
17329TIP3    H173478   1.920   0.767   5.855  0.8145 -1.3939 -0.2139
17329TIP3    H273479   1.854   0.633   5.883 -1.4827 -0.4266 -0.7765
17330TIP3   OH273480   4.957   0.757   4.434 -0.2572  0.5099  0.1197
17330TIP3    H173481   4.976   0.850   4.446  0.9657  0.3391 -0.2509
17330TIP3    H273482   4.974   0.718   4.519  0.1979  0.4967  0.0283
17331TIP3   OH273483   1.045   2.909  17.183  0.0625 -0.0744  0.1067
17331TIP3    H173484   1.013   2.943  17.100  0.6698 -0.3427 -0.2474
17331TIP3    H273485   1.036   2.814  17.174 -1.1587 -0.0481  0.8894
17332TIP3   OH273486   1.786   1.201  12.383  0.2472 -0.5561  0.5269
17332TIP3    H173487   1.807   1.228  12.473 -1.1679  0.7685  0.5025
17332TIP3    H273488   1.845   1.253  12.329  0.0362 -0.1955  0.6371
17333TIP3   OH273489   5.807   2.990   1.668 -0.0800 -0.2897  0.2560
17333TIP3    H173490   5.747   3.065   1.671 -0.2690 -0.4813  1.7502
17333TIP3    H273491   5.753   2.915   1.693  0.5731 -0.6056  0.7478
17334TIP3   OH273492   5.368   2.815   2.924 -0.5738  0.2246 -0.1361
17334TIP3    H173493   5.436   2.806   2.858 -0.8413 -0.0879 -0.3725
17334TIP3    H273494   5.299   2.755   2.896 -1.5004  1.4487 -0.5998
17335TIP3   OH273495   5.112   5.895  14.596 -0.0341 -0.1069 -0.0897
17335TIP3    H173496   5.103   5.957  14.669 -1.1453 -1.0979  0.6459
17335TIP3    H273497   5.021   5.877  14.569  0.3400 -0.1327 -1.4114
17336TIP3   OH273498   2.722   1.833  13.484  0.0603  0.4008  0.2195
17336TIP3    H173499   2.698   1.741  13.473 -0.5899  0.4914  0.8200
17336TIP3    H273500   2.695   1.875  13.402  1.5794 -0.1727 -0.6006
17337TIP3   OH273501   2.114   4.095   0.296  0.4160  0.1585  0.1171
17337TIP3    H173502   2.085   4.176   0.338 -0.4575  0.4418 -0.9825
17337TIP3    H273503   2.035   4.059   0.256  0.8227 -1.1873  0.4985
17338TIP3   OH273504   0.802   4.845  11.541  1.0688 -0.4668  0.3264
17338TIP3    H173505   0.734   4.885  11.487  1.8847  0.6113  0.0620
17338TIP3    H273506   0.764   4.762  11.570 -0.3329  0.0872  0.1537
17339TIP3   OH273507   5.984   0.464  15.040  0.3386 -0.5206  0.1632
17339TIP3    H173508   6.011   0.481  14.950  1.8664 -0.0903  0.6646
17339TIP3    H273509   6.055   0.502  15.093 -1.1473  0.3967  1.5824
17340TIP3   OH273510   5.121   2.645  15.408  0.2926  0.0414 -0.1991
17340TIP3    H173511   5.102   2.731  15.444 -0.4834 -0.2479  0.1039
17340TIP3    H273512   5.189   2.660  15.342  1.4414  0.6497  1.0689
17341TIP3   OH273513   2.538   1.094   6.570  0.0995  0.0009  0.0041
17341TIP3    H173514   2.610   1.130   6.517 -0.7631 -1.1633 -2.0909
17341TIP3    H273515   2.581   1.040   6.635  1.1799  0.7896 -0.0211
17342TIP3   OH273516   0.955   1.813  12.266  0.0198  0.2390 -0.1952
17342TIP3    H173517   0.874   1.856  12.240  0.1790  0.4826 -0.2953
17342TIP3    H273518   0.979   1.856  12.349  0.2962  0.5009 -0.4086
17343TIP3   OH273519   2.940   6.669   4.345  0.0969 -0.7676  0.0652
17343TIP3    H173520   2.908   6.750   4.384  0.8967 -0.2103 -0.4173
17343TIP3    H273521   2.862   6.613   4.339 -0.5169  0.0673  0.1321
17344TIP3   OH273522   5.934   3.560   1.654 -0.1063  0.3143 -0.2125
17344TIP3    H173523   5.981   3.639   1.627 -0.0297 -0.3899 -2.3014
17344TIP3    H273524   6.000   3.506   1.696  0.2032  0.6711 -0.2331
17345TIP3   OH273525   0.778   2.279  11.850 -0.0861 -0.5058 -0.0807
17345TIP3    H173526   0.721   2.242  11.918 -0.2315  1.1538  0.7552
17345TIP3    H273527   0.867   2.269  11.885  0.0442 -1.6855 -0.6910
17346TIP3   OH273528   3.856   5.301  17.179  0.0591 -0.7570  0.0281
17346TIP3    H173529   3.942   5.324  17.214 -0.7798  0.2142  1.5719
17346TIP3    H273530   3.856   5.206  17.174  0.9159 -0.8073  0.8217
17347TIP3   OH273531   6.801   3.244  12.459  0.4611  0.1313 -0.2605
17347TIP3    H173532   6.842   3.178  12.404  0.2325  0.3335 -0.6774
17347TIP3    H273533   6.787   3.319  12.401 -2.8935 -0.8081 -0.8830
17348TIP3   OH273534   0.778   2.833  15.415 -0.0882 -0.2105  1.1334
17348TIP3    H173535   0.849   2.775  15.385 -0.4017  0.4486 -1.1394
17348TIP3    H273536   0.766   2.812  15.507  0.7875 -2.7098  0.7488
17349TIP3   OH273537   2.640   2.589  12.692 -0.9896  0.4014  0.4812
17349TIP3    H173538   2.715   2.647  12.703  0.6768 -1.3508 -0.8773
17349TIP3    H273539   2.664   2.533  12.618 -2.4799 -2.0127  1.6842
17350TIP3   OH273540   3.124   1.437  16.895 -0.4707  0.2827  0.2508
17350TIP3    H173541   3.085   1.357  16.859  0.1252 -0.3240  0.9209
17350TIP3    H273542   3.067   1.508  16.863 -0.5862 -0.3283 -0.9483
17351TIP3   OH273543   3.535   3.779  13.890  0.3874 -0.2292 -0.3808
17351TIP3    H173544   3.519   3.777  13.795  1.5193 -0.7729 -0.5692
17351TIP3    H273545   3.626   3.752  13.900 -0.0095 -1.1853  0.9353
17352TIP3   OH273546   1.412   0.881   1.063  0.1477 -0.1545 -0.3906
17352TIP3    H173547   1.492   0.830   1.069  0.4597  0.0974 -1.8819
17352TIP3    H273548   1.399   0.916   1.151  1.5079 -0.4378 -0.0514
17353TIP3   OH273549   1.467   0.488   0.216 -0.1980  0.0985  0.0447
17353TIP3    H173550   1.422   0.571   0.201  0.1617  0.4751  0.9759
17353TIP3    H273551   1.549   0.497   0.168  0.0369  0.4729  0.4999
17354TIP3   OH273552   4.065   4.119   6.367 -0.1451 -0.1058  0.2976
17354TIP3    H173553   4.001   4.176   6.409 -1.7486 -1.9843  0.5620
17354TIP3    H273554   4.149   4.160   6.385 -1.0153  0.7598  2.7953
17355TIP3   OH273555   2.259   1.357   1.601 -0.0631 -0.3738  0.2457
17355TIP3    H173556   2.236   1.300   1.673  0.4421 -0.3135  0.4575
17355TIP3    H273557   2.201   1.433   1.611 -1.0972 -1.0595 -0.3364
17356TIP3   OH273558   1.360   3.954   3.252  0.1814 -0.6535 -0.3593
17356TIP3    H173559   1.397   4.009   3.321 -0.6316 -0.8976  0.2945
17356TIP3    H273560   1.406   3.980   3.173  0.0724  0.7185 -0.0022
17357TIP3   OH273561   1.005   2.013   5.397 -0.2271  0.1254  0.2603
17357TIP3    H173562   0.958   2.090   5.367  0.4522 -0.4334 -2.5463
17357TIP3    H273563   0.945   1.940   5.382 -0.3964 -0.0696  1.7146
17358TIP3   OH273564   0.992   4.109  15.634 -0.5752 -0.1582  0.5860
17358TIP3    H173565   1.008   4.148  15.720  1.1647  0.5631 -0.0350
17358TIP3    H273566   1.010   4.178  15.572 -1.2488 -0.8470 -0.4046
17359TIP3   OH273567   3.891   1.417   3.393  0.2000  0.0375 -0.1585
17359TIP3    H173568   3.819   1.363   3.359 -0.4447  0.9523 -0.2653
17359TIP3    H273569   3.939   1.444   3.315 -2.6830  4.1769 -0.8062
17360TIP3   OH273570   5.751   6.030  11.689  0.2877 -0.4547  0.2717
17360TIP3    H173571   5.820   6.009  11.626  0.0728  1.2304 -0.5599
17360TIP3    H273572   5.770   6.119  11.718 -2.4268  0.7197 -1.2415
17361TIP3   OH273573   0.753   2.614   4.659  0.9008  0.0287  0.8529
17361TIP3    H173574   0.814   2.575   4.597  0.0576 -0.1463  0.0978
17361TIP3    H273575   0.742   2.704   4.628 -1.2919 -0.6790 -0.7375
17362TIP3   OH273576   2.520   0.723   4.915  0.1810 -0.3281 -0.0357
17362TIP3    H173577   2.604   0.681   4.895 -0.1750 -0.3254 -1.7483
17362TIP3    H273578   2.485   0.748   4.829 -0.9590  0.8794  0.7410
17363TIP3   OH273579   1.864   6.623  16.933 -0.2788  0.0375  0.0213
17363TIP3    H173580   1.948   6.649  16.894  0.5072  0.8382  2.0972
17363TIP3    H273581   1.838   6.698  16.986  0.1511 -1.8581  3.2206
17364TIP3   OH273582   4.887   0.266   2.099 -0.1592 -0.7737 -0.1378
17364TIP3    H173583   4.862   0.189   2.049  0.0573  0.3225 -1.9983
17364TIP3    H273584   4.825   0.334   2.072 -0.3871 -0.2595  1.5176
17365TIP3   OH273585   5.749   6.490  13.066  0.5603  0.3759  0.1910
17365TIP3    H173586   5.716   6.437  13.138  0.5693  2.3142  1.7021
17365TIP3    H273587   5.842   6.469  13.061  0.3233 -0.6720 -0.1108
17366TIP3   OH273588   3.883   6.482   0.775 -0.3881  0.3119  0.1220
17366TIP3    H173589   3.811   6.482   0.838 -0.3826  0.9940  0.1294
17366TIP3    H273590   3.868   6.559   0.720 -0.3094 -0.1870 -0.6205
17367TIP3   OH273591   2.100   2.717  14.088 -0.8087  0.0579 -0.2231
17367TIP3    H173592   2.126   2.625  14.097  0.1498  0.2592 -0.8616
17367TIP3    H273593   2.181   2.763  14.067 -1.3762  0.9773 -0.4251
17368TIP3   OH273594   6.190   5.571  16.015  0.0688 -0.0086  0.0202
17368TIP3    H173595   6.259   5.514  16.049  2.4510  2.8748  0.4537
17368TIP3    H273596   6.163   5.531  15.933  3.1384 -0.7218 -0.7545
17369TIP3   OH273597   6.478   6.548   2.366 -0.5416  0.2076 -1.0865
17369TIP3    H173598   6.428   6.479   2.323  0.7275  0.0409 -2.3868
17369TIP3    H273599   6.413   6.599   2.414 -1.6998 -1.0017 -1.3232
17370TIP3   OH273600   0.674   0.653  16.831  0.6199  0.1531  0.2031
17370TIP3    H173601   0.664   0.566  16.793  2.1626  0.4846 -1.1029
17370TIP3    H273602   0.589   0.673  16.871  0.3141 -2.0263  0.7612
17371TIP3   OH273603   4.636   4.063   4.346  0.2833 -0.4838  0.1184
17371TIP3    H173604   4.684   4.061   4.264 -1.1615 -1.7681 -0.7529
17371TIP3    H273605   4.553   4.018   4.327 -0.1885 -0.6236  2.2111
17372TIP3   OH273606   6.313   5.269  12.410  0.6210  0.4638 -0.1213
17372TIP3    H173607   6.219   5.254  12.424  0.8155 -0.1947  0.4710
17372TIP3    H273608   6.315   5.332  12.337 -0.2855  0.7681  0.0956
17373TIP3   OH273609   5.225   3.442   3.659 -0.1473 -0.5338  0.5519
17373TIP3    H173610   5.181   3.438   3.743 -0.6807 -1.0951  0.2538
17373TIP3    H273611   5.193   3.366   3.611 -3.6822  2.1730 -1.9980
17374TIP3   OH273612   4.924   0.444   0.864 -0.2368 -0.1144 -0.1444
17374TIP3    H173613   4.883   0.504   0.802  0.0932  0.2807  0.0160
17374TIP3    H273614   4.905   0.357   0.830  2.1899  0.0768 -2.2981
17375TIP3   OH273615   4.234   1.684  12.597  0.2243 -0.1207 -0.1859
17375TIP3    H173616   4.199   1.609  12.550  1.6869 -0.6128 -0.5184
17375TIP3    H273617   4.325   1.690  12.570 -0.3113  3.0972 -1.8785
17376TIP3   OH273618   3.938   2.163  14.788  0.0722  0.3873  0.4903
17376TIP3    H173619   3.940   2.238  14.728  0.2677  0.2155  0.2805
17376TIP3    H273620   4.029   2.152  14.816  0.0863  0.0799  0.3312
17377TIP3   OH273621   0.359   5.464   1.669  0.2635 -0.2730 -0.0725
17377TIP3    H173622   0.318   5.490   1.586 -0.2363  0.7252  0.4637
17377TIP3    H273623   0.324   5.377   1.686 -0.8691  0.1421 -0.1520
17378TIP3   OH273624   2.727   4.375  10.814  0.0240 -0.2577 -0.1774
17378TIP3    H173625   2.776   4.316  10.757 -0.1130  0.5899 -1.1933
17378TIP3    H273626   2.648   4.395  10.765  0.1308  0.8775  0.0966
17379TIP3   OH273627   5.812   2.655  16.443  0.2088  0.6961 -0.0072
17379TIP3    H173628   5.777   2.743  16.451 -1.9778 -0.2477  1.8079
17379TIP3    H273629   5.746   2.606  16.395  0.6170 -0.3352  0.4392
17380TIP3   OH273630   4.825   4.505   4.515  0.8443 -0.0491 -0.1904
17380TIP3    H173631   4.837   4.568   4.587 -1.4153  0.0172  0.1924
17380TIP3    H273632   4.879   4.541   4.444 -0.2476  2.2953  0.0603
17381TIP3   OH273633   6.352   1.848  13.653 -0.6906  0.1505 -0.5015
17381TIP3    H173634   6.260   1.862  13.675 -0.5679 -1.0409  0.9207
17381TIP3    H273635   6.398   1.851  13.737  0.4088 -0.4411 -1.0566
17382TIP3   OH273636   5.673   3.071   1.190 -0.0978  0.1963  0.2512
17382TIP3    H173637   5.699   3.040   1.277  1.5179  0.1746 -0.2041
17382TIP3    H273638   5.636   3.158   1.205 -0.3918 -0.0570  1.0181
17383TIP3   OH273639   2.592   4.286  13.833  0.0571  0.0531 -0.0696
17383TIP3    H173640   2.652   4.227  13.788  0.1177 -0.8881  1.1925
17383TIP3    H273641   2.506   4.246  13.822  0.0654 -0.1585  0.5989
17384TIP3   OH273642   4.769   3.672   3.217 -0.2051 -0.0169 -0.7057
17384TIP3    H173643   4.835   3.646   3.153  2.2249 -1.2370  2.0160
17384TIP3    H273644   4.698   3.610   3.205  0.2785 -0.3412 -2.0532
17385TIP3   OH273645   1.798   2.739   3.484  0.2671  0.0052  0.7017
17385TIP3    H173646   1.710   2.737   3.523  0.0976  0.7280  0.3636
17385TIP3    H273647   1.797   2.814   3.425  1.4173  0.5982  1.3956
17386TIP3   OH273648   1.591   0.868   3.762 -0.3321  0.1138 -0.5771
17386TIP3    H173649   1.613   0.890   3.671 -2.0678  2.0213 -0.5782
17386TIP3    H273650   1.497   0.882   3.769 -0.1705  0.4689  1.6438
17387TIP3   OH273651   4.138   3.540  12.582  0.0163 -0.2487 -0.1111
17387TIP3    H173652   4.138   3.514  12.490 -2.9429 -1.1324  0.0269
17387TIP3    H273653   4.120   3.635  12.579 -1.2984 -0.4862 -0.4750
17388TIP3   OH273654   2.894   2.699   1.218 -0.4289  0.5925  0.2625
17388TIP3    H173655   2.836   2.696   1.142 -0.8714 -0.6189  0.6256
17388TIP3    H273656   2.902   2.607   1.245 -0.6567  1.0443  1.9575
17389TIP3   OH273657   5.959   0.924  11.227 -0.3560 -0.0863 -0.1572
17389TIP3    H173658   6.054   0.920  11.225 -0.1848  2.4638 -0.3962
17389TIP3    H273659   5.935   0.902  11.317  0.4752 -0.3713  0.0001
17390TIP3   OH273660   5.352   2.919  16.356 -0.1710 -0.1171 -0.2552
17390TIP3    H173661   5.344   2.827  16.329 -0.8617  0.0159 -0.5410
17390TIP3    H273662   5.264   2.954  16.344 -0.0210  0.4631  0.3056
17391TIP3   OH273663   4.976   4.156  13.471 -0.5792  0.5819 -0.0285
17391TIP3    H173664   4.967   4.070  13.511 -0.1922  0.9836  0.9353
17391TIP3    H273665   5.038   4.143  13.399 -1.7477 -0.2717 -0.9279
17392TIP3   OH273666   4.946   4.605  14.841  0.0301  0.0059  0.1997
17392TIP3    H173667   4.879   4.674  14.841 -0.5619 -0.5635  0.7545
17392TIP3    H273668   5.028   4.652  14.826 -0.4305  0.7730  0.0392
17393TIP3   OH273669   4.416   1.837   3.908  0.0448 -0.2795 -0.1995
17393TIP3    H173670   4.468   1.775   3.857 -1.0752 -1.3688 -0.0424
17393TIP3    H273671   4.472   1.859   3.983  0.1935 -1.6427  0.1112
17394TIP3   OH273672   4.310   2.456  14.889  0.2085 -0.2308  0.4541
17394TIP3    H173673   4.266   2.496  14.964 -1.0018 -0.9905  0.1783
17394TIP3    H273674   4.315   2.363  14.911  2.5894 -0.0572  0.8949
17395TIP3   OH273675   3.619   1.709  14.718 -0.0237  0.2164 -0.0707
17395TIP3    H173676   3.640   1.743  14.631  0.4132 -3.6768 -1.6502
17395TIP3    H273677   3.532   1.670  14.709 -0.4249  0.6215  1.5729
17396TIP3   OH273678   6.279   4.158   5.153 -0.2271  0.2652 -0.3008
17396TIP3    H173679   6.247   4.069   5.164  1.2867 -0.2636  0.0633
17396TIP3    H273680   6.208   4.204   5.109 -1.6256 -0.7212  0.8565
17397TIP3   OH273681   0.524   4.909   4.571  0.0564 -0.1987 -0.2167
17397TIP3    H173682   0.588   4.960   4.521  0.5169  0.2195  0.7815
17397TIP3    H273683   0.504   4.834   4.515  0.1397  0.5461 -1.2654
17398TIP3   OH273684   3.686   5.027   2.311  0.6359 -0.1090  0.1753
17398TIP3    H173685   3.626   5.101   2.296  0.1981 -0.5147 -0.1152
17398TIP3    H273686   3.761   5.066   2.356  0.8844  0.7195 -0.8923
17399TIP3   OH273687   2.698   1.600  15.570 -0.4042 -0.1999  0.2776
17399TIP3    H173688   2.790   1.582  15.550 -0.2365  1.6752 -0.8863
17399TIP3    H273689   2.651   1.583  15.489 -0.7915  0.6686  0.3049
17400TIP3   OH273690   0.348   0.129  12.858 -0.2781  0.3063 -0.0484
17400TIP3    H173691   0.381   0.071  12.790 -2.0062 -0.4232 -0.3228
17400TIP3    H273692   0.323   0.071  12.929 -0.3494  0.8845  0.4103
17401TIP3   OH273693   1.147   3.032   0.398 -0.1384  0.1428  0.0780
17401TIP3    H173694   1.188   2.946   0.408 -0.5235  0.0867  1.3780
17401TIP3    H273695   1.220   3.094   0.392  0.1355 -0.2294 -0.5262
17402TIP3   OH273696   6.817   3.305  16.962  0.3495  0.1255 -0.6407
17402TIP3    H173697   6.895   3.255  16.985  0.5133  1.1021  1.0080
17402TIP3    H273698   6.850   3.389  16.931 -0.0320  0.6303  0.2821
17403TIP3   OH273699   6.595   5.404  14.920 -0.4326  0.7714  0.0032
17403TIP3    H173700   6.578   5.459  14.996  1.4615  0.0661  1.0290
17403TIP3    H273701   6.667   5.448  14.874 -0.0735  0.0798 -0.1228
17404TIP3   OH273702   6.694   6.677  14.805 -0.0143  0.4768 -0.3300
17404TIP3    H173703   6.683   6.672  14.900 -2.3578 -1.3227 -0.5779
17404TIP3    H273704   6.788   6.671  14.790  0.6862  3.5533  1.9006
17405TIP3   OH273705   5.296   5.581   3.870  0.1401  0.7774 -0.2474
17405TIP3    H173706   5.229   5.538   3.816 -0.1320 -0.7023  1.2100
17405TIP3    H273707   5.247   5.631   3.935  0.4667  2.7679 -1.4402
17406TIP3   OH273708   2.252   6.683  12.979 -0.1594  0.3687 -0.1230
17406TIP3    H173709   2.160   6.700  12.999 -0.1277  0.7978 -0.3336
17406TIP3    H273710   2.295   6.686  13.065 -0.2488  0.7764 -0.0881
17407TIP3   OH273711   1.782   3.518   0.112 -0.4016  0.5684  0.0117
17407TIP3    H173712   1.735   3.502   0.194  1.8366  1.2949  1.5390
17407TIP3    H273713   1.871   3.490   0.130 -0.5093 -2.9261 -3.4678
17408TIP3   OH273714   6.117   2.075  14.752 -0.7914 -0.3778 -0.0259
17408TIP3    H173715   6.176   2.064  14.678  0.4387  2.0985  0.4482
17408TIP3    H273716   6.045   2.129  14.718 -2.3841 -2.5842 -0.3572
17409TIP3   OH273717   0.287   6.418   2.696 -0.1148  0.0700 -0.2552
17409TIP3    H173718   0.368   6.465   2.677  0.2233 -0.3056  0.2194
17409TIP3    H273719   0.229   6.440   2.623  0.3953  0.3836 -0.5768
17410TIP3   OH273720   0.913   4.315  11.005  0.1207 -0.3682 -0.0247
17410TIP3    H173721   0.897   4.220  11.010 -1.0692 -0.1527  0.7837
17410TIP3    H273722   0.867   4.342  10.926  1.1794 -0.5804 -0.7289
17411TIP3   OH273723   2.825   2.958  10.574  0.1088  0.0683  0.2486
17411TIP3    H173724   2.901   3.007  10.541 -0.1668  0.9053  0.7889
17411TIP3    H273725   2.777   3.023  10.627 -0.0088 -0.9195  1.4068
17412TIP3   OH273726   4.446   2.703  11.866  0.0087 -0.2865 -0.4716
17412TIP3    H173727   4.488   2.637  11.920  0.8536 -0.2124 -1.0201
17412TIP3    H273728   4.415   2.655  11.789 -0.2988 -0.2245 -0.3869
17413TIP3   OH273729   3.124   4.629   0.939  0.8168  0.5085 -0.1627
17413TIP3    H173730   3.119   4.622   0.844  2.5081 -3.1988 -0.1580
17413TIP3    H273731   3.071   4.556   0.971 -0.7978  2.4327  1.9014
17414TIP3   OH273732   1.378   3.150  16.501 -0.0925 -0.1526  0.4766
17414TIP3    H173733   1.283   3.151  16.491 -0.1586 -0.1619  1.0343
17414TIP3    H273734   1.400   3.240  16.527  0.0018 -0.2469  0.7279
17415TIP3   OH273735   4.708   4.604  11.637  0.4178 -0.0504  0.1028
17415TIP3    H173736   4.717   4.636  11.547  1.0866 -0.8648 -0.1323
17415TIP3    H273737   4.623   4.560  11.639 -0.1546  1.0307  0.2166
17416TIP3   OH273738   4.101   3.208  13.779 -0.4641 -0.5184  0.2199
17416TIP3    H173739   4.043   3.285  13.774  0.1787  0.1132  1.8100
17416TIP3    H273740   4.061   3.153  13.846  1.0550  0.2480  1.8548
17417TIP3   OH273741   2.787   4.492   1.261  0.2355  0.6724  0.2609
17417TIP3    H173742   2.799   4.431   1.334  0.1071 -0.6046 -0.7629
17417TIP3    H273743   2.717   4.551   1.290 -1.0174 -0.8883  0.5044
17418TIP3   OH273744   6.657   0.001   3.289 -0.0406 -0.0774 -0.1323
17418TIP3    H173745   6.614   0.039   3.366  1.7105 -1.5372  1.6797
17418TIP3    H273746   6.750   0.021   3.302  0.1332  1.4727 -3.0177
17419TIP3   OH273747   2.898   5.415  15.262 -0.3774  0.0282  0.0632
17419TIP3    H173748   2.869   5.396  15.173  1.0234  0.7335 -0.5748
17419TIP3    H273749   2.960   5.488  15.252  0.2768 -0.2965  1.5378
17420TIP3   OH273750   5.083   2.891   5.889 -0.0428 -0.2932 -0.0831
17420TIP3    H173751   5.057   2.809   5.846 -1.8883  0.3617 -0.3067
17420TIP3    H273752   5.102   2.865   5.979 -1.2076 -0.9028  0.0133
17421TIP3   OH273753   4.965   0.088   3.268  0.7273  0.0237  0.6866
17421TIP3    H173754   5.026   0.107   3.340  1.0819  1.8949 -0.0508
17421TIP3    H273755   4.986   0.154   3.202 -0.5781 -0.7527 -0.5401
17422TIP3   OH273756   1.496   6.530   1.772  0.0127 -0.0697  0.1449
17422TIP3    H173757   1.402   6.547   1.784  0.3576  1.9895  0.2340
17422TIP3    H273758   1.530   6.523   1.861  0.1580  0.5291  0.1384
17423TIP3   OH273759   2.650   4.967  11.205 -0.5346  0.3994  0.0655
17423TIP3    H173760   2.606   4.980  11.121  0.6506 -0.4013 -0.7245
17423TIP3    H273761   2.647   5.052  11.247 -1.2417  0.7950 -0.7532
17424TIP3   OH273762   2.748   4.968   1.233  0.5048 -0.1425  0.4705
17424TIP3    H173763   2.668   5.017   1.252  0.3630  0.0876 -0.6301
17424TIP3    H273764   2.721   4.877   1.233  0.0930 -0.0334 -0.4926
17425TIP3   OH273765   2.421   3.914   1.986  0.2478  0.0875  0.2021
17425TIP3    H173766   2.483   3.938   1.917 -0.3928  0.9125 -0.1080
17425TIP3    H273767   2.476   3.885   2.059  0.9698  0.2324 -0.2775
17426TIP3   OH273768   3.405   5.164   1.651  0.5272  0.4727  0.1766
17426TIP3    H173769   3.409   5.092   1.714  3.6485 -0.8412 -1.3371
17426TIP3    H273770   3.327   5.145   1.598 -0.1842 -0.2943  1.4589
17427TIP3   OH273771   2.888   5.773   5.032 -0.6608  0.2226 -0.0837
17427TIP3    H173772   2.809   5.731   4.998  0.2625 -0.0623 -2.0553
17427TIP3    H273773   2.857   5.846   5.085 -2.2555  0.5096 -1.3455
17428TIP3   OH273774   1.076   4.779  15.100 -0.1854  0.1142 -0.0769
17428TIP3    H173775   1.168   4.788  15.074 -0.5387  3.0318 -0.6411
17428TIP3    H273776   1.077   4.787  15.196  0.1608  0.0530 -0.0750
17429TIP3   OH273777   0.482   4.680   5.313 -0.1839 -0.0271 -0.0938
17429TIP3    H173778   0.557   4.628   5.342  1.6968  3.4171  1.9335
17429TIP3    H273779   0.409   4.648   5.366  0.3420 -1.9013 -0.4221
17430TIP3   OH273780   5.281   5.650   2.230 -0.0926 -0.1985 -0.1026
17430TIP3    H173781   5.254   5.596   2.304 -0.8863  0.7614  0.3323
17430TIP3    H273782   5.362   5.610   2.199 -0.2048 -1.1123  0.7528
17431TIP3   OH273783   6.350   1.982   4.345 -0.0580 -0.2251 -0.3430
17431TIP3    H173784   6.408   1.910   4.370  1.8272  1.3623  0.1214
17431TIP3    H273785   6.322   1.961   4.256  0.3592 -1.5737 -0.1709
17432TIP3   OH273786   3.889   4.898  12.877 -0.7481  1.0267  0.1064
17432TIP3    H173787   3.946   4.853  12.815 -0.3270  2.2870 -0.4556
17432TIP3    H273788   3.884   4.988  12.844 -0.3772  1.7905  2.0053
17433TIP3   OH273789   5.696   0.618  15.680  0.1104 -0.2989 -0.2545
17433TIP3    H173790   5.617   0.569  15.656 -0.1581  0.2779 -0.5652
17433TIP3    H273791   5.764   0.551  15.690 -0.5737 -0.8719  0.6791
17434TIP3   OH273792   4.835   4.037   5.041 -0.4715  0.2739  0.2517
17434TIP3    H173793   4.863   3.946   5.031 -0.4264  0.4423 -1.4672
17434TIP3    H273794   4.750   4.041   4.997 -0.4087  1.0895  0.1967
17435TIP3   OH273795   0.656   1.738  16.124  0.0287  0.3763 -0.6592
17435TIP3    H173796   0.639   1.664  16.065  0.1997  1.5478 -2.2342
17435TIP3    H273797   0.572   1.785  16.128  0.0344  0.3399  0.0095
17436TIP3   OH273798   0.588   6.010   0.064 -0.0796  0.4057 -0.9437
17436TIP3    H173799   0.663   5.984   0.116  0.2975 -0.9550 -2.0970
17436TIP3    H273800   0.514   5.964   0.103  0.1182 -0.2144 -1.2846
17437TIP3   OH273801   2.460   1.740   3.258 -0.4531 -0.1186 -0.4817
17437TIP3    H173802   2.468   1.800   3.332 -1.8150 -1.1241  0.5487
17437TIP3    H273803   2.453   1.797   3.182  1.9191  0.9334 -0.0095
17438TIP3   OH273804   3.341   5.791   3.832  0.4672  0.6416  0.2458
17438TIP3    H173805   3.365   5.701   3.809 -0.5929  0.2095  0.7947
17438TIP3    H273806   3.371   5.801   3.922  1.1151  1.0507 -0.0041
17439TIP3   OH273807   2.002   6.350  15.077  0.0600 -0.2992  0.2277
17439TIP3    H173808   2.045   6.401  15.146 -1.2058  1.1920 -0.0191
17439TIP3    H273809   1.909   6.350  15.101 -0.2114 -0.9487 -0.7573
17440TIP3   OH273810   0.680   6.353   5.977  0.2975  0.2270  0.0925
17440TIP3    H173811   0.613   6.285   5.968  1.0302 -0.5123  0.1307
17440TIP3    H273812   0.761   6.313   5.945  0.9516  0.7458  1.0299
17441TIP3   OH273813   6.647   6.382   2.091  0.2302 -0.1772 -0.1127
17441TIP3    H173814   6.643   6.476   2.107  0.0615 -0.2104  0.0391
17441TIP3    H273815   6.740   6.365   2.073  0.3494 -0.0710  0.4041
17442TIP3   OH273816   0.045   5.338   1.821 -0.2412 -0.0212  0.2986
17442TIP3    H173817  -0.019   5.274   1.852 -0.5743  0.8323  1.4821
17442TIP3    H273818   0.125   5.317   1.869  0.4540 -1.1839 -1.2939
17443TIP3   OH273819   2.510   4.446   4.717 -1.3624  0.1341  0.0364
17443TIP3    H173820   2.531   4.519   4.774 -1.1532  0.0758  0.0339
17443TIP3    H273821   2.595   4.411   4.690 -1.3341  1.7547 -2.3707
17444TIP3   OH273822   6.444   3.617  15.926 -0.9374  0.9161 -0.0398
17444TIP3    H173823   6.432   3.522  15.924  0.2553  0.7433 -2.2017
17444TIP3    H273824   6.503   3.633  15.999 -0.4856 -0.0957 -0.1696
17445TIP3   OH273825   6.271   0.345   0.258  0.4231 -0.3615  0.1334
17445TIP3    H173826   6.304   0.431   0.282  0.2485 -0.2489 -0.0327
17445TIP3    H273827   6.197   0.362   0.200 -1.9406 -0.4729  2.8784
17446TIP3   OH273828   1.584   5.539  13.002  0.5243  0.4636  0.2961
17446TIP3    H173829   1.653   5.500  12.948  0.2863 -0.3970  0.5845
17446TIP3    H273830   1.530   5.464  13.029 -0.8763  1.1799 -0.4036
17447TIP3   OH273831   1.754   3.770   0.946  0.0961  0.3011  0.4703
17447TIP3    H173832   1.824   3.777   0.881  1.0167  0.7846  1.4790
17447TIP3    H273833   1.704   3.693   0.919  1.0851 -0.1333 -0.2011
17448TIP3   OH273834   5.268   0.376  11.598  0.2077 -0.4964 -0.0945
17448TIP3    H173835   5.264   0.309  11.530  3.3721  0.7113 -1.6520
17448TIP3    H273836   5.229   0.453  11.557 -0.8806 -0.5857  0.7159
17449TIP3   OH273837   1.175   5.131  16.710  0.0592  0.3237  0.0689
17449TIP3    H173838   1.244   5.182  16.751  0.4612  0.8343 -1.2106
17449TIP3    H273839   1.179   5.154  16.617 -0.3195 -1.3608 -0.4083
17450TIP3   OH273840   1.146   1.276   3.138  0.4817  0.1300  0.1140
17450TIP3    H173841   1.088   1.229   3.198 -0.0459 -1.0915 -1.2781
17450TIP3    H273842   1.104   1.361   3.126  0.1915  0.0998  0.8778
17451TIP3   OH273843   3.502   6.515  13.693  0.7501 -0.1750 -0.2424
17451TIP3    H173844   3.581   6.569  13.704 -0.0823  1.3311 -1.2254
17451TIP3    H273845   3.469   6.504  13.781  0.7328  1.3303 -0.0211
17452TIP3   OH273846   1.819   4.176  13.474 -0.2062 -0.3191 -0.2022
17452TIP3    H173847   1.737   4.149  13.516  0.8638 -0.9752  1.5499
17452TIP3    H273848   1.881   4.108  13.496  0.7991  0.0733 -1.6753
17453TIP3   OH273849   4.825   5.291   3.207 -0.1998  0.3757 -0.0537
17453TIP3    H173850   4.840   5.266   3.116 -1.1773  0.3962 -0.2248
17453TIP3    H273851   4.769   5.368   3.202 -2.5254 -1.1864  0.5923
17454TIP3   OH273852   4.565   0.477  14.648  0.3883 -0.2656 -0.4081
17454TIP3    H173853   4.564   0.571  14.631  1.5933 -0.2711 -0.6206
17454TIP3    H273854   4.473   0.452  14.651  0.0409  1.0247  0.2867
17455TIP3   OH273855   4.897   2.150  11.076 -0.3583 -0.0703 -0.2119
17455TIP3    H173856   4.835   2.213  11.041  0.2760  0.7415  0.0891
17455TIP3    H273857   4.955   2.202  11.132  1.3087 -0.5821 -1.3842
17456TIP3   OH273858   2.817   5.042  14.523 -0.4038  0.6501 -0.2545
17456TIP3    H173859   2.850   4.966  14.475  2.4532  0.6136  1.5182
17456TIP3    H273860   2.826   5.115  14.462  1.1579  0.2640 -0.5331
17457TIP3   OH273861   5.219   4.988  11.842  0.1938  0.0361 -0.3740
17457TIP3    H173862   5.261   5.016  11.761  0.1246  0.2004 -0.3539
17457TIP3    H273863   5.281   5.011  11.911 -0.7191  2.0403 -0.1551
17458TIP3   OH273864   4.005   4.786   4.841  0.4243  0.1380 -0.2403
17458TIP3    H173865   3.924   4.822   4.875 -0.5495 -1.3807 -0.8739
17458TIP3    H273866   4.063   4.862   4.833 -1.2970  1.4587 -0.8694
17459TIP3   OH273867   5.695   0.612   1.329 -0.3230 -0.2542 -0.0533
17459TIP3    H173868   5.762   0.544   1.327  0.3614  0.4036  0.1342
17459TIP3    H273869   5.676   0.631   1.238 -0.4202 -0.6051 -0.1055
17460TIP3   OH273870   4.785   1.897   4.036 -0.5207 -0.2898 -0.1048
17460TIP3    H173871   4.844   1.858   3.972  0.3510 -0.4578  0.7891
17460TIP3    H273872   4.753   1.977   3.993 -1.6495 -1.4797 -1.6039
17461TIP3   OH273873   1.193   1.828   0.198 -0.6022  0.7241 -0.5151
17461TIP3    H173874   1.249   1.783   0.134 -0.9540 -0.3461 -0.0930
17461TIP3    H273875   1.132   1.879   0.144 -1.2642 -0.6150 -1.0812
17462TIP3   OH273876   0.067   2.768  15.771  0.6025 -0.0087  0.0748
17462TIP3    H173877   0.033   2.783  15.683  1.0966 -0.9582 -0.2941
17462TIP3    H273878   0.011   2.699  15.807  0.7977 -0.0634  0.2757
17463TIP3   OH273879   1.837   6.588  14.033  0.3329  0.1554  0.2006
17463TIP3    H173880   1.920   6.628  14.006 -1.1802  2.3190 -1.6618
17463TIP3    H273881   1.802   6.648  14.098  0.4205 -1.0259  1.3685
17464TIP3   OH273882   3.729   2.222  16.597  0.2703  0.0638 -0.0812
17464TIP3    H173883   3.815   2.261  16.588 -0.4894  1.8946  0.0766
17464TIP3    H273884   3.699   2.249  16.684  0.0785 -1.7038  0.4293
17465TIP3   OH273885   3.801   6.502   5.219 -0.5199  0.1061  0.7464
17465TIP3    H173886   3.827   6.522   5.309 -0.8071 -0.1363  0.8879
17465TIP3    H273887   3.870   6.539   5.165 -0.2905  0.1629  1.0741
17466TIP3   OH273888   0.485   0.749   3.889 -0.2644  0.2392  0.0560
17466TIP3    H173889   0.503   0.670   3.837 -0.7354  0.3820 -0.3243
17466TIP3    H273890   0.506   0.723   3.979  0.6355  0.0203 -0.2107
17467TIP3   OH273891   0.300   2.258   2.242  0.6863 -0.1094  0.6252
17467TIP3    H173892   0.256   2.329   2.195  1.3636 -0.2207 -0.2107
17467TIP3    H273893   0.308   2.290   2.332 -0.8904 -0.0075  0.7579
17468TIP3   OH273894   4.119   3.737  15.102 -0.5045 -0.2886 -0.5828
17468TIP3    H173895   4.205   3.700  15.122 -0.9011 -0.9167  0.0164
17468TIP3    H273896   4.101   3.797  15.174 -0.1050  0.6889 -1.2712
17469TIP3   OH273897   0.247   4.691   2.590 -0.5763  0.1478  0.1324
17469TIP3    H173898   0.155   4.672   2.607 -0.4942 -0.8808 -0.4674
17469TIP3    H273899   0.252   4.786   2.583 -1.4442  0.2623  0.9753
17470TIP3   OH273900   1.773   2.264  14.526  0.3554  0.1175 -0.2728
17470TIP3    H173901   1.745   2.192  14.469  0.2828  0.1012 -0.2153
17470TIP3    H273902   1.729   2.341  14.491  1.4104  0.3607 -1.1049
17471TIP3   OH273903   0.982   1.950  14.488 -0.1641 -0.2573  0.2581
17471TIP3    H173904   0.951   1.876  14.436 -0.5175 -0.7513  1.1533
17471TIP3    H273905   1.051   1.914  14.543  0.6494  0.4021 -0.3159
17472TIP3   OH273906   5.721   3.925  12.820 -0.2757 -0.2556  0.5191
17472TIP3    H173907   5.677   3.984  12.881 -0.9495 -0.7636  0.5299
17472TIP3    H273908   5.675   3.937  12.737  0.4332  0.1997  0.1846
17473TIP3   OH273909   0.647   5.079   4.393  0.1600 -0.3602 -0.0178
17473TIP3    H173910   0.742   5.079   4.396  0.1547  0.5672  2.1367
17473TIP3    H273911   0.622   5.169   4.415 -1.2274 -0.3802 -1.3364
17474TIP3   OH273912   0.066   2.306  14.978 -0.2208 -0.4472 -0.2399
17474TIP3    H173913  -0.025   2.277  14.967 -1.1753  1.3442  1.9795
17474TIP3    H273914   0.100   2.251  15.048 -0.6575  0.8307  1.0355
17475TIP3   OH273915   6.692   6.373   1.467 -0.8866 -0.0935 -0.3210
17475TIP3    H173916   6.614   6.428   1.468 -2.4173 -2.1169  1.7298
17475TIP3    H273917   6.717   6.365   1.559  0.5691 -1.0731 -0.7690
17476TIP3   OH273918   2.382   2.327  10.655 -0.0844  0.3891  0.5816
17476TIP3    H173919   2.465   2.312  10.701 -0.1616 -0.3271  0.4986
17476TIP3    H273920   2.316   2.327  10.724 -0.1219  0.0129  0.5453
17477TIP3   OH273921   4.990   4.078   6.107 -0.0499  0.1315  0.0971
17477TIP3    H173922   5.072   4.036   6.132  0.7223  1.3160 -0.3836
17477TIP3    H273923   4.922   4.025   6.149  0.8795 -1.5263 -0.3945
17478TIP3   OH273924   0.139   1.463  15.256  0.4894  0.0760 -0.4661
17478TIP3    H173925   0.113   1.425  15.340  0.5469 -0.0895 -0.5223
17478TIP3    H273926   0.061   1.507  15.224  0.1628 -0.7456 -0.8185
17479TIP3   OH273927   0.715   3.995   4.183  0.8301  0.0908 -0.1428
17479TIP3    H173928   0.801   3.978   4.145  0.3311 -2.3240 -0.3609
17479TIP3    H273929   0.660   3.924   4.150 -0.5330 -0.0795  2.2704
17480TIP3   OH273930   1.453   0.338   0.445  0.5052  0.9417 -0.0501
17480TIP3    H173931   1.490   0.374   0.364 -0.5398  0.1339 -0.9096
17480TIP3    H273932   1.361   0.364   0.442 -0.1529 -1.2248 -0.4095
17481TIP3   OH273933   0.822   6.333   4.119  0.8215  0.3949  0.2352
17481TIP3    H173934   0.750   6.393   4.139 -0.6062 -1.3899  0.6549
17481TIP3    H273935   0.784   6.246   4.125  3.2001 -0.6789  1.2089
17482TIP3   OH273936   1.364   5.464   1.434  0.2058  0.1435  0.5150
17482TIP3    H173937   1.331   5.438   1.348  1.8848  0.4871 -0.2846
17482TIP3    H273938   1.341   5.557   1.441 -0.1471  0.0538  0.5357
17483TIP3   OH273939   3.388   3.905   6.403 -0.6964 -0.3576 -0.4987
17483TIP3    H173940   3.429   3.845   6.341 -1.1298 -0.7072 -0.4552
17483TIP3    H273941   3.313   3.856   6.438  0.9994 -1.2405  2.2831
17484TIP3   OH273942   3.796   2.091  12.192 -0.1538 -0.0106  0.1950
17484TIP3    H173943   3.739   2.126  12.260  1.2225 -0.8128  1.8473
17484TIP3    H273944   3.754   2.009  12.165  0.3342 -0.7678  1.6379
17485TIP3   OH273945   2.990   3.568  15.780  0.2080 -0.1407  0.1698
17485TIP3    H173946   2.998   3.525  15.865  1.6169  0.8193  0.5592
17485TIP3    H273947   2.919   3.521  15.736  0.6027 -1.7803  1.1957
17486TIP3   OH273948   0.003   1.408   3.938  0.1321  0.1888 -0.0567
17486TIP3    H173949   0.099   1.407   3.938  0.1586 -0.6500 -2.0024
17486TIP3    H273950  -0.020   1.500   3.927  0.7430  0.2965 -0.4712
17487TIP3   OH273951   1.981   2.129  12.052 -0.0442  0.3778 -0.2980
17487TIP3    H173952   2.012   2.172  12.131  1.2085 -1.3779  0.2232
17487TIP3    H273953   2.060   2.111  12.001 -0.8209  1.4713 -1.9966
17488TIP3   OH273954   0.094   1.655   0.682  0.2128  0.5333 -0.2707
17488TIP3    H173955   0.122   1.737   0.641 -2.0310  0.5961 -1.8361
17488TIP3    H273956   0.096   1.590   0.611 -2.0977  0.2382 -0.1297
17489TIP3   OH273957   2.739   5.406  15.714 -0.0873 -0.4521 -0.4283
17489TIP3    H173958   2.726   5.389  15.620  2.0958 -2.7443 -0.4397
17489TIP3    H273959   2.826   5.444  15.719 -1.3528  2.5787  0.5115
17490TIP3   OH273960   2.758   2.188  16.900  1.2608 -0.7390  0.2391
17490TIP3    H173961   2.815   2.215  16.829  0.0080 -0.6451 -0.7594
17490TIP3    H273962   2.703   2.264  16.918  0.9568 -1.0564  0.7009
17491TIP3   OH273963   4.124   2.262   2.645  0.6801  0.2793  0.4861
17491TIP3    H173964   4.138   2.357   2.643 -1.7645  0.6709 -0.7083
17491TIP3    H273965   4.066   2.244   2.571 -1.5255 -1.6738  2.5167
17492TIP3   OH273966   0.732   0.237   1.096  0.2515  0.0240  0.6049
17492TIP3    H173967   0.813   0.199   1.128  1.4927  1.0389 -1.1678
17492TIP3    H273968   0.674   0.162   1.083  1.8405 -1.0762 -0.6127
17493TIP3   OH273969   3.415   4.721   1.498  0.4110  0.3323 -0.3603
17493TIP3    H173970   3.480   4.724   1.428 -0.7302  1.4498 -1.4261
17493TIP3    H273971   3.361   4.799   1.484 -1.7523 -1.0424 -0.0977
17494TIP3   OH273972   3.044   6.443   4.485  0.2832  0.2604  0.5243
17494TIP3    H173973   3.004   6.502   4.421 -0.4376 -0.7589  0.0147
17494TIP3    H273974   3.021   6.480   4.570 -0.1454  0.7217  0.2112
17495TIP3   OH273975   1.837   3.155  11.056  0.7316  0.0477 -0.2239
17495TIP3    H173976   1.796   3.088  11.001  1.0529 -0.5024  0.2088
17495TIP3    H273977   1.931   3.146  11.039  0.8737 -0.4636  0.7951
17496TIP3   OH273978   2.059   6.775   1.571  0.3631  0.1780 -0.0632
17496TIP3    H173979   2.141   6.761   1.619 -0.5530 -0.2661  1.4459
17496TIP3    H273980   2.049   6.871   1.569  0.0667  0.1972  1.3125
17497TIP3   OH273981   6.373   0.251  13.497  0.2848  0.1691 -0.0199
17497TIP3    H173982   6.384   0.252  13.402 -0.1441 -1.7659 -0.1282
17497TIP3    H273983   6.429   0.321  13.528 -0.4117  1.6048 -1.7719
17498TIP3   OH273984   5.037   1.326   3.046 -0.5694 -0.2175  0.2169
17498TIP3    H173985   5.124   1.342   3.009 -0.0097 -0.1985  1.5011
17498TIP3    H273986   5.012   1.409   3.085 -0.6096 -0.5762  0.9640
17499TIP3   OH273987   2.218   0.947  13.912 -0.5114 -0.1221 -0.1929
17499TIP3    H173988   2.272   0.945  13.833  2.1933 -0.5644  1.5516
17499TIP3    H273989   2.250   1.022  13.962 -2.7101  0.6348  0.1863
17500TIP3   OH273990   2.560   0.828   0.348 -0.2253  0.2106 -0.5960
17500TIP3    H173991   2.653   0.845   0.336 -0.2320 -0.1893 -1.2640
17500TIP3    H273992   2.529   0.801   0.262 -1.1902  1.3557 -0.6383
17501TIP3   OH273993   3.625   1.310  13.063  0.5116 -0.3179 -0.4505
17501TIP3    H173994   3.636   1.236  13.003  2.0401  0.1039 -0.7450
17501TIP3    H273995   3.683   1.378  13.028 -1.4451  1.3446 -0.6453
17502TIP3   OH273996   2.015   5.559   0.507  0.0183  0.5571 -0.0181
17502TIP3    H173997   2.027   5.469   0.540 -0.7137  1.3773  2.8107
17502TIP3    H273998   1.920   5.574   0.514  0.3359  2.2103  1.7221
17503TIP3   OH273999   2.151   1.682   4.244 -0.4231  0.3410  0.6544
17503TIP3    H174000   2.055   1.684   4.250 -0.4147  1.1744  0.6101
17503TIP3    H274001   2.180   1.665   4.334 -0.6316 -1.1807  0.4575
17504TIP3   OH274002   3.746   6.467   0.282  0.1896  0.3267  0.3500
17504TIP3    H174003   3.771   6.510   0.201 -0.1246  1.2330  0.7213
17504TIP3    H274004   3.812   6.494   0.346 -0.0268  0.2897  0.5939
17505TIP3   OH274005   1.658   5.946  12.289  0.5007 -0.4001  0.2172
17505TIP3    H174006   1.621   5.872  12.241 -1.3431  0.2434  0.5608
17505TIP3    H274007   1.592   6.015  12.281  1.2832  0.5566  1.5494
17506TIP3   OH274008   3.562   5.847  12.433 -0.5034 -0.4104 -0.0750
17506TIP3    H174009   3.648   5.853  12.475 -0.8550  0.3677  0.5694
17506TIP3    H274010   3.501   5.835  12.505 -1.0876  0.6077 -0.3699
17507TIP3   OH274011   4.617   6.782  12.729 -0.1871 -0.4588 -0.1740
17507TIP3    H174012   4.549   6.784  12.796  0.5302  0.7995  0.5439
17507TIP3    H274013   4.697   6.757  12.776 -0.2677 -2.8279 -1.1644
17508TIP3   OH274014   2.742   1.510   1.190  0.4718  0.2227  0.4345
17508TIP3    H174015   2.778   1.438   1.139 -0.0939  0.4371 -0.2866
17508TIP3    H274016   2.680   1.468   1.250  0.0187  0.1217 -0.0985
17509TIP3   OH274017   5.995   0.540  13.432 -0.2105  0.1231 -0.1113
17509TIP3    H174018   6.077   0.568  13.391  0.3502  0.0150  0.9277
17509TIP3    H274019   5.956   0.481  13.367  1.0371 -0.6512 -0.1955
17510TIP3   OH274020   5.117   1.121  13.852 -0.3499 -0.3024 -0.6695
17510TIP3    H174021   5.123   1.044  13.909 -0.1583  1.1188  1.3488
17510TIP3    H274022   5.203   1.127  13.811 -0.2038 -0.8929 -0.4633
17511TIP3   OH274023   3.460   1.405   3.767  0.3973  0.0762  0.3218
17511TIP3    H174024   3.491   1.387   3.678  0.7338 -0.9181  0.6200
17511TIP3    H274025   3.370   1.435   3.755  1.2175  2.4531 -0.5218
17512TIP3   OH274026   5.943   0.742   2.480 -0.3019  0.2644  0.8396
17512TIP3    H174027   5.923   0.741   2.574  1.2982 -1.0578  1.2026
17512TIP3    H274028   5.906   0.824   2.449 -2.0249  0.1266  2.3587
17513TIP3   OH274029   5.682   1.547   0.643 -0.6270  0.3715  0.5105
17513TIP3    H174030   5.640   1.479   0.695 -0.3399 -0.6886 -0.5798
17513TIP3    H274031   5.774   1.542   0.666 -0.5548  0.1408  0.1931
17514TIP3   OH274032   2.336   4.428  12.654 -0.4795 -0.2782  0.4425
17514TIP3    H174033   2.426   4.455  12.639 -0.1674 -1.3088  0.4276
17514TIP3    H274034   2.283   4.497  12.613  0.3190 -0.7075 -1.3668
17515TIP3   OH274035   2.371   6.313   1.079  0.2240  0.1192 -0.7485
17515TIP3    H174036   2.326   6.371   1.141 -0.2574  0.3308 -1.2831
17515TIP3    H274037   2.394   6.370   1.006  1.1140 -0.0524 -0.6100
17516TIP3   OH274038   2.993   3.440  16.768  0.2680 -0.1686  0.5287
17516TIP3    H174039   2.921   3.447  16.706  0.9617  0.0227 -0.2714
17516TIP3    H274040   2.972   3.504  16.836  0.8562  1.6582 -0.9211
17517TIP3   OH274041   3.176   6.306  11.522 -0.0122  0.0556 -0.5989
17517TIP3    H174042   3.092   6.350  11.530 -1.2325 -2.0440 -1.3274
17517TIP3    H274043   3.171   6.232  11.581  0.2733 -1.5899 -2.5223
17518TIP3   OH274044   2.147   6.422  16.509 -0.0202  0.3679 -0.3847
17518TIP3    H174045   2.171   6.409  16.417  0.6184  0.1970 -0.1983
17518TIP3    H274046   2.187   6.506  16.532 -0.5401  0.6178 -0.3796
17519TIP3   OH274047   1.842   6.281   2.301 -0.1330  0.5701  0.1623
17519TIP3    H174048   1.786   6.279   2.223 -1.0712 -0.6928  0.8403
17519TIP3    H274049   1.831   6.195   2.340  0.8678  0.9544  1.3316
17520TIP3   OH274050   1.416   2.952  13.626  0.0415  0.1976  0.2307
17520TIP3    H174051   1.347   2.949  13.692 -0.1058  0.2813  0.0809
17520TIP3    H274052   1.371   2.934  13.544  0.4024 -1.0435  0.2805
17521TIP3   OH274053   4.386   3.328  15.467  0.3938 -0.0571  0.5021
17521TIP3    H174054   4.328   3.374  15.528 -0.2490 -0.3663  0.1426
17521TIP3    H274055   4.376   3.376  15.384 -1.5904 -1.7500 -0.3508
17522TIP3   OH274056   1.439   5.586  10.787  0.3247 -0.6292  0.6126
17522TIP3    H174057   1.521   5.550  10.755 -0.2170  0.0554 -1.7077
17522TIP3    H274058   1.386   5.600  10.709 -0.7022  2.1615  1.6679
17523TIP3   OH274059   2.639   5.256   0.158  0.8807 -0.4332  0.3853
17523TIP3    H174060   2.715   5.287   0.207 -0.6676  2.3063  1.2014
17523TIP3    H274061   2.565   5.305   0.193 -1.1775 -2.3503 -1.0034
17524TIP3   OH274062   0.387   3.084  14.203 -0.0647 -0.7874 -0.8636
17524TIP3    H174063   0.311   3.138  14.184  0.5894  0.0624 -1.1204
17524TIP3    H274064   0.397   3.089  14.298 -0.7208 -1.4607 -0.7469
17525TIP3   OH274065   3.986   3.108  15.534  0.1279  0.3118 -0.0832
17525TIP3    H174066   3.908   3.061  15.505  1.0180 -1.0037 -0.4278
17525TIP3    H274067   4.040   3.116  15.456  0.1733  1.6176  0.0528
17526TIP3   OH274068   2.025   0.594   1.509 -0.0402 -0.1060  0.3807
17526TIP3    H174069   2.026   0.532   1.582  3.6895 -0.0070  0.5855
17526TIP3    H274070   2.087   0.558   1.445 -0.2949  1.7466 -0.9981
17527TIP3   OH274071   3.678   3.773   4.796  0.0906 -0.5497 -0.5380
17527TIP3    H174072   3.706   3.693   4.751 -1.2527 -0.1693 -2.1824
17527TIP3    H274073   3.585   3.757   4.815  0.1177  0.1505  0.2009
17528TIP3   OH274074   5.601   4.163  14.618  0.4120  0.7411 -0.0954
17528TIP3    H174075   5.570   4.099  14.682 -0.1258  1.7177  0.6398
17528TIP3    H274076   5.522   4.203  14.582  0.7096  2.8508  1.3950
17529TIP3   OH274077   0.323   6.572   0.535 -0.7993  0.6643 -0.6243
17529TIP3    H174078   0.346   6.485   0.567  0.3558  1.0668 -0.3341
17529TIP3    H274079   0.280   6.614   0.609 -1.9758  0.1222 -0.9771
17530TIP3   OH274080   4.087   3.782  14.823 -0.6574  0.3388  0.7733
17530TIP3    H174081   4.114   3.760  14.913 -1.6418 -1.9399  0.5797
17530TIP3    H274082   4.161   3.831  14.787  1.4036 -1.9116  1.6627
17531TIP3   OH274083   3.368   4.079  14.795 -0.1975 -0.2561 -0.2379
17531TIP3    H174084   3.367   4.172  14.817 -1.9584 -0.6014  1.4119
17531TIP3    H274085   3.309   4.072  14.720 -0.0946 -0.0421 -0.3401
17532TIP3   OH274086   0.636   0.742   4.161  0.3038  0.2465 -0.1741
17532TIP3    H174087   0.628   0.837   4.167  0.7159  0.2327  0.8079
17532TIP3    H274088   0.728   0.727   4.141  0.6521  0.0118  1.4846
17533TIP3   OH274089   4.155   1.672   2.453  0.6338  0.6647 -0.0636
17533TIP3    H174090   4.103   1.739   2.408 -0.1702 -0.4684 -0.8766
17533TIP3    H274091   4.107   1.652   2.533  0.4525  0.4832 -0.2179
17534TIP3   OH274092   0.069   3.555   1.014  0.1777  0.4200  0.0392
17534TIP3    H174093   0.076   3.530   0.922 -0.0910  0.3292  0.0424
17534TIP3    H274094   0.016   3.486   1.053  0.4688  0.3440  0.3089
17535TIP3   OH274095   1.721   4.849  11.888 -0.4044  0.2391 -0.0635
17535TIP3    H174096   1.751   4.939  11.875 -0.7340  0.1014 -2.1210
17535TIP3    H274097   1.773   4.797  11.827  1.7664 -1.4784  2.9905
17536TIP3   OH274098   0.106   6.583  12.527 -0.0753 -0.6442 -0.6376
17536TIP3    H174099   0.111   6.675  12.554  2.8538 -0.9331  0.1988
17536TIP3    H274100   0.056   6.540  12.597  0.2394 -0.0012 -0.0060
17537TIP3   OH274101   2.681   1.101   4.686  0.2354  0.7040 -0.2146
17537TIP3    H174102   2.758   1.149   4.716  1.1419 -1.7656  1.7134
17537TIP3    H274103   2.639   1.071   4.766 -0.9204 -0.7496 -1.3069
17538TIP3   OH274104   0.608   1.098  14.604 -0.5298  0.3138 -0.6128
17538TIP3    H174105   0.520   1.131  14.585 -1.1772 -1.1675 -0.3595
17538TIP3    H274106   0.601   1.003  14.590  0.5801 -0.0447  0.9875
17539TIP3   OH274107   4.338   0.917  16.216  0.5237 -0.0454  0.5709
17539TIP3    H174108   4.425   0.891  16.247  1.1372  0.2327 -0.8293
17539TIP3    H274109   4.306   0.977  16.283  1.9017  0.7419  0.5587
17540TIP3   OH274110   1.493   5.303   0.255 -0.0511 -0.2546  0.4285
17540TIP3    H174111   1.451   5.227   0.296  0.4723 -0.0535  1.3861
17540TIP3    H274112   1.432   5.331   0.187  0.2897 -2.2726 -0.8031
17541TIP3   OH274113   6.612   4.468   2.039  0.2963 -0.0350  0.0521
17541TIP3    H174114   6.568   4.410   1.978 -0.4944  0.0126  0.5643
17541TIP3    H274115   6.693   4.493   1.995 -0.7279  0.8366 -1.4168
17542TIP3   OH274116   2.523   6.028  17.083  0.1219  0.6009 -0.9242
17542TIP3    H174117   2.506   6.037  17.177  0.6821 -0.7590 -0.6837
17542TIP3    H274118   2.586   6.098  17.064  0.9001  0.1492 -0.0500
17543TIP3   OH274119   4.850   0.253  11.872  0.2954  0.5016  0.1604
17543TIP3    H174120   4.782   0.267  11.938 -1.0204  0.0092 -1.0257
17543TIP3    H274121   4.913   0.322  11.887  0.0070  0.4315  1.8937
17544TIP3   OH274122   0.426   1.993   5.788  0.1252  0.3088  0.4359
17544TIP3    H174123   0.394   1.936   5.857  2.4418 -2.6478 -0.7318
17544TIP3    H274124   0.416   1.942   5.708  1.8271  1.7266 -0.7615
17545TIP3   OH274125   2.091   0.848   0.017 -0.0728  0.2915 -0.1597
17545TIP3    H174126   2.144   0.808  -0.053 -0.4628 -1.4244  0.4756
17545TIP3    H274127   2.148   0.915   0.054  1.3173 -0.8487 -0.1359
17546TIP3   OH274128   5.043   0.011  11.230 -0.1086  0.6651 -0.0786
17546TIP3    H174129   5.049  -0.056  11.297 -0.2868  0.3221 -0.4024
17546TIP3    H274130   5.017   0.090  11.277 -0.0617  0.4683  0.2777
17547TIP3   OH274131   4.106   2.752  13.465  0.2603 -0.3546 -0.1744
17547TIP3    H174132   4.064   2.719  13.386 -0.2564 -1.5084  0.5564
17547TIP3    H274133   4.172   2.686  13.487 -1.9914 -1.9742  2.3117
17548TIP3   OH274134   5.528   6.161   1.489 -0.0792 -0.3484 -0.1673
17548TIP3    H174135   5.617   6.135   1.510 -0.2684  0.2445  1.4780
17548TIP3    H274136   5.479   6.078   1.486  0.3436 -0.5970 -0.2121
17549TIP3   OH274137   2.542   0.821   6.709  0.3709 -0.2355  0.1194
17549TIP3    H174138   2.484   0.762   6.757 -2.4421 -0.3397 -3.0349
17549TIP3    H274139   2.604   0.763   6.664 -1.0956 -0.7010 -1.3694
17550TIP3   OH274140   1.205   1.526  15.988 -0.2859  0.1618 -0.0167
17550TIP3    H174141   1.164   1.567  16.063 -2.6564  0.3107 -1.3044
17550TIP3    H274142   1.160   1.442  15.978  0.0843  0.0738 -1.1506
17551TIP3   OH274143   4.702   4.576  17.099 -0.8837 -1.0858  0.3831
17551TIP3    H174144   4.683   4.568  17.006  0.6519 -0.3027 -0.0272
17551TIP3    H274145   4.683   4.667  17.120  0.4896 -0.7834  0.3935
17552TIP3   OH274146   2.310   6.096  13.608 -0.1896 -0.0345 -0.4742
17552TIP3    H174147   2.284   6.076  13.518 -3.0284  0.8797  0.0184
17552TIP3    H274148   2.332   6.189  13.607  0.9477 -0.2882 -0.4188
17553TIP3   OH274149   5.702   0.474   5.375  0.0870  0.5061  0.0196
17553TIP3    H174150   5.649   0.427   5.439  0.2931 -1.1892 -0.9740
17553TIP3    H274151   5.645   0.544   5.343 -1.7433 -1.4349 -1.2432
17554TIP3   OH274152   1.421   3.966   2.741 -0.9188 -0.3847  0.0345
17554TIP3    H174153   1.398   4.057   2.725 -0.5635 -0.3991 -0.6137
17554TIP3    H274154   1.471   3.967   2.822 -0.9421 -0.0027  0.0429
17555TIP3   OH274155   1.992   0.125   5.299 -0.0846  0.4292  0.2344
17555TIP3    H174156   1.993   0.190   5.229  1.5778  1.5612  1.2503
17555TIP3    H274157   1.909   0.139   5.344 -0.7040  0.3741 -0.8569
17556TIP3   OH274158   6.590   1.209   0.546 -0.2591 -0.0622 -0.2373
17556TIP3    H174159   6.616   1.292   0.586 -1.1996 -0.1209  0.5131
17556TIP3    H274160   6.563   1.233   0.457  1.2037  0.1589 -0.6571
17557TIP3   OH274161   5.027   1.040   4.585  0.1558  0.1290  0.0001
17557TIP3    H174162   4.961   1.045   4.654 -1.1026 -1.9440 -0.9789
17557TIP3    H274163   5.110   1.040   4.632 -0.6408 -0.4761  1.4658
17558TIP3   OH274164   1.622   6.680   1.576  0.2679 -0.3379  0.3488
17558TIP3    H174165   1.581   6.633   1.648 -0.1077 -0.5275  0.0155
17558TIP3    H274166   1.702   6.632   1.559  0.6292  0.0226  0.9910
17559TIP3   OH274167   0.688   6.287   2.166 -0.2913 -0.0568 -0.6022
17559TIP3    H174168   0.656   6.352   2.229  0.9288  0.1577 -0.1780
17559TIP3    H274169   0.687   6.204   2.215 -0.1416 -0.0354 -0.5611
17560TIP3   OH274170   5.631   1.279   1.252 -0.5340 -0.3919  0.4414
17560TIP3    H174171   5.672   1.195   1.230 -0.1686 -0.2973  0.7554
17560TIP3    H274172   5.704   1.340   1.260 -0.8477  0.1160 -0.4601
17561TIP3   OH274173   2.601   0.516   3.506  0.1089  0.4544  0.5971
17561TIP3    H174174   2.637   0.591   3.457  0.7995  0.8570  1.6808
17561TIP3    H274175   2.553   0.555   3.578  2.2313 -0.0844  2.4285
17562TIP3   OH274176   2.476   1.923   4.537  0.4796 -0.0263 -0.0932
17562TIP3    H174177   2.385   1.893   4.542  0.2078  0.7242 -0.3777
17562TIP3    H274178   2.482   1.993   4.602  1.1630 -0.8043  0.7081
17563TIP3   OH274179   1.313   5.889   1.401  0.0130  0.3867  0.2968
17563TIP3    H174180   1.378   5.902   1.471 -0.4546  0.9124  0.6393
17563TIP3    H274181   1.319   5.969   1.348 -1.2254  1.0105  1.0555
17564TIP3   OH274182   5.362   5.544  12.051 -0.5852 -0.0321  0.1859
17564TIP3    H174183   5.440   5.530  11.998 -0.1382 -0.1912  0.8759
17564TIP3    H274184   5.334   5.633  12.029 -0.4241 -0.1016 -0.3279
17565TIP3   OH274185   0.142   2.310   5.565  0.2255 -0.4094  0.1632
17565TIP3    H174186   0.066   2.297   5.622  0.8781  0.2783  1.2192
17565TIP3    H274187   0.129   2.248   5.493 -0.9362 -0.8505  0.7306
17566TIP3   OH274188   1.173   3.042   1.107  0.6414  0.1758  0.3030
17566TIP3    H174189   1.245   3.092   1.067 -0.9868  2.1304 -0.3287
17566TIP3    H274190   1.133   2.995   1.034 -0.4081  1.2985  0.1258
17567TIP3   OH274191   2.866   4.100  15.947 -1.1594  0.0541  0.4714
17567TIP3    H174192   2.903   4.064  16.028  1.2046 -0.3606 -0.7265
17567TIP3    H274193   2.854   4.024  15.890  0.6952  0.7219 -0.8662
17568TIP3   OH274194   5.214   5.937   0.492 -0.1104  0.0441 -0.3848
17568TIP3    H174195   5.280   5.997   0.458 -0.4603  1.9033  1.9728
17568TIP3    H274196   5.264   5.860   0.520  0.5738 -0.0665 -1.7994
17569TIP3   OH274197   5.954   2.094   4.907  0.3364  0.5205 -0.4720
17569TIP3    H174198   6.030   2.101   4.965 -0.5401  0.3556  0.7452
17569TIP3    H274199   5.888   2.050   4.960 -0.9505  1.5626 -1.1470
17570TIP3   OH274200   1.214   0.124   0.782 -0.0921 -0.1075 -0.2860
17570TIP3    H174201   1.184   0.083   0.701  1.3229  0.3672 -1.0755
17570TIP3    H274202   1.253   0.053   0.833  0.8221 -0.0760 -0.9152
17571TIP3   OH274203   6.121   3.431   1.830  0.1959  0.0589 -0.2501
17571TIP3    H174204   6.185   3.360   1.840  1.6257  1.2378 -0.6376
17571TIP3    H274205   6.152   3.500   1.889  0.2237  1.2649 -1.6041
17572TIP3   OH274206   0.266   4.984  12.879  0.2980  0.1378 -0.2254
17572TIP3    H174207   0.231   4.912  12.932  1.4600 -0.3951 -0.1322
17572TIP3    H274208   0.253   5.062  12.932  0.5277 -0.2484  0.4134
17573TIP3   OH274209   2.966   2.619  14.325  0.2519  0.5257  0.2735
17573TIP3    H174210   2.968   2.547  14.388 -0.5332 -0.4149 -0.7376
17573TIP3    H274211   2.874   2.630  14.304  0.6098 -0.5665 -2.2065
17574TIP3   OH274212   2.628   3.254   5.819  1.0163 -0.4926 -0.1366
17574TIP3    H174213   2.564   3.185   5.800 -1.1694  1.3320  0.1903
17574TIP3    H274214   2.613   3.276   5.911  1.8375  0.2507 -0.1698
17575TIP3   OH274215   4.634   2.610  15.538  0.0010  0.2798  0.0390
17575TIP3    H174216   4.691   2.541  15.504 -0.0588  0.7636 -1.0794
17575TIP3    H274217   4.553   2.565  15.562 -0.8406  0.1993 -2.6299
17576TIP3   OH274218   6.464   4.535  16.885 -0.1143 -0.2846 -0.0644
17576TIP3    H174219   6.409   4.596  16.934 -1.2008 -2.0209  1.0065
17576TIP3    H274220   6.407   4.460  16.868  1.0218 -0.8130 -1.7711
17577TIP3   OH274221   4.083   6.102   1.225 -0.2722  0.2582 -0.0291
17577TIP3    H174222   4.131   6.184   1.218  0.0370  0.1498  0.6646
17577TIP3    H274223   4.003   6.125   1.272  0.3964 -0.0339  1.3305
17578TIP3   OH274224   1.713   0.172   5.358  0.8588 -0.1110  0.4422
17578TIP3    H174225   1.706   0.110   5.431 -0.2128  1.0563  1.3851
17578TIP3    H274226   1.648   0.239   5.378  0.3617  0.1226 -1.7432
17579TIP3   OH274227   5.610   5.527   1.411  0.1021  0.2209  0.1323
17579TIP3    H174228   5.682   5.472   1.381 -1.6994 -2.0392 -0.3184
17579TIP3    H274229   5.611   5.517   1.506  1.1787  1.3161  0.2615
17580TIP3   OH274230   1.106   4.122  16.089 -0.1606  0.3264 -0.0985
17580TIP3    H174231   1.113   4.028  16.075 -0.8037  0.3550 -0.6464
17580TIP3    H274232   1.028   4.132  16.143 -0.3260  0.5750 -0.3820
17581TIP3   OH274233   2.357   2.791  14.144 -0.8740 -0.0668  0.4300
17581TIP3    H174234   2.352   2.783  14.239  0.1075  1.2174  0.6266
17581TIP3    H274235   2.444   2.758  14.122 -1.7394 -2.0280 -0.2706
17582TIP3   OH274236   5.027   1.201  15.029 -0.2840 -0.0281 -0.4116
17582TIP3    H174237   4.941   1.171  15.001 -0.5991  0.7584 -0.3146
17582TIP3    H274238   5.065   1.127  15.076 -1.5047  0.0850  0.8054
17583TIP3   OH274239   3.509   6.677   4.680 -0.1067 -0.1123  0.3344
17583TIP3    H174240   3.560   6.659   4.759 -0.6951  0.2276  0.8016
17583TIP3    H274241   3.422   6.699   4.713 -0.4099 -0.1730 -0.4249
17584TIP3   OH274242   4.890   2.166  15.450 -0.2935  0.1811  0.4692
17584TIP3    H174243   4.912   2.124  15.367  0.2944  1.7570 -0.2127
17584TIP3    H274244   4.921   2.105  15.517 -0.0210 -0.7297 -0.4600
17585TIP3   OH274245   0.607   0.599   0.416 -0.2306 -0.3081  0.6567
17585TIP3    H174246   0.545   0.604   0.343  1.3704  1.3797 -0.7166
17585TIP3    H274247   0.565   0.544   0.481 -1.9842 -1.4197 -1.3200
17586TIP3   OH274248   1.671   4.822  13.103  0.3276  0.1292  0.4319
17586TIP3    H174249   1.629   4.739  13.082  0.1791 -0.0430  1.3970
17586TIP3    H274250   1.600   4.880  13.129  0.4795  0.4263  0.1914
17587TIP3   OH274251   2.308   3.135  11.333  0.1398 -0.4061 -0.0259
17587TIP3    H174252   2.393   3.105  11.301 -0.8790 -1.4760 -1.9166
17587TIP3    H274253   2.286   3.209  11.276  0.1259  0.3825  0.9748
17588TIP3   OH274254   4.169   5.133  14.471 -0.3245 -0.1052 -0.0564
17588TIP3    H174255   4.081   5.159  14.501  0.3614 -0.8887  3.0844
17588TIP3    H274256   4.224   5.209  14.488  0.1139 -0.6253  0.9906
17589TIP3   OH274257   0.811   4.271   0.087 -0.5573  0.9878  0.5704
17589TIP3    H174258   0.796   4.351   0.136 -0.9623  1.3758 -0.1650
17589TIP3    H274259   0.723   4.238   0.067 -0.4139  1.0758 -0.2582
17590TIP3   OH274260   6.054   0.276   2.242  0.0612 -0.2092  0.2700
17590TIP3    H174261   6.059   0.357   2.294  0.2717  0.2728 -0.4789
17590TIP3    H274262   6.145   0.244   2.240  0.2525  0.3511 -0.6737
17591TIP3   OH274263   3.792   0.348  10.855 -0.4078  0.1425 -0.2216
17591TIP3    H174264   3.750   0.383  10.934 -0.5636  1.7035 -0.9511
17591TIP3    H274265   3.837   0.269  10.884  0.4382  1.2563  1.6769
17592TIP3   OH274266   6.822   3.860  16.536 -0.4800 -0.0499 -0.6636
17592TIP3    H174267   6.836   3.933  16.596 -0.8030  0.4735 -1.2150
17592TIP3    H274268   6.728   3.843  16.540 -0.4294 -0.3303 -0.6568
17593TIP3   OH274269   3.971   4.093  15.180  0.5776 -0.3854  0.1212
17593TIP3    H174270   3.902   4.150  15.215  1.4448 -0.7371  2.6129
17593TIP3    H274271   3.947   4.005  15.211  0.3977 -1.0821 -1.8762
17594TIP3   OH274272   6.646   3.299   2.225  0.5107  0.2929  0.2508
17594TIP3    H174273   6.673   3.338   2.142 -1.5672  0.2139 -0.5093
17594TIP3    H274274   6.665   3.206   2.215  0.5867  0.3342  0.0068
17595TIP3   OH274275   3.720   0.715  12.100 -0.5844  0.4380  0.2897
17595TIP3    H174276   3.671   0.771  12.040  0.1737  1.1383  0.2893
17595TIP3    H274277   3.791   0.679  12.047 -0.1082  0.7921  0.6731
17596TIP3   OH274278   4.633   0.978   2.677 -0.0993  0.0205  0.2373
17596TIP3    H174279   4.539   0.994   2.686 -0.1429 -0.4130  0.6073
17596TIP3    H274280   4.669   1.060   2.644 -0.7743 -0.1788 -1.0541
17597TIP3   OH274281   4.786   3.419  12.281 -0.3694 -0.0658  0.6712
17597TIP3    H174282   4.786   3.387  12.191  0.5460  1.2528  0.1659
17597TIP3    H274283   4.780   3.341  12.335  1.6209 -1.1008 -0.5028
17598TIP3   OH274284   6.423   2.170  16.669 -0.2872 -0.9436 -0.1163
17598TIP3    H174285   6.424   2.094  16.727  0.5231  0.0931  1.3191
17598TIP3    H274286   6.510   2.173  16.631  0.1701  0.0021  0.9226
17599TIP3   OH274287   3.316   2.263  15.483  0.5878 -0.5402  0.2801
17599TIP3    H174288   3.397   2.251  15.532  1.1703 -0.2639 -0.5949
17599TIP3    H274289   3.331   2.341  15.430 -1.8049  2.1231  3.1746
17600TIP3   OH274290   0.069   3.628  15.220  0.2247  0.2201  0.2265
17600TIP3    H174291   0.076   3.562  15.152 -0.4757  1.1046 -0.7469
17600TIP3    H274292  -0.000   3.596  15.278  1.8846 -1.3030  1.4660
17601TIP3   OH274293   1.460   5.335  11.827 -0.4707  0.0833  0.2870
17601TIP3    H174294   1.422   5.309  11.743  0.2763  0.0671 -0.0537
17601TIP3    H274295   1.533   5.274  11.839 -0.5249  0.1380  0.9130
17602TIP3   OH274296   5.600   3.880  16.496 -0.4458 -0.4973 -0.0635
17602TIP3    H174297   5.532   3.940  16.527 -0.6423 -0.4309 -0.6113
17602TIP3    H274298   5.551   3.809  16.454 -0.1829 -0.5186 -0.3373
17603TIP3   OH274299   5.229   5.707   6.075  0.0773  0.5991  0.2016
17603TIP3    H174300   5.218   5.745   6.162 -0.2026  1.4756 -0.2040
17603TIP3    H274301   5.313   5.660   6.080  0.8101  1.8808  0.5164
17604TIP3   OH274302   4.184   1.513  14.257 -0.2459 -0.0174  0.4628
17604TIP3    H174303   4.275   1.536  14.273 -0.1706 -0.0852  0.1304
17604TIP3    H274304   4.166   1.546  14.169 -0.8813  1.0619  0.9684
17605TIP3   OH274305   5.917   4.733   6.721 -0.8045  0.0664 -0.0905
17605TIP3    H174306   5.871   4.687   6.651  1.1541  0.2393 -1.6115
17605TIP3    H274307   5.984   4.670   6.751 -1.3860  0.1246  1.4258
17606TIP3   OH274308   1.855   4.903  15.286  0.3264 -0.0526 -0.1941
17606TIP3    H174309   1.879   4.824  15.334 -0.4837 -1.2159 -1.6439
17606TIP3    H274310   1.853   4.972  15.353  1.7764 -1.0827  0.9720
17607TIP3   OH274311   5.503   2.058  12.369  0.3568 -0.1734 -0.0284
17607TIP3    H174312   5.423   2.036  12.417  0.0122  1.3549  0.1344
17607TIP3    H274313   5.472   2.107  12.293  1.0944 -0.3410 -0.4484
17608TIP3   OH274314   1.091   3.138   2.557  0.6123  0.4400  0.3182
17608TIP3    H174315   1.055   3.222   2.529  0.8850  0.3126 -0.4331
17608TIP3    H274316   1.156   3.160   2.623  0.5504  0.8099  0.2536
17609TIP3   OH274317   4.960   4.585   1.549  0.1266  0.0330  0.0685
17609TIP3    H174318   4.910   4.618   1.624  1.0486 -0.7460  1.0474
17609TIP3    H274319   5.051   4.587   1.578  0.4924 -0.3273 -1.0188
17610TIP3   OH274320   2.181   0.839  15.248  0.0566 -0.1198 -0.0238
17610TIP3    H174321   2.148   0.777  15.313 -2.7191  0.0024 -1.1774
17610TIP3    H274322   2.173   0.924  15.290 -4.1312  0.2625 -1.1406
17611TIP3   OH274323   5.606   2.043  16.315 -0.5192 -0.4859 -0.1370
17611TIP3    H174324   5.548   1.981  16.272  0.6266 -1.4432 -0.3517
17611TIP3    H274325   5.668   2.070  16.247  0.5010 -1.0108  0.5481
17612TIP3   OH274326   4.058   4.433   4.432  0.3888 -0.3343  0.2609
17612TIP3    H174327   4.131   4.374   4.449 -0.4932 -1.4215  0.4164
17612TIP3    H274328   4.053   4.490   4.509 -0.6922 -2.1557  1.6054
17613TIP3   OH274329   2.867   3.830   2.894  0.0389 -0.0620  0.6907
17613TIP3    H174330   2.961   3.847   2.897  0.1780 -0.6481 -0.0900
17613TIP3    H274331   2.830   3.912   2.860  0.5537 -0.6758 -1.5582
17614TIP3   OH274332   6.771   3.786  14.482 -0.6883 -0.0117  0.5502
17614TIP3    H174333   6.816   3.807  14.400  1.2811  1.3123  1.8685
17614TIP3    H274334   6.755   3.872  14.522 -0.3535 -0.6912  2.1842
17615TIP3   OH274335   0.689   0.916   0.581 -0.0684  0.6473  0.1128
17615TIP3    H174336   0.744   0.846   0.615 -0.4691  0.3236  0.1043
17615TIP3    H274337   0.727   0.996   0.616  0.4639  0.4351  0.0257
17616TIP3   OH274338   1.518   5.253  16.338 -0.6576  0.5835  0.5143
17616TIP3    H174339   1.448   5.290  16.283 -1.1184  1.4178  1.6245
17616TIP3    H274340   1.561   5.189  16.282 -0.5697  2.0054 -1.1098
17617TIP3   OH274341   2.947   1.214   4.397  0.2386  0.2518 -0.3466
17617TIP3    H174342   2.908   1.189   4.314  1.4050  3.1407 -1.9314
17617TIP3    H274343   3.039   1.187   4.391  0.4811  1.0176 -0.3119
17618TIP3   OH274344   6.286   2.905   0.766  0.2527 -0.1380  0.1582
17618TIP3    H174345   6.360   2.923   0.824  0.4143 -1.7824  0.5209
17618TIP3    H274346   6.326   2.867   0.688  0.0855  2.5135 -1.3317
17619TIP3   OH274347   2.016   6.382   6.211 -0.1022 -0.0334  0.1849
17619TIP3    H174348   2.064   6.425   6.281 -2.0090  1.3816  0.6917
17619TIP3    H274349   2.056   6.296   6.203  1.3947  0.4890  1.6854
17620TIP3   OH274350   3.641   1.708   5.404 -0.3176 -0.0712  0.4077
17620TIP3    H174351   3.627   1.665   5.489 -0.9911 -0.7312 -0.0234
17620TIP3    H274352   3.736   1.709   5.394 -0.2403 -0.2345  1.0509
17621TIP3   OH274353   2.757   5.496  16.664 -0.0963  0.6392  0.4185
17621TIP3    H174354   2.728   5.482  16.574  0.9510 -1.3121  0.3079
17621TIP3    H274355   2.688   5.457  16.718  0.6445 -0.9560  0.2863
17622TIP3   OH274356   3.858   5.105   4.814 -0.3211  0.6250 -0.2753
17622TIP3    H174357   3.807   5.091   4.735  0.8447  1.1913 -1.1505
17622TIP3    H274358   3.817   5.049   4.879 -1.7117  0.6591 -1.0904
17623TIP3   OH274359   0.391   6.255  11.914  0.0878 -0.2610  0.7922
17623TIP3    H174360   0.372   6.276  12.006 -2.3054  0.3346  0.2101
17623TIP3    H274361   0.332   6.184  11.892  1.2083 -0.9515 -0.0980
17624TIP3   OH274362   2.686   3.129   4.656  0.2081 -0.6156 -1.0923
17624TIP3    H174363   2.713   3.054   4.708  1.5958 -0.3841 -1.4491
17624TIP3    H274364   2.592   3.115   4.641 -0.1801 -0.8225  1.1980
17625TIP3   OH274365   2.284   0.028  10.029 -0.3351  0.4117 -0.6403
17625TIP3    H174366   2.189   0.025  10.036 -0.3033 -1.5814 -0.4749
17625TIP3    H274367   2.315   0.037  10.119 -0.3579  0.5378 -0.6453
17626TIP3   OH274368   0.141   1.175  16.741 -0.4166 -0.3497 -0.0049
17626TIP3    H174369   0.196   1.223  16.680 -1.4971  2.1733  0.8649
17626TIP3    H274370   0.199   1.151  16.813  0.3974 -1.4734 -1.0060
17627TIP3   OH274371   2.568   6.515  12.724  0.3422  0.0631  0.2621
17627TIP3    H174372   2.627   6.525  12.798  0.4055  0.8410  0.1144
17627TIP3    H274373   2.615   6.555  12.650 -0.3641  0.6969  0.1419
17628TIP3   OH274374   5.776   0.726  16.180  0.2900 -0.3814  0.5018
17628TIP3    H174375   5.821   0.656  16.228  0.2492 -0.2708  0.7036
17628TIP3    H274376   5.716   0.764  16.244 -0.0273 -0.4678  0.2607
17629TIP3   OH274377   5.083   4.457  12.025 -0.5650  0.2647 -1.0980
17629TIP3    H174378   5.037   4.466  11.942 -2.1163 -1.0017 -0.4369
17629TIP3    H274379   5.088   4.547  12.059 -0.0291  0.7724 -2.4756
17630TIP3   OH274380   4.369   1.021   1.277  0.6857 -0.5349 -0.3777
17630TIP3    H174381   4.319   0.969   1.340  0.0567  0.0227 -0.3940
17630TIP3    H274382   4.302   1.073   1.231  1.2538  0.0039 -0.6141
17631TIP3   OH274383   3.918   5.282   2.819  0.6783 -0.4080 -0.5103
17631TIP3    H174384   3.825   5.288   2.799  0.8749 -1.9651 -2.2054
17631TIP3    H274385   3.922   5.261   2.912 -0.6911 -0.8469 -0.5368
17632TIP3   OH274386   4.545   1.499  13.239  0.3190  0.0796  0.1375
17632TIP3    H174387   4.604   1.574  13.250  1.1804 -0.5880  0.1694
17632TIP3    H274388   4.598   1.423  13.265 -0.2856 -0.6224 -0.6439
17633TIP3   OH274389   6.750   2.256  15.705 -0.4272 -0.3043 -0.3678
17633TIP3    H174390   6.716   2.167  15.695 -0.9107 -0.0638 -0.8911
17633TIP3    H274391   6.839   2.252  15.671  1.0060 -1.4915  3.0422
17634TIP3   OH274392   2.187   3.176   2.012  0.1721 -0.3339 -0.0095
17634TIP3    H174393   2.093   3.176   1.992 -0.0672  0.4717  1.0424
17634TIP3    H274394   2.227   3.223   1.940 -0.3787  0.3819  0.1453
17635TIP3   OH274395   0.791   3.532   3.629 -0.3816  0.1607 -0.5940
17635TIP3    H174396   0.791   3.457   3.570  0.2127  1.6704 -2.6394
17635TIP3    H274397   0.863   3.587   3.597 -1.7354  2.2984 -0.1579
17636TIP3   OH274398   3.584   2.513   2.677 -0.0068  0.0922 -0.0600
17636TIP3    H174399   3.637   2.460   2.617  1.8063  0.2850  1.2866
17636TIP3    H274400   3.531   2.569   2.620  1.4721  0.1002 -1.4777
17637TIP3   OH274401   2.185   1.863  14.603  0.1143  0.2213  0.6293
17637TIP3    H174402   2.167   1.917  14.680 -0.4014  0.5541  0.2819
17637TIP3    H274403   2.280   1.865  14.594  0.0856  1.2649  0.4805
17638TIP3   OH274404   4.356   2.973  16.110 -0.1966 -0.1126 -0.2475
17638TIP3    H174405   4.444   2.951  16.080  0.0950  0.3081  0.2720
17638TIP3    H274406   4.298   2.947  16.038  0.2813 -1.0645 -0.3004
17639TIP3   OH274407   0.195   0.138   3.833 -0.7574 -0.3238 -0.1324
17639TIP3    H174408   0.247   0.078   3.887 -0.0007  0.4290 -0.0043
17639TIP3    H274409   0.189   0.218   3.885 -0.2217  0.3311 -1.0449
17640TIP3   OH274410   6.416   1.466  14.632 -1.1420  0.4110  0.4116
17640TIP3    H174411   6.404   1.374  14.654 -1.1840  0.5275  0.8823
17640TIP3    H274412   6.333   1.493  14.594 -0.8333  0.0212 -0.5702
17641TIP3   OH274413   1.812   0.783  17.120  0.5011 -0.1433 -0.0371
17641TIP3    H174414   1.876   0.853  17.115 -1.0960  1.6153  2.1263
17641TIP3    H274415   1.832   0.736  17.201  0.0673 -0.6501 -0.2098
17642TIP3   OH274416   1.712   1.200  14.966  0.0267  0.0230  0.2927
17642TIP3    H174417   1.695   1.289  14.997  0.8470  0.6392 -0.9406
17642TIP3    H274418   1.767   1.161  15.033  2.5050  1.6203 -0.6628
17643TIP3   OH274419   4.505   6.057  12.662 -0.4757 -0.2588  0.2027
17643TIP3    H174420   4.562   6.007  12.721  0.4131 -0.9645 -1.1890
17643TIP3    H274421   4.500   6.144  12.701  0.5077 -0.5555  1.0373
17644TIP3   OH274422   1.189   5.449   0.951  0.2753 -0.1347  0.1816
17644TIP3    H174423   1.168   5.507   0.878  0.2509  0.6160  0.7796
17644TIP3    H274424   1.285   5.446   0.953  0.2880 -1.2903 -0.7537
17645TIP3   OH274425   4.026   5.476  13.766 -0.2970 -0.9971 -0.2283
17645TIP3    H174426   4.057   5.423  13.840 -0.4407 -1.4081 -0.4633
17645TIP3    H274427   3.933   5.490  13.784 -0.0919 -0.1137  0.2600
17646TIP3   OH274428   2.288   2.859  11.057 -0.5064  0.1953  0.4991
17646TIP3    H174429   2.286   2.946  11.018 -0.6748  1.0158  2.2491
17646TIP3    H274430   2.203   2.821  11.036  0.3423 -0.4635 -2.1325
17647TIP3   OH274431   4.019   2.401   3.463 -0.0108  0.1118  0.2733
17647TIP3    H174432   3.962   2.345   3.411 -0.8188  0.3030  0.9391
17647TIP3    H274433   4.008   2.488   3.426 -1.3164  0.4254  1.3319
17648TIP3   OH274434   1.778   1.151  11.325  0.3644  0.0723 -0.6195
17648TIP3    H174435   1.784   1.243  11.298 -1.6568  0.9912  1.7496
17648TIP3    H274436   1.689   1.141  11.358  0.9613 -2.3984  0.4517
17649TIP3   OH274437   3.904   2.260   6.634 -0.3901 -0.2324 -0.4910
17649TIP3    H174438   3.981   2.309   6.662  0.5991 -1.1870 -1.4079
17649TIP3    H274439   3.939   2.177   6.601 -1.8990 -1.0815 -0.0837
17650TIP3   OH274440   3.647   4.378  12.872  0.4910 -0.5315  0.0091
17650TIP3    H174441   3.639   4.467  12.906 -0.3015 -0.5076 -0.2103
17650TIP3    H274442   3.738   4.354  12.887  0.1354 -0.6560  2.4871
17651TIP3   OH274443   1.465   1.428   4.052 -0.1330 -0.2275  0.1239
17651TIP3    H174444   1.410   1.462   4.123 -0.8762  1.8430 -1.3362
17651TIP3    H274445   1.531   1.374   4.096 -0.4527  1.1218  2.4163
17652TIP3   OH274446   3.986   6.539   6.417  0.7489 -0.5179 -0.1606
17652TIP3    H174447   3.948   6.451   6.418  0.4401 -0.4067 -1.1978
17652TIP3    H274448   4.077   6.527   6.446  1.4282 -1.5465 -2.5534
17653TIP3   OH274449   1.486   5.265  12.978 -0.2939 -0.3932  0.2456
17653TIP3    H174450   1.428   5.294  12.908  0.5611 -1.6560 -1.0414
17653TIP3    H274451   1.447   5.184  13.011 -0.2276 -0.2680  0.6461
17654TIP3   OH274452   3.813   2.957  13.168  0.4475  0.1718 -0.3217
17654TIP3    H174453   3.818   2.925  13.078 -0.3174 -1.7784  0.2798
17654TIP3    H274454   3.733   3.010  13.169  1.5606  1.9721 -1.2518
17655TIP3   OH274455   2.292   2.319  13.953 -0.1346 -1.3400  0.6805
17655TIP3    H174456   2.219   2.293  14.008 -0.8967 -0.1847  0.2460
17655TIP3    H274457   2.260   2.311  13.864  0.0727 -0.2964  0.5001
17656TIP3   OH274458   2.057   4.818   0.907  0.5216 -0.4444  0.0573
17656TIP3    H174459   1.984   4.756   0.906  1.1193 -1.1595 -0.2162
17656TIP3    H274460   2.040   4.875   0.832 -0.0678 -0.2308  0.3478
17657TIP3   OH274461   5.885   6.017  15.458 -0.0741  0.4661  0.0223
17657TIP3    H174462   5.973   6.043  15.431  0.5625 -0.4648  1.1125
17657TIP3    H274463   5.875   6.056  15.545 -0.1159 -0.6907  0.5583
17658TIP3   OH274464   5.456   4.621   2.080  0.3876 -0.3607 -0.0443
17658TIP3    H174465   5.485   4.704   2.118 -0.3186 -0.1757  0.0878
17658TIP3    H274466   5.462   4.558   2.152 -0.6418 -0.0769  0.3089
17659TIP3   OH274467   4.270   5.173   1.002  0.3859  0.1456  0.2579
17659TIP3    H174468   4.356   5.188   0.961  0.3983 -1.5192 -0.3780
17659TIP3    H274469   4.237   5.261   1.019  1.0752  0.8986 -1.9351
17660TIP3   OH274470   5.653   0.713   6.451 -0.0908 -0.1625  0.2681
17660TIP3    H174471   5.743   0.744   6.459  0.0894 -0.3884 -0.6456
17660TIP3    H274472   5.599   0.792   6.457  0.3117  0.2760 -1.2745
17661TIP3   OH274473   1.471   6.476   5.841 -0.5718  0.2966 -0.2211
17661TIP3    H174474   1.497   6.498   5.930 -3.7995  0.7326  0.7247
17661TIP3    H274475   1.473   6.381   5.838  1.8370  0.2831 -0.5330
17662TIP3   OH274476   2.869   4.561   1.701  0.2696  0.1407 -0.3178
17662TIP3    H174477   2.785   4.524   1.673  1.8994 -2.3946 -2.3025
17662TIP3    H274478   2.890   4.514   1.782  0.3571 -0.1694 -0.5186
17663TIP3   OH274479   1.650   5.122  10.552 -0.7986 -0.1493 -0.1869
17663TIP3    H174480   1.578   5.174  10.589 -1.7894 -0.7722 -1.1584
17663TIP3    H274481   1.672   5.059  10.621 -0.8723  0.3390  0.2898
17664TIP3   OH274482   2.405   4.884   0.244  0.1278 -0.1183  0.2800
17664TIP3    H174483   2.445   4.914   0.326 -0.6661 -0.0682  0.6603
17664TIP3    H274484   2.450   4.934   0.176 -0.2716  1.0023  0.8089
17665TIP3   OH274485   2.071   2.367   4.794 -0.0304 -0.2200  0.0387
17665TIP3    H174486   2.145   2.428   4.802  0.4826 -0.8450  0.1148
17665TIP3    H274487   2.111   2.281   4.787 -0.6728 -0.4076 -2.0906
17666TIP3   OH274488   2.135   2.869   1.550 -0.0267 -0.2495 -0.4692
17666TIP3    H174489   2.096   2.956   1.548 -0.5195 -0.4687 -0.4779
17666TIP3    H274490   2.216   2.878   1.499  0.4249  0.4301  0.3393
17667TIP3   OH274491   4.919   0.066  12.127  0.1724  0.0841 -0.1323
17667TIP3    H174492   4.963   0.001  12.073  0.1003 -0.6509  0.6684
17667TIP3    H274493   4.989   0.110  12.174  0.1931  0.3389 -0.3966
17668TIP3   OH274494   2.088   3.472   2.128 -0.6202 -0.5146 -0.3189
17668TIP3    H174495   2.088   3.378   2.144  1.0022 -0.2695  1.5283
17668TIP3    H274496   2.098   3.481   2.033  2.1970 -2.2404 -0.2937
17669TIP3   OH274497   2.298   6.335   4.376 -0.1090  0.3165 -0.3670
17669TIP3    H174498   2.253   6.391   4.440  0.7543  1.6278 -0.8803
17669TIP3    H274499   2.228   6.304   4.319 -0.7050  0.2418  0.3861
17670TIP3   OH274500   6.173   0.677   3.212  0.1843 -0.2685 -0.2896
17670TIP3    H174501   6.078   0.674   3.226 -0.0036 -0.4366 -1.4678
17670TIP3    H274502   6.182   0.711   3.123  1.3002  1.4912  0.4388
17671TIP3   OH274503   1.425   0.513  13.372 -0.5065 -0.5456 -0.2159
17671TIP3    H174504   1.472   0.436  13.339  0.2758 -0.1161 -0.1250
17671TIP3    H274505   1.432   0.506  13.467 -2.4742 -1.6050 -0.0906
17672TIP3   OH274506   2.308   1.259  11.308  0.3638  0.1264  0.0640
17672TIP3    H174507   2.223   1.298  11.288  0.0409 -0.3981  0.3734
17672TIP3    H274508   2.313   1.259  11.404 -0.7135 -2.7402  0.2056
17673TIP3   OH274509   2.972   2.331   3.115  0.3509 -0.4944 -0.1105
17673TIP3    H174510   3.007   2.352   3.202 -0.5560  0.7218 -0.0275
17673TIP3    H274511   3.050   2.312   3.062  1.1440  1.5922  0.2253
17674TIP3   OH274512   4.761   6.383  11.618 -0.7675 -0.0856  0.3181
17674TIP3    H174513   4.714   6.346  11.543 -1.1263 -0.7786  0.8706
17674TIP3    H274514   4.742   6.477  11.614 -0.4883 -0.0587 -0.6603
17675TIP3   OH274515   4.168   4.179   2.512  0.2397  0.1988 -0.4586
17675TIP3    H174516   4.144   4.126   2.436 -1.5490 -1.1083  0.9324
17675TIP3    H274517   4.189   4.115   2.581 -0.4787  1.2973  0.8241
17676TIP3   OH274518   2.887   5.015  16.687 -0.2341  0.3700 -0.3200
17676TIP3    H174519   2.949   5.016  16.760  0.4900  0.7292 -0.9272
17676TIP3    H274520   2.898   4.928  16.648 -0.3012  0.3353 -0.2606
17677TIP3   OH274521   5.850   6.342   5.460  0.5134  0.2393 -0.2969
17677TIP3    H174522   5.888   6.370   5.377 -0.5952 -0.4213 -1.0512
17677TIP3    H274523   5.807   6.420   5.494 -0.5640  0.0738 -1.2370
17678TIP3   OH274524   2.974   3.783   0.660 -0.0998 -0.6041 -0.6250
17678TIP3    H174525   2.984   3.766   0.567  0.0898 -1.0950 -0.5174
17678TIP3    H274526   2.883   3.813   0.670 -0.0412 -0.2970 -0.9978
17679TIP3   OH274527   3.424   3.500   2.508  0.6599  0.3016 -0.0636
17679TIP3    H174528   3.448   3.459   2.425 -1.9067 -2.0522  0.2306
17679TIP3    H274529   3.375   3.579   2.482  0.2532 -0.1815 -0.8000
17680TIP3   OH274530   1.980   6.695  12.544 -0.0520  0.1165  0.2679
17680TIP3    H174531   2.015   6.740  12.621  0.9540  0.5263 -0.4132
17680TIP3    H274532   2.051   6.699  12.480 -0.4499 -1.2366 -0.2853
17681TIP3   OH274533   1.748   0.644  15.986 -0.4246  0.7011 -0.8642
17681TIP3    H174534   1.776   0.648  15.895  0.8852  1.8542 -0.4483
17681TIP3    H274535   1.810   0.701  16.033 -1.2073  0.3229  0.7048
17682TIP3   OH274536   6.073   3.730  11.719  0.6177  0.3383  0.3100
17682TIP3    H174537   6.156   3.755  11.761  0.8601 -1.8556  1.3171
17682TIP3    H274538   6.009   3.731  11.790 -0.1020  1.4504 -0.3433
17683TIP3   OH274539   3.043   5.119  17.195  0.6401 -0.6770  0.0434
17683TIP3    H174540   2.970   5.173  17.224  0.8097  0.1957 -1.0976
17683TIP3    H274541   3.122   5.166  17.225  0.8338  0.4824 -2.1173
17684TIP3   OH274542   3.372   2.691   4.695  0.1848 -0.1849 -0.3635
17684TIP3    H174543   3.331   2.645   4.622 -0.9728 -0.8780  0.6939
17684TIP3    H274544   3.299   2.727   4.746  1.0048  1.4045 -0.2222
17685TIP3   OH274545   6.788   5.043  10.799 -0.7772 -0.6745  0.2880
17685TIP3    H174546   6.775   4.957  10.759  0.9832 -1.4197  1.2431
17685TIP3    H274547   6.818   5.098  10.727 -1.3676 -0.9829 -0.2074
17686TIP3   OH274548   0.925   4.018   0.024 -0.1573  0.0050 -0.3290
17686TIP3    H174549   1.010   4.006   0.065 -0.1147 -0.4662 -0.5463
17686TIP3    H274550   0.891   4.099   0.062  0.3665  0.1713 -0.2110
17687TIP3   OH274551   1.958   0.221  12.136  0.3678 -0.1661  0.1750
17687TIP3    H174552   1.952   0.302  12.086 -0.2342  0.7152  1.5933
17687TIP3    H274553   2.050   0.214  12.161  0.1530  1.0299  1.4602
17688TIP3   OH274554   2.482   5.236   3.863  0.7928  0.6390  0.1689
17688TIP3    H174555   2.439   5.160   3.824  1.7736 -0.2496  0.7582
17688TIP3    H274556   2.446   5.311   3.815  0.9588 -0.2974 -1.5267
17689TIP3   OH274557   6.817   0.156   2.171  0.0151  0.0763  0.6128
17689TIP3    H174558   6.819   0.217   2.244 -0.3004  0.5401  0.2447
17689TIP3    H274559   6.824   0.212   2.093  0.6099 -0.4267  0.2958
17690TIP3   OH274560   1.354   5.956  12.870  0.0908  0.4813 -0.0344
17690TIP3    H174561   1.316   5.873  12.899  1.7445  0.2902  1.7966
17690TIP3    H274562   1.328   6.018  12.938  1.0395  0.8587 -0.0007
17691TIP3   OH274563   3.992   3.125   0.539 -0.4927 -0.1247 -0.0138
17691TIP3    H174564   3.912   3.178   0.527 -0.9892 -0.5001  1.4628
17691TIP3    H274565   4.000   3.115   0.634 -0.0914 -2.2121 -0.2185
17692TIP3   OH274566   4.579   3.848  12.328  0.3893 -0.3553  0.1284
17692TIP3    H174567   4.665   3.873  12.360  1.6556 -1.7339 -1.9521
17692TIP3    H274568   4.597   3.787  12.256 -2.3329 -0.9605 -0.1440
17693TIP3   OH274569   5.202   0.229  12.962 -0.5983  0.2248 -0.5361
17693TIP3    H174570   5.281   0.184  12.933  1.1188  2.1023  0.8566
17693TIP3    H274571   5.133   0.163  12.960  1.3153 -1.8710 -0.5162
17694TIP3   OH274572   2.711   5.017   5.158 -0.1104  0.0652  0.0657
17694TIP3    H174573   2.777   5.064   5.208 -0.5972  1.9390 -0.9584
17694TIP3    H274574   2.758   4.981   5.083 -0.0501  0.4905 -0.1026
17695TIP3   OH274575   3.563   2.394  14.107 -0.1027 -0.0670 -0.0155
17695TIP3    H174576   3.514   2.413  14.027 -0.2977 -0.9356 -0.1102
17695TIP3    H274577   3.583   2.480  14.143 -2.5110  0.3559  0.5102
17696TIP3   OH274578   6.608   3.965  11.845 -0.5521  0.8807 -0.1650
17696TIP3    H174579   6.570   4.045  11.808 -1.9797  0.1520 -0.3114
17696TIP3    H274580   6.554   3.945  11.922 -0.6345 -0.3057 -0.5090
17697TIP3   OH274581   1.731   5.537   3.569  0.8919  0.5097 -0.1920
17697TIP3    H174582   1.803   5.513   3.511 -0.0758  2.7586 -2.5372
17697TIP3    H274583   1.653   5.499   3.528  0.4517 -0.0158  1.0776
17698TIP3   OH274584   0.868   4.796   5.509 -0.0524 -0.4669 -0.0375
17698TIP3    H174585   0.857   4.800   5.414 -1.7243 -1.8795  0.0481
17698TIP3    H274586   0.870   4.703   5.530 -3.1309 -0.2924  1.5983
17699TIP3   OH274587   1.394   3.472   3.612 -0.2715  0.6855  0.2852
17699TIP3    H174588   1.395   3.545   3.674  0.0911 -0.0415  1.1534
17699TIP3    H274589   1.340   3.406   3.654 -1.9482  1.0260 -1.2076
17700TIP3   OH274590   4.234   0.168  12.033  0.9577 -0.1701 -0.1498
17700TIP3    H174591   4.256   0.119  11.954 -0.3852 -0.2281 -0.5159
17700TIP3    H274592   4.196   0.250  12.000  1.6661  0.4075  0.4482
17701TIP3   OH274593   6.777   4.187   0.099  0.8198 -0.0590  0.3627
17701TIP3    H174594   6.722   4.110   0.087  0.9377 -0.1806  0.6151
17701TIP3    H274595   6.866   4.158   0.077  0.6634  0.3617 -0.9307
17702TIP3   OH274596   2.020   2.002   0.236 -0.0962  1.1919 -0.2679
17702TIP3    H174597   1.960   1.939   0.197 -0.2079  1.2881 -0.2550
17702TIP3    H274598   2.104   1.956   0.242  0.4418  1.7946 -2.4010
17703TIP3   OH274599   1.824   0.962   2.342 -0.0657  0.3304  0.1387
17703TIP3    H174600   1.910   1.003   2.332  0.2527 -0.2780  0.3720
17703TIP3    H274601   1.841   0.868   2.334 -0.7816  0.2321 -0.3315
17704TIP3   OH274602   4.787   3.884  15.599  0.0028 -0.2742  0.0237
17704TIP3    H174603   4.859   3.937  15.563 -0.2968 -0.8027 -1.4577
17704TIP3    H274604   4.752   3.935  15.671  0.7165  0.8282 -0.3918
17705TIP3   OH274605   1.837   5.428   1.054 -0.0556 -0.3162 -0.4116
17705TIP3    H174606   1.776   5.501   1.060 -0.8424 -0.8109 -1.9753
17705TIP3    H274607   1.800   5.361   1.113 -2.1427 -1.3360 -2.7242
17706TIP3   OH274608   5.345   2.036  11.058 -0.0809 -0.3991  0.2359
17706TIP3    H174609   5.421   1.978  11.062  0.7217  0.6055 -0.0200
17706TIP3    H274610   5.328   2.046  10.964 -0.4977 -0.5697  0.2910
17707TIP3   OH274611   5.050   1.485  12.038  0.5748 -0.3234 -0.2680
17707TIP3    H174612   5.110   1.553  12.069  2.1394 -1.5109 -0.5527
17707TIP3    H274613   5.071   1.473  11.946  1.5719 -2.3268  0.1425
17708TIP3   OH274614   0.245   5.879   4.096  0.3964  0.3259 -0.1143
17708TIP3    H174615   0.332   5.874   4.134  0.9255  1.4229 -1.1299
17708TIP3    H274616   0.253   5.834   4.012  0.6148  2.3373 -1.2418
17709TIP3   OH274617   5.410   5.415   5.600 -0.7914 -0.1698 -0.3193
17709TIP3    H174618   5.353   5.441   5.672  1.9569  1.9079  1.3255
17709TIP3    H274619   5.380   5.468   5.526 -0.7143  1.3647  0.6767
17710TIP3   OH274620   2.105   5.256  16.219  0.0995 -0.3315  0.0219
17710TIP3    H174621   2.147   5.195  16.280 -0.9153 -1.5036 -0.4147
17710TIP3    H274622   2.011   5.246  16.236 -0.1366  0.1706 -0.9479
17711TIP3   OH274623   3.865   3.527  15.124  0.1258  0.3577  0.3903
17711TIP3    H174624   3.844   3.603  15.179 -1.0705  0.4488 -0.1500
17711TIP3    H274625   3.956   3.506  15.145 -0.9030 -1.0493  4.1382
17712TIP3   OH274626   0.883   5.357  16.102 -0.1615  0.5516  0.1220
17712TIP3    H174627   0.933   5.326  16.026 -0.9060 -2.7994  0.8379
17712TIP3    H274628   0.923   5.442  16.123  0.1975  1.5971 -3.8099
17713TIP3   OH274629   4.785   6.762  13.770 -0.2872 -0.3754  0.1431
17713TIP3    H174630   4.815   6.849  13.743 -0.4709 -0.4050 -0.1566
17713TIP3    H274631   4.793   6.763  13.865 -0.2123 -0.0567  0.1355
17714TIP3   OH274632   4.239   1.138  14.994 -0.0126 -0.1925  0.3822
17714TIP3    H174633   4.171   1.074  15.015 -1.0695  0.2408 -1.5141
17714TIP3    H274634   4.241   1.197  15.070 -2.1007  0.0534  0.2999
17715TIP3   OH274635   1.198   3.199  14.701  0.2995  0.2891 -0.0789
17715TIP3    H174636   1.192   3.118  14.650 -3.0807  0.7197 -0.6027
17715TIP3    H274637   1.229   3.171  14.787  0.5986 -1.3083 -0.6715
17716TIP3   OH274638   3.032   5.409  13.549  0.3004 -0.0210  0.1315
17716TIP3    H174639   2.979   5.414  13.470 -1.3487  0.7971  1.2261
17716TIP3    H274640   2.969   5.389  13.618  1.7236 -0.9542  1.2315
17717TIP3   OH274641   5.165   0.286   2.116  0.2921  0.4208 -0.2986
17717TIP3    H174642   5.071   0.278   2.102  0.2800  0.7916 -0.4202
17717TIP3    H274643   5.204   0.248   2.038  0.2364  0.9705 -0.5968
17718TIP3   OH274644   3.864   4.567   6.906 -0.3988 -0.0517 -0.0642
17718TIP3    H174645   3.854   4.656   6.873 -2.6003  0.0358  0.6615
17718TIP3    H274646   3.869   4.513   6.828  1.0401  0.6822 -0.5129
17719TIP3   OH274647   4.830   1.174  12.375  0.2321 -0.0229  0.1931
17719TIP3    H174648   4.873   1.223  12.304 -1.5862  2.0118  0.3992
17719TIP3    H274649   4.782   1.240  12.424 -1.3600 -1.8784  1.2646
17720TIP3   OH274650   4.652   2.245  10.347  0.3371 -0.5624  0.2208
17720TIP3    H174651   4.588   2.281  10.408  0.9449 -0.5088  0.8392
17720TIP3    H274652   4.626   2.154  10.334 -0.0152 -0.4673  0.2594
17721TIP3   OH274653   2.621   6.193  11.048  0.3574  0.3329 -0.3042
17721TIP3    H174654   2.552   6.150  10.996  0.1262 -1.0832  1.0944
17721TIP3    H274655   2.603   6.286  11.037 -2.7691  0.0534  1.1742
17722TIP3   OH274656   4.170   2.828   1.111 -0.3046 -0.9614  0.3617
17722TIP3    H174657   4.141   2.778   1.187  1.1229 -1.0951  0.8356
17722TIP3    H274658   4.194   2.762   1.046 -1.8122 -0.8505 -0.3609
17723TIP3   OH274659   5.153   2.202   0.129 -0.2246  0.1136 -0.0444
17723TIP3    H174660   5.072   2.207   0.077 -2.3400  0.0475  2.9584
17723TIP3    H274661   5.202   2.281   0.105 -2.2461  1.3456 -0.3947
17724TIP3   OH274662   4.273   5.536   3.583 -0.4241  0.2865  0.3023
17724TIP3    H174663   4.356   5.543   3.535 -1.1902 -0.7018 -1.2536
17724TIP3    H274664   4.250   5.627   3.605  0.6213  0.6495 -0.0474
17725TIP3   OH274665   1.232   4.982   1.508 -0.2481  0.0303 -0.0096
17725TIP3    H174666   1.196   4.905   1.552  0.4774  0.5964  1.6691
17725TIP3    H274667   1.226   4.961   1.415 -1.5012 -1.3927  0.3357
17726TIP3   OH274668   4.572   5.877  11.342  0.1179 -0.7560  0.3895
17726TIP3    H174669   4.521   5.832  11.409 -2.5423  1.6652  0.1670
17726TIP3    H274670   4.611   5.952  11.388 -0.3462 -0.0213 -0.3892
17727TIP3   OH274671   6.232   2.823  11.712 -0.5528 -0.0429  0.0858
17727TIP3    H174672   6.321   2.819  11.679 -0.1278 -0.9713  1.2829
17727TIP3    H274673   6.229   2.902  11.766 -0.2648 -0.3676  0.5755
17728TIP3   OH274674   1.006   6.058  13.082 -0.3052 -0.6156 -0.0415
17728TIP3    H174675   1.079   6.082  13.026 -0.2484  1.1040  0.7194
17728TIP3    H274676   1.044   6.002  13.149 -0.1220 -1.5434 -0.9003
17729TIP3   OH274677   6.215   0.453  17.073  0.1086  0.1310 -0.7557
17729TIP3    H174678   6.252   0.368  17.049 -0.4081 -0.0459 -0.9348
17729TIP3    H274679   6.290   0.512  17.076  0.4335 -0.2725 -0.9041
17730TIP3   OH274680   5.639   0.698   2.786  0.3006 -0.8022  0.0117
17730TIP3    H174681   5.685   0.773   2.749  1.3037 -0.1937  2.3753
17730TIP3    H274682   5.706   0.631   2.797  0.0629 -0.9170  0.8381
17731TIP3   OH274683   6.195   5.827  16.549 -0.5109  1.0403 -0.3497
17731TIP3    H174684   6.182   5.891  16.618 -2.3144 -1.1480  1.5138
17731TIP3    H274685   6.124   5.842  16.487 -0.3924  1.3839 -0.4040
17732TIP3   OH274686   0.084   4.105  14.218  0.1941  0.3796 -0.6842
17732TIP3    H174687  -0.008   4.129  14.215  0.1652  0.1917 -1.5575
17732TIP3    H274688   0.102   4.090  14.311 -0.3335  1.5999 -0.3637
17733TIP3   OH274689   6.435   2.595   2.404  0.4755  0.2369  0.1263
17733TIP3    H174690   6.347   2.565   2.383  0.3119  0.9776 -0.3082
17733TIP3    H274691   6.481   2.595   2.320  0.3118  1.6620  0.0131
17734TIP3   OH274692   6.046   5.873   4.894  0.0613  0.1724 -0.1174
17734TIP3    H174693   6.073   5.965   4.890  3.3135 -0.7092 -1.4645
17734TIP3    H274694   6.009   5.855   4.808  2.3850 -0.4925 -1.0444
17735TIP3   OH274695   0.164   0.974  11.511  0.1343  0.6088 -0.5608
17735TIP3    H174696   0.183   1.036  11.440  0.7793  0.5636 -0.4275
17735TIP3    H274697   0.231   0.906  11.502  0.3684  0.7256  0.2410
17736TIP3   OH274698   3.920   4.855  14.275 -0.2644 -0.1043 -0.4294
17736TIP3    H174699   3.932   4.924  14.210 -1.2363  0.0551 -0.4622
17736TIP3    H274700   3.999   4.802  14.269  0.0950  0.4829 -1.0428
17737TIP3   OH274701   6.388   5.167   3.182  0.3139 -0.3601  0.4396
17737TIP3    H174702   6.319   5.233   3.194  1.4502  0.8956  0.3394
17737TIP3    H274703   6.352   5.087   3.221 -1.2563  0.2027  0.2322
17738TIP3   OH274704   3.006   4.133   3.544 -0.8565  0.0288 -0.4875
17738TIP3    H174705   3.038   4.047   3.517  1.0024  0.3998  0.4054
17738TIP3    H274706   3.079   4.172   3.592 -2.6369  0.9691  1.6210
17739TIP3   OH274707   5.326   6.306   1.237 -0.1262 -0.0972  0.2456
17739TIP3    H174708   5.320   6.327   1.144  1.5446 -3.0011 -0.6406
17739TIP3    H274709   5.415   6.330   1.262 -0.2812 -0.1603  0.8782
17740TIP3   OH274710   0.326   4.972   2.607  0.7628 -0.4524 -0.2399
17740TIP3    H174711   0.416   4.960   2.639  0.4579 -1.2974  0.3319
17740TIP3    H274712   0.328   5.055   2.561  1.8051 -0.3791 -0.0844
17741TIP3   OH274713   0.064   1.610   5.969  0.2227 -0.0098  0.3241
17741TIP3    H174714   0.078   1.529   5.921  1.6620  0.0897  0.5098
17741TIP3    H274715  -0.007   1.654   5.923  1.5667  0.1057 -1.7547
17742TIP3   OH274716   1.160   6.113   3.155  0.0433  0.3493  0.1824
17742TIP3    H174717   1.070   6.137   3.177  0.0277 -0.1916  0.7161
17742TIP3    H274718   1.153   6.027   3.113  0.2771  0.4832 -0.1409
17743TIP3   OH274719   5.937   5.495  11.557  0.4183  0.3433  0.6078
17743TIP3    H174720   5.949   5.561  11.490  0.9058 -1.5306 -1.2453
17743TIP3    H274721   5.842   5.478  11.557  0.5060 -0.1784 -0.1569
17744TIP3   OH274722   3.044   0.891   0.324  0.0070 -0.2222  0.2891
17744TIP3    H174723   2.953   0.886   0.297  0.0929  1.6112 -0.5304
17744TIP3    H274724   3.041   0.916   0.417 -0.3399  0.6608  0.0444
17745TIP3   OH274725   3.577   5.907   3.667  0.0535 -0.0304 -0.1281
17745TIP3    H174726   3.586   5.988   3.717  0.1858  0.3384 -0.7364
17745TIP3    H274727   3.496   5.868   3.699 -0.6080  0.9058 -0.6056
17746TIP3   OH274728   4.981   6.662   0.168  0.3780  0.0156  0.2239
17746TIP3    H174729   5.037   6.740   0.165  0.5122 -0.0502  0.8699
17746TIP3    H274730   4.904   6.691   0.216  0.8172 -0.4846  1.2585
17747TIP3   OH274731   5.738   4.413   5.191  0.0005  0.3252  0.6660
17747TIP3    H174732   5.819   4.365   5.178  0.7438  1.2245  1.7483
17747TIP3    H274733   5.767   4.501   5.216 -1.3111  0.9747 -0.0094
17748TIP3   OH274734   5.804   5.292  17.032  0.2730 -0.2259 -0.5416
17748TIP3    H174735   5.747   5.238  17.086  0.4441 -0.0905 -0.2196
17748TIP3    H274736   5.884   5.240  17.022  0.2858 -0.2020 -0.5619
17749TIP3   OH274737   3.389   4.722   0.585  0.4193  0.3831  0.5735
17749TIP3    H174738   3.460   4.671   0.624  0.7256  0.6945  0.4265
17749TIP3    H274739   3.429   4.768   0.511  0.5193  1.9808  1.5553
17750TIP3   OH274740   4.541   5.015  10.587 -0.4619 -0.0683 -0.4301
17750TIP3    H174741   4.593   4.937  10.606 -2.1596 -1.1426  0.1223
17750TIP3    H274742   4.479   4.987  10.520 -0.5339  1.0808 -0.8733
17751TIP3   OH274743   6.800   3.394  13.322 -0.0581  0.3257 -0.2029
17751TIP3    H174744   6.815   3.411  13.415  0.0542 -0.1780 -0.1276
17751TIP3    H274745   6.832   3.473  13.278  1.6300 -0.1921  0.0441
17752TIP3   OH274746   2.576   1.752  13.907  0.6342 -0.4763 -0.1274
17752TIP3    H174747   2.562   1.798  13.990  0.0060 -1.7093  0.4804
17752TIP3    H274748   2.631   1.811  13.856 -1.0467  1.4537  0.1624
17753TIP3   OH274749   2.709   6.633   2.965  0.4246  0.1108 -0.1519
17753TIP3    H174750   2.712   6.675   3.051  0.1323  0.0234 -0.0991
17753TIP3    H274751   2.618   6.605   2.955  0.4177  0.2804 -0.5674
17754TIP3   OH274752   2.078   3.127  16.042 -0.0940  0.3097  0.0174
17754TIP3    H174753   2.098   3.069  16.116  0.3667  0.9686  0.4250
17754TIP3    H274754   2.031   3.200  16.081 -1.0761  0.0066 -0.5634
17755TIP3   OH274755   6.806   2.564  14.970  0.5923 -0.1707  0.1377
17755TIP3    H174756   6.842   2.476  14.959 -0.5681 -0.4946 -1.3713
17755TIP3    H274757   6.724   2.551  15.016 -0.0499 -0.0112 -0.9248
17756TIP3   OH274758   5.025   3.330  11.950 -0.4277  0.5735 -0.4405
17756TIP3    H174759   5.040   3.394  11.881 -2.4167 -2.1413 -3.7669
17756TIP3    H274760   5.094   3.265  11.938 -0.1807  0.5502  0.9146
17757TIP3   OH274761   1.642   1.802   3.401 -0.0603  0.6675 -0.3962
17757TIP3    H174762   1.626   1.757   3.319  0.9782  1.3782 -1.0207
17757TIP3    H274763   1.737   1.814   3.404 -0.0521  0.4677  1.0165
17758TIP3   OH274764   6.646   0.437   3.196  0.3544 -0.6077  0.5790
17758TIP3    H174765   6.654   0.367   3.131  0.9319 -0.1348  0.1332
17758TIP3    H274766   6.553   0.441   3.216  0.1876 -0.8501 -0.1189
17759TIP3   OH274767   2.402   1.549   1.194 -0.4392 -0.5671 -0.8315
17759TIP3    H174768   2.307   1.548   1.195 -0.4441 -0.6031  0.7318
17759TIP3    H274769   2.427   1.495   1.269  0.7761  1.7741  0.5367
17760TIP3   OH274770   2.685   3.579   3.727 -0.1704 -0.5932  0.0479
17760TIP3    H174771   2.678   3.653   3.788 -0.8245 -2.0749  1.8720
17760TIP3    H274772   2.622   3.598   3.658  0.0883  0.8085  0.1652
17761TIP3   OH274773   4.555   1.004  14.537 -0.1263  0.1312  0.1163
17761TIP3    H174774   4.543   0.996  14.631  0.5660  0.2187  0.2161
17761TIP3    H274775   4.500   1.078  14.512 -0.5487 -0.0844  0.4018
17762TIP3   OH274776   0.283   0.847   5.036  0.2458  0.1050 -0.1082
17762TIP3    H174777   0.243   0.809   4.957 -0.7146  0.9965 -0.0820
17762TIP3    H274778   0.254   0.791   5.107 -0.2505  0.2401 -0.2000
17763TIP3   OH274779   6.098   2.169   4.665  0.0244  0.0014  0.3093
17763TIP3    H174780   6.080   2.169   4.759  2.2951  2.8845  0.8915
17763TIP3    H274781   6.062   2.252   4.634  0.7885 -0.1460 -1.0272
17764TIP3   OH274782   0.089   1.299  15.493 -0.5123  0.2387 -0.3440
17764TIP3    H174783   0.051   1.227  15.444  0.7528  0.0469 -1.0771
17764TIP3    H274784   0.081   1.272  15.585  1.5173 -1.7161 -0.6416
17765TIP3   OH274785   6.658   2.374  12.748  0.1411 -0.3052 -0.7280
17765TIP3    H174786   6.587   2.310  12.745  0.1010 -0.2690 -0.5528
17765TIP3    H274787   6.645   2.421  12.830  0.0060  0.1186 -0.9820
17766TIP3   OH274788   4.415   3.828  14.485  0.2660  0.1404 -1.0923
17766TIP3    H174789   4.420   3.894  14.415 -3.4435 -0.0181 -1.7225
17766TIP3    H274790   4.389   3.878  14.562  0.4463 -0.2123 -0.8036
17767TIP3   OH274791   6.043   1.796   3.177  0.4474 -0.3820 -0.9202
17767TIP3    H174792   6.035   1.879   3.225  2.7114 -0.6425  0.0114
17767TIP3    H274793   5.956   1.783   3.139 -0.4335  1.6098  0.2130
17768TIP3   OH274794   6.124   5.379  16.708  0.4025  0.0920  0.2586
17768TIP3    H174795   6.198   5.377  16.648  1.0929 -0.4406  1.1006
17768TIP3    H274796   6.135   5.301  16.762  0.3361  1.0268  1.6939
17769TIP3   OH274797   3.882   5.192  15.300  0.3590  0.2307 -0.4001
17769TIP3    H174798   3.831   5.112  15.311 -0.5944  0.8729  0.0110
17769TIP3    H274799   3.928   5.203  15.384  1.7649 -0.7134 -1.0033
17770TIP3   OH274800   3.259   6.424  15.118  0.5928  0.3452 -0.3861
17770TIP3    H174801   3.268   6.492  15.051 -0.2108  0.1834 -0.6712
17770TIP3    H274802   3.234   6.346  15.069 -1.4060  0.5510  0.2224
17771TIP3   OH274803   2.771   2.689   3.763 -0.5226 -0.2323 -0.3216
17771TIP3    H174804   2.830   2.739   3.706 -0.6904  0.2067 -0.1160
17771TIP3    H274805   2.721   2.756   3.810 -1.3181 -0.5950 -0.6355
17772TIP3   OH274806   2.272   2.016  12.989  0.3617 -0.0925 -0.1900
17772TIP3    H174807   2.219   2.075  13.043 -0.3879 -1.4262  0.5907
17772TIP3    H274808   2.354   2.063  12.975 -0.8891  1.9584 -1.2414
17773TIP3   OH274809   2.925   0.663  15.944 -0.6632 -0.2702 -0.2386
17773TIP3    H174810   2.887   0.708  15.869  1.7550 -1.4744 -2.3311
17773TIP3    H274811   2.896   0.572  15.934  2.3270 -1.1664 -1.7524
17774TIP3   OH274812   0.299   6.828   2.486  0.3254 -0.1999  0.3509
17774TIP3    H174813   0.295   6.786   2.400 -0.2418  0.3533  0.0979
17774TIP3    H274814   0.310   6.921   2.466 -2.2979  0.2819  0.7863
17775TIP3   OH274815   3.662   2.001   0.543  0.2588 -0.1727 -0.5193
17775TIP3    H174816   3.668   1.907   0.530 -0.8718 -0.1525 -1.3611
17775TIP3    H274817   3.569   2.022   0.528  0.7537  1.2691 -1.8559
17776TIP3   OH274818   2.371   1.211  12.455 -0.2240  0.6413  0.0340
17776TIP3    H174819   2.332   1.143  12.400 -0.0338  0.7607 -0.2470
17776TIP3    H274820   2.461   1.218  12.425  0.2026 -0.0615  1.0898
17777TIP3   OH274821   1.806   3.113   0.621 -0.4606  0.6583  0.2009
17777TIP3    H174822   1.831   3.060   0.696 -0.8027  0.4810  0.1900
17777TIP3    H274823   1.888   3.127   0.573 -0.7151 -1.9481 -1.1500
17778TIP3   OH274824   0.973   2.535   4.161 -0.3200 -0.3771  0.1005
17778TIP3    H174825   1.063   2.550   4.135 -0.0850 -1.5333  0.1758
17778TIP3    H274826   0.968   2.440   4.176 -1.8130 -0.5118 -0.9672
17779TIP3   OH274827   1.220   4.274   0.087  0.1086  0.1803 -0.0001
17779TIP3    H174828   1.304   4.292   0.044  0.2310 -0.2891  0.0412
17779TIP3    H274829   1.164   4.239   0.018  0.3932 -0.8418  0.2661
17780TIP3   OH274830   2.260   2.074  12.439  0.3194  0.7199 -0.1123
17780TIP3    H174831   2.347   2.056  12.473  0.1629 -3.2212 -1.3070
17780TIP3    H274832   2.202   2.017  12.490 -1.0848  0.8955 -1.4370
17781TIP3   OH274833   6.402   4.263   3.150  0.2166  0.2924 -0.8195
17781TIP3    H174834   6.360   4.349   3.148 -1.4903 -0.4900 -0.2831
17781TIP3    H274835   6.381   4.228   3.237  1.1605 -0.5460 -0.9098
17782TIP3   OH274836   0.263   3.056   6.144 -0.6452 -0.2348  0.4947
17782TIP3    H174837   0.220   3.097   6.219 -0.9832  0.4871 -0.0794
17782TIP3    H274838   0.193   3.008   6.100 -0.4510 -0.6403  0.6207
17783TIP3   OH274839   5.283   2.787   0.651  0.3525 -0.5434 -0.0264
17783TIP3    H174840   5.339   2.856   0.688  2.0968 -1.4501 -0.8425
17783TIP3    H274841   5.337   2.747   0.582 -1.9106 -0.4626 -1.9431
17784TIP3   OH274842   3.336   5.049   5.770 -0.8194  0.1869  0.5769
17784TIP3    H174843   3.418   5.098   5.773 -1.3545  1.1811 -0.2894
17784TIP3    H274844   3.268   5.116   5.761 -1.5029 -0.7012 -1.7921
17785TIP3   OH274845   2.788   1.580   3.265  0.3068 -0.0011 -0.0955
17785TIP3    H174846   2.786   1.622   3.351  1.4517 -1.5969  0.7617
17785TIP3    H274847   2.737   1.638   3.209 -1.2477  0.6323  1.8533
17786TIP3   OH274848   1.833   5.849  15.949  0.2716 -0.3214 -0.0478
17786TIP3    H174849   1.768   5.779  15.939  0.3589 -0.7208  1.8422
17786TIP3    H274850   1.915   5.803  15.965  0.5180  0.2022  0.2122
17787TIP3   OH274851   3.529   4.390   3.973  0.0062 -0.3150  0.0505
17787TIP3    H174852   3.568   4.477   3.978 -1.1870  0.2492 -0.0317
17787TIP3    H274853   3.597   4.335   3.934  0.1670  0.9894 -1.6234
17788TIP3   OH274854   4.900   0.639   2.094  0.2481 -0.3707 -0.3251
17788TIP3    H174855   4.948   0.655   2.175 -0.5136  1.5335 -0.2019
17788TIP3    H274856   4.967   0.619   2.029  0.9243 -0.9968  0.5466
17789TIP3   OH274857   2.657   1.316  16.399 -0.6474 -0.9881 -0.3680
17789TIP3    H174858   2.621   1.402  16.421 -1.7143 -1.2579 -0.9961
17789TIP3    H274859   2.667   1.318  16.304  2.4861 -0.3770 -0.1307
17790TIP3   OH274860   3.146   6.041   1.276 -0.0164  0.3906  0.0597
17790TIP3    H174861   3.080   6.085   1.329 -0.2907  0.3348 -0.2377
17790TIP3    H274862   3.110   5.953   1.262  0.1225  0.3600 -0.1022
17791TIP3   OH274863   2.882   1.727   0.910 -0.0553  0.5096 -0.1164
17791TIP3    H174864   2.860   1.754   0.999  0.2332 -1.4922  0.6270
17791TIP3    H274865   2.895   1.808   0.862  0.0883  1.6365  1.7450
17792TIP3   OH274866   6.707   1.550   5.292 -0.6170  0.0486  0.5684
17792TIP3    H174867   6.746   1.504   5.218 -0.1157  2.0988 -0.4859
17792TIP3    H274868   6.614   1.557   5.269 -0.4318  0.8364  0.0214
17793TIP3   OH274869   6.269   3.357  13.121 -0.0359  0.6399  0.8341
17793TIP3    H174870   6.306   3.438  13.086  2.3067 -0.0621  1.4999
17793TIP3    H274871   6.276   3.366  13.216 -0.4447 -0.0406  0.9333
17794TIP3   OH274872   5.660   2.631   6.231 -0.0758  0.4153  0.1201
17794TIP3    H174873   5.592   2.698   6.238 -0.9403 -0.4302  0.0250
17794TIP3    H274874   5.709   2.638   6.314 -0.8752  0.4083  0.6032
17795TIP3   OH274875   3.939   3.285   2.594 -0.3545 -0.1459  0.4179
17795TIP3    H174876   3.929   3.342   2.517  1.2115 -0.3240  0.0503
17795TIP3    H274877   3.943   3.346   2.668  0.7219  0.2216  0.0822
17796TIP3   OH274878   1.722   3.436   3.915 -0.5417 -0.1571 -0.1699
17796TIP3    H174879   1.638   3.423   3.959 -1.2208  0.4919 -1.2241
17796TIP3    H274880   1.722   3.371   3.844 -0.0929 -0.2480 -0.0908
17797TIP3   OH274881   2.510   3.423  13.230 -0.1127  0.7556 -0.2957
17797TIP3    H174882   2.593   3.469  13.218 -0.1794  1.0266  0.2861
17797TIP3    H274883   2.490   3.387  13.143  1.6535 -1.1131  0.0109
17798TIP3   OH274884   5.642   6.192   5.350 -0.4671 -0.1140  0.5745
17798TIP3    H174885   5.689   6.113   5.325 -0.0575  0.2926  0.0359
17798TIP3    H274886   5.709   6.251   5.384 -0.6445  0.2961  0.2273
17799TIP3   OH274887   6.526   2.538   1.589 -0.5430  0.7642 -0.0421
17799TIP3    H174888   6.539   2.501   1.501  2.2933 -0.4066  0.7580
17799TIP3    H274889   6.431   2.545   1.598 -1.0749 -2.1577 -2.0127
17800TIP3   OH274890   2.805   0.165   1.196 -0.5077 -0.3336  0.0074
17800TIP3    H174891   2.784   0.089   1.249  1.9917 -1.3314 -0.3104
17800TIP3    H274892   2.794   0.135   1.106  3.5203 -1.5278 -0.2863
17801TIP3   OH274893   3.486   2.910   4.566  0.3244 -0.7726  0.4024
17801TIP3    H174894   3.447   2.833   4.609  0.1788 -1.1467 -0.3876
17801TIP3    H274895   3.558   2.935   4.625  1.1718 -2.2813  0.0730
17802TIP3   OH274896   3.212   4.030   4.441 -0.0831 -0.4108 -0.0401
17802TIP3    H174897   3.289   3.994   4.397  0.2176 -0.5180  0.5675
17802TIP3    H274898   3.172   4.088   4.376 -0.7043 -1.9917 -1.1281
17803TIP3   OH274899   3.328   6.356   1.982 -0.2948  0.0182 -0.5018
17803TIP3    H174900   3.348   6.285   1.920 -1.2949  0.0475 -0.8733
17803TIP3    H274901   3.308   6.311   2.064 -1.4506 -0.1765 -0.8748
17804TIP3   OH274902   6.820   2.999   6.610 -0.1675  0.7247 -0.2099
17804TIP3    H174903   6.898   3.054   6.604 -1.4894  2.7381  0.1082
17804TIP3    H274904   6.747   3.060   6.617 -1.7649 -1.0871  0.0834
17805TIP3   OH274905   0.832   0.038  16.195 -0.4561 -0.0379 -0.2887
17805TIP3    H174906   0.876  -0.045  16.216 -0.4531 -0.0086 -0.1811
17805TIP3    H274907   0.783   0.019  16.115 -0.3897 -0.1214 -0.3101
17806TIP3   OH274908   0.691   1.753   4.980 -0.3125 -0.1747 -0.2123
17806TIP3    H174909   0.724   1.815   4.916 -1.7875 -0.3016 -1.1439
17806TIP3    H274910   0.768   1.704   5.009  0.9286  2.1627  0.6841
17807TIP3   OH274911   3.857   1.704  14.313  0.9278  0.7181 -0.0362
17807TIP3    H174912   3.846   1.798  14.299 -1.5320  0.3685 -0.8707
17807TIP3    H274913   3.813   1.663  14.239 -0.6119 -1.1092  1.7882
17808TIP3   OH274914   6.372   6.724  16.425 -1.1512  0.2354 -0.2000
17808TIP3    H174915   6.341   6.780  16.354 -1.2075 -1.8459 -1.9049
17808TIP3    H274916   6.461   6.756  16.443 -0.5561 -0.1033 -2.2631
17809TIP3   OH274917   3.666   2.181  14.614 -0.3699 -0.9880 -0.0434
17809TIP3    H174918   3.647   2.170  14.707 -0.7452  1.4835  0.2311
17809TIP3    H274919   3.748   2.230  14.612  0.1581 -1.8769 -1.0557
17810TIP3   OH274920   1.523   6.206   4.017  0.1993  0.1452  0.4481
17810TIP3    H174921   1.616   6.214   3.992 -0.0769  1.6777 -0.2206
17810TIP3    H274922   1.524   6.203   4.113  0.8883  1.3373  0.4959
17811TIP3   OH274923   4.678   3.605  12.473  0.4372 -0.1476 -0.3487
17811TIP3    H174924   4.713   3.557  12.398 -0.0267  0.8784 -1.2468
17811TIP3    H274925   4.632   3.680  12.434  1.0643  0.9770  0.9827
17812TIP3   OH274926   3.278   2.662  15.155  0.4217 -0.7399  0.2667
17812TIP3    H174927   3.198   2.627  15.194  0.2551 -0.8173 -0.1339
17812TIP3    H274928   3.259   2.756  15.143  0.1596 -0.8619 -0.3638
17813TIP3   OH274929   3.268   2.337   0.335  0.7473 -0.0403  0.5288
17813TIP3    H174930   3.246   2.322   0.242  0.0555  0.1675  0.6530
17813TIP3    H274931   3.364   2.338   0.337  0.7698 -0.0305 -0.1876
17814TIP3   OH274932   2.005   4.217   2.645 -0.7671 -0.1814  0.3247
17814TIP3    H174933   1.909   4.225   2.645 -0.8356 -0.3889  2.2759
17814TIP3    H274934   2.023   4.147   2.707  0.6655  0.2356  0.4153
17815TIP3   OH274935   1.678   1.877   0.363 -0.1471 -0.0179 -0.8817
17815TIP3    H174936   1.698   1.937   0.435 -1.5470 -2.2892  1.5722
17815TIP3    H274937   1.583   1.884   0.352 -0.2829 -1.4532 -0.7893
17816TIP3   OH274938   3.952   4.832   0.853  0.3970  0.5765  0.1170
17816TIP3    H174939   3.977   4.793   0.937  0.8815 -0.7821 -0.6191
17816TIP3    H274940   3.884   4.774   0.820  0.3885  0.9559 -0.5436
17817TIP3   OH274941   0.501   4.574   2.504 -0.0698  0.5581  0.0403
17817TIP3    H174942   0.522   4.494   2.553 -0.1460  0.5613  0.0791
17817TIP3    H274943   0.418   4.603   2.542  0.4358  1.1884  0.6943
17818TIP3   OH274944   5.982   3.845  12.731 -0.0564 -0.1109 -0.3194
17818TIP3    H174945   5.996   3.886  12.646  0.1641 -1.0863 -0.7696
17818TIP3    H274946   5.894   3.871  12.757 -0.0418  0.3617 -0.7473
17819TIP3   OH274947   4.538   6.800  12.465  0.0038 -0.3650 -0.1197
17819TIP3    H174948   4.580   6.718  12.439  1.4480  0.4350 -0.4561
17819TIP3    H274949   4.565   6.813  12.556  2.4777  1.2643 -0.9903
17820TIP3   OH274950   0.419   1.983   3.782  0.0475 -0.2137  0.1164
17820TIP3    H174951   0.388   1.895   3.801 -1.4630  0.2203 -0.1658
17820TIP3    H274952   0.514   1.974   3.773 -0.0282 -1.7151  0.5423
17821TIP3   OH274953   0.449   0.462  11.657 -0.2078  0.4090 -0.1362
17821TIP3    H174954   0.446   0.555  11.679 -2.6862  0.6292 -1.1621
17821TIP3    H274955   0.404   0.418  11.729  1.0599 -0.0623  0.4080
17822TIP3   OH274956   0.896   2.640   4.396  0.0915  0.1819 -0.5651
17822TIP3    H174957   0.938   2.576   4.454  0.4456  1.1729  0.3089
17822TIP3    H274958   0.920   2.613   4.308 -0.4373 -1.3569 -0.2670
17823TIP3   OH274959   6.285   0.581  11.039 -0.1268 -0.2372  0.3585
17823TIP3    H174960   6.308   0.618  10.954  1.8155  0.9981  1.3442
17823TIP3    H274961   6.335   0.499  11.044 -1.3282 -1.0267 -0.2205
17824TIP3   OH274962   2.003   6.601  11.042  0.5586 -0.7603 -0.3059
17824TIP3    H174963   2.089   6.624  11.078  0.1733 -0.4719  0.4459
17824TIP3    H274964   1.986   6.513  11.075 -0.0672 -0.2594  0.7559
17825TIP3   OH274965   3.219   4.713  13.934 -0.9567  0.5903  0.2017
17825TIP3    H174966   3.284   4.688  13.870  0.8097  0.3815  1.9715
17825TIP3    H274967   3.238   4.805  13.952  0.8662 -0.1716  2.7999
17826TIP3   OH274968   1.216   1.252  10.882 -0.7435  0.9506 -0.5036
17826TIP3    H174969   1.249   1.299  10.806  0.1120  0.2146 -0.6003
17826TIP3    H274970   1.132   1.216  10.853 -0.5172  0.8444 -1.0297
17827TIP3   OH274971   5.060   0.423  11.853  0.3958  0.7093  0.0399
17827TIP3    H174972   5.121   0.422  11.780 -0.5745  1.3300 -0.8099
17827TIP3    H274973   5.109   0.463  11.925  1.5152 -0.3568 -0.1090
17828TIP3   OH274974   5.846   0.920  15.535 -0.6472 -0.6915 -0.6611
17828TIP3    H174975   5.883   0.892  15.619 -0.8606 -0.5362 -0.5154
17828TIP3    H274976   5.878   1.010  15.523 -1.1539 -0.4785 -0.4308
17829TIP3   OH274977   5.056   4.028   0.535  0.9544 -0.1818 -0.2145
17829TIP3    H174978   5.037   4.122   0.535  1.3443 -0.0798 -1.5462
17829TIP3    H274979   4.988   3.990   0.591 -0.1597  0.7178 -0.9112
17830TIP3   OH274980   0.321   5.246   4.478 -0.0511 -0.0856 -0.5399
17830TIP3    H174981   0.301   5.163   4.521  2.4912 -0.7614 -0.4878
17830TIP3    H274982   0.243   5.267   4.428 -0.6615 -2.6901 -0.8079
17831TIP3   OH274983   0.997   0.554  13.369  0.3349  0.5062 -0.3389
17831TIP3    H174984   0.935   0.489  13.335  1.2495 -0.1974 -0.6929
17831TIP3    H274985   0.952   0.638  13.359 -1.5147 -0.1632  1.5562
17832TIP3   OH274986   1.472   3.459   4.724  0.1161 -0.5253 -0.5244
17832TIP3    H174987   1.465   3.418   4.638  0.0332 -1.1040 -0.2458
17832TIP3    H274988   1.482   3.552   4.705  1.6420 -0.7956 -1.2122
17833TIP3   OH274989   2.901   4.123   1.608 -0.1549  0.3087  0.2729
17833TIP3    H174990   2.823   4.155   1.562  0.1269  1.6843  0.6976
17833TIP3    H274991   2.871   4.047   1.656 -1.2427  0.8012  0.4035
17834TIP3   OH274992   2.268   4.078   1.306 -0.2990  0.2153  0.8803
17834TIP3    H174993   2.172   4.083   1.297 -0.2020  1.4295  0.3114
17834TIP3    H274994   2.282   4.058   1.398 -1.1060  0.0342  0.9737
17835TIP3   OH274995   4.731   2.226   2.884 -0.1555 -0.4122  0.4239
17835TIP3    H174996   4.763   2.197   2.799 -1.1764  0.7643 -0.4027
17835TIP3    H274997   4.806   2.217   2.943  1.3029  0.9801 -1.1136
17836TIP3   OH274998   3.368   3.455   5.439  0.0455 -0.4741 -0.5879
17836TIP3    H174999   3.449   3.403   5.438  1.5771  1.7417 -0.5457
17836TIP3    H275000   3.310   3.410   5.378  1.3941 -2.0146 -0.8222
17837TIP3   OH275001   3.791   5.620  12.909 -0.2662 -0.1472 -0.1891
17837TIP3    H175002   3.829   5.561  12.844 -2.0186 -1.7787  0.1367
17837TIP3    H275003   3.751   5.561  12.973 -0.4359  1.4254  1.2169
17838TIP3   OH275004   5.751   5.548  16.912  0.0013  0.0363 -0.1076
17838TIP3    H175005   5.818   5.616  16.913  0.6047 -0.5417 -0.1679
17838TIP3    H275006   5.794   5.472  16.953 -1.3879  0.3722  2.1772
17839TIP3   OH275007   0.236   2.969  15.538 -0.2294  0.2683  0.5549
17839TIP3    H175008   0.223   2.878  15.566 -0.1013  0.8834  2.7533
17839TIP3    H275009   0.329   2.986  15.554 -0.0203  0.5011 -0.8091
17840TIP3   OH275010   3.756   2.664  12.777 -0.9679 -0.4830 -0.0958
17840TIP3    H175011   3.773   2.571  12.760 -0.9059 -0.3905 -0.5608
17840TIP3    H275012   3.681   2.685  12.722 -0.4695 -0.0559 -0.6336
17841TIP3   OH275013   5.909   1.188  15.600  0.3314  0.1661  0.5144
17841TIP3    H175014   5.869   1.265  15.559  1.3926  0.1094 -0.7003
17841TIP3    H275015   5.883   1.194  15.692 -0.2142  1.5792  0.3011
17842TIP3   OH275016   5.496   4.381  11.579 -0.7090 -0.1037  0.1045
17842TIP3    H175017   5.523   4.473  11.575  0.8482 -0.5664 -0.7388
17842TIP3    H275018   5.564   4.338  11.630  0.2817 -1.2904 -2.0396
17843TIP3   OH275019   3.285   4.622  17.080 -0.0708 -0.0868 -0.1564
17843TIP3    H175020   3.333   4.696  17.117  0.5869  0.6276 -2.2781
17843TIP3    H275021   3.208   4.661  17.038  0.3017 -0.5613 -1.3318
17844TIP3   OH275022   6.268   0.226  13.010  0.0915  0.1069 -0.0531
17844TIP3    H175023   6.329   0.177  13.066  1.1078  1.1092 -0.2401
17844TIP3    H275024   6.325   0.270  12.947 -0.9254  0.2608 -0.8811
17845TIP3   OH275025   0.616   1.490   4.968  0.4220 -0.1076 -0.2819
17845TIP3    H175026   0.521   1.475   4.965  0.5359 -2.2129  2.5401
17845TIP3    H275027   0.624   1.584   4.986 -1.5639 -0.6097  4.9056
17846TIP3   OH275028   2.008   0.071  10.342  0.4071  0.3688 -0.7701
17846TIP3    H175029   1.936   0.008  10.333  0.5659  0.0947 -0.1492
17846TIP3    H275030   1.983   0.125  10.417  1.2155 -0.2238 -0.0644
17847TIP3   OH275031   3.040   3.973  13.071 -0.1174 -0.1397  0.3161
17847TIP3    H175032   2.955   3.971  13.114 -0.1749 -1.6244  0.2060
17847TIP3    H275033   3.064   4.065  13.068 -1.4999  0.2543  0.7763
17848TIP3   OH275034   2.046   3.011   3.217  0.4422  0.3712  0.1551
17848TIP3    H175035   2.051   2.976   3.128  0.3188 -2.8505  1.3044
17848TIP3    H275036   1.952   3.019   3.235  0.3533 -1.8200  0.9307
17849TIP3   OH275037   3.124   5.001  14.599 -0.0783 -0.1777  0.3721
17849TIP3    H175038   3.103   4.937  14.531 -0.6794  0.0204  0.3668
17849TIP3    H275039   3.130   5.084  14.552  1.6113 -0.3477  0.2287
17850TIP3   OH275040   0.325   5.393   5.525 -0.1475 -0.2070 -0.6248
17850TIP3    H175041   0.401   5.340   5.501  0.2361 -0.7585  1.6208
17850TIP3    H275042   0.362   5.468   5.570 -0.8791  0.3478 -0.9222
17851TIP3   OH275043   1.265   5.375  14.515  0.7504 -0.3973 -0.4568
17851TIP3    H175044   1.194   5.421  14.471  0.1631  0.2005  1.0354
17851TIP3    H275045   1.344   5.422  14.489  0.1884  1.3848  0.8347
17852TIP3   OH275046   6.188   0.838  11.037  0.6025  0.3513 -0.1948
17852TIP3    H175047   6.210   0.861  11.128  0.1291 -0.0303  0.0180
17852TIP3    H275048   6.205   0.744  11.032 -2.3873 -0.3356  0.4331
17853TIP3   OH275049   3.450   1.258  16.292  0.2117  0.2436 -0.3124
17853TIP3    H175050   3.413   1.206  16.363 -1.6059  1.3377 -0.3665
17853TIP3    H275051   3.514   1.315  16.335  1.0830 -0.9197 -0.0182
17854TIP3   OH275052   5.219   6.297   5.936 -0.1937  0.2727  0.6120
17854TIP3    H175053   5.234   6.238   6.010  0.2354  1.1922  1.2908
17854TIP3    H275054   5.155   6.360   5.968 -0.1766  0.5501  0.1154
17855TIP3   OH275055   5.044   2.688   3.824  0.7711  0.5971 -0.1202
17855TIP3    H175056   5.086   2.650   3.747 -0.2730 -1.3755  0.2060
17855TIP3    H275057   5.113   2.692   3.890  1.2343  0.5244 -0.5933
17856TIP3   OH275058   3.027   5.325   3.742 -0.0665  0.5609 -0.0267
17856TIP3    H175059   3.041   5.263   3.671  2.4899 -0.5033  1.2687
17856TIP3    H275060   2.936   5.310   3.769 -1.1940  1.2013 -3.1298
17857TIP3   OH275061   0.164   2.936   5.818  0.0109  0.1559 -0.3232
17857TIP3    H175062   0.245   2.885   5.810  0.0908  0.3758 -0.9572
17857TIP3    H275063   0.094   2.870   5.817  0.2309 -0.1492  1.6758
17858TIP3   OH275064   4.087   0.348  17.001 -0.3014 -0.1339  0.0346
17858TIP3    H175065   3.992   0.353  17.009 -0.4561  1.6387 -2.1102
17858TIP3    H275066   4.119   0.365  17.090 -1.9471  0.0978  0.6277
17859TIP3   OH275067   1.002   6.230  11.838 -0.1377  0.1544  0.3209
17859TIP3    H175068   1.035   6.178  11.765  0.7895  0.9609  0.1444
17859TIP3    H275069   0.955   6.303  11.796 -0.4232  0.1027  0.5458
17860TIP3   OH275070   6.457   0.875  12.314  0.0968  0.0163 -0.4730
17860TIP3    H175071   6.385   0.936  12.300 -0.0876 -0.3990 -1.4152
17860TIP3    H275072   6.423   0.812  12.377  0.8528  1.7799  1.8384
17861TIP3   OH275073   5.458   5.011  10.686 -0.0970 -1.1389  0.2606
17861TIP3    H175074   5.394   5.080  10.701  0.2820 -1.0549  1.6587
17861TIP3    H275075   5.440   4.980  10.598 -0.9153  0.0717 -0.0252
17862TIP3   OH275076   0.742   4.527  10.474  0.0483 -0.7370  0.1083
17862TIP3    H175077   0.654   4.496  10.454  0.4041 -2.0252  0.3851
17862TIP3    H275078   0.797   4.484  10.409  0.5280 -0.3168  0.2314
17863TIP3   OH275079   3.864   1.012  12.162 -0.1095  0.2985 -0.1387
17863TIP3    H175080   3.903   1.074  12.224  1.9271 -0.5675 -0.4649
17863TIP3    H275081   3.935   0.992  12.101 -0.7229 -2.2390 -0.1150
17864TIP3   OH275082   2.339   4.207  17.057  0.2327 -0.3966 -0.1636
17864TIP3    H175083   2.400   4.164  17.117  0.3342  1.2290  0.9903
17864TIP3    H275084   2.253   4.172  17.079  0.3726 -0.3876  0.4159
17865TIP3   OH275085   3.362   0.311   2.154  0.0293 -0.0336  0.1337
17865TIP3    H175086   3.377   0.216   2.154 -1.1297 -0.2453 -1.1145
17865TIP3    H275087   3.310   0.327   2.075  1.8313  1.9252 -0.7305
17866TIP3   OH275088   0.684   0.446   4.547 -0.2749 -0.4197  0.4789
17866TIP3    H175089   0.729   0.363   4.528 -1.2276 -0.7962 -0.2324
17866TIP3    H275090   0.747   0.496   4.598  1.7364 -0.1684 -2.0232
17867TIP3   OH275091   3.568   5.520  11.456  0.2333  0.7939  0.2818
17867TIP3    H175092   3.573   5.582  11.528  0.4244  1.3543 -0.2117
17867TIP3    H275093   3.525   5.568  11.386 -0.4079  0.0976  0.1759
17868TIP3   OH275094   4.028   1.703  14.009  0.0390  0.2197 -0.1697
17868TIP3    H175095   4.041   1.627  13.953 -0.6004  0.2469 -0.3579
17868TIP3    H275096   3.939   1.693  14.043 -0.2420  1.1537 -0.6149
17869TIP3   OH275097   3.008   3.587   1.548  0.0814 -0.0820 -0.2591
17869TIP3    H175098   3.015   3.507   1.600  0.3243 -0.4763 -0.8847
17869TIP3    H275099   3.068   3.648   1.590  1.3015 -0.8339 -0.8497
17870TIP3   OH275100   6.637   5.420  15.774 -0.0554  0.1403 -0.1413
17870TIP3    H175101   6.573   5.491  15.786 -0.0480 -0.1088  1.5428
17870TIP3    H275102   6.649   5.415  15.679 -1.7835  0.8623 -0.4375
17871TIP3   OH275103   1.073   5.028  14.612  0.0917 -0.1945 -0.1015
17871TIP3    H175104   0.980   5.039  14.632  0.0870  3.3763 -1.3541
17871TIP3    H275105   1.074   4.998  14.521  0.1791  0.0503 -0.1799
17872TIP3   OH275106   6.181   6.622  16.163 -0.1396  0.2272  0.0799
17872TIP3    H175107   6.176   6.588  16.074 -0.2121  1.6420 -0.4865
17872TIP3    H275108   6.261   6.675  16.165  0.3731 -0.5547  1.1463
17873TIP3   OH275109   0.453   2.621   0.233 -0.0186  0.4469 -0.0507
17873TIP3    H175110   0.475   2.609   0.325 -0.0619  1.0701  0.0432
17873TIP3    H275111   0.357   2.619   0.231 -0.0170  0.3920 -0.0907
17874TIP3   OH275112   6.031   2.463   3.350  0.0643 -0.1165  0.0824
17874TIP3    H175113   6.121   2.447   3.324  0.5843  2.8861 -0.3190
17874TIP3    H275114   5.979   2.431   3.277  0.7271 -2.1873  0.4640
17875TIP3   OH275115   5.814   4.194   1.636 -0.5889  0.2175 -0.0222
17875TIP3    H175116   5.775   4.124   1.687 -1.1168  0.1748 -0.4796
17875TIP3    H275117   5.820   4.268   1.697 -2.5215  0.6199 -0.2455
17876TIP3   OH275118   2.013   5.110  11.672 -0.1390 -0.3472  0.5149
17876TIP3    H175119   1.958   5.050  11.622 -1.5145 -0.2286  1.8274
17876TIP3    H275120   1.982   5.103  11.762  0.0678  1.8514  0.8154
17877TIP3   OH275121   2.993   2.893   3.595 -0.0473  0.2957 -0.7141
17877TIP3    H175122   3.061   2.829   3.570 -1.3107 -1.9533  1.1760
17877TIP3    H275123   2.926   2.884   3.528 -0.8054 -1.4126  0.2143
17878TIP3   OH275124   4.264   3.771  11.658 -0.6886  0.2971 -0.0832
17878TIP3    H175125   4.222   3.841  11.708 -0.5159 -0.1458  0.6926
17878TIP3    H275126   4.307   3.717  11.723  0.8395  0.5503 -0.8441
17879TIP3   OH275127   4.226   1.729  12.878  1.0822  0.1457  0.1955
17879TIP3    H175128   4.300   1.670  12.894  2.8007  2.2745  0.5704
17879TIP3    H275129   4.208   1.721  12.784  0.3257 -1.9567  0.4762
17880TIP3   OH275130   4.937   6.376   2.865 -0.2199  0.0866  0.3565
17880TIP3    H175131   4.940   6.400   2.773  0.5635  0.7413  0.5444
17880TIP3    H275132   5.028   6.378   2.894 -0.5578  1.2601  1.4740
17881TIP3   OH275133   4.787   5.508   0.888 -0.2766  0.4119  0.5230
17881TIP3    H175134   4.811   5.428   0.936  0.0373  0.5800  0.6551
17881TIP3    H275135   4.783   5.481   0.797  2.3386  0.7529  0.2280
17882TIP3   OH275136   2.789   4.635   0.679  0.2479  0.1772 -0.4122
17882TIP3    H175137   2.729   4.639   0.605  0.8647  1.4133 -0.8664
17882TIP3    H275138   2.874   4.660   0.643  1.2540 -2.2934  0.0394
17883TIP3   OH275139   5.279   3.864  11.265  0.2006 -0.4557 -0.1522
17883TIP3    H175140   5.343   3.900  11.204  0.7171  1.6492  1.5208
17883TIP3    H275141   5.211   3.827  11.208  1.1172  0.5088 -1.9821
17884TIP3   OH275142   1.576   2.718  14.573  0.4114 -0.2932  0.3744
17884TIP3    H175143   1.641   2.738  14.640 -0.0867 -0.1937  0.8356
17884TIP3    H275144   1.556   2.802  14.533  0.9936 -0.4075 -0.1693
17885TIP3   OH275145   4.402   0.783   5.860  0.6133  0.4085 -0.0346
17885TIP3    H175146   4.343   0.752   5.791  1.2372  1.4000 -1.0265
17885TIP3    H275147   4.461   0.709   5.875  0.7381  0.3325 -0.8532
17886TIP3   OH275148   4.293   5.556   2.456 -0.0972  0.1998  0.3298
17886TIP3    H175149   4.198   5.555   2.452 -0.1548 -2.7863 -0.1238
17886TIP3    H275150   4.322   5.577   2.368 -0.3577  0.3955  0.2931
17887TIP3   OH275151   5.827   1.660  16.698  0.3785  0.0397  0.0820
17887TIP3    H175152   5.899   1.599  16.713  1.1255  0.9706  0.4303
17887TIP3    H275153   5.780   1.625  16.622  1.3252 -0.4643 -0.2843
17888TIP3   OH275154   5.276   3.491  12.042  0.4180  1.1141 -0.4542
17888TIP3    H175155   5.338   3.543  12.093 -0.6050  1.5544  0.3869
17888TIP3    H275156   5.194   3.498  12.091 -0.4079  0.9339 -1.7871
17889TIP3   OH275157   3.022   5.563  13.163  0.1761  0.1044  0.2399
17889TIP3    H175158   2.960   5.517  13.219 -0.4979  0.9431  0.2062
17889TIP3    H275159   2.993   5.654  13.165  2.5161  0.9142  1.7212
17890TIP3   OH275160   2.082   2.793  17.171  0.0335  0.0204 -0.1383
17890TIP3    H175161   2.010   2.777  17.109 -0.6234  1.2732  0.2725
17890TIP3    H275162   2.039   2.826  17.250  0.9335 -0.8199  0.7269
17891TIP3   OH275163   3.181   0.814  15.655  0.0757  0.4466  0.1321
17891TIP3    H175164   3.145   0.893  15.694  0.9733  1.1452 -0.4064
17891TIP3    H275165   3.137   0.806  15.570  0.8589  1.0859 -0.3569
17892TIP3   OH275166   0.962   5.296   2.293  0.2483 -0.0720  0.1355
17892TIP3    H175167   0.919   5.378   2.271  0.2059 -0.2214 -0.3429
17892TIP3    H275168   0.891   5.234   2.305  0.3217 -0.2859 -0.5193
17893TIP3   OH275169   6.830   3.908  10.591 -0.9755  0.0999  0.7308
17893TIP3    H175170   6.764   3.941  10.531  0.1013 -0.8952 -1.0648
17893TIP3    H275171   6.820   3.812  10.588  2.4275 -0.3406 -2.0054
17894TIP3   OH275172   1.219   1.602   0.367  0.1928 -0.6296 -0.0197
17894TIP3    H175173   1.180   1.534   0.312  2.0965 -0.1673 -2.0981
17894TIP3    H275174   1.203   1.684   0.320 -0.4517  0.1507  1.5056
17895TIP3   OH275175   0.756   5.756  16.686  0.4534  0.3702 -0.4618
17895TIP3    H175176   0.698   5.682  16.704  1.2668 -0.7195 -2.0380
17895TIP3    H275177   0.698   5.827  16.661 -0.2302 -0.7430 -2.1658
17896TIP3   OH275178   5.594   4.725  14.105 -0.0820 -0.2142  0.0973
17896TIP3    H175179   5.523   4.751  14.047  0.1715  1.2741  0.4098
17896TIP3    H275180   5.559   4.738  14.193  0.0647 -0.9389  0.2646
17897TIP3   OH275181   3.647   1.233  15.754 -0.0426 -0.5325 -0.5283
17897TIP3    H175182   3.634   1.236  15.849  2.4270 -0.6570 -0.1194
17897TIP3    H275183   3.741   1.220  15.743 -0.5690 -3.5140 -2.9616
17898TIP3   OH275184   4.189   2.441  14.306  0.1058  0.5015 -0.0431
17898TIP3    H175185   4.209   2.530  14.337 -0.1365  0.8737 -0.9157
17898TIP3    H275186   4.094   2.435  14.310  0.1497  0.0912  0.4944
17899TIP3   OH275187   1.559   2.401   0.082  0.1016 -0.1085  0.2416
17899TIP3    H175188   1.595   2.319   0.047 -2.0635 -1.2788  0.6445
17899TIP3    H275189   1.592   2.468   0.022 -0.0738 -1.5678 -1.5804
17900TIP3   OH275190   5.995   3.388  11.792  0.3775 -0.0537  0.2298
17900TIP3    H175191   5.947   3.441  11.855 -0.9061 -0.7592 -0.1307
17900TIP3    H275192   5.967   3.420  11.706  0.0124 -0.9320  0.0131
17901TIP3   OH275193   5.966   6.266  14.460 -0.3816 -0.0188  0.0351
17901TIP3    H175194   5.980   6.277  14.554  0.5107  0.4862 -0.1468
17901TIP3    H275195   5.874   6.288  14.447 -0.1828  1.2020  0.6028
17902TIP3   OH275196   1.512   1.832  11.134 -0.3614 -0.0959 -0.3275
17902TIP3    H175197   1.435   1.884  11.158  0.6446  0.6401  1.6064
17902TIP3    H275198   1.586   1.890  11.153  0.7231 -1.2873 -0.7554
17903TIP3   OH275199   6.145   3.475  14.569  0.2190  0.3583 -0.5248
17903TIP3    H175200   6.201   3.404  14.600  0.2966  0.1875 -1.0492
17903TIP3    H275201   6.123   3.525  14.648  0.5536  0.0297 -0.2236
17904TIP3   OH275202   6.166   1.297  16.564  0.2437 -0.3047 -0.2708
17904TIP3    H175203   6.239   1.296  16.626 -0.4198  2.3842  0.7324
17904TIP3    H275204   6.184   1.226  16.503  1.0667 -3.0019  2.8406
17905TIP3   OH275205   6.776   5.772  11.332  0.2108  0.0462  0.4130
17905TIP3    H175206   6.724   5.763  11.412 -0.6360  0.0097 -0.1206
17905TIP3    H275207   6.710   5.784  11.263  0.9481  0.9978 -0.1527
17906TIP3   OH275208   0.125   2.142   1.691 -0.2428  0.4939  0.3645
17906TIP3    H175209   0.123   2.180   1.779  0.7160 -0.9721  1.0693
17906TIP3    H275210   0.044   2.091   1.685  0.6982 -1.2120  1.3104
17907TIP3   OH275211   4.997   1.329  13.725  0.6326 -0.1840  0.5907
17907TIP3    H175212   5.064   1.270  13.758  1.1603 -0.1774 -0.4180
17907TIP3    H275213   4.964   1.286  13.646 -1.1946 -0.6112  1.5423
17908TIP3   OH275214   2.207   2.963  16.941  0.0999 -0.5263 -0.5938
17908TIP3    H175215   2.182   2.956  17.033  1.4435  0.5087 -0.1238
17908TIP3    H275216   2.234   2.874  16.917 -0.1111 -0.7691  0.0500
17909TIP3   OH275217   6.179   3.649   4.368 -0.3639 -0.0560  0.0276
17909TIP3    H175218   6.092   3.658   4.330 -0.7400 -0.3169  0.8065
17909TIP3    H275219   6.190   3.555   4.380 -0.1848  0.0147  0.4170
17910TIP3   OH275220   5.802   3.957   6.172 -0.2757  0.2512 -0.6000
17910TIP3    H175221   5.736   3.942   6.239 -0.4823  2.2464 -0.2924
17910TIP3    H275222   5.764   4.024   6.115  0.5947 -0.1596 -1.7132
17911TIP3   OH275223   1.835   6.103   3.252 -0.4235  0.7483  0.6033
17911TIP3    H175224   1.818   6.192   3.281 -1.6493 -0.2318  3.1319
17911TIP3    H275225   1.880   6.061   3.325  2.0845 -0.2130 -1.3145
17912TIP3   OH275226   5.562   2.292   1.763  0.1726 -0.4608  0.0185
17912TIP3    H175227   5.581   2.359   1.698  0.1735 -0.7648 -0.2996
17912TIP3    H275228   5.615   2.217   1.736  1.7781  0.0621  1.5359
17913TIP3   OH275229   6.005   3.434  15.851  0.0888 -0.2599  0.4301
17913TIP3    H175230   5.969   3.501  15.910  0.9477  1.0362 -0.4694
17913TIP3    H275231   6.092   3.466  15.829  1.0166 -2.2887  0.9012
17914TIP3   OH275232   0.789   5.328  13.959 -0.1290 -0.0325  0.6960
17914TIP3    H175233   0.789   5.412  14.005  0.0753  0.8475 -0.8235
17914TIP3    H275234   0.844   5.344  13.882 -0.1949 -1.5326  0.3136
17915TIP3   OH275235   6.811   3.176  14.057  0.1798 -0.0163 -0.0676
17915TIP3    H175236   6.726   3.145  14.089 -0.3757  0.6752 -0.8089
17915TIP3    H275237   6.835   3.113  13.989  0.0769 -0.0174 -0.1049
17916TIP3   OH275238   3.130   0.577   0.023  0.1443  0.1197 -0.4318
17916TIP3    H175239   3.119   0.594   0.117 -2.3644  1.3423 -0.8736
17916TIP3    H275240   3.187   0.648  -0.007 -1.1255  1.2502 -0.2470
17917TIP3   OH275241   1.600   4.583  12.011  0.2905  0.4273  0.4786
17917TIP3    H175242   1.618   4.519  12.080 -0.5214  1.1903  1.4245
17917TIP3    H275243   1.683   4.592  11.964  0.0572 -2.4294 -0.6579
17918TIP3   OH275244   2.683   3.224   3.262  0.6583 -0.0450 -0.2870
17918TIP3    H175245   2.632   3.301   3.287  1.6763  0.8942 -1.0039
17918TIP3    H275246   2.773   3.245   3.286  0.9061 -1.1772 -0.1406
17919TIP3   OH275247   4.122   1.747   2.022 -0.7592 -0.0157 -0.1421
17919TIP3    H175248   4.165   1.696   2.090 -2.7369  0.6639  1.7493
17919TIP3    H275249   4.114   1.687   1.948  1.1015 -0.9162  0.3381
17920TIP3   OH275250   3.660   5.765  11.940 -0.3781 -0.4486 -0.3680
17920TIP3    H175251   3.591   5.818  11.899 -0.6215 -0.4672  0.0136
17920TIP3    H275252   3.738   5.820  11.937 -0.8898  0.4021  1.0524
17921TIP3   OH275253   2.721   6.009  15.334  0.7482  0.0316  0.0867
17921TIP3    H175254   2.811   6.020  15.364  0.5478  0.7416  0.4571
17921TIP3    H275255   2.713   5.916  15.314  1.1598 -0.2844  1.3347
17922TIP3   OH275256   2.124   6.002  13.799  0.5784  0.0005 -0.4127
17922TIP3    H175257   2.071   5.931  13.763 -1.6554  1.1352  0.4915
17922TIP3    H275258   2.187   6.022  13.729  0.9098 -2.4465 -0.8966
17923TIP3   OH275259   4.810   3.969  13.640 -0.4775 -0.1495  0.0841
17923TIP3    H175260   4.798   3.991  13.732  0.5914 -0.9122  0.4262
17923TIP3    H275261   4.815   3.874  13.638 -3.0174 -0.3532 -1.1049
17924TIP3   OH275262   6.595   1.270   1.489 -0.3046  0.4028 -0.0461
17924TIP3    H175263   6.607   1.345   1.548  0.2898  1.9099 -1.9691
17924TIP3    H275264   6.580   1.310   1.403  1.1224 -1.6782 -1.3532
17925TIP3   OH275265   0.151   3.873   3.982  0.0495 -0.2695 -0.7901
17925TIP3    H175266   0.223   3.906   3.928 -0.0757  1.1676 -0.1297
17925TIP3    H275267   0.072   3.891   3.931 -0.0699  1.1000 -0.1737
17926TIP3   OH275268   2.231   2.638   1.001 -0.0720  0.0134  0.1975
17926TIP3    H175269   2.282   2.605   0.928  0.4738  0.5278  0.3322
17926TIP3    H275270   2.183   2.562   1.033 -0.4291 -0.1841 -0.7778
17927TIP3   OH275271   0.532   2.055  14.165  0.6694 -0.1454 -0.1764
17927TIP3    H175272   0.593   1.988  14.196  1.3908  0.6529  0.1861
17927TIP3    H275273   0.554   2.067  14.072  2.9565  1.9993  0.5152
17928TIP3   OH275274   1.523   0.325  15.619 -0.0305  0.2310 -0.4102
17928TIP3    H175275   1.618   0.327  15.631  0.0516 -0.6722 -0.7816
17928TIP3    H275276   1.504   0.232  15.606 -1.2732  0.0607  2.0552
17929TIP3   OH275277   4.604   3.291  14.469 -0.1006  0.2840  0.5833
17929TIP3    H175278   4.580   3.331  14.385 -0.0691 -0.2350  0.3192
17929TIP3    H275279   4.664   3.354  14.509  0.1565  0.3876  0.0558
17930TIP3   OH275280   0.266   0.466   4.942  0.5644 -0.0103  0.3922
17930TIP3    H175281   0.345   0.482   4.889  1.6669  0.9952  2.2111
17930TIP3    H275282   0.204   0.533   4.913 -0.0871 -1.4436 -1.7767
17931TIP3   OH275283   4.168   6.772  15.198 -0.1465  0.0216 -0.4226
17931TIP3    H175284   4.155   6.688  15.243  0.6156 -1.4538 -2.7883
17931TIP3    H275285   4.089   6.822  15.217 -0.2421 -0.8232  1.7771
17932TIP3   OH275286   3.362   4.462  16.093  0.2493  0.0192 -0.1720
17932TIP3    H175287   3.303   4.495  16.025 -0.4419 -0.0110  0.3966
17932TIP3    H275288   3.422   4.404  16.047  0.4066  0.7512 -0.9137
17933TIP3   OH275289   1.263   3.569  11.533 -0.4843  0.2032 -0.0097
17933TIP3    H175290   1.296   3.479  11.538  0.1461  0.3953 -0.5724
17933TIP3    H275291   1.171   3.562  11.558 -0.6769 -0.7386 -0.8944
17934TIP3   OH275292   2.545   3.664  15.132 -0.7413  0.3423  0.2072
17934TIP3    H175293   2.582   3.605  15.067 -1.7525 -0.6499  0.4887
17934TIP3    H275294   2.600   3.742  15.129  1.1061 -0.9141  0.3745
17935TIP3   OH275295   1.713   1.256   5.534  0.2448 -0.0555  0.1333
17935TIP3    H175296   1.775   1.289   5.469 -0.9201  0.4377 -0.7588
17935TIP3    H275297   1.755   1.176   5.568  1.6248  0.5845  0.0021
17936TIP3   OH275298   4.423   6.650  16.670  0.2891  0.0970  0.3348
17936TIP3    H175299   4.429   6.657  16.766 -1.3698  0.5133  0.4394
17936TIP3    H275300   4.472   6.570  16.649  0.5947 -0.0592  1.5410
17937TIP3   OH275301   0.749   1.325   4.514 -0.3252 -0.1103 -0.2787
17937TIP3    H175302   0.695   1.311   4.436  0.0905 -1.0349 -0.4236
17937TIP3    H275303   0.787   1.239   4.531  0.2779  0.2911  0.4289
17938TIP3   OH275304   2.140   1.372  16.815 -0.3669 -0.1600  0.6275
17938TIP3    H175305   2.131   1.345  16.723  0.9713  0.4817  0.2801
17938TIP3    H275306   2.144   1.290  16.864 -1.7511 -0.5104  0.2159
17939TIP3   OH275307   0.500   0.005  13.534 -0.4630  0.1472 -0.1429
17939TIP3    H175308   0.487   0.088  13.488  0.6421 -0.0006 -0.7575
17939TIP3    H275309   0.594  -0.002  13.545 -0.5876 -0.7306  0.4729
17940TIP3   OH275310   3.595   0.503   0.143  0.2858  0.4008 -0.3156
17940TIP3    H175311   3.579   0.491   0.236  0.4598 -2.5547 -0.5713
17940TIP3    H275312   3.619   0.595   0.134 -1.5087  1.2234  2.2564
17941TIP3   OH275313   6.565   4.091  16.510 -0.3741 -0.3502 -0.7042
17941TIP3    H175314   6.482   4.043  16.510  0.3639 -1.6673 -0.8239
17941TIP3    H275315   6.592   4.093  16.602 -0.0341 -0.8385 -0.7894
17942TIP3   OH275316   0.352   6.311   1.313  0.2585  0.7939  0.7555
17942TIP3    H175317   0.369   6.280   1.402  2.1667  0.0594  0.1902
17942TIP3    H275318   0.408   6.388   1.304  3.3269 -1.4182 -1.0203
17943TIP3   OH275319   5.016   5.424   0.055  0.4934 -0.0706  0.0105
17943TIP3    H175320   5.046   5.503   0.099 -1.3560 -0.1126  1.4848
17943TIP3    H275321   5.096   5.373   0.039  1.3873  0.5239  2.2494
17944TIP3   OH275322   0.439   1.428  14.326 -0.4007  0.2476  0.1264
17944TIP3    H175323   0.392   1.467  14.252 -0.7092  0.2542  0.3229
17944TIP3    H275324   0.531   1.446  14.308 -0.5025  0.6002 -0.0557
17945TIP3   OH275325   3.822   5.547  16.672 -0.3354  0.5873 -0.0351
17945TIP3    H175326   3.881   5.614  16.706 -0.3887  1.5550 -1.7228
17945TIP3    H275327   3.755   5.596  16.623 -1.2649 -0.6081 -0.0202
17946TIP3   OH275328   1.768   6.576   3.745  0.2396 -0.2782 -0.1297
17946TIP3    H175329   1.714   6.592   3.667  0.9262  1.5626 -0.2833
17946TIP3    H275330   1.823   6.653   3.752  1.1983 -1.0491  1.3945
17947TIP3   OH275331   3.515   6.344   4.893 -0.4103  0.2386  0.0404
17947TIP3    H175332   3.545   6.276   4.952 -1.6608 -0.1998  0.2022
17947TIP3    H275333   3.586   6.355   4.830  1.9226  2.2495  2.7998
17948TIP3   OH275334   4.951   2.624  14.331 -0.0939 -0.0698  0.3027
17948TIP3    H175335   4.934   2.547  14.276 -1.6509 -0.8373  1.7677
17948TIP3    H275336   4.899   2.694  14.293 -0.1619 -0.2529  0.0619
17949TIP3   OH275337   2.297   6.359  16.788  0.3993 -0.1199 -0.1909
17949TIP3    H175338   2.336   6.276  16.760  0.5725 -1.0722  2.5527
17949TIP3    H275339   2.204   6.348  16.770  0.2463 -1.4448  1.1674
17950TIP3   OH275340   2.656   5.671  11.635 -0.3827 -0.2845 -0.6408
17950TIP3    H175341   2.619   5.599  11.584  0.3910 -1.0902 -0.1052
17950TIP3    H275342   2.748   5.646  11.649 -0.7408 -0.5132  1.7958
17951TIP3   OH275343   6.024   1.902  13.360  0.0276 -0.2699 -0.0601
17951TIP3    H175344   5.946   1.850  13.343  0.1098 -1.5014  2.7864
17951TIP3    H275345   6.095   1.839  13.363  1.1976  0.8025 -2.3106
17952TIP3   OH275346   2.760   4.755   5.186 -0.1754  0.4567  0.0553
17952TIP3    H175347   2.827   4.773   5.119 -0.6256 -2.2248 -1.2292
17952TIP3    H275348   2.710   4.837   5.191  1.7041  1.7268 -0.6723
17953TIP3   OH275349   3.062   4.360  16.801  0.3517 -0.1993  0.0686
17953TIP3    H175350   3.052   4.266  16.785 -1.4504 -0.0136 -0.0623
17953TIP3    H275351   2.993   4.381  16.864 -0.5207  1.3687 -1.3316
17954TIP3   OH275352   1.201   1.119   5.948  0.5694 -0.2510  0.2253
17954TIP3    H175353   1.213   1.062   5.873 -0.7004 -2.0486  1.3087
17954TIP3    H275354   1.243   1.072   6.021 -2.5028 -1.0551  1.6276
17955TIP3   OH275355   2.262   1.833  11.132  1.0736  0.4236 -0.5518
17955TIP3    H175356   2.310   1.883  11.066  0.4253  3.2677  0.9777
17955TIP3    H275357   2.183   1.884  11.148 -1.0154 -2.5185 -0.7274
17956TIP3   OH275358   2.004   2.427   1.133  0.7921 -0.4841  0.5517
17956TIP3    H175359   2.052   2.445   1.214 -0.3419 -2.6143  1.7938
17956TIP3    H275360   2.032   2.339   1.109 -0.1074 -0.4915 -0.4904
17957TIP3   OH275361   4.836   2.857  14.241  0.1074 -0.5043 -0.2940
17957TIP3    H175362   4.771   2.857  14.171 -1.8848  2.3655  1.3358
17957TIP3    H275363   4.893   2.931  14.221 -0.3771  0.2434  0.9650
17958TIP3   OH275364   5.932   4.639   3.939 -0.0991 -0.1200  0.2117
17958TIP3    H175365   5.942   4.549   3.908  1.4879  0.1518 -0.1196
17958TIP3    H275366   5.847   4.666   3.905  0.3970 -0.7415 -1.6326
17959TIP3   OH275367   6.434   0.280  12.819 -0.6304  0.0828 -0.3503
17959TIP3    H175368   6.399   0.210  12.763 -0.2996  0.3890 -0.9413
17959TIP3    H275369   6.461   0.348  12.758  0.2955  0.1703  0.1442
17960TIP3   OH275370   0.396   3.115  11.027 -0.3698  0.4314 -0.2120
17960TIP3    H175371   0.474   3.083  10.982  1.7352  1.4029  2.5369
17960TIP3    H275372   0.380   3.201  10.989 -0.0320  0.2837 -0.7021
17961TIP3   OH275373   3.129   1.463   0.257  0.3173  0.2271  0.3251
17961TIP3    H175374   3.152   1.490   0.168 -1.3256 -0.4646 -0.3579
17961TIP3    H275375   3.039   1.432   0.250  0.8476 -1.8801  1.8098
17962TIP3   OH275376   2.410   2.491  11.571  0.0738  0.4280  0.0263
17962TIP3    H175377   2.315   2.500  11.586 -0.0918  0.7706 -1.0927
17962TIP3    H275378   2.446   2.467  11.657 -1.2693 -1.8185  0.0422
17963TIP3   OH275379   4.150   5.090  12.826 -0.2572 -0.8056 -0.1253
17963TIP3    H175380   4.061   5.121  12.840 -0.7773 -2.7204  1.0832
17963TIP3    H275381   4.204   5.146  12.883 -0.7107  0.0214 -0.4785
17964TIP3   OH275382   6.761   3.873   0.661  0.2369  0.8770 -0.3316
17964TIP3    H175383   6.793   3.946   0.714  1.4279 -0.5872  1.0732
17964TIP3    H275384   6.666   3.882   0.663  0.2746  1.3145  1.4403
17965TIP3   OH275385   4.072   0.542  13.771  0.4847  0.1722  0.6118
17965TIP3    H175386   4.074   0.491  13.852 -0.8760 -0.5186  0.2527
17965TIP3    H275387   4.148   0.512  13.721  0.5170 -0.4602  1.0281
17966TIP3   OH275388   6.682   6.833   1.920 -0.3077 -0.4628 -0.2104
17966TIP3    H175389   6.728   6.917   1.910 -1.3172  0.2608  0.9928
17966TIP3    H275390   6.617   6.833   1.850  0.0813 -0.5268 -0.5808
17967TIP3   OH275391   4.756   5.273  14.909  0.1992  0.4656  0.1875
17967TIP3    H175392   4.714   5.239  14.830  0.0619  2.2515 -0.5621
17967TIP3    H275393   4.790   5.359  14.883 -2.5521  2.5546  2.7868
17968TIP3   OH275394   2.628   2.576  15.285 -0.6354 -0.5671 -0.3333
17968TIP3    H175395   2.697   2.514  15.307  1.5715  1.0925 -2.0873
17968TIP3    H275396   2.569   2.528  15.227 -0.8952 -1.9621  1.0406
17969TIP3   OH275397   5.229   2.175   5.851  0.2155  0.5164 -0.0201
17969TIP3    H175398   5.162   2.126   5.899  1.3076 -0.6477  0.3411
17969TIP3    H275399   5.288   2.207   5.919  0.5268  0.7787 -0.4125
17970TIP3   OH275400   0.353   1.122   5.479 -0.4934 -0.0537  0.3312
17970TIP3    H175401   0.303   1.203   5.476 -0.1252  0.1483 -0.5866
17970TIP3    H275402   0.437   1.148   5.516  0.3248  0.3933 -1.7144
17971TIP3   OH275403   5.207   6.482  13.856  0.0088  0.0549  0.4545
17971TIP3    H175404   5.216   6.553  13.919 -2.1694 -0.2855  1.2325
17971TIP3    H275405   5.155   6.521  13.784 -0.5869 -0.5380  0.5587
17972TIP3   OH275406   4.959   5.366   5.038  0.2899 -0.0559 -0.3962
17972TIP3    H175407   4.928   5.430   5.102  0.8916 -0.1768  0.0133
17972TIP3    H275408   5.046   5.341   5.068  0.6348 -0.0206 -1.3243
17973TIP3   OH275409   2.837   5.978   3.720  0.6918  0.2437  0.7060
17973TIP3    H175410   2.785   6.054   3.745  0.7889  1.0982 -1.4359
17973TIP3    H275411   2.880   6.004   3.639  0.5460 -2.1740 -0.2471
17974TIP3   OH275412   5.866   4.784  16.624  0.5786 -0.2049  0.0181
17974TIP3    H175413   5.838   4.876  16.626  0.3528 -0.2758  0.2300
17974TIP3    H275414   5.784   4.734  16.625  0.7020 -0.4174  0.9290
17975TIP3   OH275415   1.984   6.675   5.452  0.3413 -0.1908 -0.1768
17975TIP3    H175416   1.919   6.743   5.437  1.0945  0.8668  1.1644
17975TIP3    H275417   1.933   6.598   5.477 -0.4229  0.5773  0.6998
17976TIP3   OH275418   6.757   3.215   3.957  0.6317  0.3930 -0.7051
17976TIP3    H175419   6.677   3.264   3.941  0.1448 -0.1611 -0.0368
17976TIP3    H275420   6.733   3.124   3.941  0.8565  0.1199  0.4186
17977TIP3   OH275421   4.193   3.084   2.165  0.4539  0.1641 -0.1691
17977TIP3    H175422   4.115   3.051   2.120 -0.5826 -0.3226  1.8522
17977TIP3    H275423   4.224   3.009   2.216 -1.4365  1.8095  3.8677
17978TIP3   OH275424   3.911   4.554  10.980 -0.0836  0.2454  0.4723
17978TIP3    H175425   3.937   4.507  10.901  0.6268 -1.4550  1.6653
17978TIP3    H275426   3.976   4.624  10.989 -0.3110  0.6004 -0.5555
17979TIP3   OH275427   1.179   5.006   6.328 -0.2202 -0.1966 -0.2383
17979TIP3    H175428   1.191   5.100   6.340  0.2778 -0.2248 -0.4870
17979TIP3    H275429   1.096   4.987   6.371  0.3040  0.1255  0.9503
17980TIP3   OH275430   2.519   0.818  15.905  0.2378 -0.2169 -0.3635
17980TIP3    H175431   2.579   0.745  15.920  1.6982  1.0256  0.1707
17980TIP3    H275432   2.576   0.891  15.882 -0.9791  1.2872  1.1424
17981TIP3   OH275433   0.161   5.802   5.620 -0.0018 -0.1178 -0.2640
17981TIP3    H175434   0.105   5.805   5.698 -0.0641  1.1109 -0.3270
17981TIP3    H275435   0.111   5.751   5.556 -0.4699 -0.1337  0.1118
17982TIP3   OH275436   5.814   1.337   1.964  0.4104 -0.8778 -0.2372
17982TIP3    H175437   5.773   1.252   1.949 -0.9853 -0.3115  0.2104
17982TIP3    H275438   5.874   1.349   1.891 -1.9503 -0.7073 -2.2723
17983TIP3   OH275439   5.672   1.863   0.261 -0.3018 -0.3877 -0.3229
17983TIP3    H175440   5.669   1.825   0.349 -2.3724  1.6150  0.5710
17983TIP3    H275441   5.757   1.908   0.257  0.5215 -1.8723 -0.0023
17984TIP3   OH275442   0.196   6.781   5.619  0.1556  0.6517  0.3293
17984TIP3    H175443   0.122   6.732   5.585  0.4941  0.3860 -0.0314
17984TIP3    H275444   0.189   6.867   5.577 -0.5720  1.0159  1.1431
17985TIP3   OH275445   5.072   2.694  16.498 -0.2533 -0.5897  0.0350
17985TIP3    H175446   5.149   2.714  16.444 -1.5730  0.9456 -1.3860
17985TIP3    H275447   5.020   2.634  16.445 -0.2430 -1.2855  0.8080
17986TIP3   OH275448   3.810   3.273  12.928 -0.2188 -0.2610  0.6171
17986TIP3    H175449   3.829   3.188  12.888 -0.1315  0.1797 -0.3032
17986TIP3    H275450   3.715   3.281  12.922 -0.1728 -0.0385  0.1676
17987TIP3   OH275451   0.309   3.637  13.552 -0.2988 -0.0393  0.0135
17987TIP3    H175452   0.278   3.721  13.586 -1.8167 -0.8433  0.7466
17987TIP3    H275453   0.403   3.636  13.572  0.4720  2.7485 -2.8008
17988TIP3   OH275454   0.651   3.491   0.437 -0.3737 -0.2408  0.3382
17988TIP3    H175455   0.745   3.485   0.418 -0.8909  0.7057 -3.2352
17988TIP3    H275456   0.609   3.453   0.359 -2.9294  3.6838 -0.4526
17989TIP3   OH275457   2.794   4.653   0.093 -0.3527  0.4328  0.4750
17989TIP3    H175458   2.710   4.647   0.138 -0.1232  1.6998  1.1082
17989TIP3    H275459   2.771   4.652  -0.000 -1.0740  0.8696  0.6420
17990TIP3   OH275460   3.420   4.713   3.378  0.0843 -0.3134  0.2670
17990TIP3    H175461   3.498   4.734   3.326  2.1976 -2.8546  2.0967
17990TIP3    H275462   3.351   4.699   3.314  1.9762 -1.1249 -1.7158
17991TIP3   OH275463   3.124   4.214  13.607  0.0762  0.1915  0.1955
17991TIP3    H175464   3.203   4.224  13.554 -0.2249  1.9230  0.0166
17991TIP3    H275465   3.142   4.139  13.663  0.6452 -1.3255 -1.9104
17992TIP3   OH275466   6.306   3.129  12.119 -0.2357 -0.1406 -0.2492
17992TIP3    H175467   6.346   3.043  12.105 -0.1517 -0.2595  0.6307
17992TIP3    H275468   6.380   3.187  12.137 -0.4104 -0.3220  1.1913
17993TIP3   OH275469   0.182   1.673  11.495 -0.2424  0.1445  0.1049
17993TIP3    H175470   0.124   1.654  11.568 -0.4840  0.0130 -0.1178
17993TIP3    H275471   0.249   1.731  11.531  1.8950 -2.8948  1.4533
17994TIP3   OH275472   5.461   0.827  12.413  0.2023 -0.3413 -0.4704
17994TIP3    H175473   5.462   0.854  12.321  2.1375 -0.9130 -0.6628
17994TIP3    H275474   5.488   0.906  12.460 -0.6502 -0.0885 -0.3950
17995TIP3   OH275475   6.231   5.353   5.827 -0.5795 -0.6246  0.2590
17995TIP3    H175476   6.227   5.316   5.739 -3.1641  1.0244 -0.4408
17995TIP3    H275477   6.186   5.437   5.820 -1.1260 -0.5585  3.2081
17996TIP3   OH275478   2.223   5.065  16.850  0.1143  0.3153  0.1170
17996TIP3    H175479   2.191   4.998  16.790  4.5131 -1.0221 -1.1253
17996TIP3    H275480   2.187   5.147  16.816  1.2716 -0.5576 -3.6599
17997TIP3   OH275481   5.316   3.670   4.664  0.4383  0.0585  0.0943
17997TIP3    H175482   5.267   3.721   4.729 -1.1365 -0.9361 -0.2825
17997TIP3    H275483   5.250   3.633   4.607  1.7475  0.1153 -1.5352
17998TIP3   OH275484   4.969   3.247  14.495  0.0488  0.1560 -0.0274
17998TIP3    H175485   4.983   3.253  14.589 -1.6609 -0.0620  0.2696
17998TIP3    H275486   4.982   3.155  14.474 -0.4693  0.0382  0.1610
17999TIP3   OH275487   2.299   6.467  11.351 -0.3692 -0.4637  0.2912
17999TIP3    H175488   2.274   6.517  11.273  0.0048  0.5469  0.7972
17999TIP3    H275489   2.263   6.380  11.337 -2.6004  0.4262  0.1666
18000TIP3   OH275490   6.209   3.364   4.599 -0.1612  0.0947  0.6661
18000TIP3    H175491   6.256   3.444   4.623 -0.5546  0.6053 -0.2191
18000TIP3    H275492   6.250   3.296   4.652  0.1422  0.8851  1.4849
18001TIP3   OH275493   2.672   6.146   5.736  0.7033 -0.7596 -0.1947
18001TIP3    H175494   2.585   6.126   5.701 -1.7907  2.1075  3.5827
18001TIP3    H275495   2.691   6.234   5.704  0.8934 -0.2833  1.1604
18002TIP3   OH275496   4.341   3.771  15.641  0.1516 -0.1327  1.0872
18002TIP3    H175497   4.270   3.774  15.705 -0.4170  0.6042  0.4390
18002TIP3    H275498   4.308   3.715  15.571 -0.4953  1.5116  0.0063
18003TIP3   OH275499   0.306   4.712   2.131 -0.1939  0.0206 -0.0963
18003TIP3    H175500   0.380   4.691   2.188  0.2702  1.2795 -0.1975
18003TIP3    H275501   0.271   4.794   2.166 -0.1018  0.6523 -1.4054
18004TIP3   OH275502   5.250   1.788   6.225  0.3140  0.1508 -0.4677
18004TIP3    H175503   5.236   1.759   6.315 -1.7788  2.4402  0.0405
18004TIP3    H275504   5.339   1.824   6.226  0.4067 -0.0561  0.6062
18005TIP3   OH275505   5.421   5.061  12.061  0.1743  0.1232  0.7845
18005TIP3    H175506   5.476   5.110  11.999 -1.1455 -2.0168 -2.3414
18005TIP3    H275507   5.373   5.129  12.109 -0.0080  1.9776 -1.7910
18006TIP3   OH275508   5.282   4.430  17.149 -0.1463 -0.2794  0.0847
18006TIP3    H175509   5.336   4.379  17.088  0.2550 -0.0636  0.2520
18006TIP3    H275510   5.267   4.371  17.223  0.1654 -0.2252  0.1969
18007TIP3   OH275511   6.418   1.469  12.419 -0.7789 -0.0403  0.1635
18007TIP3    H175512   6.481   1.539  12.439  0.9631 -1.9519  1.9162
18007TIP3    H275513   6.467   1.409  12.363 -2.1069 -0.1248 -0.9587
18008TIP3   OH275514   3.960   0.309  14.999  0.1720 -0.0264  0.4013
18008TIP3    H175515   3.901   0.369  15.046 -0.6269 -0.7925  0.4119
18008TIP3    H275516   3.905   0.232  14.980  0.9281 -0.3880 -0.3849
18009TIP3   OH275517   3.815   2.973  12.107  0.0918  0.2716 -0.1538
18009TIP3    H175518   3.901   2.979  12.065  0.4731  0.9071  0.7006
18009TIP3    H275519   3.784   3.064  12.110 -0.1236  0.1782  0.5406
18010TIP3   OH275520   0.645   1.450   2.023 -0.0589 -0.0743  0.0184
18010TIP3    H175521   0.590   1.484   1.952 -0.6299 -1.7289 -0.3739
18010TIP3    H275522   0.732   1.442   1.985 -0.4607 -1.3901 -0.6649
18011TIP3   OH275523   1.435   5.244  10.656  0.2291 -0.1383  0.6203
18011TIP3    H175524   1.508   5.283  10.705  1.7904 -1.1238 -0.8070
18011TIP3    H275525   1.409   5.169  10.709  0.6091 -0.0821  0.8962
18012TIP3   OH275526   0.778   2.866   1.475 -0.4216  0.0457  0.2239
18012TIP3    H175527   0.824   2.915   1.407 -0.0258  0.2544  0.6366
18012TIP3    H275528   0.740   2.933   1.531 -3.7035 -0.0191 -1.6435
18013TIP3   OH275529   1.550   2.230   3.713  0.1136  0.3567 -0.2040
18013TIP3    H175530   1.556   2.144   3.671 -2.1337 -0.2559  0.5961
18013TIP3    H275531   1.577   2.291   3.646 -1.0323 -0.7905 -1.7924
18014TIP3   OH275532   2.995   5.669   4.218  0.0642 -0.1608 -0.2801
18014TIP3    H175533   3.021   5.666   4.311 -1.5320 -0.0225  0.2043
18014TIP3    H275534   3.051   5.737   4.180  1.7377 -1.2042  0.2288
18015TIP3   OH275535   3.996   2.994  13.930  0.7176  0.3815  0.1390
18015TIP3    H175536   4.091   2.999  13.944  0.8816  0.0178 -0.7849
18015TIP3    H275537   3.985   2.924  13.866 -0.2512 -0.1535  0.8840
18016TIP3   OH275538   1.668   4.849   2.845 -0.3120 -0.1002 -0.2374
18016TIP3    H175539   1.594   4.793   2.870 -0.8494  1.1859  1.1891
18016TIP3    H275540   1.735   4.831   2.911 -0.0266  0.0413 -0.4887
18017TIP3   OH275541   0.092   0.670   4.908  0.0526  0.3641  0.4250
18017TIP3    H175542   0.075   0.750   4.859  0.8105  0.4019  0.2146
18017TIP3    H275543   0.021   0.666   4.972  0.4921  1.6886  1.0405
18018TIP3   OH275544   0.865   3.759  15.808 -0.1237 -0.0170  0.0205
18018TIP3    H175545   0.930   3.776  15.740 -0.0561 -0.7754 -0.1033
18018TIP3    H275546   0.810   3.689  15.773 -0.4696  0.0140  0.4919
18019TIP3   OH275547   2.104   2.221   5.250  0.0334  0.2700 -0.2826
18019TIP3    H175548   2.194   2.203   5.278 -0.4115 -1.7987 -0.0471
18019TIP3    H275549   2.068   2.273   5.322  0.0861 -1.6868  1.2430
18020TIP3   OH275550   1.754   0.287  12.302 -0.2060  0.3290  0.0829
18020TIP3    H175551   1.827   0.287  12.241  0.4477  0.8122  0.8485
18020TIP3    H275552   1.750   0.197  12.336 -0.4479  0.1115 -0.5120
18021TIP3   OH275553   4.407   3.813  13.068  0.2505 -0.5929 -0.2548
18021TIP3    H175554   4.491   3.854  13.087  0.1878 -0.7819  0.4652
18021TIP3    H275555   4.423   3.719  13.077 -0.1901 -0.5992  0.5533
18022TIP3   OH275556   0.039   5.382  13.890 -0.5423 -0.3397 -0.4782
18022TIP3    H175557  -0.029   5.421  13.835 -0.2536 -0.4197 -0.8961
18022TIP3    H275558   0.009   5.397  13.979 -1.4488 -0.9776 -0.6647
18023TIP3   OH275559   6.311   3.066  12.583  0.2391 -0.5390  0.3957
18023TIP3    H175560   6.383   3.128  12.595 -0.8079  0.3728  2.4321
18023TIP3    H275561   6.333   2.993  12.641  0.4808 -1.1944 -0.4972
18024TIP3   OH275562   0.111   5.215  13.094  0.0260 -0.0194  0.7697
18024TIP3    H175563   0.139   5.283  13.155  0.3509 -0.0289  0.6354
18024TIP3    H275564   0.159   5.234  13.013  0.5844 -0.7594  0.9128
18025TIP3   OH275565   6.574   6.502  10.911 -0.0018  0.0544  0.8772
18025TIP3    H175566   6.523   6.423  10.932 -0.2874  0.2062  0.7645
18025TIP3    H275567   6.641   6.507  10.979  0.5214 -0.7279  0.4361
18026TIP3   OH275568   6.651   6.789  11.659  0.7653 -0.7610 -0.1831
18026TIP3    H175569   6.688   6.801  11.746  0.9069  0.9699 -0.4587
18026TIP3    H275570   6.561   6.761  11.676  0.2372  1.2327  0.5850
18027TIP3   OH275571   0.087   3.724   2.775  0.1166 -0.1272  0.6929
18027TIP3    H175572   0.043   3.762   2.851 -0.0243 -0.5188  0.8078
18027TIP3    H275573   0.024   3.733   2.704  0.6657  1.2437  0.3535
18028TIP3   OH275574   4.537   0.494   2.748 -0.0028  0.5431  0.0738
18028TIP3    H175575   4.602   0.427   2.727  0.7093  0.8166  1.3275
18028TIP3    H275576   4.490   0.460   2.823 -1.9112 -0.0149 -1.3001
18029TIP3   OH275577   6.318   6.305  12.429  0.5917 -0.2174 -0.6371
18029TIP3    H175578   6.367   6.353  12.497 -2.2746  1.0051  0.7123
18029TIP3    H275579   6.361   6.220  12.425  1.9185  0.2572  1.4927
18030TIP3   OH275580   5.828   6.243  16.730 -0.1408  0.2849 -0.2258
18030TIP3    H175581   5.811   6.245  16.824 -0.4595  0.2266 -0.2801
18030TIP3    H275582   5.816   6.333  16.701  1.3748  0.5862  0.0248
18031TIP3   OH275583   0.048   1.277  15.083  0.6857 -0.4337  0.1601
18031TIP3    H175584   0.099   1.344  15.130  0.8212 -0.2493 -0.2496
18031TIP3    H275585   0.027   1.318  14.999  1.1049 -1.0550 -0.2509
18032TIP3   OH275586   4.977   0.470   5.670  0.6663  0.4093 -0.0249
18032TIP3    H175587   4.981   0.522   5.750  0.0381 -1.0855  1.0174
18032TIP3    H275588   4.988   0.380   5.700 -0.0722 -0.2207 -1.5638
18033TIP3   OH275589   1.288   1.945   1.850  0.3428  0.6994 -0.5716
18033TIP3    H175590   1.369   1.929   1.801  0.8977  0.9298  0.2441
18033TIP3    H275591   1.283   2.040   1.856 -0.7699  0.7662 -1.8512
18034TIP3   OH275592   5.212   1.073  13.213  0.0176 -0.2590 -0.0631
18034TIP3    H175593   5.224   1.019  13.292 -1.1073 -2.1431 -1.1205
18034TIP3    H275594   5.284   1.048  13.156 -1.0438 -1.4196 -0.9441
18035TIP3   OH275595   1.957   3.059   1.634 -0.5382 -0.5030  0.1123
18035TIP3    H175596   1.884   3.005   1.603 -1.0782  0.0825  0.3287
18035TIP3    H275597   1.980   3.021   1.719  0.1025 -1.3266 -0.4216
18036TIP3   OH275598   1.542   5.917  11.877  0.0739  0.0114 -0.4602
18036TIP3    H175599   1.553   6.006  11.843  0.6792 -0.4811 -1.6365
18036TIP3    H275600   1.575   5.861  11.806  1.3644 -1.0806  0.9529
18037TIP3   OH275601   2.124   1.142  14.120 -0.2326 -0.1760 -0.0942
18037TIP3    H175602   2.092   1.060  14.156  0.1483  0.5251  1.9378
18037TIP3    H275603   2.060   1.208  14.146 -0.0550  0.3416 -0.8956
18038TIP3   OH275604   6.171   4.921   2.359  0.1707 -0.4232 -0.0094
18038TIP3    H175605   6.258   4.961   2.366  0.5324 -1.1568 -0.1507
18038TIP3    H275606   6.155   4.884   2.445 -1.2642  2.1398  0.9276
18039TIP3   OH275607   2.290   3.970  14.047 -0.2321 -0.4828  0.7045
18039TIP3    H175608   2.378   3.951  14.080 -0.6972 -0.0913  2.2459
18039TIP3    H275609   2.300   4.051  13.997  0.4004 -0.8476  0.2169
18040TIP3   OH275610   4.110   6.489   3.986 -0.5401 -0.7214 -0.2683
18040TIP3    H175611   4.117   6.584   3.972 -1.0451 -0.3356  1.8245
18040TIP3    H275612   4.016   6.473   3.995 -0.5398 -1.6094 -1.5564
18041TIP3   OH275613   1.214   6.418   5.302 -0.5935 -0.4788  0.6289
18041TIP3    H175614   1.289   6.387   5.252 -0.9014  1.3014 -1.0256
18041TIP3    H275615   1.250   6.488   5.357 -1.3720  2.3193 -2.1519
18042TIP3   OH275616   5.075   4.757  11.678  0.1527 -0.5603  0.0090
18042TIP3    H175617   5.149   4.715  11.634 -0.6620 -1.7048 -0.3164
18042TIP3    H275618   5.112   4.793  11.759  1.4943  0.7893 -1.1414
18043TIP3   OH275619   5.449   6.805   3.277 -0.1231 -0.1693 -0.2688
18043TIP3    H175620   5.475   6.883   3.227  1.7549 -1.1326 -0.8759
18043TIP3    H275621   5.366   6.779   3.239 -0.4718  1.1542 -0.4788
18044TIP3   OH275622   0.384   3.882  17.054 -0.0869 -0.4990  0.1311
18044TIP3    H175623   0.396   3.867  16.961  1.2090 -1.0163  0.3586
18044TIP3    H275624   0.449   3.825  17.096 -0.1386  0.2753  1.3094
18045TIP3   OH275625   5.474   3.971   4.849  0.0320 -0.3368  0.2541
18045TIP3    H175626   5.519   3.948   4.767 -1.1097  0.3028 -0.5862
18045TIP3    H275627   5.455   4.065   4.840 -3.7197 -0.9985 -0.6662
18046TIP3   OH275628   3.295   5.222   2.789 -0.2179 -0.9757 -0.1955
18046TIP3    H175629   3.256   5.155   2.844  0.4901  0.0162  1.5953
18046TIP3    H275630   3.222   5.278   2.764 -1.0082 -2.8745 -2.5756
18047TIP3   OH275631   3.349   1.131   5.131  0.3138 -0.3073  0.1070
18047TIP3    H175632   3.429   1.132   5.184  0.8040  0.4279 -0.6210
18047TIP3    H275633   3.375   1.172   5.048 -0.5810 -0.9216 -0.4919
18048TIP3   OH275634   0.939   3.508  14.586  0.1675  0.1654 -0.0651
18048TIP3    H175635   0.846   3.530  14.590 -0.1136 -1.1739  1.1357
18048TIP3    H275636   0.981   3.573  14.642  0.0453  1.0696 -0.9826
18049TIP3   OH275637   1.474   4.403  14.256 -0.0621  0.5763 -0.4480
18049TIP3    H175638   1.425   4.426  14.335 -0.8381  1.5468 -1.1869
18049TIP3    H275639   1.564   4.428  14.275 -0.1245  0.1999  0.3647
18050TIP3   OH275640   4.485   6.178   3.876 -0.5413 -0.4469 -0.3510
18050TIP3    H175641   4.549   6.150   3.810  0.0096  1.3476 -0.6368
18050TIP3    H275642   4.518   6.143   3.959  1.0011  0.7006 -0.4482
18051TIP3   OH275643   1.835   6.399   1.501  0.0305  0.1195 -0.4029
18051TIP3    H175644   1.866   6.469   1.442  2.6386 -1.3918 -1.0051
18051TIP3    H275645   1.915   6.362   1.538 -1.1103 -3.2095 -0.9004
18052TIP3   OH275646   5.730   5.623   4.161  0.0497 -0.6639 -0.1161
18052TIP3    H175647   5.742   5.634   4.255 -1.0031  2.0911 -0.1814
18052TIP3    H275648   5.646   5.578   4.153 -0.1585 -0.3535  0.2710
18053TIP3   OH275649   1.254   0.347  13.925  0.1049 -0.6334  0.1861
18053TIP3    H175650   1.197   0.420  13.951  0.7780 -0.0214 -0.0144
18053TIP3    H275651   1.252   0.287  13.999  0.8583  0.3921  1.0532
18054TIP3   OH275652   4.748   3.584  15.558 -0.0075  0.5492  0.3430
18054TIP3    H175653   4.752   3.676  15.584  1.2574  0.2601  1.2210
18054TIP3    H275654   4.834   3.565  15.522  0.5922 -0.8933  2.3510
18055TIP3   OH275655   6.047   3.285  12.711  0.3814  0.4937 -0.5710
18055TIP3    H175656   5.990   3.255  12.782  0.2748 -0.9966 -1.2381
18055TIP3    H275657   6.129   3.239  12.724  0.0225 -0.6338 -1.9644
18056TIP3   OH275658   2.347   1.629   5.762 -0.3355  0.4528  0.2748
18056TIP3    H175659   2.358   1.614   5.668 -0.7967  0.4066  0.2286
18056TIP3    H275660   2.429   1.599   5.801 -0.3577 -0.0421 -0.0572
18057TIP3   OH275661   1.429   1.500   0.513  0.2326  0.2568 -0.6994
18057TIP3    H175662   1.348   1.484   0.463 -0.0727 -1.1612  0.1911
18057TIP3    H275663   1.498   1.461   0.459  0.2924  1.1828 -1.3088
18058TIP3   OH275664   1.116   4.772  11.244 -1.1138 -0.3003 -0.6892
18058TIP3    H175665   1.104   4.867  11.235 -0.5166 -0.2726 -1.2290
18058TIP3    H275666   1.068   4.734  11.171 -1.0390 -0.3892 -0.6931
18059TIP3   OH275667   4.264   6.515   4.508 -0.4339  0.2463  0.3997
18059TIP3    H175668   4.269   6.458   4.585  1.0792 -0.7526 -0.3897
18059TIP3    H275669   4.187   6.485   4.460 -0.2378 -0.4505  0.5209
18060TIP3   OH275670   1.345   2.079  13.960 -0.4234  0.2687 -0.1448
18060TIP3    H175671   1.266   2.089  13.907  1.3869 -2.7815 -3.8279
18060TIP3    H275672   1.400   2.154  13.936 -1.9421  2.4222  2.4558
18061TIP3   OH275673   3.894   4.020   3.231  0.1841  0.6309  0.0288
18061TIP3    H175674   3.844   4.037   3.311 -2.5064 -3.5906 -0.4769
18061TIP3    H275675   3.850   4.072   3.164  0.4552  1.7328  0.6819
18062TIP3   OH275676   6.365   3.835  16.996 -0.2585 -0.1895  0.3589
18062TIP3    H175677   6.327   3.758  17.039 -0.5501  0.4115  1.2017
18062TIP3    H275678   6.294   3.899  16.996  0.7853  1.0811  2.2508
18063TIP3   OH275679   6.038   3.372   0.033  0.3226 -0.4722 -0.4751
18063TIP3    H175680   6.117   3.388   0.086  0.4539 -1.5171 -0.3372
18063TIP3    H275681   6.026   3.453  -0.017  0.2543  0.5004  1.0635
18064TIP3   OH275682   3.471   1.701   0.986  0.5408  0.0488 -0.2373
18064TIP3    H175683   3.491   1.614   0.950  0.2955  0.8468 -2.4291
18064TIP3    H275684   3.556   1.737   1.010  0.7514 -0.3638 -0.3396
18065TIP3   OH275685   5.891   3.751   5.998 -0.6829  0.2648 -0.0311
18065TIP3    H175686   5.849   3.770   5.914 -0.7492  0.7701  0.1134
18065TIP3    H275687   5.874   3.828   6.051  1.1560  0.8563 -0.2401
18066TIP3   OH275688   3.395   3.958   3.620 -0.1605  0.3284  0.1556
18066TIP3    H175689   3.302   3.944   3.602 -0.2031  1.0826 -0.2545
18066TIP3    H275690   3.409   4.051   3.603  0.7935  0.1125 -0.3388
18067TIP3   OH275691   3.224   0.961  13.467 -0.1802 -0.7332 -0.2640
18067TIP3    H175692   3.150   0.902  13.450 -1.7958  0.2904  2.5580
18067TIP3    H275693   3.188   1.049  13.452  0.6965 -0.2540  0.3623
18068TIP3   OH275694   1.629   1.518   2.249 -0.2076  0.0879  0.6410
18068TIP3    H175695   1.674   1.455   2.193  0.9331  1.1994  0.2538
18068TIP3    H275696   1.679   1.599   2.239 -2.2209  1.3769  0.2748
18069TIP3   OH275697   1.970   1.747   3.560 -0.3367  0.8024 -0.1535
18069TIP3    H175698   1.984   1.836   3.592 -2.3716  1.4235 -0.8294
18069TIP3    H275699   2.042   1.732   3.498  0.1301  1.8954  0.1015
18070TIP3   OH275700   0.879   1.593   0.306 -0.2442 -0.2505  0.3355
18070TIP3    H175701   0.945   1.524   0.314 -0.4037 -0.3904  0.4828
18070TIP3    H275702   0.838   1.578   0.221 -0.6627 -0.6930  0.6025
18071TIP3   OH275703   4.863   0.614   0.137 -0.9141 -0.0057  0.2030
18071TIP3    H175704   4.796   0.674   0.169 -0.9086 -0.3598  0.9029
18071TIP3    H275705   4.928   0.671   0.095 -1.4967  0.3656 -0.2058
18072TIP3   OH275706   1.649   0.638   4.967 -0.7683  0.1839  0.2222
18072TIP3    H175707   1.569   0.680   4.935 -0.4367  1.5340  1.1119
18072TIP3    H275708   1.639   0.634   5.062  0.3083  0.5679  0.3671
18073TIP3   OH275709   2.651   2.453   0.938 -0.3835 -0.4325 -0.2811
18073TIP3    H175710   2.653   2.538   0.981 -1.4654 -1.2844  1.5907
18073TIP3    H275711   2.739   2.417   0.953  0.0593  0.3083 -1.0306
18074TIP3   OH275712   4.489   3.888  11.045 -0.4762  0.2240  0.5431
18074TIP3    H175713   4.504   3.956  10.980  0.3846 -1.8530 -1.6178
18074TIP3    H275714   4.405   3.850  11.021  0.0078 -0.7874  0.3606
18075TIP3   OH275715   0.833   5.099  17.080  0.7867 -0.0428 -0.5456
18075TIP3    H175716   0.774   5.136  17.014  0.8059  0.9051 -0.0509
18075TIP3    H275717   0.798   5.012  17.098  0.2429  0.0513 -1.1302
18076TIP3   OH275718   2.422   1.703  11.792  0.2814  0.0913  0.1191
18076TIP3    H175719   2.494   1.765  11.781 -0.2693  0.8517  0.7151
18076TIP3    H275720   2.358   1.749  11.845 -0.0753 -1.0565  0.7195
18077TIP3   OH275721   3.623   2.102   1.701  0.2192  0.4834  1.5048
18077TIP3    H175722   3.553   2.165   1.719 -0.8498  0.5992 -2.2754
18077TIP3    H275723   3.592   2.020   1.739 -1.7202  0.6992  0.5062
18078TIP3   OH275724   2.547   4.189   2.601  0.6330 -0.2058 -0.0983
18078TIP3    H175725   2.584   4.234   2.525 -1.4972  1.1621 -0.4044
18078TIP3    H275726   2.473   4.139   2.566 -1.0079  1.2412  1.1690
18079TIP3   OH275727   2.010   1.007  11.714  0.2279  1.0695 -0.2821
18079TIP3    H175728   2.015   1.034  11.623 -0.2367 -1.2467 -1.0845
18079TIP3    H275729   2.100   0.984  11.738  0.2729  1.2137 -0.3147
18080TIP3   OH275730   6.676   0.251  13.230  0.2442  0.2460 -0.1149
18080TIP3    H175731   6.651   0.308  13.157 -1.5793 -0.4967 -0.1384
18080TIP3    H275732   6.706   0.310  13.298 -0.6821  1.1629 -0.4905
18081TIP3   OH275733   0.601   0.585   3.391 -0.4080 -0.1298  0.0042
18081TIP3    H175734   0.689   0.549   3.385 -0.8002 -0.9389 -1.2802
18081TIP3    H275735   0.615   0.679   3.400  0.6336  0.1464 -3.1066
18082TIP3   OH275736   5.878   1.709  12.032  0.2986 -0.1486  0.5216
18082TIP3    H175737   5.868   1.614  12.027 -1.5581  0.0724 -1.9739
18082TIP3    H275738   5.926   1.732  11.953 -1.2070  1.1229 -0.0774
18083TIP3   OH275739   6.002   2.386  10.363  0.1553 -0.1261  0.2380
18083TIP3    H175740   6.054   2.310  10.389 -0.6452 -0.6281  0.4102
18083TIP3    H275741   6.050   2.461  10.398  0.7445 -0.5788  0.4197
18084TIP3   OH275742   5.446   6.640   6.227  0.5355 -0.3056  0.2224
18084TIP3    H175743   5.506   6.582   6.178 -0.1112  0.5514 -1.6897
18084TIP3    H275744   5.481   6.728   6.213 -0.5401  0.0986  0.0092
18085TIP3   OH275745   0.406   5.257   3.695 -0.0172  0.0283  0.3475
18085TIP3    H175746   0.477   5.279   3.634 -0.0933  0.2149  0.3253
18085TIP3    H275747   0.328   5.290   3.652 -0.2312 -0.9329 -0.0325
18086TIP3   OH275748   0.138   2.044  12.151 -0.4413 -0.1746 -0.4145
18086TIP3    H175749   0.228   2.046  12.183 -0.5532  0.4147 -0.1108
18086TIP3    H275750   0.108   1.955  12.166 -0.0535 -0.2529 -0.1009
18087TIP3   OH275751   1.705   2.359   0.390 -0.5504 -0.6050 -0.3684
18087TIP3    H175752   1.660   2.348   0.306 -0.5033 -0.5118 -0.4052
18087TIP3    H275753   1.638   2.395   0.448 -0.2683  0.4384 -0.6746
18088TIP3   OH275754   6.368   4.944   5.327 -0.5083  0.3182 -0.1784
18088TIP3    H175755   6.317   4.966   5.405  2.1832  1.8393  1.3253
18088TIP3    H275756   6.391   4.852   5.338 -2.5005 -0.3111 -0.7343
18089TIP3   OH275757   2.020   5.143   4.227 -0.4067  0.1360 -0.0611
18089TIP3    H175758   1.959   5.093   4.172 -1.1474  1.3126 -0.3562
18089TIP3    H275759   2.056   5.209   4.167  0.1762  0.2616  0.4282
18090TIP3   OH275760   5.712   5.159   1.199  0.0237  0.2505 -0.4723
18090TIP3    H175761   5.782   5.148   1.135  1.1281  2.1931  0.3389
18090TIP3    H275762   5.673   5.243   1.177 -0.1122  0.5578  0.9136
18091TIP3   OH275763   5.610   4.603   2.428 -0.0137  0.3465 -0.0160
18091TIP3    H175764   5.689   4.650   2.403 -0.8308  2.1790  0.6374
18091TIP3    H275765   5.604   4.615   2.522 -2.2212  2.2735 -0.3026
18092TIP3   OH275766   2.393   3.163   1.554 -0.0081 -0.5087  0.1782
18092TIP3    H175767   2.368   3.228   1.621 -5.4231  0.8036 -2.5639
18092TIP3    H275768   2.375   3.079   1.595 -1.4478  0.1727  1.0522
18093TIP3   OH275769   5.930   6.711   5.965  0.2001 -0.2464  0.0240
18093TIP3    H175770   5.904   6.803   5.973  3.2533  0.6405  0.6642
18093TIP3    H275771   5.899   6.686   5.877  1.0108  2.0141 -0.9896
18094TIP3   OH275772   0.240   1.603   0.890 -0.1920 -0.0766  0.3544
18094TIP3    H175773   0.167   1.664   0.902  1.3383  2.1202 -0.6928
18094TIP3    H275774   0.239   1.582   0.797  1.3658  1.2992 -0.0383
18095TIP3   OH275775   1.028   4.345   0.388 -0.4458 -0.6924 -0.2603
18095TIP3    H175776   1.079   4.264   0.395 -0.9746 -1.1134 -1.2114
18095TIP3    H275777   1.055   4.396   0.465 -0.0257 -1.7155  0.2969
18096TIP3   OH275778   3.368   4.246  16.662  0.1356 -0.0280 -0.4620
18096TIP3    H175779   3.289   4.196  16.646  0.5125 -0.8306  0.1015
18096TIP3    H275780   3.341   4.337  16.657 -0.9437 -0.2879  0.2699
18097TIP3   OH275781   4.200   5.791   3.659  0.3924  0.5463  0.7346
18097TIP3    H175782   4.237   5.845   3.589 -0.4751  0.9452  0.5675
18097TIP3    H275783   4.159   5.854   3.719 -2.8253  0.0370 -0.7171
18098TIP3   OH275784   4.742   1.239   2.575 -0.7322  0.2073  0.4122
18098TIP3    H175785   4.782   1.279   2.498 -0.9681  0.4039  0.3916
18098TIP3    H275786   4.663   1.291   2.591 -1.1841 -0.4124  0.2337
18099TIP3   OH275787   4.233   4.960   3.177 -0.5591  0.2057  0.3188
18099TIP3    H175788   4.211   4.938   3.268  0.6816 -3.3937 -0.0776
18099TIP3    H275789   4.322   4.928   3.165 -1.2482 -0.9594 -2.5623
18100TIP3   OH275790   6.801   1.721   3.872 -0.1330  0.1372 -0.3495
18100TIP3    H175791   6.872   1.781   3.850  0.8085 -0.9947 -0.4437
18100TIP3    H275792   6.737   1.732   3.802  0.2864  0.6188 -0.6542
18101TIP3   OH275793   1.257   1.102   1.951  0.7542  0.0387  0.8209
18101TIP3    H175794   1.322   1.056   1.898 -0.5107 -1.4061  0.4736
18101TIP3    H275795   1.308   1.144   2.020  2.2199  0.3249 -0.3806
18102TIP3   OH275796   0.912   5.633   4.465  0.0263 -1.0491 -0.0440
18102TIP3    H175797   0.906   5.577   4.543  1.9660 -0.0218  0.9116
18102TIP3    H275798   0.875   5.716   4.492  0.6099 -0.7185 -0.2472
18103TIP3   OH275799   4.862   0.586  16.967 -0.0005  0.0833  0.2511
18103TIP3    H175800   4.915   0.515  17.004  2.2752  0.5690 -1.7786
18103TIP3    H275801   4.892   0.664  17.014 -1.3168 -0.0167  1.3271
18104TIP3   OH275802   4.278   0.344   1.223  0.2700 -0.2748 -0.3534
18104TIP3    H175803   4.249   0.326   1.312  0.2407 -0.8005 -0.4639
18104TIP3    H275804   4.253   0.435   1.207  0.9503  0.0613  0.4362
18105TIP3   OH275805   1.368   2.395  12.415 -0.6183 -0.1741 -0.4205
18105TIP3    H175806   1.422   2.461  12.371 -0.5578 -0.1356 -0.2891
18105TIP3    H275807   1.394   2.312  12.375  0.6973 -0.3669  0.7308
18106TIP3   OH275808   4.637   2.046  11.142  0.1964 -0.5652 -0.1199
18106TIP3    H175809   4.604   2.134  11.162 -0.2288 -1.2240  2.4169
18106TIP3    H275810   4.727   2.060  11.114 -0.1876  0.7288 -0.8075
18107TIP3   OH275811   6.739   2.829   5.981 -0.1836 -0.5883 -0.4890
18107TIP3    H175812   6.732   2.897   6.049 -0.5411  0.2050 -1.3026
18107TIP3    H275813   6.671   2.765   6.004 -0.3619 -0.2800 -0.1457
18108TIP3   OH275814   2.308   3.390  15.431  0.8985 -0.3015 -0.0638
18108TIP3    H175815   2.391   3.405  15.477  1.2443  1.1779 -1.1172
18108TIP3    H275816   2.324   3.418  15.341 -0.6527 -0.3049 -0.3736
18109TIP3   OH275817   5.774   0.807  12.446 -0.4485  0.4542  0.1100
18109TIP3    H175818   5.722   0.887  12.436  0.6919  1.1464 -0.5030
18109TIP3    H275819   5.710   0.736  12.437 -1.4302  1.2834  0.3340
18110TIP3   OH275820   1.467   2.987   0.101  0.1011 -0.2781  0.5648
18110TIP3    H175821   1.445   2.964   0.191 -0.8469  0.4810  0.5426
18110TIP3    H275822   1.548   2.940   0.083  0.2574 -0.4994  1.7859
18111TIP3   OH275823   2.490   1.133  11.652 -0.3785  0.4995  0.6275
18111TIP3    H175824   2.508   1.101  11.564  2.1943  1.6452  0.6623
18111TIP3    H275825   2.422   1.200  11.639 -1.4013 -0.6309 -0.1796
18112TIP3   OH275826   4.246   2.300  12.540 -0.3190 -0.4368 -0.1783
18112TIP3    H175827   4.297   2.220  12.531  1.4728  0.6623 -0.1953
18112TIP3    H275828   4.201   2.290  12.624  2.4363 -0.1482  1.4529
18113TIP3   OH275829   4.039   0.449   0.374 -0.1059 -0.3789  0.1864
18113TIP3    H175830   4.079   0.363   0.360 -1.0565 -0.6526 -1.0869
18113TIP3    H275831   4.114   0.509   0.384  0.5780 -1.2035  0.1194
18114TIP3   OH275832   4.187   4.046   3.625 -0.4683  0.0296 -0.2671
18114TIP3    H175833   4.229   4.122   3.664 -0.6423  0.1422 -0.2941
18114TIP3    H275834   4.200   3.976   3.688 -1.7580  0.4915  0.5656
18115TIP3   OH275835   5.693   1.120   5.474 -0.0424 -0.0484  0.9706
18115TIP3    H175836   5.661   1.096   5.561  1.2449 -0.7447  1.2750
18115TIP3    H275837   5.785   1.140   5.487 -0.2473  1.6078  0.0568
18116TIP3   OH275838   5.081   3.221  15.425  0.0473 -0.4525 -0.2975
18116TIP3    H175839   5.018   3.250  15.491 -0.9589  3.1163 -2.5129
18116TIP3    H275840   5.167   3.235  15.466 -0.5559 -0.9123  1.1644
18117TIP3   OH275841   1.928   2.491  14.338 -0.0447  0.1258  0.2657
18117TIP3    H175842   1.929   2.458  14.248  0.4027 -0.1442  0.3666
18117TIP3    H275843   1.835   2.492  14.362 -0.1629  0.1525 -0.1800
18118TIP3   OH275844   1.329   3.027   4.189 -0.0037  0.6514 -0.6464
18118TIP3    H175845   1.311   2.972   4.112  1.0090 -0.9217  0.1849
18118TIP3    H275846   1.360   2.965   4.255  0.3840  2.1510  0.6205
18119TIP3   OH275847   5.982   3.148   6.360 -0.1412 -0.6568 -0.0565
18119TIP3    H175848   5.993   3.237   6.391  1.0050 -0.9925  0.5856
18119TIP3    H275849   6.071   3.120   6.336 -0.3667 -1.8365  0.3805
18120TIP3   OH275850   1.912   5.963  11.936 -0.1366 -0.1494 -0.5808
18120TIP3    H175851   2.006   5.979  11.926  0.1123 -1.8568 -1.4101
18120TIP3    H275852   1.899   5.953  12.030  0.9939 -2.2527 -0.5887
18121TIP3   OH275853   5.236   2.482  14.825 -0.7182  0.1362  0.0031
18121TIP3    H175854   5.220   2.574  14.805 -2.6997  0.4086  2.3092
18121TIP3    H275855   5.166   2.435  14.780  0.0959 -0.2522 -0.8969
18122TIP3   OH275856   5.576   1.205  15.546  0.5743 -0.0388 -0.2307
18122TIP3    H175857   5.619   1.250  15.619  0.3428 -0.8624  0.4148
18122TIP3    H275858   5.567   1.273  15.479  0.3268  0.8594  0.6896
18123TIP3   OH275859   6.375   3.077  14.395  0.4832 -0.5554  0.8226
18123TIP3    H175860   6.454   3.032  14.365  1.5160  1.5459  0.1941
18123TIP3    H275861   6.306   3.011  14.389  1.6092 -1.6302 -1.5418
18124TIP3   OH275862   1.665   2.701   4.288  0.4265 -0.1090  0.3214
18124TIP3    H175863   1.616   2.782   4.305  0.0682 -0.3319  0.3604
18124TIP3    H275864   1.726   2.694   4.361 -0.5110 -0.6085  1.0677
18125TIP3   OH275865   2.412   3.007   2.710  0.4400  0.2094  0.0183
18125TIP3    H175866   2.388   3.086   2.663  1.9430 -0.9387 -2.9388
18125TIP3    H275867   2.507   3.000   2.699  0.1815 -2.8420 -1.4296
18126TIP3   OH275868   1.307   3.045   5.099 -0.0134 -0.0036  0.2588
18126TIP3    H175869   1.293   3.026   5.191  0.4752  0.3589  0.4081
18126TIP3    H275870   1.241   3.111   5.077 -0.0817 -0.0382  0.3622
18127TIP3   OH275871   1.034   2.978  14.249  0.2756  0.0327 -0.1091
18127TIP3    H175872   1.019   3.050  14.189  1.3396 -0.0725 -0.5264
18127TIP3    H275873   0.966   2.914  14.228  1.4953 -0.6370 -2.2262
18128TIP3   OH275874   3.384   2.322  16.710  0.5941 -0.6230 -0.5822
18128TIP3    H175875   3.326   2.391  16.678 -0.5414 -1.3397 -0.1381
18128TIP3    H275876   3.399   2.345  16.802  3.1600  0.9672 -1.2936
18129TIP3   OH275877   5.950   6.129   4.722 -0.0878 -0.3167  0.2554
18129TIP3    H175878   6.033   6.172   4.702  0.7490 -2.2297 -0.6004
18129TIP3    H275879   5.919   6.095   4.638 -0.4349 -1.8086  0.9446
18130TIP3   OH275880   2.012   0.396   5.012 -0.0972 -0.5134 -0.0486
18130TIP3    H175881   1.974   0.475   4.975 -1.3219 -1.4613 -0.8724
18130TIP3    H275882   1.966   0.383   5.095 -1.1673 -1.3010 -0.7399
18131TIP3   OH275883   6.810   0.990  16.966 -0.0182 -0.6838 -0.3471
18131TIP3    H175884   6.861   1.062  17.004 -1.9137  1.1098 -1.0121
18131TIP3    H275885   6.735   0.981  17.024 -0.8811 -0.6481 -1.4354
18132TIP3   OH275886   1.093   1.379   0.612  0.1847 -0.1989  0.0675
18132TIP3    H175887   1.086   1.296   0.660 -1.0899  0.6571  1.4571
18132TIP3    H275888   1.003   1.398   0.584  0.7216 -0.0508 -1.6080
18133TIP3   OH275889   5.553   2.648  13.194 -0.0247  0.1153 -0.0176
18133TIP3    H175890   5.460   2.668  13.184 -0.4581 -0.9959  1.4735
18133TIP3    H275891   5.577   2.607  13.111 -0.3080  2.2333 -1.2191
18134TIP3   OH275892   1.851   1.130   3.112 -0.0191 -0.4100 -0.2074
18134TIP3    H175893   1.782   1.196   3.112  0.0732 -0.3062  0.3767
18134TIP3    H275894   1.861   1.105   3.020 -2.0821 -1.7232 -0.1420
18135TIP3   OH275895   1.523   0.830  15.981  0.0026 -0.0899  0.1936
18135TIP3    H175896   1.606   0.783  15.989 -0.5752 -1.6344 -2.0466
18135TIP3    H275897   1.480   0.819  16.066  1.5892 -0.2106  1.0045
18136TIP3   OH275898   2.953   1.408   5.900  0.3101 -0.3524  0.3388
18136TIP3    H175899   2.880   1.471   5.900  0.1573 -0.5027 -0.9946
18136TIP3    H275900   3.007   1.434   5.825  0.4422 -1.5859 -0.0155
18137TIP3   OH275901   1.087   1.064   0.665 -0.2317  0.0703 -0.6797
18137TIP3    H175902   1.074   1.072   0.760 -0.6538 -1.1653 -0.6057
18137TIP3    H275903   1.062   0.973   0.646  0.9898 -0.0555 -1.7929
18138TIP3   OH275904   5.269   0.832   4.335  0.2027  0.0264  0.1128
18138TIP3    H175905   5.244   0.783   4.413  1.9544  0.7903  1.2130
18138TIP3    H275906   5.292   0.765   4.271 -2.7148 -0.6676 -0.3760
18139TIP3   OH275907   1.108   5.634   0.770  0.0140  0.2535  0.5680
18139TIP3    H175908   1.015   5.659   0.775 -0.3271 -0.7200 -0.6374
18139TIP3    H275909   1.112   5.568   0.701  2.3408  3.8099 -3.1517
18140TIP3   OH275910   3.656   3.511  14.598 -0.1284  0.0532  0.1546
18140TIP3    H175911   3.582   3.571  14.610 -0.1057  0.1338 -0.0914
18140TIP3    H275912   3.706   3.517  14.679 -1.4996 -1.5641  1.1752
18141TIP3   OH275913   3.689   6.074   6.282  0.7273  0.0780  0.2107
18141TIP3    H175914   3.757   6.083   6.215  0.0358 -1.0547 -0.6808
18141TIP3    H275915   3.609   6.101   6.239  0.6155  1.7509  1.3642
18142TIP3   OH275916   2.886   3.235  11.413  0.4960 -0.3826 -0.1341
18142TIP3    H175917   2.886   3.143  11.387  0.6142 -0.2236 -0.7151
18142TIP3    H275918   2.938   3.279  11.345  1.0668  0.0048  0.5328
18143TIP3   OH275919   4.624   3.410   4.552 -0.1193 -0.7220  0.3989
18143TIP3    H175920   4.678   3.393   4.475  0.0524  2.4354 -0.2969
18143TIP3    H275921   4.561   3.337   4.553  0.6007 -1.4852 -2.0392
18144TIP3   OH275922   6.299   1.577  16.737 -0.4009  0.0898 -0.3809
18144TIP3    H175923   6.205   1.567  16.725 -0.2118 -1.1871 -0.8588
18144TIP3    H275924   6.323   1.511  16.803  0.1298  0.5761 -0.0655
18145TIP3   OH275925   1.297   0.301  14.823  0.2934 -0.4664  0.2430
18145TIP3    H175926   1.326   0.283  14.734 -0.9282  1.2316 -0.5414
18145TIP3    H275927   1.202   0.312  14.816  0.2017 -0.0655  1.7144
18146TIP3   OH275928   0.031   1.414  12.300 -0.0960 -0.6415  0.2641
18146TIP3    H175929   0.113   1.378  12.333  0.4214 -0.8479 -1.2098
18146TIP3    H275930  -0.000   1.470  12.372 -0.0709 -2.6262  1.9330
18147TIP3   OH275931   3.997   0.614   1.127  0.1033  0.3615  0.2724
18147TIP3    H175932   3.959   0.644   1.210 -0.8077 -0.5141  0.1809
18147TIP3    H275933   3.943   0.540   1.101  0.2739  0.7354 -1.2023
18148TIP3   OH275934   4.238   3.939   4.679  0.1830  0.1666  0.4918
18148TIP3    H175935   4.214   3.846   4.679  1.2628 -0.1332  0.7133
18148TIP3    H275936   4.217   3.969   4.591 -1.0750 -0.0343  0.7075
18149TIP3   OH275937   5.863   5.787   2.257 -0.1084  0.2392  0.0521
18149TIP3    H175938   5.829   5.800   2.168  1.0139  0.4307 -0.3612
18149TIP3    H275939   5.832   5.700   2.282  0.1260 -0.0975 -0.7934
18150TIP3   OH275940   4.861   0.812  13.812 -0.4478  0.0831 -0.1506
18150TIP3    H175941   4.835   0.720  13.817  0.7580 -0.2263  1.6631
18150TIP3    H275942   4.957   0.810  13.819 -0.4642  1.4914  1.2349
18151TIP3   OH275943   5.732   6.258   5.751 -0.3099  0.0080  0.8098
18151TIP3    H175944   5.754   6.171   5.716 -0.3271  0.5142 -0.5284
18151TIP3    H275945   5.714   6.311   5.673  0.4839  1.4361  1.5524
18152TIP3   OH275946   5.023   4.403   0.955  0.2265 -0.5768  0.4096
18152TIP3    H175947   5.053   4.312   0.956  0.5204 -0.4831  1.1722
18152TIP3    H275948   5.102   4.454   0.940 -0.0512 -0.4724 -0.7774
18153TIP3   OH275949   5.530   6.047   2.306  0.5232  0.0834 -0.1280
18153TIP3    H175950   5.550   5.998   2.386 -1.9501  0.3834  0.7697
18153TIP3    H275951   5.470   6.116   2.335  1.7476  1.9889 -1.8129
18154TIP3   OH275952   2.425   4.168  12.804 -0.4432 -0.2305  0.1894
18154TIP3    H175953   2.466   4.240  12.852 -0.2130 -1.0968  1.3254
18154TIP3    H275954   2.339   4.202  12.779 -0.1023  0.6497  0.1646
18155TIP3   OH275955   1.049   4.739   4.305 -0.2677  0.1352 -0.3539
18155TIP3    H175956   0.983   4.774   4.366  0.1430  1.0601 -0.4259
18155TIP3    H275957   1.035   4.645   4.307 -0.9455  0.2366  0.3928
18156TIP3   OH275958   0.046   3.477  11.875  0.2736  0.0950  0.4780
18156TIP3    H175959   0.096   3.457  11.796 -0.8755 -0.4500 -0.1341
18156TIP3    H275960   0.086   3.423  11.943  0.8996  0.1224  0.1416
18157TIP3   OH275961   1.415   0.288  16.833  0.1316  0.0778 -0.0696
18157TIP3    H175962   1.418   0.206  16.882 -1.5639 -0.9047 -1.4646
18157TIP3    H275963   1.334   0.330  16.861 -0.8946 -0.5234 -1.9399
18158TIP3   OH275964   6.725   6.698  10.504  0.0876 -0.2341 -0.0234
18158TIP3    H175965   6.662   6.747  10.556 -0.4344 -1.7115  0.7921
18158TIP3    H275966   6.674   6.659  10.433  0.5631  0.6802 -0.8885
18159TIP3   OH275967   0.721   3.481  11.812  0.0639  0.3369  0.2569
18159TIP3    H175968   0.713   3.450  11.722  0.9645  2.0669 -0.4782
18159TIP3    H275969   0.693   3.408  11.866 -2.1477 -0.1776 -1.4711
18160TIP3   OH275970   5.388   1.831  13.727 -0.1162  0.3888  0.4511
18160TIP3    H175971   5.338   1.812  13.648  0.0554  1.4836  0.0574
18160TIP3    H275972   5.389   1.927  13.732  2.4088  0.4524  0.1071
18161TIP3   OH275973   4.892   1.707  15.394 -0.3073 -0.7399  0.1294
18161TIP3    H175974   4.928   1.640  15.336  0.5469 -0.4022  0.2547
18161TIP3    H275975   4.868   1.660  15.474 -1.4071 -1.1930 -0.4355
18162TIP3   OH275976   3.024   6.773  13.574  0.0563 -0.0526  0.2288
18162TIP3    H175977   3.062   6.858  13.600 -3.3118  1.5153  0.6135
18162TIP3    H275978   3.019   6.724  13.656 -0.4478  0.5027  0.5453
18163TIP3   OH275979   5.680   1.326  15.753  0.0568  0.5433  0.3192
18163TIP3    H175980   5.625   1.404  15.760  1.5129  1.6024  0.4255
18163TIP3    H275981   5.719   1.316  15.840  1.6457  1.0985 -0.2764
18164TIP3   OH275982   3.317   0.603  11.039 -0.4162 -0.2908  0.3865
18164TIP3    H175983   3.279   0.584  10.953  0.5626 -2.3208  0.3538
18164TIP3    H275984   3.370   0.682  11.024 -0.0508 -0.7562 -0.9450
18165TIP3   OH275985   1.010   6.818   6.018 -0.6002 -0.0728  0.7016
18165TIP3    H175986   0.973   6.787   5.936 -0.3861  0.9581  0.1960
18165TIP3    H275987   1.067   6.891   5.993  1.7780 -1.5420  1.4416
18166TIP3   OH275988   1.493   4.433   1.208  0.1244  0.5010 -0.3741
18166TIP3    H175989   1.457   4.350   1.239 -0.6833  0.7715 -0.5548
18166TIP3    H275990   1.478   4.430   1.113 -0.9913  1.3535 -0.2373
18167TIP3   OH275991   6.361   2.831   4.507  0.2604  0.1400  0.7655
18167TIP3    H175992   6.446   2.786   4.517 -1.1736 -2.9075  0.4085
18167TIP3    H275993   6.355   2.850   4.414  0.9337  1.2559  0.9361
18168TIP3   OH275994   6.656   1.406  13.948  0.0932  0.1511  0.1742
18168TIP3    H175995   6.621   1.374  14.031 -0.4023 -0.1909 -0.1619
18168TIP3    H275996   6.746   1.371  13.945  0.2924  0.5892  0.7901
18169TIP3   OH275997   4.611   0.898  16.354 -0.0720 -0.2904  0.1250
18169TIP3    H175998   4.589   0.883  16.446  0.2059  1.2626  0.4824
18169TIP3    H275999   4.693   0.948  16.357 -0.3476  0.2604 -0.9314
18170TIP3   OH276000   3.434   6.061   5.937  0.1088 -0.3738 -0.0729
18170TIP3    H176001   3.459   6.116   6.011 -2.3764  0.2407  0.3962
18170TIP3    H276002   3.366   6.003   5.972  0.0161 -1.1800 -1.5003
18171TIP3   OH276003   5.940   3.720   2.465 -0.4353  0.4353  0.2991
18171TIP3    H176004   5.910   3.768   2.543  0.0751  1.6917 -0.2513
18171TIP3    H276005   5.939   3.785   2.395 -0.3909 -0.5533 -0.6331
18172TIP3   OH276006   0.372   4.098  13.705 -0.1594 -0.1141 -0.1337
18172TIP3    H176007   0.349   4.101  13.613 -0.2666  2.2542 -0.1007
18172TIP3    H276008   0.293   4.129  13.750  0.9543  2.0131  0.4514
18173TIP3   OH276009   2.322   4.030  10.899 -0.2356  0.1448  0.0768
18173TIP3    H176010   2.274   3.949  10.881  0.3765 -0.1033 -0.4890
18173TIP3    H276011   2.313   4.081  10.819  1.3157 -0.3583 -0.4569
18174TIP3   OH276012   1.378   2.952  11.613  0.5583  0.2233  0.0575
18174TIP3    H176013   1.456   2.978  11.564  2.1935 -0.6230  2.0279
18174TIP3    H276014   1.405   2.874  11.662 -1.6569 -0.3058  0.5555
18175TIP3   OH276015   4.050   4.041   2.759  0.1820 -0.1634 -0.6274
18175TIP3    H176016   4.104   3.964   2.743  2.1906  0.5544  1.8932
18175TIP3    H276017   3.975   4.008   2.809  0.5564 -0.6158 -0.3567
18176TIP3   OH276018   2.454   3.464  13.611  0.1727 -0.0942 -0.4374
18176TIP3    H176019   2.472   3.494  13.700 -0.6489 -2.5851  0.6483
18176TIP3    H276020   2.531   3.411  13.587  0.2139  0.2422 -1.0952
18177TIP3   OH276021   4.858   1.889   6.393 -0.2542  0.4178  0.5765
18177TIP3    H176022   4.819   1.937   6.320  1.9563  1.8029  0.2186
18177TIP3    H276023   4.950   1.913   6.391  0.8036 -3.0774  1.0531
18178TIP3   OH276024   2.065   2.695   5.720 -0.1241  0.5031 -0.2995
18178TIP3    H176025   2.119   2.626   5.683  1.3736  1.2814  0.3499
18178TIP3    H276026   2.087   2.773   5.668 -0.3184  0.9148  0.2205
18179TIP3   OH276027   4.653   4.189   5.945 -0.4455  0.0233  0.2527
18179TIP3    H176028   4.670   4.096   5.956  0.9859  0.0377 -1.3499
18179TIP3    H276029   4.641   4.222   6.034  0.2662 -1.4618  0.9427
18180TIP3   OH276030   3.215   3.066   2.128  0.1225  0.3589  0.4001
18180TIP3    H176031   3.245   3.121   2.201  0.4231 -0.2107  0.7088
18180TIP3    H276032   3.290   3.060   2.070 -0.4236  1.6555 -0.4883
18181TIP3   OH276033   1.838   1.279  12.654  0.4692 -0.1081 -0.0073
18181TIP3    H176034   1.846   1.240  12.741  1.0705 -1.5270 -0.6572
18181TIP3    H276035   1.749   1.314  12.651 -0.8722 -3.2045 -0.0244
18182TIP3   OH276036   4.685   0.394  13.562 -0.0451  0.3213 -0.4637
18182TIP3    H176037   4.663   0.406  13.654 -1.6878 -4.0083 -0.0854
18182TIP3    H276038   4.613   0.435  13.514 -0.9080 -0.2534  0.3253
18183TIP3   OH276039   0.235   4.904   5.022 -0.0440 -0.2399  0.9322
18183TIP3    H176040   0.329   4.889   5.009 -0.3818 -1.1481 -0.7676
18183TIP3    H276041   0.225   4.908   5.117  1.8167  0.7177  1.1485
18184TIP3   OH276042   6.754   5.501   5.801 -0.1641 -0.1781  0.2197
18184TIP3    H176043   6.831   5.469   5.849 -0.3778 -0.5660  0.3115
18184TIP3    H276044   6.762   5.596   5.804  0.6902 -0.2212 -0.3933
18185TIP3   OH276045   5.133   0.501  12.996 -0.0135 -0.2861 -0.2905
18185TIP3    H176046   5.143   0.406  12.994  0.4113 -0.2858  1.1822
18185TIP3    H276047   5.222   0.535  13.004 -0.2732  0.1463  1.0145
18186TIP3   OH276048   2.537   6.174  11.888  0.7449 -0.3786  1.0308
18186TIP3    H176049   2.535   6.086  11.926 -0.4989 -0.4088  0.9553
18186TIP3    H276050   2.473   6.170  11.816  0.0782  0.7952  1.5245
18187TIP3   OH276051   5.178   1.521   2.506 -0.0112 -0.9320 -0.1418
18187TIP3    H176052   5.131   1.587   2.455  0.5627 -1.0436 -0.8253
18187TIP3    H276053   5.151   1.537   2.597  1.2282  1.1798 -0.0888
18188TIP3   OH276054   5.279   6.703   3.810  0.2298 -0.3196  0.8509
18188TIP3    H176055   5.283   6.666   3.722  2.3543 -0.4029  0.9396
18188TIP3    H276056   5.342   6.775   3.808  0.7923 -0.7392  2.4926
18189TIP3   OH276057   0.145   2.202  15.556  0.4622 -0.1843 -0.0691
18189TIP3    H176058   0.184   2.119  15.582  1.7919  0.7510  1.0442
18189TIP3    H276059   0.219   2.262  15.547 -0.3615  0.6038 -2.0255
18190TIP3   OH276060   6.036   6.340   6.145 -0.2364  0.0260 -0.0437
18190TIP3    H176061   6.000   6.344   6.234 -2.0308  0.2065 -0.7239
18190TIP3    H276062   6.066   6.429   6.127  1.8958 -0.4287  1.0228
18191TIP3   OH276063   4.882   6.621  12.283 -0.0300  0.2334 -0.0414
18191TIP3    H176064   4.788   6.616  12.265 -0.0214  0.5178 -0.1752
18191TIP3    H276065   4.909   6.706  12.247  0.2948  0.1161 -0.0825
18192TIP3   OH276066   1.381   1.548   4.779 -0.2199 -0.1603  0.6073
18192TIP3    H176067   1.435   1.480   4.740  2.1291  1.9065  0.0264
18192TIP3    H276068   1.346   1.597   4.704  1.4165  1.6595  0.9492
18193TIP3   OH276069   1.468   0.100  14.323  0.3563  0.0463  0.0129
18193TIP3    H176070   1.408   0.133  14.255 -0.8601  2.8126  2.2177
18193TIP3    H276071   1.417   0.034  14.370 -0.4959  1.2925  0.9135
18194TIP3   OH276072   4.425   0.659  12.618 -0.1197  0.1030 -0.4558
18194TIP3    H176073   4.358   0.623  12.677 -3.0305  0.7940 -3.0935
18194TIP3    H276074   4.426   0.752  12.636  0.2569  0.0787 -0.3380
18195TIP3   OH276075   0.135   5.366   2.974  0.0767 -0.3144 -0.0733
18195TIP3    H176076   0.132   5.309   2.897  1.1016  0.0128 -0.3774
18195TIP3    H276077   0.097   5.314   3.044 -1.3085 -0.4579 -0.8854
18196TIP3   OH276078   2.862   0.125  16.755 -0.0459  0.1330 -0.3434
18196TIP3    H176079   2.777   0.093  16.721 -0.2228  0.7698 -0.5034
18196TIP3    H276080   2.920   0.049  16.747 -0.7489 -0.4967  0.3237
18197TIP3   OH276081   2.408   5.260  11.241 -0.2373 -0.0791  0.1649
18197TIP3    H176082   2.490   5.243  11.288 -0.3059  0.3604  0.4510
18197TIP3    H276083   2.424   5.343  11.196 -0.5895  0.1006  0.3680
18198TIP3   OH276084   1.538   2.911   4.669 -0.3135 -0.0752 -0.2389
18198TIP3    H176085   1.612   2.873   4.716 -0.5553  0.7589  0.8600
18198TIP3    H276086   1.579   2.965   4.601  0.0827  0.0361  0.0803
18199TIP3   OH276087   0.104   3.542  16.850  0.1607  0.8706  0.0793
18199TIP3    H176088   0.104   3.601  16.926 -1.1584  0.9280  0.0519
18199TIP3    H276089   0.123   3.599  16.775 -0.0249  1.0752  0.1862
18200TIP3   OH276090   6.490   2.810  16.968 -0.6310  0.3553  0.9262
18200TIP3    H176091   6.432   2.877  16.932  0.5040 -0.4042 -2.6202
18200TIP3    H276092   6.575   2.827  16.930 -0.4311 -3.4215 -0.7749
18201TIP3   OH276093   6.278   5.715  16.295 -0.6950 -0.6704  0.3452
18201TIP3    H176094   6.262   5.753  16.382 -0.2231  2.2056 -0.7203
18201TIP3    H276095   6.218   5.641  16.290 -1.7817 -0.0269  2.5589
18202TIP3   OH276096   5.650   4.893  12.275 -0.1386 -0.6092 -0.0251
18202TIP3    H176097   5.580   4.924  12.332  1.2421 -0.4854  1.6721
18202TIP3    H276098   5.630   4.801  12.261 -0.6660 -0.5661  0.3991
18203TIP3   OH276099   3.665   3.006  16.244  0.3795  0.2077 -0.1198
18203TIP3    H176100   3.724   2.999  16.168  1.1254  0.5552  0.4139
18203TIP3    H276101   3.700   3.080  16.294  0.6018 -0.7427  1.1637
18204TIP3   OH276102   0.713   1.063  15.340  0.1063 -0.4595  0.0650
18204TIP3    H176103   0.688   0.971  15.333 -1.0043 -0.1491 -0.2226
18204TIP3    H276104   0.767   1.080  15.263  0.4244 -0.8946  0.1881
18205TIP3   OH276105   6.232   4.014   6.133  0.0115  0.1727 -0.5361
18205TIP3    H176106   6.156   3.979   6.180 -1.1442  1.2123 -1.5731
18205TIP3    H276107   6.304   3.957   6.159 -0.8779 -0.1854  1.3317
18206TIP3   OH276108   2.877   5.632   5.462  0.3536 -0.2466  0.4817
18206TIP3    H176109   2.789   5.668   5.472  1.0593  1.8615 -0.2646
18206TIP3    H276110   2.864   5.550   5.415 -1.1666  0.3683 -0.2448
18207TIP3   OH276111   2.873   4.434  12.984  0.0056  0.1373  0.7198
18207TIP3    H176112   2.785   4.473  12.984  0.2151  1.0159 -2.8749
18207TIP3    H276113   2.930   4.505  12.953  1.4290 -1.3123 -0.1036
18208TIP3   OH276114   3.494   3.578  10.694  0.1673  0.0702 -0.1271
18208TIP3    H176115   3.494   3.660  10.743 -1.2229  0.0791 -0.0884
18208TIP3    H276116   3.420   3.529  10.730  0.7463 -1.0476 -0.4110
18209TIP3   OH276117   4.719   5.831   3.435  0.3616 -0.0813  0.4119
18209TIP3    H176118   4.755   5.885   3.505 -0.8218 -0.6690  1.5188
18209TIP3    H276119   4.790   5.769   3.414  1.1000  0.7733  0.3306
18210TIP3   OH276120   0.692   2.287   1.036 -0.4817  0.1400  0.3120
18210TIP3    H176121   0.762   2.222   1.047 -0.7397 -0.0960  0.5855
18210TIP3    H276122   0.703   2.348   1.109  0.3024  0.9177 -0.4422
18211TIP3   OH276123   1.260   2.417  15.398 -0.0610 -0.1217  0.1646
18211TIP3    H176124   1.184   2.359  15.395 -0.0549 -0.1006 -0.9475
18211TIP3    H276125   1.308   2.391  15.476 -0.8486 -0.5977  0.4953
18212TIP3   OH276126   1.061   0.368  16.138 -0.0578  0.3536  0.4452
18212TIP3    H176127   1.006   0.441  16.109  0.9032  1.2891  0.8757
18212TIP3    H276128   1.019   0.336  16.217 -0.3088  0.6702  0.4405
18213TIP3   OH276129   4.930   2.410   1.484  0.5417 -0.3302  0.1549
18213TIP3    H176130   4.915   2.444   1.572  0.4716  0.4867 -0.1646
18213TIP3    H276131   4.888   2.474   1.426  1.8966 -0.0565 -0.5493
18214TIP3   OH276132   4.143   4.156   3.380 -0.1040 -0.0044  0.0684
18214TIP3    H176133   4.159   4.129   3.470 -0.3183 -1.2440 -0.2434
18214TIP3    H276134   4.049   4.140   3.367 -1.2185  4.3982  0.9750
18215TIP3   OH276135   3.829   4.341   5.559 -0.0466 -0.3386 -0.0027
18215TIP3    H176136   3.888   4.293   5.501 -0.3348  2.7478 -3.2105
18215TIP3    H276137   3.838   4.432   5.532 -2.3965  0.9733  3.0098
18216TIP3   OH276138   6.029   5.802   1.727 -0.3985 -0.4598 -0.5618
18216TIP3    H176139   6.028   5.724   1.671 -2.0408 -1.7209  1.0898
18216TIP3    H276140   6.069   5.772   1.808  0.6212  0.9473 -0.5217
18217TIP3   OH276141   3.083   3.394  14.239 -0.1785 -1.0687  0.3626
18217TIP3    H176142   3.035   3.460  14.288 -0.8206 -2.2808  1.4393
18217TIP3    H276143   3.025   3.318  14.238 -0.0373 -1.2357 -1.9984
18218TIP3   OH276144   3.135   5.708  12.779  0.1441  0.2387  0.4715
18218TIP3    H176145   3.055   5.673  12.741  0.2644  0.0722  0.3752
18218TIP3    H276146   3.104   5.779  12.837 -0.2448 -1.1346  2.0160
18219TIP3   OH276147   5.742   3.120   6.604 -0.0997 -0.1115 -0.0753
18219TIP3    H176148   5.689   3.058   6.554 -0.6627  0.0184  0.3478
18219TIP3    H276149   5.824   3.074   6.620 -1.3700 -1.7322  2.3106
18220TIP3   OH276150   2.133   1.608   2.375  0.1159 -0.4348  0.0739
18220TIP3    H176151   2.212   1.568   2.411 -1.2528 -1.7252  1.8191
18220TIP3    H276152   2.082   1.534   2.342 -0.6511  0.3195 -0.4819
18221TIP3   OH276153   4.818   5.382   2.160 -0.0468 -0.1689 -0.5871
18221TIP3    H176154   4.817   5.351   2.069  0.5324 -1.2427 -0.2518
18221TIP3    H276155   4.830   5.302   2.212 -1.1250  0.3332  0.4829
18222TIP3   OH276156   5.585   6.113   2.037  0.5436 -0.2918 -0.0904
18222TIP3    H176157   5.648   6.049   2.006  0.0588 -0.2109 -1.2946
18222TIP3    H276158   5.581   6.100   2.132  1.7603 -0.8269 -0.1045
18223TIP3   OH276159   3.528   5.692  16.194  0.2642 -0.1989  0.2596
18223TIP3    H176160   3.605   5.640  16.170 -0.0801  0.2040 -1.9650
18223TIP3    H276161   3.563   5.778  16.217  0.5803 -0.4357  0.6794
18224TIP3   OH276162   4.337   3.059   4.953  0.6391  0.2537 -0.4026
18224TIP3    H176163   4.357   3.125   4.886  2.9768 -1.9901 -2.0925
18224TIP3    H276164   4.421   3.040   4.994 -0.4105  0.0454  1.8352
18225TIP3   OH276165   2.302   5.212  15.658  0.2548  0.6923 -0.4313
18225TIP3    H176166   2.379   5.167  15.622 -0.8819  1.4155 -4.1618
18225TIP3    H276167   2.332   5.300  15.677  0.3645  1.0838 -2.2300
18226TIP3   OH276168   0.873   0.421  10.950  0.2529 -0.4684 -0.2487
18226TIP3    H176169   0.812   0.349  10.934  0.6313 -1.1958  1.3086
18226TIP3    H276170   0.830   0.473  11.018  1.0311 -0.6118  0.3741
18227TIP3   OH276171   6.129   2.720   3.441  0.0012 -0.4439  0.1876
18227TIP3    H176172   6.084   2.636   3.431 -2.0792  0.5488  0.6896
18227TIP3    H276173   6.131   2.756   3.352  0.3827 -0.7367  0.0696
18228TIP3   OH276174   4.811   2.335  14.482  0.3024 -0.0770 -0.0171
18228TIP3    H176175   4.857   2.385  14.415  0.9615 -1.9116 -1.0082
18228TIP3    H276176   4.733   2.387  14.502  0.8634  1.2371 -1.1149
18229TIP3   OH276177   0.103   3.446   2.528 -0.4698  0.1877  0.8015
18229TIP3    H176178   0.047   3.372   2.508  0.7173 -0.2579 -1.1880
18229TIP3    H276179   0.051   3.523   2.504 -0.9879 -0.1009  0.9928
18230TIP3   OH276180   1.335   3.352   6.228 -0.5249 -0.3204 -0.2745
18230TIP3    H176181   1.369   3.435   6.198 -0.8876 -0.9136 -2.4767
18230TIP3    H276182   1.404   3.288   6.209 -1.1358 -0.8617 -0.7221
18231TIP3   OH276183   3.622   1.683   4.845 -0.7563  0.5458  0.2580
18231TIP3    H176184   3.635   1.719   4.757  2.1973 -1.8248 -0.4556
18231TIP3    H276185   3.547   1.626   4.836  0.2528 -0.6407 -1.1550
18232TIP3   OH276186   6.569   6.621   4.037 -0.1274  0.0048  0.1335
18232TIP3    H176187   6.526   6.609   4.122  3.7144 -1.1779  2.1790
18232TIP3    H276188   6.661   6.636   4.059  0.9587  0.3212 -3.8641
18233TIP3   OH276189   2.344   4.772   0.853  0.0223  0.0479  0.0186
18233TIP3    H176190   2.263   4.744   0.894 -0.2065  0.8514  0.1294
18233TIP3    H276191   2.317   4.826   0.779  0.4528  0.2005 -0.0330
18234TIP3   OH276192   1.591   1.139   0.044  0.2661  0.2714  0.2313
18234TIP3    H176193   1.543   1.207  -0.003 -1.1049 -0.9794 -0.2682
18234TIP3    H276194   1.683   1.165   0.037 -0.1448  1.5625 -0.7572
18235TIP3   OH276195   3.589   4.779  16.860 -0.2934  0.0165 -0.2079
18235TIP3    H176196   3.638   4.818  16.788  1.6606  1.2806  1.6769
18235TIP3    H276197   3.596   4.685  16.846 -1.3181  0.1985 -2.4438
18236TIP3   OH276198   3.097   4.257  11.947  0.4811 -0.0171  0.1090
18236TIP3    H176199   3.061   4.345  11.960 -0.5188 -0.6937  2.3877
18236TIP3    H276200   3.191   4.272  11.937  0.1499  1.4183 -1.3131
18237TIP3   OH276201   2.152   5.793   3.300  0.4312  0.3990  0.5837
18237TIP3    H176202   2.064   5.770   3.330  0.3147  0.3108  0.1788
18237TIP3    H276203   2.137   5.856   3.229  0.6885  0.3221  0.4609
18238TIP3   OH276204   5.746   1.704  15.503  0.1522 -0.2270 -0.1706
18238TIP3    H176205   5.776   1.774  15.445  1.9373 -1.2442 -0.5463
18238TIP3    H276206   5.660   1.679  15.468  0.0893  0.8543 -0.8369
18239TIP3   OH276207   1.903   0.642  14.378 -0.4053 -0.2524 -0.5112
18239TIP3    H176208   1.947   0.573  14.427  2.5133  1.6257 -0.2607
18239TIP3    H276209   1.843   0.596  14.319  0.3897 -2.8726  0.6212
18240TIP3   OH276210   3.665   4.665  15.848  0.2158  0.1165 -0.0339
18240TIP3    H176211   3.658   4.685  15.754  0.0152 -1.7715 -0.4637
18240TIP3    H276212   3.733   4.597  15.853 -0.6286 -0.6916  1.0280
18241TIP3   OH276213   0.357   1.825   5.998  0.6747 -0.0565  0.2688
18241TIP3    H176214   0.300   1.756   6.030 -0.4615  1.2590  1.2107
18241TIP3    H276215   0.379   1.877   6.075  0.3829  1.4088 -0.5750
18242TIP3   OH276216   3.025   5.963   4.126 -0.7435 -0.0410 -0.2381
18242TIP3    H176217   3.069   6.046   4.110  1.8308 -1.3623 -0.4761
18242TIP3    H276218   3.042   5.911   4.048 -1.1869 -1.2385  0.4399
18243TIP3   OH276219   6.130   4.442  13.434 -0.2939  0.0182 -0.1605
18243TIP3    H176220   6.212   4.483  13.459 -0.7829  1.7717 -1.2384
18243TIP3    H276221   6.154   4.382  13.363 -0.0607  1.5582 -1.4578
18244TIP3   OH276222   3.390   6.594  14.487 -0.1382 -0.7178 -0.1376
18244TIP3    H176223   3.421   6.538  14.557  3.4428  0.7024 -0.3346
18244TIP3    H276224   3.467   6.607  14.431 -2.1010  0.4292 -2.8193
18245TIP3   OH276225   1.291   3.982  13.751 -0.3558 -0.5974  0.2689
18245TIP3    H176226   1.303   3.892  13.781 -2.7142 -1.4546 -1.1078
18245TIP3    H276227   1.243   4.025  13.822  0.9122 -0.3316  0.9970
18246TIP3   OH276228   3.708   2.860   1.463 -0.2200  0.0462 -0.0192
18246TIP3    H176229   3.625   2.817   1.484 -1.1196  0.4543 -2.4021
18246TIP3    H276230   3.775   2.802   1.498 -1.4249  0.5298  3.5038
18247TIP3   OH276231   3.391   0.321   3.433 -0.4722  0.2937  0.2990
18247TIP3    H176232   3.459   0.293   3.495 -0.0903  0.9137  0.1703
18247TIP3    H276233   3.407   0.415   3.420 -0.5311  0.1741 -0.7546
18248TIP3   OH276234   4.185   0.652  10.697  0.0550 -0.1967  0.1634
18248TIP3    H176235   4.262   0.650  10.640  0.6482  1.5445  0.8202
18248TIP3    H276236   4.135   0.574  10.673  2.1244 -1.5253 -0.1169
18249TIP3   OH276237   5.786   0.729  16.616 -0.9215 -0.5818 -0.0282
18249TIP3    H176238   5.755   0.639  16.627  0.1930 -0.7941  1.8943
18249TIP3    H276239   5.880   0.720  16.603 -1.0379  0.2454 -1.6394
18250TIP3   OH276240   1.900   6.358  14.341 -0.0021  0.2624 -0.4773
18250TIP3    H176241   1.918   6.383  14.431 -0.4038 -1.1199  0.0117
18250TIP3    H276242   1.933   6.269  14.334 -2.4908 -0.7032 -0.8443
18251TIP3   OH276243   2.624   0.100   1.945 -0.1558 -0.0951  0.0008
18251TIP3    H176244   2.655   0.138   1.863 -1.5279 -1.3840 -1.1740
18251TIP3    H276245   2.562   0.165   1.979  0.1556  0.2897 -0.1519
18252TIP3   OH276246   1.861   4.255   5.291  0.0669 -0.5014 -0.0450
18252TIP3    H176247   1.784   4.280   5.342  0.3527 -2.4875  1.4696
18252TIP3    H276248   1.923   4.327   5.305 -1.7546  1.6185 -2.0757
18253TIP3   OH276249   2.059   4.179   3.386 -0.4839 -0.1315  0.3183
18253TIP3    H176250   2.064   4.188   3.291 -1.8796  0.3936  0.2683
18253TIP3    H276251   1.989   4.116   3.401 -0.2260 -0.2660  0.9939
18254TIP3   OH276252   0.754   5.819   2.688  0.5504  0.6890  0.5749
18254TIP3    H176253   0.767   5.761   2.763  0.2146  1.6121  1.3707
18254TIP3    H276254   0.660   5.834   2.686  0.4939  0.2466 -0.3737
18255TIP3   OH276255   4.091   2.029  12.118  0.2654 -0.1793  0.1076
18255TIP3    H176256   4.107   1.987  12.202  0.2861 -0.1943  0.0964
18255TIP3    H276257   3.996   2.035  12.112  0.2774  0.3130  0.3681
18256TIP3   OH276258   5.909   1.253  12.524 -0.4795  0.0067  0.0816
18256TIP3    H176259   5.968   1.324  12.499 -2.1317  1.5071  0.2581
18256TIP3    H276260   5.947   1.175  12.484  0.7301  1.1741 -1.1493
18257TIP3   OH276261   3.697   6.151  12.625  0.0685  0.1618 -0.2202
18257TIP3    H176262   3.606   6.127  12.643  0.3672 -1.1993 -0.4221
18257TIP3    H276263   3.694   6.191  12.538 -0.3362  0.2293 -0.1809
18258TIP3   OH276264   2.312   3.177  13.750 -0.4492 -0.5426 -0.1771
18258TIP3    H176265   2.366   3.255  13.764 -0.5465 -0.2243 -1.3980
18258TIP3    H276266   2.340   3.116  13.818  2.0387 -0.6989 -1.2175
18259TIP3   OH276267   5.593   0.697  15.131 -0.7900  0.2526 -0.2583
18259TIP3    H176268   5.502   0.691  15.101 -0.5799  0.3290 -0.9265
18259TIP3    H276269   5.621   0.606  15.140 -0.6467  0.2319 -0.9335
18260TIP3   OH276270   2.928   3.799   3.707 -0.0296 -0.0083  0.3845
18260TIP3    H176271   2.950   3.706   3.705  0.1446  0.0121  1.0719
18260TIP3    H276272   2.862   3.807   3.776 -0.4650  0.2917 -0.0629
18261TIP3   OH276273   2.373   1.541   2.455 -0.4765  0.1674 -0.1414
18261TIP3    H176274   2.420   1.619   2.427  0.7052 -1.1769 -2.1346
18261TIP3    H276275   2.442   1.479   2.477 -1.3254 -1.1673 -1.1211
18262TIP3   OH276276   5.795   4.521   6.505  0.0348  0.1301 -0.4936
18262TIP3    H176277   5.722   4.462   6.482  0.8498 -0.7573 -0.8606
18262TIP3    H276278   5.873   4.466   6.500  0.9579  1.4778 -1.9328
18263TIP3   OH276279   2.478   1.967   5.600  0.1355 -0.6009  0.0408
18263TIP3    H176280   2.532   2.030   5.648 -0.8186  0.4812 -0.2535
18263TIP3    H276281   2.406   1.946   5.660  0.2929 -1.1972  0.0275
18264TIP3   OH276282   2.102   0.307   0.884  0.1055  0.8359 -0.0851
18264TIP3    H176283   2.030   0.272   0.831  0.3325 -0.7913  0.5949
18264TIP3    H276284   2.059   0.365   0.947 -0.6465 -0.1804  0.3670
18265TIP3   OH276285   3.434   2.277   1.179  0.9767  0.3645  0.0122
18265TIP3    H176286   3.441   2.183   1.196  2.5403  0.0676 -1.8999
18265TIP3    H276287   3.347   2.301   1.212  0.5043 -1.7550  0.4732
18266TIP3   OH276288   5.167   0.798  15.853 -0.3078 -0.0632 -0.7263
18266TIP3    H176289   5.102   0.859  15.818 -0.2376  0.5960  0.2717
18266TIP3    H276290   5.176   0.822  15.945  0.2998 -1.0789 -0.5051
18267TIP3   OH276291   6.140   2.352  12.587 -0.3168 -0.0626 -0.3301
18267TIP3    H176292   6.134   2.409  12.510  0.6392 -1.5532 -1.5898
18267TIP3    H276293   6.234   2.341  12.601 -0.4474  1.0200  1.7702
18268TIP3   OH276294   1.672   1.537   2.608 -0.7049  0.6491 -0.2882
18268TIP3    H176295   1.737   1.578   2.664 -1.3394  1.0076  0.1974
18268TIP3    H276296   1.723   1.490   2.542  0.1401 -1.7440  1.9076
18269TIP3   OH276297   2.848   2.862  15.278  0.0246 -0.5050 -0.2124
18269TIP3    H176298   2.867   2.785  15.331  0.5428  0.2802  0.7665
18269TIP3    H276299   2.852   2.935  15.339 -0.9666  0.2616 -1.0237
18270TIP3   OH276300   4.537   0.539   1.174  0.1616 -0.8223  0.4741
18270TIP3    H176301   4.551   0.633   1.161  1.0380 -1.0828 -0.5319
18270TIP3    H276302   4.443   0.527   1.160 -0.2129  0.0966  1.9280
18271TIP3   OH276303   5.800   5.070  14.002  0.6012 -0.2055  0.1418
18271TIP3    H176304   5.892   5.075  14.028  0.8982  0.7298 -1.0079
18271TIP3    H276305   5.798   5.002  13.935  1.0589  1.8192 -2.0486
18272TIP3   OH276306   6.524   5.001   1.236  0.4045  0.3419 -0.5689
18272TIP3    H176307   6.477   4.926   1.275  0.2273  0.5742 -0.3316
18272TIP3    H276308   6.598   4.961   1.190 -0.8358 -0.1754 -2.2173
18273TIP3   OH276309   5.372   4.553  14.809  0.6143  0.3411  0.3005
18273TIP3    H176310   5.443   4.505  14.851  0.5358  0.1602  0.2270
18273TIP3    H276311   5.370   4.520  14.719  1.6210  1.6516 -0.2237
18274TIP3   OH276312   4.708   3.122   1.413 -0.3291 -0.2707 -0.2176
18274TIP3    H176313   4.779   3.130   1.477 -0.3204 -0.0831 -0.2495
18274TIP3    H276314   4.654   3.050   1.445 -0.7473  0.3155  0.4091
18275TIP3   OH276315   5.522   6.721   1.036 -0.6116  0.0333  0.2563
18275TIP3    H176316   5.537   6.725   1.131 -1.6463  0.0482  0.4234
18275TIP3    H276317   5.445   6.665   1.025 -0.7174  0.3208 -0.5532
18276TIP3   OH276318   5.690   3.901   5.820 -0.2118 -0.3928 -0.2859
18276TIP3    H176319   5.655   3.977   5.865 -1.0506 -0.7171 -0.3759
18276TIP3    H276320   5.628   3.831   5.839  0.2051 -0.8963 -0.7367
18277TIP3   OH276321   5.069   6.222   6.222  0.4451  0.1324 -0.2099
18277TIP3    H176322   5.068   6.224   6.318  1.7014 -0.4598 -0.1612
18277TIP3    H276323   5.103   6.135   6.201  2.8292  1.2022 -1.1317
18278TIP3   OH276324   4.279   6.813  13.625  0.1937 -0.3006  0.3587
18278TIP3    H176325   4.367   6.840  13.650  0.1359  1.4146 -1.0004
18278TIP3    H276326   4.245   6.889  13.577 -1.5856 -1.3777 -0.1549
18279TIP3   OH276327   0.046   4.248  15.252 -0.2262  0.4872 -0.1645
18279TIP3    H176328  -0.014   4.277  15.183  0.8620 -0.6411 -1.6495
18279TIP3    H276329   0.132   4.274  15.221  0.3262 -0.4479  0.5515
18280TIP3   OH276330   4.237   6.325  13.671  0.2862 -0.8577 -0.3197
18280TIP3    H176331   4.225   6.343  13.577  0.0973 -1.0885 -0.3408
18280TIP3    H276332   4.239   6.230  13.677  0.5522 -0.8404 -0.1182
18281TIP3   OH276333   5.046   3.081  15.758  0.5605  0.8512 -0.5766
18281TIP3    H176334   5.049   3.174  15.735  0.7203  1.0442  0.1691
18281TIP3    H276335   4.974   3.045  15.707 -1.3626  1.9923  1.1507
18282TIP3   OH276336   5.498   4.050   1.088 -0.1860  0.3208 -0.6731
18282TIP3    H176337   5.579   4.035   1.138 -0.3886  0.0046 -0.4327
18282TIP3    H276338   5.508   3.994   1.011 -0.1637  0.3006 -0.6557
18283TIP3   OH276339   6.430   4.468   0.987  0.0405 -0.1317  0.6294
18283TIP3    H176340   6.342   4.453   1.019  0.2609  1.4729  2.1431
18283TIP3    H276341   6.434   4.421   0.903 -1.9384 -0.9319  0.9409
18284TIP3   OH276342   4.921   6.359   0.194  0.0945 -0.1353 -0.8035
18284TIP3    H176343   4.872   6.335   0.116 -0.1117  1.0589 -1.0704
18284TIP3    H276344   4.915   6.455   0.197 -0.6376 -0.2056  1.1541
18285TIP3   OH276345   6.107   2.685   4.645 -0.5432  0.3886  0.0131
18285TIP3    H176346   6.082   2.592   4.647  0.8590 -0.0409 -1.1855
18285TIP3    H276347   6.093   2.712   4.555 -2.3112  1.7886  0.6390
18286TIP3   OH276348   4.624   4.298   4.500 -0.2593 -0.0998 -0.1114
18286TIP3    H176349   4.651   4.217   4.456 -0.5695 -0.3952  0.2355
18286TIP3    H276350   4.699   4.357   4.488 -0.2581 -0.2412 -0.8585
18287TIP3   OH276351   5.921   4.495  11.104 -0.3016  0.0042  0.5403
18287TIP3    H176352   5.905   4.527  11.015  2.3900 -2.3262 -0.9560
18287TIP3    H276353   5.957   4.571  11.150  3.8724  0.0882 -2.2366
18288TIP3   OH276354   1.196   1.737   2.534 -0.1252  0.1575 -0.6279
18288TIP3    H176355   1.270   1.752   2.475  0.2857  1.1806  0.1199
18288TIP3    H276356   1.121   1.726   2.475  0.7659 -2.0589 -1.4338
18289TIP3   OH276357   0.113   2.878  11.962  0.2851  0.0695  0.5259
18289TIP3    H176358   0.094   2.818  11.890 -2.1444  2.0831 -0.6669
18289TIP3    H276359   0.108   2.823  12.041 -1.4738 -1.3986 -0.5285
18290TIP3   OH276360   4.979   6.747   5.386 -0.3038 -0.0366 -0.0281
18290TIP3    H176361   4.977   6.688   5.310  2.3119  1.5653 -1.5148
18290TIP3    H276362   5.051   6.714   5.440  0.1095  0.7938 -0.0487
18291TIP3   OH276363   4.928   2.235   6.303 -0.0052 -0.4165  0.1294
18291TIP3    H176364   4.960   2.324   6.289 -0.4137 -0.1884  0.6521
18291TIP3    H276365   4.891   2.236   6.391  0.6746 -1.3073  0.4367
18292TIP3   OH276366   3.673   0.662  16.403  0.1663 -0.0044  0.3879
18292TIP3    H176367   3.692   0.568  16.410 -0.4708 -0.1814 -0.1922
18292TIP3    H276368   3.755   0.705  16.430  0.5746 -0.7241  0.3243
18293TIP3   OH276369   2.222   3.444  12.265  0.7267 -0.0108  0.1660
18293TIP3    H176370   2.269   3.415  12.343  2.5542  1.5791 -0.2534
18293TIP3    H276371   2.185   3.529  12.289 -1.0226 -0.7287  0.1123
18294TIP3   OH276372   5.418   5.314   3.888  0.1138  0.0065 -0.1012
18294TIP3    H176373   5.333   5.273   3.872 -0.1892 -1.4198  4.0002
18294TIP3    H276374   5.401   5.408   3.879 -1.5183 -0.3220 -0.7582
18295TIP3   OH276375   5.092   6.487   6.132  0.5554  0.1670  0.5415
18295TIP3    H176376   5.009   6.531   6.151  0.7605 -0.0911  2.1526
18295TIP3    H276377   5.075   6.395   6.149  0.8584 -0.0555 -0.3034
18296TIP3   OH276378   4.115   0.264  15.654 -0.1189  0.3158 -0.2516
18296TIP3    H176379   4.113   0.295  15.563  2.0609  1.3930 -0.0070
18296TIP3    H276380   4.052   0.320  15.699  0.4220  1.3271 -0.7027
18297TIP3   OH276381   6.509   0.951   1.727 -0.8616  0.3108  0.2337
18297TIP3    H176382   6.577   1.012   1.755 -1.2685  1.0560 -0.3859
18297TIP3    H276383   6.436   0.966   1.787 -0.7770  0.0525  0.4082
18298TIP3   OH276384   0.589   2.837  13.914  0.3537  0.7646  0.2496
18298TIP3    H176385   0.586   2.827  14.009 -0.9052 -1.6713  0.0130
18298TIP3    H276386   0.681   2.822  13.891  0.2101 -1.3755  0.8931
18299TIP3   OH276387   3.752   5.294   6.810 -0.7201  0.1079  0.4140
18299TIP3    H176388   3.789   5.378   6.838 -1.9240  0.8203 -0.0522
18299TIP3    H276389   3.798   5.229   6.863 -0.3553  1.1232  1.3912
18300TIP3   OH276390   4.163   4.192  14.761  0.0787  0.2291  0.2222
18300TIP3    H176391   4.112   4.233  14.831 -1.9674 -1.4087 -0.2096
18300TIP3    H276392   4.124   4.226  14.681  0.8745  0.3018 -0.1471
18301TIP3   OH276393   0.585   1.849  15.029  0.1577 -0.6103 -0.1137
18301TIP3    H176394   0.568   1.870  15.120  1.0245 -1.7942  0.3551
18301TIP3    H276395   0.680   1.860  15.019  0.1677 -1.1117 -0.6820
18302TIP3   OH276396   2.700   1.407  14.729  0.2465  0.0226  0.5345
18302TIP3    H176397   2.716   1.501  14.722 -1.0153  0.1889 -0.4841
18302TIP3    H276398   2.744   1.369  14.654  2.1414 -0.4403  1.8102
18303TIP3   OH276399   6.384   2.576   5.692 -0.3910 -0.1221  0.1702
18303TIP3    H176400   6.463   2.531   5.663  0.3564  0.7851  0.7513
18303TIP3    H276401   6.313   2.515   5.673  0.5161 -1.2354  0.2916
18304TIP3   OH276402   4.449   1.099   2.159  0.0045 -0.2737  0.7984
18304TIP3    H176403   4.541   1.106   2.186  0.6232  2.3771 -1.5934
18304TIP3    H276404   4.407   1.176   2.197 -1.4746 -1.8312  2.4613
18305TIP3   OH276405   6.614   5.932  13.473 -0.0213 -0.1259 -0.3028
18305TIP3    H176406   6.623   5.872  13.547 -0.8630 -2.0707 -1.6801
18305TIP3    H276407   6.561   6.004  13.507  2.0509  0.5369  1.7489
18306TIP3   OH276408   6.154   1.170  16.135 -0.3352  0.0333 -0.7484
18306TIP3    H176409   6.247   1.146  16.142  0.0867  1.5779 -0.8527
18306TIP3    H276410   6.120   1.158  16.223 -0.1758 -0.9862 -0.8036
18307TIP3   OH276411   1.243   4.371  14.033  0.2173 -0.2140  0.2348
18307TIP3    H176412   1.290   4.364  14.116  1.1964 -2.2777 -0.4114
18307TIP3    H276413   1.305   4.414  13.974  0.8882 -1.7944 -0.2763
18308TIP3   OH276414   3.562   3.786   4.122  0.1617  0.4486  0.0297
18308TIP3    H176415   3.654   3.766   4.135  0.1500 -0.3401 -0.9591
18308TIP3    H276416   3.547   3.771   4.028 -0.8130  1.2073  0.0472
18309TIP3   OH276417   5.862   3.950   2.287  0.5424 -0.0044 -0.3482
18309TIP3    H176418   5.802   3.918   2.220  1.2908 -1.8075 -0.2045
18309TIP3    H276419   5.812   4.015   2.336 -0.4638  0.3192 -1.7677
18310TIP3   OH276420   2.705   0.038   6.600  0.5676  0.3006  0.5153
18310TIP3    H176421   2.733   0.103   6.666 -0.9727  0.2466  1.2639
18310TIP3    H276422   2.669   0.090   6.529  2.2791  0.3611 -0.3547
18311TIP3   OH276423   2.170   1.655  13.067 -0.0008  0.8473 -0.4476
18311TIP3    H176424   2.145   1.623  12.980  0.0449  0.1524 -0.2140
18311TIP3    H276425   2.111   1.610  13.127  1.3512 -0.3404  0.0567
18312TIP3   OH276426   2.664   5.031  13.564 -0.6583 -0.1157  0.2439
18312TIP3    H176427   2.571   5.008  13.569 -0.3878 -1.3614  0.0471
18312TIP3    H276428   2.709   4.949  13.583  0.4012  0.4103  0.0566
18313TIP3   OH276429   1.711   4.781  14.540  0.3744 -0.2094 -0.3053
18313TIP3    H176430   1.787   4.820  14.497  0.2123  0.8637  0.3393
18313TIP3    H276431   1.717   4.810  14.631 -0.2335 -0.9941 -0.0011
18314TIP3   OH276432   2.094   0.805   0.603  0.1045 -1.0755  0.0045
18314TIP3    H176433   2.006   0.776   0.582  0.8662 -2.2945 -1.6605
18314TIP3    H276434   2.142   0.801   0.520  2.5928 -3.6179  1.3900
18315TIP3   OH276435   4.243   5.107  16.483 -0.3787  0.0369  0.4907
18315TIP3    H176436   4.247   5.188  16.433 -0.1571 -0.0174  0.4203
18315TIP3    H276437   4.259   5.038  16.419 -0.0365 -0.0294  0.6446
18316TIP3   OH276438   5.126   2.867  11.356 -0.2875 -0.0645  0.9473
18316TIP3    H176439   5.093   2.910  11.434 -2.2460  1.3793 -0.5841
18316TIP3    H276440   5.164   2.938  11.304  0.5179 -0.9198  0.3258
18317TIP3   OH276441   5.257   4.561  16.517 -0.2459 -0.2609  0.3300
18317TIP3    H176442   5.211   4.644  16.527 -0.2766 -0.2440  0.0746
18317TIP3    H276443   5.187   4.495  16.520 -0.2578 -0.2544  0.2252
18318TIP3   OH276444   0.179   5.491  16.775 -0.1032 -0.3097 -0.2967
18318TIP3    H176445   0.137   5.415  16.735 -1.4617  0.0311  0.4400
18318TIP3    H276446   0.151   5.488  16.867  0.4969  0.6287 -0.0738
18319TIP3   OH276447   1.779   4.692   4.280 -0.6724 -0.2958 -0.4500
18319TIP3    H176448   1.797   4.786   4.286 -0.1622 -0.4160 -0.0245
18319TIP3    H276449   1.718   4.674   4.351  1.2110 -0.7394  1.1207
18320TIP3   OH276450   0.395   3.936   4.869 -0.3125 -0.0524  0.6161
18320TIP3    H176451   0.368   3.858   4.918 -0.6445 -2.7198 -3.4111
18320TIP3    H276452   0.490   3.929   4.864 -0.4483 -1.0746 -0.9649
18321TIP3   OH276453   5.586   2.231   4.091  0.2295  0.1439  0.0097
18321TIP3    H176454   5.551   2.251   4.004 -1.0651  0.4024  0.5654
18321TIP3    H276455   5.509   2.213   4.144  1.0250 -0.3822  1.0202
18322TIP3   OH276456   4.637   5.853   2.963 -0.4441  0.6857  0.4371
18322TIP3    H176457   4.722   5.818   2.989 -0.1326  1.6883  0.8129
18322TIP3    H276458   4.615   5.917   3.031 -1.2585  0.8155  0.0690
18323TIP3   OH276459   1.315   6.710  12.786  0.4238  0.0960  0.1460
18323TIP3    H176460   1.261   6.759  12.725 -1.5584 -1.4844  0.5514
18323TIP3    H276461   1.372   6.656  12.730 -2.0702 -2.1174 -0.4842
18324TIP3   OH276462   6.273   2.187   5.808 -0.3757  0.1255 -0.0423
18324TIP3    H176463   6.243   2.142   5.887  0.7214  0.8089  0.7828
18324TIP3    H276464   6.368   2.194   5.819  0.2532 -2.3093 -2.7297
18325TIP3   OH276465   2.233   5.452  16.068 -0.4348  0.0135  0.2300
18325TIP3    H176466   2.215   5.359  16.061  0.0790 -0.0933  0.2904
18325TIP3    H276467   2.147   5.494  16.066 -0.6857 -0.4843  0.5589
18326TIP3   OH276468   0.288   2.010  13.577 -0.6956 -0.3568  0.1594
18326TIP3    H176469   0.199   2.030  13.548 -0.2752 -0.0672 -1.0065
18326TIP3    H276470   0.329   2.096  13.587 -0.3362 -0.5015 -0.0435
18327TIP3   OH276471   0.924   3.312   3.965 -0.5044  0.2900 -0.1324
18327TIP3    H176472   0.940   3.259   3.887 -0.6172 -0.3091  0.2535
18327TIP3    H276473   1.011   3.337   3.996 -0.4734  1.1661 -0.8765
18328TIP3   OH276474   0.090   6.145  14.216  0.5540 -0.5382 -0.2538
18328TIP3    H176475   0.172   6.144  14.167 -0.0794 -0.9426 -1.3324
18328TIP3    H276476   0.022   6.157  14.150 -0.3653 -1.6677  0.4474
18329TIP3   OH276477   5.254   3.457   5.962  0.2440 -0.1917 -0.1655
18329TIP3    H176478   5.261   3.408   5.880 -0.3505 -1.6454  0.6322
18329TIP3    H276479   5.255   3.391   6.031  0.8522  1.0043  1.0396
18330TIP3   OH276480   2.657   6.462  15.510 -0.7610  0.0080  0.3985
18330TIP3    H176481   2.565   6.466  15.484 -0.9021  2.7554  0.9859
18330TIP3    H276482   2.655   6.435  15.602 -1.1856  1.7735  0.9534
18331TIP3   OH276483   2.685   5.676  16.480 -0.3655 -0.0903 -0.3052
18331TIP3    H176484   2.705   5.631  16.398  0.2628 -0.6782  0.1620
18331TIP3    H276485   2.589   5.682  16.482 -0.3826 -0.1128 -1.0549
18332TIP3   OH276486   0.963   2.866   3.622 -0.3113 -0.1254  0.1213
18332TIP3    H176487   1.016   2.932   3.579 -1.2377 -0.5334 -1.7517
18332TIP3    H276488   0.873   2.888   3.598 -0.7224 -1.4035  0.3900
18333TIP3   OH276489   2.518   2.488  11.312 -0.7202 -0.5542  0.7625
18333TIP3    H176490   2.490   2.580  11.312 -1.0111 -0.6365 -0.0917
18333TIP3    H276491   2.493   2.455  11.399  0.0297  0.3603  1.3553
18334TIP3   OH276492   2.829   4.368  14.625  0.1414  0.0685  0.7064
18334TIP3    H176493   2.778   4.380  14.545 -0.0542 -1.5148  0.5652
18334TIP3    H276494   2.918   4.397  14.602  0.3811 -1.4894 -0.4759
18335TIP3   OH276495   1.389   0.736  13.581  0.6057 -0.6249  0.3411
18335TIP3    H176496   1.322   0.699  13.524  0.9805 -1.2394  0.2982
18335TIP3    H276497   1.407   0.668  13.645  1.6090 -0.6925  0.0020
18336TIP3   OH276498   3.195   5.360  15.017 -0.3830  0.2653 -0.2225
18336TIP3    H176499   3.148   5.410  14.950  0.5887  0.7286 -0.5669
18336TIP3    H276500   3.285   5.390  15.011  0.5262 -2.3287 -1.2285
18337TIP3   OH276501   3.241   2.337   0.062  0.2837  0.2707 -0.1136
18337TIP3    H176502   3.293   2.417   0.058  0.0377  0.5162  1.1365
18337TIP3    H276503   3.297   2.270   0.025  1.7520  0.4047  1.7006
18338TIP3   OH276504   0.538   4.175  13.094  0.0669  0.4222 -0.0191
18338TIP3    H176505   0.568   4.258  13.131  0.1768 -0.0225  0.9224
18338TIP3    H276506   0.535   4.191  13.000  2.0484  0.8820 -0.0591
18339TIP3   OH276507   2.614   3.354  14.272  0.1223 -0.1146 -0.5257
18339TIP3    H176508   2.639   3.293  14.341 -1.2178  0.1327  0.2214
18339TIP3    H276509   2.648   3.439  14.302 -1.1491  0.1455  0.2831
18340TIP3   OH276510   4.808   3.000  16.181  0.8590  0.1312  0.2622
18340TIP3    H176511   4.731   3.054  16.202 -1.2483 -2.0192 -1.4239
18340TIP3    H276512   4.836   3.031  16.095  1.0808  0.0734  0.3134
18341TIP3   OH276513   6.067   1.886  16.880  0.1353  0.5501  0.1658
18341TIP3    H176514   6.058   1.943  16.956 -1.5770 -0.4961  0.8057
18341TIP3    H276515   6.041   1.799  16.912 -0.8279  0.1145 -1.6463
18342TIP3   OH276516   3.922   6.834  12.050 -0.0446  0.7189 -0.4096
18342TIP3    H176517   3.970   6.761  12.090 -0.2763  0.4792 -0.5703
18342TIP3    H276518   3.966   6.912  12.084 -1.4390  0.5974  1.8760
18343TIP3   OH276519   2.959   6.519   0.065  0.0838 -1.0909 -0.1342
18343TIP3    H176520   2.876   6.567   0.074 -0.3203 -1.6274 -0.8936
18343TIP3    H276521   2.987   6.503   0.155 -0.3933 -0.4879  0.1309
18344TIP3   OH276522   1.470   4.318   4.813  0.5207  0.0374  0.2243
18344TIP3    H176523   1.457   4.364   4.730 -1.4044 -0.2859  0.3028
18344TIP3    H276524   1.554   4.275   4.803  0.0300 -0.5646 -1.8620
18345TIP3   OH276525   6.336   3.127  10.457 -0.0277  0.7897 -0.1930
18345TIP3    H176526   6.427   3.120  10.427  0.4871  2.4640  0.8171
18345TIP3    H276527   6.313   3.038  10.485  0.8089  0.0505 -1.6875
18346TIP3   OH276528   4.025   4.439  14.312 -0.7304  0.0079  0.0207
18346TIP3    H176529   4.059   4.527  14.298  0.6976 -0.4840  0.1992
18346TIP3    H276530   4.049   4.418  14.402  0.9315 -1.3712 -0.6906
18347TIP3   OH276531   4.580   2.021  16.493 -0.4408 -0.2056  0.8826
18347TIP3    H176532   4.499   1.986  16.530 -1.2971 -1.2019 -1.7200
18347TIP3    H276533   4.610   1.953  16.433  0.5411  1.5277 -0.6895
18348TIP3   OH276534   6.374   1.083   1.117  0.3136 -0.1741 -0.0034
18348TIP3    H176535   6.340   1.012   1.171 -0.3307 -0.9464 -1.3635
18348TIP3    H276536   6.296   1.132   1.089  0.5100 -0.4824 -1.1536
18349TIP3   OH276537   0.604   0.755   4.613 -0.0186  0.7245 -0.1363
18349TIP3    H176538   0.677   0.693   4.623 -0.7039 -0.0379  0.2487
18349TIP3    H276539   0.608   0.809   4.691  0.1660  0.7157 -0.1396
18350TIP3   OH276540   2.551   2.119  11.552  0.0369 -0.2423  0.3791
18350TIP3    H176541   2.541   2.118  11.457  1.0797 -1.4781  0.2540
18350TIP3    H276542   2.600   2.199  11.569 -2.5776  1.5174  0.2185
18351TIP3   OH276543   1.381   0.783  14.208  0.2713 -0.2969 -0.2653
18351TIP3    H176544   1.394   0.802  14.300 -1.2823 -0.1884 -0.0359
18351TIP3    H276545   1.373   0.688  14.204  0.3987 -0.3066 -0.3042
18352TIP3   OH276546   0.292   1.303  15.767  1.0615 -0.5803 -0.2142
18352TIP3    H176547   0.209   1.264  15.791  0.0883  1.6775  0.3309
18352TIP3    H276548   0.343   1.304  15.848  1.9430 -2.5378 -0.6789
18353TIP3   OH276549   3.268   3.652   6.746  0.0693 -0.3989  0.0178
18353TIP3    H176550   3.176   3.632   6.757 -0.0764  0.4848  0.4904
18353TIP3    H276551   3.281   3.656   6.651 -0.2566 -1.0160 -0.0573
18354TIP3   OH276552   5.228   2.347   1.551 -0.2231 -0.2320 -0.0121
18354TIP3    H176553   5.175   2.289   1.496 -0.7316  0.4181 -0.2210
18354TIP3    H276554   5.214   2.434   1.515  1.5116 -0.1040 -0.4834
18355TIP3   OH276555   5.998   1.953   2.157  0.5702  0.0806 -0.3876
18355TIP3    H176556   5.928   2.007   2.195 -0.1198 -0.2679 -1.1160
18355TIP3    H276557   6.054   2.015   2.110  0.2823  0.2690 -0.4846
18356TIP3   OH276558   1.605   0.400   0.683  0.3267 -0.5178  0.3430
18356TIP3    H176559   1.535   0.389   0.618  0.1521 -0.4885  0.5253
18356TIP3    H276560   1.622   0.311   0.714  0.1983 -0.4950  0.4782
18357TIP3   OH276561   4.950   2.595  12.610  0.0835  0.4668 -0.2171
18357TIP3    H176562   4.900   2.557  12.683  0.6751 -1.4752 -0.7454
18357TIP3    H276563   4.893   2.583  12.534  0.7894 -0.5750 -0.6027
18358TIP3   OH276564   0.756   5.273  15.445 -0.0687  0.3232  0.4837
18358TIP3    H176565   0.777   5.200  15.386 -1.6126  1.5818 -1.7942
18358TIP3    H276566   0.702   5.331  15.392 -1.0910  1.8610  3.0393
18359TIP3   OH276567   5.619   5.257   1.964  0.0291 -0.1342 -0.3540
18359TIP3    H176568   5.549   5.264   1.899 -0.9856  0.2249  0.7457
18359TIP3    H276569   5.574   5.252   2.048  1.3357  0.1620  0.3961
18360TIP3   OH276570   3.978   2.212   0.868 -0.7017 -0.0052 -0.2757
18360TIP3    H176571   4.053   2.153   0.862 -1.3320 -0.8776  0.1905
18360TIP3    H276572   3.989   2.256   0.952  1.0128  2.3342 -1.6028
18361TIP3   OH276573   1.833   3.350   3.453 -0.2374 -0.3144 -0.1689
18361TIP3    H176574   1.910   3.368   3.508 -0.3141 -1.0922  0.1942
18361TIP3    H276575   1.848   3.403   3.374  0.9899 -0.9506 -0.3783
18362TIP3   OH276576   6.073   5.070  15.589  0.4934  0.7964  0.3342
18362TIP3    H176577   5.980   5.091  15.599 -0.3227 -2.7833  1.8652
18362TIP3    H276578   6.112   5.091  15.674  0.2975 -0.7751  0.8478
18363TIP3   OH276579   6.824   4.335  13.053 -0.2348  0.1883  0.9488
18363TIP3    H176580   6.833   4.256  13.107  0.3828  0.6530  1.5408
18363TIP3    H276581   6.828   4.303  12.963  0.3001 -0.4292  1.1836
18364TIP3   OH276582   1.202   6.097   2.131 -0.3830 -0.4610 -0.0944
18364TIP3    H176583   1.268   6.054   2.077 -1.3850  0.0218 -1.7680
18364TIP3    H276584   1.127   6.037   2.130 -0.7680  0.0146 -0.0945
18365TIP3   OH276585   5.518   4.439  16.493 -0.6256 -0.0565 -0.4606
18365TIP3    H176586   5.501   4.382  16.418 -0.2191  0.9568 -1.3447
18365TIP3    H276587   5.438   4.492  16.501 -2.1847 -2.4934  2.0641
18366TIP3   OH276588   0.972   6.342  11.391  0.1464 -0.6595 -0.0962
18366TIP3    H176589   0.986   6.264  11.338 -0.2944  0.0956 -1.3768
18366TIP3    H276590   0.892   6.381  11.355 -0.1769 -0.1316  1.1522
18367TIP3   OH276591   4.353   3.525   5.718  0.5241 -0.2040  0.3384
18367TIP3    H176592   4.387   3.502   5.631  1.4942  0.0281  0.6454
18367TIP3    H276593   4.288   3.593   5.700 -0.5104 -1.3371 -0.3423
18368TIP3   OH276594   1.821   1.716   3.805 -0.2987  0.1617 -0.6688
18368TIP3    H176595   1.892   1.722   3.742  1.2767 -2.4515  0.6760
18368TIP3    H276596   1.747   1.681   3.755  0.3222 -0.0389 -1.4605
18369TIP3   OH276597   5.890   1.496   0.112 -0.1933  0.0789 -0.0685
18369TIP3    H176598   5.841   1.449   0.179 -1.9385  0.7766 -0.7985
18369TIP3    H276599   5.823   1.527   0.051  1.1533  1.2964 -0.9821
18370TIP3   OH276600   5.216   2.886  13.085 -0.5780  0.2691 -0.2704
18370TIP3    H176601   5.155   2.927  13.145 -0.0165  0.7708 -0.0362
18370TIP3    H276602   5.301   2.894  13.128 -0.2485  0.1710 -0.8924
18371TIP3   OH276603   2.935   1.402  13.797  0.0289 -0.3095  0.2959
18371TIP3    H176604   2.995   1.456  13.745 -0.0627 -1.9651 -1.6882
18371TIP3    H276605   2.848   1.430  13.768 -0.0196 -2.2801 -1.7699
18372TIP3   OH276606   1.320   2.386  14.552  0.6402 -0.0240 -0.0138
18372TIP3    H176607   1.387   2.453  14.552  1.0046 -0.3823  0.2710
18372TIP3    H276608   1.367   2.304  14.570  0.3174 -0.4777 -1.1444
18373TIP3   OH276609   4.221   2.123  16.421 -0.5767  0.4051  0.5815
18373TIP3    H176610   4.291   2.137  16.358 -1.1007  0.7336  0.0628
18373TIP3    H276611   4.166   2.055  16.381 -0.2292 -0.2884  1.2617
18374TIP3   OH276612   4.804   0.218  15.164 -0.0376 -0.9505  0.2848
18374TIP3    H176613   4.773   0.168  15.088  0.3655  0.4967 -0.8641
18374TIP3    H276614   4.730   0.218  15.224  0.1411 -3.4471  0.6448
18375TIP3   OH276615   6.733   2.512  12.309 -0.2380 -0.1064  0.9245
18375TIP3    H176616   6.656   2.497  12.363 -0.3389 -1.0875  0.5348
18375TIP3    H276617   6.702   2.569  12.238 -1.4790 -2.9291 -1.0063
18376TIP3   OH276618   4.853   0.988  10.819 -0.0628 -0.5971  0.0417
18376TIP3    H176619   4.795   0.960  10.890  0.8273 -1.7623  0.3347
18376TIP3    H276620   4.795   1.030  10.756 -0.9519  0.0126  1.2129
18377TIP3   OH276621   0.271   0.865  14.595 -0.8055 -0.0965 -0.3800
18377TIP3    H176622   0.215   0.789  14.580  1.5035 -1.9910 -0.1518
18377TIP3    H276623   0.290   0.898  14.507  0.5898 -1.7501 -0.7559
18378TIP3   OH276624   1.086   0.697  11.444 -0.8266 -0.5447  0.2173
18378TIP3    H176625   1.015   0.639  11.420 -3.4770  1.4922  2.4183
18378TIP3    H276626   1.099   0.753  11.367  0.2226 -2.4832 -1.0912
18379TIP3   OH276627   6.293   5.187   2.497 -0.6801 -0.3631  0.0057
18379TIP3    H176628   6.207   5.224   2.478 -0.5309  0.4224  0.7780
18379TIP3    H276629   6.283   5.148   2.584 -0.7599 -1.9516 -0.6826
18380TIP3   OH276630   0.430   4.577  12.405 -0.1989 -0.4273  0.0756
18380TIP3    H176631   0.469   4.546  12.487  1.8058 -0.4501 -0.8194
18380TIP3    H276632   0.414   4.671  12.421  0.0419 -0.4611  0.5377
18381TIP3   OH276633   0.846   0.471   0.470  0.5908 -0.4439 -0.2457
18381TIP3    H176634   0.866   0.479   0.376 -0.5842  0.8910 -0.4185
18381TIP3    H276635   0.774   0.532   0.484 -2.2402 -3.6788  0.6696
18382TIP3   OH276636   1.695   5.302   6.358 -0.1970 -0.7837  0.7986
18382TIP3    H176637   1.657   5.352   6.430 -0.1614 -0.0575  0.3243
18382TIP3    H276638   1.757   5.362   6.317  0.9938 -1.7247  1.1533
18383TIP3   OH276639   1.536   1.576  16.799  0.5679  0.7807  0.4836
18383TIP3    H176640   1.523   1.587  16.705 -1.9152 -0.0853  0.6587
18383TIP3    H276641   1.500   1.656  16.838  0.6421  0.6864  0.7476
18384TIP3   OH276642   3.321   3.621   0.291 -0.3242 -0.3626  0.2104
18384TIP3    H176643   3.322   3.714   0.270  2.1793 -0.1159  1.2129
18384TIP3    H276644   3.228   3.601   0.303 -1.0330  1.6709 -1.2918
18385TIP3   OH276645   2.284   1.206   5.663  0.1089 -0.3933  0.0756
18385TIP3    H176646   2.278   1.114   5.685 -0.4068 -0.2695  0.4669
18385TIP3    H276647   2.361   1.237   5.710 -0.4916 -0.3258  1.0407
18386TIP3   OH276648   2.298   2.449  10.437 -0.6132 -0.1271 -0.5771
18386TIP3    H176649   2.205   2.432  10.419 -1.5084 -1.2797  3.9140
18386TIP3    H276650   2.310   2.419  10.527  4.0613  0.4872 -0.7902
18387TIP3   OH276651   2.462   5.399  15.788  0.0020 -0.2943 -0.0524
18387TIP3    H176652   2.552   5.409  15.757 -0.4554  0.0435 -1.3373
18387TIP3    H276653   2.443   5.481  15.835  0.3092 -0.3043  0.0919
18388TIP3   OH276654   5.428   2.512   0.264 -0.1695 -0.4666 -0.2495
18388TIP3    H176655   5.413   2.428   0.308 -0.4549 -0.4518 -0.3182
18388TIP3    H276656   5.367   2.512   0.191 -2.2447  1.0098  1.3770
18389TIP3   OH276657   2.900   0.636   3.783 -0.2321 -0.3861 -0.1009
18389TIP3    H176658   2.807   0.651   3.801  0.0811  0.3716  0.9187
18389TIP3    H276659   2.900   0.578   3.706 -1.5827 -2.2302  1.2038
18390TIP3   OH276660   0.159   4.098  10.955  0.1594  0.0470 -0.6696
18390TIP3    H176661   0.172   4.025  10.895 -0.1724 -0.5759  0.0123
18390TIP3    H276662   0.160   4.176  10.899  0.8264 -0.4487 -1.3606
18391TIP3   OH276663   3.364   0.043  16.096  0.3687 -0.0878  0.0352
18391TIP3    H176664   3.290   0.036  16.157  0.5214 -0.4605  0.1837
18391TIP3    H276665   3.434   0.082  16.147  0.1435  0.6736 -0.2305
18392TIP3   OH276666   2.594   1.735   2.452 -0.0638  0.6163  0.0690
18392TIP3    H176667   2.623   1.777   2.533 -0.6035  1.3739 -0.1161
18392TIP3    H276668   2.669   1.683   2.423  1.2889  2.7523 -0.5684
18393TIP3   OH276669   1.274   2.607  17.181  0.2072  0.6616 -0.0987
18393TIP3    H176670   1.282   2.536  17.117 -0.3188  0.2034  0.3328
18393TIP3    H276671   1.350   2.663  17.164  0.8722 -0.2350 -0.1611
18394TIP3   OH276672   4.172   1.527  11.690 -0.1998  0.1012 -0.9382
18394TIP3    H176673   4.224   1.552  11.614 -0.5119  0.4330 -1.0448
18394TIP3    H276674   4.225   1.554  11.766  0.4187 -0.8385 -1.0177
18395TIP3   OH276675   0.085   4.173  13.562 -0.4089 -0.2163  0.2116
18395TIP3    H176676   0.019   4.224  13.514  0.4693  1.3257  0.5791
18395TIP3    H276677   0.042   4.149  13.644 -1.0633 -0.6768 -0.2544
18396TIP3   OH276678   2.086   1.815  14.235  0.5035  0.0946 -0.3198
18396TIP3    H176679   2.175   1.844  14.255  1.0533 -1.0705 -0.9610
18396TIP3    H276680   2.040   1.820  14.319  1.0795  0.9891 -0.0431
18397TIP3   OH276681   4.954   1.114   5.802 -0.7651 -0.3048  0.1474
18397TIP3    H176682   4.916   1.169   5.870 -0.7539  1.4706 -1.1882
18397TIP3    H276683   5.043   1.148   5.792 -1.3484  0.7644 -1.9894
18398TIP3   OH276684   4.394   5.869  13.562  0.2088 -0.1387  0.0860
18398TIP3    H176685   4.484   5.852  13.587  0.0287 -0.6135  0.4360
18398TIP3    H276686   4.394   5.867  13.467  0.2942 -1.6779  0.0845
18399TIP3   OH276687   3.737   3.673  14.206 -0.2241 -0.0190  0.3780
18399TIP3    H176688   3.774   3.722  14.280  0.4891  0.8860 -0.5446
18399TIP3    H276689   3.649   3.648  14.235  0.0275  0.3463  1.5109
18400TIP3   OH276690   6.836   1.689   1.964 -1.1017 -0.3353  0.3311
18400TIP3    H176691   6.825   1.667   1.872  1.4650 -3.1334  0.5323
18400TIP3    H276692   6.755   1.661   2.006 -1.3243 -1.3717 -0.7382
18401TIP3   OH276693   0.806   1.012  14.349  0.3021  0.2592 -0.0779
18401TIP3    H176694   0.769   0.953  14.415 -0.2348  0.7589  0.0788
18401TIP3    H276695   0.731   1.038  14.295  0.6940  0.0716 -0.7227
18402TIP3   OH276696   3.739   3.707  12.634 -0.1216 -0.0424  0.0700
18402TIP3    H176697   3.766   3.735  12.721  3.0939 -0.3064 -0.7302
18402TIP3    H276698   3.762   3.780  12.577 -1.3495 -0.2432 -0.7198
18403TIP3   OH276699   3.805   0.395  16.541  0.0859  0.2555  0.1190
18403TIP3    H176700   3.845   0.363  16.460  0.9526 -0.8307  0.9374
18403TIP3    H276701   3.810   0.320  16.601  0.3963  1.3306  1.4883
18404TIP3   OH276702   4.415   4.610   2.333 -0.2376 -0.2483 -0.0959
18404TIP3    H176703   4.358   4.659   2.392 -0.3823  1.1263 -1.3269
18404TIP3    H276704   4.493   4.663   2.323  0.9626 -1.7264  0.8993
18405TIP3   OH276705   6.582   1.522  12.733  0.2040 -0.7012  0.1281
18405TIP3    H176706   6.587   1.428  12.713 -0.2065 -0.5422 -0.7766
18405TIP3    H276707   6.525   1.558  12.665  0.3550  0.2058  0.4688
18406TIP3   OH276708   2.008   6.709   4.504  0.0002 -0.0039  0.6878
18406TIP3    H176709   2.096   6.673   4.493  0.4406  0.8385  1.3437
18406TIP3    H276710   1.956   6.665   4.436  1.2716  0.6790 -0.7929
18407TIP3   OH276711   5.432   3.899   1.403 -0.2493 -0.1120 -0.2202
18407TIP3    H176712   5.474   3.983   1.420  0.5369 -0.4863 -0.2753
18407TIP3    H276713   5.395   3.873   1.488 -0.3596  0.2103 -0.1677
18408TIP3   OH276714   0.675   3.668  14.350  0.2833 -0.0066 -0.0482
18408TIP3    H176715   0.678   3.645  14.443  0.6410 -0.6808 -0.2164
18408TIP3    H276716   0.630   3.594  14.309 -1.5722  1.1367 -0.1815
18409TIP3   OH276717   2.818   1.450  14.173 -0.3731  0.0952 -0.4234
18409TIP3    H176718   2.843   1.362  14.147 -0.0802 -0.3224  1.1438
18409TIP3    H276719   2.760   1.437  14.249 -0.7209  1.2308 -0.4696
18410TIP3   OH276720   0.851   5.193   0.139  0.4596 -0.6750  0.1747
18410TIP3    H176721   0.780   5.164   0.197 -0.9039  1.0990 -0.5198
18410TIP3    H276722   0.835   5.146   0.057  0.0987 -0.3239  0.0381
18411TIP3   OH276723   1.821   1.078  15.222 -0.0963  0.2029  0.0798
18411TIP3    H176724   1.875   1.153  15.249 -0.7516 -0.0876  2.4282
18411TIP3    H276725   1.848   1.007  15.281 -0.0668 -1.2023 -1.5582
18412TIP3   OH276726   2.789   4.047   0.379  0.1932  0.3776  0.3440
18412TIP3    H176727   2.702   4.018   0.407 -0.1684  1.5507  0.4842
18412TIP3    H276728   2.846   4.027   0.453  0.0068 -0.1822  0.3442
18413TIP3   OH276729   0.179   1.655   6.210 -0.6784 -1.2445 -0.8721
18413TIP3    H176730   0.167   1.560   6.216  0.2945 -1.5276 -2.7566
18413TIP3    H276731   0.124   1.681   6.136 -1.8684 -0.1223  0.3593
18414TIP3   OH276732   2.338   1.305  14.238  0.3119 -0.3127  0.5622
18414TIP3    H176733   2.269   1.248  14.203  0.5828 -0.2621 -0.0857
18414TIP3    H276734   2.296   1.391  14.247 -0.5059 -0.9080  2.9248
18415TIP3   OH276735   0.307   2.893  11.547 -0.0580 -0.4503  0.2414
18415TIP3    H176736   0.225   2.935  11.519  0.7128  1.2259  0.3941
18415TIP3    H276737   0.352   2.872  11.465  0.1731  0.3034  0.1736
18416TIP3   OH276738   0.395   3.704   3.181 -0.0482 -0.1582  0.3103
18416TIP3    H176739   0.322   3.645   3.164 -0.8359  1.1299 -1.0088
18416TIP3    H276740   0.359   3.772   3.238  0.9306 -1.0473  2.0767
18417TIP3   OH276741   4.695   5.692   2.055 -0.0990  0.2362  0.1819
18417TIP3    H176742   4.730   5.613   2.095  1.1831 -0.3656 -1.9956
18417TIP3    H276743   4.669   5.747   2.130  1.8636 -0.9113  1.8117
18418TIP3   OH276744   0.789   2.826   4.039 -0.2266  0.5140  0.6051
18418TIP3    H176745   0.826   2.899   4.088  1.9949  0.3748 -0.7247
18418TIP3    H276746   0.847   2.816   3.963 -1.0425 -1.9757  0.2115
18419TIP3   OH276747   4.958   0.767  11.226  0.0506 -0.0715 -0.1286
18419TIP3    H176748   5.008   0.786  11.147  1.6077 -4.2148 -0.3811
18419TIP3    H276749   4.874   0.734  11.195  0.0336 -0.1653  0.0156
18420TIP3   OH276750   1.733   1.425   3.243  0.0884 -0.0997 -0.5098
18420TIP3    H176751   1.746   1.514   3.212 -2.3797 -0.2739 -2.3804
18420TIP3    H276752   1.664   1.432   3.310  1.2505 -0.4174  0.7567
18421TIP3   OH276753   4.849   0.345  14.224 -0.7564 -0.3613 -0.4699
18421TIP3    H176754   4.821   0.430  14.190 -0.7796 -0.0934  0.1849
18421TIP3    H276755   4.771   0.290  14.220 -0.8610 -0.2128 -0.4789
18422TIP3   OH276756   1.770   2.858   1.512  0.1545  0.6551 -0.1230
18422TIP3    H176757   1.766   2.767   1.540 -1.6762  0.2761 -1.4320
18422TIP3    H276758   1.703   2.902   1.565  0.1081  0.9562 -0.4291
18423TIP3   OH276759   0.002   3.749  12.888 -0.1637 -0.0015  0.0809
18423TIP3    H176760  -0.003   3.657  12.915  1.8262 -0.4430 -0.9024
18423TIP3    H276761  -0.089   3.774  12.872 -0.8887 -1.3639  1.6791
18424TIP3   OH276762   3.045   1.927   1.599 -0.2074 -0.1267  0.2611
18424TIP3    H176763   2.960   1.969   1.585 -1.7739 -2.9106  0.7464
18424TIP3    H276764   3.057   1.931   1.694  0.1741  0.1882  0.2002
18425TIP3   OH276765   6.384   5.515   2.868 -0.2040  0.1771  0.0585
18425TIP3    H176766   6.400   5.592   2.921 -0.5451  0.5071 -0.3116
18425TIP3    H276767   6.382   5.547   2.778 -2.3022  0.0743  0.0263
18426TIP3   OH276768   5.419   0.144   3.071 -0.2318 -0.0474  0.0248
18426TIP3    H176769   5.323   0.151   3.064 -0.1895  1.8145  0.8008
18426TIP3    H276770   5.444   0.088   2.998 -1.8252  0.3095 -0.8398
18427TIP3   OH276771   3.173   2.166   6.052  0.3756  0.3463 -0.4082
18427TIP3    H176772   3.250   2.141   6.104  0.5182  0.9660 -0.3176
18427TIP3    H276773   3.208   2.179   5.964  0.5557  1.5753 -0.1659
18428TIP3   OH276774   4.501   6.834   1.796  0.3706  0.0654 -0.3886
18428TIP3    H176775   4.513   6.889   1.719 -1.2558  1.4085  0.2563
18428TIP3    H276776   4.407   6.814   1.797  0.4245 -0.2521  1.0138
18429TIP3   OH276777   3.455   0.566   3.914 -0.2172  0.3857 -0.7281
18429TIP3    H176778   3.412   0.651   3.905  1.5663  1.6520  1.6226
18429TIP3    H276779   3.403   0.519   3.979  0.1188  0.6560 -0.2552
18430TIP3   OH276780   3.521   4.696  14.253 -0.6611 -0.1059 -0.3701
18430TIP3    H176781   3.602   4.646  14.251  0.4630  1.6427 -0.9956
18430TIP3    H276782   3.508   4.723  14.162 -1.4462  0.4139 -0.1133
18431TIP3   OH276783   3.300   0.388   0.887  0.8251 -0.1775  0.0098
18431TIP3    H176784   3.242   0.320   0.852 -0.5553  0.4027  1.0703
18431TIP3    H276785   3.245   0.436   0.949  2.5256  0.2506  1.2471
18432TIP3   OH276786   0.955   3.920   2.617 -0.0099 -0.2833  0.3440
18432TIP3    H176787   0.929   3.924   2.526  0.6881 -2.3447  0.0148
18432TIP3    H276788   1.004   4.002   2.631 -2.0012  1.1087 -0.4553
18433TIP3   OH276789   4.443   4.878   3.952 -0.1526 -0.0222 -0.5549
18433TIP3    H176790   4.443   4.959   4.003  0.4809 -1.0008  1.0534
18433TIP3    H276791   4.535   4.866   3.927 -0.3723  0.1614 -1.5095
18434TIP3   OH276792   5.924   2.799   0.605  0.0146 -0.3300  0.6079
18434TIP3    H176793   5.837   2.808   0.566  0.1425  0.5032  0.4964
18434TIP3    H276794   5.972   2.876   0.574  0.3405 -0.0166  1.8560
18435TIP3   OH276795   2.000   4.777  14.587 -0.0679  0.0030 -0.2430
18435TIP3    H176796   2.042   4.729  14.658  0.1242  1.7930  0.9264
18435TIP3    H276797   2.068   4.835  14.553 -0.8509  1.0377 -0.1125
18436TIP3   OH276798   4.470   5.436   5.068  0.0772 -0.1639 -0.4491
18436TIP3    H176799   4.491   5.507   5.129  0.1174 -0.6786  0.1469
18436TIP3    H276800   4.374   5.429   5.071  0.0954 -0.3398 -0.2710
18437TIP3   OH276801   4.621   6.363  12.836  0.1651 -0.2817 -0.7327
18437TIP3    H176802   4.572   6.332  12.912 -1.6905 -0.7319 -2.0354
18437TIP3    H276803   4.556   6.408  12.783  1.7781  1.5086 -1.2874
18438TIP3   OH276804   6.735   6.616   5.574  0.0967 -0.3684  0.0945
18438TIP3    H176805   6.797   6.611   5.502  0.1614 -0.0011  0.1207
18438TIP3    H276806   6.666   6.673   5.541 -0.8590 -1.7455 -0.3941
18439TIP3   OH276807   2.911   3.677  12.176 -0.0363 -0.3700  0.2306
18439TIP3    H176808   2.847   3.746  12.158  0.7888  0.2908 -0.2267
18439TIP3    H276809   2.984   3.722  12.218  0.5511 -0.9484 -0.1547
18440TIP3   OH276810   0.317   1.182  16.533  0.4001 -0.9128 -0.2791
18440TIP3    H176811   0.257   1.248  16.497  0.2217 -0.5674  0.6057
18440TIP3    H276812   0.347   1.132  16.457 -2.5679 -2.4363 -0.6238
18441TIP3   OH276813   5.223   1.732   1.530 -0.1648  0.0248 -0.1564
18441TIP3    H176814   5.257   1.644   1.515 -1.2643 -0.5301  0.4520
18441TIP3    H276815   5.297   1.790   1.514  0.7637 -1.0569  0.1069
18442TIP3   OH276816   1.478   3.776   4.392 -0.1246  0.2461  0.4221
18442TIP3    H176817   1.533   3.701   4.370  1.8598  1.1290  2.1172
18442TIP3    H276818   1.475   3.828   4.311 -1.3351 -1.4563 -0.7035
18443TIP3   OH276819   6.455   1.236  16.316  0.1691 -0.6144 -0.2880
18443TIP3    H176820   6.472   1.299  16.246 -2.6513  2.6582  1.6287
18443TIP3    H276821   6.505   1.269  16.391 -2.0994 -0.0039  1.0267
18444TIP3   OH276822   4.265   6.652   5.800 -0.2917  0.4574  0.0105
18444TIP3    H176823   4.344   6.625   5.754 -0.9868 -0.1592 -0.8707
18444TIP3    H276824   4.283   6.636   5.892  0.2922 -0.5178 -0.2669
18445TIP3   OH276825   1.561   4.418  16.184  0.4921  0.5905  0.1378
18445TIP3    H176826   1.495   4.420  16.115 -0.3839  3.1487  0.9370
18445TIP3    H276827   1.514   4.385  16.261  0.7964  0.1863  0.1560
18446TIP3   OH276828   4.966   3.504   5.469  0.2775 -0.0623  0.3729
18446TIP3    H176829   5.037   3.554   5.429  0.0893 -0.2602 -0.2247
18446TIP3    H276830   4.904   3.570   5.499 -0.4247  0.0643 -1.2614
18447TIP3   OH276831   0.375   3.705  10.924  0.2424 -0.1874  0.0107
18447TIP3    H176832   0.319   3.767  10.969  1.0053  0.1973  0.4452
18447TIP3    H276833   0.315   3.643  10.884 -0.4802 -0.0260  0.8208
18448TIP3   OH276834   1.372   2.071   1.572  0.0040 -0.0210 -0.3543
18448TIP3    H176835   1.429   2.117   1.634 -1.2828 -0.4249  1.1748
18448TIP3    H276836   1.433   2.035   1.507  1.1092  3.3950 -1.3952
18449TIP3   OH276837   4.988   2.091   1.012  0.2544  0.2232  0.1833
18449TIP3    H176838   5.018   2.105   1.102  0.8655 -2.2451  0.4530
18449TIP3    H276839   5.068   2.073   0.963 -0.2366 -0.5130 -0.3764
18450TIP3   OH276840   6.175   1.757  15.228 -0.3698 -0.0918 -0.2523
18450TIP3    H176841   6.108   1.801  15.176 -0.8891 -2.2132 -1.4888
18450TIP3    H276842   6.232   1.828  15.259 -2.3257  1.6219 -0.3819
18451TIP3   OH276843   0.291   1.666   0.258  0.6770 -0.7977  0.1073
18451TIP3    H176844   0.325   1.750   0.290 -0.3650 -0.6609  0.9196
18451TIP3    H276845   0.364   1.627   0.209  0.9089  0.9348 -0.9788
18452TIP3   OH276846   0.150   4.519  11.257 -0.7434  0.0683 -0.1983
18452TIP3    H176847   0.116   4.474  11.334 -0.1183  0.4376  0.3068
18452TIP3    H276848   0.082   4.583  11.235  0.3476  2.1175  1.9538
18453TIP3   OH276849   5.385   0.786  13.885  0.5438  0.2426  0.1803
18453TIP3    H176850   5.449   0.721  13.915  0.8513  0.9469  1.1005
18453TIP3    H276851   5.426   0.870  13.904  0.2236  0.7188 -1.1536
18454TIP3   OH276852   6.525   5.184   1.589 -0.1040 -1.2229 -0.4387
18454TIP3    H176853   6.555   5.116   1.529  1.1764 -1.5738  0.5583
18454TIP3    H276854   6.523   5.142   1.675 -1.4118 -0.5939 -0.1292
18455TIP3   OH276855   0.271   2.427   2.876 -0.4256 -0.0729  0.4660
18455TIP3    H176856   0.329   2.402   2.805 -1.3949 -1.9146  0.2679
18455TIP3    H276857   0.329   2.460   2.944  0.7505 -0.8462 -0.1353
18456TIP3   OH276858   3.718   4.907  16.644 -0.0612  0.1534  0.4630
18456TIP3    H176859   3.794   4.878  16.694 -0.2667  1.2098  1.4161
18456TIP3    H276860   3.755   4.943  16.563  0.3423 -0.6446  0.2868
18457TIP3   OH276861   6.521   6.427  17.094  0.6714 -0.6100  0.0693
18457TIP3    H176862   6.429   6.430  17.121  1.6115 -2.9619  4.3691
18457TIP3    H276863   6.531   6.340  17.055  1.3081 -0.8969  0.8501
18458TIP3   OH276864   5.568   2.445  12.226 -0.7390  0.2120 -0.0418
18458TIP3    H176865   5.586   2.538  12.212  1.0506 -0.3393 -2.0179
18458TIP3    H276866   5.649   2.411  12.265 -0.9368 -0.6881 -0.3771
18459TIP3   OH276867   1.596   1.453   3.499  0.0450  0.0318  0.1945
18459TIP3    H176868   1.525   1.454   3.563  0.5934  0.3302  0.8037
18459TIP3    H276869   1.661   1.513   3.534  0.5723 -0.1824 -0.3998
18460TIP3   OH276870   4.405   0.877   6.273 -0.2041  0.1006  0.1500
18460TIP3    H176871   4.397   0.895   6.366 -0.7945  0.8106 -0.0214
18460TIP3    H276872   4.367   0.790   6.261 -0.2916  0.0842  0.5470
18461TIP3   OH276873   0.958   3.119   4.611 -0.0449  0.7042 -0.1804
18461TIP3    H176874   0.873   3.093   4.577  0.3865 -0.0651 -0.6957
18461TIP3    H276875   0.993   3.040   4.653  0.9772  0.6143 -1.1531
18462TIP3   OH276876   3.869   5.323  16.115 -0.3814  0.1582  0.3421
18462TIP3    H176877   3.902   5.396  16.063  3.8640 -0.0461  2.3389
18462TIP3    H276878   3.925   5.249  16.091 -1.6861 -1.2759  1.5147
18463TIP3   OH276879   1.458   1.194   1.241  0.1731  0.5224  0.2748
18463TIP3    H176880   1.422   1.177   1.154 -0.7008 -0.0645  0.7365
18463TIP3    H276881   1.551   1.209   1.226  0.3659 -1.3282 -0.5592
18464TIP3   OH276882   6.104   1.118   5.752  0.1672 -0.0802 -0.1035
18464TIP3    H176883   6.066   1.167   5.825  1.7576  0.0188  0.6935
18464TIP3    H276884   6.185   1.082   5.787 -0.3718 -2.3513 -1.0092
18465TIP3   OH276885   5.821   1.416  10.547  0.5610  1.0742 -0.1467
18465TIP3    H176886   5.909   1.446  10.526  0.2383  3.3283  1.4222
18465TIP3    H276887   5.779   1.491  10.588 -1.5381 -0.4774  0.7146
18466TIP3   OH276888   3.737   1.903  13.833  0.2699 -0.1058  0.0833
18466TIP3    H176889   3.678   1.918  13.759  1.1356  0.4116 -0.5116
18466TIP3    H276890   3.783   1.986  13.845  0.3715 -0.2871  1.0000
18467TIP3   OH276891   4.131   5.241   4.579 -0.3501 -0.0338  0.1802
18467TIP3    H176892   4.062   5.208   4.521 -0.0466 -0.9791  0.3405
18467TIP3    H276893   4.137   5.334   4.558 -0.1977 -0.3623 -1.3564
18468TIP3   OH276894   4.394   1.887  14.005  0.1370  0.1831 -0.3056
18468TIP3    H176895   4.376   1.794  14.012 -0.7247  0.1894 -1.8654
18468TIP3    H276896   4.334   1.929  14.067  0.2200 -0.2678  0.0793
18469TIP3   OH276897   6.776   6.575   2.790  0.0028  0.0904 -0.7987
18469TIP3    H176898   6.683   6.576   2.769 -0.1017 -0.7257 -0.4194
18469TIP3    H276899   6.809   6.494   2.750  0.3892 -0.0161 -0.2699
18470TIP3   OH276900   3.384   6.741   5.179  0.3289  0.6859  0.4460
18470TIP3    H176901   3.388   6.802   5.105 -3.9180  0.6656 -0.0205
18470TIP3    H276902   3.420   6.659   5.144 -0.1998  1.0928 -1.1366
18471TIP3   OH276903   3.933   4.794  16.734 -0.1840 -0.2497 -0.1905
18471TIP3    H176904   4.019   4.834  16.721  0.6546 -1.8477  0.2445
18471TIP3    H276905   3.935   4.759  16.823 -0.8776 -1.2721 -0.5553
18472TIP3   OH276906   4.909   3.492   2.508  0.1872  0.2870 -0.4984
18472TIP3    H176907   4.829   3.493   2.561  0.9049  2.1976  0.6224
18472TIP3    H276908   4.929   3.399   2.499 -1.7604 -0.2226 -0.2197
18473TIP3   OH276909   4.002   5.384   0.999 -0.1382 -0.0576 -0.4052
18473TIP3    H176910   3.995   5.296   0.963  0.2426  0.1676 -1.0366
18473TIP3    H276911   3.955   5.439   0.937 -1.3200  0.0454  0.5433
18474TIP3   OH276912   0.696   5.324  16.306  0.7911  0.0591  0.6958
18474TIP3    H176913   0.743   5.348  16.227 -0.4952  0.3261 -0.0206
18474TIP3    H276914   0.684   5.407  16.353  1.7949 -0.1368  1.3315
18475TIP3   OH276915   6.244   1.316  10.960 -0.4398 -1.0198  0.5017
18475TIP3    H176916   6.200   1.239  10.996  0.5396 -0.9245  1.9970
18475TIP3    H276917   6.219   1.317  10.868 -2.6835 -1.5546  1.0405
18476TIP3   OH276918   4.580   2.978   3.911  0.0013 -0.4856 -0.1202
18476TIP3    H176919   4.491   2.998   3.942 -0.4950 -0.4530 -1.5081
18476TIP3    H276920   4.616   2.921   3.979  0.1660  2.1152  2.1771
18477TIP3   OH276921   2.863   3.755  10.906  0.3182 -0.6288  0.2244
18477TIP3    H176922   2.918   3.829  10.880 -0.2627 -0.0480  0.5867
18477TIP3    H276923   2.909   3.678  10.874  0.2307 -0.0277 -1.4522
18478TIP3   OH276924   0.141   1.560   0.444  0.3732 -0.3653  0.0850
18478TIP3    H176925   0.189   1.478   0.460  2.0484  0.6849  0.6792
18478TIP3    H276926   0.201   1.613   0.393 -1.1406  0.1126 -1.2901
18479TIP3   OH276927   3.323   1.951   3.485 -0.0369 -0.2386 -0.4004
18479TIP3    H176928   3.383   1.877   3.494  0.6002 -0.0566 -2.5473
18479TIP3    H276929   3.287   1.963   3.573  0.7762 -2.2825  0.2913
18480TIP3   OH276930   6.561   3.900   5.013  0.0911 -0.4921  0.1758
18480TIP3    H176931   6.647   3.916   4.974 -0.4258 -2.1413 -1.8386
18480TIP3    H276932   6.532   3.986   5.044  2.0195  0.2756  0.0172
18481TIP3   OH276933   4.579   0.885   2.373  0.2076  0.0039  0.3845
18481TIP3    H176934   4.596   0.939   2.450  0.4207 -1.0809  1.1162
18481TIP3    H276935   4.522   0.815   2.404  0.1237 -0.3367 -0.4928
18482TIP3   OH276936   0.329   3.085   1.983 -0.2392  0.3131 -0.2994
18482TIP3    H176937   0.364   3.164   1.941  2.3758  0.3196  1.5985
18482TIP3    H276938   0.395   3.018   1.964 -2.1762 -1.3534 -1.4627
18483TIP3   OH276939   6.279   5.041   2.758 -0.2055 -0.2646  0.3051
18483TIP3    H176940   6.280   5.124   2.806  1.1130 -0.8428  1.3415
18483TIP3    H276941   6.231   4.981   2.815  0.1713 -0.6060  0.2671
18484TIP3   OH276942   2.984   6.643   0.360 -0.3664  0.5221  0.0823
18484TIP3    H176943   3.000   6.677   0.448  0.3844  0.0974  0.1166
18484TIP3    H276944   3.034   6.562   0.356 -1.7187 -0.3320 -0.1801
18485TIP3   OH276945   5.962   4.708  15.150  0.2482  0.8230  0.2177
18485TIP3    H176946   5.985   4.736  15.239  0.1483  1.5722  0.0102
18485TIP3    H276947   5.954   4.789  15.100  0.0461  0.4197 -0.4191
18486TIP3   OH276948   0.498   3.218   4.997 -0.1198  0.0845 -0.9849
18486TIP3    H176949   0.504   3.262   4.912  0.5439  1.2304 -0.3697
18486TIP3    H276950   0.581   3.238   5.040  0.4469 -2.2787 -0.8799
18487TIP3   OH276951   3.075   3.789  16.218  0.9709  0.3337  0.1400
18487TIP3    H176952   3.086   3.714  16.277 -0.4917 -0.3270 -0.3710
18487TIP3    H276953   3.130   3.768  16.143  1.4544  0.3236  0.4899
18488TIP3   OH276954   1.735   0.039   5.110 -0.3496 -0.1004 -0.2454
18488TIP3    H176955   1.721   0.097   5.186 -2.1479  0.4981 -0.9769
18488TIP3    H276956   1.794  -0.029   5.143  0.6692  1.3286  1.0600
18489TIP3   OH276957   2.681   0.470  13.291  0.3021 -0.1023 -0.4181
18489TIP3    H176958   2.741   0.464  13.365 -1.5688  0.4343  1.2446
18489TIP3    H276959   2.671   0.564  13.276 -0.1043 -0.1865 -0.6817
18490TIP3   OH276960   6.555   2.399   4.384 -0.1705  0.5298 -0.4458
18490TIP3    H176961   6.606   2.335   4.434  1.2574  1.5628 -0.5083
18490TIP3    H276962   6.471   2.402   4.429  0.4169  0.0328  0.7491
18491TIP3   OH276963   2.921   1.544   4.120  0.3981  0.5202 -0.1225
18491TIP3    H176964   2.900   1.580   4.034  0.2949  0.4955 -0.1078
18491TIP3    H276965   2.882   1.605   4.182 -2.5576 -1.2153 -0.0939
18492TIP3   OH276966   1.339   6.320   6.078  1.1329  0.1241  0.7155
18492TIP3    H176967   1.411   6.287   6.131 -0.1374 -0.4310  2.1638
18492TIP3    H276968   1.291   6.242   6.052  1.4807  0.4256 -0.9321
18493TIP3   OH276969   4.695   4.255   5.352  0.4824 -0.0968 -0.4425
18493TIP3    H176970   4.636   4.327   5.330 -0.8786 -0.9568  0.2266
18493TIP3    H276971   4.639   4.191   5.396  2.3130 -0.1039  2.0391
18494TIP3   OH276972   0.676   1.469  14.228 -0.1025  0.9681  0.0892
18494TIP3    H176973   0.666   1.492  14.136 -1.7159 -0.8981 -0.2595
18494TIP3    H276974   0.769   1.448  14.237  0.2326  1.9248 -0.8992
18495TIP3   OH276975   5.544   0.992   4.794  0.0642 -0.6203  0.2679
18495TIP3    H176976   5.480   0.978   4.724  0.3259  0.8093 -0.2812
18495TIP3    H276977   5.627   1.008   4.749  0.3659 -0.3047  0.9180
18496TIP3   OH276978   3.615   3.320   5.516  0.1924  0.2028 -0.0653
18496TIP3    H176979   3.631   3.373   5.594 -2.3540  1.2809 -0.1838
18496TIP3    H276980   3.570   3.242   5.548  0.0159  0.1886 -0.3434
18497TIP3   OH276981   0.328   2.802   4.382  0.2727  0.6545 -0.3257
18497TIP3    H176982   0.345   2.708   4.388 -0.8199  0.3849 -1.1390
18497TIP3    H276983   0.317   2.831   4.473 -1.0865 -0.3544 -0.1330
18498TIP3   OH276984   5.214   3.729  14.482  0.5907  0.0292 -0.5409
18498TIP3    H176985   5.158   3.757  14.554  1.4669 -1.1089  0.6280
18498TIP3    H276986   5.182   3.642  14.458  1.8840 -0.7124  0.2549
18499TIP3   OH276987   0.117   0.695   4.439  0.2927  0.0805 -0.3618
18499TIP3    H176988   0.055   0.766   4.424  0.4497  0.2704 -0.1258
18499TIP3    H276989   0.198   0.739   4.467  0.2820 -0.2049  0.1369
18500TIP3   OH276990   3.843   6.732  16.917  0.0380 -0.1143 -0.0377
18500TIP3    H176991   3.850   6.808  16.975  1.0928  0.3998 -0.7985
18500TIP3    H276992   3.928   6.689  16.924  0.3822  0.2470 -1.5468
18501TIP3   OH276993   3.277   3.037   3.177  0.0264 -1.0163 -0.4378
18501TIP3    H176994   3.216   2.968   3.151  0.6328 -1.3736 -0.9465
18501TIP3    H276995   3.339   2.993   3.236 -1.1233 -0.3013  1.4141
18502TIP3   OH276996   5.961   2.842  13.019  0.9513 -0.3670 -0.2473
18502TIP3    H176997   5.928   2.850  12.930  2.3554 -0.2924 -0.7824
18502TIP3    H276998   5.882   2.840  13.074  0.0800 -0.1487 -1.4564
18503TIP3   OH276999   5.101   3.415   3.363 -0.6450  0.0927  0.3136
18503TIP3    H177000   5.095   3.494   3.416 -2.2330  0.1449  0.1033
18503TIP3    H277001   5.136   3.349   3.423  0.1694  0.8027  0.6438
18504TIP3   OH277002   2.968   0.982   4.657 -0.3539  0.1763 -0.2573
18504TIP3    H177003   2.881   1.021   4.649 -1.2756 -1.6279  0.3945
18504TIP3    H277004   2.951   0.888   4.668  1.7234 -0.3449 -1.1067
18505TIP3   OH277005   5.519   5.423  15.481  0.2817  0.3086  0.2398
18505TIP3    H177006   5.586   5.403  15.416  1.1657  1.2470  0.8262
18505TIP3    H277007   5.465   5.492  15.441 -1.2433 -1.3992 -0.7912
18506TIP3   OH277008   2.408   3.448   2.036  0.1027  0.6019  0.5001
18506TIP3    H177009   2.487   3.473   2.082 -0.6446 -0.4132  2.4409
18506TIP3    H277010   2.340   3.448   2.103 -0.9977 -1.0856 -0.5415
18507TIP3   OH277011   5.757   2.177   6.156  0.2700 -0.2323 -0.5612
18507TIP3    H177012   5.768   2.086   6.183  0.6275 -0.5719 -1.8010
18507TIP3    H277013   5.838   2.221   6.182 -0.8230  0.3640  2.2769
18508TIP3   OH277014   6.066   4.162   3.719  0.0734 -0.2454  0.7360
18508TIP3    H177015   6.150   4.156   3.674  1.6315  1.3307  3.1956
18508TIP3    H277016   6.048   4.074   3.750  0.6277 -0.6614 -0.0977
18509TIP3   OH277017   1.098   5.500  12.605 -0.2608 -0.2943 -0.5098
18509TIP3    H177018   1.164   5.551  12.650  0.7720 -2.6745  0.8780
18509TIP3    H277019   1.147   5.433  12.557 -1.5957 -1.4959 -0.2855
18510TIP3   OH277020   5.922   1.371  14.442 -0.1132  0.3602  0.0008
18510TIP3    H177021   5.840   1.409  14.410 -2.1260 -1.2774  2.8059
18510TIP3    H277022   5.935   1.410  14.528  1.3346 -0.4579  0.1850
18511TIP3   OH277023   3.614   4.173   2.386 -0.2018 -0.0721  0.4939
18511TIP3    H177024   3.576   4.201   2.302  0.0560  0.1797  0.4604
18511TIP3    H277025   3.635   4.081   2.372 -0.1406 -0.0273  0.2738
18512TIP3   OH277026   2.168   4.545   1.067  0.2120 -0.7034 -0.0920
18512TIP3    H177027   2.111   4.470   1.081 -1.9486  0.8141 -0.1971
18512TIP3    H277028   2.167   4.559   0.973 -1.1485  0.6294  0.0624
18513TIP3   OH277029   5.323   2.789  13.463 -0.0239  0.0766  0.2029
18513TIP3    H177030   5.315   2.869  13.515 -1.2035  0.0225  0.1368
18513TIP3    H277031   5.375   2.814  13.387  0.6987  0.4539  0.8175
18514TIP3   OH277032   4.123   0.059  16.440 -0.7698  0.1085 -0.3964
18514TIP3    H177033   4.167   0.101  16.514 -1.0083  1.8159 -1.1870
18514TIP3    H277034   4.150  -0.033  16.446  0.1703  0.4384  1.1043
18515TIP3   OH277035   3.770   1.296  11.412  0.4214  0.0853  0.1693
18515TIP3    H177036   3.693   1.312  11.467 -0.7863 -1.3948 -0.9790
18515TIP3    H277037   3.802   1.211  11.440  0.5327 -0.1242 -0.5621
18516TIP3   OH277038   1.283   2.339  13.615 -0.7765  0.0212 -0.1512
18516TIP3    H177039   1.319   2.255  13.586 -0.6736  0.7882 -2.4289
18516TIP3    H277040   1.189   2.331  13.601 -0.7450  0.3504 -0.5605
18517TIP3   OH277041   2.218   0.838   1.449 -0.0809  0.0490  0.3854
18517TIP3    H177042   2.257   0.792   1.523  0.6769 -0.4964 -0.3375
18517TIP3    H277043   2.168   0.771   1.402 -0.4151  0.3508  0.3026
18518TIP3   OH277044   6.831   1.852   5.040 -0.3393  0.4200 -0.2152
18518TIP3    H177045   6.741   1.870   5.011 -0.6499  0.4378  0.7245
18518TIP3    H277046   6.828   1.762   5.072 -0.1824  0.6319  0.4112
18519TIP3   OH277047   3.881   5.607   4.769 -0.6261 -0.0525 -0.6077
18519TIP3    H177048   3.810   5.664   4.800 -0.2443  1.3113 -2.0948
18519TIP3    H277049   3.851   5.575   4.684 -0.2032 -0.9086 -0.4431
18520TIP3   OH277050   4.611   0.317   0.185  0.1759 -0.4646  0.5708
18520TIP3    H177051   4.619   0.229   0.149 -1.0953 -0.9350  1.3692
18520TIP3    H277052   4.553   0.307   0.261 -3.2773  1.6202 -1.5187
18521TIP3   OH277053   4.269   2.134   1.809 -0.1743 -0.5377 -0.6478
18521TIP3    H177054   4.222   2.072   1.754  0.8486  0.1086 -2.3170
18521TIP3    H277055   4.224   2.217   1.795 -2.1205 -0.9288  2.2764
18522TIP3   OH277056   3.639   3.808  15.460 -0.2256 -1.2405  0.6650
18522TIP3    H177057   3.578   3.772  15.524  0.1154  0.2973  1.8967
18522TIP3    H277058   3.721   3.819  15.507  0.5864 -1.7837 -0.5487
18523TIP3   OH277059   4.643   1.986   4.365  0.1455 -0.4183  0.1510
18523TIP3    H177060   4.733   1.968   4.393  0.5018  0.4611 -0.4044
18523TIP3    H277061   4.647   2.072   4.323 -0.8734 -0.5667 -0.2824
18524TIP3   OH277062   2.858   6.666  14.773 -0.2998  0.0507 -0.4795
18524TIP3    H177063   2.920   6.703  14.711  0.0953  1.0396  0.4761
18524TIP3    H277064   2.785   6.727  14.775 -0.9311 -0.6689 -0.9570
18525TIP3   OH277065   3.396   2.504  16.328 -0.2822  0.2188  0.3834
18525TIP3    H177066   3.447   2.432  16.364  0.2096  1.2046  1.7751
18525TIP3    H277067   3.410   2.500  16.234  0.9781 -0.5650  0.5883
18526TIP3   OH277068   1.856   5.142  14.860  0.6879  0.0400 -0.6508
18526TIP3    H177069   1.896   5.227  14.874 -0.8516  0.6183  0.6235
18526TIP3    H277070   1.833   5.141  14.767 -1.6228  2.1710 -0.2048
18527TIP3   OH277071   4.436   1.096  15.758  0.8202  0.2862  0.2469
18527TIP3    H177072   4.529   1.119  15.761  0.9526 -0.2393  0.2891
18527TIP3    H277073   4.434   1.002  15.775  0.4651 -0.1647 -1.9782
18528TIP3   OH277074   6.074   3.472   0.934  0.3442 -0.0322 -0.3875
18528TIP3    H177075   6.098   3.563   0.921  0.5247 -0.0856 -0.4284
18528TIP3    H277076   6.036   3.470   1.022  2.3046 -0.2927  0.5114
18529TIP3   OH277077   1.961   2.483  16.877 -0.7049 -0.2646  0.2114
18529TIP3    H177078   1.904   2.407  16.864 -1.5655  0.6029 -1.2395
18529TIP3    H277079   2.048   2.453  16.849 -0.6886 -1.1795  1.1751
18530TIP3   OH277080   6.307   4.875  11.978  0.2924  0.1989  0.1562
18530TIP3    H177081   6.365   4.950  11.990 -0.3476  0.8269 -0.5682
18530TIP3    H277082   6.242   4.883  12.048 -0.4107  0.9489 -0.5597
18531TIP3   OH277083   5.521   3.482   2.876  0.0005  0.0480 -0.2923
18531TIP3    H177084   5.610   3.463   2.846  0.1276 -1.1937  0.7952
18531TIP3    H277085   5.518   3.578   2.882  1.8773  0.0606  1.4468
18532TIP3   OH277086   0.117   4.214  14.591 -0.7559  0.1972 -0.5002
18532TIP3    H177087   0.115   4.251  14.679 -0.2078 -1.9898  0.5077
18532TIP3    H277088   0.176   4.272  14.542 -1.1626  1.5142  0.5239
18533TIP3   OH277089   4.064   0.269   4.646 -0.2447  0.1503  0.1432
18533TIP3    H177090   3.975   0.300   4.663  0.3826  1.4185  1.2089
18533TIP3    H277091   4.098   0.329   4.579 -0.3439 -0.6457 -0.6432
18534TIP3   OH277092   0.663   1.838   2.849  0.0184  0.4748  0.2399
18534TIP3    H177093   0.661   1.784   2.771 -0.0481  1.1426 -0.2307
18534TIP3    H277094   0.706   1.920   2.821 -1.3199  1.3003  0.5208
18535TIP3   OH277095   0.624   0.884  13.938  0.5012  0.6874 -0.1489
18535TIP3    H177096   0.683   0.898  13.863 -1.0962  2.3165 -1.1957
18535TIP3    H277097   0.538   0.873  13.898 -0.3471  1.2772  1.4363
18536TIP3   OH277098   3.879   6.492   2.022 -0.0317  0.0172  0.6038
18536TIP3    H177099   3.967   6.526   2.038 -0.2887  0.6517  0.6855
18536TIP3    H277100   3.826   6.570   2.005 -0.3945 -0.4240 -0.3474
18537TIP3   OH277101   4.451   0.468  14.957  0.1733 -0.0243  0.3504
18537TIP3    H177102   4.442   0.557  14.923  0.3309 -0.5378 -1.1225
18537TIP3    H277103   4.388   0.417  14.906  0.2116 -0.7899  1.0531
18538TIP3   OH277104   1.451   6.058  15.077 -0.3262 -0.1633 -0.7001
18538TIP3    H177105   1.526   6.002  15.096 -0.7066  0.4465  3.6688
18538TIP3    H277106   1.416   6.082  15.163 -3.3464  2.5692 -2.4327
18539TIP3   OH277107   4.966   1.211  12.085  0.5140 -0.0184 -0.2466
18539TIP3    H177108   4.954   1.303  12.060  0.5454 -0.3414 -1.4992
18539TIP3    H277109   4.913   1.162  12.021  1.2251 -0.9227 -0.1537
18540TIP3   OH277110   1.350   5.342  16.818  0.3649  0.2151  0.1999
18540TIP3    H177111   1.323   5.366  16.730 -1.5423  1.5013  1.0488
18540TIP3    H277112   1.361   5.427  16.863  0.4286 -0.4193  1.4271
18541TIP3   OH277113   1.698   3.273   2.025  0.0041 -0.4085 -0.4216
18541TIP3    H177114   1.662   3.355   1.993  0.3302  0.0799  0.4390
18541TIP3    H277115   1.758   3.245   1.956  0.5707  0.5448 -0.3363
18542TIP3   OH277116   5.749   4.264   6.005  0.0366 -0.1372  0.2876
18542TIP3    H177117   5.749   4.274   6.100 -1.9793  0.2992  0.2907
18542TIP3    H277118   5.809   4.331   5.973 -1.5375  1.7731  1.1378
18543TIP3   OH277119   6.141   1.680  10.820 -0.0837 -0.4157 -0.0802
18543TIP3    H177120   6.084   1.729  10.760 -1.6080 -1.3232  0.5796
18543TIP3    H277121   6.203   1.745  10.852 -1.4424  0.8814  0.0307
18544TIP3   OH277122   1.281   6.749  15.757 -0.4054 -0.3720 -0.2501
18544TIP3    H177123   1.239   6.766  15.672  1.5912  2.1823 -0.8435
18544TIP3    H277124   1.362   6.704  15.735  0.1630  0.3748  0.2806
18545TIP3   OH277125   0.452   5.978  12.080  0.2354 -0.0213 -0.3890
18545TIP3    H177126   0.520   6.027  12.127 -1.1600  1.1986  0.4337
18545TIP3    H277127   0.400   5.937  12.149  0.3600 -1.3049 -1.0291
18546TIP3   OH277128   4.338   4.446  13.088  0.4457 -0.3283  0.9506
18546TIP3    H177129   4.361   4.475  13.176 -2.0944  0.8082  1.3234
18546TIP3    H277130   4.264   4.387  13.101  0.1507 -0.2812 -0.4093
18547TIP3   OH277131   1.830   1.189   3.381 -0.8736  0.0462 -0.3641
18547TIP3    H177132   1.851   1.160   3.293 -1.1802 -1.3981  0.0130
18547TIP3    H277133   1.823   1.284   3.374 -0.0117  0.0334 -1.6976
18548TIP3   OH277134   0.433   0.108  16.290  0.0792 -0.2168 -0.2751
18548TIP3    H177135   0.370   0.069  16.350 -1.4649  1.2844 -0.8425
18548TIP3    H277136   0.434   0.048  16.215  0.1977 -0.8417  0.2208
18549TIP3   OH277137   1.014   2.292  13.647 -0.4368 -0.2552  0.5041
18549TIP3    H177138   0.985   2.266  13.559  1.0109 -1.2775  0.2945
18549TIP3    H277139   0.945   2.351  13.678 -1.0678 -0.0026 -1.2456
18550TIP3   OH277140   4.045   1.922  13.027 -0.3115  0.2035 -0.5628
18550TIP3    H177141   4.096   1.844  13.006  0.7760  1.1491 -1.6477
18550TIP3    H277142   4.069   1.942  13.118  1.4839  0.7360 -1.1023
18551TIP3   OH277143   1.519   1.825   1.735  0.5036  0.1953 -0.3342
18551TIP3    H177144   1.544   1.777   1.815 -2.0259 -0.1640  0.3291
18551TIP3    H277145   1.591   1.886   1.721  0.9547  0.4336  2.3707
18552TIP3   OH277146   4.039   1.988   5.072 -0.5977  0.4178  0.4374
18552TIP3    H177147   3.995   1.911   5.037 -0.3808  0.7432 -0.5907
18552TIP3    H277148   4.027   2.055   5.004  2.2896  0.2413 -0.3671
18553TIP3   OH277149   6.048   0.911   0.749 -0.7099 -0.2458 -0.1900
18553TIP3    H177150   6.142   0.896   0.751 -1.0883 -3.4534 -0.8056
18553TIP3    H277151   6.011   0.842   0.804 -2.6865  1.9044  1.3944
18554TIP3   OH277152   3.840   1.513  12.513 -0.1207 -0.1374  0.2060
18554TIP3    H177153   3.871   1.593  12.555  1.0341  0.8415 -2.3137
18554TIP3    H277154   3.904   1.495  12.445 -1.1689 -2.3789 -0.2795
18555TIP3   OH277155   5.031   5.135   0.170 -0.4121 -0.4374 -0.2303
18555TIP3    H177156   5.019   5.144   0.075 -0.7422  0.8979 -0.0800
18555TIP3    H277157   5.122   5.158   0.185 -0.6945  0.6508 -0.0933
18556TIP3   OH277158   1.779   4.335  14.561  0.8634  0.1282  0.1489
18556TIP3    H177159   1.731   4.288  14.629  0.3016 -0.4525 -0.6290
18556TIP3    H277160   1.871   4.312  14.577  0.6342 -0.9538  0.0055
18557TIP3   OH277161   5.742   6.531  16.185  0.8660 -0.1653  0.4299
18557TIP3    H177162   5.686   6.606  16.203  0.6582 -0.6184  1.7828
18557TIP3    H277163   5.704   6.460  16.237  2.3240 -0.6331  0.8906
18558TIP3   OH277164   3.581   2.924  14.179  0.3921 -0.2479 -0.3808
18558TIP3    H177165   3.666   2.968  14.187  1.3447 -1.6864 -1.9847
18558TIP3    H277166   3.519   2.994  14.160  1.5495  0.6195 -1.0661
18559TIP3   OH277167   0.270   3.922   0.768  0.3133 -0.1866  0.0359
18559TIP3    H177168   0.231   3.996   0.722 -0.4105 -1.3257 -1.2511
18559TIP3    H277169   0.215   3.909   0.845  0.1014  0.2545 -0.0402
18560TIP3   OH277170   4.674   2.244  16.359 -0.1034  0.2019 -0.2321
18560TIP3    H177171   4.766   2.234  16.380  0.2035  3.2435  0.3788
18560TIP3    H277172   4.628   2.189  16.423  1.2487 -0.9833 -0.2485
18561TIP3   OH277173   6.089   1.824  15.518 -0.5410 -0.4782  0.4626
18561TIP3    H177174   6.074   1.811  15.424 -0.0518  0.3505  0.2564
18561TIP3    H277175   6.144   1.902  15.523  0.9310 -1.5096  1.3416
18562TIP3   OH277176   1.964   1.748   3.225 -0.1544  0.0800  0.4081
18562TIP3    H177177   1.935   1.680   3.164 -0.9383  0.7141  0.0449
18562TIP3    H277178   2.009   1.701   3.295  0.6609 -0.6720 -0.5963
18563TIP3   OH277179   5.246   2.080  13.142 -0.0401 -0.2403 -0.0786
18563TIP3    H177180   5.157   2.052  13.120 -0.0419  0.6549 -1.3856
18563TIP3    H277181   5.236   2.169  13.176  0.4154  0.4111 -1.5128
18564TIP3   OH277182   3.624   0.545  12.603  0.1657 -0.2472 -0.9587
18564TIP3    H177183   3.586   0.457  12.608  1.9171 -1.1206 -1.9600
18564TIP3    H277184   3.602   0.585  12.687  0.9168 -2.3514  0.3307
18565TIP3   OH277185   6.037   5.400   0.459  0.7299 -0.0432  0.2592
18565TIP3    H177186   6.042   5.306   0.472  1.8211 -0.1610 -0.8635
18565TIP3    H277187   6.123   5.433   0.487  1.0720  0.3576 -1.1818
18566TIP3   OH277188   2.107   3.986  12.532  0.2540 -0.2031 -0.2431
18566TIP3    H177189   2.025   3.977  12.483 -0.4785 -1.4555  1.1247
18566TIP3    H277190   2.122   4.080  12.538 -1.2124  0.0528 -0.3462
18567TIP3   OH277191   1.756   5.433  11.828 -0.0544  0.0359  0.2803
18567TIP3    H177192   1.712   5.518  11.816 -1.3272 -0.7727 -1.2190
18567TIP3    H277193   1.753   5.417  11.922 -3.8626 -0.3381  0.2552
18568TIP3   OH277194   5.747   3.288   3.442  0.2233 -0.0809 -0.4610
18568TIP3    H177195   5.822   3.230   3.453 -0.9359 -1.6474 -0.5065
18568TIP3    H277196   5.764   3.361   3.501  0.9261 -1.3210  0.9435
18569TIP3   OH277197   2.609   5.646  12.836  0.1968  0.2247 -0.0137
18569TIP3    H177198   2.530   5.628  12.887  0.9838 -1.0835  0.8114
18569TIP3    H277199   2.578   5.659  12.747 -0.9912  0.2308  0.3813
18570TIP3   OH277200   6.710   6.476   3.292  0.2275  0.2762  0.0906
18570TIP3    H177201   6.714   6.506   3.201 -0.7259  0.1653  0.0028
18570TIP3    H277202   6.768   6.535   3.340 -0.7035  1.5136 -0.2783
18571TIP3   OH277203   3.919   2.575   3.072 -0.4270  0.2274 -0.3707
18571TIP3    H177204   3.857   2.587   3.000 -1.4558  0.1116  0.4764
18571TIP3    H277205   4.005   2.568   3.029 -0.8241  1.6846 -1.4808
18572TIP3   OH277206   2.598   0.349  15.622 -0.2482 -0.3597 -0.0242
18572TIP3    H177207   2.690   0.324  15.614 -0.6088 -1.3529 -1.3697
18572TIP3    H277208   2.551   0.283  15.572 -1.6191  0.6744 -0.1474
18573TIP3   OH277209   1.235   0.126   4.338  0.3034 -0.2050 -0.0085
18573TIP3    H177210   1.325   0.155   4.352 -0.1317  0.3739  2.0025
18573TIP3    H277211   1.243   0.041   4.294  1.9050 -0.8294  1.3696
18574TIP3   OH277212   6.363   6.210   4.185 -0.2290  0.4932 -0.4256
18574TIP3    H177213   6.433   6.180   4.127  1.2822 -3.8738  3.0833
18574TIP3    H277214   6.406   6.273   4.243 -0.5760  1.5445 -1.2921
18575TIP3   OH277215   0.073   2.900   0.843  0.7088  0.1794 -0.9362
18575TIP3    H177216   0.160   2.926   0.873  0.2029  1.1871 -0.2773
18575TIP3    H277217   0.048   2.968   0.780  0.2546  0.0837 -0.8634
18576TIP3   OH277218   4.550   4.765   2.556  0.4677 -0.1817  0.2625
18576TIP3    H177219   4.454   4.768   2.555  0.4888  1.0988  0.3553
18576TIP3    H277220   4.575   4.760   2.464  0.3069 -0.3831  0.2307
18577TIP3   OH277221   2.413   1.745  14.198  0.3940 -0.3700  0.4596
18577TIP3    H177222   2.357   1.676  14.233 -1.3448  0.6725 -0.1861
18577TIP3    H277223   2.395   1.745  14.104 -0.5265  1.7044  0.5889
18578TIP3   OH277224   0.058   6.241  13.278 -0.2425 -0.2322  0.3662
18578TIP3    H177225   0.022   6.322  13.315  1.6785 -0.0629  2.0497
18578TIP3    H277226  -0.017   6.183  13.269 -1.4705  1.2906  0.3099
18579TIP3   OH277227   0.909   4.602  13.827 -0.1156 -0.3634  0.3684
18579TIP3    H177228   0.817   4.576  13.822  0.6482 -3.2037 -2.4942
18579TIP3    H277229   0.956   4.520  13.845  1.9236  1.0224  1.8315
18580TIP3   OH277230   3.428   6.378  15.510 -0.0316 -0.1113  0.0445
18580TIP3    H177231   3.411   6.472  15.503 -0.4385 -0.1863  0.0088
18580TIP3    H277232   3.415   6.345  15.421  1.4465  0.0131 -0.2422
18581TIP3   OH277233   2.745   4.741   2.871 -0.6417 -0.0324  0.3537
18581TIP3    H177234   2.764   4.691   2.792 -1.3963 -0.2700  0.3171
18581TIP3    H277235   2.793   4.695   2.940 -0.5557 -0.2413  0.1570
18582TIP3   OH277236   2.634   6.169   3.784  0.1103 -0.1427  0.4507
18582TIP3    H177237   2.559   6.226   3.768  1.9558  2.4477  0.3411
18582TIP3    H277238   2.647   6.123   3.701 -1.6453 -1.1048  0.6589
18583TIP3   OH277239   2.157   5.375   0.245 -0.6930 -0.6469 -0.0300
18583TIP3    H177240   2.076   5.327   0.230 -1.0010  0.0940 -0.8358
18583TIP3    H277241   2.132   5.467   0.235  0.3578 -0.4335 -0.9109
18584TIP3   OH277242   0.913   0.245  13.498  0.3505  0.1385  0.3365
18584TIP3    H177243   0.888   0.307  13.429  0.9919  1.3397  1.1360
18584TIP3    H277244   0.894   0.292  13.579 -0.6619 -1.3649  1.0028
18585TIP3   OH277245   2.539   4.658  15.516  0.2608 -0.0688  0.2352
18585TIP3    H177246   2.572   4.582  15.564 -0.3585  0.1186  0.9968
18585TIP3    H277247   2.617   4.707  15.490  0.7299 -1.5567 -1.3143
18586TIP3   OH277248   6.765   6.818   0.718 -0.0271 -0.0930 -0.5123
18586TIP3    H177249   6.726   6.731   0.721  0.3104 -0.2718 -1.1348
18586TIP3    H277250   6.802   6.825   0.630 -1.1548  1.1714 -0.9204
18587TIP3   OH277251   0.924   4.956   3.632  0.1007 -0.4235  0.1125
18587TIP3    H177252   0.920   4.882   3.693  0.9786 -0.1531  0.5088
18587TIP3    H277253   0.995   4.934   3.572  0.2617  0.0190  0.1347
18588TIP3   OH277254   2.557   3.623   6.029 -0.5444 -0.3946  0.1284
18588TIP3    H177255   2.630   3.567   6.054  1.0160  1.2412 -0.5554
18588TIP3    H277256   2.498   3.622   6.105  0.9886 -0.4605  1.3606
18589TIP3   OH277257   3.479   2.799   2.704 -0.3368 -0.1876  0.0218
18589TIP3    H177258   3.448   2.885   2.733  0.3906  0.6603 -1.5455
18589TIP3    H277259   3.565   2.789   2.745 -0.3202 -0.0499  0.0210
18590TIP3   OH277260   6.725   5.536  14.075  0.3254 -0.5562  0.8893
18590TIP3    H177261   6.682   5.549  13.990  1.8193  0.8532  0.2865
18590TIP3    H277262   6.790   5.607  14.080  0.5612 -0.8460  3.0385
18591TIP3   OH277263   6.496   3.207  11.905  0.4232  0.2343 -0.2665
18591TIP3    H177264   6.559   3.141  11.933 -0.0368 -0.1210 -0.0422
18591TIP3    H277265   6.548   3.272  11.857  0.4991 -1.8462 -3.2898
18592TIP3   OH277266   6.170   1.319   4.205  0.4046  0.3679 -0.1383
18592TIP3    H177267   6.091   1.374   4.204  0.6754  0.9253  2.5342
18592TIP3    H277268   6.240   1.379   4.231  0.9056 -0.9511  1.7287
18593TIP3   OH277269   1.733   4.229   2.593  0.3155  0.0806  0.2844
18593TIP3    H177270   1.664   4.170   2.624 -0.8544  0.8468 -0.7274
18593TIP3    H277271   1.686   4.309   2.567  1.4780  0.3486 -1.1447
18594TIP3   OH277272   3.638   3.722   5.493 -0.0916  0.2749  0.1889
18594TIP3    H177273   3.683   3.787   5.439  0.1126  0.9406  1.1348
18594TIP3    H277274   3.700   3.701   5.562 -0.6123 -0.0298  0.5727
18595TIP3   OH277275   0.907   3.890  13.710 -0.2382  0.7668  0.0636
18595TIP3    H177276   0.892   3.918  13.800 -0.6715  0.7267  0.0063
18595TIP3    H277277   0.863   3.957  13.657  0.0499  0.8133 -0.1216
18596TIP3   OH277278   4.414   1.755  11.383  0.7514 -0.0412  0.4843
18596TIP3    H177279   4.422   1.797  11.298  0.5433  1.7857  1.3317
18596TIP3    H277280   4.336   1.699  11.376 -0.2650  1.3926 -0.0253
18597TIP3   OH277281   5.324   2.212   2.097  0.0047 -0.6069 -0.1081
18597TIP3    H177282   5.249   2.153   2.083 -1.8267  1.2451  1.2847
18597TIP3    H277283   5.327   2.266   2.019  0.5725 -1.3516 -0.6154
18598TIP3   OH277284   2.128   0.577   3.989 -0.1187 -0.3524 -0.4222
18598TIP3    H177285   2.197   0.580   4.056 -0.5169  3.1347  0.0225
18598TIP3    H277286   2.164   0.520   3.921  1.0825 -2.5559  1.8522
18599TIP3   OH277287   3.451   4.440  10.878  0.1895 -0.2835  0.6614
18599TIP3    H177288   3.518   4.379  10.906 -0.7407 -0.5262  2.4604
18599TIP3    H277289   3.369   4.391  10.885 -0.2697  0.1719 -0.9914
18600TIP3   OH277290   5.208   2.410  11.588  0.1650 -0.5780  0.5187
18600TIP3    H177291   5.158   2.466  11.648  0.0949 -1.4829  1.3360
18600TIP3    H277292   5.142   2.358  11.543  0.2972 -0.8446  0.6347
18601TIP3   OH277293   5.229   4.464  15.043 -0.0853 -0.7072  0.0378
18601TIP3    H177294   5.274   4.486  14.961 -0.5186 -0.2522 -0.0817
18601TIP3    H277295   5.148   4.422  15.015 -0.7368  0.4114  0.2002
18602TIP3   OH277296   5.696   3.522  15.063  0.6471 -0.3170  0.0937
18602TIP3    H177297   5.722   3.442  15.109 -0.3663 -1.0529 -0.5488
18602TIP3    H277298   5.716   3.504  14.971 -0.7700 -0.3803 -0.2399
18603TIP3   OH277299   1.281   5.481   1.794 -0.0965 -0.0535  0.4714
18603TIP3    H177300   1.212   5.441   1.847  0.7909 -1.2088  0.8008
18603TIP3    H277301   1.277   5.435   1.710 -0.3950  0.5977  0.1257
18604TIP3   OH277302   0.446   1.814  11.992  0.1161  0.2694 -0.4370
18604TIP3    H177303   0.375   1.780  12.046 -1.0387  1.9650 -0.8241
18604TIP3    H277304   0.520   1.826  12.052 -0.4550  0.0663  0.3090
18605TIP3   OH277305   0.253   6.301  12.171  0.1646 -0.4227 -0.2543
18605TIP3    H177306   0.291   6.236  12.230 -1.0857 -1.3755 -0.4357
18605TIP3    H277307   0.253   6.382  12.221  0.7935 -0.7988  0.3731
18606TIP3   OH277308   0.077   0.808  12.066 -0.2673 -0.0221 -0.7264
18606TIP3    H177309   0.069   0.834  11.974  3.3101 -1.0470 -1.4852
18606TIP3    H277310   0.123   0.881  12.108  0.3471 -0.6060 -0.3655
18607TIP3   OH277311   3.626   3.446   5.777  0.0878 -0.2168  0.4752
18607TIP3    H177312   3.721   3.438   5.775  0.1719 -0.0710  2.1262
18607TIP3    H277313   3.595   3.361   5.808 -0.3451 -0.3386 -0.2745
18608TIP3   OH277314   2.453   0.285   3.568  0.2989  0.7790 -0.1598
18608TIP3    H177315   2.481   0.272   3.658  3.7456 -0.0112 -1.2096
18608TIP3    H277316   2.495   0.366   3.540 -0.9428  1.1695 -1.0349
18609TIP3   OH277317   5.347   0.627   0.947  0.2425  0.1750  0.2548
18609TIP3    H177318   5.325   0.616   1.040 -0.8468  0.1253 -0.0004
18609TIP3    H277319   5.389   0.544   0.923 -0.5131 -0.2643  0.4193
18610TIP3   OH277320   4.107   4.153  13.716 -0.1209 -0.1966 -0.0107
18610TIP3    H177321   4.135   4.082  13.658 -1.4635 -1.7982  1.1861
18610TIP3    H277322   4.116   4.232  13.664  0.8492 -1.3058 -1.6163
18611TIP3   OH277323   4.340   4.751  12.337 -0.2530  0.1477  0.3320
18611TIP3    H177324   4.337   4.729  12.431 -2.2450 -0.5059  0.1547
18611TIP3    H277325   4.310   4.672  12.293 -1.4337  1.1381 -0.7182
18612TIP3   OH277326   6.650   3.335   3.001 -0.2808 -0.5647  0.2796
18612TIP3    H177327   6.723   3.341   3.063  0.2641 -1.3383 -0.2639
18612TIP3    H277328   6.693   3.329   2.916 -1.0198  0.3629 -0.1733
18613TIP3   OH277329   6.771   4.761  12.669  0.0761  0.1604 -0.2036
18613TIP3    H177330   6.696   4.820  12.660 -1.6954 -1.7023  1.2379
18613TIP3    H277331   6.742   4.680  12.626  0.6976 -1.0340  1.5068
18614TIP3   OH277332   0.554   6.281   4.998  0.2092 -0.3260  0.1816
18614TIP3    H177333   0.506   6.199   5.006  0.3178 -0.3905  0.1776
18614TIP3    H277334   0.524   6.318   4.915 -2.0820  1.1055  1.5264
18615TIP3   OH277335   4.947   5.534   1.125 -0.6817  0.1843 -0.0254
18615TIP3    H177336   4.945   5.547   1.030 -0.0788 -0.8812 -0.2069
18615TIP3    H277337   4.916   5.444   1.137  1.1499 -0.4302  0.5903
18616TIP3   OH277338   5.948   3.405   1.415  0.9080 -0.3751 -0.5514
18616TIP3    H177339   5.861   3.380   1.383  0.6101 -3.4867  2.2083
18616TIP3    H277340   5.932   3.437   1.504  2.5145 -0.0974 -0.3376
18617TIP3   OH277341   2.462   6.566   3.388  0.2020 -0.0677 -0.6347
18617TIP3    H177342   2.422   6.541   3.472  0.8284  1.3807  0.1264
18617TIP3    H277343   2.472   6.483   3.342 -0.6450 -0.8450  0.4981
18618TIP3   OH277344   0.621   3.022  15.310 -0.3437  0.4904 -0.3204
18618TIP3    H177345   0.542   2.971  15.291 -0.0550 -0.2571  0.4213
18618TIP3    H277346   0.679   2.961  15.355  0.2824  1.3052  0.0092
18619TIP3   OH277347   1.957   3.437  11.564  0.3113 -0.3222 -0.1434
18619TIP3    H177348   1.961   3.403  11.474  0.3953 -0.4675 -0.0844
18619TIP3    H277349   2.030   3.498  11.570  0.5238 -0.5845 -0.0608
18620TIP3   OH277350   6.196   3.210  11.527  0.3175 -0.3204 -0.1724
18620TIP3    H177351   6.215   3.201  11.621 -2.2781  0.4572  0.5173
18620TIP3    H277352   6.201   3.121  11.493  2.0830 -0.5177  0.4900
18621TIP3   OH277353   1.097   6.704   2.452  0.5478 -0.2982  0.0007
18621TIP3    H177354   1.183   6.729   2.484  0.3090  0.8286 -0.1824
18621TIP3    H277355   1.040   6.710   2.529  0.4451 -0.0075 -0.0932
18622TIP3   OH277356   0.638   0.673  12.634  0.1563  0.2205  0.3837
18622TIP3    H177357   0.648   0.635  12.721  0.1688  0.3319  0.4316
18622TIP3    H277358   0.709   0.636  12.583  0.1748  0.1882  0.4332
18623TIP3   OH277359   5.390   1.739  11.534  0.0148  0.1637 -0.3421
18623TIP3    H177360   5.421   1.654  11.566  0.7295  0.4428 -0.2749
18623TIP3    H277361   5.457   1.801  11.563  0.0244  0.6025 -1.2797
18624TIP3   OH277362   4.062   1.853  13.624  0.2554 -0.0922 -0.0164
18624TIP3    H177363   4.038   1.806  13.544  0.9873 -0.0640 -0.2648
18624TIP3    H277364   4.080   1.783  13.687 -0.5887 -0.1106  0.2094
18625TIP3   OH277365   1.156   4.106  13.944  0.0703  0.9403 -0.0935
18625TIP3    H177366   1.143   4.178  14.006  1.7186  0.1890  1.1962
18625TIP3    H277367   1.114   4.031  13.985  0.9128  0.5044 -0.0065
18626TIP3   OH277368   1.069   1.501  15.667  0.0891  0.4700 -0.6192
18626TIP3    H177369   1.017   1.559  15.723 -1.7102 -1.5679 -0.0203
18626TIP3    H277370   1.008   1.432  15.642  2.0851 -1.0900 -1.4168
18627TIP3   OH277371   2.041   0.038   4.740  0.5060  0.2763  0.1723
18627TIP3    H177372   1.952   0.038   4.775  0.3503  0.0183 -0.2158
18627TIP3    H277373   2.041  -0.032   4.675  1.3712 -0.6114  1.1017
18628TIP3   OH277374   0.116   2.864  14.383  0.7915 -0.1278 -0.3249
18628TIP3    H177375   0.083   2.812  14.310 -0.9310  1.4554 -0.7375
18628TIP3    H277376   0.211   2.851  14.380  0.6794 -0.7932 -2.3031
18629TIP3   OH277377   4.028   4.840   5.235  0.1971  0.1304  0.2090
18629TIP3    H177378   4.103   4.878   5.281  1.4318 -1.1865 -0.6448
18629TIP3    H277379   4.013   4.899   5.161 -0.2620  0.9249  0.9104
18630TIP3   OH277380   6.797   2.129   3.537 -0.0477 -0.1632  0.0957
18630TIP3    H177381   6.879   2.175   3.516  0.1655 -1.2642 -1.6999
18630TIP3    H277382   6.731   2.174   3.485  0.2630 -2.1521 -2.1526
18631TIP3   OH277383   2.067   4.919   5.665 -0.5289  0.4686  0.6014
18631TIP3    H177384   2.049   4.891   5.755  0.8218 -1.7128  0.2712
18631TIP3    H277385   2.146   4.973   5.671 -0.5300  0.4528  0.7454
18632TIP3   OH277386   2.672   0.324   4.349 -0.1169 -0.8966 -0.6331
18632TIP3    H177387   2.640   0.338   4.438 -0.7633 -0.0451 -0.9876
18632TIP3    H277388   2.651   0.233   4.330 -1.6176 -0.5940 -0.5587
18633TIP3   OH277389   5.227   1.322   3.886 -0.7765  0.5161 -0.1370
18633TIP3    H177390   5.284   1.247   3.903 -1.7064 -0.2179 -0.1578
18633TIP3    H277391   5.256   1.390   3.947 -0.3083 -0.0710  0.2982
18634TIP3   OH277392   0.525   4.742   2.965 -0.8623 -0.0239  0.3026
18634TIP3    H177393   0.584   4.673   2.934 -1.3303  0.2232 -1.2546
18634TIP3    H277394   0.438   4.713   2.939 -1.0617  1.1550 -0.4486
18635TIP3   OH277395   3.568   3.771  14.500 -0.0664 -0.7295  0.4679
18635TIP3    H177396   3.647   3.806  14.541 -2.0656  1.4367  2.8070
18635TIP3    H277397   3.550   3.831  14.428 -0.7959  0.2454  1.4203
18636TIP3   OH277398   0.083   4.956   4.131  0.1683  0.6922  0.2019
18636TIP3    H177399   0.070   5.045   4.097 -1.1381  0.8149  0.9604
18636TIP3    H277400   0.176   4.952   4.152  0.5993  1.2740 -1.4953
18637TIP3   OH277401   0.245   2.041  13.957  0.6724  0.3532 -0.0494
18637TIP3    H177402   0.285   1.954  13.964  0.8524  0.5047  0.9830
18637TIP3    H277403   0.165   2.034  14.009  0.3909  0.6401 -0.4435
18638TIP3   OH277404   0.455   0.246   4.300  0.4987  0.6450 -0.6575
18638TIP3    H177405   0.477   0.336   4.277  0.5631  0.7751 -0.0899
18638TIP3    H277406   0.395   0.254   4.375 -1.3485  0.2999 -2.0305
18639TIP3   OH277407   4.065   3.789  12.536 -0.4117  0.1176  0.1253
18639TIP3    H177408   4.110   3.822  12.458  2.0647  0.5155  1.6201
18639TIP3    H277409   4.030   3.867  12.579  0.1167  0.1287  0.5320
18640TIP3   OH277410   6.345   2.344  15.706 -0.2855 -0.5781  0.4211
18640TIP3    H177411   6.386   2.417  15.753 -0.8736 -0.5952  0.9774
18640TIP3    H277412   6.256   2.340  15.742 -1.2364  0.3121 -1.7070
18641TIP3   OH277413   1.644   6.357   4.656  0.0992  0.0534  0.1153
18641TIP3    H177414   1.711   6.328   4.594  0.7865 -1.7463  1.6123
18641TIP3    H277415   1.633   6.450   4.638  0.8834 -0.2299 -2.1080
18642TIP3   OH277416   5.827   6.758  11.282  0.4685 -0.1637 -0.2903
18642TIP3    H177417   5.796   6.682  11.233  1.8660 -1.5159  0.8253
18642TIP3    H277418   5.848   6.824  11.215 -1.8260 -0.2811 -1.2226
18643TIP3   OH277419   2.738   6.270  12.232  0.2570  0.0351 -0.1992
18643TIP3    H177420   2.833   6.259  12.228  0.1384 -0.8434 -0.7238
18643TIP3    H277421   2.705   6.182  12.252 -0.3194  0.7244  2.2714
18644TIP3   OH277422   4.033   2.414   3.826 -0.4488  0.0777  0.0552
18644TIP3    H177423   4.041   2.349   3.756  1.1991  0.7446 -0.4296
18644TIP3    H277424   4.120   2.418   3.865 -1.3458 -0.3096  2.2120
18645TIP3   OH277425   5.322   5.132  16.348  0.2078  0.0883 -0.3305
18645TIP3    H177426   5.238   5.145  16.392  0.9972  3.5220  0.4194
18645TIP3    H277427   5.385   5.122  16.419  0.6307 -1.2253 -0.8677
18646TIP3   OH277428   6.453   4.171   1.943  0.2925  0.0762 -0.2266
18646TIP3    H177429   6.482   4.145   1.856 -0.1540  2.5376 -1.1907
18646TIP3    H277430   6.531   4.162   1.998  0.5158 -1.7197 -0.7919
18647TIP3   OH277431   5.296   5.558   1.534 -0.5164 -0.3893 -0.3774
18647TIP3    H177432   5.307   5.653   1.538 -1.6876 -0.1807 -1.2963
18647TIP3    H277433   5.277   5.540   1.441 -3.6176 -1.0746  0.2609
18648TIP3   OH277434   3.286   6.204  16.932 -0.1616 -0.0762  0.2937
18648TIP3    H177435   3.366   6.176  16.977 -1.0111 -0.6643  1.5113
18648TIP3    H277436   3.264   6.132  16.873  0.7389  0.5249 -0.8129
18649TIP3   OH277437   0.116   1.933   6.314  0.0414 -0.2350  0.4159
18649TIP3    H177438   0.146   1.854   6.270  1.0250  0.0233  0.5977
18649TIP3    H277439   0.114   1.910   6.407 -2.1786 -0.8274  0.2808
18650TIP3   OH277440   5.719   6.071   3.126 -0.2237  0.3419  0.8792
18650TIP3    H177441   5.813   6.082   3.140 -0.2936  1.7450  0.3782
18650TIP3    H277442   5.699   6.129   3.053 -1.7291  1.0955  1.8503
18651TIP3   OH277443   5.408   3.536  14.157  0.0781 -0.4223 -0.3634
18651TIP3    H177444   5.336   3.475  14.141  0.0200 -0.1904 -1.0145
18651TIP3    H277445   5.430   3.571  14.070  0.2003  0.3838 -0.0149
18652TIP3   OH277446   5.128   3.593  12.964 -0.1218 -0.5937  0.4788
18652TIP3    H177447   5.214   3.624  12.990  0.9176 -2.4935 -0.4974
18652TIP3    H277448   5.126   3.604  12.869 -1.1831 -0.0716  0.5404
18653TIP3   OH277449   1.617   3.040  11.522 -0.2627 -0.1662 -0.2936
18653TIP3    H177450   1.677   3.009  11.454  0.1612  1.5829 -0.7801
18653TIP3    H277451   1.615   3.135  11.510 -2.4993 -0.0876  0.2470
18654TIP3   OH277452   6.519   3.505  15.031  0.9076 -0.2332 -0.6909
18654TIP3    H177453   6.441   3.461  15.066 -0.2268  2.7313  0.8453
18654TIP3    H277454   6.484   3.575  14.976  2.5077  0.5594 -0.7510
18655TIP3   OH277455   1.751   5.802   4.627 -0.1107 -0.5781 -0.1002
18655TIP3    H177456   1.724   5.797   4.535  0.4099  2.1859 -0.5010
18655TIP3    H277457   1.834   5.755   4.630  0.2644 -0.0237 -1.2351
18656TIP3   OH277458   5.545   3.356  11.447 -0.0451 -0.4591  0.0086
18656TIP3    H177459   5.509   3.444  11.461  3.1549  1.1823 -1.0520
18656TIP3    H277460   5.568   3.354  11.354 -0.2236 -2.5630 -0.0432
18657TIP3   OH277461   1.577   3.755  14.981 -0.1437 -0.4133  0.2350
18657TIP3    H177462   1.589   3.846  14.954 -0.6454 -0.0217  1.2815
18657TIP3    H277463   1.541   3.712  14.904  1.8542 -0.1849 -0.8946
18658TIP3   OH277464   4.815   3.102  14.734 -0.8348  0.8367  0.1148
18658TIP3    H177465   4.854   3.081  14.649 -0.5866 -0.9628  0.6261
18658TIP3    H277466   4.882   3.077  14.798 -1.3629  1.3431  0.8848
18659TIP3   OH277467   5.107   6.065  11.115  0.5059 -0.5709  0.3042
18659TIP3    H177468   5.018   6.083  11.085  0.3940 -1.5367  0.0083
18659TIP3    H277469   5.163   6.090  11.042  0.5217  0.5279  0.6879
18660TIP3   OH277470   6.749   2.808   4.693  0.0416 -0.8668 -0.2664
18660TIP3    H177471   6.825   2.808   4.635  0.5130 -0.1083  0.3376
18660TIP3    H277472   6.772   2.747   4.763  0.1263 -0.5863 -0.0479
18661TIP3   OH277473   2.256   3.009   3.812 -0.6242  0.2007  0.0124
18661TIP3    H177474   2.261   2.915   3.825  0.4449 -0.0304 -1.7351
18661TIP3    H277475   2.278   3.022   3.719  3.2764  2.4248  1.0222
18662TIP3   OH277476   2.756   4.206  13.052  0.2285  0.4555 -0.8698
18662TIP3    H177477   2.802   4.283  13.020 -1.4072  1.6701 -0.4378
18662TIP3    H277478   2.757   4.215  13.148  0.4221 -0.3016 -0.7953
18663TIP3   OH277479   3.407   1.247  15.578  0.2092  0.3738 -0.1670
18663TIP3    H177480   3.490   1.226  15.622  0.6097  0.0593 -1.0534
18663TIP3    H277481   3.429   1.315  15.515 -0.0203 -0.3386 -1.0308
18664TIP3   OH277482   4.803   3.208  14.246 -0.3193  0.3644  0.3726
18664TIP3    H177483   4.884   3.168  14.214  0.4997  1.8992  0.4243
18664TIP3    H277484   4.822   3.234  14.336  0.2913  3.5428 -0.5382
18665TIP3   OH277485   5.416   3.842  16.021  0.0173  0.4207 -0.2368
18665TIP3    H177486   5.367   3.769  16.059 -2.2476  2.4707  1.1524
18665TIP3    H277487   5.466   3.878  16.094 -0.3167  1.2995 -0.4237
18666TIP3   OH277488   2.923   4.910  13.017 -0.3429  0.9390  0.0762
18666TIP3    H177489   2.925   4.861  13.099 -0.9970 -0.5745 -0.7781
18666TIP3    H277490   2.885   4.995  13.040  0.5655  0.9758  1.5354
18667TIP3   OH277491   0.327   2.524   1.511 -0.4091 -0.2208 -0.0597
18667TIP3    H177492   0.248   2.488   1.551  0.4380  0.7560  2.7251
18667TIP3    H277493   0.385   2.448   1.500 -0.1087 -0.3921  2.1133
18668TIP3   OH277494   1.664   4.287  16.890 -0.0687  0.4401 -0.3756
18668TIP3    H177495   1.591   4.232  16.919  0.3109  1.2461  2.4051
18668TIP3    H277496   1.627   4.376  16.890  0.4889  0.6734 -0.4865
18669TIP3   OH277497   4.182   4.934   1.108  0.0223  0.1274  0.0544
18669TIP3    H177498   4.173   5.022   1.073  2.1159  0.6373  0.6862
18669TIP3    H277499   4.127   4.880   1.050 -1.8006  1.8760  0.0387
18670TIP3   OH277500   0.042   0.923  14.229  0.1452 -0.1209  0.5863
18670TIP3    H177501  -0.012   0.846  14.208 -0.7293  0.8439 -0.8791
18670TIP3    H277502   0.121   0.913  14.177 -0.3818  0.4105 -0.3419
18671TIP3   OH277503   6.523   3.842   2.842 -0.1206 -0.6026 -0.1033
18671TIP3    H177504   6.585   3.769   2.850  0.2754 -0.5844 -2.3409
18671TIP3    H277505   6.489   3.835   2.753 -1.9147  0.5450  0.4388
18672TIP3   OH277506   3.254   6.312   3.018 -0.2821  0.1171  0.6033
18672TIP3    H177507   3.288   6.359   3.094 -0.9258  1.1342  0.2833
18672TIP3    H277508   3.297   6.353   2.943 -0.3035 -0.2931  0.3671
18673TIP3   OH277509   5.866   4.846   5.523  0.0623  0.4601  0.2533
18673TIP3    H177510   5.784   4.802   5.498  1.0318 -0.6277 -1.2576
18673TIP3    H277511   5.890   4.806   5.606 -1.4140  1.5079  1.2267
18674TIP3   OH277512   4.650   5.187   3.904  0.0989 -0.2348 -0.1170
18674TIP3    H177513   4.647   5.269   3.952 -0.7469 -0.1819 -0.2447
18674TIP3    H277514   4.579   5.193   3.840 -1.0359 -1.7055  0.9346
18675TIP3   OH277515   3.458   1.554  10.891  0.0206  0.6765 -0.6753
18675TIP3    H177516   3.552   1.535  10.895  0.4056  1.8734 -2.5458
18675TIP3    H277517   3.440   1.559  10.797 -1.4222  2.7089 -0.3408
18676TIP3   OH277518   3.990   0.668   5.848 -0.0787 -0.0247  0.1279
18676TIP3    H177519   3.954   0.720   5.776  0.2534  0.0401  0.0083
18676TIP3    H277520   3.986   0.727   5.923  0.2320  0.1483  0.0078
18677TIP3   OH277521   4.829   3.715  13.757  0.1463 -0.1360 -0.1613
18677TIP3    H177522   4.815   3.726  13.850  1.0047 -1.2692  0.1258
18677TIP3    H277523   4.859   3.624  13.747  2.8867  0.7454 -1.1526
18678TIP3   OH277524   4.201   6.623  16.514 -0.5553 -0.1506 -0.0774
18678TIP3    H177525   4.284   6.631  16.560 -0.8606  1.7850  0.2163
18678TIP3    H277526   4.142   6.585  16.579  0.1916 -2.0883 -0.4673
18679TIP3   OH277527   2.577   6.127  13.464 -0.7395  0.1310  0.3036
18679TIP3    H177528   2.512   6.195  13.483  0.0670  0.8913  0.4121
18679TIP3    H277529   2.540   6.047  13.500 -1.9236  0.4134 -0.2390
18680TIP3   OH277530   6.038   3.361   0.672 -0.2105  0.0657  0.1185
18680TIP3    H177531   6.049   3.407   0.755 -0.5868  2.3230 -1.0155
18680TIP3    H277532   6.107   3.295   0.672  3.4208  3.5083 -0.0666
18681TIP3   OH277533   4.578   5.154  17.139  0.1656  0.0782  0.5410
18681TIP3    H177534   4.599   5.243  17.170 -1.7167  0.4597  0.8024
18681TIP3    H277535   4.605   5.154  17.047  1.9957  0.2614  1.0414
18682TIP3   OH277536   0.481   3.101   3.491  0.2880 -0.5216  0.0737
18682TIP3    H177537   0.441   3.019   3.522  1.0671 -0.4169  1.4355
18682TIP3    H277538   0.407   3.159   3.475 -0.2268 -1.1537  0.0978
18683TIP3   OH277539   5.836   3.514  14.822 -0.6646  0.7160 -0.2165
18683TIP3    H177540   5.810   3.600  14.789  0.6523  0.4870 -2.0480
18683TIP3    H277541   5.809   3.453  14.753  1.0042  0.0375 -0.3206
18684TIP3   OH277542   0.682   5.484   6.372 -0.1536 -0.2497 -0.0406
18684TIP3    H177543   0.665   5.499   6.278 -1.2479  0.8673  0.3095
18684TIP3    H277544   0.614   5.421   6.398  0.5714 -1.0836 -0.1305
18685TIP3   OH277545   0.400   5.875   0.201  0.2993  0.6496  0.4088
18685TIP3    H177546   0.325   5.879   0.141  0.1667 -0.0098  0.5191
18685TIP3    H277547   0.384   5.797   0.254  0.3818  1.2607  1.3545
18686TIP3   OH277548   5.842   3.049  12.097 -0.5978 -0.1270 -0.3801
18686TIP3    H177549   5.827   3.141  12.076 -0.8458  0.2497  1.2622
18686TIP3    H277550   5.784   3.000  12.038 -0.2341  0.7342 -1.4792
18687TIP3   OH277551   4.122   5.058  13.272  0.3933  0.2436 -0.1662
18687TIP3    H177552   4.079   5.083  13.353  0.1258  1.8607 -0.7714
18687TIP3    H277553   4.216   5.066  13.291  0.3961 -1.2178  0.5198
18688TIP3   OH277554   1.973   0.819  14.004 -0.4476 -0.4991  0.2248
18688TIP3    H177555   2.038   0.872  13.958 -0.0238 -2.2298 -1.3223
18688TIP3    H277556   2.003   0.816  14.095  1.0877 -0.4223 -0.2517
18689TIP3   OH277557   5.203   3.990  16.193 -0.8526  0.0740 -0.1384
18689TIP3    H177558   5.176   4.076  16.161 -0.5806 -0.2238 -1.1971
18689TIP3    H277559   5.269   3.961  16.131 -1.7224 -1.3761 -0.4168
18690TIP3   OH277560   0.025   2.838   3.620  0.5985 -0.5078 -0.3923
18690TIP3    H177561   0.075   2.772   3.572  0.5356 -0.2819 -0.7726
18690TIP3    H277562  -0.055   2.851   3.569  1.8478  1.9091 -1.9056
18691TIP3   OH277563   5.606   2.525  15.157  0.1137  0.3263  0.1473
18691TIP3    H177564   5.558   2.474  15.223 -0.3960  0.6808  0.0525
18691TIP3    H277565   5.681   2.470  15.135 -0.5362 -0.4955 -0.1047
18692TIP3   OH277566   2.691   5.349   1.308 -0.0824  0.3962 -0.4621
18692TIP3    H177567   2.609   5.299   1.301 -0.9843  1.7879 -0.1334
18692TIP3    H277568   2.669   5.436   1.275  0.3465  1.7810  2.6003
18693TIP3   OH277569   1.869   4.496   6.304  0.1695  0.2411  0.7415
18693TIP3    H177570   1.810   4.471   6.234  0.6951 -1.7989  0.9723
18693TIP3    H277571   1.917   4.416   6.326  1.7764  1.4023  1.7492
18694TIP3   OH277572   0.198   5.353   0.416 -0.4005 -0.3446  0.7013
18694TIP3    H177573   0.230   5.389   0.498  1.0342  1.7935 -0.6976
18694TIP3    H277574   0.254   5.278   0.399 -1.3450 -1.4311  2.0778
18695TIP3   OH277575   3.600   6.428   3.370 -0.4194 -0.0489  0.0936
18695TIP3    H177576   3.637   6.348   3.407 -0.7050 -0.6849 -0.9708
18695TIP3    H277577   3.558   6.471   3.445  1.9178  0.4265  1.2317
18696TIP3   OH277578   5.532   2.411  13.783  0.0648  0.0894  0.1083
18696TIP3    H177579   5.523   2.320  13.754  1.2964  0.1236 -0.4827
18696TIP3    H277580   5.624   2.418  13.810  0.3918  1.5326 -1.2486
18697TIP3   OH277581   1.851   5.847   0.579  0.1626  0.3205 -0.5623
18697TIP3    H177582   1.773   5.900   0.561  0.2598  0.7996  0.3584
18697TIP3    H277583   1.857   5.845   0.674  1.6924  0.9133 -0.6158
18698TIP3   OH277584   1.040   3.597   4.576  0.2111  0.2183 -0.2693
18698TIP3    H177585   1.097   3.579   4.501 -3.0045 -0.1039 -2.9093
18698TIP3    H277586   1.013   3.511   4.607  0.8261  0.3741  0.7551
18699TIP3   OH277587   1.597   2.614   5.348 -0.2223  0.2463  0.4449
18699TIP3    H177588   1.580   2.691   5.294  1.2179  0.3467  0.1075
18699TIP3    H277589   1.647   2.555   5.292  1.5260  0.4553  1.7086
18700TIP3   OH277590   1.383   4.771  11.289  0.3462 -0.3730 -0.0241
18700TIP3    H177591   1.288   4.784  11.282  0.2806  0.3056  1.6047
18700TIP3    H277592   1.403   4.706  11.222 -1.2287 -0.3594 -0.5647
18701TIP3   OH277593   0.583   3.776  15.230  0.1380  0.3359  0.6609
18701TIP3    H177594   0.507   3.718  15.237  0.3796  0.1838  2.2703
18701TIP3    H277595   0.636   3.737  15.160 -0.7705 -0.1309  0.2153
18702TIP3   OH277596   3.816   5.222  13.882  0.3778  0.6348  0.4229
18702TIP3    H177597   3.801   5.317  13.878 -0.1019  0.6145  1.4080
18702TIP3    H277598   3.902   5.210  13.842 -0.1253  1.3232 -0.9426
18703TIP3   OH277599   4.277   2.870   2.322  0.6565 -0.5024  0.3111
18703TIP3    H177600   4.234   2.794   2.282 -2.6032  0.8197  1.0539
18703TIP3    H277601   4.347   2.832   2.375  2.0193 -2.6108 -2.6821
18704TIP3   OH277602   6.037   0.123   6.003 -0.1474  0.2018 -0.0672
18704TIP3    H177603   6.021   0.139   6.096 -0.8734 -2.0353  0.2328
18704TIP3    H277604   5.955   0.149   5.960  0.4523  1.9691 -0.2223
18705TIP3   OH277605   3.951   0.704   4.601  0.5436  0.0609  0.3222
18705TIP3    H177606   3.947   0.713   4.505  0.5624  0.1945  0.3340
18705TIP3    H277607   4.045   0.699   4.620  0.5189 -0.7862  0.2568
18706TIP3   OH277608   5.194   6.462   0.263  0.1299 -0.1674 -0.0655
18706TIP3    H177609   5.165   6.542   0.219  0.1844 -1.3902 -2.4836
18706TIP3    H277610   5.141   6.393   0.224  0.4509 -1.4124  1.5853
18707TIP3   OH277611   2.076   2.175  14.136  0.0953 -0.1822  0.0062
18707TIP3    H177612   2.043   2.094  14.098 -0.7974  0.2904 -0.2516
18707TIP3    H277613   2.021   2.190  14.213  0.8387 -0.2806  0.5712
18708TIP3   OH277614   5.460   5.591  16.224  0.0471  0.2227  0.3590
18708TIP3    H177615   5.412   5.656  16.276  1.1017  1.0395  0.3567
18708TIP3    H277616   5.552   5.614  16.237  0.3896 -0.5647 -0.5840
18709TIP3   OH277617   0.178   3.985   0.184  0.4838  0.1233  0.4370
18709TIP3    H177618   0.092   3.986   0.227  0.5953 -0.1356  0.6681
18709TIP3    H277619   0.214   3.898   0.204  0.4386 -0.0919 -0.3718
18710TIP3   OH277620   1.703   5.578  12.524 -0.0085  0.0229  0.0737
18710TIP3    H177621   1.769   5.637  12.487 -0.4076  0.1859 -0.3743
18710TIP3    H277622   1.620   5.607  12.488 -0.2258 -0.7457 -0.0714
18711TIP3   OH277623   4.864   6.153  11.021  0.2473 -0.1826  0.4020
18711TIP3    H177624   4.791   6.186  11.073  0.6569  0.7188  0.4389
18711TIP3    H277625   4.902   6.232  10.981 -0.1020 -0.8589 -1.3363
18712TIP3   OH277626   6.759   5.234  13.612 -0.1737  0.0402  0.0080
18712TIP3    H177627   6.845   5.275  13.605 -0.0712 -0.2073 -0.1919
18712TIP3    H277628   6.774   5.157  13.668 -1.1526  2.5512  4.1694
18713TIP3   OH277629   5.807   2.587   0.167  0.1092  0.4886 -0.2984
18713TIP3    H177630   5.779   2.504   0.204 -0.2012  0.2319 -1.0917
18713TIP3    H277631   5.899   2.595   0.193  0.0126  0.1182  0.1631
18714TIP3   OH277632   0.559   2.474   5.502 -0.3004  0.4259  0.4675
18714TIP3    H177633   0.633   2.440   5.554 -1.4823 -1.2366  1.1742
18714TIP3    H277634   0.585   2.459   5.411  1.4150  2.5280  0.5379
18715TIP3   OH277635   0.206   0.569   3.364  0.4589  0.0821  0.0001
18715TIP3    H177636   0.230   0.537   3.451 -0.2457 -0.8565 -0.1294
18715TIP3    H277637   0.173   0.492   3.319  3.8749 -0.2490 -2.2977
18716TIP3   OH277638   1.248   1.984   3.720 -0.0638  0.2446 -0.1151
18716TIP3    H177639   1.178   1.996   3.656 -1.0172 -0.6939  0.7133
18716TIP3    H277640   1.221   1.908   3.772  2.5931 -1.5591 -1.1075
18717TIP3   OH277641   3.455   4.679  16.609  0.0596  0.5931 -0.1217
18717TIP3    H177642   3.384   4.631  16.652 -1.2839  0.8962 -1.8771
18717TIP3    H277643   3.525   4.615  16.600 -0.2266  0.0893  1.0745
18718TIP3   OH277644   2.537   1.160   2.233  0.6076  1.0881  0.0268
18718TIP3    H177645   2.626   1.176   2.200  0.4879 -0.7651 -1.3631
18718TIP3    H277646   2.530   1.064   2.237 -1.1495  1.2065  0.6761
18719TIP3   OH277647   2.957   6.722   3.154  0.3757 -0.2437 -0.1110
18719TIP3    H177648   2.998   6.769   3.225 -0.2951  1.4040 -0.7692
18719TIP3    H277649   2.868   6.759   3.148 -0.3803 -1.9771 -0.3001
18720TIP3   OH277650   1.825   4.294   3.514  0.4450 -0.4082  0.1468
18720TIP3    H177651   1.814   4.225   3.448 -0.7797 -0.3719  0.2882
18720TIP3    H277652   1.868   4.365   3.467  2.1450 -1.4168  0.1054
18721TIP3   OH277653   6.124   6.504   1.982 -0.4690  0.0762  0.3677
18721TIP3    H177654   6.195   6.533   2.039 -1.5344 -0.0246  1.7797
18721TIP3    H277655   6.094   6.584   1.938 -0.4868  0.3703  0.9142
18722TIP3   OH277656   1.960   3.480   3.248 -0.5344  0.6736  0.1115
18722TIP3    H177657   2.055   3.479   3.259 -0.4893 -0.1913 -0.2919
18722TIP3    H277658   1.946   3.479   3.154 -0.9504  1.0243  0.1631
18723TIP3   OH277659   1.439   2.102   4.324 -0.1266  0.1797 -0.4578
18723TIP3    H177660   1.407   2.136   4.407 -0.6140  0.3150 -0.6961
18723TIP3    H277661   1.505   2.166   4.295  0.8744 -0.4556  0.3671
18724TIP3   OH277662   1.853   6.236  11.571  0.0523 -0.6438 -0.1684
18724TIP3    H177663   1.926   6.260  11.628 -1.0647 -0.4118  1.2297
18724TIP3    H277664   1.840   6.142  11.586  0.7877 -0.9581 -1.3257
18725TIP3   OH277665   1.516   1.805  11.879  0.2770 -0.3985  0.2305
18725TIP3    H177666   1.488   1.893  11.853  0.1463 -0.4065  0.3473
18725TIP3    H277667   1.601   1.794  11.835  0.4412 -0.0935  0.4601
18726TIP3   OH277668   6.724   0.249   4.534 -0.7575 -0.5971 -0.5363
18726TIP3    H177669   6.776   0.266   4.456 -1.3482 -0.5254 -0.9199
18726TIP3    H277670   6.750   0.316   4.596 -1.8931  0.7601 -1.4556
18727TIP3   OH277671   1.616   1.540   5.024  0.2072  0.6171 -0.1694
18727TIP3    H177672   1.547   1.559   4.960 -0.8006  1.5749  1.1696
18727TIP3    H277673   1.647   1.453   4.999 -1.0103  0.4421 -1.2035
18728TIP3   OH277674   2.290   6.590  12.669 -0.7910 -0.1065  0.0888
18728TIP3    H177675   2.289   6.608  12.575 -1.2726  0.3432  0.1792
18728TIP3    H277676   2.377   6.552  12.685 -1.1030 -1.2265 -0.7300
18729TIP3   OH277677   0.818   1.848  17.074  0.2188  0.1950  0.3399
18729TIP3    H177678   0.725   1.855  17.097 -0.4634 -0.1520 -2.0460
18729TIP3    H277679   0.836   1.754  17.074  0.4631  0.2407  0.3932
18730TIP3   OH277680   6.667   0.047   5.272  0.1297  0.2513 -0.4038
18730TIP3    H177681   6.606   0.109   5.311  0.0904  0.3544 -0.6261
18730TIP3    H277682   6.632  -0.039   5.293 -0.0328  0.3100 -0.4349
18731TIP3   OH277683   6.010   6.257  12.265 -0.4265  0.6515 -1.0062
18731TIP3    H177684   5.940   6.322  12.274 -2.1321 -1.2886  0.9230
18731TIP3    H277685   6.044   6.246  12.354  0.5327 -0.3297 -1.4715
18732TIP3   OH277686   0.915   4.002  14.673  0.4495  0.2069  0.1647
18732TIP3    H177687   0.950   4.058  14.604 -2.4780  1.3382 -0.5650
18732TIP3    H277688   0.831   3.972  14.638 -0.0019 -1.1838  2.2886
18733TIP3   OH277689   4.019   1.989  16.255  0.3858 -0.4433 -0.2939
18733TIP3    H177690   4.071   1.911  16.238  1.4561  0.1195  0.2591
18733TIP3    H277691   3.981   2.012  16.170  1.5011 -0.5663 -0.8413
18734TIP3   OH277692   2.310   3.442   0.639  0.3034 -0.0784  0.2780
18734TIP3    H177693   2.219   3.433   0.668  0.2071  1.7934  0.6594
18734TIP3    H277694   2.330   3.358   0.597 -0.9323 -1.2834  1.9605
18735TIP3   OH277695   2.680   0.273  14.464 -0.0479 -0.2913 -0.3240
18735TIP3    H177696   2.709   0.361  14.489  0.3249 -0.2875 -0.7352
18735TIP3    H277697   2.654   0.231  14.546  0.0667  0.0961 -0.0860
18736TIP3   OH277698   6.192   0.555   4.698 -0.8774  0.2269 -0.0914
18736TIP3    H177699   6.112   0.505   4.677  0.3482 -1.3268 -1.3111
18736TIP3    H277700   6.261   0.512   4.647  0.6856  1.7710  0.6374
18737TIP3   OH277701   5.756   0.845  15.788  0.8670  0.1269  0.5150
18737TIP3    H177702   5.709   0.762  15.785 -0.5630  0.9344 -0.8672
18737TIP3    H277703   5.747   0.881  15.700  1.7032  1.6131  1.0060
18738TIP3   OH277704   6.131   5.437  11.773  0.5297  0.4544 -0.2844
18738TIP3    H177705   6.130   5.508  11.836 -2.8167 -0.0819  0.4583
18738TIP3    H277706   6.096   5.476  11.692  0.0615  0.0266 -0.2978
18739TIP3   OH277707   6.805   6.238  16.132 -0.4233 -0.0010 -0.1796
18739TIP3    H177708   6.886   6.222  16.084  0.4675 -3.1008  2.0478
18739TIP3    H277709   6.739   6.189  16.084 -0.2263 -0.3626 -0.0856
18740TIP3   OH277710   0.670   1.977  16.756  0.4508  0.4620  0.1102
18740TIP3    H177711   0.694   2.045  16.692  0.7865  1.9401  1.7217
18740TIP3    H277712   0.705   2.009  16.839 -2.6717  0.2492  1.6641
18741TIP3   OH277713   1.728   1.129  15.912  0.6649 -0.5473 -0.6791
18741TIP3    H177714   1.640   1.136  15.874  0.0386  0.3254  0.8461
18741TIP3    H277715   1.727   1.190  15.986  2.2449 -1.2585 -0.0330
18742TIP3   OH277716   3.834   0.906  15.883 -0.2993  0.1676  0.2396
18742TIP3    H177717   3.790   0.823  15.862  2.1103 -0.8439 -1.3430
18742TIP3    H277718   3.810   0.924  15.973 -2.6750 -1.0649 -0.0663
18743TIP3   OH277719   6.083   4.933   6.553 -0.0449  0.0622  0.1675
18743TIP3    H177720   6.059   4.862   6.613 -0.5217  1.4036  1.6275
18743TIP3    H277721   6.146   4.893   6.492  0.1453 -1.4594  1.3144
18744TIP3   OH277722   5.984   5.820   5.743  0.0417  0.0378  0.2515
18744TIP3    H177723   6.004   5.733   5.776 -1.1261  0.2156  1.5372
18744TIP3    H277724   6.047   5.878   5.786  1.1254 -0.1902 -0.9615
18745TIP3   OH277725   4.129   6.254  12.170 -0.0606 -0.3216  0.3155
18745TIP3    H177726   4.109   6.329  12.114  1.0727  1.0615  1.6640
18745TIP3    H277727   4.222   6.236  12.155  1.0334  1.7761  3.4701
18746TIP3   OH277728   2.372   6.618  14.941  1.0670  0.3084  0.1467
18746TIP3    H177729   2.379   6.525  14.920 -0.4111  0.0439  0.6847
18746TIP3    H277730   2.340   6.658  14.860 -0.9271 -0.1168  0.6592
18747TIP3   OH277731   2.085   2.337  12.865  0.1267 -0.3407 -0.4217
18747TIP3    H177732   2.096   2.316  12.958 -1.3606 -0.4866 -0.2448
18747TIP3    H277733   1.996   2.374  12.860  1.4701  3.1935 -1.1832
18748TIP3   OH277734   3.775   4.985  15.838 -0.5164  0.1129  0.0842
18748TIP3    H177735   3.716   5.056  15.815 -0.5346 -0.5582 -2.2007
18748TIP3    H277736   3.717   4.914  15.866 -0.6043  0.3794  0.5891
18749TIP3   OH277737   3.127   2.220  16.234 -0.0509  0.3211 -0.2115
18749TIP3    H177738   3.071   2.280  16.184 -1.4202  0.3628  1.2537
18749TIP3    H277739   3.137   2.263  16.319  2.2297  0.2732 -0.3968
18750TIP3   OH277740   2.752   4.974  10.549 -0.1563 -0.5465 -0.1118
18750TIP3    H177741   2.689   5.046  10.562 -1.8615 -1.6937 -1.4754
18750TIP3    H277742   2.838   5.015  10.559 -1.0395  1.8201 -1.3623
18751TIP3   OH277743   6.446   2.431  14.513  0.0044  0.2004  0.5230
18751TIP3    H177744   6.365   2.401  14.555  1.0974 -2.6626  0.8219
18751TIP3    H277745   6.448   2.384  14.430  0.4033  1.8172 -0.4070
18752TIP3   OH277746   6.036   0.845   2.755 -0.3102  0.3649  0.8309
18752TIP3    H177747   6.070   0.895   2.681 -1.1811  1.4285  1.1238
18752TIP3    H277748   5.963   0.898   2.788 -0.8556 -0.8008  1.5503
18753TIP3   OH277749   2.742   0.539  15.249 -0.6698  0.0452  0.2386
18753TIP3    H177750   2.803   0.507  15.316 -2.9113 -2.2579  1.3495
18753TIP3    H277751   2.720   0.628  15.278  1.4636  0.6441  0.2250
18754TIP3   OH277752   0.734   1.289   2.946 -0.2167  0.1003  0.0756
18754TIP3    H177753   0.698   1.266   2.860 -2.4568  1.0997  0.6775
18754TIP3    H277754   0.768   1.377   2.935  0.9946 -0.3868 -0.1793
18755TIP3   OH277755   1.291   0.977  15.504 -0.1769 -0.0935 -0.0524
18755TIP3    H177756   1.356   0.909  15.520 -0.1711 -0.0904 -0.0619
18755TIP3    H277757   1.256   0.999  15.590 -0.4485 -0.3765 -0.0858
18756TIP3   OH277758   3.303   2.927   5.347 -0.4169 -0.0122  0.4118
18756TIP3    H177759   3.220   2.910   5.392  0.1789  0.7325  1.8385
18756TIP3    H277760   3.333   2.840   5.319  0.0947 -0.8019  3.1100
18757TIP3   OH277761   1.150   6.455  14.586  0.7901  0.5810 -0.9857
18757TIP3    H177762   1.143   6.546  14.556  1.6160  1.2740  0.8029
18757TIP3    H277763   1.244   6.441  14.599  0.5544  0.0410  0.3308
18758TIP3   OH277764   4.860   0.413  16.116 -0.1927  0.1534  0.2483
18758TIP3    H177765   4.874   0.463  16.197  0.0909  2.1664 -0.9755
18758TIP3    H277766   4.871   0.322  16.142  1.3910  0.8315  2.1887
18759TIP3   OH277767   4.972   3.223   2.813 -0.0877 -0.4745  0.6501
18759TIP3    H177768   4.881   3.253   2.812  0.3780  1.2256  2.5897
18759TIP3    H277769   5.009   3.256   2.730 -0.7048  0.7120  0.8248
18760TIP3   OH277770   2.429   1.269  10.191 -0.5859  0.3049 -0.3059
18760TIP3    H177771   2.434   1.329  10.265  0.2001 -0.6902  0.4873
18760TIP3    H277772   2.519   1.262  10.160 -0.5855 -0.7472 -0.1188
18761TIP3   OH277773   2.618   4.009  13.355 -0.2298  0.1822 -0.4965
18761TIP3    H177774   2.654   3.924  13.380 -0.2505  0.3669  0.1704
18761TIP3    H277775   2.694   4.066  13.345 -0.1895  0.0070 -1.2852
18762TIP3   OH277776   5.836   5.482  14.592  0.6819  0.6722 -0.5772
18762TIP3    H177777   5.796   5.566  14.612  0.8522  0.2991  1.5991
18762TIP3    H277778   5.832   5.475  14.497  0.3709  2.9759 -0.7833
18763TIP3   OH277779   4.326   2.523  15.518 -0.3278  0.0368 -0.0316
18763TIP3    H177780   4.319   2.456  15.587 -0.1511 -0.9676 -0.9606
18763TIP3    H277781   4.238   2.527  15.481 -0.2815  0.1486 -0.1278
18764TIP3   OH277782   4.348   1.749  12.246  0.1989 -0.2115  0.2794
18764TIP3    H177783   4.402   1.758  12.167 -0.0425  0.1638  0.1515
18764TIP3    H277784   4.314   1.660  12.242  0.3024 -0.2413  0.0304
18765TIP3   OH277785   3.564   3.742  16.009  0.0049  0.5857  0.0613
18765TIP3    H177786   3.593   3.797  15.936  0.5199  1.1436  0.6770
18765TIP3    H277787   3.514   3.801  16.065 -2.4998 -0.3490 -1.0040
18766TIP3   OH277788   4.922   1.779  14.262 -0.2190 -0.0234  0.7493
18766TIP3    H177789   5.012   1.806  14.277 -0.7028  1.7041  0.7140
18766TIP3    H277790   4.883   1.851  14.212 -1.5247 -0.9066  0.4285
18767TIP3   OH277791   3.358   3.820  10.701 -0.2314  0.0861 -0.8406
18767TIP3    H177792   3.408   3.800  10.623  0.7612 -1.1706  0.0860
18767TIP3    H277793   3.295   3.748  10.709  0.7616 -0.6901  0.3787
18768TIP3   OH277794   0.458   4.171   0.986  0.6380 -0.3474 -0.2466
18768TIP3    H177795   0.501   4.214   0.912  0.7414  0.1773  0.1152
18768TIP3    H277796   0.423   4.243   1.038  0.5357 -0.7199  0.2023
18769TIP3   OH277797   4.203   1.025  10.921  0.7895 -0.5811  0.1616
18769TIP3    H177798   4.143   1.099  10.932 -0.7650 -1.6690 -0.5558
18769TIP3    H277799   4.233   1.032  10.830 -0.1294 -1.3298 -0.2238
18770TIP3   OH277800   1.810   6.814   3.582 -0.4243 -0.0896 -0.4719
18770TIP3    H177801   1.776   6.870   3.512  0.0274  2.5891  1.3091
18770TIP3    H277802   1.898   6.790   3.553 -0.7771 -0.2683 -1.4549
18771TIP3   OH277803   1.712   2.171   0.890  0.1572 -0.0956  0.1046
18771TIP3    H177804   1.633   2.129   0.857 -1.0744  2.3042 -0.2607
18771TIP3    H277805   1.769   2.179   0.813  0.0903 -0.4400  0.0188
18772TIP3   OH277806   2.311   0.968  11.803 -0.1724  0.3974 -0.1680
18772TIP3    H177807   2.326   0.943  11.894 -0.6955 -0.6223 -0.3466
18772TIP3    H277808   2.385   1.023  11.781  3.5233 -4.2519 -0.9954
18773TIP3   OH277809   0.497   2.836   4.182 -0.4766  0.0141  0.6930
18773TIP3    H177810   0.416   2.837   4.233 -1.0714  0.8532 -0.2247
18773TIP3    H277811   0.467   2.831   4.091  0.4849  0.8720  0.3139
18774TIP3   OH277812   5.301   1.330  14.044 -0.3406  0.3906 -0.2696
18774TIP3    H177813   5.207   1.344  14.039 -0.4830 -0.8636 -1.9585
18774TIP3    H277814   5.318   1.311  14.136 -1.8233  0.1177 -0.0351
18775TIP3   OH277815   3.733   2.868   3.463  0.6923  0.2258  0.5673
18775TIP3    H177816   3.799   2.907   3.406  1.4429 -1.3390  0.3217
18775TIP3    H277817   3.743   2.774   3.451 -5.2234 -0.4179 -3.7858
18776TIP3   OH277818   6.661   5.341   5.588  0.1117 -0.3627  0.0983
18776TIP3    H177819   6.743   5.292   5.588  0.2809 -0.0850  0.0654
18776TIP3    H277820   6.667   5.396   5.666  0.0175 -0.2392  0.0179
18777TIP3   OH277821   5.990   4.080   0.280 -0.5087 -0.3592 -0.9296
18777TIP3    H177822   5.963   3.988   0.287  0.3423 -0.6555 -1.3192
18777TIP3    H277823   6.061   4.089   0.343 -2.4311  0.8102  1.2131
18778TIP3   OH277824   2.172   1.309  13.898 -0.8410 -0.3280  0.0288
18778TIP3    H177825   2.209   1.256  13.969  0.3349  0.0487 -0.2788
18778TIP3    H277826   2.118   1.248  13.848 -0.8537 -0.8399  0.6568
18779TIP3   OH277827   0.922   3.052  11.295 -0.1512 -0.4807  0.4917
18779TIP3    H177828   0.880   3.137  11.288  0.4289 -0.2470 -0.2858
18779TIP3    H277829   0.907   3.011  11.210 -0.2219 -1.0563  0.7787
18780TIP3   OH277830   1.878   1.486   3.616 -0.1603 -0.0138  0.2925
18780TIP3    H177831   1.940   1.418   3.590 -0.2786 -0.8029  1.9665
18780TIP3    H277832   1.929   1.567   3.613  0.7922 -0.5620  1.0010
18781TIP3   OH277833   2.108   6.621   5.751 -0.1706 -0.5653 -0.5131
18781TIP3    H177834   2.017   6.593   5.741 -1.0350  1.5952  0.6529
18781TIP3    H277835   2.105   6.688   5.820  2.6727 -2.0795  1.2443
18782TIP3   OH277836   1.372   3.375   4.424  0.2075 -0.1796  0.0549
18782TIP3    H177837   1.314   3.299   4.423 -0.3880  0.2640  0.0931
18782TIP3    H277838   1.314   3.449   4.407  1.1890  0.0035 -2.9836
18783TIP3   OH277839   2.329   5.959  15.477 -0.2691  0.5894  0.0990
18783TIP3    H177840   2.269   5.970  15.551  0.2649  1.3471  0.4270
18783TIP3    H277841   2.272   5.958  15.400 -0.9703 -1.6006  0.5820
18784TIP3   OH277842   4.470   3.525   4.203 -0.5687 -0.0223  0.4113
18784TIP3    H177843   4.379   3.498   4.218 -0.1626 -0.3264  2.6582
18784TIP3    H277844   4.478   3.530   4.108 -2.9913  0.2404  0.1568
18785TIP3   OH277845   1.961   5.982  10.288  0.1178 -0.4882 -0.6060
18785TIP3    H177846   2.013   5.925  10.230  0.0259 -0.6229 -0.5564
18785TIP3    H277847   1.883   6.002  10.237 -0.2326 -1.0775 -0.3129
18786TIP3   OH277848   3.759   4.114   4.235 -0.3180  0.0714  0.1136
18786TIP3    H177849   3.755   4.189   4.294 -0.2327 -0.4332  0.7617
18786TIP3    H277850   3.766   4.153   4.148  0.9610  0.8156  0.5296
18787TIP3   OH277851   4.288   0.543  13.036 -0.2040 -0.5902  0.1872
18787TIP3    H177852   4.205   0.500  13.018 -1.7148  2.4468 -0.8603
18787TIP3    H277853   4.346   0.514  12.965 -1.2606 -0.6310 -0.6867
18788TIP3   OH277854   4.809   1.451  13.977 -0.4622  0.0443 -0.5734
18788TIP3    H177855   4.885   1.405  14.012 -1.6881 -0.8766  1.0470
18788TIP3    H277856   4.753   1.382  13.942 -1.8143  0.3463  0.8465
18789TIP3   OH277857   1.194   6.785  11.650 -0.3227  0.1640  0.5952
18789TIP3    H177858   1.184   6.692  11.667  1.0357 -0.3343 -0.9987
18789TIP3    H277859   1.132   6.828  11.709 -1.8134 -1.7928  0.5412
18790TIP3   OH277860   4.444   4.305   5.535 -0.1372 -0.2642 -0.4118
18790TIP3    H177861   4.356   4.332   5.560 -0.5794 -2.3100  0.4384
18790TIP3    H277862   4.430   4.228   5.479  1.0771  0.2740 -1.5090
18791TIP3   OH277863   4.375   1.199   5.263 -0.0394  0.2153 -0.7439
18791TIP3    H177864   4.315   1.274   5.266 -0.2997 -0.0119 -0.0568
18791TIP3    H277865   4.457   1.236   5.231 -0.3469  0.6704 -1.0293
18792TIP3   OH277866   2.605   4.873  15.872 -0.0612  0.1951 -0.2072
18792TIP3    H177867   2.523   4.823  15.867 -0.3950  0.6749  0.2750
18792TIP3    H277868   2.577   4.960  15.900  0.6775  0.1724  0.6566
18793TIP3   OH277869   1.422   5.801  16.612  0.2104 -0.4214  0.6670
18793TIP3    H177870   1.355   5.772  16.549 -0.4170 -0.6099  1.4092
18793TIP3    H277871   1.373   5.819  16.692  0.7103  1.7460  0.5381
18794TIP3   OH277872   3.246   2.423  12.739 -0.7232 -0.2421  0.6258
18794TIP3    H177873   3.326   2.389  12.699  0.8526  1.7548  1.8560
18794TIP3    H277874   3.276   2.468  12.818 -2.6796  2.7966 -0.1941
18795TIP3   OH277875   1.125   2.890   5.929  0.2554  0.0346 -0.5988
18795TIP3    H177876   1.218   2.890   5.951  0.3767 -0.3921 -1.0826
18795TIP3    H277877   1.081   2.864   6.010  0.4402  1.6077  0.0316
18796TIP3   OH277878   5.528   3.298   1.252 -0.5337  0.1035 -0.2573
18796TIP3    H177879   5.470   3.235   1.295  0.3224 -0.8140 -0.3857
18796TIP3    H277880   5.470   3.358   1.207 -1.3977 -0.2243  0.3986
18797TIP3   OH277881   3.460   0.498  12.925  0.7978  0.5778 -0.5246
18797TIP3    H177882   3.434   0.544  13.004  1.1214 -0.4409  0.2057
18797TIP3    H277883   3.437   0.557  12.853 -0.4418  1.0949  0.2666
18798TIP3   OH277884   2.671   4.366   4.969 -0.2611  0.5013 -0.5656
18798TIP3    H177885   2.671   4.343   4.876  1.5200  2.5751 -1.1768
18798TIP3    H277886   2.752   4.326   5.003 -1.6651 -1.5646  0.5348
18799TIP3   OH277887   1.657   5.873  15.127  0.0939 -0.0685  0.1188
18799TIP3    H177888   1.652   5.805  15.195 -1.0230 -0.0988  0.0306
18799TIP3    H277889   1.749   5.877  15.103  0.7979  1.0247  2.7128
18800TIP3   OH277890   0.918   4.665   1.986 -0.3791 -0.1998  0.7951
18800TIP3    H177891   0.925   4.745   1.933  2.5142 -1.5430 -1.1012
18800TIP3    H277892   0.892   4.598   1.923  1.5937 -1.5535  1.3555
18801TIP3   OH277893   3.797   3.722  13.830 -0.0143 -0.4505 -0.6908
18801TIP3    H177894   3.783   3.654  13.763  2.4805  0.0074 -1.7580
18801TIP3    H277895   3.870   3.774  13.797  0.0525  0.9791  1.5212
18802TIP3   OH277896   0.470   2.907   2.388  0.5428  0.3130  0.2860
18802TIP3    H177897   0.390   2.894   2.336  1.1758  2.6399 -1.4176
18802TIP3    H277898   0.539   2.867   2.336  0.9841  1.4576 -0.0305
18803TIP3   OH277899   5.652   5.354   0.843 -0.0942 -0.3587  0.1805
18803TIP3    H177900   5.668   5.264   0.872  0.9852 -0.4378 -0.6077
18803TIP3    H277901   5.621   5.345   0.753 -0.0436  0.0544  0.1209
18804TIP3   OH277902   5.590   0.010  13.796  0.8198  0.0652  0.0911
18804TIP3    H177903   5.532   0.062  13.851  2.0527  2.1353 -0.4648
18804TIP3    H277904   5.670  -0.000  13.849  1.2430  0.2906 -0.4969
18805TIP3   OH277905   5.386   6.505   4.498 -0.1471  0.2018 -0.0313
18805TIP3    H177906   5.342   6.467   4.422 -0.3411  0.7767 -0.2157
18805TIP3    H277907   5.316   6.550   4.546  0.1408  0.6288 -0.0115
18806TIP3   OH277908   3.110   4.698   4.236  0.7503 -0.3016  0.3628
18806TIP3    H177909   3.120   4.739   4.322  2.2222 -0.8074  0.4569
18806TIP3    H277910   3.015   4.689   4.225  0.4283  1.6902  0.9945
18807TIP3   OH277911   3.804   2.353  16.840  0.3939  0.1587  0.4303
18807TIP3    H177912   3.733   2.385  16.896  0.5697  0.6373  0.3827
18807TIP3    H277913   3.872   2.326  16.901  0.0233 -0.6710  0.4905
18808TIP3   OH277914   3.812   3.115   5.369  0.2309 -0.0958 -0.3492
18808TIP3    H177915   3.725   3.083   5.393  1.0744 -0.4525  2.6006
18808TIP3    H277916   3.818   3.101   5.274 -1.9753 -2.3822 -0.2381
18809TIP3   OH277917   2.859   4.208  10.605 -0.0253  0.4794 -0.2481
18809TIP3    H177918   2.931   4.145  10.607  0.5218  1.1250  1.5169
18809TIP3    H277919   2.878   4.262  10.528 -0.7408 -1.6700 -2.0872
18810TIP3   OH277920   3.782   2.768   0.186 -0.1139  0.3475 -0.4343
18810TIP3    H177921   3.723   2.820   0.132  0.5323  1.8947  0.2854
18810TIP3    H277922   3.736   2.760   0.270 -0.7134 -1.2653 -0.8832
18811TIP3   OH277923   3.427   5.269  10.823  0.5760 -0.2510 -0.0848
18811TIP3    H177924   3.443   5.211  10.749  2.5037 -0.0143  0.1037
18811TIP3    H277925   3.364   5.333  10.790  1.5322 -0.0523 -1.5957
18812TIP3   OH277926   0.983   2.769   1.641 -0.5418  0.5464 -0.6860
18812TIP3    H177927   1.047   2.708   1.602  0.0837  0.8608 -0.1735
18812TIP3    H277928   0.933   2.802   1.566  0.3332  0.7824 -1.1807
18813TIP3   OH277929   3.518   0.692  12.272  0.1037  0.1798  0.1513
18813TIP3    H177930   3.599   0.693  12.220  0.1577  2.9226  0.1591
18813TIP3    H277931   3.450   0.723  12.212 -0.8259 -1.1982  0.4221
18814TIP3   OH277932   5.610   6.664   4.404  0.3890  0.3035  0.1905
18814TIP3    H177933   5.648   6.630   4.323  0.8821  1.2572  0.0068
18814TIP3    H277934   5.536   6.607   4.422  1.3429 -1.0072  0.0387
18815TIP3   OH277935   6.640   2.409   3.101  0.6300  0.5362 -0.3436
18815TIP3    H177936   6.700   2.395   3.028  0.3672 -0.8952 -0.3144
18815TIP3    H277937   6.566   2.456   3.063  0.9473  0.7078 -0.7581
18816TIP3   OH277938   3.590   1.916  14.524  0.2905  0.4632 -0.1606
18816TIP3    H177939   3.497   1.933  14.509  0.2519 -0.1879 -0.6929
18816TIP3    H277940   3.629   2.003  14.536 -0.0129  0.9067 -2.0942
18817TIP3   OH277941   2.203   5.619  13.833  0.9313 -1.0281 -0.1430
18817TIP3    H177942   2.232   5.684  13.897 -0.0900  0.7054 -1.3446
18817TIP3    H277943   2.107   5.622  13.839  0.7514 -0.0782 -2.3555
18818TIP3   OH277944   3.478   0.582   3.580  0.8777 -0.0881  0.5665
18818TIP3    H177945   3.493   0.532   3.661 -0.7435  1.5060  1.9506
18818TIP3    H277946   3.528   0.662   3.592  0.7649  0.0809 -0.0884
18819TIP3   OH277947   0.574   5.780  14.277 -0.7364  0.1844  0.4793
18819TIP3    H177948   0.612   5.695  14.298  0.2442  0.3517 -0.4952
18819TIP3    H277949   0.642   5.843  14.301 -0.8477  0.5799 -0.2069
18820TIP3   OH277950   6.446   0.166  11.731 -0.3088 -0.1417  0.1904
18820TIP3    H177951   6.434   0.072  11.745 -1.5200 -0.1042 -0.4003
18820TIP3    H277952   6.535   0.175  11.698 -0.3126 -1.1359 -0.1263
18821TIP3   OH277953   3.079   4.892   3.225 -0.3486 -0.2980  0.2359
18821TIP3    H177954   3.154   4.860   3.174 -0.8897 -0.6072 -0.3757
18821TIP3    H277955   3.004   4.882   3.166 -1.2273 -1.9367  1.5373
18822TIP3   OH277956   3.984   0.248   2.717  0.4905 -0.0859  0.0524
18822TIP3    H177957   3.912   0.285   2.767  0.7629 -0.7195  0.9597
18822TIP3    H277958   4.060   0.300   2.742  0.7357 -0.7605  0.7705
18823TIP3   OH277959   0.192   3.737  13.939 -0.7703 -0.4559 -0.3689
18823TIP3    H177960   0.132   3.756  13.867 -0.0698 -0.2235 -0.9046
18823TIP3    H277961   0.202   3.642  13.938 -1.0817 -0.4903 -0.3117
18824TIP3   OH277962   3.003   1.591   2.963  0.2406  0.2790 -0.5633
18824TIP3    H177963   2.993   1.686   2.975  0.8402  0.6173 -2.3975
18824TIP3    H277964   2.945   1.571   2.889  3.3897  0.0928 -3.1997
18825TIP3   OH277965   4.177   1.091  13.124 -0.0116 -0.0130 -0.4972
18825TIP3    H177966   4.127   1.118  13.047  1.2160  1.8054 -0.7131
18825TIP3    H277967   4.111   1.077  13.191 -1.0372 -0.7599 -1.6226
18826TIP3   OH277968   5.567   1.079   3.558  0.2086 -0.0271  0.5421
18826TIP3    H177969   5.603   1.004   3.512  1.3032  0.9815 -0.2851
18826TIP3    H277970   5.559   1.050   3.649  5.7061  0.4412  1.4764
18827TIP3   OH277971   2.525   3.710  13.466  0.2313  0.3223 -0.1694
18827TIP3    H177972   2.463   3.745  13.401 -1.2565  1.3934  1.7094
18827TIP3    H277973   2.479   3.636  13.504  0.4401  0.6324  0.6928
18828TIP3   OH277974   1.983   0.145  13.965 -0.4666 -0.0168 -0.0421
18828TIP3    H177975   1.975   0.184  14.052 -2.4433  0.5010 -0.4049
18828TIP3    H277976   1.990   0.051  13.982  1.1325  0.1979  0.7119
18829TIP3   OH277977   1.431   2.649   1.754 -0.0183  0.3302  0.6626
18829TIP3    H177978   1.352   2.660   1.807 -0.3353  0.0218  0.2614
18829TIP3    H277979   1.399   2.645   1.664  0.1880 -2.2409  0.6301
18830TIP3   OH277980   1.546   2.983   1.700 -0.2992 -0.8104 -0.1013
18830TIP3    H177981   1.583   3.071   1.705  1.6978 -1.6275  0.4855
18830TIP3    H277982   1.507   2.978   1.613 -0.4134  0.6367 -0.1484
18831TIP3   OH277983   4.473   0.667  12.131  0.1361 -1.0180  0.2979
18831TIP3    H177984   4.467   0.586  12.081  1.9439 -1.7122  1.1167
18831TIP3    H277985   4.567   0.676  12.152 -0.0109  1.2806  0.2338
18832TIP3   OH277986   4.416   5.260  15.956 -0.3264  0.1938 -0.0444
18832TIP3    H177987   4.490   5.315  15.980 -0.4412  0.2127  0.2705
18832TIP3    H277988   4.443   5.171  15.982 -0.3951  0.1946  0.0308
18833TIP3   OH277989   6.623   4.308   4.081  0.3379 -0.4007  0.2237
18833TIP3    H177990   6.675   4.229   4.096  2.5887  1.0740  0.7538
18833TIP3    H277991   6.652   4.340   3.996  0.1114  0.3382  0.4211
18834TIP3   OH277992   5.489   5.330   4.466  0.5254  0.3892  0.4181
18834TIP3    H177993   5.571   5.284   4.450  0.2040  0.2571 -0.9996
18834TIP3    H277994   5.486   5.343   4.561  0.9435 -1.8935  0.7946
18835TIP3   OH277995   5.095   1.535  13.377  0.4513 -0.0296 -0.2064
18835TIP3    H177996   5.139   1.573  13.301  1.2608  1.2318  0.8331
18835TIP3    H277997   5.158   1.547  13.449 -0.9894  0.4463  1.0245
18836TIP3   OH277998   2.360   0.899   4.702 -0.4024  0.2351  0.9524
18836TIP3    H177999   2.410   0.963   4.752  0.4612  0.4982 -0.2096
18836TIP3    H278000   2.270   0.906   4.736 -0.6274  2.9360  0.0461
18837TIP3   OH278001   3.028   5.509  14.847 -0.4950  0.1368 -0.6155
18837TIP3    H178002   2.979   5.467  14.777 -0.1811 -2.3876  0.5850
18837TIP3    H278003   2.960   5.551  14.901 -0.7461  1.9795 -2.2471
18838TIP3   OH278004   5.763   2.745   1.272 -0.2773 -0.2040 -0.1672
18838TIP3    H178005   5.857   2.760   1.281 -0.0203 -1.6609 -0.2144
18838TIP3    H278006   5.723   2.813   1.327  0.8554 -0.4790  1.0695
18839TIP3   OH278007   6.064   5.045  14.066  0.5269 -0.1505  0.3196
18839TIP3    H178008   6.085   5.029  14.158  2.1086  1.8029  0.3632
18839TIP3    H278009   6.130   4.996  14.017  0.3896 -0.2562  0.2372
18840TIP3   OH278010   6.396   5.201   3.504  0.8364  0.0993 -0.2901
18840TIP3    H178011   6.398   5.247   3.588  1.9121 -2.0965  0.9810
18840TIP3    H278012   6.462   5.246   3.451 -0.4349  2.0454 -0.3414
18841TIP3   OH278013   3.643   3.387  15.198  0.0685 -0.1114 -0.2966
18841TIP3    H178014   3.725   3.433  15.178  0.4335 -0.7886 -0.3818
18841TIP3    H278015   3.587   3.454  15.238  0.5097  0.4597 -0.6199
18842TIP3   OH278016   3.741   4.823   5.228  0.2600  0.1425  0.2729
18842TIP3    H178017   3.827   4.828   5.268  1.4867 -0.3890 -2.1268
18842TIP3    H278018   3.692   4.761   5.282  1.7761 -0.4671  0.9825
18843TIP3   OH278019   6.546   2.794   1.335  0.6052 -0.5661  0.1054
18843TIP3    H178020   6.481   2.760   1.274  0.9960 -0.4647 -0.3733
18843TIP3    H278021   6.619   2.732   1.329  1.5832  0.6484 -1.2401
18844TIP3   OH278022   0.632   1.102   6.444  0.1335  0.5101 -0.3074
18844TIP3    H178023   0.683   1.131   6.519  0.3732 -0.4490 -0.0958
18844TIP3    H278024   0.661   1.157   6.372 -0.1228  1.4623  0.3000
18845TIP3   OH278025   6.751   5.913  14.800  0.1466 -0.0876  0.3285
18845TIP3    H178026   6.669   5.949  14.768 -0.4396 -0.7357  1.0721
18845TIP3    H278027   6.811   5.988  14.803 -0.5422  0.4732  0.1978
18846TIP3   OH278028   0.438   0.991   0.567 -0.0666  0.4879  0.3238
18846TIP3    H178029   0.461   1.061   0.505  1.5849  0.4714  0.8881
18846TIP3    H278030   0.518   0.941   0.578 -0.8729 -0.6969  0.9891
18847TIP3   OH278031   3.310   6.566   4.040  0.1562  0.4865 -0.1984
18847TIP3    H178032   3.291   6.590   3.949 -0.3504 -0.8056 -0.4560
18847TIP3    H278033   3.380   6.500   4.032  0.1133  0.3754  0.3506
18848TIP3   OH278034   2.746   5.941   5.219 -0.4898  0.3614 -0.2263
18848TIP3    H178035   2.696   5.881   5.275 -0.4814 -1.1681 -1.7841
18848TIP3    H278036   2.706   6.027   5.235 -2.2325 -0.4616  0.1468
18849TIP3   OH278037   2.835   5.228  12.739  0.3282  0.7604 -0.2551
18849TIP3    H178038   2.804   5.221  12.649  0.5162  0.3024 -0.2827
18849TIP3    H278039   2.761   5.198  12.792  0.1579  1.1850 -0.2433
18850TIP3   OH278040   0.095   3.140  14.613 -0.5310  0.2834  0.0505
18850TIP3    H178041   0.179   3.094  14.618 -0.6404  0.1209  0.4780
18850TIP3    H278042   0.104   3.214  14.673  0.4033  2.1205 -2.1764
18851TIP3   OH278043   6.346   0.207  10.980 -0.0580 -0.4619 -0.6968
18851TIP3    H178044   6.264   0.170  10.948 -0.9793  1.0218 -0.1712
18851TIP3    H278045   6.322   0.256  11.059  1.2811  0.2463 -0.6840
18852TIP3   OH278046   1.495   1.661  15.475 -0.1612 -0.3155  0.1447
18852TIP3    H178047   1.477   1.710  15.556  1.3188  0.3044  0.1195
18852TIP3    H278048   1.551   1.589  15.503 -0.2580 -0.5302 -0.2163
18853TIP3   OH278049   4.926   1.462  15.273  0.0592  0.1367 -0.4869
18853TIP3    H178050   5.019   1.453  15.254 -0.0136 -0.9361 -0.3953
18853TIP3    H278051   4.893   1.372  15.273 -0.8895  0.4751 -0.0816
18854TIP3   OH278052   6.731   2.935  16.854 -0.1088 -0.3319  0.7591
18854TIP3    H178053   6.761   2.958  16.942  0.4434 -0.8624  0.7186
18854TIP3    H278054   6.689   3.014  16.821  1.6250  0.6164  0.6649
18855TIP3   OH278055   1.190   2.391   1.678  0.1064  0.7419 -0.3663
18855TIP3    H178056   1.176   2.304   1.640  0.7725  1.2283 -1.8101
18855TIP3    H278057   1.187   2.450   1.603 -0.6409  2.0145  0.6394
18856TIP3   OH278058   4.915   1.603  11.527 -0.0358 -0.5055  0.4916
18856TIP3    H178059   4.906   1.670  11.459 -1.6124  1.3616  2.4226
18856TIP3    H278060   4.828   1.565  11.535 -0.5803  1.0831  3.1035
18857TIP3   OH278061   0.403   3.250  13.163  0.3188 -0.2135  0.0347
18857TIP3    H178062   0.433   3.333  13.200  2.8935 -0.7732 -0.6187
18857TIP3    H278063   0.417   3.185  13.232 -4.0627  0.0933  1.5210
18858TIP3   OH278064   3.303   5.275  10.491 -0.8268 -0.0408  0.7122
18858TIP3    H178065   3.377   5.217  10.508 -0.1323  0.2866 -0.9092
18858TIP3    H278066   3.299   5.333  10.567  2.0711  1.4213 -0.0934
18859TIP3   OH278067   6.307   3.670   1.309  0.1871 -0.7618 -0.7345
18859TIP3    H178068   6.265   3.751   1.339 -0.9521 -1.2143 -1.0655
18859TIP3    H278069   6.316   3.682   1.215  1.3393 -0.4372 -0.5941
18860TIP3   OH278070   1.800   2.598   1.610 -0.4743 -0.0006 -0.2216
18860TIP3    H178071   1.810   2.572   1.518 -1.4178  0.1039 -0.3612
18860TIP3    H278072   1.740   2.533   1.647 -0.3648  0.1562  0.2392
18861TIP3   OH278073   3.872   5.761   0.945 -0.0730  1.1271  0.2150
18861TIP3    H178074   3.869   5.667   0.961  1.8706  1.0481  0.3788
18861TIP3    H278075   3.795   5.779   0.891 -0.8196 -0.4379  0.7149
18862TIP3   OH278076   3.180   2.127   4.176  0.1993  0.0141 -0.3970
18862TIP3    H178077   3.120   2.113   4.102  0.8810 -2.7830 -0.5168
18862TIP3    H278078   3.130   2.099   4.252 -0.0626  1.7390  0.1249
18863TIP3   OH278079   0.212   4.800  16.578 -0.1589 -0.3891  0.1213
18863TIP3    H178080   0.299   4.841  16.573 -0.2708  0.2367  2.1785
18863TIP3    H278081   0.197   4.764  16.491  1.9091  0.0154 -0.4560
18864TIP3   OH278082   5.266   6.542   2.228  0.0415 -0.3467  0.4456
18864TIP3    H178083   5.185   6.579   2.264 -0.4270 -0.4180 -0.4976
18864TIP3    H278084   5.336   6.593   2.269 -0.4172 -0.9070  2.0082
18865TIP3   OH278085   3.708   3.438  16.670  0.3579  0.6177 -0.0784
18865TIP3    H178086   3.795   3.472  16.689  0.0970  1.5060 -0.4150
18865TIP3    H278087   3.680   3.396  16.751  0.1844  2.3433  0.7893
18866TIP3   OH278088   1.626   4.531  15.268  0.1480 -0.0304  0.3794
18866TIP3    H178089   1.663   4.502  15.184  0.2391 -1.7550  0.9751
18866TIP3    H278090   1.695   4.513  15.332 -0.5271 -0.2877  1.0528
18867TIP3   OH278091   1.421   3.312   2.192  0.1336  0.0409  0.1489
18867TIP3    H178092   1.428   3.225   2.231  0.6481 -0.0138 -0.0635
18867TIP3    H278093   1.488   3.314   2.123 -0.1634  0.4518 -0.1376
18868TIP3   OH278094   6.571   2.516  15.086  0.5279 -0.4076 -0.3387
18868TIP3    H178095   6.603   2.435  15.124  0.6407 -0.2738 -0.1497
18868TIP3    H278096   6.525   2.560  15.157  1.0119 -0.0096 -0.2703
18869TIP3   OH278097   2.017   5.196  12.718 -0.9624  0.0093  0.3606
18869TIP3    H178098   2.052   5.285  12.729  1.3087 -0.9317  1.3548
18869TIP3    H278099   1.959   5.184  12.793  0.2602  0.0011  1.3387
18870TIP3   OH278100   5.291   1.732  12.429 -0.3526 -0.8291  0.4477
18870TIP3    H178101   5.370   1.722  12.375  0.2735  0.4461  1.0639
18870TIP3    H278102   5.311   1.683  12.509  0.0223 -0.1337  0.7911
18871TIP3   OH278103   5.967   6.035  16.117 -0.3096 -0.1952  0.3229
18871TIP3    H178104   5.993   5.951  16.078  1.9918 -0.2659  1.8452
18871TIP3    H278105   5.992   6.100  16.051 -0.0284 -0.5515  0.0700
18872TIP3   OH278106   1.088   0.770   2.100  0.7098  0.2908  0.2997
18872TIP3    H178107   1.060   0.831   2.032  0.4908  0.7196  0.7655
18872TIP3    H278108   1.012   0.762   2.158  1.8044  2.2693  2.1563
18873TIP3   OH278109   2.253   4.247   1.846  0.1667  0.2069  0.1823
18873TIP3    H178110   2.209   4.275   1.926  1.5061 -0.3011  1.1424
18873TIP3    H278111   2.182   4.229   1.785 -1.0927 -2.0697  2.1369
18874TIP3   OH278112   0.123   6.401  13.541 -0.4747 -0.2126  0.2153
18874TIP3    H178113   0.189   6.468  13.523  0.0914 -0.9277 -0.4095
18874TIP3    H278114   0.092   6.375  13.454 -2.3031  0.8037  0.5078
18875TIP3   OH278115   5.847   5.138   0.240  0.5315  0.0037 -0.1835
18875TIP3    H178116   5.760   5.115   0.270  1.1950 -0.8449  1.2018
18875TIP3    H278117   5.905   5.077   0.286  1.8459  0.5105 -1.1120
18876TIP3   OH278118   1.470   3.195   5.802  0.2968  0.7717 -0.1851
18876TIP3    H178119   1.439   3.148   5.879 -0.0589  1.5501  0.1574
18876TIP3    H278120   1.559   3.163   5.788  1.1329  2.0624  1.7550
18877TIP3   OH278121   1.217   3.973   4.532 -0.5538  0.1265  0.1674
18877TIP3    H178122   1.188   3.958   4.442  0.9070 -1.1263 -0.1390
18877TIP3    H278123   1.311   3.988   4.525 -0.6322  1.3795  1.3718
18878TIP3   OH278124   4.822   0.157  13.549 -0.7513 -0.5267  0.4028
18878TIP3    H178125   4.911   0.169  13.582 -1.0528 -1.6389  1.7563
18878TIP3    H278126   4.783   0.244  13.553  0.4186  0.0644 -0.6921
18879TIP3   OH278127   5.845   4.955   0.755 -0.9696 -0.5233  0.3022
18879TIP3    H178128   5.805   5.020   0.697 -1.6518  1.5355  2.8622
18879TIP3    H278129   5.773   4.925   0.810  0.2759  0.8052  2.8315
18880TIP3   OH278130   2.257   1.466  12.827 -0.2401  0.2059  0.1719
18880TIP3    H178131   2.248   1.417  12.908  0.5379 -1.0764 -0.4884
18880TIP3    H278132   2.232   1.405  12.758  3.6641 -0.4161 -0.9348
18881TIP3   OH278133   4.532   3.753   3.316 -0.5069  0.1220  0.1451
18881TIP3    H178134   4.623   3.726   3.328 -0.3991  0.1793 -0.5013
18881TIP3    H278135   4.537   3.844   3.286 -0.7676  0.0582 -0.1037
18882TIP3   OH278136   5.317   0.849   1.400 -0.1107 -0.5515 -0.7503
18882TIP3    H178137   5.225   0.872   1.410 -0.1421 -0.1484 -1.8100
18882TIP3    H278138   5.365   0.930   1.417  0.1925 -1.1217  1.4478
18883TIP3   OH278139   5.049   6.539   4.283 -0.1054 -0.1382  0.5045
18883TIP3    H178140   5.005   6.455   4.282  0.5438 -0.4808 -0.1647
18883TIP3    H278141   5.062   6.561   4.191  0.0720  0.5075  0.6769
18884TIP3   OH278142   2.341   4.265   4.904  0.4181  0.0653 -0.4310
18884TIP3    H178143   2.395   4.281   4.827 -0.8416 -2.0345 -1.8646
18884TIP3    H278144   2.259   4.310   4.886  0.7075  1.0212  0.5262
18885TIP3   OH278145   2.483   1.769  10.688  0.3230 -0.1184 -0.6461
18885TIP3    H178146   2.513   1.742  10.601  0.5674 -0.7241 -0.3761
18885TIP3    H278147   2.515   1.701  10.747 -0.0765  0.1492 -0.1132
18886TIP3   OH278148   3.309   4.058  13.269 -0.2378  0.3513 -0.0274
18886TIP3    H178149   3.238   4.109  13.307 -1.7936 -0.1792 -2.0459
18886TIP3    H278150   3.328   4.101  13.185  1.2617 -0.0161  0.0828
18887TIP3   OH278151   3.452   1.155  13.626  0.2869  0.0354  0.1806
18887TIP3    H178152   3.480   1.184  13.713 -0.3672  1.2387  0.0118
18887TIP3    H278153   3.373   1.103  13.642  1.2916 -1.4708  0.4573
18888TIP3   OH278154   4.845   4.543  13.552  0.5275 -0.2454 -0.0438
18888TIP3    H178155   4.850   4.595  13.472 -0.6668  0.0446  0.0574
18888TIP3    H278156   4.828   4.454  13.522 -1.2548  0.0753 -0.0996
18889TIP3   OH278157   6.738   6.722   0.433  0.1703 -0.0941 -0.7718
18889TIP3    H178158   6.806   6.669   0.392  0.6594  0.3388 -0.5329
18889TIP3    H278159   6.657   6.671   0.421  0.6245 -0.8758 -0.5663
18890TIP3   OH278160   6.083   2.758  12.124  0.0354  0.2327  0.2006
18890TIP3    H178161   6.162   2.755  12.069  0.0296 -1.1658  0.2270
18890TIP3    H278162   6.043   2.672  12.112 -1.2482  0.7643  0.5498
18891TIP3   OH278163   6.241   2.087   0.203  0.3303  0.3990 -0.6196
18891TIP3    H178164   6.188   2.167   0.206  0.4974  0.6004 -2.0916
18891TIP3    H278165   6.236   2.059   0.111 -0.0849 -1.5313 -0.0479
18892TIP3   OH278166   4.242   6.637  14.088  0.0021  0.0727  0.2268
18892TIP3    H178167   4.259   6.683  14.006 -0.5102 -1.0003 -0.5048
18892TIP3    H278168   4.245   6.545  14.064  1.2855 -0.3187  1.7089
18893TIP3   OH278169   4.896   3.205   4.498  0.2623  0.5170 -0.0832
18893TIP3    H178170   4.872   3.193   4.406 -2.3630 -0.2500  0.5931
18893TIP3    H278171   4.968   3.267   4.497  1.6101 -0.9280 -2.7475
18894TIP3   OH278172   2.780   1.422  16.798 -0.7880 -0.0272 -0.0303
18894TIP3    H178173   2.770   1.429  16.893  1.3284  0.5306  0.2005
18894TIP3    H278174   2.738   1.340  16.775 -0.0143 -0.9294  1.6215
18895TIP3   OH278175   6.228   6.492  16.763  0.4050  0.2129  0.0086
18895TIP3    H178176   6.318   6.524  16.760  0.3824  0.2486 -2.6888
18895TIP3    H278177   6.235   6.399  16.744 -0.0967  0.1707  0.0167
18896TIP3   OH278178   2.326   1.166   1.146  0.0457  0.6554 -0.2568
18896TIP3    H178179   2.407   1.129   1.181 -0.2499  1.8231  1.8147
18896TIP3    H278180   2.284   1.207   1.222 -1.7598  1.3760 -1.5894
18897TIP3   OH278181   0.689   0.312   5.624 -0.3811  0.0962 -0.4504
18897TIP3    H178182   0.670   0.256   5.549 -2.2607  0.1496 -0.0643
18897TIP3    H278183   0.613   0.301   5.682  0.2851  1.2775  0.7014
18898TIP3   OH278184   2.997   6.433   2.275  0.9899  0.6245 -0.0446
18898TIP3    H178185   3.035   6.480   2.349 -1.9391  1.3873  1.1458
18898TIP3    H278186   2.968   6.501   2.215  0.5227  0.1624 -0.3565
18899TIP3   OH278187   0.345   2.233   3.425 -0.2475 -0.5309  0.5006
18899TIP3    H178188   0.332   2.314   3.475  0.8646  0.4455 -0.7282
18899TIP3    H278189   0.425   2.195   3.460  1.0547  0.6338 -1.0599
18900TIP3   OH278190   2.801   3.615  16.959 -0.3721 -0.0590  0.4064
18900TIP3    H178191   2.773   3.538  17.008  0.2226 -0.4811  0.0854
18900TIP3    H278192   2.754   3.688  17.001 -1.9368 -0.7333 -0.1054
18901TIP3   OH278193   0.119   1.170   4.633  0.1191  0.0502 -0.1785
18901TIP3    H178194   0.180   1.226   4.586  1.6868 -0.9562  0.5801
18901TIP3    H278195   0.134   1.190   4.726  0.5106 -1.3773  0.0907
18902TIP3   OH278196   5.520   6.758  16.183  0.1649  0.2571  0.1517
18902TIP3    H178197   5.479   6.790  16.264  0.3066  0.2668  0.2195
18902TIP3    H278198   5.446   6.748  16.123 -0.2456 -1.8093  0.9197
18903TIP3   OH278199   6.613   1.508   0.572  0.3825 -0.1432 -0.4118
18903TIP3    H178200   6.640   1.519   0.481  0.4368 -0.9391 -0.5026
18903TIP3    H278201   6.602   1.597   0.605  2.8425  0.2404 -0.4561
18904TIP3   OH278202   2.622   5.750   0.518  0.0986 -0.0223 -0.1908
18904TIP3    H178203   2.698   5.790   0.477 -1.0435  1.8097 -0.6319
18904TIP3    H278204   2.592   5.685   0.455  1.7953 -1.4386  0.3915
18905TIP3   OH278205   6.451   3.422  13.404 -0.6610 -0.4439  0.0885
18905TIP3    H178206   6.508   3.348  13.384 -0.8640 -0.6138  0.1344
18905TIP3    H278207   6.510   3.497  13.410 -0.5013 -0.5391 -0.3139
18906TIP3   OH278208   5.059   4.730  16.613 -0.1250  0.0157  0.1788
18906TIP3    H178209   5.035   4.650  16.660  0.5745 -0.2993 -0.0004
18906TIP3    H278210   4.982   4.751  16.561 -0.2709 -0.6007  0.1415
18907TIP3   OH278211   1.383   5.953   2.973  0.1146 -0.2331  0.7062
18907TIP3    H178212   1.319   5.998   2.918  1.2545 -0.3269 -0.7316
18907TIP3    H278213   1.450   6.018   2.991 -0.5570  0.0014  2.5945
18908TIP3   OH278214   5.805   4.216  13.063 -0.1653  0.2791  0.2365
18908TIP3    H178215   5.834   4.231  13.153 -1.3580 -0.1126  0.7014
18908TIP3    H278216   5.875   4.255  13.010  1.5577 -1.2298  1.2672
18909TIP3   OH278217   2.376   1.954  10.895  0.9304 -0.1860 -0.6024
18909TIP3    H178218   2.378   1.925  10.804 -0.2192  0.4829 -0.8505
18909TIP3    H278219   2.337   2.041  10.893  1.9251  0.3212  0.4215
18910TIP3   OH278220   4.769   2.093  11.544 -0.0563  0.1037 -0.1439
18910TIP3    H178221   4.795   2.120  11.632  1.6127 -2.1145  0.1301
18910TIP3    H278222   4.713   2.016  11.559 -0.9796  0.5950 -0.9968
18911TIP3   OH278223   6.718   1.127  11.597  0.2088  0.1381  0.8203
18911TIP3    H178224   6.691   1.035  11.592 -2.6766  0.9385  0.0101
18911TIP3    H278225   6.757   1.144  11.511  0.7983 -0.3216  0.9894
18912TIP3   OH278226   1.958   5.582  11.598  0.5243  0.0337 -0.3960
18912TIP3    H178227   1.924   5.638  11.529  1.5602  0.5739 -0.4920
18912TIP3    H278228   1.964   5.639  11.675  0.4588 -0.2640 -0.1658
18913TIP3   OH278229   5.446   1.584  12.618  0.0752 -0.2437 -0.2132
18913TIP3    H178230   5.531   1.596  12.659 -0.6604 -0.7389  1.5184
18913TIP3    H278231   5.439   1.490  12.603 -0.4705 -0.3016  0.3589
18914TIP3   OH278232   3.389   1.624   4.734 -0.4735 -0.1891 -0.1781
18914TIP3    H178233   3.371   1.659   4.646  1.8354 -0.7459 -0.9363
18914TIP3    H278234   3.369   1.531   4.726 -0.8335 -0.1362  0.0815
18915TIP3   OH278235   5.836   2.190   2.300  0.4074  0.0833 -0.1374
18915TIP3    H178236   5.906   2.211   2.362 -0.6352  2.5046  0.3474
18915TIP3    H278237   5.757   2.181   2.353 -0.1783  0.4117 -0.9225
18916TIP3   OH278238   0.492   3.840  13.987  0.1260 -0.5513  0.9832
18916TIP3    H178239   0.405   3.864  13.955  0.8861  0.2092 -0.5872
18916TIP3    H278240   0.505   3.750  13.956 -0.4077 -0.9682  1.9274
18917TIP3   OH278241   6.732   2.140  14.584  0.2451  0.2796  0.0994
18917TIP3    H178242   6.827   2.147  14.570  0.1785  0.3796 -0.3127
18917TIP3    H278243   6.721   2.149  14.679  0.4739  2.4683 -0.0147
18918TIP3   OH278244   5.333   1.644  16.679  0.2561 -0.7236  0.3983
18918TIP3    H178245   5.296   1.684  16.600  1.5643 -0.3702 -0.0626
18918TIP3    H278246   5.346   1.552  16.655 -0.8007 -0.9787  0.7496
18919TIP3   OH278247   3.117   0.695  15.206 -0.2356  0.2004 -0.0777
18919TIP3    H178248   3.195   0.679  15.258 -0.0161  0.7521 -0.2344
18919TIP3    H278249   3.079   0.774  15.244 -0.0550  0.6244 -0.7783
18920TIP3   OH278250   1.208   3.481  14.915  0.3331  0.1657  0.5659
18920TIP3    H178251   1.114   3.480  14.933 -0.3853 -0.7682 -2.6286
18920TIP3    H278252   1.226   3.396  14.876  2.4714  0.4376  0.8466
18921TIP3   OH278253   1.255   1.938  11.214  0.0170 -0.0362 -1.0385
18921TIP3    H178254   1.164   1.961  11.231 -0.2677 -2.8406  2.1114
18921TIP3    H278255   1.302   1.967  11.292  0.8870 -2.9435 -0.3679
18922TIP3   OH278256   2.322   2.956   1.730 -0.0114 -0.7948 -0.6514
18922TIP3    H178257   2.293   2.940   1.820  0.1290 -1.4393 -0.7195
18922TIP3    H278258   2.272   2.895   1.677 -0.4558 -0.0713 -1.0763
18923TIP3   OH278259   5.122   6.009  12.125  0.1053  0.0870  0.0452
18923TIP3    H178260   5.153   6.100  12.120  2.1794 -0.5634  0.4585
18923TIP3    H278261   5.032   6.013  12.091  0.5779  2.0812 -1.1328
18924TIP3   OH278262   4.378   3.132  17.003 -0.0739 -0.8821  0.0744
18924TIP3    H178263   4.414   3.174  17.080 -0.3979  0.6455 -0.5737
18924TIP3    H278264   4.361   3.203  16.942 -1.3186 -1.8727 -0.8058
18925TIP3   OH278265   1.496   3.148  11.803 -0.4859 -0.2228  0.2356
18925TIP3    H178266   1.431   3.216  11.819 -0.1261  0.3100 -0.4635
18925TIP3    H278267   1.446   3.076  11.765 -0.5914  0.4375 -0.9285
18926TIP3   OH278268   5.596   5.550   3.787  0.4811  0.2031 -0.4594
18926TIP3    H178269   5.513   5.587   3.754 -0.5477 -0.2966  1.4336
18926TIP3    H278270   5.662   5.615   3.763 -0.7245  1.4433 -0.5515
18927TIP3   OH278271   1.818   3.045   3.424  0.1562  0.5853  0.7090
18927TIP3    H178272   1.757   3.100   3.374  0.5316 -0.2646 -0.7443
18927TIP3    H278273   1.857   3.104   3.488 -1.4542  1.3728  0.9978
18928TIP3   OH278274   6.540   3.061   0.924 -0.3883  0.1051  0.0353
18928TIP3    H178275   6.522   3.154   0.913 -3.7768 -0.6209 -1.9802
18928TIP3    H278276   6.500   3.038   1.008  0.9864  0.5503  0.8238
18929TIP3   OH278277   3.944   1.026   3.904 -0.1935 -0.6228 -0.1257
18929TIP3    H178278   3.939   1.120   3.889  2.1244 -0.2066  1.2386
18929TIP3    H278279   3.917   1.014   3.995  0.3308 -1.1593 -0.0340
18930TIP3   OH278280   4.390   2.322  14.480 -0.4650  0.2058  0.5005
18930TIP3    H178281   4.443   2.398  14.502  0.8996 -0.2276 -1.1146
18930TIP3    H278282   4.325   2.354  14.418 -0.3073  0.1900  0.3264
18931TIP3   OH278283   2.487   2.549   4.311  0.1527 -0.4553 -0.7314
18931TIP3    H178284   2.503   2.563   4.217  2.7926 -0.7327 -0.3939
18931TIP3    H278285   2.519   2.461   4.328  1.8185  0.3949  0.8148
18932TIP3   OH278286   4.322   2.372   2.106  0.0385 -0.1784  0.1114
18932TIP3    H178287   4.401   2.346   2.153 -0.5763 -0.3415  1.0870
18932TIP3    H278288   4.280   2.290   2.081 -1.1644 -0.1848  1.9368
18933TIP3   OH278289   1.807   0.715   1.333  0.2478 -0.1610 -0.2434
18933TIP3    H178290   1.765   0.782   1.386  0.1238  0.1188 -0.6911
18933TIP3    H278291   1.877   0.681   1.389 -1.1878 -1.3633  0.9174
18934TIP3   OH278292   3.362   0.914   4.830 -0.1309 -0.4830 -0.2245
18934TIP3    H178293   3.335   0.977   4.897  1.0773 -0.5682  0.3825
18934TIP3    H278294   3.281   0.878   4.796 -0.7802 -0.3635  1.1368
18935TIP3   OH278295   1.774   1.678  12.483 -0.1134 -0.5682 -0.7139
18935TIP3    H178296   1.704   1.615  12.468  0.3214 -1.3229  0.2602
18935TIP3    H278297   1.736   1.741  12.545  0.1855 -1.2258  0.1598
18936TIP3   OH278298   5.318   0.132  15.929 -0.2585 -0.7492 -0.1212
18936TIP3    H178299   5.235   0.156  15.888 -0.4021  0.5569  0.8664
18936TIP3    H278300   5.384   0.153  15.862 -0.6869 -1.6364 -0.8456
18937TIP3   OH278301   3.800   2.932  11.260 -0.4834  0.1372  0.5835
18937TIP3    H178302   3.853   3.010  11.242  1.3859 -0.9687  0.9950
18937TIP3    H278303   3.785   2.893  11.174  0.4901 -0.2028  0.5504
18938TIP3   OH278304   1.022   2.203  13.386 -0.0985 -0.1244  0.8820
18938TIP3    H178305   0.996   2.111  13.387 -0.0542 -0.2940 -2.1620
18938TIP3    H278306   1.113   2.201  13.353  0.0033  0.9864  1.0562
18939TIP3   OH278307   4.193   6.307   2.899 -0.3798 -0.0142 -0.0265
18939TIP3    H178308   4.226   6.392   2.928  0.2137 -0.4787  0.7082
18939TIP3    H278309   4.179   6.257   2.979 -3.5810  0.3555 -0.2252
18940TIP3   OH278310   3.783   1.193  16.729 -0.2587 -0.3668 -0.3704
18940TIP3    H178311   3.698   1.216  16.765 -0.0843 -0.5374  0.1575
18940TIP3    H278312   3.841   1.265  16.752  0.1221 -0.9831  0.6909
18941TIP3   OH278313   6.010   2.557   3.874  0.4405 -0.0883 -0.2451
18941TIP3    H178314   6.102   2.569   3.852  0.3795 -0.2023 -0.5747
18941TIP3    H278315   6.010   2.533   3.967  0.6484  1.2683  0.1330
18942TIP3   OH278316   5.061   3.391  16.175  0.1158 -0.1297  0.3937
18942TIP3    H178317   5.098   3.360  16.257 -0.3378  1.8106  1.3852
18942TIP3    H278318   5.118   3.464  16.149  1.8422 -2.2432 -2.4456
18943TIP3   OH278319   6.621   2.839  11.865  0.5842  0.0246 -0.1354
18943TIP3    H178320   6.650   2.929  11.881  0.2744  0.1712 -0.3842
18943TIP3    H278321   6.537   2.849  11.819 -2.1873 -0.2498  4.2255
18944TIP3   OH278322   2.005   6.746   3.824 -0.5953  0.0629  0.2208
18944TIP3    H178323   2.049   6.726   3.741  0.2424 -1.7608  1.0362
18944TIP3    H278324   2.054   6.820   3.860  0.7264 -0.7653  0.2377
18945TIP3   OH278325   5.952   5.012  11.805  0.3577  0.1877  0.6693
18945TIP3    H178326   5.871   4.976  11.769  0.7473  0.6904 -0.7593
18945TIP3    H278327   5.964   4.966  11.888 -0.8728 -0.5894  0.4367
18946TIP3   OH278328   2.257   6.137  15.841  0.1840  0.7735  0.1355
18946TIP3    H178329   2.218   6.220  15.815 -0.3815  0.0775 -1.3524
18946TIP3    H278330   2.275   6.092  15.758  1.0090 -0.3469  0.8912
18947TIP3   OH278331   1.411   4.015  11.966  0.6657  0.2848  0.1813
18947TIP3    H178332   1.354   4.026  11.889  1.4945  0.9652 -0.3645
18947TIP3    H278333   1.494   3.985  11.929  1.2981  1.3122  0.7279
18948TIP3   OH278334   1.976   4.363  14.207 -0.1087  0.2017 -0.0409
18948TIP3    H178335   2.047   4.301  14.197 -0.3760  0.0084 -0.8275
18948TIP3    H278336   2.010   4.430  14.265  0.7396  0.1411 -0.4585
18949TIP3   OH278337   3.838   4.130  12.324 -0.2270  0.3160  0.2410
18949TIP3    H178338   3.933   4.139  12.333 -0.4965  2.7124  1.4515
18949TIP3    H278339   3.814   4.198  12.262 -1.1064 -0.9052 -0.8173
18950TIP3   OH278340   5.372   2.263  15.011  0.5694 -0.6021 -0.4891
18950TIP3    H178341   5.303   2.290  15.071 -1.3738 -1.8893 -2.0381
18950TIP3    H278342   5.369   2.328  14.940  1.0383 -0.6041 -0.5178
18951TIP3   OH278343   2.869   1.140   2.599  0.0242 -0.2220  0.3276
18951TIP3    H178344   2.817   1.215   2.628  1.7115  1.2718 -0.2715
18951TIP3    H278345   2.833   1.119   2.513  0.8909  1.3753 -0.4822
18952TIP3   OH278346   0.355   5.158  10.451 -0.1010 -0.1746 -0.5724
18952TIP3    H178347   0.416   5.090  10.480  0.7915  0.6367 -0.4887
18952TIP3    H278348   0.405   5.239  10.459 -2.1638  0.9683  2.5684
18953TIP3   OH278349   0.667   5.324   3.169 -0.2854  0.8708  0.1601
18953TIP3    H178350   0.706   5.262   3.108  1.0061  2.5868 -0.8621
18953TIP3    H278351   0.577   5.335   3.139 -0.2544  0.1930 -0.1962
18954TIP3   OH278352   2.233   3.889  15.995 -0.0963  0.2119 -0.3484
18954TIP3    H178353   2.242   3.963  15.935 -2.6563  0.6196 -0.3401
18954TIP3    H278354   2.198   3.818  15.940  1.6578 -0.8349 -0.2020
18955TIP3   OH278355   0.362   2.563   0.723  0.5538 -0.3869  0.5780
18955TIP3    H178356   0.268   2.547   0.726  0.4692 -0.2552 -0.6373
18955TIP3    H278357   0.378   2.632   0.788 -0.3618  0.3375  0.0598
18956TIP3   OH278358   1.213   3.220   2.792  0.5341  0.0994 -0.2009
18956TIP3    H178359   1.255   3.303   2.817  1.9689 -0.7389  0.3223
18956TIP3    H278360   1.120   3.234   2.810  0.5318  2.0379 -1.3913
18957TIP3   OH278361   5.207   4.723   5.060 -0.0960  0.7168  0.4433
18957TIP3    H178362   5.181   4.717   5.152 -1.0350 -0.3191  0.1315
18957TIP3    H278363   5.154   4.795   5.025 -0.9001  0.0861  0.3467
18958TIP3   OH278364   4.197   1.988   5.499 -0.0416  0.0387  0.3637
18958TIP3    H178365   4.202   1.894   5.519 -0.7372 -0.3575 -1.1731
18958TIP3    H278366   4.105   2.010   5.509  0.1102  0.5414  0.6412
18959TIP3   OH278367   2.487   5.688   0.042  0.2686  0.6489  0.2600
18959TIP3    H178368   2.506   5.594   0.043 -0.0204  0.5889  0.2601
18959TIP3    H278369   2.565   5.729   0.080  2.3684  0.7938 -3.6871
18960TIP3   OH278370   4.169   1.770   0.449 -0.1321  0.0841 -0.2525
18960TIP3    H178371   4.098   1.820   0.490  0.2478  1.3813 -1.0905
18960TIP3    H278372   4.156   1.680   0.478 -2.3178  0.2256 -0.6509
18961TIP3   OH278373   6.492   0.194  15.489 -0.8765  0.8902 -0.4453
18961TIP3    H178374   6.474   0.106  15.455  1.5183  0.4603 -0.7466
18961TIP3    H278375   6.468   0.190  15.581  1.9161 -1.0692  0.3260
18962TIP3   OH278376   0.688   4.607   3.943  0.2360 -0.2659  0.5778
18962TIP3    H178377   0.734   4.684   3.974  0.1608 -0.9229  2.4140
18962TIP3    H278378   0.755   4.553   3.901  0.1418  1.1227 -1.4968
18963TIP3   OH278379   1.622   3.176   3.241 -0.1222  0.1161  0.1703
18963TIP3    H178380   1.534   3.143   3.220 -0.7239  2.0609 -0.6261
18963TIP3    H278381   1.625   3.263   3.200  1.9155  0.4031  0.8271
18964TIP3   OH278382   1.053   2.230   0.731  0.3965 -0.0908 -0.0225
18964TIP3    H178383   1.127   2.227   0.791  0.4677 -1.6900 -0.1535
18964TIP3    H278384   1.022   2.140   0.725 -1.7340  0.5583  0.2150
18965TIP3   OH278385   3.137   2.479   1.528  0.7703  0.2628 -0.0957
18965TIP3    H178386   3.051   2.492   1.488  1.2671 -0.5325 -1.4722
18965TIP3    H278387   3.135   2.389   1.559  1.6341 -0.2650 -1.5160
18966TIP3   OH278388   5.932   2.296   5.116  0.4064  0.2058  0.6353
18966TIP3    H178389   6.005   2.313   5.057 -0.0102  0.2594  0.1262
18966TIP3    H278390   5.942   2.361   5.186  0.7640  0.3059  0.4938
18967TIP3   OH278391   4.914   0.434  12.468  0.0051 -0.1123  0.6161
18967TIP3    H178392   4.965   0.494  12.523 -1.0682  1.7978 -0.3432
18967TIP3    H278393   4.824   0.446  12.498 -0.2684 -1.1045  0.2259
18968TIP3   OH278394   0.764   4.715  11.034  0.1694  0.2080 -0.5084
18968TIP3    H178395   0.765   4.677  10.946  0.2020  0.3968 -0.5894
18968TIP3    H278396   0.693   4.669  11.078 -0.5507  0.8661 -0.9668
18969TIP3   OH278397   4.881   0.868   2.267  0.0092  0.1948  0.2202
18969TIP3    H178398   4.923   0.916   2.338  0.1291 -1.6603  1.4935
18969TIP3    H278399   4.857   0.784   2.307  1.6977 -1.6742 -2.3547
18970TIP3   OH278400   0.054   0.687   2.382 -0.4961  0.2723 -0.2795
18970TIP3    H178401   0.134   0.731   2.353 -0.1801 -0.4879 -0.5923
18970TIP3    H278402  -0.011   0.756   2.385 -0.0422  0.7443 -0.8914
18971TIP3   OH278403   3.696   5.794  11.449  0.5551 -0.2825 -0.0308
18971TIP3    H178404   3.764   5.745  11.496 -0.8266  0.1392  2.6213
18971TIP3    H278405   3.708   5.885  11.478 -1.4434 -0.2911  1.0090
18972TIP3   OH278406   2.328   5.902  11.963  0.1462  0.3836  0.0153
18972TIP3    H178407   2.341   5.968  12.031 -0.3696  1.0677 -0.5427
18972TIP3    H278408   2.384   5.829  11.990  0.0411  0.6921  1.1051
18973TIP3   OH278409   0.958   0.663   3.145  0.5730 -0.2773 -0.2177
18973TIP3    H178410   0.935   0.639   3.055  0.2264 -0.1427 -0.1686
18973TIP3    H278411   0.983   0.755   3.140  2.7515 -0.8410 -0.5556
18974TIP3   OH278412   4.074   0.843  16.223  0.1667 -0.4783  0.0383
18974TIP3    H178413   4.032   0.928  16.214 -1.2590 -1.2173 -0.6275
18974TIP3    H278414   4.168   0.862  16.219 -0.1317  0.9870 -0.7284
18975TIP3   OH278415   3.515   6.090  12.299  0.0181 -0.0789 -0.1559
18975TIP3    H178416   3.585   6.147  12.332  2.1581 -1.0135 -2.7076
18975TIP3    H278417   3.540   6.002  12.326  0.7878 -0.6189 -2.4199
18976TIP3   OH278418   5.957   6.548   3.816 -0.0945  0.0825  0.8010
18976TIP3    H178419   6.013   6.481   3.856 -0.6316  0.5645  2.4299
18976TIP3    H278420   5.978   6.629   3.864  1.8854  1.6000 -2.3040
18977TIP3   OH278421   5.382   3.270  14.342 -0.0069 -0.4582  0.1915
18977TIP3    H178422   5.370   3.307  14.254  1.1479 -0.6226 -0.0494
18977TIP3    H278423   5.300   3.224  14.360 -0.8377  0.8115 -0.1888
18978TIP3   OH278424   1.528   0.496  14.547 -0.5618  0.2228 -0.1703
18978TIP3    H178425   1.471   0.571  14.533 -0.1877  0.5617  0.0871
18978TIP3    H278426   1.469   0.422  14.557 -0.9519  0.5521  0.0023
18979TIP3   OH278427   5.741   2.243  15.695 -0.7348 -0.4007  0.5273
18979TIP3    H178428   5.777   2.165  15.736 -1.5127 -0.8304  0.4127
18979TIP3    H278429   5.677   2.276  15.758 -1.3612 -0.6167  0.0228
18980TIP3   OH278430   1.365   4.518  11.498 -0.5865  0.7341 -0.0686
18980TIP3    H178431   1.364   4.610  11.473  0.1967  0.8008  0.1110
18980TIP3    H278432   1.436   4.512  11.562  0.5616 -0.3140 -1.3793
18981TIP3   OH278433   1.095   6.057   5.476  0.3452  0.3982  0.4629
18981TIP3    H178434   1.036   6.021   5.542  1.5012 -0.3019  1.1457
18981TIP3    H278435   1.107   5.986   5.413  0.6532  0.4352  0.4754
18982TIP3   OH278436   1.864   2.437  13.184  0.0863  0.2242  0.1876
18982TIP3    H178437   1.808   2.486  13.123 -0.7526  0.4697  1.1351
18982TIP3    H278438   1.810   2.426  13.262  0.9861 -0.4941  0.7213
18983TIP3   OH278439   1.329   6.756   3.967  0.1600 -0.1693 -0.3630
18983TIP3    H178440   1.253   6.755   3.908 -0.1182 -1.8010 -0.0310
18983TIP3    H278441   1.291   6.745   4.054  0.6475  1.2393  0.0618
18984TIP3   OH278442   0.406   3.910   3.881 -0.0306  0.5817  0.1913
18984TIP3    H178443   0.495   3.944   3.870  0.5734 -1.3463 -1.7005
18984TIP3    H278444   0.414   3.816   3.862 -2.6573  0.5735 -1.4381
18985TIP3   OH278445   2.226   3.294   5.598  0.8817  0.0935 -0.0215
18985TIP3    H178446   2.315   3.280   5.568  0.3488 -1.5443 -0.9517
18985TIP3    H278447   2.185   3.348   5.530  0.7412 -0.4799 -0.4049
18986TIP3   OH278448   3.369   3.287   3.453 -0.3712 -0.0739  0.2892
18986TIP3    H178449   3.331   3.204   3.480  0.6035  0.1914  2.6384
18986TIP3    H278450   3.359   3.344   3.528 -0.8556  1.9363 -1.2104
18987TIP3   OH278451   4.636   6.457  15.477 -0.3414 -0.2817  0.2089
18987TIP3    H178452   4.715   6.444  15.425 -0.1202 -0.1101  0.4970
18987TIP3    H278453   4.595   6.370  15.481 -0.1405 -0.3817  0.1020
18988TIP3   OH278454   5.809   2.122  11.702  0.5943 -0.8014 -0.4307
18988TIP3    H178455   5.730   2.114  11.754  0.4851 -0.9485 -0.6167
18988TIP3    H278456   5.813   2.214  11.676  1.3849 -0.3975  0.9885
18989TIP3   OH278457   5.392   2.782   3.622 -0.4884  0.5453  0.2891
18989TIP3    H178458   5.307   2.739   3.616 -0.0963 -0.0842 -1.2709
18989TIP3    H278459   5.391   2.846   3.551  0.9076 -0.5812 -0.8164
18990TIP3   OH278460   2.862   3.629   0.907 -0.2409 -0.1813 -0.6285
18990TIP3    H178461   2.852   3.695   0.839 -1.4966 -1.2571 -1.5641
18990TIP3    H278462   2.954   3.633   0.933 -0.6131  3.1578  0.7159
18991TIP3   OH278463   3.241   2.870  16.922 -0.5410  0.6779  0.1350
18991TIP3    H178464   3.146   2.887  16.921 -0.6338  0.6158 -2.8943
18991TIP3    H278465   3.271   2.900  16.836  2.0605 -0.0838  0.6950
18992TIP3   OH278466   6.828   5.981  12.449 -0.0321 -0.2981  0.2352
18992TIP3    H178467   6.781   6.051  12.495 -1.5814 -1.6908  0.8568
18992TIP3    H278468   6.904   5.963  12.504  0.0521  0.4672  0.3837
18993TIP3   OH278469   2.621   4.724   0.440 -0.3909 -0.1178  0.2299
18993TIP3    H178470   2.541   4.768   0.470 -1.2618 -0.8987 -0.8855
18993TIP3    H278471   2.592   4.670   0.366  1.3426  0.3428 -0.8364
18994TIP3   OH278472   0.616   2.534   1.749  0.0184 -0.8768  0.0948
18994TIP3    H178473   0.648   2.567   1.666 -0.5117 -2.3411 -0.7229
18994TIP3    H278474   0.559   2.603   1.783  0.0217 -0.3871 -0.8863
18995TIP3   OH278475   1.002   1.412  16.280  0.0254  0.2802  0.3906
18995TIP3    H178476   1.039   1.494  16.247  0.8991 -0.1694  0.2160
18995TIP3    H278477   1.044   1.344  16.228 -0.8733 -0.2730  0.3698
18996TIP3   OH278478   0.156   4.303  16.043  0.0862 -0.2256  0.2310
18996TIP3    H178479   0.210   4.364  15.994  0.5204 -1.4407 -0.8518
18996TIP3    H278480   0.107   4.254  15.977 -0.4522 -0.8725  1.0712
18997TIP3   OH278481   0.407   1.378  11.925  0.3408 -0.1595  0.5322
18997TIP3    H178482   0.471   1.445  11.902  1.2697 -0.4111  2.2428
18997TIP3    H278483   0.395   1.328  11.844  2.1058  0.0495  0.0997
18998TIP3   OH278484   2.414   3.724   4.659  0.8189 -0.3165 -0.2048
18998TIP3    H178485   2.465   3.726   4.740 -1.5235  0.7963  1.3589
18998TIP3    H278486   2.385   3.815   4.648 -1.8727 -1.1279 -0.2616
18999TIP3   OH278487   0.554   1.221   3.515  0.0915 -0.1004 -0.6581
18999TIP3    H178488   0.618   1.158   3.482 -0.6346  0.4162 -3.2756
18999TIP3    H278489   0.472   1.173   3.518  0.3520 -0.5152  1.8590
19000TIP3   OH278490   3.087   5.560   1.556 -0.7055  0.8361 -0.1973
19000TIP3    H178491   3.025   5.539   1.486 -2.1840 -1.5921  1.6906
19000TIP3    H278492   3.169   5.521   1.528 -1.2012  0.1410 -0.7006
19001TIP3   OH278493   2.608   6.823  15.319 -0.3895 -0.4703  0.3981
19001TIP3    H178494   2.618   6.904  15.270 -0.4040 -1.2379 -0.9242
19001TIP3    H278495   2.688   6.816  15.371 -0.9235  0.9836  1.4801
19002TIP3   OH278496   4.288   3.592  14.529 -0.1746 -0.0638 -0.6445
19002TIP3    H178497   4.298   3.687  14.516 -0.4535  0.0242 -0.2138
19002TIP3    H278498   4.198   3.574  14.501 -0.1841 -0.1711 -0.5433
19003TIP3   OH278499   0.615   2.872  16.646 -0.6967  0.2635  0.7550
19003TIP3    H178500   0.586   2.797  16.699  1.1679 -1.2641 -0.2408
19003TIP3    H278501   0.589   2.849  16.557  2.8893 -1.0162 -0.1373
19004TIP3   OH278502   0.382   6.416  14.420  0.5537  0.2096  0.1981
19004TIP3    H178503   0.319   6.482  14.391  1.0148  0.2273 -0.7665
19004TIP3    H278504   0.431   6.460  14.490  0.2106  0.5565  0.2279
19005TIP3   OH278505   6.165   0.466   2.857  0.6002 -0.0672  0.5390
19005TIP3    H178506   6.185   0.557   2.878 -0.1080  0.3954 -0.6998
19005TIP3    H278507   6.244   0.432   2.817  0.5888  0.2671  0.2264
19006TIP3   OH278508   0.179   1.031   3.144 -0.0778  0.0459 -0.1576
19006TIP3    H178509   0.123   0.968   3.189 -0.6344  1.3093  0.9890
19006TIP3    H278510   0.249   1.049   3.206  0.0233  0.6138 -0.4304
19007TIP3   OH278511   2.082   1.433  11.329 -0.1802 -0.2770 -0.9777
19007TIP3    H178512   2.040   1.424  11.415  0.9205 -1.1004 -0.5048
19007TIP3    H278513   2.084   1.528  11.314  3.2745  0.3157  1.8595
19008TIP3   OH278514   0.920   0.864   1.910 -0.0952  0.1297  0.5390
19008TIP3    H178515   0.905   0.941   1.855  0.3172  0.2708  0.6196
19008TIP3    H278516   0.834   0.841   1.943 -0.4611 -0.3248 -0.6586
19009TIP3   OH278517   1.969   2.062  13.773  0.3876 -0.5154  0.5373
19009TIP3    H178518   1.935   2.016  13.850  0.5575 -1.0675  0.2926
19009TIP3    H278519   1.929   2.016  13.699 -0.9826  0.9746  0.3122
19010TIP3   OH278520   4.869   6.087   6.610 -0.0292  0.2153  0.0877
19010TIP3    H178521   4.780   6.119   6.622 -0.1009 -0.5417  1.8611
19010TIP3    H278522   4.861   6.013   6.551 -0.4799  0.5482 -0.2757
19011TIP3   OH278523   4.257   1.275  16.679  0.2970 -0.4264  0.3008
19011TIP3    H178524   4.234   1.230  16.760  3.0476 -1.6661  0.5109
19011TIP3    H278525   4.218   1.221  16.610  0.1268 -0.8202  0.7006
19012TIP3   OH278526   6.835   4.696  11.897 -0.0405 -0.8302 -0.3081
19012TIP3    H178527   6.914   4.678  11.949  0.2185  1.2900  0.1196
19012TIP3    H278528   6.815   4.788  11.916 -3.1928 -1.5610  0.3465
19013TIP3   OH278529   2.108   6.207   3.900  0.2054  0.3091  0.0989
19013TIP3    H178530   2.123   6.260   3.978 -1.0522 -0.8109  1.1573
19013TIP3    H278531   2.029   6.157   3.921  0.4157 -0.7503 -1.5148
19014TIP3   OH278532   4.268   0.948   1.551 -0.3015  0.7660 -0.1214
19014TIP3    H178533   4.350   0.997   1.545 -0.1997  0.5936 -0.1522
19014TIP3    H278534   4.218   0.993   1.619  1.2411 -1.1579  2.4689
19015TIP3   OH278535   3.718   4.439   4.676 -0.2259  0.1710  0.1487
19015TIP3    H178536   3.633   4.405   4.704 -0.4194 -0.9080 -1.6036
19015TIP3    H278537   3.779   4.367   4.689  0.2781  0.6783  0.6518
19016TIP3   OH278538   4.162   5.321  11.183  0.2264 -0.1782 -0.6017
19016TIP3    H178539   4.090   5.347  11.125  0.3548  1.0286 -0.2441
19016TIP3    H278540   4.185   5.402  11.230 -0.5097 -1.2818  1.8494
19017TIP3   OH278541   4.493   5.621   3.012  0.2097  0.0521  0.4283
19017TIP3    H178542   4.509   5.714   3.001  1.3070 -0.0214  1.3005
19017TIP3    H278543   4.398   5.614   3.023  0.3327  1.4563  3.4831
19018TIP3   OH278544   4.179   2.218  15.185 -0.4104 -0.1892  0.7864
19018TIP3    H178545   4.259   2.262  15.155 -1.3904  0.3599 -1.1942
19018TIP3    H278546   4.158   2.157  15.115  0.1915 -3.0350  2.9021
19019TIP3   OH278547   1.701   6.733   2.489 -0.6281  0.3824 -0.2665
19019TIP3    H178548   1.625   6.694   2.445 -0.6448 -1.4987  1.2408
19019TIP3    H278549   1.675   6.823   2.507 -1.9641  0.1662 -0.9780
19020TIP3   OH278550   0.804   0.823   1.617  0.3128 -0.0135 -0.2900
19020TIP3    H178551   0.819   0.738   1.659 -0.1999  0.3038  0.5507
19020TIP3    H278552   0.848   0.815   1.532  1.1989 -0.7393  0.2102
19021TIP3   OH278553   0.450   2.778   3.680  1.1396  0.9529  0.3785
19021TIP3    H178554   0.520   2.823   3.727  0.8694 -1.6001  3.5958
19021TIP3    H278555   0.398   2.736   3.749 -1.1411 -0.6269 -2.1017
19022TIP3   OH278556   1.324   5.201  13.846  0.1200 -0.3672  0.2274
19022TIP3    H178557   1.248   5.178  13.794  0.4596 -0.7034 -0.1285
19022TIP3    H278558   1.353   5.118  13.884  1.1781 -0.5094 -0.8264
19023TIP3   OH278559   0.195   4.877  11.614 -0.2640  0.0874 -0.8399
19023TIP3    H178560   0.223   4.912  11.529 -0.0127  0.2162 -0.7060
19023TIP3    H278561   0.264   4.815  11.638 -0.7337 -0.5363 -1.0979
19024TIP3   OH278562   6.483   5.401   4.937  0.7810  0.0005 -0.4009
19024TIP3    H178563   6.413   5.376   4.877  1.6472  0.6556 -1.7333
19024TIP3    H278564   6.453   5.483   4.976  0.0439 -0.6257  0.3801
19025TIP3   OH278565   1.853   2.679   2.908 -0.4629  0.7962 -0.2215
19025TIP3    H178566   1.792   2.613   2.875 -1.8174  1.8708  0.0136
19025TIP3    H278567   1.834   2.757   2.855  1.1833  0.9858 -0.5819
19026TIP3   OH278568   4.284   4.422  13.797 -0.6194 -0.1939  0.2362
19026TIP3    H178569   4.372   4.443  13.828  0.1188 -2.5397 -0.0374
19026TIP3    H278570   4.258   4.346  13.849 -2.2396  0.0913 -0.1199
19027TIP3   OH278571   0.866   2.565   5.450  0.2328  0.0854 -0.0203
19027TIP3    H178572   0.881   2.501   5.380  1.2674  0.0823  0.1795
19027TIP3    H278573   0.838   2.512   5.525 -0.5484  0.0541 -0.3276
19028TIP3   OH278574   5.464   4.634  13.568 -0.2859 -0.7824 -0.4038
19028TIP3    H178575   5.543   4.686  13.560 -1.4734  1.1522 -0.1598
19028TIP3    H278576   5.484   4.567  13.633  0.2486  1.4892  1.8827
19029TIP3   OH278577   1.608   2.398  16.500 -0.3096  0.1261 -0.2542
19029TIP3    H178578   1.534   2.448  16.535 -0.0977  0.4049 -0.2005
19029TIP3    H278579   1.665   2.464  16.460  0.2490 -0.0057  0.3093
19030TIP3   OH278580   2.991   5.009  13.268 -0.0518  0.0206  0.8559
19030TIP3    H178581   2.907   5.054  13.277 -1.1515 -1.7256 -0.0655
19030TIP3    H278582   3.016   5.023  13.177 -0.2957 -0.9818  0.6203
19031TIP3   OH278583   5.794   3.044   0.060 -0.2827  0.2161 -0.1207
19031TIP3    H178584   5.802   3.044   0.155  1.1256  0.5457 -0.2213
19031TIP3    H278585   5.744   3.123   0.040 -2.8023 -1.1153  0.4516
19032TIP3   OH278586   4.312   0.157  11.555 -0.1723 -0.2267  0.0934
19032TIP3    H178587   4.296   0.103  11.477 -0.2797 -1.7639  1.1426
19032TIP3    H278588   4.378   0.220  11.527 -1.7259  0.6602 -1.8460
19033TIP3   OH278589   1.872   0.260   0.707 -0.7923 -0.2972 -0.3582
19033TIP3    H178590   1.838   0.348   0.691  2.3643  1.4169  1.3926
19033TIP3    H278591   1.924   0.240   0.629 -1.2989 -0.5312 -0.6420
19034TIP3   OH278592   4.540   2.655   6.686 -0.0563  0.2242  0.0675
19034TIP3    H178593   4.477   2.689   6.623 -0.7394  0.4821  0.8677
19034TIP3    H278594   4.491   2.651   6.769  0.7784 -0.2242  0.5506
19035TIP3   OH278595   3.808   5.677  16.195  0.6521 -0.2707  0.3177
19035TIP3    H178596   3.830   5.624  16.118  0.8291 -0.8129  0.7357
19035TIP3    H278597   3.888   5.676  16.248  0.9513  1.1517 -0.0732
19036TIP3   OH278598   2.427   3.881  16.855 -0.2788 -0.9268 -0.6047
19036TIP3    H178599   2.389   3.886  16.943  1.1803  1.1090 -0.0230
19036TIP3    H278600   2.362   3.923  16.798 -0.9997 -1.7961 -0.4503
19037TIP3   OH278601   0.988   5.269   6.075  0.0360  0.0546 -0.4098
19037TIP3    H178602   0.919   5.244   6.137 -0.0777  1.6428  0.1545
19037TIP3    H278603   1.021   5.353   6.109  1.0358  0.1881 -1.6536
19038TIP3   OH278604   0.071   4.529   0.113 -0.1006 -0.5857 -0.1245
19038TIP3    H178605   0.029   4.475   0.047  1.2337 -0.6775 -0.9333
19038TIP3    H278606  -0.002   4.571   0.160 -1.1421  1.4075 -3.1887
19039TIP3   OH278607   6.669   1.743   0.812  0.3038  0.2022 -0.0536
19039TIP3    H178608   6.701   1.783   0.892  0.1127 -0.3238  0.2940
19039TIP3    H278609   6.745   1.698   0.775  0.4927  0.7939 -0.3908
19040TIP3   OH278610   0.280   3.798  15.185  0.2414 -0.0464 -0.3250
19040TIP3    H178611   0.222   3.723  15.196  0.6298 -0.2763  0.1997
19040TIP3    H278612   0.292   3.833  15.273 -0.6250  1.1760 -0.6652
19041TIP3   OH278613   3.643   5.216   1.009  0.0984 -0.2912 -0.7537
19041TIP3    H178614   3.617   5.252   0.925  0.1401  1.3214 -0.1178
19041TIP3    H278615   3.593   5.135   1.018 -2.4402  1.1608 -0.9044
19042TIP3   OH278616   0.656   0.834   3.112  0.3318 -0.2960 -0.4193
19042TIP3    H178617   0.609   0.913   3.085  0.4494 -0.1026 -0.0471
19042TIP3    H278618   0.644   0.830   3.207  0.7254 -0.4684 -0.3771
19043TIP3   OH278619   5.678   1.023  14.137 -0.1388 -0.1295 -0.3578
19043TIP3    H178620   5.722   1.105  14.113 -2.0283  1.1636  0.3288
19043TIP3    H278621   5.695   1.014  14.231 -0.3372 -0.2400 -0.3317
19044TIP3   OH278622   6.350   3.968  12.669  0.2977  0.3547  0.9162
19044TIP3    H178623   6.289   3.894  12.671  0.1976  0.4047 -0.0342
19044TIP3    H278624   6.338   4.011  12.754 -1.6685  0.8946  0.4303
19045TIP3   OH278625   6.661   0.491  11.634  0.1051 -0.2991  0.1197
19045TIP3    H178626   6.720   0.418  11.653 -0.8336 -1.4692 -1.2173
19045TIP3    H278627   6.713   0.569  11.653  2.4012 -1.2403 -1.6945
19046TIP3   OH278628   5.097   2.121   5.474  0.0670 -0.0060  0.1336
19046TIP3    H178629   5.111   2.063   5.549 -1.1521  0.3075  0.6219
19046TIP3    H278630   5.160   2.192   5.486 -0.2408  0.1311  0.9668
19047TIP3   OH278631   1.855   5.113   5.424 -0.4522 -0.4229  0.2924
19047TIP3    H178632   1.851   5.017   5.419 -0.9090 -0.6001  2.8750
19047TIP3    H278633   1.944   5.132   5.454 -0.1587  0.0318 -0.8128
19048TIP3   OH278634   3.665   0.330  13.119  0.0491 -0.5199  0.3253
19048TIP3    H178635   3.734   0.308  13.183  1.1949 -1.3273 -1.1169
19048TIP3    H278636   3.659   0.425  13.123  1.7335 -0.3703  0.0481
19049TIP3   OH278637   0.424   1.103  13.924 -0.8322 -0.6056  1.1637
19049TIP3    H178638   0.518   1.091  13.940 -0.8566 -0.7408  1.2074
19049TIP3    H278639   0.407   1.194  13.950 -0.0819  0.5093 -1.8173
19050TIP3   OH278640   5.518   3.656   2.574  0.0236 -0.8108 -0.2000
19050TIP3    H178641   5.510   3.720   2.645  2.8840  0.5298 -0.9419
19050TIP3    H278642   5.612   3.651   2.556 -0.5035 -1.5807 -3.4438
19051TIP3   OH278643   3.033   5.337  15.805  0.0615 -0.5093 -0.0352
19051TIP3    H178644   3.026   5.425  15.842  0.4269  0.7045 -2.5718
19051TIP3    H278645   3.125   5.313  15.815 -0.3297 -1.3677  2.0785
19052TIP3   OH278646   4.560   5.974  16.671  0.3968  0.3374  0.4073
19052TIP3    H178647   4.492   5.984  16.604  1.4212 -0.4333 -0.8029
19052TIP3    H278648   4.638   5.951  16.622  0.3506 -4.4060  2.0271
19053TIP3   OH278649   3.835   6.156  15.668 -0.4355  0.1829 -0.0353
19053TIP3    H178650   3.747   6.178  15.638 -0.7236  1.4482  1.6013
19053TIP3    H278651   3.857   6.224  15.733  1.1662 -0.9111  0.6533
19054TIP3   OH278652   2.886   1.081  12.478  0.3408  0.1602 -0.1578
19054TIP3    H178653   2.923   1.028  12.408  2.5905 -0.5273  1.4457
19054TIP3    H278654   2.825   1.022  12.523 -1.3525  0.6981 -1.6120
19055TIP3   OH278655   2.168   1.823   2.191  0.2327 -0.1240  0.0464
19055TIP3    H178656   2.223   1.767   2.136  1.5455  0.0255  1.1329
19055TIP3    H278657   2.139   1.766   2.262 -1.4732 -0.3267 -0.7780
19056TIP3   OH278658   1.243   3.681   4.068  0.2040 -0.1233  0.2986
19056TIP3    H178659   1.331   3.719   4.063 -0.0103  0.3985  0.4045
19056TIP3    H278660   1.186   3.756   4.088 -0.1447 -0.6074  1.1629
19057TIP3   OH278661   4.860   3.843   2.977 -0.2916  0.1039  0.0519
19057TIP3    H178662   4.919   3.841   3.052 -1.6225  0.3281  1.1530
19057TIP3    H278663   4.850   3.751   2.952 -0.1630 -0.0129  0.4273
19058TIP3   OH278664   0.444   4.096   2.302  1.0164  0.0230  0.1194
19058TIP3    H178665   0.394   4.165   2.344  0.1656 -0.7796  0.4545
19058TIP3    H278666   0.415   4.097   2.211 -2.5252 -2.8186  0.9749
19059TIP3   OH278667   2.212   0.615  12.384 -0.1626 -0.1319 -0.1149
19059TIP3    H178668   2.157   0.544  12.417  1.4421 -0.7670  1.3594
19059TIP3    H278669   2.183   0.628  12.294 -1.0868 -2.0468 -0.1468
19060TIP3   OH278670   2.743   3.460  16.602 -0.1837  0.1457 -0.4488
19060TIP3    H178671   2.759   3.366  16.600 -0.4115  0.1014 -2.4755
19060TIP3    H278672   2.651   3.469  16.579 -0.2087  0.8759 -0.0956
19061TIP3   OH278673   4.766   5.765   4.556 -0.2811 -0.4624 -0.3121
19061TIP3    H178674   4.684   5.753   4.508 -0.1363 -2.1600 -0.1831
19061TIP3    H278675   4.820   5.691   4.531  1.2040  0.5846 -0.3135
19062TIP3   OH278676   3.314   3.208  16.355 -0.1951 -0.0041 -0.2415
19062TIP3    H178677   3.395   3.243  16.319 -0.2139 -1.5666 -1.9162
19062TIP3    H278678   3.314   3.236  16.446  1.2967  1.6094 -0.6866
19063TIP3   OH278679   2.502   1.034  15.639  0.1916 -0.6060 -0.4819
19063TIP3    H178680   2.582   1.035  15.693 -0.2265 -0.4924  0.1405
19063TIP3    H278681   2.440   1.088  15.686 -0.1127 -0.3127 -1.2038
19064TIP3   OH278682   1.249   1.882  11.672  0.2482  0.3303  0.2039
19064TIP3    H178683   1.325   1.921  11.715  0.3004  0.6623 -0.1898
19064TIP3    H278684   1.175   1.906  11.728  0.2731  1.0457 -0.0710
19065TIP3   OH278685   5.400   0.391  16.962  0.0723 -0.1562  0.2137
19065TIP3    H178686   5.432   0.481  16.967 -0.9391  0.1587  2.7341
19065TIP3    H278687   5.353   0.378  17.044 -0.4786 -2.7564 -0.4181
19066TIP3   OH278688   6.074   5.606   0.246  0.3577 -0.2710  0.1866
19066TIP3    H178689   6.107   5.553   0.318 -0.5720 -0.3158  0.5845
19066TIP3    H278690   6.010   5.550   0.202  0.9748 -0.2817 -0.7398
19067TIP3   OH278691   6.240   6.256   5.539  0.5170 -0.4365  0.2224
19067TIP3    H178692   6.168   6.195   5.555  0.6807 -0.4413  1.0076
19067TIP3    H278693   6.309   6.203   5.499  0.3191 -0.5670  0.0515
19068TIP3   OH278694   3.331   1.244   1.213  0.5789 -0.1936  0.0569
19068TIP3    H178695   3.410   1.294   1.192  0.3590  0.9137  1.7215
19068TIP3    H278696   3.274   1.255   1.137  1.3865  0.3383 -0.4755
19069TIP3   OH278697   2.216   1.451  15.551 -0.1405  0.3072 -0.9331
19069TIP3    H178698   2.297   1.490  15.584  0.4590 -2.8467  2.0293
19069TIP3    H278699   2.149   1.517  15.569  1.0144  0.8545  2.1002
19070TIP3   OH278700   0.205   0.349   3.557  0.0329  0.1624  0.0950
19070TIP3    H178701   0.231   0.319   3.644  1.7594  2.6941  0.5703
19070TIP3    H278702   0.280   0.330   3.501  0.4912  1.8989  0.0536
19071TIP3   OH278703   0.942   3.400  15.957 -0.3744 -0.5120  0.2104
19071TIP3    H178704   0.984   3.360  16.033 -0.9094  1.4003  1.5662
19071TIP3    H278705   0.862   3.440  15.991 -0.1652  1.1861 -1.1488
19072TIP3   OH278706   6.721   4.356  11.082  0.0888 -0.1008  0.2231
19072TIP3    H178707   6.748   4.447  11.090 -0.8636  0.0193  3.2137
19072TIP3    H278708   6.653   4.357  11.014  0.0382  1.4295  0.2558
19073TIP3   OH278709   4.874   4.572   2.484 -0.0522 -0.0636  0.0162
19073TIP3    H178710   4.962   4.535   2.474  0.1012  0.7694 -2.5211
19073TIP3    H278711   4.818   4.517   2.428 -0.5595  1.0990 -0.6550
19074TIP3   OH278712   5.042   0.943  12.199  0.5469  0.0735  0.2269
19074TIP3    H178713   5.031   1.027  12.156 -0.0930 -0.5424 -0.8571
19074TIP3    H278714   5.017   0.959  12.290  0.0587  0.9604 -0.0528
19075TIP3   OH278715   4.504   6.605   5.674 -0.2146 -0.3805 -0.3082
19075TIP3    H178716   4.496   6.511   5.658 -0.0984 -0.3393 -0.6171
19075TIP3    H278717   4.583   6.632   5.627 -0.7594  0.0382 -1.0275
19076TIP3   OH278718   5.441   1.824   0.098  0.0806 -0.5575 -0.1700
19076TIP3    H178719   5.419   1.894   0.037 -0.4543 -1.2901 -0.8460
19076TIP3    H278720   5.531   1.842   0.124  0.0860  0.1555 -0.6515
19077TIP3   OH278721   5.961   5.709  13.153  0.0715 -0.0517 -0.4804
19077TIP3    H178722   6.017   5.757  13.093  0.4976  3.0332  2.1170
19077TIP3    H278723   6.018   5.644  13.194  0.9140  0.8244 -0.2490
19078TIP3   OH278724   3.582   3.657  16.580 -0.3711 -0.2504  0.8099
19078TIP3    H178725   3.538   3.693  16.657  0.1536  1.2273  0.4342
19078TIP3    H278726   3.619   3.573  16.611 -1.4079 -0.3744  1.7521
19079TIP3   OH278727   3.842   5.449   0.788  0.3322 -0.5908 -0.0337
19079TIP3    H178728   3.840   5.511   0.715 -2.8543 -1.1530 -0.5522
19079TIP3    H278729   3.847   5.363   0.747  2.1775 -0.8501  0.6118
19080TIP3   OH278730   2.228   0.312  13.229 -0.0590  0.1042 -0.0843
19080TIP3    H178731   2.153   0.266  13.267  0.7308 -0.7231  0.5168
19080TIP3    H278732   2.222   0.401  13.265 -1.2858  0.3338 -0.8195
19081TIP3   OH278733   5.478   3.968  14.768 -0.2540 -0.3508  0.3344
19081TIP3    H178734   5.489   3.873  14.770  2.0866 -0.1372  0.0060
19081TIP3    H278735   5.386   3.981  14.742 -0.6854 -2.4954  0.6266
19082TIP3   OH278736   6.509   5.135   2.889  0.6641  0.4702  0.3212
19082TIP3    H178737   6.449   5.188   2.942 -1.1781 -0.8244 -0.3893
19082TIP3    H278738   6.533   5.192   2.816 -1.5209  0.3102 -0.5862
19083TIP3   OH278739   0.450   5.594   5.695  0.0479  0.7846 -0.5688
19083TIP3    H178740   0.539   5.588   5.729 -0.1920 -0.8757 -0.1517
19083TIP3    H278741   0.397   5.622   5.769 -0.2779 -1.6242  0.2026
19084TIP3   OH278742   2.896   3.181   5.301  0.5132  0.4592  1.1062
19084TIP3    H178743   2.923   3.237   5.228 -0.5475  1.3839  1.3859
19084TIP3    H278744   2.860   3.242   5.365 -0.2664 -0.5140  1.6216
19085TIP3   OH278745   2.098   3.380  14.704 -0.0080 -0.5527  0.0356
19085TIP3    H178746   2.071   3.445  14.638 -2.3800 -1.6064 -0.1381
19085TIP3    H278747   2.103   3.298  14.655 -1.1603 -1.2237  0.9822
19086TIP3   OH278748   1.270   3.788  13.994  0.8855  0.1018  0.6316
19086TIP3    H178749   1.212   3.812  14.066  0.0484 -0.0668  0.0291
19086TIP3    H278750   1.211   3.758  13.925  1.4755  2.3290 -0.9680
19087TIP3   OH278751   1.290   3.727  16.520 -0.5036 -0.2734 -0.2112
19087TIP3    H178752   1.228   3.681  16.577 -1.3942  1.8573  0.6170
19087TIP3    H278753   1.249   3.811  16.502  1.6303  0.7492 -0.6067
19088TIP3   OH278754   0.273   2.151   6.205 -0.3001  0.1916  0.0108
19088TIP3    H178755   0.235   2.129   6.290  1.1431  0.7221  0.8343
19088TIP3    H278756   0.330   2.077   6.185 -2.1504 -0.9156 -1.5309
19089TIP3   OH278757   1.970   3.038   5.100  0.4803 -0.6628 -0.8354
19089TIP3    H178758   2.058   3.051   5.068 -0.2815  1.6074 -2.2141
19089TIP3    H278759   1.917   3.020   5.022 -0.7750  1.2576 -0.5061
19090TIP3   OH278760   4.529   6.800   3.795  0.5712 -0.1487 -0.5865
19090TIP3    H178761   4.603   6.861   3.800  1.2093 -1.0049  0.9744
19090TIP3    H278762   4.509   6.779   3.886 -0.0582 -1.7766 -1.0754
19091TIP3   OH278763   3.702   3.561  15.738  0.2766  0.1875  0.6617
19091TIP3    H178764   3.792   3.551  15.771  0.6012 -1.5371 -0.6068
19091TIP3    H278765   3.699   3.651  15.705  1.0447  0.7674  2.0762
19092TIP3   OH278766   2.640   2.711   1.073 -0.5316  0.4702  0.1007
19092TIP3    H178767   2.665   2.771   1.002  0.9977 -1.0327 -0.6954
19092TIP3    H278768   2.643   2.764   1.152  0.3426  1.5473 -0.6272
19093TIP3   OH278769   6.139   2.965  11.917 -0.9503  0.4044 -0.2459
19093TIP3    H178770   6.062   2.938  11.967 -0.8802  0.4416 -0.1156
19093TIP3    H278771   6.213   2.929  11.966 -0.7117  2.6656  1.1999
19094TIP3   OH278772   5.951   6.713  15.157 -0.2190  0.1506 -0.0172
19094TIP3    H178773   5.975   6.625  15.127 -0.8144 -0.6174  1.6530
19094TIP3    H278774   6.016   6.734  15.224  0.7384  1.5970 -1.3096
19095TIP3   OH278775   0.471   5.871   1.758  0.1712  0.8536 -0.7452
19095TIP3    H178776   0.520   5.923   1.823 -0.6784  0.3124  0.3600
19095TIP3    H278777   0.516   5.787   1.757 -0.7068  0.3398  0.3049
19096TIP3   OH278778   3.097   3.110   0.695  0.2584  0.1202  0.0936
19096TIP3    H178779   3.030   3.178   0.690  0.2118  0.1495  0.9535
19096TIP3    H278780   3.173   3.148   0.650 -0.6817 -0.4257 -2.0774
19097TIP3   OH278781   2.493   0.502  16.611  0.4268  0.1352 -0.2463
19097TIP3    H178782   2.518   0.411  16.627 -2.7885 -0.8607 -0.3617
19097TIP3    H278783   2.477   0.506  16.517 -1.5937  0.1756  0.0723
19098TIP3   OH278784   3.657   1.037   2.421  0.2221 -0.1631  0.0102
19098TIP3    H178785   3.621   0.955   2.387  1.4555 -1.3666  1.4849
19098TIP3    H278786   3.583   1.079   2.465 -0.1892 -0.9859  0.1248
19099TIP3   OH278787   1.347   2.826   0.431 -0.1729 -0.0793 -0.1686
19099TIP3    H178788   1.416   2.884   0.463 -0.4421  0.0672  0.1510
19099TIP3    H278789   1.336   2.761   0.500 -0.3990 -0.0668 -0.1933
19100TIP3   OH278790   1.446   1.358  12.160  0.1311  0.0503 -0.2296
19100TIP3    H178791   1.468   1.265  12.157 -1.5071 -0.3494 -0.4165
19100TIP3    H278792   1.380   1.370  12.092 -1.0135  0.9773  0.9990
19101TIP3   OH278793   3.536   2.488   1.941  0.0599 -0.6854  0.1667
19101TIP3    H178794   3.588   2.479   1.861  2.9850  0.0108  1.8475
19101TIP3    H278795   3.543   2.580   1.965  2.0168 -1.4266  2.8617
19102TIP3   OH278796   6.406   2.711   1.892  0.0752 -0.2623 -0.3274
19102TIP3    H178797   6.377   2.801   1.876 -1.2121 -0.3875  1.0668
19102TIP3    H278798   6.397   2.667   1.807  0.3793  0.8273 -0.9341
19103TIP3   OH278799   6.582   4.129   2.801 -0.0529  0.2457 -0.1922
19103TIP3    H178800   6.515   4.068   2.833  0.0197 -0.1117 -0.7090
19103TIP3    H278801   6.663   4.077   2.800  0.1425  0.5417 -0.0154
19104TIP3   OH278802   2.155   6.760   1.175  0.4035  0.3242 -0.0375
19104TIP3    H178803   2.183   6.848   1.152 -1.5721  1.5535  1.8489
19104TIP3    H278804   2.089   6.737   1.109  0.5226  0.4894 -0.2119
19105TIP3   OH278805   0.212   5.130   6.112  0.5406  0.8681  0.4328
19105TIP3    H178806   0.297   5.127   6.068  0.9100  0.2852  1.1664
19105TIP3    H278807   0.233   5.150   6.203 -0.1744  1.5236  0.4585
19106TIP3   OH278808   5.135   4.167  16.617  0.1267  0.4827 -0.0211
19106TIP3    H178809   5.113   4.171  16.711  0.6221  1.5038  0.0709
19106TIP3    H278810   5.107   4.080  16.589 -0.3674  0.3006  0.9949
19107TIP3   OH278811   0.341   3.486   2.040 -0.6219 -0.3087  0.2416
19107TIP3    H178812   0.279   3.502   1.969  0.0463 -1.3737 -0.6254
19107TIP3    H278813   0.401   3.420   2.004  0.3775 -0.0735  1.4181
19108TIP3   OH278814   4.292   6.562  12.219  0.5675  0.2796 -0.2918
19108TIP3    H178815   4.274   6.481  12.266 -0.6052  1.3475  1.1967
19108TIP3    H278816   4.369   6.542  12.165  0.5616 -1.6733  0.3449
19109TIP3   OH278817   2.239   3.388  12.714  0.0148 -0.3679 -0.3145
19109TIP3    H178818   2.207   3.478  12.703  0.8019 -0.0810 -0.3347
19109TIP3    H278819   2.170   3.344  12.764 -0.3020  0.2954 -0.1511
19110TIP3   OH278820   0.382   5.178   0.318  0.0506  0.3336  0.2845
19110TIP3    H178821   0.453   5.115   0.330  1.1214  1.4244 -0.0957
19110TIP3    H278822   0.309   5.126   0.285  2.1388 -0.2208 -4.2397
19111TIP3   OH278823   1.930   5.390   3.785 -0.2611 -0.0649 -0.5955
19111TIP3    H178824   1.988   5.315   3.800 -1.2288 -0.9642 -1.2605
19111TIP3    H278825   1.937   5.441   3.866 -0.5547 -1.5388  0.4114
19112TIP3   OH278826   3.712   0.146  12.208 -0.0944  0.4146  0.3725
19112TIP3    H178827   3.715   0.091  12.129  0.1120  0.5393  0.2898
19112TIP3    H278828   3.780   0.212  12.193  0.9431 -0.4062  1.2741
19113TIP3   OH278829   5.884   1.750  11.410 -0.0691 -0.8826  0.3328
19113TIP3    H178830   5.972   1.750  11.371  0.6543  0.7044  1.8605
19113TIP3    H278831   5.882   1.827  11.466 -2.4000 -0.9892  0.4963
19114TIP3   OH278832   3.142   2.462   2.546  0.3581 -0.3076  0.2445
19114TIP3    H178833   3.160   2.503   2.631 -1.1988 -0.9408  0.9132
19114TIP3    H278834   3.152   2.368   2.562 -0.8186 -0.4907 -0.0337
19115TIP3   OH278835   0.528   4.559  14.876 -0.0570  0.5354  0.6346
19115TIP3    H178836   0.467   4.561  14.949  0.0271  1.1206  0.6948
19115TIP3    H278837   0.475   4.579  14.799 -0.2722 -0.7584  0.4353
19116TIP3   OH278838   6.196   2.900   2.107 -0.1451  0.7288 -0.9730
19116TIP3    H178839   6.105   2.926   2.120  0.1960  2.0950 -1.2121
19116TIP3    H278840   6.195   2.805   2.116 -1.0195  0.9129  2.8220
19117TIP3   OH278841   1.068   6.705  16.562  0.0145 -0.1935  0.0074
19117TIP3    H178842   1.148   6.748  16.593  1.0819 -1.1096 -1.3177
19117TIP3    H278843   1.017   6.688  16.641  0.5626  1.4733  0.7730
19118TIP3   OH278844   4.067   2.953  16.229  0.0004 -0.7238  0.3999
19118TIP3    H178845   4.161   2.972  16.233 -0.2324  0.5743  0.4043
19118TIP3    H278846   4.061   2.863  16.199  1.2375 -0.3634 -1.0411
19119TIP3   OH278847   1.076   3.482   5.619 -0.0094 -0.3386 -1.0631
19119TIP3    H178848   1.031   3.400   5.599 -0.1285 -0.6882  0.5555
19119TIP3    H278849   1.018   3.529   5.678  2.3628 -1.6439  2.6788
19120TIP3   OH278850   6.013   2.452  11.443  0.6951 -0.2013 -0.2562
19120TIP3    H178851   6.046   2.542  11.438  1.7044 -0.5379  0.2480
19120TIP3    H278852   5.992   2.429  11.352 -2.3909  1.5477 -0.1347
19121TIP3   OH278853   1.921   5.672   5.144 -0.2183 -0.8478 -0.2734
19121TIP3    H178854   1.847   5.615   5.164 -0.1278 -0.6352  0.7355
19121TIP3    H278855   1.896   5.717   5.064 -0.7598 -1.4938 -0.4819
19122TIP3   OH278856   2.724   4.106   5.772 -0.4308  0.0838 -0.1396
19122TIP3    H178857   2.695   4.091   5.863  0.3844 -0.2746  0.0693
19122TIP3    H278858   2.747   4.199   5.770  0.5372 -0.1253  0.3264
19123TIP3   OH278859   4.794   2.964  13.685 -0.7181  0.7028 -0.2125
19123TIP3    H178860   4.758   3.000  13.604 -1.4203 -1.2895 -0.8321
19123TIP3    H278861   4.730   2.986  13.752 -1.9472 -0.7326 -0.8755
19124TIP3   OH278862   3.975   6.568  14.718  0.4770  0.3942 -0.2341
19124TIP3    H178863   3.979   6.520  14.635  0.0566 -1.1007  0.5615
19124TIP3    H278864   3.917   6.515  14.773 -0.6580  2.2475  0.4654
19125TIP3   OH278865   5.549   5.554  13.537 -0.4273 -0.3115 -0.7514
19125TIP3    H178866   5.575   5.644  13.556 -1.2271 -0.5103  1.7050
19125TIP3    H278867   5.462   5.562  13.499 -1.4700 -0.0473  1.5180
19126TIP3   OH278868   1.053   0.233  16.728  0.1341 -0.0733  0.3730
19126TIP3    H178869   1.146   0.254  16.724 -0.6529  3.8505 -1.5663
19126TIP3    H278870   1.031   0.205  16.639 -0.6990 -0.2439  0.6285
19127TIP3   OH278871   0.750   0.765  11.864  0.6518 -0.0169  0.0880
19127TIP3    H178872   0.737   0.769  11.959  1.2116  2.5638  0.1305
19127TIP3    H278873   0.828   0.819  11.849  0.5326 -0.3401 -1.8606
19128TIP3   OH278874   5.265   5.909  13.236  0.3207 -0.3527  0.0533
19128TIP3    H178875   5.227   5.821  13.233 -0.2724 -0.0761 -1.6562
19128TIP3    H278876   5.345   5.899  13.288  0.6714 -2.0863 -0.7265
19129TIP3   OH278877   3.985   0.570   2.849  0.2278 -0.4332 -0.3160
19129TIP3    H178878   3.926   0.641   2.873  1.4675 -0.0494  1.9211
19129TIP3    H278879   4.038   0.606   2.778 -1.9118 -0.6782 -2.1353
19130TIP3   OH278880   2.171   1.986   3.428 -0.2184 -0.7219 -0.5480
19130TIP3    H178881   2.194   1.899   3.461  2.1811  0.2516  0.5901
19130TIP3    H278882   2.218   1.994   3.345  2.0218  0.4921  0.7546
19131TIP3   OH278883   3.875   2.177  13.068  0.1417 -0.5889  0.0112
19131TIP3    H178884   3.836   2.100  13.108 -1.2087 -0.6148 -1.2694
19131TIP3    H278885   3.969   2.160  13.068 -0.0076 -1.5109  1.1856
19132TIP3   OH278886   1.917   1.384   4.450 -0.8380 -0.1255 -0.3086
19132TIP3    H178887   1.953   1.397   4.362 -0.7969  0.6062 -0.1889
19132TIP3    H278888   1.945   1.295   4.474 -0.7343 -0.2826 -0.9766
19133TIP3   OH278889   2.268   5.777   4.366 -0.2070  0.0250 -0.0236
19133TIP3    H178890   2.281   5.869   4.386 -0.9792 -0.0036  0.6290
19133TIP3    H278891   2.357   5.741   4.362  0.2371  1.1545 -2.1758
19134TIP3   OH278892   0.101   1.603   0.078  0.4623  0.2444 -0.0886
19134TIP3    H178893   0.138   1.639   0.159 -0.6044  1.6477 -0.1861
19134TIP3    H278894   0.139   1.516   0.071  0.6731  0.1271  1.8721
19135TIP3   OH278895   3.388   3.129  14.174  0.0607  0.5259  0.1089
19135TIP3    H178896   3.457   3.196  14.173  0.5341  0.0414 -0.8465
19135TIP3    H278897   3.333   3.150  14.098 -0.2714  0.3159  0.2877
19136TIP3   OH278898   2.858   4.851  11.358  0.3504  0.5286  0.3906
19136TIP3    H178899   2.783   4.906  11.333 -0.2947  0.5948  2.3008
19136TIP3    H278900   2.930   4.883  11.304 -0.9358  0.6204 -1.3301
19137TIP3   OH278901   3.320   6.332   5.507 -0.4011  0.5213  0.6339
19137TIP3    H178902   3.293   6.241   5.513  0.7500  0.1535  0.3740
19137TIP3    H278903   3.394   6.332   5.448 -1.3223  1.8454 -0.5970
19138TIP3   OH278904   0.493   3.408  10.619 -0.3554 -0.4655 -0.2579
19138TIP3    H178905   0.558   3.475  10.596 -0.8809  0.9001  1.8507
19138TIP3    H278906   0.545   3.336  10.654  0.1424  0.7647  1.7670
19139TIP3   OH278907   6.711   1.134   1.815 -0.1449  0.3580 -0.4904
19139TIP3    H178908   6.794   1.094   1.786 -0.0959  0.1684 -0.0947
19139TIP3    H278909   6.730   1.227   1.818 -0.0936  0.3607 -0.8898
19140TIP3   OH278910   4.572   0.455   3.447 -0.5224  0.3315  0.4098
19140TIP3    H178911   4.576   0.434   3.540 -1.4805 -1.2049  0.1456
19140TIP3    H278912   4.485   0.494   3.434 -1.9548 -2.7472 -0.3509
19141TIP3   OH278913   0.559   4.340   3.916  0.4109  0.6223 -0.0997
19141TIP3    H178914   0.570   4.434   3.928  0.3353  0.7782 -1.1418
19141TIP3    H278915   0.618   4.318   3.843  1.0599 -0.2951  0.6686
19142TIP3   OH278916   1.671   5.371   5.064 -0.1712 -0.1663 -0.6291
19142TIP3    H178917   1.636   5.458   5.045 -0.0302  0.0375  0.0240
19142TIP3    H278918   1.599   5.325   5.108 -1.2085 -1.3259 -3.3466
19143TIP3   OH278919   4.265   2.617  11.293 -0.6448  0.3635 -0.5685
19143TIP3    H178920   4.246   2.527  11.317  0.0060  0.5777  0.8772
19143TIP3    H278921   4.361   2.621  11.293 -0.6443  0.6869 -2.1146
19144TIP3   OH278922   5.557   0.149   1.283  0.2191 -0.0142  0.2568
19144TIP3    H178923   5.605   0.141   1.201 -0.9322 -0.6908 -0.3798
19144TIP3    H278924   5.624   0.167   1.348  1.2103  0.0757 -0.7582
19145TIP3   OH278925   0.911   2.403  13.212 -0.3457  0.5791  0.3754
19145TIP3    H178926   0.957   2.349  13.277  0.4394  0.0083 -0.6004
19145TIP3    H278927   0.843   2.346  13.178 -0.3537  0.6554  0.2628
19146TIP3   OH278928   6.116   4.076  13.168 -0.3474  0.0914 -0.1742
19146TIP3    H178929   6.059   4.146  13.199 -0.3728 -0.3217  0.7451
19146TIP3    H278930   6.170   4.117  13.100  0.5314  1.3661  1.2059
19147TIP3   OH278931   3.681   4.762  15.090  0.3023  0.6337  0.6932
19147TIP3    H178932   3.591   4.793  15.107 -0.7334 -1.2759 -0.8696
19147TIP3    H278933   3.692   4.686  15.146 -0.1665 -0.8371 -1.1121
19148TIP3   OH278934   6.424   0.643   4.284  0.6681 -0.0019  0.1497
19148TIP3    H178935   6.339   0.619   4.320 -0.4223  0.4102 -1.9921
19148TIP3    H278936   6.485   0.580   4.321 -0.6468 -0.6073  1.3523
19149TIP3   OH278937   4.439   5.786  11.692 -0.2447 -0.0189  0.0575
19149TIP3    H178938   4.422   5.857  11.754 -1.0717 -0.0630 -0.1126
19149TIP3    H278939   4.389   5.810  11.614  1.0626  0.2119 -0.7352
19150TIP3   OH278940   6.135   5.537   4.706 -0.4432 -0.2948  0.4737
19150TIP3    H178941   6.199   5.486   4.757 -0.3699  0.2501  0.9317
19150TIP3    H278942   6.100   5.600   4.768  0.6151  1.2803 -0.4670
19151TIP3   OH278943   3.672   5.051   4.642  0.6314  0.2223  0.0513
19151TIP3    H178944   3.601   5.089   4.590  0.6127 -0.2733 -0.2973
19151TIP3    H278945   3.672   4.958   4.618  1.6092  0.2753 -0.2069
19152TIP3   OH278946   0.206   5.028  14.060  0.5965  0.0413  0.0433
19152TIP3    H178947   0.110   5.023  14.057  0.4057  2.6730 -1.0349
19152TIP3    H278948   0.224   5.070  14.144  0.7095  0.5209 -0.2162
19153TIP3   OH278949   2.202   0.369  10.861  0.2616 -0.5502  0.2734
19153TIP3    H178950   2.256   0.322  10.925  0.5735  2.3185  2.3193
19153TIP3    H278951   2.256   0.373  10.782  0.7491 -2.3635  0.4784
19154TIP3   OH278952   5.610   6.102  14.957 -0.5020 -0.4805 -0.4695
19154TIP3    H178953   5.688   6.104  15.013 -0.6483 -1.5684 -0.2037
19154TIP3    H278954   5.587   6.194  14.945 -1.1304 -0.2234  2.1724
19155TIP3   OH278955   5.041   1.008  12.476 -0.0081  0.3160 -0.4907
19155TIP3    H178956   4.990   1.088  12.476 -0.3361  0.1215  0.3023
19155TIP3    H278957   5.002   0.955  12.546  1.5327  0.3358  0.4359
19156TIP3   OH278958   3.807   0.440   1.057  0.4820 -0.4335 -0.2739
19156TIP3    H178959   3.741   0.394   1.004 -0.1903  0.4424 -0.2243
19156TIP3    H278960   3.761   0.465   1.137  0.9666 -0.0882 -0.0963
19157TIP3   OH278961   3.072   1.363  15.916  0.5213 -0.5632  0.3227
19157TIP3    H178962   3.158   1.332  15.889  0.9637  0.6099  0.3343
19157TIP3    H278963   3.084   1.393  16.006  0.4005  0.6834 -0.0541
19158TIP3   OH278964   5.790   2.523   2.798 -0.1590  0.0016 -0.3819
19158TIP3    H178965   5.730   2.457   2.763 -0.2921  0.0886 -0.3172
19158TIP3    H278966   5.739   2.569   2.866  0.5894 -1.2342  1.0881
19159TIP3   OH278967   0.273   3.765  12.768 -0.0876 -0.0257 -0.3032
19159TIP3    H178968   0.236   3.697  12.824 -0.6442  0.8263  0.3726
19159TIP3    H278969   0.197   3.816  12.739  0.3909  0.7198 -0.2564
19160TIP3   OH278970   2.209   5.028  13.522 -0.5123 -0.1235  0.2287
19160TIP3    H178971   2.145   4.957  13.514 -1.4443  0.9253 -3.2279
19160TIP3    H278972   2.287   4.986  13.559 -2.0379 -2.1861  1.3388
19161TIP3   OH278973   0.549   1.070   3.023  0.0478  0.7783  0.9705
19161TIP3    H178974   0.606   1.137   2.986 -2.2920  2.0350 -0.5965
19161TIP3    H278975   0.518   1.108   3.105 -2.1460  2.2319 -0.4393
19162TIP3   OH278976   3.173   1.144   1.427  0.3686 -0.0033 -0.0672
19162TIP3    H178977   3.238   1.080   1.458 -0.2389 -1.3027 -1.3750
19162TIP3    H278978   3.209   1.177   1.345  0.1754  0.5799  0.0757
19163TIP3   OH278979   1.304   5.419   0.086 -0.1681 -0.5189 -0.3449
19163TIP3    H178980   1.208   5.423   0.076  0.0907 -0.2608 -3.5565
19163TIP3    H278981   1.336   5.502   0.051  1.2743 -0.7992  0.2513
19164TIP3   OH278982   4.845   5.022  10.608  0.1504 -0.2158 -0.6115
19164TIP3    H178983   4.782   4.979  10.550  0.5244  0.6158 -1.6641
19164TIP3    H278984   4.827   5.115  10.600  2.3941  0.1848 -2.0777
19165TIP3   OH278985   2.199   5.665  16.358 -0.3923  0.3923  0.6263
19165TIP3    H178986   2.111   5.630  16.346 -0.6291  0.9757  0.5991
19165TIP3    H278987   2.253   5.589  16.379 -0.7248 -0.1055 -0.2433
19166TIP3   OH278988   4.150   5.124  15.920 -0.1627 -0.3765 -0.0646
19166TIP3    H178989   4.231   5.174  15.932 -1.3701  1.7677 -0.3794
19166TIP3    H278990   4.100   5.139  16.000 -1.4135  0.6875 -0.9911
19167TIP3   OH278991   3.787   1.953  16.681 -0.0887  0.1577  0.7032
19167TIP3    H178992   3.874   1.933  16.715  1.0255  1.6654 -1.0877
19167TIP3    H278993   3.800   2.029  16.624 -2.6173  0.5311  0.5036
19168TIP3   OH278994   2.161   5.018   0.187 -0.2350 -0.1715  0.1202
19168TIP3    H178995   2.160   5.061   0.272  3.1363  0.3190  0.0684
19168TIP3    H278996   2.210   4.936   0.202  0.3886 -0.0902 -1.2855
19169TIP3   OH278997   1.034   2.718  13.576 -0.2114 -0.4788  0.5993
19169TIP3    H178998   1.051   2.808  13.548 -0.7729 -0.5376  0.0358
19169TIP3    H278999   1.120   2.683  13.597  0.1535 -0.1626 -0.2933
19170TIP3   OH279000   6.615   6.530  12.024  0.3775  0.1970  0.2455
19170TIP3    H179001   6.688   6.470  12.007  2.4708  2.5358  0.4707
19170TIP3    H279002   6.638   6.572  12.106 -2.8229 -1.1218  1.9718
19171TIP3   OH279003   3.475   0.321  15.787 -0.4487  0.0074  0.1525
19171TIP3    H179004   3.472   0.324  15.692  3.7060  0.3790 -0.1723
19171TIP3    H279005   3.442   0.234  15.810 -0.8219 -0.3699 -1.7091
19172TIP3   OH279006   4.313   3.995   2.664 -0.0204 -0.1368 -0.2324
19172TIP3    H179007   4.327   4.021   2.755  0.7880 -0.7848 -0.1622
19172TIP3    H279008   4.396   4.015   2.620 -0.6004  0.7440 -0.9825
19173TIP3   OH279009   0.268   2.779   0.490 -0.6345  0.1053  0.0281
19173TIP3    H179010   0.358   2.785   0.458 -0.7305  1.0232 -0.0847
19173TIP3    H279011   0.261   2.690   0.524  0.4148  0.1223  0.3330
19174TIP3   OH279012   4.310   3.975  12.878 -0.6772 -0.5862  0.0464
19174TIP3    H179013   4.342   3.933  12.798 -0.8647  0.1131 -0.4029
19174TIP3    H279014   4.348   3.923  12.949  0.8603 -0.2499 -0.4717
19175TIP3   OH279015   6.249   2.717  15.001  0.1167 -0.2170 -0.3319
19175TIP3    H179016   6.225   2.775  14.929  0.1460  0.7642  0.4306
19175TIP3    H279017   6.192   2.743  15.073  0.4721 -0.8093  0.1808
19176TIP3   OH279018   3.487   1.106   3.969  0.0526 -0.3146 -0.3845
19176TIP3    H179019   3.511   1.190   4.007  2.9058 -0.6149 -1.3017
19176TIP3    H279020   3.473   1.049   4.044  0.1535  0.4648  0.2392
19177TIP3   OH279021   3.657   0.878   4.455  0.6891 -0.4479 -0.1425
19177TIP3    H179022   3.739   0.829   4.442 -0.1614 -2.0834  0.3642
19177TIP3    H279023   3.609   0.827   4.520 -1.2734 -0.2268 -1.3291
19178TIP3   OH279024   4.472   0.810   2.117  0.0604 -0.2766 -0.0775
19178TIP3    H179025   4.560   0.809   2.080 -0.1840  0.9260 -0.7313
19178TIP3    H279026   4.485   0.837   2.208  0.4756 -1.3818  0.2107
19179TIP3   OH279027   6.478   3.293   3.911 -0.9348  0.1720  0.2319
19179TIP3    H179028   6.401   3.279   3.964 -0.3655  0.8799  1.2769
19179TIP3    H279029   6.514   3.377   3.942  1.1270 -0.8950  0.9070
19180TIP3   OH279030   3.994   5.589   2.431 -0.6456  0.0674  0.0091
19180TIP3    H179031   3.989   5.574   2.525 -2.5098  0.3979 -0.0156
19180TIP3    H279032   3.997   5.684   2.422  0.9058  0.0294 -0.2492
19181TIP3   OH279033   1.548   1.220  11.806  0.0675 -0.0993 -0.1857
19181TIP3    H179034   1.641   1.237  11.821  0.0662  0.3040 -0.6299
19181TIP3    H279035   1.514   1.300  11.767 -0.6588  0.0700  0.7440
19182TIP3   OH279036   0.861   4.855   0.034  0.1005  0.3811 -0.2249
19182TIP3    H179037   0.827   4.768   0.015  1.0672 -0.1428  0.3368
19182TIP3    H279038   0.933   4.840   0.096 -1.5419  1.7950  2.1963
19183TIP3   OH279039   5.595   5.049   0.268  0.2359 -0.2543  0.2003
19183TIP3    H179040   5.603   4.960   0.303 -0.9968 -0.5431 -0.1904
19183TIP3    H279041   5.516   5.084   0.308  0.4930  0.5235  0.0453
19184TIP3   OH279042   2.881   6.638   2.125 -0.0851 -0.6995 -0.0400
19184TIP3    H179043   2.787   6.648   2.141 -0.3106 -0.3002 -1.5120
19184TIP3    H279044   2.902   6.706   2.061  1.4725  0.0423  1.1950
19185TIP3   OH279045   1.745   2.452  16.096  0.3649  0.0539  0.3458
19185TIP3    H179046   1.780   2.372  16.057  2.5257  0.1960  1.8107
19185TIP3    H279047   1.802   2.470  16.171 -1.2300  1.9189  1.2337
19186TIP3   OH279048   2.246   5.012   2.684  0.2086 -0.0403  0.0793
19186TIP3    H179049   2.181   4.948   2.653  0.3047  0.5036 -1.2781
19186TIP3    H279050   2.228   5.019   2.778  0.3632 -2.2482  0.3402
19187TIP3   OH279051   2.924   5.436  14.603 -0.6118  0.7516 -0.3332
19187TIP3    H179052   2.930   5.381  14.525 -0.3953  0.0699  0.1540
19187TIP3    H279053   2.931   5.525  14.570  1.7890  0.4163 -0.8828
19188TIP3   OH279054   2.080   2.966   1.217  0.5729  0.0297 -0.5354
19188TIP3    H179055   2.147   2.945   1.151 -1.4727  1.1792 -3.1364
19188TIP3    H279056   2.111   3.048   1.256  3.0215 -1.8475  1.8414
19189TIP3   OH279057   4.673   2.009   1.178  0.1751  0.0614  0.0824
19189TIP3    H179058   4.656   2.076   1.244 -0.0934 -0.0472  0.1269
19189TIP3    H279059   4.662   1.926   1.225 -1.5030 -0.0517 -0.4185
19190TIP3   OH279060   1.855   2.005   2.305 -0.1031 -0.3241 -0.1442
19190TIP3    H179061   1.771   2.051   2.302  0.4410  0.6489 -1.0414
19190TIP3    H279062   1.920   2.073   2.294  0.8414 -1.0265  0.8897
19191TIP3   OH279063   0.151   6.421   5.719 -0.6894  0.3036  0.4386
19191TIP3    H179064   0.111   6.400   5.634 -1.1626  1.1891  0.4282
19191TIP3    H279065   0.231   6.470   5.696 -1.5277  1.7639  0.4936
19192TIP3   OH279066   1.980   0.038  15.276 -0.2178  0.2651  0.3213
19192TIP3    H179067   2.028   0.024  15.358 -0.6811 -1.4373  0.3366
19192TIP3    H279068   2.042   0.012  15.207  0.1854  1.7330  0.1018
19193TIP3   OH279069   4.343   3.356  17.186 -0.3360  0.3059 -1.0800
19193TIP3    H179070   4.311   3.330  17.272 -0.6776  0.4943 -1.1453
19193TIP3    H279071   4.331   3.451  17.183  0.6157  0.4386 -0.9592
19194TIP3   OH279072   0.016   3.246  11.184 -0.0164  0.3120 -0.3821
19194TIP3    H179073  -0.074   3.251  11.152 -0.3057  0.4328  0.4438
19194TIP3    H279074   0.021   3.312  11.253  0.7361  0.3725 -0.4825
19195TIP3   OH279075   1.222   4.182   2.995  0.0215  0.1989 -0.3066
19195TIP3    H179076   1.204   4.179   3.089 -0.3295 -1.0896 -0.3961
19195TIP3    H279077   1.147   4.139   2.955  0.6344 -0.1633 -1.0915
19196TIP3   OH279078   6.702   0.684   5.600 -0.1713  0.1012  0.7252
19196TIP3    H179079   6.697   0.629   5.678 -0.0560 -1.4510 -0.3220
19196TIP3    H279080   6.619   0.733   5.600 -0.5290 -0.4851  1.3862
19197TIP3   OH279081   5.261   0.513   5.863 -0.4536  0.6180 -0.3875
19197TIP3    H179082   5.344   0.483   5.900 -0.3985  0.5392 -0.5721
19197TIP3    H279083   5.197   0.449   5.893 -0.8770  1.9308  1.6907
19198TIP3   OH279084   4.856   5.184   2.541 -0.2298  0.5886  0.4343
19198TIP3    H179085   4.863   5.251   2.609  0.4132 -0.4717  1.4555
19198TIP3    H279086   4.793   5.122   2.575  1.9690 -1.3143  1.3348
19199TIP3   OH279087   0.162   4.208   5.864 -0.2237  0.3699  0.4264
19199TIP3    H179088   0.098   4.228   5.796 -1.7946 -0.5060  1.5833
19199TIP3    H279089   0.116   4.225   5.946  1.1840  0.1372  1.2994
19200TIP3   OH279090   5.454   1.051   2.011  0.1694 -0.3658  0.1943
19200TIP3    H179091   5.444   1.100   1.929 -0.8989 -0.7671  0.0654
19200TIP3    H279092   5.547   1.030   2.015  0.2709 -0.1845 -0.8255
19201TIP3   OH279093   1.191   6.484   1.553  0.2164  0.2697  0.3262
19201TIP3    H179094   1.121   6.496   1.489  0.3718 -1.0152 -0.1165
19201TIP3    H279095   1.188   6.563   1.607 -0.5903  0.9087 -0.6153
19202TIP3   OH279096   5.028   1.935  11.100 -0.2786 -0.4773  0.3890
19202TIP3    H179097   4.991   2.022  11.095 -0.8006 -0.5434  2.5016
19202TIP3    H279098   5.120   1.949  11.122 -0.6188 -0.4519  1.8825
19203TIP3   OH279099   5.406   4.083  16.458 -0.3227 -0.2391  0.3929
19203TIP3    H179100   5.357   4.143  16.515 -0.8339 -1.9673  1.8706
19203TIP3    H279101   5.352   4.076  16.379 -0.7389  0.4570  0.6014
19204TIP3   OH279102   3.620   3.681   0.898 -0.1183 -0.0581 -0.0719
19204TIP3    H179103   3.685   3.613   0.915  1.9399  1.7882 -0.0158
19204TIP3    H279104   3.605   3.721   0.983 -0.4600  0.2460 -0.2734
19205TIP3   OH279105   1.860   6.732  15.612  0.3373 -0.5033 -0.1760
19205TIP3    H179106   1.895   6.710  15.525  0.4100 -0.3893 -0.1756
19205TIP3    H279107   1.927   6.701  15.673  0.7647  0.3322 -0.2033
19206TIP3   OH279108   0.448   0.987  12.826 -0.3712  0.0944  0.5751
19206TIP3    H179109   0.456   1.060  12.765 -0.5060  0.1321  0.6017
19206TIP3    H279110   0.529   0.990  12.877  0.0126 -0.3003  0.0035
19207TIP3   OH279111   5.994   0.261   5.173  0.4550 -0.2671  0.7637
19207TIP3    H179112   6.025   0.175   5.202  2.9620  0.6554  1.0611
19207TIP3    H279113   5.911   0.243   5.129  0.7227 -2.7840  1.1453
19208TIP3   OH279114   4.998   2.752   3.003 -0.2230  0.1334 -0.0080
19208TIP3    H179115   4.921   2.804   2.981 -0.2975 -0.1942 -0.5444
19208TIP3    H279116   5.065   2.816   3.025  0.0978  0.5365 -1.9854
19209TIP3   OH279117   0.069   6.673  12.055  1.0002  0.5839 -0.1477
19209TIP3    H179118   0.109   6.696  12.139 -0.1881  3.9752 -0.3619
19209TIP3    H279119  -0.022   6.700  12.063  1.1157  2.0988 -2.8435
19210TIP3   OH279120   0.235   6.230   6.489 -0.5410  0.0275  0.3834
19210TIP3    H179121   0.264   6.145   6.455  3.2014  0.4404  2.0542
19210TIP3    H279122   0.314   6.283   6.494 -2.6765  3.6370 -0.3145
19211TIP3   OH279123   4.274   2.506  13.500  0.2484  0.0370 -0.0586
19211TIP3    H179124   4.196   2.469  13.459  0.6648 -0.4645 -0.4145
19211TIP3    H279125   4.326   2.430  13.525  0.1319  0.3323  1.1771
19212TIP3   OH279126   0.058   5.429  15.026  0.6058 -0.1566  0.2054
19212TIP3    H179127   0.059   5.346  14.977  1.0403  0.4601 -0.8729
19212TIP3    H279128   0.034   5.495  14.961  2.4921  0.8885  0.4748
19213TIP3   OH279129   2.405   0.538  15.348 -0.0724  0.1426  0.1045
19213TIP3    H179130   2.379   0.601  15.281  0.8407  0.7899  0.3283
19213TIP3    H279131   2.379   0.579  15.431  1.4689  0.7555  0.3255
19214TIP3   OH279132   0.683   2.877   2.569  0.4531 -0.1089 -0.6141
19214TIP3    H179133   0.596   2.847   2.542 -0.2169  0.7614  0.5315
19214TIP3    H279134   0.668   2.962   2.609  2.1651  1.2671 -2.6673
19215TIP3   OH279135   2.728   3.245  14.033  0.2150 -0.0963 -0.0485
19215TIP3    H179136   2.707   3.265  14.125  1.9060  2.4190 -0.0836
19215TIP3    H279137   2.812   3.199  14.038  0.5516  0.4767 -0.3176
19216TIP3   OH279138   1.556   3.919   0.136 -0.1116  1.2822 -0.1638
19216TIP3    H179139   1.597   3.864   0.202 -0.9985  0.1742 -0.4998
19216TIP3    H279140   1.580   3.878   0.052 -0.2875  1.7511 -0.4497
19217TIP3   OH279141   4.429   6.257  15.241  0.9067 -0.3403  0.5573
19217TIP3    H179142   4.379   6.334  15.216  0.7688 -0.5109  0.2977
19217TIP3    H279143   4.510   6.264  15.191  1.7013  0.5818  1.9072
19218TIP3   OH279144   5.092   0.234   2.743 -0.1499 -0.0090  0.2949
19218TIP3    H179145   5.069   0.144   2.720 -1.9305  0.0617  1.5713
19218TIP3    H279146   5.179   0.247   2.706 -0.2058 -1.9687 -0.6448
19219TIP3   OH279147   1.591   3.750   3.313 -0.0929 -0.0752  0.2295
19219TIP3    H179148   1.514   3.806   3.320 -0.1633 -0.0055 -0.8651
19219TIP3    H279149   1.609   3.721   3.402 -0.6493  0.8924  0.6623
19220TIP3   OH279150   2.486   1.432   6.587  0.8961 -0.0889 -0.4093
19220TIP3    H179151   2.529   1.347   6.599 -0.1032 -0.5278  0.1604
19220TIP3    H279152   2.469   1.437   6.493  0.1995 -0.9139 -0.3424
19221TIP3   OH279153   5.935   1.065   4.476  0.1740 -0.3574 -0.2495
19221TIP3    H179154   5.858   1.027   4.518 -0.0741  1.4961  1.0900
19221TIP3    H279155   5.900   1.113   4.401  0.2097 -0.7626 -0.5277
19222TIP3   OH279156   3.757   6.765   5.676 -0.0432  0.0030 -0.1256
19222TIP3    H179157   3.750   6.796   5.766  0.9355 -0.4386  0.1040
19222TIP3    H279158   3.850   6.773   5.654 -0.3999  1.1107 -1.4619
19223TIP3   OH279159   0.559   2.435  11.763  0.2400  0.6603  0.8266
19223TIP3    H179160   0.629   2.391  11.811  1.5082 -0.6233 -1.9441
19223TIP3    H279161   0.605   2.485  11.695 -1.4639  1.2899  0.0840
19224TIP3   OH279162   1.663   5.466  14.142  0.6298 -0.0408  0.1489
19224TIP3    H179163   1.737   5.440  14.087  0.6399 -0.1994  0.2349
19224TIP3    H279164   1.586   5.443  14.091  0.6386 -0.2625  0.2333
19225TIP3   OH279165   0.855   2.249   5.358  0.6079 -0.2525 -0.0999
19225TIP3    H179166   0.768   2.211   5.341 -0.0480  0.5518  1.3005
19225TIP3    H279167   0.882   2.285   5.273 -0.9120  0.4277 -0.3322
19226TIP3   OH279168   5.199   1.242  10.109  0.5435  0.0774 -0.5150
19226TIP3    H179169   5.169   1.251  10.199  1.4453  0.7618 -0.2701
19226TIP3    H279170   5.272   1.180  10.113  1.2264  0.8594 -0.6150
19227TIP3   OH279171   4.262   5.483  12.450 -0.6383  0.3574 -0.6193
19227TIP3    H179172   4.277   5.543  12.377  2.2314 -1.0814 -1.3715
19227TIP3    H279173   4.170   5.496  12.474 -0.6220  3.6919 -1.8794
19228TIP3   OH279174   3.258   0.907  16.726  0.6197 -0.1775  0.3476
19228TIP3    H179175   3.206   0.945  16.796  0.7469 -2.1551  1.5971
19228TIP3    H279176   3.349   0.924  16.751  0.8241  4.2272 -2.3677
19229TIP3   OH279177   0.093   0.439  10.700  0.1754 -0.4454  0.3531
19229TIP3    H179178   0.037   0.488  10.639  0.6465 -0.1062  0.1927
19229TIP3    H279179   0.139   0.506  10.750  2.0974 -0.6738 -1.0187
19230TIP3   OH279180   4.070   6.651   5.332 -0.4196  0.6877 -0.0990
19230TIP3    H179181   4.039   6.638   5.421  1.2275  2.9519  0.9166
19230TIP3    H279182   4.141   6.588   5.321 -0.8536  0.1666  0.0335
19231TIP3   OH279183   1.621   3.904   5.782 -0.7309 -0.0663  0.0615
19231TIP3    H179184   1.676   3.832   5.752  0.8247  1.6284 -1.3800
19231TIP3    H279185   1.634   3.907   5.877  0.9644 -0.2975 -0.1325
19232TIP3   OH279186   2.050   3.384   0.706 -0.3214 -0.5133  0.0042
19232TIP3    H179187   2.018   3.435   0.780  1.3536  0.1928  0.2999
19232TIP3    H279188   1.977   3.380   0.645 -1.9104 -1.4713  1.8387
19233TIP3   OH279189   1.371   5.041  13.569 -0.4634  0.5763 -0.2554
19233TIP3    H179190   1.439   5.097  13.531  1.2661 -0.3141  1.3551
19233TIP3    H279191   1.328   5.096  13.635  0.5554  0.3561  0.6179
19234TIP3   OH279192   4.794   6.522  16.369 -0.0052 -0.5697 -0.2999
19234TIP3    H179193   4.875   6.543  16.323  0.7976 -2.2426  0.2503
19234TIP3    H279194   4.740   6.477  16.303  0.4558 -1.4493 -0.1000
19235TIP3   OH279195   0.905   6.338  10.859  0.1630  0.2000  0.7544
19235TIP3    H179196   0.822   6.367  10.897 -0.1241  0.2522  0.1070
19235TIP3    H279197   0.920   6.251  10.896 -0.7507 -0.2834  0.0454
19236TIP3   OH279198   4.125   5.424   0.703  0.4676  0.4866 -0.3291
19236TIP3    H179199   4.038   5.417   0.663 -0.0807  1.7561  0.5947
19236TIP3    H279200   4.146   5.517   0.698  2.3408  0.0583 -1.6344
19237TIP3   OH279201   5.889   3.403   2.854 -0.6076  0.9692  0.1164
19237TIP3    H179202   5.884   3.311   2.827  1.4530  1.0764 -0.8068
19237TIP3    H279203   5.900   3.399   2.949 -1.8627  0.3416  0.2544
19238TIP3   OH279204   2.332   6.813  12.052 -0.1653  0.3495  0.3942
19238TIP3    H179205   2.418   6.797  12.090  0.4133  3.7479  0.8204
19238TIP3    H279206   2.338   6.779  11.963  1.5534  0.3027  0.5098
19239TIP3   OH279207   6.583   6.374  16.260  0.3063  0.2345  1.0064
19239TIP3    H179208   6.658   6.376  16.200  0.6198 -0.4749  1.3643
19239TIP3    H279209   6.598   6.447  16.320  1.1979 -0.4477  1.6385
19240TIP3   OH279210   3.946   2.760   1.896  0.3899  0.1003  0.6123
19240TIP3    H179211   4.003   2.816   1.844 -0.1068 -2.3064 -2.8573
19240TIP3    H279212   3.858   2.777   1.862 -0.5006  0.7272  2.9997
19241TIP3   OH279213   4.672   1.287   5.261  0.0213 -0.6391 -1.0767
19241TIP3    H179214   4.733   1.248   5.322 -2.7570 -1.3899  1.4666
19241TIP3    H279215   4.717   1.365   5.228  1.9608 -0.5978  1.3775
19242TIP3   OH279216   3.477   4.750  11.690 -0.3005  0.4809  0.0201
19242TIP3    H179217   3.432   4.676  11.650 -2.5314  1.1995  1.0403
19242TIP3    H279218   3.407   4.811  11.715  1.1579  1.3704  2.3451
19243TIP3   OH279219   0.946   1.682   2.114 -0.1198 -0.7395  0.1487
19243TIP3    H179220   0.971   1.663   2.204 -0.0263 -0.5141  0.1721
19243TIP3    H279221   1.029   1.689   2.067 -0.1801 -1.2044 -0.0285
19244TIP3   OH279222   4.090   0.237   1.655 -0.2233 -0.1275  0.0489
19244TIP3    H179223   4.046   0.287   1.724 -1.2254 -0.2920 -0.4575
19244TIP3    H279224   4.159   0.295   1.623 -0.4270  0.3541  0.4680
19245TIP3   OH279225   2.976   5.120  13.904 -0.3296 -0.0862  0.4924
19245TIP3    H179226   3.054   5.175  13.898  0.8734 -1.6977  0.7219
19245TIP3    H279227   2.995   5.046  13.846 -1.1189 -1.1581  1.5716
19246TIP3   OH279228   5.187   3.798   0.109  0.1009 -0.0866  0.9114
19246TIP3    H179229   5.092   3.805   0.104  0.1564 -0.0435 -0.5993
19246TIP3    H279230   5.217   3.887   0.130 -0.2227 -0.3884  2.8856
19247TIP3   OH279231   1.685   0.523  14.310  0.4662  0.0225  0.1178
19247TIP3    H179232   1.632   0.497  14.386 -0.9582 -0.4527 -1.0031
19247TIP3    H279233   1.671   0.617  14.302  0.7257  0.0970  0.5156
19248TIP3   OH279234   5.139   4.718  12.074  0.2612 -0.5172 -0.1200
19248TIP3    H179235   5.215   4.756  12.031  0.5603 -1.4012 -0.3854
19248TIP3    H279236   5.144   4.750  12.165  0.6258 -0.1241 -0.2752
19249TIP3   OH279237   6.729   4.941  11.880  0.2239  0.2777 -0.3464
19249TIP3    H179238   6.815   4.952  11.840 -0.3271  1.5087 -1.2398
19249TIP3    H279239   6.672   5.003  11.834 -1.0013 -0.0424  0.6682
19250TIP3   OH279240   4.530   6.436   1.064 -0.6802 -0.0310 -0.0708
19250TIP3    H179241   4.480   6.354   1.064 -2.4080  0.9783 -1.1511
19250TIP3    H279242   4.525   6.466   1.155 -0.6491 -0.7414  0.1755
19251TIP3   OH279243   5.295   6.577   1.022 -0.1661  0.2760 -0.2663
19251TIP3    H179244   5.312   6.486   0.996 -0.2933  0.6687 -1.8603
19251TIP3    H279245   5.214   6.573   1.073  0.5678 -0.6550  0.8729
19252TIP3   OH279246   1.595   5.365  15.682 -0.1196  0.0481 -0.1472
19252TIP3    H179247   1.600   5.415  15.764 -0.8660  1.6772 -1.0572
19252TIP3    H279248   1.515   5.312  15.691 -0.5770  0.7342 -0.0773
19253TIP3   OH279249   2.769   0.304   2.844 -0.2671 -0.1645 -0.5838
19253TIP3    H179250   2.674   0.315   2.839 -0.1477  0.6255 -1.5271
19253TIP3    H279251   2.793   0.338   2.930 -0.8494 -0.5198 -0.2729
19254TIP3   OH279252   4.058   2.825  11.649  0.4356 -0.1558  0.2516
19254TIP3    H179253   4.006   2.904  11.659 -1.2284 -1.2189  0.3305
19254TIP3    H279254   4.084   2.825  11.557  1.2330  0.9213  0.4587
19255TIP3   OH279255   4.643   1.857   3.112 -0.5555 -0.3516  0.5394
19255TIP3    H179256   4.712   1.802   3.075 -0.4552 -0.5352  0.9843
19255TIP3    H279257   4.562   1.817   3.082 -0.4694 -0.1222 -0.0027
19256TIP3   OH279258   5.759   1.300   2.935 -0.8169  0.4792  0.3390
19256TIP3    H179259   5.710   1.230   2.893  1.4133 -0.7141 -0.4222
19256TIP3    H279260   5.748   1.375   2.877  0.3121 -0.4953 -1.2157
19257TIP3   OH279261   1.337   4.125  16.300 -0.5903  0.3876 -0.5007
19257TIP3    H179262   1.297   4.185  16.236 -3.1426  0.2848  0.8580
19257TIP3    H279263   1.273   4.055  16.309  1.6646 -1.8715 -0.9363
19258TIP3   OH279264   5.000   1.442  15.893 -0.2745 -0.0376 -0.0011
19258TIP3    H179265   4.996   1.347  15.892  4.1643 -0.4663 -0.7856
19258TIP3    H279266   4.954   1.468  15.972 -1.3186 -2.8357  0.4037
19259TIP3   OH279267   5.204   0.664   3.055  0.0667 -0.1698  0.2117
19259TIP3    H179268   5.188   0.757   3.037 -0.7679  0.2282  2.5965
19259TIP3    H279269   5.299   0.655   3.050  0.0367 -0.1445 -3.7766
19260TIP3   OH279270   1.097   2.883  16.343 -0.6148  0.6564  0.3214
19260TIP3    H179271   1.087   2.829  16.265  0.3228  0.5060  0.2973
19260TIP3    H279272   1.009   2.887  16.382 -1.0681  0.6644 -0.6901
19261TIP3   OH279273   6.792   4.195  15.512 -0.2814  0.4411  0.1203
19261TIP3    H179274   6.832   4.215  15.597  2.3974 -1.1230 -0.6611
19261TIP3    H279275   6.850   4.237  15.448  0.3723 -2.1341 -1.0940
19262TIP3   OH279276   4.781   6.420   2.418 -1.8005  0.2797 -0.6626
19262TIP3    H179277   4.853   6.420   2.480 -0.8718 -1.4471 -1.6483
19262TIP3    H279278   4.719   6.355   2.453 -1.0644 -1.0344 -1.6933
19263TIP3   OH279279   2.574   6.304   2.963 -0.1238  0.1621  0.0617
19263TIP3    H179280   2.563   6.213   2.935  1.7166 -0.7244  1.9081
19263TIP3    H279281   2.651   6.334   2.915 -1.5640  1.3017 -1.6462
19264TIP3   OH279282   1.901   3.815  14.150  0.1177 -0.0118  0.3661
19264TIP3    H179283   1.844   3.876  14.103  1.5507  1.1510  0.0659
19264TIP3    H279284   1.844   3.778  14.218 -1.3719 -0.0146 -0.8098
19265TIP3   OH279285   2.607   5.704  14.502 -0.3041  0.1231  0.0242
19265TIP3    H179286   2.596   5.648  14.425 -1.9752 -0.4394  0.6229
19265TIP3    H279287   2.692   5.678  14.538 -0.6185 -1.3942 -0.2411
19266TIP3   OH279288   6.332   4.135  14.094  0.7462  0.7047  0.6554
19266TIP3    H179289   6.331   4.125  13.999  1.2126  0.1813  0.6960
19266TIP3    H279290   6.252   4.092  14.124  0.8223  0.4708  0.5272
19267TIP3   OH279291   3.061   3.855  12.305 -0.1458 -0.5241  0.0092
19267TIP3    H179292   2.978   3.858  12.353  0.4417  0.7295  1.0230
19267TIP3    H279293   3.128   3.876  12.371  1.0825 -2.2384 -0.6027
19268TIP3   OH279294   4.134   2.842  11.394  0.1665 -0.2284 -0.6410
19268TIP3    H179295   4.204   2.780  11.374  0.1020 -1.0377  1.3878
19268TIP3    H279296   4.072   2.831  11.322  1.2839 -0.7615 -1.5687
19269TIP3   OH279297   2.314   2.395  14.849 -0.5957 -0.2324 -0.3488
19269TIP3    H179298   2.300   2.465  14.785  0.4719 -0.2471 -0.6175
19269TIP3    H279299   2.323   2.440  14.933 -2.1950 -0.2262 -0.1544
19270TIP3   OH279300   0.646   6.658   3.293 -0.1943 -0.3787  0.4969
19270TIP3    H179301   0.712   6.616   3.238 -0.7664  0.3250 -0.7781
19270TIP3    H279302   0.619   6.590   3.355 -0.4603 -1.6263 -0.9326
19271TIP3   OH279303   1.121   6.184  14.433  0.9240  0.4401 -0.8430
19271TIP3    H179304   1.073   6.114  14.388  1.2738 -0.8648  0.7334
19271TIP3    H279305   1.208   6.149  14.448  0.9778  1.0147  0.3725
19272TIP3   OH279306   6.438   0.776  11.222 -0.3588  0.0058 -0.0567
19272TIP3    H179307   6.398   0.757  11.306 -0.7811 -0.2760 -0.3197
19272TIP3    H279308   6.457   0.691  11.184  0.6953  0.1320  0.1574
19273TIP3   OH279309   2.007   2.452  16.204 -0.5934  0.9372 -0.8621
19273TIP3    H179310   2.066   2.527  16.193  1.8271 -0.7974 -0.6139
19273TIP3    H279311   2.013   2.431  16.298 -0.8074  0.1240 -1.0232
19274TIP3   OH279312   3.339   1.422   2.034 -0.8363 -0.4970  0.3154
19274TIP3    H179313   3.362   1.332   2.010 -0.3918 -0.1436 -0.6220
19274TIP3    H279314   3.362   1.428   2.126  0.1196 -1.0366  0.1271
19275TIP3   OH279315   6.676   6.651   2.126 -0.4334 -0.0013 -0.4450
19275TIP3    H179316   6.691   6.726   2.067  0.5632  0.1258 -0.0316
19275TIP3    H279317   6.739   6.663   2.196 -0.0993 -1.3774 -0.5008
19276TIP3   OH279318   4.777   0.936   4.213 -0.0492 -0.6028  0.8213
19276TIP3    H179319   4.745   0.847   4.200  0.1285 -0.6553  0.7325
19276TIP3    H279320   4.794   0.942   4.307 -2.5892  0.2024  1.3119
19277TIP3   OH279321   5.285   3.067  11.241 -0.0136 -0.2370 -0.0745
19277TIP3    H179322   5.321   3.112  11.164  0.1358 -3.3854 -2.0304
19277TIP3    H279323   5.361   3.038  11.290  0.0457 -1.3080 -0.7470
19278TIP3   OH279324   4.575   4.451   2.854 -0.4892 -0.5434 -0.5202
19278TIP3    H179325   4.643   4.513   2.827  0.1234 -0.6223  0.7884
19278TIP3    H279326   4.621   4.367   2.862 -0.3588 -0.3045  1.8596
19279TIP3   OH279327   0.899   1.330  13.801 -0.2397  0.6204 -0.0939
19279TIP3    H179328   0.905   1.266  13.730 -0.1605 -0.2665  0.6931
19279TIP3    H279329   0.828   1.388  13.775 -0.9696 -0.3702 -0.3873
19280TIP3   OH279330   2.384   0.360   2.397 -0.1286  0.4995  0.1605
19280TIP3    H179331   2.302   0.321   2.424 -0.2038  1.4855  1.4648
19280TIP3    H279332   2.369   0.387   2.306 -0.4780 -1.2935 -0.3443
19281TIP3   OH279333   0.995   5.470  10.954 -0.4146 -0.1940 -0.3540
19281TIP3    H179334   0.991   5.402  11.022  0.1611 -0.6762 -0.7845
19281TIP3    H279335   1.085   5.504  10.960 -0.2399 -0.5033 -1.1128
19282TIP3   OH279336   6.191   5.263  14.355 -0.1775 -0.0792 -0.6825
19282TIP3    H179337   6.227   5.263  14.443 -0.9738 -0.5506 -0.3458
19282TIP3    H279338   6.110   5.211  14.362 -0.5928  0.4273 -1.5401
19283TIP3   OH279339   0.534   2.415  16.682  0.3745  0.0818  0.3923
19283TIP3    H179340   0.551   2.494  16.733 -3.0539  0.0939  1.7613
19283TIP3    H279341   0.541   2.444  16.590 -1.6575  2.2914  0.8284
19284TIP3   OH279342   2.894   3.487   4.999 -0.1384  0.3153  0.1413
19284TIP3    H179343   2.908   3.396   4.973  0.8587  0.3340  0.5801
19284TIP3    H279344   2.873   3.533   4.918 -2.3433 -0.5909  0.1181
19285TIP3   OH279345   2.070   6.426   3.098 -0.8728  0.1687 -0.0028
19285TIP3    H179346   2.052   6.339   3.133  2.3644 -0.7785 -0.3796
19285TIP3    H279347   2.147   6.414   3.042  0.6673  3.5032  1.1266
19286TIP3   OH279348   1.352   2.315   4.157 -0.2325  0.2661  0.1560
19286TIP3    H179349   1.277   2.364   4.124 -1.0855 -0.8974  0.2887
19286TIP3    H279350   1.377   2.257   4.085 -0.0651 -0.0235  0.4456
19287TIP3   OH279351   0.241   5.237  15.193 -0.0237  0.4869  0.3599
19287TIP3    H179352   0.281   5.212  15.109  0.3072  0.4314  0.5342
19287TIP3    H279353   0.215   5.328  15.181  1.1440  0.8693  0.6135
19288TIP3   OH279354   3.265   1.199   2.824 -0.1932  0.1529 -0.0494
19288TIP3    H179355   3.203   1.192   2.897 -0.3750  1.0034 -0.1164
19288TIP3    H279356   3.217   1.165   2.748 -0.1013 -0.4626  0.1582
19289TIP3   OH279357   5.340   4.394  12.295  0.3930 -0.4404  0.4774
19289TIP3    H179358   5.276   4.383  12.225  0.1921 -0.6145  0.6906
19289TIP3    H279359   5.424   4.405  12.249  0.1100  0.5344  0.1707
19290TIP3   OH279360   0.768   0.023   4.339 -0.3419 -0.4422  0.1080
19290TIP3    H179361   0.729   0.014   4.252  1.8013  0.3690 -1.0166
19290TIP3    H279362   0.797  -0.065   4.362 -1.9201 -0.8769  0.5564
19291TIP3   OH279363   4.965   4.996  12.569 -0.2764  0.1200 -0.0063
19291TIP3    H179364   4.975   4.901  12.568 -1.8179 -0.0738  0.2832
19291TIP3    H279365   4.879   5.012  12.529  0.2311  1.4391 -0.6343
19292TIP3   OH279366   2.759   5.949  12.766 -0.0232 -0.2626  0.3707
19292TIP3    H179367   2.691   6.017  12.759 -0.1069 -0.4259 -0.5250
19292TIP3    H279368   2.731   5.895  12.840 -2.2417 -1.7978 -1.4700
19293TIP3   OH279369   2.970   4.955   5.421 -0.3952 -0.0324 -0.1473
19293TIP3    H179370   2.912   5.003   5.480  2.7508  0.1429  3.1286
19293TIP3    H279371   2.941   4.864   5.427 -2.2373  0.4309 -1.1760
19294TIP3   OH279372   2.175   0.960  12.970  0.2890 -0.2307 -0.1197
19294TIP3    H179373   2.188   0.980  12.877 -1.5513  0.4991 -0.2672
19294TIP3    H279374   2.080   0.963  12.981  0.4792 -0.4133  1.7759
19295TIP3   OH279375   2.482   2.377  15.817 -0.0700  0.2853 -0.3056
19295TIP3    H179376   2.460   2.457  15.769  1.6693  1.9202  1.4425
19295TIP3    H279377   2.573   2.388  15.842  0.9870 -3.2932 -1.8346
19296TIP3   OH279378   6.026   1.932   0.888  0.0959  0.2608  0.2318
19296TIP3    H179379   6.028   2.017   0.846 -0.6357  0.4498  0.5756
19296TIP3    H279380   5.933   1.909   0.893  0.2309 -0.1569  0.9385
19297TIP3   OH279381   2.565   4.603   4.948  0.0039 -0.4492 -0.3091
19297TIP3    H179382   2.656   4.612   4.921  0.6665 -2.1730  1.0931
19297TIP3    H279383   2.561   4.516   4.989 -2.1501 -0.2031  0.1308
19298TIP3   OH279384   0.238   0.656   5.256  0.0813 -0.0434  0.2851
19298TIP3    H179385   0.205   0.583   5.205 -0.3659  0.0928  0.3777
19298TIP3    H279386   0.202   0.643   5.344 -1.7815  1.4069 -0.1900
19299TIP3   OH279387   3.788   3.226  11.623 -0.6951 -0.3919 -0.1595
19299TIP3    H179388   3.843   3.148  11.628 -0.2227 -0.0242  0.5467
19299TIP3    H279389   3.817   3.281  11.696 -0.6599  0.6799 -0.9574
19300TIP3   OH279390   5.899   4.444  11.410  0.0546 -0.9096 -0.1729
19300TIP3    H179391   5.940   4.523  11.376  0.0426 -0.3959  0.9465
19300TIP3    H279392   5.969   4.400  11.458 -0.6761  0.1048  1.9767
19301TIP3   OH279393   6.694   4.711  16.847 -0.4794 -0.0523 -0.1223
19301TIP3    H179394   6.667   4.746  16.761 -1.0260  0.1390  0.1206
19301TIP3    H279395   6.622   4.653  16.872 -0.0431 -0.5718 -0.0573
19302TIP3   OH279396   4.034   4.130   0.144 -0.6274 -0.4554  0.2193
19302TIP3    H179397   4.052   4.040   0.169  0.0758 -0.1696  0.7861
19302TIP3    H279398   4.062   4.136   0.053 -1.4469 -1.0186 -0.0747
19303TIP3   OH279399   3.313   6.206   1.067 -0.2304 -0.0985 -0.2157
19303TIP3    H179400   3.364   6.283   1.093  0.3253 -0.6229  0.2916
19303TIP3    H279401   3.222   6.235   1.068 -0.0531  0.4538  0.3372
19304TIP3   OH279402   2.300   0.784  11.582  0.3034 -0.3240 -0.9339
19304TIP3    H179403   2.253   0.707  11.613  0.5718 -0.5167 -0.9994
19304TIP3    H279404   2.302   0.843  11.658  1.5951 -1.0937 -0.3339
19305TIP3   OH279405   4.249   0.374   2.201  0.1842 -0.0473 -0.0427
19305TIP3    H179406   4.212   0.343   2.283  0.0662 -0.8333 -0.3851
19305TIP3    H279407   4.282   0.295   2.158  0.3692  0.3702 -0.6877
19306TIP3   OH279408   2.183   3.810  14.946  0.0104  0.2233  0.4149
19306TIP3    H179409   2.110   3.839  15.001  0.8015  1.3201  0.9105
19306TIP3    H279410   2.213   3.889  14.902  0.5452 -0.3240 -0.2272
19307TIP3   OH279411   6.231   1.057   4.219 -0.0835  0.2767  0.6083
19307TIP3    H179412   6.215   1.148   4.195  0.2377 -0.1506 -1.3435
19307TIP3    H279413   6.224   1.008   4.137  0.0626 -1.4258  1.5616
19308TIP3   OH279414   6.227   2.903   4.190 -0.4269 -0.2637 -0.4940
19308TIP3    H179415   6.182   2.878   4.109 -1.7878 -2.8965  0.9463
19308TIP3    H279416   6.319   2.885   4.173 -0.4118  1.1450 -2.0857
19309TIP3   OH279417   4.257   0.044   1.383 -0.1032 -0.5842 -0.1474
19309TIP3    H179418   4.294   0.042   1.295  0.1507  0.0239 -0.0629
19309TIP3    H279419   4.164   0.025   1.371 -0.1107 -0.2970 -0.5726
19310TIP3   OH279420   2.507   4.467  11.549  0.4947 -0.6132 -0.4099
19310TIP3    H179421   2.512   4.386  11.600 -0.1820 -2.4628 -3.0537
19310TIP3    H279422   2.429   4.511  11.582 -1.8436 -3.3527 -1.8058
19311TIP3   OH279423   0.766   6.542  15.065  0.6107 -0.9754  0.0010
19311TIP3    H179424   0.771   6.447  15.061  0.3937 -1.0321  0.9584
19311TIP3    H279425   0.672   6.562  15.062  0.6014 -0.8532  1.0011
19312TIP3   OH279426   0.774   1.963  11.895  0.3535  0.0521  0.2408
19312TIP3    H179427   0.697   1.982  11.843 -0.6591  0.8494  1.9255
19312TIP3    H279428   0.740   1.937  11.981  1.9273 -1.9382  0.3350
19313TIP3   OH279429   4.596   5.685  16.489  0.4829 -0.6092 -0.0265
19313TIP3    H179430   4.649   5.746  16.437  0.8353 -0.4184  0.5465
19313TIP3    H279431   4.654   5.611  16.506  0.2199 -0.8787 -0.2829
19314TIP3   OH279432   3.110   3.366  13.598 -0.0494  0.1257  0.1198
19314TIP3    H179433   3.140   3.374  13.507  3.2320 -2.8272  0.7326
19314TIP3    H279434   3.113   3.272  13.615 -0.3740  0.6103  3.3760
19315TIP3   OH279435   4.263   0.620   1.159  0.2664 -0.2487  0.1744
19315TIP3    H179436   4.179   0.633   1.115  0.4245  1.7142  0.3678
19315TIP3    H279437   4.250   0.656   1.247  0.7824 -1.6095  0.8401
19316TIP3   OH279438   0.451   3.646  13.000  0.2718  0.3331  0.0337
19316TIP3    H179439   0.536   3.610  12.974  0.0302 -1.6472  1.7028
19316TIP3    H279440   0.437   3.611  13.088 -1.8765  1.3528  0.1484
19317TIP3   OH279441   0.024   3.972  16.986 -0.3447 -0.2108 -0.3827
19317TIP3    H179442  -0.070   3.990  16.992 -0.5609  0.4388 -3.6860
19317TIP3    H279443   0.066   4.049  17.025 -1.1318 -0.5855  1.2805
19318TIP3   OH279444   5.940   5.058   3.075 -0.0870 -0.1080  0.0946
19318TIP3    H179445   5.951   5.119   3.001 -0.4191 -0.0271  0.1122
19318TIP3    H279446   5.868   5.095   3.126 -0.6155 -0.7712 -0.1543
19319TIP3   OH279447   1.343   0.648  10.613 -0.0944 -0.1433 -0.0619
19319TIP3    H179448   1.388   0.696  10.543  2.2465 -0.4470  1.1329
19319TIP3    H279449   1.370   0.693  10.693 -1.4750 -0.7594  0.7796
19320TIP3   OH279450   0.387   5.178  14.974 -0.2779  0.1110 -0.1616
19320TIP3    H179451   0.479   5.169  14.948 -0.3015  0.0682 -0.2307
19320TIP3    H279452   0.349   5.091  14.962 -0.6545  0.4242 -1.4355
19321TIP3   OH279453   3.423   0.949  14.872 -0.9274 -0.2850  0.2412
19321TIP3    H179454   3.363   0.881  14.899  0.7697 -2.3730 -0.9112
19321TIP3    H279455   3.374   1.001  14.809 -1.9280 -1.1248  0.3133
19322TIP3   OH279456   4.966   6.004  15.118 -0.0584 -0.2101 -0.7113
19322TIP3    H179457   4.890   5.996  15.176  0.2495  1.0697 -0.0901
19322TIP3    H279458   5.009   5.919  15.123 -0.7450 -0.5305 -0.0472
19323TIP3   OH279459   0.103   2.026   5.745  0.4086  0.5779 -0.0349
19323TIP3    H179460   0.031   2.010   5.807  0.9318  0.5496  0.5830
19323TIP3    H279461   0.179   1.986   5.787  1.0079  1.5456 -0.1711
19324TIP3   OH279462   4.128   3.509   3.873 -0.2324  0.1425  0.1303
19324TIP3    H179463   4.204   3.471   3.829  0.6469 -1.2758  2.6139
19324TIP3    H279464   4.132   3.603   3.854  3.3319  0.4548  1.6688
19325TIP3   OH279465   5.792   5.603   4.510 -0.4476  0.1426  0.2220
19325TIP3    H179466   5.802   5.686   4.464 -1.4040  1.4929  2.2588
19325TIP3    H279467   5.698   5.597   4.529 -0.3412 -1.2344  0.4305
19326TIP3   OH279468   5.929   3.672   1.969 -0.1528 -0.2230  0.1843
19326TIP3    H179469   5.907   3.606   2.034 -0.0848 -1.6096 -1.1563
19326TIP3    H279470   6.023   3.661   1.955 -0.3607 -0.7093 -0.9385
19327TIP3   OH279471   4.589   0.393  13.898  0.2765  0.3788  0.1751
19327TIP3    H179472   4.534   0.468  13.919 -1.0611 -0.3956 -0.4288
19327TIP3    H279473   4.679   0.424  13.912 -0.2410  2.0703 -0.0560
19328TIP3   OH279474   2.812   2.713  11.519 -0.3176  0.5950  0.4898
19328TIP3    H179475   2.864   2.669  11.452 -1.6138 -0.4098  0.0929
19328TIP3    H279476   2.872   2.774  11.561  1.0103 -0.1253 -0.3184
19329TIP3   OH279477   3.356   1.028  13.183  0.1676 -0.0341 -0.4358
19329TIP3    H179478   3.263   1.044  13.171  0.3815  1.0078 -0.7423
19329TIP3    H279479   3.388   1.104  13.230  1.3305  0.8523 -2.5090
19330TIP3   OH279480   1.460   5.119   2.012  0.2725  0.1464 -0.2495
19330TIP3    H179481   1.466   5.171   2.092 -0.5024  0.7361 -0.5632
19330TIP3    H279482   1.386   5.157   1.964 -0.0432 -0.9856 -0.6783
19331TIP3   OH279483   6.175   1.528   4.793 -0.0357  0.7280 -0.6394
19331TIP3    H179484   6.226   1.479   4.728 -1.0135  0.5137 -1.2698
19331TIP3    H279485   6.093   1.549   4.748 -0.0234  2.1137 -0.0470
19332TIP3   OH279486   4.986   4.278   1.793  0.1499  0.1307 -0.0194
19332TIP3    H179487   4.948   4.198   1.756  0.9337  0.1259 -0.8414
19332TIP3    H279488   5.045   4.311   1.725 -0.3915  1.5861  0.1815
19333TIP3   OH279489   5.303   0.561   1.509  0.6039  0.1561 -0.0722
19333TIP3    H179490   5.343   0.509   1.579  0.4316 -0.9709 -0.7814
19333TIP3    H279491   5.331   0.650   1.527  1.9958 -0.3542  0.4403
19334TIP3   OH279492   5.410   0.459  10.102 -0.5765 -0.6289 -0.7018
19334TIP3    H179493   5.434   0.537  10.152  1.3873 -1.6423  0.0430
19334TIP3    H279494   5.329   0.429  10.143 -1.2180  0.8447 -0.8299
19335TIP3   OH279495   3.060   5.495  15.563  0.3636  0.3630 -0.1552
19335TIP3    H179496   3.086   5.525  15.476  1.7193 -1.6900 -0.5358
19335TIP3    H279497   3.143   5.469  15.605 -0.2582  1.2444  1.7488
19336TIP3   OH279498   2.218   5.686   5.458  0.0307  0.3048 -0.1563
19336TIP3    H179499   2.268   5.687   5.540 -0.1936  2.4123  0.0096
19336TIP3    H279500   2.128   5.708   5.484 -0.6217 -1.5971 -0.6812
19337TIP3   OH279501   5.228   6.710  15.983  0.1453  0.0083  0.3714
19337TIP3    H179502   5.177   6.711  15.902  0.3194  0.8219  0.2659
19337TIP3    H279503   5.233   6.802  16.009  0.8861 -0.1522  0.8039
19338TIP3   OH279504   5.404   1.321   4.126 -0.2370  0.1898 -0.2213
19338TIP3    H179505   5.448   1.333   4.210 -0.5262  1.1468 -0.1979
19338TIP3    H279506   5.359   1.236   4.135  0.0245  0.1167  0.4560
19339TIP3   OH279507   2.868   4.336  13.573  1.0514 -0.2699 -0.0224
19339TIP3    H179508   2.876   4.432  13.576  1.4121 -0.3015  0.1370
19339TIP3    H279509   2.959   4.305  13.575  0.9787 -0.5907 -1.1304
19340TIP3   OH279510   1.939   4.536  11.467  0.0203  0.1167 -0.1598
19340TIP3    H179511   1.859   4.531  11.519  0.0228  1.8367  0.0825
19340TIP3    H279512   1.922   4.604  11.402  1.3650  0.7477  0.0941
19341TIP3   OH279513   0.989   6.651   4.079  0.5695  0.0443 -0.1795
19341TIP3    H179514   0.997   6.730   4.132  0.7552  0.4655 -0.8246
19341TIP3    H279515   0.952   6.681   3.997 -1.5772 -0.8869  0.3731
19342TIP3   OH279516   3.385   5.492   0.808 -0.2359 -0.4063 -0.1461
19342TIP3    H179517   3.404   5.561   0.872 -1.6104 -0.0546 -0.0703
19342TIP3    H279518   3.350   5.420   0.860  0.6979 -0.9742 -0.2855
19343TIP3   OH279519   5.620   1.975   4.610  0.5432 -0.1428  0.3414
19343TIP3    H179520   5.606   2.057   4.563  0.7097 -0.8636 -1.0171
19343TIP3    H279521   5.535   1.931   4.607  0.9595 -0.9179 -0.7624
19344TIP3   OH279522   3.070   1.204  12.660 -0.3617 -0.3103 -0.1762
19344TIP3    H179523   2.987   1.189  12.615 -0.5308 -0.0724  0.0484
19344TIP3    H279524   3.127   1.133  12.631 -0.4993 -0.2166 -0.6848
19345TIP3   OH279525   2.294   6.772   1.688  0.1987  0.0076  0.0894
19345TIP3    H179526   2.346   6.692   1.693  1.0347  0.4946 -0.5478
19345TIP3    H279527   2.323   6.824   1.763  0.6478  0.2881 -0.2776
19346TIP3   OH279528   3.776   1.681   1.631 -0.2259 -0.6247 -0.0519
19346TIP3    H179529   3.765   1.732   1.712  1.7914  3.3508 -1.9859
19346TIP3    H279530   3.686   1.665   1.601 -0.9826  0.6338  1.3609
19347TIP3   OH279531   6.737   6.472   2.373  0.1007  0.0818 -0.2096
19347TIP3    H179532   6.655   6.519   2.386 -1.4669 -1.9016 -2.0297
19347TIP3    H279533   6.726   6.427   2.289  1.7039 -2.8651  0.9847
19348TIP3   OH279534   0.279   6.596   3.499 -0.4190 -0.2910 -0.4083
19348TIP3    H179535   0.305   6.541   3.573 -0.1672  1.0354  0.5288
19348TIP3    H279536   0.195   6.632   3.524  0.5485  1.7097  0.1497
19349TIP3   OH279537   1.260   3.260  14.007 -0.0186 -0.1339 -0.2763
19349TIP3    H179538   1.285   3.351  13.992  0.4904 -0.0958  0.6920
19349TIP3    H279539   1.297   3.239  14.093 -1.0958 -0.9102  0.0217
19350TIP3   OH279540   0.701   3.439   2.385  0.3731  0.7835  0.2061
19350TIP3    H179541   0.634   3.382   2.424 -0.1289 -0.1947 -1.9108
19350TIP3    H279542   0.728   3.496   2.456 -0.8553 -0.5153  1.8100
19351TIP3   OH279543   0.171   3.286   3.909  0.5073  0.4369  0.4798
19351TIP3    H179544   0.155   3.379   3.926 -0.4952  0.5188 -0.7615
19351TIP3    H279545   0.086   3.244   3.922  0.3995  0.0708 -1.1861
19352TIP3   OH279546   0.355   3.171  14.782 -0.0243  0.1745  0.4211
19352TIP3    H179547   0.305   3.252  14.793  3.2512  2.4213  0.2103
19352TIP3    H279548   0.401   3.160  14.866 -0.9531 -1.9443  0.7078
19353TIP3   OH279549   0.429   4.584   3.390  0.3485 -0.2962  0.3182
19353TIP3    H179550   0.429   4.680   3.389  0.3749 -0.2984 -0.1326
19353TIP3    H279551   0.423   4.559   3.298  2.4251 -0.7428  0.2592
19354TIP3   OH279552   3.842   1.703   6.028 -0.1443  0.0310 -0.7487
19354TIP3    H179553   3.784   1.779   6.019  1.9836  1.7883 -0.4297
19354TIP3    H279554   3.893   1.702   5.947  1.5494  0.4708  0.2786
19355TIP3   OH279555   2.248   5.825  15.248 -0.1598 -0.0740  0.7347
19355TIP3    H179556   2.298   5.897  15.210  1.1603 -0.0040  2.4952
19355TIP3    H279557   2.260   5.752  15.186 -0.4521  0.8084 -0.4025
19356TIP3   OH279558   5.103   0.587  11.504 -0.0254  0.0019  0.1109
19356TIP3    H179559   5.107   0.555  11.413  0.9702  0.1830  0.0775
19356TIP3    H279560   5.059   0.672  11.498 -0.3951 -0.2029 -0.1350
19357TIP3   OH279561   4.801   2.971  13.215 -0.3731  0.2345 -0.2975
19357TIP3    H179562   4.847   2.898  13.256  0.3142  1.2933  0.8855
19357TIP3    H279563   4.811   2.957  13.121  0.1339 -0.9323 -0.0817
19358TIP3   OH279564   3.039   6.151  14.716  0.2989  0.6637 -0.0024
19358TIP3    H179565   2.975   6.222  14.717  0.0579  0.4481  1.3089
19358TIP3    H279566   3.075   6.149  14.805  0.2258 -0.9243  0.0271
19359TIP3   OH279567   6.485   1.998  16.377  0.1633  0.6604  0.5704
19359TIP3    H179568   6.402   1.981  16.422  0.0498  0.0102  0.1193
19359TIP3    H279569   6.545   1.932  16.411 -0.2464 -0.6506 -1.0893
19360TIP3   OH279570   5.976   1.173   0.278 -0.0443  0.2072 -0.0708
19360TIP3    H179571   5.936   1.256   0.306 -2.7797 -0.2965 -2.0627
19360TIP3    H279572   5.917   1.106   0.312  0.9086 -0.8192 -0.3863
19361TIP3   OH279573   5.867   3.922   1.878 -0.2672 -0.1411 -0.0711
19361TIP3    H179574   5.898   3.837   1.908 -0.7374 -0.4363 -0.4037
19361TIP3    H279575   5.829   3.905   1.792 -1.8440  0.0975  0.5454
19362TIP3   OH279576   2.292   1.753  12.662 -0.0764  0.3804  0.0470
19362TIP3    H179577   2.225   1.740  12.595  1.3371 -0.3586 -1.2914
19362TIP3    H279578   2.317   1.665  12.689  0.6480  0.6389  0.2392
19363TIP3   OH279579   4.025   6.078   6.281 -0.6575 -0.2757 -0.5471
19363TIP3    H179580   4.113   6.100   6.251 -0.4568 -0.2104  0.0679
19363TIP3    H279581   3.985   6.032   6.208 -0.4502  0.5487 -1.1886
19364TIP3   OH279582   4.183   3.901  13.892 -0.2986  0.3696 -0.4337
19364TIP3    H179583   4.180   3.857  13.978 -1.5818 -2.1204 -1.6455
19364TIP3    H279584   4.115   3.968  13.897 -1.6051 -0.9341 -0.0572
19365TIP3   OH279585   2.484   5.630   3.556 -0.6762  0.0368  0.1958
19365TIP3    H179586   2.429   5.620   3.633 -3.3075  1.5839 -1.3334
19365TIP3    H279587   2.512   5.721   3.557 -0.8763  0.1222 -0.7360
19366TIP3   OH279588   5.949   4.779  11.058  0.4380  0.0843 -0.3030
19366TIP3    H179589   5.926   4.727  10.981 -2.1098 -0.2864  0.6099
19366TIP3    H279590   5.920   4.868  11.036 -3.9455 -0.6645  1.4493
19367TIP3   OH279591   3.542   0.119  16.300 -0.6500 -0.0939  0.5244
19367TIP3    H179592   3.632   0.103  16.327  0.2000 -0.4460 -2.2193
19367TIP3    H279593   3.533   0.214  16.301 -0.4593 -0.0712  1.3028
19368TIP3   OH279594   3.485   0.631  11.883 -0.0137 -0.3558  0.1374
19368TIP3    H179595   3.456   0.628  11.792 -1.4667  0.9755  0.5132
19368TIP3    H279596   3.539   0.710  11.888  0.9932 -1.0310  0.1959
19369TIP3   OH279597   2.460   0.493   0.288  0.7884  0.0434  0.1116
19369TIP3    H179598   2.450   0.501   0.383  1.4748 -1.1229  0.2979
19369TIP3    H279599   2.525   0.424   0.277 -0.1125 -0.6178 -1.2317
19370TIP3   OH279600   0.606   2.854  12.804  0.0234 -0.1246 -0.3872
19370TIP3    H179601   0.578   2.772  12.765 -0.2901 -0.1266 -0.1583
19370TIP3    H279602   0.544   2.919  12.770 -1.2698 -0.3771  1.3481
19371TIP3   OH279603   1.627   6.295   3.071  0.0110 -0.0270  0.2117
19371TIP3    H179604   1.570   6.228   3.108 -0.4090 -0.1438 -0.6299
19371TIP3    H279605   1.607   6.375   3.121  0.2496 -0.4323  0.9658
19372TIP3   OH279606   6.122   2.524  12.842  0.4771  0.3569  0.0634
19372TIP3    H179607   6.097   2.583  12.771  2.6695 -0.0412 -1.1143
19372TIP3    H279608   6.051   2.460  12.846  1.0441 -0.5616 -2.9045
19373TIP3   OH279609   2.015   1.717  16.832  1.0570 -0.5051  0.3004
19373TIP3    H179610   2.023   1.621  16.830 -0.2126 -0.6546  1.2000
19373TIP3    H279611   2.008   1.738  16.925 -0.9218  0.2326  0.0106
19374TIP3   OH279612   0.404   2.727   5.521 -0.0697  0.1496 -0.2675
19374TIP3    H179613   0.322   2.695   5.484 -0.2203  0.8945 -0.5889
19374TIP3    H279614   0.460   2.650   5.525 -1.2155 -0.6525  1.1735
19375TIP3   OH279615   2.659   0.935  12.555  0.1323  0.3250  0.0691
19375TIP3    H179616   2.604   0.903  12.626  1.4963 -0.4713  0.8176
19375TIP3    H279617   2.637   0.879  12.480  0.2426 -0.2859  0.4851
19376TIP3   OH279618   4.215   1.053  13.732  0.0944  0.4706 -0.3043
19376TIP3    H179619   4.216   1.148  13.731 -1.8959  0.5479 -0.1939
19376TIP3    H279620   4.139   1.029  13.678 -0.1014 -0.9945  0.5444
19377TIP3   OH279621   1.850   3.822   0.067  0.5795  0.1573 -0.4065
19377TIP3    H179622   1.855   3.864  -0.019 -0.9316 -0.2261 -0.6997
19377TIP3    H279623   1.806   3.739   0.051  0.9635 -0.2639  0.6340
19378TIP3   OH279624   5.770   5.810  11.901 -0.4934  0.3570  0.0743
19378TIP3    H179625   5.759   5.892  11.853 -1.5240  0.9081  1.2024
19378TIP3    H279626   5.727   5.825  11.985  1.8752 -0.3149  1.5225
19379TIP3   OH279627   0.323   1.030  13.663 -0.1281  0.5335  0.4825
19379TIP3    H179628   0.361   1.077  13.737 -1.2606  0.5038  1.1009
19379TIP3    H279629   0.249   1.085  13.636  0.1316  0.4212 -0.4778
19380TIP3   OH279630   3.671   4.346  13.567 -0.0851 -0.3665  0.0849
19380TIP3    H179631   3.723   4.296  13.630  0.2234 -0.2100 -0.0492
19380TIP3    H279632   3.727   4.357  13.491  0.2798  1.1461  0.5234
19381TIP3   OH279633   5.548   1.840   5.728 -0.1524 -0.4566 -0.5693
19381TIP3    H179634   5.546   1.776   5.657 -1.6408 -0.7183 -0.3201
19381TIP3    H279635   5.570   1.789   5.806 -0.8031 -0.5710 -0.4603
19382TIP3   OH279636   2.571   0.703   0.915  0.2353 -0.0731  0.0543
19382TIP3    H179637   2.574   0.614   0.950 -0.4995 -0.1546 -0.0771
19382TIP3    H279638   2.615   0.697   0.830  0.0980 -0.3309  0.0012
19383TIP3   OH279639   2.686   3.182  16.004  0.5173 -0.1629 -0.1267
19383TIP3    H179640   2.620   3.207  15.939  1.4154  0.6080 -0.7906
19383TIP3    H279641   2.746   3.125  15.956  0.7938 -0.1683  0.2244
19384TIP3   OH279642   3.156   5.794  14.420  0.5214 -0.1546  0.6130
19384TIP3    H179643   3.154   5.845  14.339  0.8953 -1.1791 -0.0623
19384TIP3    H279644   3.187   5.856  14.487 -0.8245  1.0025  0.2269
19385TIP3   OH279645   4.400   1.773  14.418  0.0722  0.3855  0.1843
19385TIP3    H179646   4.348   1.809  14.346 -0.7959 -0.3770  0.4099
19385TIP3    H279647   4.360   1.688  14.437  2.2378 -0.8525 -0.4875
19386TIP3   OH279648   2.412   3.604   5.793 -0.2815 -0.0939 -0.5632
19386TIP3    H179649   2.449   3.628   5.878 -0.9139 -2.4891  0.4666
19386TIP3    H279650   2.482   3.621   5.731  0.5789  0.6945  0.5740
19387TIP3   OH279651   1.481   1.453  11.652 -0.0413  0.6370  0.1459
19387TIP3    H179652   1.409   1.510  11.680 -0.5210  1.1031 -1.8665
19387TIP3    H279653   1.545   1.513  11.613 -0.3673 -0.1148 -1.6410
19388TIP3   OH279654   1.446   6.091  12.380  0.1063  0.7976  0.1107
19388TIP3    H179655   1.377   6.118  12.318  0.0236  1.4085  0.4571
19388TIP3    H279656   1.446   6.160  12.447 -1.7169 -1.2281  2.3702
19389TIP3   OH279657   0.620   6.497   4.028  0.8466  0.2945  0.3248
19389TIP3    H179658   0.696   6.507   3.970 -0.6869  0.5220 -1.7511
19389TIP3    H279659   0.544   6.508   3.971 -0.7919  1.0745  2.4885
19390TIP3   OH279660   2.401   0.920  14.278 -0.2481 -1.0689  0.2916
19390TIP3    H179661   2.440   0.883  14.199 -0.8508 -1.8233  0.3274
19390TIP3    H279662   2.444   1.004  14.289 -0.2718 -0.8775 -0.9266
19391TIP3   OH279663   5.500   6.836  13.008  0.4256 -0.4401 -0.4490
19391TIP3    H179664   5.466   6.748  13.024 -2.4949  0.7085  0.1162
19391TIP3    H279665   5.518   6.871  13.095 -0.7027  0.3333 -0.5103
19392TIP3   OH279666   2.304   5.389   4.379 -0.1116 -0.2832 -0.2753
19392TIP3    H179667   2.359   5.434   4.443 -1.2202  1.8935 -0.7409
19392TIP3    H279668   2.312   5.442   4.300 -1.7123 -0.7327 -0.7743
19393TIP3   OH279669   3.038   4.532  14.512  0.4086  0.6717  0.1739
19393TIP3    H179670   3.029   4.461  14.448 -0.2202  1.9378 -1.2093
19393TIP3    H279671   3.125   4.518  14.551  0.5043 -0.5522 -0.4364
19394TIP3   OH279672   3.241   3.175  15.365  0.1836  0.0107 -0.7984
19394TIP3    H179673   3.247   3.248  15.303 -0.6937  0.8126  0.0176
19394TIP3    H279674   3.230   3.218  15.450  2.4366 -1.0453  0.0835
19395TIP3   OH279675   2.025   1.902  12.811 -0.1327  0.1771  0.1263
19395TIP3    H179676   2.015   1.884  12.717 -0.0522 -0.8741  0.3080
19395TIP3    H279677   2.109   1.948  12.817  0.5404 -0.9643 -0.1886
19396TIP3   OH279678   5.371   1.433  16.885 -0.5914 -0.8117 -0.5887
19396TIP3    H179679   5.324   1.504  16.842  1.4986 -0.5562 -2.6928
19396TIP3    H279680   5.396   1.469  16.971 -0.9530  0.3898 -0.9669
19397TIP3   OH279681   6.151   1.634   5.310  0.4662  0.0625 -0.3776
19397TIP3    H179682   6.211   1.658   5.381  0.4353 -1.8209  0.3233
19397TIP3    H279683   6.152   1.711   5.252  0.8190  1.4967  1.4120
19398TIP3   OH279684   0.805   6.358   4.649 -0.0217  0.3127  0.4433
19398TIP3    H179685   0.835   6.397   4.731  1.3065 -0.6469  0.4560
19398TIP3    H279686   0.877   6.372   4.587 -0.2740 -0.4853 -0.0566
19399TIP3   OH279687   1.286   5.078   0.904 -0.6165 -0.6172  0.6045
19399TIP3    H179688   1.307   5.023   0.829 -0.5904 -1.2012  1.0335
19399TIP3    H279689   1.192   5.091   0.900 -0.3321  1.4860 -0.9691
19400TIP3   OH279690   6.290   2.302  13.048 -0.3107 -0.4605  0.7075
19400TIP3    H179691   6.222   2.361  13.017 -0.0842 -0.1963  0.7030
19400TIP3    H279692   6.267   2.283  13.138  0.3095  0.6774  1.1213
19401TIP3   OH279693   0.915   4.995  12.345 -0.3973 -0.0637 -0.1292
19401TIP3    H179694   0.928   5.090  12.347  0.4432 -0.1666 -0.1886
19401TIP3    H279695   0.995   4.961  12.305  0.0953 -0.9294  1.5065
19402TIP3   OH279696   0.560   4.349   5.704  0.4493  0.1970  0.2186
19402TIP3    H179697   0.534   4.411   5.772  1.2539 -0.7634  1.4359
19402TIP3    H279698   0.478   4.305   5.679 -0.4690  2.8285 -1.9072
19403TIP3   OH279699   3.171   1.607  14.959 -0.1578  0.0040  0.4413
19403TIP3    H179700   3.244   1.643  15.010 -0.4435 -0.6592  1.3535
19403TIP3    H279701   3.176   1.513  14.975  0.3817 -0.3789 -1.6364
19404TIP3   OH279702   0.958   2.666  16.644 -0.4116 -0.0100 -0.1702
19404TIP3    H179703   0.926   2.731  16.581 -1.1921 -0.7337 -0.5498
19404TIP3    H279704   0.938   2.582  16.603 -0.1351 -0.4926  0.6653
19405TIP3   OH279705   5.476   1.432   1.082 -0.0391 -0.2050  0.2370
19405TIP3    H179706   5.452   1.347   1.046  3.1809 -1.2263  0.2303
19405TIP3    H279707   5.514   1.412   1.168  2.0918  0.9915 -0.3538
19406TIP3   OH279708   4.269   1.486  12.252 -0.1556  1.1188  0.1169
19406TIP3    H179709   4.219   1.446  12.323 -0.0257  0.1494 -0.3264
19406TIP3    H279710   4.310   1.413  12.207  0.0948  1.7546 -0.7148
19407TIP3   OH279711   5.129   3.466  14.458 -0.4214  0.1099  0.1543
19407TIP3    H179712   5.079   3.386  14.473  0.0515 -0.1241  0.5415
19407TIP3    H279713   5.205   3.458  14.516 -0.1143  0.6125 -0.1633
19408TIP3   OH279714   1.419   3.719  16.184  0.0142 -0.4540 -0.2942
19408TIP3    H179715   1.514   3.707  16.194 -0.3266 -2.2325  1.3710
19408TIP3    H279716   1.386   3.720  16.274 -1.5865 -0.1728 -0.8678
19409TIP3   OH279717   1.275   2.757   5.696  0.6104  0.5431  0.3834
19409TIP3    H179718   1.242   2.838   5.656 -2.2098 -0.8077 -0.2791
19409TIP3    H279719   1.295   2.782   5.787 -2.8921  1.5037  1.0380
19410TIP3   OH279720   0.303   2.635   3.916  0.1276  0.0314 -0.3144
19410TIP3    H179721   0.210   2.629   3.892 -0.3403  0.6400  1.2226
19410TIP3    H279722   0.323   2.551   3.956  0.4761 -0.3879 -1.3251
19411TIP3   OH279723   5.668   2.120   6.454  0.3884  0.2653 -0.0952
19411TIP3    H179724   5.574   2.105   6.460  0.1438  1.0989 -1.3941
19411TIP3    H279725   5.707   2.035   6.477 -0.7127 -0.3745 -0.4772
19412TIP3   OH279726   6.618   2.760  15.470 -0.3741  0.0184 -0.2444
19412TIP3    H179727   6.553   2.764  15.540 -1.1198 -1.0174 -0.8472
19412TIP3    H279728   6.567   2.743  15.391  0.4090  1.5815 -1.1371
19413TIP3   OH279729   6.753   2.334  11.264  0.2050 -0.1317 -0.1306
19413TIP3    H179730   6.809   2.286  11.203 -1.6573 -2.1145 -0.4288
19413TIP3    H279731   6.724   2.268  11.326 -1.8549  0.7566 -0.0622
19414TIP3   OH279732   2.487   1.534   3.427  0.3234 -0.2916 -0.7063
19414TIP3    H179733   2.445   1.458   3.388 -0.6739 -0.1109 -0.0196
19414TIP3    H279734   2.471   1.605   3.365  0.3670 -0.4155 -0.8589
19415TIP3   OH279735   2.257   4.603  16.134 -0.5995  0.1004 -0.7760
19415TIP3    H179736   2.203   4.617  16.211 -0.1224 -1.9852 -0.0023
19415TIP3    H279737   2.298   4.688  16.118 -0.4581  0.5213  1.4678
19416TIP3   OH279738   1.053   4.519   0.191 -0.2522 -0.5663  0.1387
19416TIP3    H179739   1.041   4.486   0.103 -0.6711 -1.0501  0.3738
19416TIP3    H279740   1.072   4.441   0.244 -0.0031 -0.2840  0.4730
19417TIP3   OH279741   2.367   1.807  15.215  0.0459 -0.1619 -0.0596
19417TIP3    H179742   2.373   1.796  15.120  0.5143  1.6843 -0.2828
19417TIP3    H279743   2.454   1.839  15.240  0.0557 -1.0203  1.0674
19418TIP3   OH279744   0.858   5.683  11.972 -0.1949  0.1795  0.0248
19418TIP3    H179745   0.859   5.611  12.035 -0.1669 -2.4503 -2.7196
19418TIP3    H279746   0.766   5.709  11.966 -0.1186  0.8826  1.4849
19419TIP3   OH279747   2.587   2.415   2.915 -0.2693 -0.2185 -0.6394
19419TIP3    H179748   2.618   2.505   2.926 -1.3688  0.0768  0.3362
19419TIP3    H279749   2.638   2.364   2.979 -0.6177 -0.0309 -0.2058
19420TIP3   OH279750   5.492   5.876   0.347 -0.1231 -0.5225 -0.2317
19420TIP3    H179751   5.427   5.814   0.314  0.7436 -1.3593 -0.4000
19420TIP3    H279752   5.563   5.874   0.282 -1.4444  3.2025 -2.1650
19421TIP3   OH279753   5.063   2.525  13.930  0.1505 -0.4036 -0.3491
19421TIP3    H179754   5.139   2.517  13.873 -0.2479 -1.6159 -0.7265
19421TIP3    H279755   5.097   2.509  14.018  0.7377  1.3279 -0.2128
19422TIP3   OH279756   1.604   4.008   2.344  0.3520 -0.1482 -0.0191
19422TIP3    H179757   1.663   4.082   2.361 -0.0165 -0.2592  1.9504
19422TIP3    H279758   1.615   3.951   2.420 -0.9270 -1.0975 -0.5187
19423TIP3   OH279759   5.973   3.436  13.611 -0.4784  0.1336 -0.0358
19423TIP3    H179760   6.024   3.374  13.663  0.3072  1.1088  0.3860
19423TIP3    H279761   6.007   3.521  13.635 -1.6939  0.7603 -0.4392
19424TIP3   OH279762   4.610   3.089   5.246  0.2474  0.0302  0.1202
19424TIP3    H179763   4.635   3.049   5.163 -0.0014 -3.6189  1.6559
19424TIP3    H279764   4.518   3.067   5.256  0.1873  0.7294  1.2355
19425TIP3   OH279765   3.362   3.769  11.252 -0.2830 -0.2293 -0.6798
19425TIP3    H179766   3.388   3.700  11.314  0.4736  0.2117 -0.5046
19425TIP3    H279767   3.336   3.721  11.173 -1.9859 -0.8590  0.1884
19426TIP3   OH279768   6.570   6.127  13.777  0.4309 -0.4730  0.2642
19426TIP3    H179769   6.539   6.183  13.707  1.0668  0.8131  0.9715
19426TIP3    H279770   6.506   6.138  13.848  0.3566 -0.9408  0.2764
19427TIP3   OH279771   2.435   1.608  12.964  0.0604  0.1567 -0.1048
19427TIP3    H179772   2.355   1.638  13.008 -0.2817  0.2176 -0.7655
19427TIP3    H279773   2.405   1.542  12.902  0.5560  0.0039 -0.1849
19428TIP3   OH279774   1.907   0.514   4.234  0.0565 -0.5444  0.1743
19428TIP3    H179775   1.933   0.606   4.232  1.9033 -1.0262  0.4449
19428TIP3    H279776   1.885   0.492   4.144  1.9045 -0.4196 -0.3470
19429TIP3   OH279777   5.013   2.988   4.158 -0.1168 -0.0894  0.1373
19429TIP3    H179778   4.969   2.908   4.186 -1.3188  0.2080 -0.8361
19429TIP3    H279779   4.944   3.054   4.152  0.6994  0.7874 -0.0126
19430TIP3   OH279780   6.642   4.855   4.628 -0.3343  0.5871  0.0573
19430TIP3    H179781   6.580   4.792   4.664 -0.3749  1.7152  2.1179
19430TIP3    H279782   6.587   4.920   4.584 -0.6985  1.6472  1.9768
19431TIP3   OH279783   0.942   4.864  13.808  0.4995  0.1591  0.4862
19431TIP3    H179784   0.939   4.770  13.789 -0.6994  0.7872 -3.0067
19431TIP3    H279785   0.877   4.903  13.751 -1.0508  2.9411  3.7720
19432TIP3   OH279786   3.790   4.842   3.519 -0.5410 -0.5070 -0.3701
19432TIP3    H179787   3.848   4.801   3.455 -2.5018 -2.4456 -1.0353
19432TIP3    H279788   3.725   4.888   3.467  1.1415  3.0673  0.3695
19433TIP3   OH279789   1.021   2.241  11.172 -0.4787  0.3196  0.0265
19433TIP3    H179790   0.956   2.301  11.208 -0.7123 -0.5189  1.0542
19433TIP3    H279791   1.047   2.187  11.247  0.4875 -0.1673 -0.6493
19434TIP3   OH279792   3.646   6.340  17.164  0.4974  0.2203  0.1307
19434TIP3    H179793   3.661   6.330  17.070  1.2692  1.0970  0.1497
19434TIP3    H279794   3.715   6.399  17.193  0.3931 -0.2089  1.2945
19435TIP3   OH279795   6.552   5.145  12.319  0.1408  0.2162  0.2881
19435TIP3    H179796   6.475   5.183  12.360 -0.3042 -1.5847  1.1990
19435TIP3    H279797   6.575   5.070  12.374  1.4026 -0.4196 -1.0284
19436TIP3   OH279798   5.680   2.256   2.938 -0.5744  0.3940 -0.2963
19436TIP3    H179799   5.595   2.300   2.931 -1.1990 -0.5992  0.7034
19436TIP3    H279800   5.661   2.165   2.915  0.2639  0.2064 -0.2585
19437TIP3   OH279801   0.464   0.980  11.879  0.1506  0.6716 -0.4732
19437TIP3    H179802   0.481   0.899  11.927  1.1822  0.2564 -1.5025
19437TIP3    H279803   0.430   1.040  11.945  1.2905  0.0458  0.7233
19438TIP3   OH279804   3.226   5.685  11.522 -0.0907 -0.1333 -0.1605
19438TIP3    H179805   3.303   5.714  11.472  0.8489  0.7597  1.6999
19438TIP3    H279806   3.262   5.627  11.589 -1.1673 -0.3620  0.2342
19439TIP3   OH279807   2.730   4.297  14.880 -0.0059 -0.5654 -0.0761
19439TIP3    H179808   2.643   4.282  14.843 -0.2370  0.5796 -0.0507
19439TIP3    H279809   2.785   4.314  14.804 -0.4411  1.6008  0.0341
19440TIP3   OH279810   5.668   0.503  14.810  0.4796 -0.5203 -0.3823
19440TIP3    H179811   5.708   0.464  14.888 -0.9579 -2.1188 -0.3992
19440TIP3    H279812   5.687   0.596  14.818 -2.9349  0.1699  4.1210
19441TIP3   OH279813   1.705   0.124  16.775  0.0617  0.4756 -0.0516
19441TIP3    H179814   1.739   0.096  16.860  1.0895 -0.1419 -0.6541
19441TIP3    H279815   1.645   0.054  16.749 -0.3187  0.7058  0.1952
19442TIP3   OH279816   5.311   5.076   5.779 -0.0891  0.3803  0.0740
19442TIP3    H179817   5.235   5.047   5.727  0.4143 -0.4153 -0.2364
19442TIP3    H279818   5.368   5.000   5.782 -0.5199  0.0743  2.6455
19443TIP3   OH279819   1.030   0.532   1.295  0.1520  0.1536  0.1602
19443TIP3    H179820   1.082   0.475   1.352 -0.7205 -0.9947 -0.1521
19443TIP3    H279821   1.074   0.527   1.210  0.6257  0.7241  0.3648
19444TIP3   OH279822   4.267   3.840   3.808  0.5946 -0.4497 -0.2341
19444TIP3    H179823   4.272   3.861   3.902 -1.1221 -2.3031  0.3441
19444TIP3    H279824   4.322   3.763   3.798  2.5718  1.0045 -1.2739
19445TIP3   OH279825   4.559   0.667  14.370 -0.4664  0.1397 -0.6837
19445TIP3    H179826   4.518   0.582  14.356 -0.4902  0.4690 -2.9045
19445TIP3    H279827   4.488   0.730  14.359 -0.4633  0.4840  1.0219
19446TIP3   OH279828   5.366   5.997   3.943  0.1144  0.0374 -0.0546
19446TIP3    H179829   5.416   5.916   3.952 -0.4310 -0.3975 -0.8323
19446TIP3    H279830   5.420   6.052   3.886 -0.4383 -0.5961 -1.2523
19447TIP3   OH279831   6.341   3.197  17.203  0.3392 -0.3039  0.0146
19447TIP3    H179832   6.431   3.170  17.181  0.6467  0.9524 -0.3625
19447TIP3    H279833   6.287   3.154  17.137  0.6038 -1.4574  0.5331
19448TIP3   OH279834   3.713   0.076   3.045 -0.1085  0.6159  0.5845
19448TIP3    H179835   3.787   0.037   3.091 -0.5495  1.6902  2.3079
19448TIP3    H279836   3.742   0.083   2.954  1.9575  1.1091  1.2278
19449TIP3   OH279837   2.647   5.181  12.967 -0.0864  0.4681 -0.0938
19449TIP3    H179838   2.613   5.121  13.033  0.6983 -1.3853 -1.2786
19449TIP3    H279839   2.664   5.262  13.014  0.0761 -0.6528  1.8894
19450TIP3   OH279840   0.375   4.675  11.269 -0.0829  0.3608 -0.2472
19450TIP3    H179841   0.293   4.626  11.272 -0.6451  1.3164  0.7987
19450TIP3    H279842   0.432   4.622  11.213 -0.9049 -1.0909  0.2178
19451TIP3   OH279843   4.767   6.212  14.199 -0.3357  0.4412  0.0494
19451TIP3    H179844   4.749   6.203  14.293 -0.3187  2.1716  0.2531
19451TIP3    H279845   4.708   6.150  14.157 -1.7589  1.0354  1.0996
19452TIP3   OH279846   3.415   2.515   1.438 -0.3262  0.1504 -0.5099
19452TIP3    H179847   3.455   2.602   1.441  0.8145 -0.3708  0.8290
19452TIP3    H279848   3.333   2.525   1.485 -0.0038  0.4248  0.0102
19453TIP3   OH279849   3.441   1.518  11.859 -0.0860  0.5869 -0.0531
19453TIP3    H179850   3.415   1.471  11.939  0.6185 -3.0982 -1.7612
19453TIP3    H279851   3.531   1.546  11.876 -0.2596  0.6933  0.7519
19454TIP3   OH279852   4.734   0.315   2.851 -0.3026 -0.2637 -0.0846
19454TIP3    H179853   4.801   0.354   2.794  0.4317 -0.8311  0.3776
19454TIP3    H279854   4.759   0.343   2.939 -1.7982  1.1451 -0.0637
19455TIP3   OH279855   5.051   3.090  10.987 -0.4233 -0.5794  0.0606
19455TIP3    H179856   5.039   3.000  10.955  0.5553 -1.3231  1.6707
19455TIP3    H279857   5.131   3.120  10.944 -0.5034 -0.6323 -0.1281
19456TIP3   OH279858   2.851   3.479  12.371 -0.1383  0.4686  0.4142
19456TIP3    H179859   2.765   3.444  12.347  0.3607 -1.2559  0.9792
19456TIP3    H279860   2.869   3.545  12.304 -1.1838 -0.3240 -0.7096
19457TIP3   OH279861   0.304   6.757   4.051  0.1371 -0.0071 -0.0510
19457TIP3    H179862   0.261   6.673   4.065 -0.9103  0.2028 -1.7668
19457TIP3    H279863   0.244   6.821   4.089 -0.7570  0.2206 -1.7689
19458TIP3   OH279864   3.816   0.382   0.008 -0.0754  0.7059  0.0990
19458TIP3    H179865   3.819   0.359   0.101 -0.8257 -1.3582 -0.3399
19458TIP3    H279866   3.723   0.393  -0.011 -0.2512 -2.0078 -1.0378
19459TIP3   OH279867   2.670   4.224  16.529  0.0396  0.4477 -0.2493
19459TIP3    H179868   2.673   4.233  16.624  0.1336  0.8726 -0.2920
19459TIP3    H279869   2.762   4.232  16.502  0.0041  0.3977 -0.3840
19460TIP3   OH279870   5.588   2.769   4.800 -0.3545 -0.2395  0.5770
19460TIP3    H179871   5.559   2.855   4.770 -0.4292 -1.1166 -2.1116
19460TIP3    H279872   5.681   2.766   4.778 -0.1326 -0.5164  1.5174
19461TIP3   OH279873   1.506   0.929   4.438 -0.0605 -0.2135  0.5147
19461TIP3    H179874   1.550   0.864   4.383 -0.9324  0.5892 -1.1859
19461TIP3    H279875   1.463   0.877   4.506  0.5176 -1.2796  0.0945
19462TIP3   OH279876   3.226   1.498   1.075 -0.9454 -0.1068  0.5144
19462TIP3    H179877   3.296   1.557   1.101 -2.7529  2.6342 -0.3941
19462TIP3    H279878   3.202   1.526   0.987 -2.0535 -2.1051  0.0982
19463TIP3   OH279879   6.703   1.780  12.172  0.0602 -0.3812  0.3298
19463TIP3    H179880   6.794   1.752  12.160  0.0646 -1.2439  2.1015
19463TIP3    H279881   6.651   1.711  12.131  0.1898  0.0961 -0.6553
19464TIP3   OH279882   0.055   4.377   6.529  0.2187  0.5545 -1.3089
19464TIP3    H179883  -0.019   4.319   6.544  1.2215 -1.4548 -3.5616
19464TIP3    H279884   0.115   4.358   6.601 -0.4792  0.5878 -0.7049
19465TIP3   OH279885   0.189   4.722   1.768  0.6325 -0.0574 -0.1518
19465TIP3    H179886   0.151   4.635   1.779 -0.8703  0.4089 -1.2364
19465TIP3    H279887   0.283   4.709   1.777  0.5109 -1.9338 -1.0717
19466TIP3   OH279888   1.048   0.265   4.224  0.4380  0.1962  0.0045
19466TIP3    H179889   1.105   0.210   4.278  0.8432 -0.9518 -1.5272
19466TIP3    H279890   0.971   0.279   4.278  1.5193  0.5165  1.5362
19467TIP3   OH279891   0.725   5.579   0.722  0.4818  0.3956  0.0257
19467TIP3    H179892   0.652   5.621   0.675 -0.0552  0.5769  1.0086
19467TIP3    H279893   0.783   5.652   0.745 -0.2351  0.5695  1.3519
19468TIP3   OH279894   1.727   6.207  15.084  0.3373  0.1492  0.3153
19468TIP3    H179895   1.661   6.250  15.138  1.2251  0.8070  0.8958
19468TIP3    H279896   1.676   6.149  15.026 -0.7084  0.3027  1.0486
19469TIP3   OH279897   5.874   0.960  16.028 -0.0721 -0.5557 -0.2559
19469TIP3    H179898   5.826   0.905  15.967 -0.9458  0.2959 -0.3429
19469TIP3    H279899   5.869   0.913  16.112  0.9076 -1.5909 -0.7439
19470TIP3   OH279900   0.097   6.342   2.000  0.3813  0.0703 -0.4414
19470TIP3    H179901   0.069   6.327   1.909 -1.6807 -1.6032  0.3832
19470TIP3    H279902   0.153   6.267   2.020 -0.2419 -0.2719  0.0528
19471TIP3   OH279903   4.333   6.072  13.987  0.0418  0.4264  0.6653
19471TIP3    H179904   4.284   6.019  14.051  1.3872 -0.0693  1.3345
19471TIP3    H279905   4.285   6.060  13.905 -1.1406  0.2378  1.3537
19472TIP3   OH279906   1.358   5.271  11.283  0.1392  1.2795  0.1323
19472TIP3    H179907   1.452   5.255  11.276 -0.1173 -0.6440  0.5518
19472TIP3    H279908   1.341   5.341  11.220  1.4664  0.0404 -1.7191
19473TIP3   OH279909   2.238   0.675   2.349  0.1737  0.2698 -0.1618
19473TIP3    H179910   2.228   0.681   2.444  1.9195 -0.2193  0.0895
19473TIP3    H279911   2.332   0.663   2.336  0.0784  1.2794 -2.0208
19474TIP3   OH279912   2.592   6.376   0.893 -0.2814  0.2032  0.0983
19474TIP3    H179913   2.642   6.298   0.915 -0.1868  0.3116  0.2728
19474TIP3    H279914   2.555   6.358   0.807  0.8404  0.5157 -0.4566
19475TIP3   OH279915   1.702   4.580   1.545  0.3770 -0.1681  0.2156
19475TIP3    H179916   1.772   4.565   1.481  0.9880  0.7717  0.6437
19475TIP3    H279917   1.747   4.581   1.629 -0.2889 -0.4430  0.5790
19476TIP3   OH279918   4.865   6.093   1.722 -0.0416 -0.0149  0.0426
19476TIP3    H179919   4.840   6.008   1.757  0.3433 -0.2754 -0.2981
19476TIP3    H279920   4.860   6.153   1.797  1.1131 -0.6323  0.6513
19477TIP3   OH279921   2.590   1.556   0.037 -0.4557 -0.0982  0.4585
19477TIP3    H179922   2.568   1.596   0.122  0.3279  0.1573  0.5489
19477TIP3    H279923   2.615   1.629  -0.018 -0.0561 -0.3540  0.2940
19478TIP3   OH279924   4.927   0.290  13.193 -0.5559 -0.7575  0.2081
19478TIP3    H179925   4.833   0.273  13.206 -0.3146 -3.0104 -0.5247
19478TIP3    H279926   4.959   0.212  13.147  1.5785  0.2167 -0.0634
19479TIP3   OH279927   5.466   1.559  10.748 -0.3345 -0.3788  0.2202
19479TIP3    H179928   5.551   1.597  10.727  0.1629 -1.8226 -0.5448
19479TIP3    H279929   5.416   1.631  10.785  0.5821  0.9904 -1.0725
19480TIP3   OH279930   2.133   3.957   5.601  0.2947  0.8031  0.7242
19480TIP3    H179931   2.213   3.976   5.650  0.2387  1.6934  0.4740
19480TIP3    H279932   2.128   3.861   5.600  2.6502  0.5842 -1.2936
19481TIP3   OH279933   2.512   3.794  10.249  0.2006 -0.1098 -0.4514
19481TIP3    H179934   2.509   3.713  10.300  0.2015  0.1153 -0.0922
19481TIP3    H279935   2.436   3.844  10.278 -0.7815 -0.6954 -1.8971
19482TIP3   OH279936   4.242   4.373  12.748 -1.1241  0.6011  0.2193
19482TIP3    H179937   4.292   4.296  12.775 -2.2415  0.2565  1.4473
19482TIP3    H279938   4.219   4.356  12.657  1.0492  0.8371 -0.4296
19483TIP3   OH279939   4.605   4.278  12.113  0.2256 -0.4057 -0.1746
19483TIP3    H179940   4.604   4.325  12.197 -1.5536  0.5117 -0.6457
19483TIP3    H279941   4.646   4.339  12.052 -1.4987  0.3543 -0.6453
19484TIP3   OH279942   0.212   1.707   4.669  0.0526 -0.4761  0.2354
19484TIP3    H179943   0.147   1.641   4.647  0.8113 -1.7476  1.6538
19484TIP3    H279944   0.161   1.785   4.691 -0.9631 -1.3062  0.8614
19485TIP3   OH279945   6.321   0.045  16.699  0.1936  0.2078 -0.4396
19485TIP3    H179946   6.373  -0.035  16.686  0.2294  0.1253  0.1858
19485TIP3    H279947   6.330   0.093  16.617  0.2846 -0.3682 -0.7751
19486TIP3   OH279948   6.443   5.236   6.747 -0.0017  0.2787  0.2989
19486TIP3    H179949   6.393   5.191   6.815  0.3456 -1.6236 -0.6326
19486TIP3    H279950   6.439   5.329   6.772 -1.6294 -0.1191  1.7429
19487TIP3   OH279951   3.262   0.615  16.674  0.0746  0.3220 -0.1668
19487TIP3    H179952   3.304   0.576  16.598 -0.7377 -0.0512 -0.4296
19487TIP3    H279953   3.269   0.709  16.660 -0.5040  0.2535 -0.9412
19488TIP3   OH279954   1.002   1.946  12.510  0.3714  0.3700 -0.7003
19488TIP3    H179955   0.926   1.925  12.564  1.0177  1.0469  0.5103
19488TIP3    H279956   1.009   2.041  12.516  2.0629  0.2144  0.2799
19489TIP3   OH279957   4.971   1.650  12.660  0.0911  0.3838 -0.0198
19489TIP3    H179958   5.058   1.621  12.688 -0.0092 -1.6168 -1.5354
19489TIP3    H279959   4.946   1.588  12.591 -1.6591  2.1821 -1.1028
19490TIP3   OH279960   1.365   0.875   3.235  0.1554  0.1190 -0.0336
19490TIP3    H179961   1.375   0.795   3.182 -0.7659  0.2278 -0.3825
19490TIP3    H279962   1.421   0.939   3.192 -1.2594  0.4680 -1.4366
19491TIP3   OH279963   0.759   3.121   1.572  0.0354  0.1252 -0.2578
19491TIP3    H179964   0.809   3.170   1.637  0.3179  0.2359 -0.5566
19491TIP3    H279965   0.782   3.161   1.488 -2.6613  2.0416 -0.2085
19492TIP3   OH279966   6.440   4.896   4.387 -0.2265  0.1978  0.1611
19492TIP3    H179967   6.520   4.847   4.364  0.8708 -0.3100  4.3265
19492TIP3    H279968   6.386   4.832   4.433 -1.0110  1.6790  1.3280
19493TIP3   OH279969   1.817   0.551   1.826 -0.0600 -0.5569  0.0556
19493TIP3    H179970   1.863   0.476   1.789 -0.0548 -0.6972  0.3401
19493TIP3    H279971   1.770   0.515   1.902  1.1163  0.0050  1.0779
19494TIP3   OH279972   3.624   0.595  15.359  0.1082  0.4621 -0.3754
19494TIP3    H179973   3.678   0.567  15.433  1.1641  5.2795  1.0627
19494TIP3    H279974   3.538   0.611  15.397  0.4993  2.3870 -0.1672
19495TIP3   OH279975   2.230   4.853  11.429  0.1195  0.0774 -0.2913
19495TIP3    H179976   2.218   4.826  11.338  0.7309 -0.3604 -0.2420
19495TIP3    H279977   2.258   4.945  11.423 -2.5396  0.9737 -0.4379
19496TIP3   OH279978   1.421   2.086  13.559 -0.0121 -0.1102  0.2201
19496TIP3    H179979   1.507   2.063  13.594  0.2271  1.8364  1.0161
19496TIP3    H279980   1.413   2.033  13.480  2.5204  0.6070 -0.6143
19497TIP3   OH279981   3.527   2.605  12.057  0.1659  0.3760  0.1122
19497TIP3    H179982   3.440   2.588  12.022  0.0438  1.9609 -0.4191
19497TIP3    H279983   3.538   2.700  12.051  3.1632  0.0314 -2.8323
19498TIP3   OH279984   1.481   0.315   1.233  0.4473  0.3198 -0.5396
19498TIP3    H179985   1.527   0.249   1.285 -1.7540 -0.0672  1.0370
19498TIP3    H279986   1.465   0.387   1.294 -1.5679  0.1550 -0.8129
19499TIP3   OH279987   0.189   5.320   1.281 -0.5846  0.0900  0.0602
19499TIP3    H179988   0.098   5.290   1.272 -0.3968 -0.2920 -0.6640
19499TIP3    H279989   0.210   5.358   1.195  0.0796 -0.2245  0.0795
19500TIP3   OH279990   3.732   1.333  12.781 -0.5456 -0.4706  0.4049
19500TIP3    H179991   3.750   1.423  12.807 -0.9751 -0.7418  1.7619
19500TIP3    H279992   3.816   1.299  12.750 -0.5248  0.5728 -0.7239
19501TIP3   OH279993   6.748   3.645   4.570 -0.3647  0.0947 -0.2369
19501TIP3    H179994   6.748   3.552   4.593  1.0103 -0.0736 -0.8319
19501TIP3    H279995   6.822   3.682   4.618  0.2889  0.4747 -1.4921
19502TIP3   OH279996   0.525   4.882   0.710 -0.0261 -0.3434  0.1664
19502TIP3    H179997   0.510   4.794   0.745  0.7157 -0.0314  1.3425
19502TIP3    H279998   0.495   4.941   0.779  0.8606  0.3060  0.0246
19503TIP3   OH279999   6.452   5.563  15.099  0.3932  0.1955 -0.1743
19503TIP3    H180000   6.440   5.654  15.073 -0.4602  0.0751 -0.2514
19503TIP3    H280001   6.387   5.514  15.047  0.6084 -0.4071  0.1078
19504TIP3   OH280002   3.790   0.851   4.166  0.0659 -0.2179 -0.0173
19504TIP3    H180003   3.805   0.946   4.168  0.5066 -0.2894  0.4893
19504TIP3    H280004   3.696   0.842   4.147  0.1547  0.3028 -0.7265
19505TIP3   OH280005   2.509   2.150  11.273 -0.2716 -0.5295  0.1613
19505TIP3    H180006   2.535   2.162  11.181  0.6902 -1.6942  0.2664
19505TIP3    H280007   2.418   2.119  11.268 -0.5351  0.2840 -0.3457
19506TIP3   OH280008   4.453   5.247  14.071 -0.0928 -0.9404  0.3434
19506TIP3    H180009   4.472   5.295  13.990 -1.0619 -0.5997  0.3070
19506TIP3    H280010   4.466   5.311  14.140 -0.7201 -0.8103  0.3446
19507TIP3   OH280011   0.093   3.561   6.084  0.6323  0.0022 -0.0447
19507TIP3    H180012   0.061   3.635   6.136  1.1104  0.0152  0.2320
19507TIP3    H280013   0.182   3.547   6.114  0.9320  0.0316 -0.8920
19508TIP3   OH280014   2.496   3.002  13.590  0.1124  0.1008  0.3306
19508TIP3    H180015   2.436   3.068  13.626 -1.2047 -1.1945  0.5751
19508TIP3    H280016   2.580   3.021  13.633 -0.0237  2.0495 -0.1359
19509TIP3   OH280017   3.416   1.430  14.108 -0.3142 -0.1103  0.2405
19509TIP3    H180018   3.454   1.478  14.035  1.8933 -2.0209  0.0066
19509TIP3    H280019   3.348   1.488  14.142 -1.4287  0.8558 -3.2620
19510TIP3   OH280020   4.381   1.518  13.010  0.3067 -0.3885  0.0596
19510TIP3    H180021   4.320   1.458  13.052  1.1865 -1.1094  0.3338
19510TIP3    H280022   4.451   1.530  13.075  0.9816 -0.4232 -0.6501
19511TIP3   OH280023   5.885   4.152  14.611  0.1712  0.1081  0.7990
19511TIP3    H180024   5.898   4.094  14.536  1.0086 -1.2504  1.9156
19511TIP3    H280025   5.792   4.173  14.610 -0.0890 -0.9776  0.1248
19512TIP3   OH280026   3.101   6.544  13.422  0.3977  0.3072  0.0431
19512TIP3    H180027   3.111   6.639  13.425  2.1331  0.1207  1.5911
19512TIP3    H280028   3.081   6.519  13.512  1.5972 -0.9219 -0.0074
19513TIP3   OH280029   6.098   0.456   0.472  0.0569 -0.6035 -0.0306
19513TIP3    H180030   6.154   0.390   0.432 -1.3412 -2.6545  1.1741
19513TIP3    H280031   6.009   0.425   0.457 -0.6899  1.2499  0.2343
19514TIP3   OH280032   2.102   2.336  15.215 -0.0864  0.1508 -0.0983
19514TIP3    H180033   2.190   2.304  15.195  0.9542  2.2200  0.8765
19514TIP3    H280034   2.084   2.401  15.147 -0.9602 -0.3594 -0.3784
19515TIP3   OH280035   5.529   4.961   6.894  0.0526 -0.4250  0.1566
19515TIP3    H180036   5.600   4.940   6.834 -0.1548 -0.5311 -0.0511
19515TIP3    H280037   5.453   4.915   6.859  0.1294 -1.2041  0.9882
19516TIP3   OH280038   1.000   0.252  15.829  0.3623 -0.5505  0.3034
19516TIP3    H180039   1.073   0.300  15.790  0.8216  0.1771  1.9693
19516TIP3    H280040   0.997   0.283  15.920 -1.1234 -1.6223  0.6522
19517TIP3   OH280041   3.564   0.799   2.296 -0.5054 -0.1710 -0.2196
19517TIP3    H180042   3.588   0.716   2.338  1.4547  0.8082  0.7101
19517TIP3    H280043   3.624   0.808   2.222 -0.8353  0.3273 -0.4346
19518TIP3   OH280044   0.529   0.823   1.191 -0.4246 -0.1471 -0.3540
19518TIP3    H180045   0.485   0.764   1.129  0.1441 -1.7362  0.6738
19518TIP3    H280046   0.470   0.826   1.267 -0.9323  1.4710 -0.7752
19519TIP3   OH280047   4.284   5.576  14.679  0.1797  0.3410 -0.1436
19519TIP3    H180048   4.296   5.552  14.771  1.1056 -0.2830 -0.4187
19519TIP3    H280049   4.372   5.592  14.646 -0.1513  0.6528 -0.9002
19520TIP3   OH280050   2.711   0.072   4.909  0.0146  0.5326 -0.5615
19520TIP3    H180051   2.625   0.052   4.873 -0.1226 -0.7393  0.4235
19520TIP3    H280052   2.694   0.125   4.986 -0.1391 -1.8541  1.1810
19521TIP3   OH280053   6.589   3.635   1.109  0.2817 -0.0573 -0.0381
19521TIP3    H180054   6.521   3.577   1.077 -0.4986  1.6812 -1.6879
19521TIP3    H280055   6.652   3.641   1.037  0.0259  1.5891 -0.1657
19522TIP3   OH280056   2.668   1.987   0.704  0.2150 -0.0098  0.2198
19522TIP3    H180057   2.645   1.905   0.661  0.6879  0.3851 -0.8258
19522TIP3    H280058   2.669   2.052   0.634  1.8393  0.4954  0.6529
19523TIP3   OH280059   0.177   2.755   0.030  0.7164 -0.0963 -0.2497
19523TIP3    H180060   0.258   2.754  -0.021 -0.0073 -0.7492 -1.4225
19523TIP3    H280061   0.148   2.664   0.031  0.4054  0.0027  0.8455
19524TIP3   OH280062   1.236   3.603  12.295 -0.1170  0.4217 -0.2022
19524TIP3    H180063   1.237   3.511  12.321 -0.3507  1.2563  3.1970
19524TIP3    H280064   1.327   3.623  12.274  0.0042 -0.4710 -0.5862
19525TIP3   OH280065   0.390   2.188  12.449 -0.7121  0.0974 -0.0363
19525TIP3    H180066   0.363   2.271  12.409  1.0397  0.3530 -0.7759
19525TIP3    H280067   0.477   2.206  12.483 -0.7697 -1.1470  0.8171
19526TIP3   OH280068   0.564   0.039   5.555  0.1330 -0.8913  0.2224
19526TIP3    H180069   0.510   0.046   5.634 -0.2987  0.3946 -0.1660
19526TIP3    H280070   0.627  -0.029   5.576 -1.7816 -2.6405  0.5913
19527TIP3   OH280071   2.963   2.015  11.536  0.0791  0.4476  0.2244
19527TIP3    H180072   2.963   1.989  11.444 -1.2922  0.6908  0.1420
19527TIP3    H280073   2.969   1.932  11.584 -2.0859  0.0590 -0.0692
19528TIP3   OH280074   0.508   0.330  12.281  0.2488 -0.1176 -0.4300
19528TIP3    H180075   0.419   0.345  12.249  0.4431 -0.0948 -0.9726
19528TIP3    H280076   0.498   0.269  12.354 -0.4092  1.4328  0.8364
19529TIP3   OH280077   2.498   4.993  14.612  0.3511  0.1255 -0.0727
19529TIP3    H180078   2.585   4.956  14.592  1.1183  1.7799  0.0757
19529TIP3    H280079   2.513   5.087  14.618 -1.3405  0.3750  0.6533
19530TIP3   OH280080   2.803   0.423   2.568 -0.3072 -0.4667 -0.7472
19530TIP3    H180081   2.844   0.363   2.505 -0.0493 -0.9420 -0.1371
19530TIP3    H280082   2.785   0.368   2.644 -0.0176  0.2539 -0.1563
19531TIP3   OH280083   1.561   3.630  11.248 -0.2332 -0.0601 -0.1291
19531TIP3    H180084   1.648   3.635  11.207 -0.3113 -2.9740 -0.8834
19531TIP3    H280085   1.578   3.607  11.339 -0.1287 -2.8125 -0.7523
19532TIP3   OH280086   4.429   3.379  13.577  0.0626 -0.2947  0.1280
19532TIP3    H180087   4.445   3.296  13.622 -0.6362 -0.4362  0.1273
19532TIP3    H280088   4.515   3.408  13.549  0.1860 -1.6054 -0.9045
19533TIP3   OH280089   6.011   0.014  14.596 -0.2689  0.2894 -0.1550
19533TIP3    H180090   5.927  -0.028  14.579  0.3181 -1.0926  0.2267
19533TIP3    H280091   6.011   0.031  14.690  0.1898 -0.4706 -0.0054
19534TIP3   OH280092   6.030   5.809  15.953 -0.0230  0.7120  0.6133
19534TIP3    H180093   6.085   5.836  15.879 -0.6387  0.3835  0.0278
19534TIP3    H280094   6.079   5.737  15.993 -1.0985 -1.2151 -1.3479
19535TIP3   OH280095   0.843   6.262   1.615  0.2324  0.0904  0.4058
19535TIP3    H180096   0.767   6.236   1.668  1.0175  0.9744  2.0655
19535TIP3    H280097   0.858   6.188   1.557 -1.8582 -0.1217  0.0535
19536TIP3   OH280098   6.066   3.868  16.918  0.0357 -0.0773 -0.0401
19536TIP3    H180099   6.029   3.794  16.870 -0.8396 -0.0441  0.5434
19536TIP3    H280100   5.994   3.898  16.974  0.2035  1.5769 -0.6738
19537TIP3   OH280101   2.611   1.871  11.679  0.2337  0.1886  0.2266
19537TIP3    H180102   2.603   1.946  11.621  1.3068 -0.4440 -0.7873
19537TIP3    H280103   2.689   1.890  11.732  1.1702 -0.6669 -0.7939
19538TIP3   OH280104   4.223   0.793   5.215 -0.3017 -0.3549 -0.5796
19538TIP3    H180105   4.222   0.732   5.141 -0.8478 -1.4693  0.3046
19538TIP3    H280106   4.177   0.871   5.184  0.0499 -0.5485 -1.6125
19539TIP3   OH280107   2.114   5.719   3.876 -0.2102  0.1645  0.5181
19539TIP3    H180108   2.061   5.733   3.955 -0.0537 -0.9355  0.8339
19539TIP3    H280109   2.204   5.711   3.909  0.0668  1.2265  0.0654
19540TIP3   OH280110   3.151   5.543   0.139  0.3664  0.3281 -0.3569
19540TIP3    H180111   3.228   5.552   0.195 -0.4539 -1.8457  1.2832
19540TIP3    H280112   3.184   5.562   0.051  2.2718  1.4855  0.5203
19541TIP3   OH280113   3.543   6.521   5.117  0.1076  0.8069  0.0761
19541TIP3    H180114   3.627   6.531   5.161  0.1894 -0.0246  0.1163
19541TIP3    H280115   3.555   6.446   5.059  0.1602  2.1705 -1.7558
19542TIP3   OH280116   6.211   3.176  13.488 -0.0603 -0.1951  0.5841
19542TIP3    H180117   6.180   3.261  13.520 -0.1017 -0.0233  0.0891
19542TIP3    H280118   6.287   3.157  13.543  0.4926  0.5852  0.1155
19543TIP3   OH280119   0.039   6.054   1.341 -0.2017 -0.2783  0.1558
19543TIP3    H180120   0.026   6.111   1.417  0.2006  0.7882 -0.5457
19543TIP3    H280121   0.062   5.969   1.378 -0.5380  0.0890  1.2314
19544TIP3   OH280122   4.711   5.700  12.231 -0.4257  0.6214  0.5511
19544TIP3    H180123   4.721   5.688  12.325 -0.0421 -0.3028  0.4028
19544TIP3    H280124   4.709   5.611  12.196 -1.4220  0.9421 -0.2288
19545TIP3   OH280125   6.647   5.757   4.562 -0.1036  0.3042 -0.5922
19545TIP3    H180126   6.633   5.665   4.583  1.6314  0.3455  1.0238
19545TIP3    H280127   6.682   5.757   4.473 -0.2505 -0.5857 -0.6570
19546TIP3   OH280128   4.732   1.596   0.450 -0.2449 -0.0219 -0.5921
19546TIP3    H180129   4.729   1.672   0.509 -1.8044 -0.1361 -0.4992
19546TIP3    H280130   4.644   1.560   0.452  0.5950 -2.2472 -0.1367
19547TIP3   OH280131   3.300   2.890   3.856  0.0709  0.3223  0.3145
19547TIP3    H180132   3.363   2.940   3.908  0.8407 -0.4141  0.1243
19547TIP3    H280133   3.354   2.829   3.806 -0.6770  0.8492 -1.1803
19548TIP3   OH280134   2.427   0.685   3.101  0.2998 -0.1351  0.1006
19548TIP3    H180135   2.355   0.690   3.038  0.1196  2.1297  0.4063
19548TIP3    H280136   2.385   0.665   3.184  0.2548 -0.7290 -0.0639
19549TIP3   OH280137   2.970   0.979  17.175 -0.2737 -0.2875 -0.4566
19549TIP3    H180138   2.907   0.930  17.228 -0.4894  0.6406  0.1739
19549TIP3    H280139   3.050   0.981  17.228 -0.4011  0.3984 -0.2823
19550TIP3   OH280140   1.722   4.038  15.475  0.2245  0.1179 -0.3944
19550TIP3    H180141   1.811   4.065  15.451 -0.1407 -0.0634 -2.0691
19550TIP3    H280142   1.716   3.947  15.446 -0.0830 -0.3153  0.9515
19551TIP3   OH280143   0.334   1.890   4.073 -0.4235  0.1584 -0.4432
19551TIP3    H180144   0.370   1.833   4.005 -2.1994  0.3587 -1.6201
19551TIP3    H280145   0.323   1.833   4.148  2.0049  0.0304 -0.0938
19552TIP3   OH280146   0.526   4.286   3.474 -0.8208  0.0711  0.2434
19552TIP3    H180147   0.512   4.198   3.511  1.5297 -0.2573  0.5135
19552TIP3    H280148   0.482   4.283   3.389  0.4949 -1.9827 -0.4622
19553TIP3   OH280149   4.415   4.729   3.704 -0.2254  0.4244  0.1700
19553TIP3    H180150   4.491   4.729   3.763  0.7023  0.7089 -0.9855
19553TIP3    H280151   4.363   4.803   3.733 -0.2360  0.0418  1.1805
19554TIP3   OH280152   4.263   2.041  13.651  0.6646 -0.4634 -0.4699
19554TIP3    H180153   4.181   1.992  13.658  0.6748 -0.3878  0.3145
19554TIP3    H280154   4.331   1.975  13.664  0.6898 -0.3367  0.0899
19555TIP3   OH280155   1.462   0.314   5.422  0.6867  0.3645 -0.3202
19555TIP3    H180156   1.423   0.260   5.353  2.7769 -0.6440 -0.8040
19555TIP3    H280157   1.405   0.301   5.498 -0.5501 -0.0970 -1.2881
19556TIP3   OH280158   4.527   6.439  12.100  0.1020  0.0474 -0.4284
19556TIP3    H180159   4.599   6.398  12.147 -1.0123 -1.5962 -0.0808
19556TIP3    H280160   4.468   6.367  12.078 -0.7433  1.1556 -1.9690
19557TIP3   OH280161   6.727   6.792   4.633  0.2683 -1.0001 -0.3129
19557TIP3    H180162   6.725   6.816   4.726 -0.0842 -0.5503 -0.4317
19557TIP3    H280163   6.763   6.869   4.589 -0.2149 -0.9405 -0.6204
19558TIP3   OH280164   2.130   2.978   4.626  0.0464 -0.3079 -0.0911
19558TIP3    H180165   2.086   2.965   4.710 -1.5175  0.6215 -0.7246
19558TIP3    H280166   2.193   2.907   4.621 -1.4699 -1.7881  0.8225
19559TIP3   OH280167   3.764   5.574   6.036  0.0295  0.3463  0.5175
19559TIP3    H180168   3.773   5.666   6.062  0.1520  0.1826  1.0648
19559TIP3    H280169   3.835   5.559   5.974  0.9588  0.2105  1.5900
19560TIP3   OH280170   5.969   1.521   0.705  0.8715 -0.0620 -0.6279
19560TIP3    H180171   5.974   1.540   0.799  1.0918  0.3255 -0.7189
19560TIP3    H280172   5.973   1.425   0.700 -2.5993 -0.3937  0.0138
19561TIP3   OH280173   4.516   1.904   5.061  0.5273  0.2607  0.3348
19561TIP3    H180174   4.608   1.922   5.079  0.2934 -0.9144  3.1154
19561TIP3    H280175   4.516   1.819   5.017  0.7028 -0.6133  1.9767
19562TIP3   OH280176   2.977   4.856   1.050 -0.0125  0.4024  0.0833
19562TIP3    H180177   2.894   4.834   1.008 -0.2504 -1.2026  1.2706
19562TIP3    H280178   3.038   4.788   1.019  0.7247  1.2313 -0.3345
19563TIP3   OH280179   5.108   5.251   4.449  0.0053  0.2210 -0.0901
19563TIP3    H180180   5.165   5.174   4.446 -0.3312 -0.0202 -2.4130
19563TIP3    H280181   5.019   5.215   4.454 -0.1019  0.5116  0.1293
19564TIP3   OH280182   3.579   6.131   0.110  0.0275  1.1081 -0.5214
19564TIP3    H180183   3.599   6.214   0.066  1.4895  0.7597 -0.5644
19564TIP3    H280184   3.653   6.074   0.089  0.1866  0.5404  1.4212
19565TIP3   OH280185   5.462   1.507  11.929 -0.1855  0.3902  0.3327
19565TIP3    H180186   5.400   1.492  11.857  0.7706  1.0283 -0.6524
19565TIP3    H280187   5.511   1.585  11.902  2.4328 -1.2221  0.1204
19566TIP3   OH280188   0.851   6.332  16.631 -0.4959 -0.0805  0.0536
19566TIP3    H180189   0.822   6.423  16.629 -1.0428 -0.1768  1.8290
19566TIP3    H280190   0.888   6.321  16.719  1.5560 -0.9880 -0.8590
19567TIP3   OH280191   0.860   3.648  12.398  0.2077 -0.1428 -0.5563
19567TIP3    H180192   0.776   3.687  12.423 -0.7378 -1.8201 -0.9579
19567TIP3    H280193   0.907   3.637  12.481 -0.6257 -0.6070 -0.1354
19568TIP3   OH280194   5.086   3.388   3.900 -0.7798  0.2566 -1.0265
19568TIP3    H180195   5.013   3.354   3.952  0.8833 -1.8299  0.1418
19568TIP3    H280196   5.130   3.309   3.867  1.2183  1.4085 -1.2626
19569TIP3   OH280197   1.872   1.961  11.503 -0.0360  0.2176  0.2741
19569TIP3    H180198   1.857   1.884  11.448 -1.7896  0.1063  0.8324
19569TIP3    H280199   1.862   2.036  11.443  3.7833  0.1081 -0.7606
19570TIP3   OH280200   3.607   2.616   5.302  0.1808 -0.1366  0.0333
19570TIP3    H180201   3.602   2.532   5.348  0.2186  0.2942  0.8311
19570TIP3    H280202   3.701   2.637   5.301  0.1279  0.1160  0.2413
19571TIP3   OH280203   0.416   5.328   3.045 -0.3418  0.0226  0.2343
19571TIP3    H180204   0.400   5.234   3.035  0.7836 -0.0267 -1.5500
19571TIP3    H280205   0.341   5.370   3.002  0.9017 -0.1448 -2.2500
19572TIP3   OH280206   4.573   1.674   3.596 -0.6626 -0.3300  0.3863
19572TIP3    H180207   4.655   1.715   3.566 -0.5707 -1.9051 -1.6946
19572TIP3    H280208   4.591   1.650   3.687  0.0553  2.1026  0.9890
19573TIP3   OH280209   3.312   4.373  13.252 -0.1200 -0.3812  0.2593
19573TIP3    H180210   3.351   4.427  13.183 -0.5168 -0.2974  0.1013
19573TIP3    H280211   3.297   4.433  13.324 -1.0964 -0.1454 -0.1204
19574TIP3   OH280212   4.534   0.484   4.257  0.0140 -0.3527 -0.5961
19574TIP3    H180213   4.570   0.514   4.340  0.0139  1.4244 -1.1946
19574TIP3    H280214   4.533   0.388   4.264  1.3881 -0.2973  0.8583
19575TIP3   OH280215   4.366   3.827  16.513  0.4873 -0.0398 -0.3237
19575TIP3    H180216   4.322   3.854  16.432  0.1718  3.8863  0.9377
19575TIP3    H280217   4.454   3.800  16.485  0.0166  0.1358 -2.0668
19576TIP3   OH280218   1.629   0.732   1.097 -0.5562  0.5594 -0.5589
19576TIP3    H180219   1.609   0.643   1.067 -0.7281  0.8302 -1.2673
19576TIP3    H280220   1.713   0.724   1.143 -1.3033 -0.2337  0.7255
19577TIP3   OH280221   3.082   1.575   3.285 -0.1447  0.0572 -0.0879
19577TIP3    H180222   3.122   1.570   3.198  0.2862  0.6916  0.0640
19577TIP3    H280223   2.988   1.570   3.269 -0.1349  1.4420 -0.7190
19578TIP3   OH280224   0.971   2.910  10.408  0.1917 -0.3123 -0.3145
19578TIP3    H180225   0.988   2.823  10.444  3.6539  0.9390  1.5438
19578TIP3    H280226   1.040   2.923  10.343  0.6895  1.5376  0.5086
19579TIP3   OH280227   3.990   0.231  13.159 -0.4933  0.0323 -0.2991
19579TIP3    H180228   3.927   0.174  13.204  0.3502  0.0393  0.9308
19579TIP3    H280229   4.061   0.173  13.134  0.3577  0.5078  0.9311
19580TIP3   OH280230   0.695   6.092   4.708 -0.1503 -0.1239 -0.5441
19580TIP3    H180231   0.736   6.105   4.793 -1.3462  0.4666 -0.0301
19580TIP3    H280232   0.755   6.134   4.646  0.9000 -0.8717 -0.0482
19581TIP3   OH280233   0.434   5.168  15.391 -0.5941  0.2750  0.1454
19581TIP3    H180234   0.443   5.262  15.407  0.4060  0.2902 -0.4167
19581TIP3    H280235   0.376   5.162  15.315 -3.1689  0.2974  1.9925
19582TIP3   OH280236   6.085   3.132   5.393 -0.4314  0.0557  0.4934
19582TIP3    H180237   6.132   3.204   5.352 -1.1828  0.6413  0.6348
19582TIP3    H280238   6.066   3.072   5.321 -1.1564  0.7505  0.0850
19583TIP3   OH280239   6.009   4.312   4.100 -0.8295  0.3545 -0.2959
19583TIP3    H180240   5.998   4.350   4.013 -1.1334 -1.7853 -1.2610
19583TIP3    H280241   5.945   4.240   4.103 -1.4634  0.9419  2.0635
19584TIP3   OH280242   1.158   5.811  14.994  0.2123 -0.0335  0.4274
19584TIP3    H180243   1.194   5.722  15.001  0.0236 -0.0965  0.6103
19584TIP3    H280244   1.065   5.797  14.980  0.1991  0.1356  0.3584
19585TIP3   OH280245   5.729   3.473   1.912  0.0851 -0.4570 -0.1542
19585TIP3    H180246   5.641   3.497   1.882 -0.0138  1.3956  1.4093
19585TIP3    H280247   5.778   3.555   1.911  1.8414 -1.4649 -0.9956
19586TIP3   OH280248   0.070   6.789   2.665 -0.0028 -0.1947  0.0993
19586TIP3    H180249   0.065   6.697   2.691  2.6485 -0.0013  1.6067
19586TIP3    H280250   0.131   6.790   2.592 -1.6100  0.1899 -1.3034
19587TIP3   OH280251   5.371   2.617   6.049 -0.5680 -0.2748 -0.2706
19587TIP3    H180252   5.371   2.522   6.058 -2.6160 -0.4874 -1.6742
19587TIP3    H280253   5.317   2.649   6.121  0.1498 -0.1337  0.2228
19588TIP3   OH280254   4.817   1.597   6.504  0.4925  0.1951 -0.0549
19588TIP3    H180255   4.834   1.687   6.475 -0.5907  0.4999  0.2133
19588TIP3    H280256   4.759   1.560   6.438 -1.0600  0.5176  1.0712
19589TIP3   OH280257   3.995   3.319  16.092 -0.3261 -0.4122 -0.2932
19589TIP3    H180258   4.060   3.364  16.038  1.1188 -1.3292  0.6220
19589TIP3    H280259   3.919   3.377  16.091  0.9065  1.2745 -0.4458
19590TIP3   OH280260   3.046   5.141  16.055 -0.2203  0.5387  0.0143
19590TIP3    H180261   2.986   5.116  16.126 -0.5558 -0.5612 -0.6221
19590TIP3    H280262   2.989   5.158  15.980  0.1236  1.8014  0.0288
19591TIP3   OH280263   0.500   0.535  14.140  0.3872 -0.4010 -0.0861
19591TIP3    H180264   0.418   0.551  14.187 -0.7678 -1.9367 -1.4501
19591TIP3    H280265   0.543   0.621  14.137 -0.8581  0.3155  1.1990
19592TIP3   OH280266   2.966   5.629   0.324 -0.1616 -0.0208 -0.2093
19592TIP3    H180267   3.034   5.621   0.257 -0.3079  0.9684 -0.4944
19592TIP3    H280268   3.009   5.670   0.398 -0.1510 -0.5439  0.0779
19593TIP3   OH280269   5.253   4.961   5.437  0.1802  0.1050 -0.4275
19593TIP3    H180270   5.206   4.903   5.497  1.1748  0.5427  0.8087
19593TIP3    H280271   5.189   4.980   5.368 -0.3612 -1.9467 -0.5655
19594TIP3   OH280272   1.792   3.559  16.177  0.2097  0.0758 -0.1709
19594TIP3    H180273   1.772   3.646  16.211  0.7325 -0.1045  0.6465
19594TIP3    H280274   1.742   3.499  16.233  0.6598 -0.1965 -0.0513
19595TIP3   OH280275   6.579   1.985   4.781 -0.1472  0.1710 -0.0995
19595TIP3    H180276   6.502   2.009   4.729 -0.1158  0.5364  0.0167
19595TIP3    H280277   6.620   2.069   4.802 -0.1482  0.0278  0.4924
19596TIP3   OH280278   5.520   4.219  12.465  0.3407  0.0650  0.4279
19596TIP3    H180279   5.448   4.275  12.437  1.3399  1.7232  0.9933
19596TIP3    H280280   5.599   4.271  12.446  1.4344 -1.9025 -0.6781
19597TIP3   OH280281   2.188   2.295   1.501 -0.3088  0.9397  0.0967
19597TIP3    H180282   2.265   2.293   1.445 -1.0915 -0.5683 -0.9768
19597TIP3    H280283   2.161   2.387   1.501 -0.1497  1.0194 -1.8263
19598TIP3   OH280284   2.549   2.108  12.480 -0.4672  0.1495 -0.6279
19598TIP3    H180285   2.565   2.163  12.556 -1.6998 -1.4353  0.8537
19598TIP3    H280286   2.621   2.128  12.420  1.6068  0.1314  1.7055
19599TIP3   OH280287   6.347   2.845  12.745  0.1456 -0.0261  0.2206
19599TIP3    H180288   6.327   2.758  12.711 -1.2016  0.3630 -0.0076
19599TIP3    H280289   6.299   2.850  12.828  1.0480  0.1281  0.7522
19600TIP3   OH280290   4.016   2.785  14.175  0.1958  0.4249 -0.3580
19600TIP3    H180291   4.047   2.872  14.198  0.9827  0.4863 -1.5997
19600TIP3    H280292   4.092   2.740  14.139  0.1231 -1.2073  1.3365
19601TIP3   OH280293   5.288   6.109  10.924 -0.1080 -0.4657 -0.0420
19601TIP3    H180294   5.315   6.020  10.902 -0.6111 -0.3271 -1.2912
19601TIP3    H280295   5.333   6.128  11.006  0.8155 -1.5037 -0.2853
19602TIP3   OH280296   3.886   4.761   1.610 -0.0936  0.1316 -0.2118
19602TIP3    H180297   3.809   4.801   1.650 -1.0225 -0.9733 -0.8443
19602TIP3    H280298   3.918   4.699   1.675 -1.2230 -1.1963 -0.8799
19603TIP3   OH280299   4.999   0.102  11.586 -0.1784  0.0133 -0.3683
19603TIP3    H180300   4.942   0.026  11.584 -2.0919  1.3625  0.4626
19603TIP3    H280301   5.087   0.066  11.573 -1.1730 -2.1235 -1.7587
19604TIP3   OH280302   5.618   0.066   4.522 -0.3119  0.6142 -0.3596
19604TIP3    H180303   5.523   0.076   4.524 -0.3926 -0.2153  1.0579
19604TIP3    H280304   5.632  -0.021   4.486 -0.0431  1.0158 -1.2550
19605TIP3   OH280305   0.072   0.287  12.745 -0.4301  0.0422 -0.3383
19605TIP3    H180306   0.000   0.342  12.715 -0.1822 -0.0664 -1.1560
19605TIP3    H280307   0.151   0.335  12.720 -0.0442  2.1056  3.9066
19606TIP3   OH280308   2.516   3.524  16.493 -0.0529 -0.6191  0.0593
19606TIP3    H180309   2.485   3.614  16.486  2.0974  0.0362 -2.4695
19606TIP3    H280310   2.492   3.483  16.410  0.9728 -1.6919  0.2627
19607TIP3   OH280311   4.920   6.101  13.326  0.2390  0.2046  0.0646
19607TIP3    H180312   4.992   6.054  13.368 -0.2039  1.1840  2.0546
19607TIP3    H280313   4.848   6.094  13.388 -0.9471  0.4595 -1.2451
19608TIP3   OH280314   2.284   3.561  11.870 -0.5101  0.0410 -0.4308
19608TIP3    H180315   2.221   3.491  11.886 -0.6121  0.1967 -0.1639
19608TIP3    H280316   2.332   3.531  11.792  1.3409 -1.6916  1.2545
19609TIP3   OH280317   3.269   0.052  16.735  0.9577 -0.6966  0.4040
19609TIP3    H180318   3.305   0.032  16.648  2.2810 -2.3506  1.2714
19609TIP3    H280319   3.325   0.121  16.768 -0.9421  1.5963 -0.8769
19610TIP3   OH280320   6.260   0.521  11.501  0.2587  0.2091  0.4803
19610TIP3    H180321   6.340   0.479  11.470 -0.4695 -2.3415  1.8136
19610TIP3    H280322   6.203   0.524  11.424  0.5584 -0.7379  0.2059
19611TIP3   OH280323   2.329   0.592   5.077 -0.7530 -0.2562  0.0293
19611TIP3    H180324   2.408   0.637   5.047 -0.0503 -0.2082  1.8502
19611TIP3    H280325   2.281   0.573   4.996  1.4230 -0.9006 -1.2110
19612TIP3   OH280326   5.912   0.384  13.210 -0.4874  0.1063  0.0253
19612TIP3    H180327   5.818   0.369  13.209 -0.2466 -1.9764  1.4439
19612TIP3    H280328   5.938   0.384  13.118 -1.6123 -1.5074 -0.3388
19613TIP3   OH280329   2.254   4.633   4.389 -0.0645  0.2945  0.1041
19613TIP3    H180330   2.219   4.556   4.344  0.3706  0.2162 -0.1009
19613TIP3    H280331   2.348   4.619   4.391  0.2141  1.6505 -1.4880
19614TIP3   OH280332   4.288   3.526   3.300  0.1420 -0.2919 -0.6057
19614TIP3    H180333   4.222   3.555   3.364  0.9347 -0.2236  0.2097
19614TIP3    H280334   4.266   3.573   3.220 -1.3672 -0.9947 -0.6348
19615TIP3   OH280335   4.649   1.462  15.847  0.1508 -0.6538  0.1583
19615TIP3    H180336   4.700   1.496  15.921 -1.7534  0.0188  1.2087
19615TIP3    H280337   4.562   1.446  15.883 -0.7568 -0.5587 -1.8807
19616TIP3   OH280338   5.278   6.544  14.546  0.6601  0.3037  0.1923
19616TIP3    H180339   5.187   6.574  14.551  0.7798  1.1790 -1.8623
19616TIP3    H280340   5.283   6.495  14.465  2.2473  1.1574 -0.2754
19617TIP3   OH280341   3.940   3.277  16.880  0.2179  0.0743  0.1530
19617TIP3    H180342   3.882   3.205  16.904  0.7225 -0.0887  0.9271
19617TIP3    H280343   4.006   3.278  16.950  1.5339 -0.1731 -1.0430
19618TIP3   OH280344   3.476   2.980   4.068 -0.3536  0.7212  0.3141
19618TIP3    H180345   3.515   2.936   4.144 -1.1338  0.4512  0.5752
19618TIP3    H280346   3.528   3.059   4.056  1.1768 -0.3266 -0.2507
19619TIP3   OH280347   0.973   1.401   4.809 -0.7719 -0.1921 -0.5726
19619TIP3    H180348   1.068   1.409   4.822 -0.9441 -0.3485  0.8799
19619TIP3    H280349   0.962   1.317   4.764 -0.3317 -1.0959  0.9278
19620TIP3   OH280350   4.102   1.116  14.739  0.3956  0.5089 -0.0069
19620TIP3    H180351   4.033   1.133  14.803 -1.4333 -0.1882 -1.6852
19620TIP3    H280352   4.182   1.112  14.791 -1.1301 -1.3422  2.4347
19621TIP3   OH280353   4.802   0.249   5.784  0.3406 -0.0877 -0.4434
19621TIP3    H180354   4.753   0.172   5.757 -2.1030  0.7898  1.0844
19621TIP3    H280355   4.735   0.308   5.819  2.4842  1.3810  1.4528
19622TIP3   OH280356   5.584   4.962   2.520 -0.4748  0.3748 -0.3421
19622TIP3    H180357   5.557   4.915   2.598 -0.7932 -0.4575 -0.9351
19622TIP3    H280358   5.584   5.054   2.545 -4.1501  0.5190 -0.3327
19623TIP3   OH280359   0.417   4.041   0.427  0.5479  0.2888 -0.2365
19623TIP3    H180360   0.381   4.096   0.358  0.6929  2.0374  1.0239
19623TIP3    H280361   0.352   3.971   0.438 -0.4203  1.0600 -0.8355
19624TIP3   OH280362   3.223   5.976  16.799 -0.4749  0.2146 -0.0419
19624TIP3    H180363   3.313   5.957  16.774 -0.6955 -2.2236  0.7656
19624TIP3    H280364   3.176   5.982  16.716  0.4350  1.8127 -0.4861
19625TIP3   OH280365   4.717   2.711   5.030  0.0586  0.4128  0.9374
19625TIP3    H180366   4.799   2.662   5.036 -0.2387 -0.2879 -0.3244
19625TIP3    H280367   4.667   2.683   5.106  1.0294  0.9802  1.8236
19626TIP3   OH280368   4.874   1.977  10.298 -0.2616 -0.7587 -0.2285
19626TIP3    H180369   4.800   2.020  10.254 -0.7433 -0.8385  0.4771
19626TIP3    H280370   4.852   1.884  10.294 -1.3763 -0.6536  1.9770
19627TIP3   OH280371   3.792   4.253   3.682  0.2306 -0.1618  0.1749
19627TIP3    H180372   3.838   4.337   3.688 -0.0202 -0.0998  1.3902
19627TIP3    H280373   3.706   4.276   3.645  1.4194 -0.4015 -3.0085
19628TIP3   OH280374   1.814   1.121  10.703 -0.3487 -0.3905  0.1386
19628TIP3    H180375   1.903   1.093  10.721 -0.1304  0.6910  0.8191
19628TIP3    H280376   1.760   1.043  10.721  0.2825 -0.5435  1.4979
19629TIP3   OH280377   5.196   2.035   1.812  0.3148  0.0040 -0.0713
19629TIP3    H180378   5.138   2.023   1.888  0.1245  1.0132 -0.0530
19629TIP3    H280379   5.251   2.110   1.834  1.7632 -1.0197 -0.0315
19630TIP3   OH280380   1.253   2.734  12.617  0.1341  0.3365  0.0057
19630TIP3    H180381   1.257   2.645  12.581  0.7357  0.6304 -0.6816
19630TIP3    H280382   1.219   2.722  12.706 -1.4889 -0.3916 -0.6671
19631TIP3   OH280383   5.396   3.560   3.902  0.2168  0.0122  0.1618
19631TIP3    H180384   5.379   3.515   3.985 -0.4913 -0.4326 -0.2178
19631TIP3    H280385   5.334   3.522   3.841  0.5802  0.5024 -0.5250
19632TIP3   OH280386   4.364   4.264  17.082  0.0128 -0.2765  0.3674
19632TIP3    H180387   4.447   4.250  17.127  0.4149  1.2931  0.1726
19632TIP3    H280388   4.388   4.294  16.994 -0.6352  2.8229  1.1127
19633TIP3   OH280389   1.323   6.716  12.102  0.3657  0.1719 -0.4997
19633TIP3    H180390   1.342   6.790  12.043 -0.8999  0.7315 -0.2580
19633TIP3    H280391   1.294   6.646  12.044 -1.1767  0.8209 -0.5900
19634TIP3   OH280392   6.455   5.409   4.047 -0.4104 -0.7194 -0.5787
19634TIP3    H180393   6.385   5.355   4.083  0.4660 -1.8820 -0.5363
19634TIP3    H280394   6.520   5.346   4.015  1.3582  0.2946  0.8488
19635TIP3   OH280395   6.518   1.436  16.116 -0.1458  0.2762  0.2952
19635TIP3    H180396   6.604   1.478  16.115  0.0792  0.0187  2.5079
19635TIP3    H280397   6.480   1.456  16.031  2.2056  0.1660 -0.8470
19636TIP3   OH280398   6.708   1.550  15.223 -0.4063 -0.1267 -0.0192
19636TIP3    H180399   6.629   1.574  15.270 -0.4744  0.6186 -0.5180
19636TIP3    H280400   6.679   1.489  15.155 -0.5466  0.1421 -0.1979
19637TIP3   OH280401   2.370   3.548   5.425  0.1100 -0.4420 -0.3004
19637TIP3    H180402   2.397   3.586   5.341 -3.2142  1.8964 -0.4879
19637TIP3    H280403   2.391   3.615   5.490 -2.0377  0.0547 -0.0441
19638TIP3   OH280404   4.615   6.452  16.627  0.1539 -0.4502 -0.0927
19638TIP3    H180405   4.685   6.446  16.562  0.7544 -2.4325  0.6750
19638TIP3    H280406   4.545   6.397  16.591  0.1068 -0.7704  0.4861
19639TIP3   OH280407   1.501   2.058   0.728  0.1955  0.0235  0.2778
19639TIP3    H180408   1.420   2.007   0.731  0.0165  0.3311  0.6902
19639TIP3    H280409   1.540   2.036   0.643 -0.5400  0.2234 -0.1198
19640TIP3   OH280410   6.613   2.884  15.901 -0.5631  0.2712  0.5502
19640TIP3    H180411   6.658   2.969  15.908 -0.4356  0.0832  2.9740
19640TIP3    H280412   6.566   2.889  15.818 -0.7509  2.8163  0.7101
19641TIP3   OH280413   6.666   4.497  14.603  0.4923 -0.3760  0.5996
19641TIP3    H180414   6.724   4.492  14.527 -0.9725 -0.2974 -0.5720
19641TIP3    H280415   6.578   4.510  14.566  0.0385  2.6329  2.3585
19642TIP3   OH280416   0.436   3.277   4.253  0.0775 -0.0489  0.5421
19642TIP3    H180417   0.485   3.235   4.183  0.4633 -0.3127  0.9679
19642TIP3    H280418   0.401   3.205   4.305  1.4742  0.1326  1.7857
19643TIP3   OH280419   3.801   2.363   0.513  0.3497  0.1892  0.3824
19643TIP3    H180420   3.812   2.314   0.595  0.2547  0.4524  0.5527
19643TIP3    H280421   3.887   2.360   0.472  0.4184  0.1200  0.5283
19644TIP3   OH280422   6.574   4.675   2.221  0.3074  0.2236  0.2062
19644TIP3    H180423   6.589   4.602   2.161  1.2575 -0.5264  1.3181
19644TIP3    H280424   6.634   4.659   2.294  1.3993  2.7288 -0.0396
19645TIP3   OH280425   6.313   1.851   3.258  0.0632 -0.4341  0.3894
19645TIP3    H180426   6.224   1.850   3.223  0.4047  0.1506 -0.5329
19645TIP3    H280427   6.333   1.759   3.277  0.3255 -0.9956 -2.2220
19646TIP3   OH280428   2.866   2.328   2.739 -0.3925 -0.1836  0.4814
19646TIP3    H180429   2.915   2.402   2.774  0.6661 -0.9427  0.6571
19646TIP3    H280430   2.801   2.367   2.680  0.7374  0.8191 -0.1247
19647TIP3   OH280431   1.633   1.169   2.276 -0.1916 -0.0434  0.2446
19647TIP3    H180432   1.581   1.150   2.198  0.2388  2.8810 -0.9089
19647TIP3    H280433   1.681   1.088   2.294 -1.7187 -1.3896 -1.3760
19648TIP3   OH280434   4.526   3.629   4.729 -0.0864 -0.2439  0.3296
19648TIP3    H180435   4.602   3.642   4.787  1.2260  1.7401 -1.6781
19648TIP3    H280436   4.560   3.574   4.658 -0.6035  0.3868 -0.4164
19649TIP3   OH280437   0.960   3.737  12.933  0.3438  0.2372  0.2679
19649TIP3    H180438   1.009   3.783  12.864 -0.0501 -0.0529 -0.2133
19649TIP3    H280439   0.978   3.645  12.917  0.0275  0.1553  0.3857
19650TIP3   OH280440   3.268   5.224   2.094  0.0900 -0.0429 -0.1882
19650TIP3    H180441   3.252   5.226   2.188 -2.0001  0.8856 -0.5047
19650TIP3    H280442   3.181   5.235   2.055  0.8739 -0.6427 -2.2364
19651TIP3   OH280443   2.084   1.909   3.757 -0.5101  0.5931 -0.3114
19651TIP3    H180444   2.065   1.884   3.847 -1.7008 -1.5530 -1.0769
19651TIP3    H280445   2.178   1.893   3.748 -0.0251  2.4267  0.9590
19652TIP3   OH280446   6.265   1.382   2.030  0.0491 -0.3738  0.5985
19652TIP3    H180447   6.247   1.470   2.062 -3.7206 -0.8872  0.2491
19652TIP3    H280448   6.275   1.329   2.110 -0.2679 -0.0660  0.8440
19653TIP3   OH280449   6.011   2.520   5.665 -0.2512 -0.0995 -0.0319
19653TIP3    H180450   5.999   2.529   5.760 -0.4145  0.8368 -0.1302
19653TIP3    H280451   6.050   2.433   5.654  1.0508  0.3141  1.0162
19654TIP3   OH280452   0.233   5.874   1.527 -0.3720 -0.2512  0.1918
19654TIP3    H180453   0.278   5.867   1.611  0.1880  3.5645  0.3994
19654TIP3    H280454   0.303   5.873   1.462 -0.6727 -1.4724 -0.1459
19655TIP3   OH280455   0.590   2.916  11.824  0.0069  0.2768  0.1635
19655TIP3    H180456   0.535   2.962  11.761  1.5976  2.4388  0.2535
19655TIP3    H280457   0.592   2.973  11.901  1.2567 -0.3971  0.6631
19656TIP3   OH280458   0.386   6.278  12.852 -0.2464  0.1734  0.3402
19656TIP3    H180459   0.330   6.349  12.819 -0.5517  0.0377  0.5638
19656TIP3    H280460   0.385   6.288  12.947 -1.2309 -0.8191  0.4576
19657TIP3   OH280461   0.367   6.637   3.773 -0.2131 -0.5041  0.2651
19657TIP3    H180462   0.351   6.611   3.864 -0.2064 -0.9903  0.1310
19657TIP3    H280463   0.449   6.595   3.749  1.1110  1.6313  0.8011
19658TIP3   OH280464   6.701   6.481  15.941  0.2022  0.7650  0.3735
19658TIP3    H180465   6.606   6.497  15.934 -0.0595 -0.8124 -0.1247
19658TIP3    H280466   6.739   6.531  15.869 -0.5617 -0.7101 -1.1250
19659TIP3   OH280467   6.377   3.688   5.475  0.6628  0.4712 -0.3230
19659TIP3    H180468   6.437   3.691   5.549 -0.1757 -0.7998  0.4620
19659TIP3    H280469   6.432   3.665   5.400  0.9703 -3.1383  0.7769
19660TIP3   OH280470   1.600   1.667   3.171  0.0869 -0.5701  0.3140
19660TIP3    H180471   1.583   1.574   3.160  0.9570 -0.6584 -0.3527
19660TIP3    H280472   1.559   1.708   3.095  1.3735 -0.6187 -0.4292
19661TIP3   OH280473   0.502   1.247  11.380  0.6170 -0.4012 -0.5277
19661TIP3    H180474   0.417   1.276  11.413 -0.0074  0.2348 -2.5196
19661TIP3    H280475   0.480   1.181  11.314  1.6342 -0.0592 -1.2303
19662TIP3   OH280476   1.975   4.865   0.505 -0.0592  0.0549  0.2568
19662TIP3    H180477   1.994   4.930   0.573  1.6984  0.7213 -0.7998
19662TIP3    H280478   1.891   4.894   0.468  0.7638  1.8970 -0.3090
19663TIP3   OH280479   5.386   5.459   3.461  0.2951 -0.6210  0.3719
19663TIP3    H180480   5.451   5.527   3.476  0.0679 -0.3874  0.3105
19663TIP3    H280481   5.314   5.482   3.520 -0.5856  0.2718 -0.9925
19664TIP3   OH280482   2.136   0.093  16.209  0.1114 -0.6369 -0.2242
19664TIP3    H180483   2.143   0.077  16.303 -0.7839 -0.3535 -0.1000
19664TIP3    H280484   2.104   0.183  16.202 -2.1245 -1.3996 -0.7255
19665TIP3   OH280485   5.761   0.075  15.694  0.3213 -0.0810  0.0189
19665TIP3    H180486   5.711   0.010  15.743  0.5496 -1.2636 -1.2500
19665TIP3    H280487   5.827   0.107  15.756  0.9574 -1.9395  0.3685
19666TIP3   OH280488   2.428   4.763   1.474 -0.8693 -0.2605  0.4176
19666TIP3    H180489   2.410   4.793   1.563 -1.9889 -1.7201  0.7168
19666TIP3    H280490   2.352   4.711   1.450 -0.5904  0.1081 -1.4220
19667TIP3   OH280491   0.285   4.603   4.964 -0.0817  0.3274  0.7551
19667TIP3    H180492   0.232   4.536   5.006  0.7815 -2.6629 -2.4239
19667TIP3    H280493   0.227   4.679   4.957 -1.4262 -0.3134  3.6795
19668TIP3   OH280494   6.741   6.289  14.429 -0.2319 -0.0728  0.7326
19668TIP3    H180495   6.816   6.346  14.446  0.4140 -0.1462 -1.5195
19668TIP3    H280496   6.778   6.212  14.387 -1.5921  0.4830 -1.7436
19669TIP3   OH280497   1.599   0.039   1.018  0.2850 -0.4326  0.2168
19669TIP3    H180498   1.662   0.108   1.041 -0.3899  0.3287 -0.1591
19669TIP3    H280499   1.599  -0.020   1.093 -0.2359  0.8026  1.2132
19670TIP3   OH280500   4.588   5.942  14.712  0.6074 -0.0644 -0.3136
19670TIP3    H180501   4.528   5.923  14.640 -0.4083  1.1886  0.1683
19670TIP3    H280502   4.540   5.919  14.791  0.7870  0.8640  0.0759
19671TIP3   OH280503   1.368   3.391  11.809  0.0897  0.3823 -0.2839
19671TIP3    H180504   1.316   3.322  11.767  3.6976 -1.4305 -2.2325
19671TIP3    H280505   1.331   3.473  11.776 -2.0218 -0.6995 -0.8072
19672TIP3   OH280506   6.441   0.650  15.874 -0.1541  0.6284  0.0295
19672TIP3    H180507   6.372   0.694  15.923 -0.5389 -0.6369  0.6553
19672TIP3    H280508   6.499   0.721  15.845  0.0182  1.4392  2.1712
19673TIP3   OH280509   0.872   4.252   4.566  0.2786 -0.1382 -0.3322
19673TIP3    H180510   0.901   4.343   4.576 -1.3867  0.4064 -0.2126
19673TIP3    H280511   0.814   4.237   4.640 -1.2636 -0.5613 -1.5842
19674TIP3   OH280512   4.528   4.748   1.767 -0.7538 -0.2842 -0.1592
19674TIP3    H180513   4.577   4.710   1.694 -0.6070 -1.8014  0.6803
19674TIP3    H280514   4.471   4.677   1.797 -1.1815  0.4692  0.8693
19675TIP3   OH280515   1.936   2.713  12.776  0.3853  0.2590  0.7412
19675TIP3    H180516   1.933   2.708  12.871  0.4102  0.3835  0.7487
19675TIP3    H280517   2.027   2.695  12.754  0.0680 -1.4477  0.6462
19676TIP3   OH280518   2.929   1.723  15.097 -0.7748  0.2836 -0.0453
19676TIP3    H180519   3.013   1.698  15.058 -0.7116  0.5436 -0.0818
19676TIP3    H280520   2.891   1.641  15.127 -0.9556  0.0316 -0.9255
19677TIP3   OH280521   5.093   0.412  16.855 -0.0749  0.3418 -0.1538
19677TIP3    H180522   5.177   0.392  16.815  0.5877  2.3555  0.0850
19677TIP3    H280523   5.042   0.453  16.785 -0.8143 -0.7317 -0.2578
19678TIP3   OH280524   0.112   6.579   0.326 -0.0338  0.2265 -0.0469
19678TIP3    H180525   0.101   6.484   0.322  2.4045 -0.0872 -0.8531
19678TIP3    H280526   0.176   6.594   0.396 -0.1610  1.2446 -0.1235
19679TIP3   OH280527   4.252   6.257   3.728 -0.2397  0.0708  0.1692
19679TIP3    H180528   4.233   6.205   3.650 -1.2875  1.0848 -0.2766
19679TIP3    H280529   4.333   6.220   3.762  0.0455 -0.6238 -1.2011
19680TIP3   OH280530   6.401   4.241  12.457 -0.4537 -0.0138 -0.4807
19680TIP3    H180531   6.480   4.199  12.491 -1.2113 -0.6438  0.5491
19680TIP3    H280532   6.430   4.327  12.426  0.5015  0.0355  0.5321
19681TIP3   OH280533   6.745   0.329   1.591 -0.1684  0.2104  0.2233
19681TIP3    H180534   6.764   0.414   1.630  1.0738  0.0706 -0.0483
19681TIP3    H280535   6.831   0.291   1.570 -0.7364 -0.1159 -1.7873
19682TIP3   OH280536   3.691   4.562   4.267 -0.6192  0.0946  0.5030
19682TIP3    H180537   3.780   4.573   4.234 -1.3493 -0.5772 -1.8187
19682TIP3    H280538   3.684   4.468   4.285 -1.2526 -0.0747 -0.5829
19683TIP3   OH280539   2.409   0.449   0.016  0.1882  0.3558 -0.3608
19683TIP3    H180540   2.425   0.475   0.107 -0.7203  0.7767 -0.3130
19683TIP3    H280541   2.473   0.499  -0.035  2.7696 -2.0645  0.2478
19684TIP3   OH280542   2.625   5.100   4.858  0.0911 -0.7263  0.3900
19684TIP3    H180543   2.583   5.052   4.929 -0.0815  0.3481  1.0440
19684TIP3    H280544   2.652   5.033   4.796 -0.1725 -1.6533  1.2499
19685TIP3   OH280545   1.014   3.830   0.781 -0.4354 -0.6012  0.3072
19685TIP3    H180546   0.930   3.870   0.801 -0.8747 -0.8582 -0.9017
19685TIP3    H280547   1.076   3.902   0.778 -0.8176 -0.2774  0.1848
19686TIP3   OH280548   0.836   5.095  14.687  0.4280 -0.1633 -0.3723
19686TIP3    H180549   0.815   5.188  14.699 -1.5872 -0.7220  0.6865
19686TIP3    H280550   0.849   5.061  14.775  5.6258 -0.0743 -0.7673
19687TIP3   OH280551   3.959   6.381  11.841 -0.0223  0.1107 -0.0695
19687TIP3    H180552   3.937   6.432  11.763 -1.3906  1.2276  0.9928
19687TIP3    H280553   3.894   6.407  11.906  2.6156  1.2223  2.3367
19688TIP3   OH280554   0.659   2.894   3.813 -0.3774 -0.8258 -0.0614
19688TIP3    H180555   0.697   2.978   3.787 -3.1121  0.0466 -1.7343
19688TIP3    H280556   0.686   2.883   3.904 -0.4265  2.2532  0.4606
19689TIP3   OH280557   3.315   4.640  12.659  0.2062 -0.0317  0.2286
19689TIP3    H180558   3.279   4.656  12.572 -2.2873  1.0142  1.3563
19689TIP3    H280559   3.348   4.725  12.688  0.9633 -0.3595  0.3554
19690TIP3   OH280560   1.534   3.493   1.973  0.3029  0.5400 -0.0539
19690TIP3    H180561   1.547   3.495   1.878 -1.9431 -0.8641 -0.4703
19690TIP3    H280562   1.496   3.579   1.993 -1.4581  0.0300 -0.8972
19691TIP3   OH280563   6.545   4.394  13.996  0.5414 -0.2868  0.1508
19691TIP3    H180564   6.480   4.443  13.945 -0.9345 -0.3475  1.8865
19691TIP3    H280565   6.554   4.444  14.077  3.0931 -0.0050 -0.2332
19692TIP3   OH280566   0.545   3.923   0.971  0.0166 -0.1644 -0.3870
19692TIP3    H180567   0.516   3.864   1.040 -0.0600 -0.8195 -0.9653
19692TIP3    H280568   0.521   4.010   1.002  0.5511 -0.3742  0.7006
19693TIP3   OH280569   0.201   6.745   6.115 -0.5124  0.2427  0.5294
19693TIP3    H180570   0.289   6.712   6.094 -0.3931 -0.1563  1.5883
19693TIP3    H280571   0.145   6.668   6.107 -0.9179  0.6637 -0.9322
19694TIP3   OH280572   5.161   2.406  15.171  0.5432  0.0187 -0.6164
19694TIP3    H180573   5.080   2.433  15.127  0.1504 -0.4622 -0.2040
19694TIP3    H280574   5.155   2.310  15.173 -0.0532  0.0414  1.5807
19695TIP3   OH280575   4.242   2.677   5.866 -0.0824 -0.3620 -0.4973
19695TIP3    H180576   4.215   2.594   5.827 -0.2487 -1.7102  2.2047
19695TIP3    H280577   4.263   2.654   5.957  0.9212  2.3842  0.0464
19696TIP3   OH280578   3.714   6.670   2.594  0.1999  0.3403  0.4377
19696TIP3    H180579   3.639   6.664   2.654 -0.3993  0.7363 -0.2491
19696TIP3    H280580   3.674   6.680   2.507  1.0565  0.5240  0.0557
19697TIP3   OH280581   4.006   0.075  11.500  0.1092  0.1074  0.0961
19697TIP3    H180582   3.974   0.165  11.494 -0.6010 -0.1434  0.0575
19697TIP3    H280583   4.018   0.060  11.594 -2.3643 -0.6266  0.3615
19698TIP3   OH280584   4.703   3.419   4.286 -0.5327  0.5060 -0.1898
19698TIP3    H180585   4.752   3.489   4.243 -1.0499  0.3882 -1.0074
19698TIP3    H280586   4.611   3.440   4.268 -0.6775 -1.8390 -2.9383
19699TIP3   OH280587   6.682   1.913  16.856  0.0703 -0.4689  0.1843
19699TIP3    H180588   6.678   1.886  16.764 -2.7997 -1.4491  0.4833
19699TIP3    H280589   6.699   1.832  16.904 -2.3279 -0.7589  0.6850
19700TIP3   OH280590   2.775   2.029   1.548 -0.3924 -0.6756 -0.4421
19700TIP3    H180591   2.726   1.959   1.505 -3.0411 -0.2665  1.6424
19700TIP3    H280592   2.726   2.047   1.628  1.3552  2.1448  0.1360
19701TIP3   OH280593   2.840   1.204   2.979 -0.0510 -0.3947  0.1519
19701TIP3    H180594   2.930   1.235   2.982 -0.3182  0.3584  2.6759
19701TIP3    H280595   2.835   1.138   3.048 -0.8928 -2.1562 -1.5051
19702TIP3   OH280596   5.325   5.815  12.071 -0.5169  0.3075 -0.7547
19702TIP3    H180597   5.396   5.870  12.104 -1.0424  0.1751  0.6816
19702TIP3    H280598   5.245   5.857  12.104 -1.2654  1.2793 -3.5141
19703TIP3   OH280599   3.969   5.153  13.068  0.0430  0.3595 -0.3184
19703TIP3    H180600   3.967   5.248  13.068  0.4184  0.3638  0.3377
19703TIP3    H280601   4.035   5.129  13.132  0.1299 -0.3443 -0.6561
19704TIP3   OH280602   2.010   3.177   3.622 -0.0449  0.0883 -0.5869
19704TIP3    H180603   2.084   3.233   3.646  1.0179 -0.7478 -1.7381
19704TIP3    H280604   2.051   3.092   3.603 -1.7449 -1.6698  2.7506
19705TIP3   OH280605   3.495   5.152  16.270 -0.1096 -0.0096  0.1482
19705TIP3    H180606   3.429   5.097  16.228  0.2388  0.5705 -1.2238
19705TIP3    H280607   3.530   5.206  16.199  1.4396  0.1032  0.9456
19706TIP3   OH280608   1.199   4.871   5.021  0.3766 -0.0990  0.0829
19706TIP3    H180609   1.125   4.914   4.979 -0.1812 -1.1766 -0.0821
19706TIP3    H280610   1.212   4.919   5.102 -0.9780 -0.3272  0.4602
19707TIP3   OH280611   0.215   5.790  11.189 -0.1180  0.1588 -0.3574
19707TIP3    H180612   0.190   5.798  11.097 -0.5042 -1.6645 -0.4608
19707TIP3    H280613   0.134   5.765  11.233  0.6529 -2.1352 -0.0879
19708TIP3   OH280614   6.442   4.462   3.381  0.0231 -0.0504  0.1594
19708TIP3    H180615   6.408   4.545   3.414  2.0318  0.8244  0.1657
19708TIP3    H280616   6.458   4.409   3.460  2.2540  1.0108  0.4775
19709TIP3   OH280617   0.639   2.411   4.432  0.1841  0.2176 -0.1087
19709TIP3    H180618   0.664   2.493   4.389  0.7542  0.8380  1.3433
19709TIP3    H280619   0.673   2.343   4.374  0.6940  1.0077 -0.7728
19710TIP3   OH280620   3.352   4.286   6.147 -0.2870  0.0530 -0.2022
19710TIP3    H180621   3.406   4.364   6.135 -0.4836  0.2541  0.1770
19710TIP3    H280622   3.367   4.261   6.239  0.3331 -0.7787 -0.5219
19711TIP3   OH280623   2.401   4.078  14.558  0.0559  0.6313 -0.1790
19711TIP3    H180624   2.314   4.044  14.539 -0.0327  1.3706 -1.1452
19711TIP3    H280625   2.447   4.074  14.474  2.0061 -2.6242  0.8605
19712TIP3   OH280626   4.117   3.455  13.047 -0.0735  0.0571  0.4011
19712TIP3    H180627   4.135   3.365  13.020  0.0197 -0.0032  0.6600
19712TIP3    H280628   4.027   3.452  13.081  0.1271 -0.0598  0.9307
19713TIP3   OH280629   1.839   5.143   3.392 -0.6771  0.5631 -0.0579
19713TIP3    H180630   1.898   5.188   3.453 -0.6390  2.3887 -1.3684
19713TIP3    H280631   1.764   5.118   3.446  0.2190  0.3134  1.1352
19714TIP3   OH280632   3.455   3.221  15.657 -0.2313 -0.0954 -0.2793
19714TIP3    H180633   3.377   3.261  15.618 -1.0362 -2.0107 -0.7604
19714TIP3    H280634   3.428   3.131  15.677  0.8829  0.1187  2.5842
19715TIP3   OH280635   2.316   6.080  12.164  0.5164  0.3138 -0.3855
19715TIP3    H180636   2.253   6.135  12.117 -1.0454 -0.1385  1.0658
19715TIP3    H280637   2.262   6.014  12.207  2.0215 -0.1700  0.8331
19716TIP3   OH280638   1.610   5.219   5.550 -0.3374  0.1164 -0.3208
19716TIP3    H180639   1.663   5.289   5.589  0.3619 -1.7995  2.5341
19716TIP3    H280640   1.674   5.156   5.518 -0.9295  1.1717 -4.0855
19717TIP3   OH280641   2.165   1.533  17.047 -0.5811 -0.0845 -0.1607
19717TIP3    H180642   2.165   1.500  16.957 -4.0334  3.1702 -1.6703
19717TIP3    H280643   2.235   1.598  17.049 -1.7478  1.3082 -1.3403
19718TIP3   OH280644   6.252   6.142   4.930 -0.0416 -0.0293  0.0268
19718TIP3    H180645   6.336   6.096   4.929 -0.4410 -0.7639 -0.5860
19718TIP3    H280646   6.245   6.182   4.843 -0.3117  0.0422  0.0791
19719TIP3   OH280647   4.582   3.491  16.218 -0.1663 -0.2473 -0.0465
19719TIP3    H180648   4.576   3.419  16.155 -0.9546  0.8699 -1.2864
19719TIP3    H280649   4.652   3.464  16.278 -0.0779 -1.7917 -0.7932
19720TIP3   OH280650   3.980   4.279  14.580 -0.0197 -0.0021 -0.2657
19720TIP3    H180651   3.886   4.274  14.563  0.3066  0.8926 -2.6788
19720TIP3    H280652   3.995   4.368  14.612  0.0317 -0.1098  0.0158
19721TIP3   OH280653   5.428   0.516  11.988  0.1014 -0.0648 -0.2627
19721TIP3    H180654   5.339   0.483  12.000  0.5605 -0.8218  1.3037
19721TIP3    H280655   5.420   0.611  11.996 -0.5235 -0.1417  0.0990
19722TIP3   OH280656   6.200   6.581   0.387 -0.0806  0.1119 -0.1741
19722TIP3    H180657   6.124   6.637   0.397  0.1702  0.1558  2.1423
19722TIP3    H280658   6.196   6.521   0.462  2.6057  0.7040  0.5692
19723TIP3   OH280659   2.778   5.569   1.769  0.1265  0.3676  0.3599
19723TIP3    H180660   2.801   5.658   1.743 -1.9645  1.0096  0.5501
19723TIP3    H280661   2.856   5.537   1.816  0.0755  3.0037  2.4696
19724TIP3   OH280662   4.041   5.821   0.385  0.2473  0.1412 -0.2778
19724TIP3    H180663   3.993   5.867   0.455  1.0165  1.5618 -0.6615
19724TIP3    H280664   4.122   5.792   0.427 -1.2742 -3.2535  0.6880
19725TIP3   OH280665   3.805   0.317   4.714  0.2482  0.5517 -0.3177
19725TIP3    H180666   3.783   0.382   4.781 -0.1493 -0.3948  0.4965
19725TIP3    H280667   3.743   0.245   4.729 -0.2828  0.5948 -2.1372
19726TIP3   OH280668   0.114   6.625   4.813 -0.4673  0.1747  0.0809
19726TIP3    H180669   0.032   6.574   4.814 -0.2320 -0.2031  0.4793
19726TIP3    H280670   0.169   6.580   4.749 -0.4965  0.3131 -0.0426
19727TIP3   OH280671   4.171   2.373  13.150 -0.1505  0.5090  0.1566
19727TIP3    H180672   4.150   2.389  13.058 -1.3105  0.0966  0.3231
19727TIP3    H280673   4.119   2.438  13.198  0.4983  0.7655  0.5199
19728TIP3   OH280674   0.603   3.698  16.563  0.0367  0.3839  0.0653
19728TIP3    H180675   0.591   3.734  16.475  0.5200 -3.1186 -1.5825
19728TIP3    H280676   0.697   3.684  16.571  0.0126  0.7278  1.2196
19729TIP3   OH280677   4.930   0.608   5.898  0.2275  0.0936 -0.2093
19729TIP3    H180678   4.931   0.524   5.944  1.0373 -0.6801 -1.5613
19729TIP3    H280679   4.968   0.670   5.960  1.2278 -0.8888  0.1874
19730TIP3   OH280680   0.913   5.173   4.422  0.0212 -0.4178 -0.5002
19730TIP3    H180681   0.909   5.130   4.507 -1.6374 -1.8251 -1.2264
19730TIP3    H280682   1.005   5.169   4.398  0.3500 -0.9979  0.7342
19731TIP3   OH280683   3.757   6.745  12.350  0.1620  0.3029  0.0003
19731TIP3    H180684   3.850   6.747  12.372 -0.0303  1.8356  0.7838
19731TIP3    H280685   3.740   6.832  12.313 -1.0292  0.1599  0.1956
19732TIP3   OH280686   3.231   5.642  16.302 -0.4291  0.4334 -0.3881
19732TIP3    H180687   3.301   5.708  16.301 -0.8593  0.8860 -1.1391
19732TIP3    H280688   3.272   5.564  16.265 -0.0665  0.4348  0.0087
19733TIP3   OH280689   2.528   2.734  13.417 -0.3406 -0.0769 -0.1688
19733TIP3    H180690   2.455   2.673  13.418 -0.6086  0.2308 -0.4662
19733TIP3    H280691   2.541   2.754  13.324  0.4319 -0.4966 -0.1602
19734TIP3   OH280692   4.512   2.764   1.435  0.3171 -0.7303  0.4229
19734TIP3    H180693   4.597   2.809   1.427 -0.3515  0.4505 -0.3826
19734TIP3    H280694   4.531   2.687   1.489  2.0796 -0.9594 -0.4357
19735TIP3   OH280695   1.091   6.067  12.082  0.1791 -0.4192  0.1639
19735TIP3    H180696   1.047   6.111  12.009 -0.6303 -0.0150  0.8787
19735TIP3    H280697   1.162   6.018  12.041 -0.5281 -0.5529 -0.9488
19736TIP3   OH280698   1.193   2.610   6.303  0.0739  0.3172  0.2041
19736TIP3    H180699   1.232   2.643   6.384  0.9998 -3.0941  1.2993
19736TIP3    H280700   1.267   2.593   6.245 -0.5483  2.1661 -1.2634
19737TIP3   OH280701   2.819   0.795   1.014  0.2624 -0.5703 -0.5004
19737TIP3    H180702   2.728   0.788   0.984 -0.0961 -3.1975  0.8710
19737TIP3    H280703   2.841   0.707   1.043  3.6750 -0.3178 -1.8357
19738TIP3   OH280704   1.507   4.967   5.053  0.3540  0.2780 -0.4476
19738TIP3    H180705   1.459   5.032   5.002  0.4278  0.1203 -0.7203
19738TIP3    H280706   1.475   4.883   5.020  1.4810  0.1542 -1.2885
19739TIP3   OH280707   3.521   5.955  15.601  0.2362 -0.5187  0.5804
19739TIP3    H180708   3.487   6.036  15.637 -0.9976 -1.6139  2.0013
19739TIP3    H280709   3.585   5.983  15.536  0.0276  1.5693  1.1991
19740TIP3   OH280710   2.561   0.106   2.392 -0.3565  0.1900 -0.2532
19740TIP3    H180711   2.487   0.085   2.334  0.3480  1.1480 -1.5510
19740TIP3    H280712   2.554   0.200   2.407  1.6489  0.7006 -2.0185
19741TIP3   OH280713   6.240   1.143  16.994 -0.2958 -0.3999 -0.5630
19741TIP3    H180714   6.247   1.142  17.090  0.1027  1.3092 -0.5329
19741TIP3    H280715   6.150   1.171  16.977 -0.1123  0.1418 -0.6650
19742TIP3   OH280716   1.190   0.349   1.491  0.0854  0.2490 -0.4926
19742TIP3    H180717   1.213   0.258   1.470 -0.8206 -0.0066 -0.4179
19742TIP3    H280718   1.115   0.342   1.549 -2.1636  1.0472 -3.1026
19743TIP3   OH280719   5.535   1.963   4.937 -0.5852 -0.4611  0.0912
19743TIP3    H180720   5.616   1.940   4.984  0.0687 -0.5927 -1.0606
19743TIP3    H280721   5.524   1.892   4.873 -1.1899 -0.0409 -0.2710
19744TIP3   OH280722   2.522   6.395   1.949  0.4010 -0.1342  0.0128
19744TIP3    H180723   2.541   6.488   1.956 -0.9090  0.2527 -1.1090
19744TIP3    H280724   2.605   6.352   1.966  0.7819  1.1773  1.7585
19745TIP3   OH280725   0.548   4.312  15.846 -0.4541 -0.7705 -0.8506
19745TIP3    H180726   0.544   4.279  15.936 -0.6283 -1.6802 -1.1780
19745TIP3    H280727   0.626   4.271  15.809  0.5730  0.9077 -0.6287
19746TIP3   OH280728   4.972   4.996   1.404 -0.8825  0.2907  0.3769
19746TIP3    H180729   4.940   5.047   1.331 -0.0081 -1.3913 -1.2788
19746TIP3    H280730   4.900   4.938   1.427 -0.4339 -0.7288 -0.6900
19747TIP3   OH280731   3.789   5.893   3.345 -0.2908 -0.0024 -0.2505
19747TIP3    H180732   3.869   5.895   3.397  0.3365 -1.2174 -1.1077
19747TIP3    H280733   3.744   5.813   3.372 -0.7881  0.2272 -0.3825
19748TIP3   OH280734   0.700   1.819   1.104  0.7074  0.2073 -0.0396
19748TIP3    H180735   0.682   1.864   1.021  0.6439 -1.0580 -0.7332
19748TIP3    H280736   0.616   1.780   1.129  0.9392 -0.1817  0.1433
19749TIP3   OH280737   4.927   1.975  15.826 -0.4831  0.5056 -0.1670
19749TIP3    H180738   4.887   2.018  15.901 -0.6557 -0.0989  0.0877
19749TIP3    H280739   4.968   1.896  15.862  2.6265  2.0027 -0.0362
19750TIP3   OH280740   4.177   2.278   1.525  0.2191 -0.5168  0.0195
19750TIP3    H180741   4.186   2.248   1.435 -2.3639  0.9807 -0.8332
19750TIP3    H280742   4.099   2.332   1.525  2.0172  2.4403  2.4159
19751TIP3   OH280743   1.610   3.125   5.141  0.5444  0.1026 -0.0739
19751TIP3    H180744   1.660   3.204   5.121  0.1877  0.7275  1.3397
19751TIP3    H280745   1.533   3.129   5.084  1.1520  0.1070 -0.9073
19752TIP3   OH280746   0.613   1.039   1.639 -0.1130  0.1424  0.3805
19752TIP3    H180747   0.667   0.961   1.634 -2.9151 -1.9790  1.0306
19752TIP3    H280748   0.639   1.081   1.722  0.6615 -0.6727  0.5675
19753TIP3   OH280749   6.439   1.471   5.374 -0.7807  0.3382  0.7176
19753TIP3    H180750   6.415   1.419   5.297  1.0923 -0.2991  0.5172
19753TIP3    H280751   6.428   1.410   5.447  0.5064 -0.0712  0.5858
19754TIP3   OH280752   4.611   6.493   0.807 -0.0670  0.0529  0.5773
19754TIP3    H180753   4.596   6.426   0.740 -2.7124  1.8025 -0.7717
19754TIP3    H280754   4.590   6.449   0.890 -1.7922 -0.8298 -0.2745
19755TIP3   OH280755   2.966   3.230   4.869  0.1070 -0.1345  0.1256
19755TIP3    H180756   2.996   3.146   4.835  0.5887 -0.2922  0.9117
19755TIP3    H280757   2.892   3.209   4.925 -0.3712  0.0732 -0.4137
19756TIP3   OH280758   1.407   4.748   0.960  0.3231  0.5407  0.0261
19756TIP3    H180759   1.366   4.686   1.020  0.2822 -0.4248 -0.9783
19756TIP3    H280760   1.438   4.819   1.017 -1.3424  0.5580  0.9775
19757TIP3   OH280761   2.211   3.102   4.999 -0.8528  0.1123  0.0404
19757TIP3    H180762   2.221   3.136   4.910 -0.6489  1.9937  0.7453
19757TIP3    H280763   2.254   3.167   5.055 -0.5285 -1.2757  1.4921
19758TIP3   OH280764   0.457   0.897   0.851  0.3823  0.4103  0.7080
19758TIP3    H180765   0.443   0.925   0.761 -1.5726 -0.2293  0.7708
19758TIP3    H280766   0.548   0.921   0.870  1.1960 -0.4249 -1.7723
19759TIP3   OH280767   3.618   2.093   0.950 -0.6867 -0.4857  0.5392
19759TIP3    H180768   3.677   2.146   0.897 -1.1331 -0.0467  0.4864
19759TIP3    H280769   3.539   2.083   0.897 -0.5798 -1.2725  0.5127
19760TIP3   OH280770   3.187   4.856  14.823 -0.0506  0.0224 -0.1205
19760TIP3    H180771   3.154   4.885  14.738 -1.0060 -1.3471 -0.2417
19760TIP3    H280772   3.151   4.918  14.886  0.2691  0.7615 -0.6590
19761TIP3   OH280773   2.901   1.706  11.070  0.2349 -0.8278  0.0725
19761TIP3    H180774   2.838   1.768  11.031 -1.1801 -1.1569  1.7117
19761TIP3    H280775   2.932   1.750  11.149  0.6910 -1.4073  0.2189
19762TIP3   OH280776   1.303   4.377   5.290  0.0984 -0.0984  0.3033
19762TIP3    H180777   1.316   4.348   5.200  1.2753  0.5185  0.2574
19762TIP3    H280778   1.208   4.371   5.304  0.1306 -2.4730 -0.1758
19763TIP3   OH280779   1.615   5.445   0.452 -0.3808 -0.1890  0.4367
19763TIP3    H180780   1.611   5.395   0.534 -0.8099  0.6882  0.9665
19763TIP3    H280781   1.570   5.390   0.388 -0.5158 -0.6455  0.9202
19764TIP3   OH280782   6.718   2.788  14.591  0.3278 -0.5700 -0.2771
19764TIP3    H180783   6.789   2.848  14.569  0.5181  0.3724  2.5699
19764TIP3    H280784   6.700   2.803  14.684 -0.7341 -3.7771  0.1886
19765TIP3   OH280785   2.570   3.487   0.671  0.9323 -0.0335 -0.2707
19765TIP3    H180786   2.593   3.395   0.685 -0.5220 -0.1835  1.4443
19765TIP3    H280787   2.478   3.486   0.646  0.8313  0.9664 -0.0018
19766TIP3   OH280788   0.385   5.535   3.924  0.2566 -0.1467  0.6105
19766TIP3    H180789   0.410   5.470   3.858  0.1343  0.5052 -0.0953
19766TIP3    H280790   0.292   5.549   3.910  0.4967  0.9872  0.0008
19767TIP3   OH280791   3.400   3.025   0.379  0.3627  0.0178  0.7829
19767TIP3    H180792   3.426   3.109   0.417  0.7252 -0.0912  0.7782
19767TIP3    H280793   3.309   3.037   0.355  0.8243  0.9029 -0.5924
19768TIP3   OH280794   4.434   2.270  11.159  0.0771  0.4225  0.2339
19768TIP3    H180795   4.436   2.351  11.107  0.7928  0.0831 -0.2779
19768TIP3    H280796   4.371   2.288  11.228 -0.9339  0.8708 -0.7760
19769TIP3   OH280797   1.950   1.431   0.790 -0.2247 -0.0525  0.1876
19769TIP3    H180798   2.021   1.397   0.845  0.2631  1.8931  0.8467
19769TIP3    H280799   1.874   1.431   0.848 -0.0770  0.5339  0.3880
19770TIP3   OH280800   6.391   5.899   3.324  0.3051  0.3180 -0.0756
19770TIP3    H180801   6.339   5.820   3.339  0.7031  0.0608 -0.0369
19770TIP3    H280802   6.414   5.895   3.231  2.1397 -0.7511  0.3584
19771TIP3   OH280803   3.590   5.517  11.126 -0.0554  0.5429 -0.4070
19771TIP3    H180804   3.501   5.505  11.159 -0.0407  2.8782  0.7097
19771TIP3    H280805   3.583   5.591  11.065  1.0159  0.2974 -0.8521
19772TIP3   OH280806   6.377   2.840   2.958 -0.0366  0.0431  0.3606
19772TIP3    H180807   6.378   2.754   2.917  1.2952  1.3487 -2.6403
19772TIP3    H280808   6.335   2.826   3.043 -1.2261 -3.2415 -0.6318
19773TIP3   OH280809   0.053   3.670   2.109  0.1309 -0.0116 -0.4868
19773TIP3    H180810   0.143   3.689   2.137  0.3204 -1.6590  0.1645
19773TIP3    H280811  -0.002   3.708   2.177  0.3638  0.3084 -0.4745
19774TIP3   OH280812   5.024   3.729   1.524  0.6564 -0.2310  0.0486
19774TIP3    H180813   5.022   3.792   1.452 -1.6858 -0.6317 -0.3234
19774TIP3    H280814   5.116   3.726   1.551  1.0872  2.2130 -0.8798
19775TIP3   OH280815   1.942   4.124  12.021 -0.1544 -0.5687 -0.0490
19775TIP3    H180816   1.924   4.132  12.115 -1.5968 -1.5939 -0.1855
19775TIP3    H280817   2.032   4.094  12.016  0.6126  1.4167  0.8984
19776TIP3   OH280818   3.987   2.851  14.915  0.7348  0.2785 -0.5071
19776TIP3    H180819   3.902   2.830  14.875  0.1605  0.9292  0.3159
19776TIP3    H280820   4.051   2.808  14.859 -0.1701 -0.7107 -0.8285
19777TIP3   OH280821   3.692   5.343   4.652 -0.0047  0.7569  0.3120
19777TIP3    H180822   3.654   5.362   4.738  2.0013 -0.7347  1.6228
19777TIP3    H280823   3.699   5.247   4.649 -0.1900  0.7648 -1.6025
19778TIP3   OH280824   4.095   3.202   1.688 -0.8558  0.1953 -0.2853
19778TIP3    H180825   4.009   3.161   1.696 -1.0663  0.8429  0.8193
19778TIP3    H280826   4.132   3.163   1.608 -1.5000 -1.3093  0.1194
19779TIP3   OH280827   1.073   5.406  11.899  0.2436  0.2473  0.6981
19779TIP3    H180828   1.154   5.403  11.849 -1.2080 -4.0681 -1.9092
19779TIP3    H280829   1.006   5.432  11.836 -0.7784  1.4171  2.1967
19780TIP3   OH280830   2.007   5.655  12.265  0.5413 -0.0997  0.4200
19780TIP3    H180831   1.961   5.729  12.225  0.9785  0.9519  1.7652
19780TIP3    H280832   2.022   5.594  12.193  0.6598  1.3715 -0.8659
19781TIP3   OH280833   3.435   3.088  14.914  0.2727 -0.3346  0.5837
19781TIP3    H180834   3.529   3.075  14.899  0.3915  1.2788 -0.3484
19781TIP3    H280835   3.394   3.011  14.877  1.1489 -0.3050 -0.5131
19782TIP3   OH280836   0.619   3.719   3.471  0.2665 -0.3930  0.6109
19782TIP3    H180837   0.665   3.646   3.513  0.2817 -0.3286  0.7071
19782TIP3    H280838   0.531   3.717   3.509 -0.0695 -1.0161 -0.1676
19783TIP3   OH280839   1.583   1.630  16.424 -0.2103 -0.3280 -0.0693
19783TIP3    H180840   1.640   1.658  16.352  1.0856  0.1246  1.0809
19783TIP3    H280841   1.560   1.712  16.468 -2.2408 -0.4473 -0.8187
19784TIP3   OH280842   0.487   1.529   1.228  0.2289  0.0773 -0.0211
19784TIP3    H180843   0.453   1.606   1.183 -0.0917  1.9361  3.1462
19784TIP3    H280844   0.517   1.561   1.313  1.5740 -3.0514  0.8354
19785TIP3   OH280845   6.535   3.700  14.398  0.1573 -0.7005 -0.0906
19785TIP3    H180846   6.486   3.776  14.430  0.3174  0.7374 -2.8554
19785TIP3    H280847   6.627   3.722  14.416  0.3514  0.6746 -2.3082
19786TIP3   OH280848   1.785   0.059  16.267 -0.1486 -0.4768 -0.7448
19786TIP3    H180849   1.836   0.097  16.339 -0.5252  0.5461 -1.0050
19786TIP3    H280850   1.739  -0.015  16.307  0.0844 -0.2623 -0.0681
19787TIP3   OH280851   3.590   3.352  16.893 -0.7004 -0.5978 -0.3408
19787TIP3    H180852   3.636   3.345  16.977 -0.6893  0.0162 -0.2928
19787TIP3    H280853   3.521   3.416  16.909 -1.8294 -1.7608 -0.3066
19788TIP3   OH280854   3.804   0.439  12.172 -0.1033 -0.3471 -0.0230
19788TIP3    H180855   3.863   0.409  12.241  0.2254  0.2052 -0.0563
19788TIP3    H280856   3.770   0.522  12.204  0.1884  0.0029 -0.5975
19789TIP3   OH280857   1.116   1.340   5.334  0.1820  0.0035 -0.2646
19789TIP3    H180858   1.093   1.430   5.357  0.7284  0.2760 -0.7484
19789TIP3    H280859   1.051   1.286   5.379 -0.5039  0.6687 -0.4333
19790TIP3   OH280860   4.070   6.341   5.581  0.6015  0.0367 -0.3503
19790TIP3    H180861   4.080   6.295   5.665  0.6641  1.5215  0.5001
19790TIP3    H280862   3.982   6.318   5.552  0.4596 -0.2593  0.2808
19791TIP3   OH280863   1.074   5.464  14.824  0.1430 -0.1083  0.3012
19791TIP3    H180864   1.065   5.492  14.733 -2.3934 -0.6934  0.2923
19791TIP3    H280865   1.144   5.399  14.822  0.7133  0.5043 -1.0765
19792TIP3   OH280866   1.958   5.375   0.034  0.6990  0.2100 -0.2197
19792TIP3    H180867   1.924   5.286   0.045 -0.8536  0.7682 -0.2429
19792TIP3    H280868   1.883   5.426   0.004  1.1817  1.8638  1.2224
19793TIP3   OH280869   5.600   0.029  11.405  0.2924  0.5199 -0.1139
19793TIP3    H180870   5.685   0.005  11.368  1.2367  1.1933  1.4931
19793TIP3    H280871   5.547   0.055  11.330  1.3210 -0.4033 -1.2005
19794TIP3   OH280872   6.354   5.371   1.560  0.3660 -0.4936  0.0427
19794TIP3    H180873   6.265   5.338   1.572 -0.6869  2.3992  0.9056
19794TIP3    H280874   6.409   5.292   1.564 -2.0715 -2.3156 -0.0526
19795TIP3   OH280875   3.168   6.410   0.340 -0.8123 -0.0079  0.3583
19795TIP3    H180876   3.237   6.370   0.287 -1.6467  1.3825 -1.9251
19795TIP3    H280877   3.093   6.351   0.329 -1.1891  0.6307 -0.6386
19796TIP3   OH280878   5.830   4.522   3.352 -0.2881  0.5702  0.1233
19796TIP3    H180879   5.745   4.533   3.394 -0.0039  0.2960  0.7953
19796TIP3    H280880   5.869   4.447   3.397  0.2335  0.5782 -0.3047
19797TIP3   OH280881   2.298   5.540   3.311  0.4025 -0.1513 -0.1014
19797TIP3    H180882   2.323   5.527   3.220  1.4149  0.0207  0.1401
19797TIP3    H280883   2.225   5.602   3.307  0.2946 -0.3141 -0.8014
19798TIP3   OH280884   2.521   0.882   5.858  0.3268 -0.0623  0.1150
19798TIP3    H180885   2.510   0.964   5.905  1.7868 -1.0737  2.3490
19798TIP3    H280886   2.497   0.814   5.921  1.9165 -1.4776 -0.7123
19799TIP3   OH280887   6.191   6.773   4.135  0.0272 -0.3076 -0.0202
19799TIP3    H180888   6.241   6.698   4.168 -0.9273 -0.7306  0.4997
19799TIP3    H280889   6.216   6.845   4.194  0.0320 -0.5148  0.2351
19800TIP3   OH280890   0.007   4.263   3.838 -0.0345 -0.3228 -0.1612
19800TIP3    H180891  -0.004   4.355   3.815  1.7599 -0.3471 -1.2852
19800TIP3    H280892   0.086   4.261   3.893 -2.1522 -0.7531  3.1326
19801TIP3   OH280893   2.673   0.126   5.748 -0.0548  0.0107 -0.2069
19801TIP3    H180894   2.752   0.179   5.754  0.1985 -0.3646 -0.1963
19801TIP3    H280895   2.601   0.188   5.758  0.2178  0.4802 -1.0444
19802TIP3   OH280896   4.367   1.952   0.407 -0.4778  0.3456 -0.3064
19802TIP3    H180897   4.383   1.929   0.499  0.7973  0.0370 -0.5752
19802TIP3    H280898   4.300   1.890   0.378 -1.6349  1.1118  0.6831
19803TIP3   OH280899   3.676   6.385  13.503  0.4653 -0.3155  0.0636
19803TIP3    H180900   3.757   6.435  13.492  0.3797 -0.5635 -2.1349
19803TIP3    H280901   3.625   6.434  13.567  2.3689 -0.2025  1.5497
19804TIP3   OH280902   0.721   0.921   0.944  0.0716  0.2461  0.6995
19804TIP3    H180903   0.728   0.948   1.036 -0.9682  1.4512  0.4525
19804TIP3    H280904   0.692   0.830   0.948  0.9658 -0.0175  1.5552
19805TIP3   OH280905   0.093   4.354  11.503  0.2893  0.5829 -0.0071
19805TIP3    H180906   0.046   4.286  11.551  0.7980 -0.5126 -1.0063
19805TIP3    H280907   0.097   4.429  11.563  0.3841 -0.5269  1.3990
19806TIP3   OH280908   4.573   2.779   5.592 -0.0345  0.1595  0.1188
19806TIP3    H180909   4.666   2.768   5.571  0.7090 -0.1110  3.1824
19806TIP3    H280910   4.538   2.690   5.592  0.4827 -0.0710  2.0194
19807TIP3   OH280911   2.507   5.261  16.551  0.2633  0.6569 -0.1736
19807TIP3    H180912   2.544   5.308  16.626  0.7286  1.9877 -1.1934
19807TIP3    H280913   2.470   5.330  16.495  0.1728 -0.2714 -1.3036
19808TIP3   OH280914   0.331   4.457  15.762  0.3721 -0.6276 -0.3490
19808TIP3    H180915   0.409   4.403  15.759 -0.0247 -1.1744 -1.0594
19808TIP3    H280916   0.348   4.519  15.833  0.3427 -2.4107  1.3010
19809TIP3   OH280917   0.056   3.372  15.507  0.1032 -0.3688 -0.3543
19809TIP3    H180918   0.066   3.441  15.573  0.8537 -0.4088 -0.4135
19809TIP3    H280919  -0.011   3.405  15.447 -0.0385  0.0005  0.0017
19810TIP3   OH280920   5.065   2.363   4.983 -0.0750  0.4272  0.2508
19810TIP3    H180921   5.053   2.454   5.011 -2.2721  0.6005 -1.0916
19810TIP3    H280922   5.080   2.316   5.065  0.4189  1.8591  1.0374
19811TIP3   OH280923   4.783   0.305   3.122 -0.2861 -0.0627 -0.4715
19811TIP3    H180924   4.863   0.309   3.174 -0.0097  0.1069 -0.9020
19811TIP3    H280925   4.735   0.384   3.147  0.1203  0.3324 -0.9003
19812TIP3   OH280926   0.403   0.790  12.093  0.2892 -0.0285 -0.4517
19812TIP3    H180927   0.445   0.849  12.156  0.9368  0.7068 -1.5312
19812TIP3    H280928   0.319   0.768  12.132  1.0292 -0.2905  1.0651
19813TIP3   OH280929   4.685   6.053  12.060  0.3559  0.4405 -0.4017
19813TIP3    H180930   4.701   6.005  11.978  1.6811  2.1035 -1.1837
19813TIP3    H280931   4.756   6.026  12.118 -0.0596 -0.0585 -0.1271
19814TIP3   OH280932   5.970   4.972  15.073  0.0148  0.0786  0.4479
19814TIP3    H180933   5.916   5.047  15.047  0.4613  0.1376 -0.3525
19814TIP3    H280934   6.055   4.988  15.032  0.6883  0.0437  1.7768
19815TIP3   OH280935   6.205   6.546   1.282 -0.7252 -0.1824  0.5559
19815TIP3    H180936   6.277   6.591   1.237  0.8445 -2.0694  1.0320
19815TIP3    H280937   6.172   6.483   1.218 -1.2751 -0.0350  0.6882
19816TIP3   OH280938   1.926   0.626   4.879  0.0339 -0.1408  0.8458
19816TIP3    H180939   1.932   0.719   4.897 -3.2711  0.6215 -1.2209
19816TIP3    H280940   1.833   0.606   4.884  0.1537 -2.4193 -2.5295
19817TIP3   OH280941   5.228   2.066  10.480  0.4752 -0.5245  0.5299
19817TIP3    H180942   5.264   1.996  10.425 -0.2797 -2.3629  2.2751
19817TIP3    H280943   5.305   2.117  10.506  1.2021 -1.4300  0.2085
19818TIP3   OH280944   0.301   6.522  13.757  0.1279 -0.1023  0.2859
19818TIP3    H180945   0.354   6.479  13.823  0.2125  0.9839  0.9462
19818TIP3    H280946   0.351   6.513  13.676 -0.2068 -1.8675  0.2446
19819TIP3   OH280947   2.826   2.571   0.563 -0.2328  0.9426 -0.1087
19819TIP3    H180948   2.777   2.628   0.503  3.4952  0.6393 -3.9566
19819TIP3    H280949   2.786   2.484   0.551 -0.4851  1.1760 -1.0831
19820TIP3   OH280950   4.656   3.581  13.465  0.6703  0.3376 -0.4504
19820TIP3    H180951   4.578   3.636  13.456  0.8502  0.7494  0.3770
19820TIP3    H280952   4.629   3.496  13.430 -0.9182 -0.1945  1.8533
19821TIP3   OH280953   6.685   4.347  10.634  0.4187  0.1592  0.2781
19821TIP3    H180954   6.607   4.377  10.681 -0.0154 -1.4232  0.6034
19821TIP3    H280955   6.745   4.421  10.640 -1.2078  1.6311 -0.4172
19822TIP3   OH280956   3.445   5.429  13.259 -0.2264 -0.5766 -0.4720
19822TIP3    H180957   3.466   5.513  13.219 -0.1754 -1.7662 -3.1682
19822TIP3    H280958   3.458   5.443  13.352 -0.5388  2.4690 -0.7878
19823TIP3   OH280959   1.306   4.014   1.754 -0.1497 -0.0247 -0.3282
19823TIP3    H180960   1.284   4.054   1.837  1.2434  0.5173 -0.1849
19823TIP3    H280961   1.267   3.926   1.758 -0.5054  0.1667  0.6811
19824TIP3   OH280962   6.686   2.866  10.566 -0.2974 -0.0585  0.0529
19824TIP3    H180963   6.639   2.900  10.643  0.4048 -0.4591  0.6789
19824TIP3    H280964   6.637   2.787  10.541  0.7209 -1.1972  1.4822
19825TIP3   OH280965   5.190   5.803   4.337 -0.5493 -0.7658 -0.0006
19825TIP3    H180966   5.173   5.876   4.398 -0.5083 -0.7912  0.0411
19825TIP3    H280967   5.204   5.728   4.394  3.3980 -0.0751  0.1759
19826TIP3   OH280968   4.913   3.083   1.605 -0.1051 -0.3208 -0.1470
19826TIP3    H180969   4.993   3.083   1.657 -0.9210 -1.1200  1.1639
19826TIP3    H280970   4.943   3.082   1.514  1.4159  3.5336  0.1190
19827TIP3   OH280971   2.408   1.898   3.024 -0.1302 -0.5584 -0.1649
19827TIP3    H180972   2.477   1.947   2.980 -0.2897 -0.1554  0.0308
19827TIP3    H280973   2.401   1.817   2.974 -0.1295 -0.2170 -0.7272
19828TIP3   OH280974   4.271   0.077  15.984 -0.8305  0.5296 -0.4190
19828TIP3    H180975   4.329   0.002  15.976 -1.2069  0.2609 -0.6334
19828TIP3    H280976   4.280   0.105  16.075 -1.0126 -0.0309 -0.2296
19829TIP3   OH280977   6.435   3.938   2.225  0.2751  0.2112 -0.1078
19829TIP3    H180978   6.484   4.008   2.182  0.7305 -0.2796 -0.4079
19829TIP3    H280979   6.351   3.978   2.249  0.8606  1.0891  0.5065
19830TIP3   OH280980   0.968   4.007   4.682 -0.0052 -0.3784  0.4433
19830TIP3    H180981   1.049   3.982   4.637 -0.3783 -2.0817  0.6271
19830TIP3    H280982   0.949   4.096   4.652  1.2295 -0.4526 -0.6093
19831TIP3   OH280983   5.756   0.128  12.816 -0.3662 -0.2665  0.0677
19831TIP3    H180984   5.667   0.130  12.781  0.0335  0.5198 -0.9666
19831TIP3    H280985   5.768   0.037  12.845 -1.8127 -0.1559  1.1198
19832TIP3   OH280986   5.436   4.204  15.526  0.1378  0.3263 -0.3597
19832TIP3    H180987   5.394   4.165  15.450 -4.1862  1.6705  1.0597
19832TIP3    H280988   5.453   4.130  15.585 -1.4464 -0.2234 -0.5442
19833TIP3   OH280989   1.528   2.712   0.243  0.4420 -0.0824  0.0731
19833TIP3    H180990   1.435   2.726   0.264  0.2767 -0.2183 -0.5518
19833TIP3    H280991   1.557   2.647   0.308  0.0414 -0.2125  0.1303
19834TIP3   OH280992   3.024   2.674   5.888  0.0645  0.0500  0.2128
19834TIP3    H180993   3.071   2.672   5.971  0.3513  0.0519  0.0509
19834TIP3    H280994   3.073   2.736   5.833  1.3824 -1.7947 -0.8343
19835TIP3   OH280995   0.355   6.715  14.148  0.2928 -0.4573  0.2005
19835TIP3    H180996   0.277   6.674  14.185 -0.2364 -0.7395 -1.1648
19835TIP3    H280997   0.408   6.739  14.224 -0.7224 -1.0422  1.1209
19836TIP3   OH280998   0.684   3.262  17.026  0.3854  0.2376 -0.1124
19836TIP3    H180999   0.650   3.343  16.987  2.0432 -0.0311 -2.2840
19836TIP3    H281000   0.750   3.292  17.089  0.7202  0.5876 -0.6255
19837TIP3   OH281001   4.703   1.116   2.242  0.1361  0.2222 -0.7070
19837TIP3    H181002   4.780   1.096   2.188  0.2469 -0.3004 -0.3674
19837TIP3    H281003   4.697   1.041   2.302 -0.4837  0.3902 -0.5610
19838TIP3   OH281004   2.929   4.034  10.348  1.4811  0.1139 -0.2127
19838TIP3    H181005   2.886   4.111  10.309  1.6946  0.2082 -0.2619
19838TIP3    H281006   2.887   3.960  10.305  0.6065  0.1688  0.5107
19839TIP3   OH281007   0.169   6.245  16.895  0.0548  0.2308 -0.0171
19839TIP3    H181008   0.251   6.233  16.847  0.6160  1.8356  0.4895
19839TIP3    H281009   0.195   6.289  16.976 -1.2121  0.0160  0.5318
19840TIP3   OH281010   5.546   5.506   2.713  0.7056  0.4730  0.4700
19840TIP3    H181011   5.579   5.587   2.751 -0.2098  1.7024 -1.2486
19840TIP3    H281012   5.503   5.461   2.786  0.2115  2.0924  1.2269
19841TIP3   OH281013   5.885   6.672   0.859  0.1528  0.3545  0.1414
19841TIP3    H181014   5.968   6.666   0.812  0.3983  1.9540  0.3336
19841TIP3    H281015   5.826   6.716   0.799 -1.3139 -2.7098 -0.8964
19842TIP3   OH281016   3.588   3.998   4.967 -0.5659 -0.3478  0.1722
19842TIP3    H181017   3.605   3.914   4.924 -1.1154 -0.3725  0.0020
19842TIP3    H281018   3.594   4.063   4.897  1.0089 -0.0942  0.4947
19843TIP3   OH281019   1.712   4.359  12.979 -0.3626 -0.3379 -0.0020
19843TIP3    H181020   1.670   4.403  13.053 -2.5502 -2.2524  0.0131
19843TIP3    H281021   1.771   4.296  13.019  2.2281  1.8627 -0.0263
19844TIP3   OH281022   2.044   4.260  14.559 -0.6030  0.0970  0.3238
19844TIP3    H181023   2.068   4.168  14.568 -1.4479 -0.2184 -0.4476
19844TIP3    H281024   2.126   4.307  14.571  0.0025 -0.8090 -0.0908
19845TIP3   OH281025   3.846   6.777   3.970  0.0131 -0.2470  0.0530
19845TIP3    H181026   3.893   6.779   3.887 -0.6872 -3.7452 -0.5902
19845TIP3    H281027   3.760   6.815   3.950  0.2123 -0.1179 -0.5689
19846TIP3   OH281028   5.132   6.066   3.716  0.1045 -0.4725 -0.2057
19846TIP3    H181029   5.202   6.033   3.659 -0.5214 -1.0595 -0.6479
19846TIP3    H281030   5.166   6.150   3.748  1.7593 -1.5243  0.9885
19847TIP3   OH281031   6.726   3.367   0.788  0.0610 -0.5048  0.4801
19847TIP3    H181032   6.763   3.439   0.839  1.1471 -0.2682 -0.5945
19847TIP3    H281033   6.632   3.382   0.791  0.2347  0.6436  0.7269
19848TIP3   OH281034   4.325   6.822   4.787 -0.2690  0.3242  0.5744
19848TIP3    H181035   4.390   6.839   4.718 -0.4497 -0.9928  0.0466
19848TIP3    H281036   4.320   6.904   4.836 -1.2392  1.8314 -1.8610
19849TIP3   OH281037   5.270   4.464  14.580 -0.0878 -0.3340 -0.3911
19849TIP3    H181038   5.247   4.494  14.492 -0.6979  0.6499  0.0960
19849TIP3    H281039   5.203   4.399  14.601 -1.2516  0.9981  0.1844
19850TIP3   OH281040   1.532   2.546  12.813  0.5480  0.7181 -0.6947
19850TIP3    H181041   1.542   2.520  12.722 -0.1014  0.5415 -0.7223
19850TIP3    H281042   1.571   2.633  12.817 -0.5126  1.2467 -1.4272
19851TIP3   OH281043   5.458   4.216   4.725  0.1285 -0.6685 -0.2024
19851TIP3    H181044   5.431   4.275   4.655 -0.1397 -1.7742 -1.0654
19851TIP3    H281045   5.415   4.250   4.803 -0.7798 -0.2737 -0.8614
19852TIP3   OH281046   4.782   1.224   3.248  0.1079 -0.1340  0.3713
19852TIP3    H181047   4.820   1.195   3.331 -1.8858 -0.8100  1.1160
19852TIP3    H281048   4.701   1.269   3.274  0.2494  1.0499 -1.1283
19853TIP3   OH281049   5.477   2.865   5.725 -0.3649  0.4900 -0.0661
19853TIP3    H181050   5.435   2.781   5.710  1.6399 -0.3563 -1.3424
19853TIP3    H281051   5.476   2.876   5.820 -0.5459 -1.0362  0.1264
19854TIP3   OH281052   0.491   5.190   5.494  0.3103  0.2909 -0.9418
19854TIP3    H181053   0.545   5.154   5.424 -1.6668  0.2899 -2.5276
19854TIP3    H281054   0.423   5.125   5.508 -1.4895  1.9190 -1.6713
19855TIP3   OH281055   3.471   4.213   2.161 -0.1866  0.1241  0.3323
19855TIP3    H181056   3.511   4.160   2.092  1.0275  1.7185 -0.2513
19855TIP3    H281057   3.378   4.218   2.136 -0.2602 -1.3437  0.1941
19856TIP3   OH281058   5.873   6.023   5.234  0.0182  0.0185  0.4612
19856TIP3    H181059   5.948   5.967   5.214 -0.7764 -1.7753  2.1089
19856TIP3    H281060   5.852   6.066   5.151  1.9533 -0.5448 -0.3712
19857TIP3   OH281061   1.569   4.210   5.743 -0.1849  0.3972 -0.0624
19857TIP3    H181062   1.640   4.256   5.787 -0.7054 -0.2965  1.5941
19857TIP3    H281063   1.598   4.119   5.742 -0.8350  0.1859  0.2036
19858TIP3   OH281064   4.570   6.133   4.154  0.0618 -0.0270 -0.5065
19858TIP3    H181065   4.506   6.146   4.223 -1.3921 -0.1443 -1.7920
19858TIP3    H281066   4.603   6.044   4.168  0.1002  0.0998  0.2632
19859TIP3   OH281067   5.384   2.228  12.190 -0.0566 -0.1327 -0.1599
19859TIP3    H181068   5.447   2.299  12.206  0.3217 -0.1031 -1.5930
19859TIP3    H281069   5.359   2.239  12.098 -1.4447 -0.7301  0.1230
19860TIP3   OH281070   1.762   1.620   1.327  0.2121  0.0645 -0.0083
19860TIP3    H181071   1.769   1.683   1.398 -2.3346 -0.6740  1.0171
19860TIP3    H281072   1.720   1.668   1.255 -0.2851 -0.0337  0.2114
19861TIP3   OH281073   0.760   3.662  11.458  0.4834 -0.3450 -0.3958
19861TIP3    H181074   0.828   3.670  11.391  1.0735 -0.2267  0.2081
19861TIP3    H281075   0.679   3.682  11.412  0.8700 -0.3738 -1.1004
19862TIP3   OH281076   4.787   0.018  14.402 -0.3377  0.2964  0.2930
19862TIP3    H181077   4.743  -0.052  14.353  0.3452 -0.0440  0.1493
19862TIP3    H281078   4.717   0.060  14.452 -0.9137  0.1195 -0.3428
19863TIP3   OH281079   3.158   6.260  11.246  0.0471  0.6275 -0.0599
19863TIP3    H181080   3.229   6.234  11.305  0.8082  1.4976 -0.5604
19863TIP3    H281081   3.170   6.354  11.235 -1.1628  0.7712 -0.1993
19864TIP3   OH281082   2.285   4.385  14.498 -0.2378 -0.5219  0.0660
19864TIP3    H181083   2.256   4.392  14.407  0.4969 -2.2808 -0.3441
19864TIP3    H281084   2.355   4.320  14.496  2.2277  1.8525  1.3669
19865TIP3   OH281085   2.473   0.497  11.280 -0.4301 -0.4531  0.0916
19865TIP3    H181086   2.567   0.488  11.295 -0.2711  0.4950 -0.2644
19865TIP3    H281087   2.451   0.583  11.315 -1.0919 -0.5069 -0.1815
19866TIP3   OH281088   6.568   4.038  15.452 -0.1314  0.6752 -0.2740
19866TIP3    H181089   6.624   3.973  15.410  0.1990 -0.4957  1.8056
19866TIP3    H281090   6.626   4.112  15.470 -0.1792  1.0067 -1.4306
19867TIP3   OH281091   0.533   3.720   5.303  0.0965 -0.2231  0.0685
19867TIP3    H181092   0.529   3.702   5.397  0.5770  1.8720  0.5399
19867TIP3    H281093   0.451   3.765   5.284  0.4390  0.2370 -0.3156
19868TIP3   OH281094   2.837   1.516  12.607  0.5062  0.0491 -0.4181
19868TIP3    H181095   2.809   1.607  12.622  0.6238  0.0756 -0.3622
19868TIP3    H281096   2.774   1.464  12.658  0.4109  0.0961 -0.4859
19869TIP3   OH281097   4.674   4.789  10.618 -0.6153 -0.1244  0.5058
19869TIP3    H181098   4.744   4.770  10.680 -0.1327 -1.1531 -0.3188
19869TIP3    H281099   4.613   4.716  10.626 -1.4273  0.5810  0.9536
19870TIP3   OH281100   1.455   5.286   2.243 -0.2292  0.1237  0.7807
19870TIP3    H181101   1.486   5.373   2.220 -1.0566  0.1880 -0.1551
19870TIP3    H281102   1.360   5.294   2.245 -0.3701 -0.9914 -0.3707
19871TIP3   OH281103   3.152   3.967   0.330  0.0895 -0.2435  0.0552
19871TIP3    H181104   3.162   4.017   0.410  0.2850 -0.9018  0.4465
19871TIP3    H281105   3.103   3.889   0.356  0.0805 -0.4248 -0.4818
19872TIP3   OH281106   1.344   2.912   2.656  0.2804  0.3459  0.2837
19872TIP3    H181107   1.250   2.931   2.660  0.0242 -0.7928  0.0322
19872TIP3    H281108   1.385   2.996   2.635 -0.8899  0.3751 -2.1373
19873TIP3   OH281109   3.795   2.416  12.951 -0.6974  0.3580 -0.2824
19873TIP3    H181110   3.788   2.330  12.992 -1.5540  1.1149  1.2577
19873TIP3    H281111   3.864   2.406  12.886  1.0925 -0.8452  1.6587
19874TIP3   OH281112   1.367   2.543  15.843  0.2314  0.2007 -0.0211
19874TIP3    H181113   1.371   2.631  15.880  0.2688  1.0466 -1.9166
19874TIP3    H281114   1.276   2.516  15.855 -0.3721  1.4633 -1.4505
19875TIP3   OH281115   5.812   1.729  14.059  0.7662 -0.1456 -0.4400
19875TIP3    H181116   5.832   1.649  14.011  0.9187 -0.1754 -0.3294
19875TIP3    H281117   5.724   1.753  14.031  0.2152 -1.0178  0.4279
19876TIP3   OH281118   2.369   6.317   5.489 -0.2080  0.2591 -0.1800
19876TIP3    H181119   2.329   6.328   5.575 -1.4049 -0.3142 -0.6349
19876TIP3    H281120   2.295   6.307   5.429  0.6180 -0.8936 -1.0590
19877TIP3   OH281121   6.831   0.466   4.693 -0.2997 -0.3801  0.5805
19877TIP3    H181122   6.880   0.547   4.710 -1.1050  0.3190 -0.2442
19877TIP3    H281123   6.776   0.454   4.770 -0.7095  0.2843  0.4022
19878TIP3   OH281124   4.445   3.369   2.451  0.1239 -0.1426  0.0793
19878TIP3    H181125   4.499   3.324   2.386 -0.5538 -1.2588  0.2664
19878TIP3    H281126   4.509   3.407   2.512  0.7303 -1.4771  0.3246
19879TIP3   OH281127   4.397   3.812  16.047  0.2020  0.5401 -0.0334
19879TIP3    H181128   4.327   3.850  16.099 -2.4633 -0.1248 -2.7980
19879TIP3    H281129   4.380   3.717  16.049  1.9716  0.1883  0.4141
19880TIP3   OH281130   3.832   4.909  11.803 -0.5756  0.3588  0.8137
19880TIP3    H181131   3.776   4.893  11.879 -2.9459  0.2442 -0.8473
19880TIP3    H281132   3.852   4.821  11.769  0.0395  0.4321  0.9654
19881TIP3   OH281133   4.677   1.540  15.165 -0.0291 -0.3314 -0.7712
19881TIP3    H181134   4.701   1.503  15.080  1.0478  0.7394 -0.9710
19881TIP3    H281135   4.760   1.546  15.212 -0.8385 -2.6434  1.1172
19882TIP3   OH281136   2.839   5.950   1.070 -0.0816  0.1171  0.0750
19882TIP3    H181137   2.770   5.898   1.028 -0.5664  1.8916 -1.4763
19882TIP3    H281138   2.902   5.967   1.001  1.5411 -0.7938  1.2834
19883TIP3   OH281139   0.877   0.435  16.651 -0.2359  0.1307 -0.3684
19883TIP3    H181140   0.783   0.423  16.668 -0.0221 -0.7518  0.2732
19883TIP3    H281141   0.919   0.369  16.706  0.7305  0.0402 -1.1987
19884TIP3   OH281142   6.009   2.902  16.283  0.0813 -0.4498  0.0180
19884TIP3    H181143   6.079   2.847  16.250  0.6066  0.1744  0.0637
19884TIP3    H281144   5.931   2.873  16.236  0.3070 -1.3416  0.1783
19885TIP3   OH281145   4.429   6.125   1.328 -0.1338  0.0180 -1.3414
19885TIP3    H181146   4.516   6.125   1.289  0.5145  0.3249  0.0405
19885TIP3    H281147   4.391   6.042   1.301  0.9027 -0.4853 -1.2973
19886TIP3   OH281148   6.631   2.999   2.512 -0.0663  0.0613  0.0733
19886TIP3    H181149   6.538   3.017   2.531  0.1378  0.1874  1.0078
19886TIP3    H281150   6.653   2.925   2.569 -0.1092 -1.3159 -1.6165
19887TIP3   OH281151   2.788   4.542  15.335 -0.6995  0.0473  0.0114
19887TIP3    H181152   2.866   4.524  15.283 -1.0690 -0.5256 -0.3468
19887TIP3    H281153   2.756   4.626  15.301 -0.5625  0.0028 -0.2322
19888TIP3   OH281154   3.182   0.152  13.643 -0.2360  0.1449  0.1251
19888TIP3    H181155   3.258   0.207  13.622  0.6583 -0.2903  1.9882
19888TIP3    H281156   3.157   0.178  13.732 -1.2508 -0.8511  0.1599
19889TIP3   OH281157   2.638   4.957   3.754 -0.4010 -0.0953 -0.2493
19889TIP3    H181158   2.569   4.959   3.688  0.5424  2.5170 -1.2872
19889TIP3    H281159   2.719   4.955   3.703  0.4578  4.3109  0.5831
19890TIP3   OH281160   1.984   1.286   5.709 -0.2361 -0.0016  0.5231
19890TIP3    H181161   2.078   1.269   5.718 -0.2559  0.2635  1.2579
19890TIP3    H281162   1.966   1.356   5.771 -1.0439 -0.4740  0.8287
19891TIP3   OH281163   0.734   3.024  14.336 -0.2828  0.3654  0.6305
19891TIP3    H181164   0.764   2.989  14.420  0.8841 -0.3774 -0.0580
19891TIP3    H281165   0.762   3.115  14.337 -0.1450  0.3214  0.9925
19892TIP3   OH281166   5.148   4.855   4.659  0.0385  0.2213  0.1797
19892TIP3    H181167   5.192   4.931   4.618  2.2320 -0.9362  0.2225
19892TIP3    H281168   5.214   4.785   4.655 -2.6285 -2.4242 -1.9099
19893TIP3   OH281169   5.288   0.669  14.170  0.6735 -0.2322  0.4596
19893TIP3    H181170   5.242   0.670  14.085 -0.8195 -1.0727  1.2055
19893TIP3    H281171   5.222   0.635  14.231  2.3509 -1.6463  1.5672
19894TIP3   OH281172   5.001   6.132  11.716 -0.9469 -0.6532 -0.2317
19894TIP3    H181173   5.006   6.215  11.764  0.3227 -0.7445 -0.1683
19894TIP3    H281174   4.971   6.156  11.629  1.3005  0.1940 -0.8437
19895TIP3   OH281175   4.123   2.866   3.918  0.3728  0.2204 -0.6946
19895TIP3    H181176   4.191   2.842   3.855  1.6075  0.6794  0.4242
19895TIP3    H281177   4.105   2.786   3.966 -0.7060 -0.1785 -1.7042
19896TIP3   OH281178   3.607   6.433  11.668 -0.4094 -0.1989  0.8560
19896TIP3    H181179   3.652   6.364  11.718 -0.9290  0.9419  3.0379
19896TIP3    H281180   3.515   6.423  11.693 -0.7522  0.1349 -0.2608
19897TIP3   OH281181   1.359   5.868  12.513  0.1432  0.2122 -0.6960
19897TIP3    H181182   1.454   5.864  12.529  0.0789  2.9092  1.0135
19897TIP3    H281183   1.349   5.932  12.443 -0.4205  0.5618 -0.3086
19898TIP3   OH281184   4.857   2.702  15.215 -0.6550 -0.2368  0.5041
19898TIP3    H181185   4.877   2.792  15.240 -0.5607 -0.1950  0.2753
19898TIP3    H281186   4.942   2.658  15.214 -0.4461  0.1316 -1.2455
19899TIP3   OH281187   0.705   1.522  16.930  0.0353  0.4299 -0.9534
19899TIP3    H181188   0.758   1.449  16.961 -0.6718 -0.0495 -0.8634
19899TIP3    H281189   0.760   1.565  16.864  0.7025  0.1952 -0.5581
19900TIP3   OH281190   1.693   5.507  15.919 -0.0180  0.0316 -0.1868
19900TIP3    H181191   1.745   5.491  15.998 -0.0961 -0.7454 -0.2792
19900TIP3    H281192   1.623   5.565  15.947  0.4845  0.5049  0.1055
19901TIP3   OH281193   5.864   4.193  15.595  0.5877 -0.2222  0.0913
19901TIP3    H181194   5.842   4.119  15.539  1.8822 -0.1031 -0.6130
19901TIP3    H281195   5.789   4.251  15.590  0.4842 -0.4509 -1.1187
19902TIP3   OH281196   6.676   0.667  16.899  0.5410  0.2578  0.4156
19902TIP3    H181197   6.728   0.747  16.895  0.7712  0.1238  0.6344
19902TIP3    H281198   6.729   0.602  16.851 -0.3048  0.5851 -1.0043
19903TIP3   OH281199   0.319   4.284   2.502 -0.2558  0.1064  0.1066
19903TIP3    H181200   0.319   4.279   2.597  0.2087  1.0808  0.1716
19903TIP3    H281201   0.252   4.221   2.474  1.8102 -2.6856  0.9213
19904TIP3   OH281202   4.846   0.637   2.415  0.3503 -0.2088  0.5501
19904TIP3    H181203   4.781   0.620   2.484  1.3080 -2.3717  0.9956
19904TIP3    H281204   4.869   0.551   2.381  0.9792  0.7116 -1.5237
19905TIP3   OH281205   3.790   2.245  15.461  0.6572 -0.1188  0.1408
19905TIP3    H181206   3.824   2.185  15.527 -1.9440 -2.2628 -0.2975
19905TIP3    H281207   3.710   2.280  15.500 -0.3748 -0.6354 -1.3960
19906TIP3   OH281208   3.989   1.505  10.186  0.5270 -0.4606 -0.1633
19906TIP3    H181209   3.935   1.484  10.110  0.7461  0.5788 -0.6240
19906TIP3    H281210   4.025   1.421  10.214 -1.8053 -1.2822  0.5579
19907TIP3   OH281211   6.089   3.495   5.526  0.4555 -0.2578  0.0049
19907TIP3    H181212   6.015   3.435   5.515  0.6076 -0.5540  0.5460
19907TIP3    H281213   6.159   3.456   5.474 -0.4573  1.3330 -2.6256
19908TIP3   OH281214   4.963   0.970  15.561 -0.4109  0.7429 -0.5137
19908TIP3    H181215   4.916   0.904  15.613 -0.4571  0.7091 -0.5991
19908TIP3    H281216   5.032   0.920  15.516 -0.0132  0.8574 -0.0488
19909TIP3   OH281217   4.771   5.865   2.268  0.5679  0.6871  0.0255
19909TIP3    H181218   4.826   5.941   2.287  1.6859 -0.2311  0.6353
19909TIP3    H281219   4.766   5.817   2.351  0.9797 -0.5630 -0.6380
19910TIP3   OH281220   2.068   1.384  14.878  0.2569  0.4029  0.0681
19910TIP3    H181221   1.991   1.422  14.920  0.4934  0.0711  0.8120
19910TIP3    H281222   2.102   1.322  14.942 -0.0574 -1.0091 -1.0771
19911TIP3   OH281223   4.784   5.264  15.826 -0.0096 -0.9407 -0.5525
19911TIP3    H181224   4.748   5.331  15.884  1.3339  1.0842 -1.9340
19911TIP3    H281225   4.719   5.255  15.756  0.4578  0.0309 -1.1295
19912TIP3   OH281226   5.784   3.445   4.942  0.4373 -0.3949  0.3489
19912TIP3    H181227   5.833   3.505   4.885 -0.8854 -1.1186 -1.6588
19912TIP3    H281228   5.693   3.455   4.915 -0.5528  0.4803  3.5878
19913TIP3   OH281229   0.513   1.259   5.633 -0.1327  0.0867 -0.2175
19913TIP3    H181230   0.532   1.246   5.726 -0.7704 -1.7665 -0.3055
19913TIP3    H281231   0.562   1.338   5.609 -0.7050  1.1479  1.8860
19914TIP3   OH281232   3.466   0.171   0.517  0.2295 -0.2747 -0.2940
19914TIP3    H181233   3.423   0.116   0.451 -1.4582 -1.2328  1.4974
19914TIP3    H281234   3.401   0.238   0.538  0.5999 -0.1896  0.6192
19915TIP3   OH281235   0.463   1.816  16.868 -0.2011  0.2727 -0.6770
19915TIP3    H181236   0.547   1.795  16.827  0.3998 -0.1899  0.7238
19915TIP3    H281237   0.433   1.894  16.821  1.5883  1.1530 -0.4672
19916TIP3   OH281238   5.465   2.225   3.839 -0.0878 -0.5192  0.1561
19916TIP3    H181239   5.398   2.177   3.791 -0.4958 -0.8827  1.0730
19916TIP3    H281240   5.429   2.313   3.849  0.2394 -0.2814 -0.6733
19917TIP3   OH281241   3.674   4.966   2.728 -0.3735  0.1035 -0.5288
19917TIP3    H181242   3.759   4.924   2.736  0.3255  1.4234 -0.8634
19917TIP3    H281243   3.636   4.929   2.649  0.0791 -0.1521 -0.6283
19918TIP3   OH281244   3.974   4.734   1.108 -0.2573 -0.9495 -0.4009
19918TIP3    H181245   4.030   4.663   1.142 -0.3745 -0.5617  0.6481
19918TIP3    H281246   3.915   4.754   1.181 -1.5862 -1.1507 -1.3906
19919TIP3   OH281247   6.394   5.427   1.263 -0.1054  0.4862 -0.1347
19919TIP3    H181248   6.374   5.521   1.271  0.1404  0.6401 -1.1867
19919TIP3    H281249   6.370   5.390   1.348 -0.2928  1.4887  0.2612
19920TIP3   OH281250   4.500   1.477  14.335 -0.6671  0.1308 -0.0661
19920TIP3    H181251   4.582   1.506  14.295 -0.5594  1.6992  1.1533
19920TIP3    H281252   4.508   1.504  14.427 -0.5368 -4.0174  1.3311
19921TIP3   OH281253   4.240   0.695   4.674  0.1338 -0.2195 -0.5804
19921TIP3    H181254   4.272   0.641   4.747 -1.2205 -1.3633 -0.7840
19921TIP3    H281255   4.320   0.729   4.633  1.0224 -1.3910  0.0842
19922TIP3   OH281256   6.732   1.330   5.486 -0.4986  0.0461  0.2236
19922TIP3    H181257   6.681   1.345   5.566  1.2139  0.0605  1.3587
19922TIP3    H281258   6.704   1.400   5.426 -1.8926 -0.0387  0.7344
19923TIP3   OH281259   5.261   6.731  16.541 -0.1516  0.1323  0.1819
19923TIP3    H181260   5.188   6.757  16.596  0.6962  2.2655  0.4002
19923TIP3    H281261   5.317   6.679  16.598 -0.9603 -0.6294  0.3022
19924TIP3   OH281262   2.943   6.441  11.554  0.3656 -0.2142 -0.7378
19924TIP3    H181263   2.870   6.382  11.575 -0.8913  1.1953 -0.9467
19924TIP3    H281264   2.928   6.518  11.609  3.2472 -0.8869  1.2579
19925TIP3   OH281265   3.933   6.502   2.477  0.7210  0.3358 -0.2024
19925TIP3    H181266   3.867   6.523   2.543  1.2594  0.5261  0.2875
19925TIP3    H281267   4.014   6.538   2.513  0.9633  0.7421 -1.1290
19926TIP3   OH281268   0.340   4.410   3.665  0.2816  0.0936  0.2190
19926TIP3    H181269   0.320   4.356   3.741 -0.7153 -0.7866 -0.6358
19926TIP3    H281270   0.288   4.372   3.594  0.6904  1.2827 -0.7554
19927TIP3   OH281271   3.919   2.142  15.663  0.1365 -0.7032  0.7425
19927TIP3    H181272   3.991   2.198  15.692  0.5942 -1.7248  1.6212
19927TIP3    H281273   3.938   2.056  15.700 -1.1496 -1.1803  0.3657
19928TIP3   OH281274   5.369   1.909   5.201 -0.4259  0.4613 -0.1617
19928TIP3    H181275   5.412   1.928   5.285  1.1143  1.2405 -1.0739
19928TIP3    H281276   5.422   1.839   5.163 -1.3768 -0.1836 -0.3069
19929TIP3   OH281277   1.864   4.779   3.021 -0.1068 -0.1386 -0.0062
19929TIP3    H181278   1.891   4.869   3.040  0.6487 -0.1608 -0.8595
19929TIP3    H281279   1.945   4.729   3.021 -0.6150 -1.0235  1.3620
19930TIP3   OH281280   3.105   1.304   3.017  0.2590  0.4725 -0.7954
19930TIP3    H181281   3.139   1.329   3.102  0.8142 -0.6448 -0.6734
19930TIP3    H281282   3.071   1.385   2.979  0.0415  0.9816  0.4634
19931TIP3   OH281283   6.687   1.881  12.639 -0.3812  0.4714 -0.7096
19931TIP3    H181284   6.706   1.917  12.726  1.3629 -2.8188  0.4790
19931TIP3    H281285   6.769   1.889  12.591  0.3217 -2.1507 -0.1576
19932TIP3   OH281286   3.282   5.941  16.353 -0.0668 -0.0684 -0.1799
19932TIP3    H181287   3.201   5.957  16.402 -1.8156 -5.5359 -0.6493
19932TIP3    H281288   3.254   5.931  16.262  1.3178 -0.9886 -0.5319
19933TIP3   OH281289   3.657   6.285  15.051 -0.2255 -0.6523  0.1120
19933TIP3    H181290   3.741   6.242  15.032  0.4026  0.8341 -0.7067
19933TIP3    H281291   3.677   6.378  15.048 -1.8753 -0.2665  0.1384
19934TIP3   OH281292   3.120   4.718  11.092 -0.2562  0.7486  0.2266
19934TIP3    H181293   3.103   4.674  11.175  1.7456 -0.4079  0.0629
19934TIP3    H281294   3.205   4.759  11.103  0.2629  0.1957 -1.3943
19935TIP3   OH281295   4.974   3.850  10.700 -0.5107 -0.1722  0.3717
19935TIP3    H181296   5.006   3.831  10.789 -0.3820  0.4798  0.4726
19935TIP3    H281297   4.965   3.945  10.698 -2.5141 -0.3226  0.3552
19936TIP3   OH281298   5.577   6.347  13.295 -0.2531  0.2849  0.6522
19936TIP3    H181299   5.616   6.372  13.379 -1.6479  2.1410  0.8218
19936TIP3    H281300   5.482   6.351  13.311 -0.5374 -0.4651 -0.7070
19937TIP3   OH281301   6.456   6.252   6.788  0.1614 -0.0936 -0.3750
19937TIP3    H181302   6.391   6.182   6.785 -0.7897  0.3803  3.3695
19937TIP3    H281303   6.410   6.330   6.759 -0.5659 -0.0570  0.7918
19938TIP3   OH281304   3.689   2.158  14.092  0.3278 -0.5265  0.5657
19938TIP3    H181305   3.778   2.177  14.063  0.7175 -1.5774  1.0381
19938TIP3    H281306   3.648   2.244  14.100  1.8665  0.1118  2.1567
19939TIP3   OH281307   6.582   0.943  10.947 -0.4870  0.3164  0.4877
19939TIP3    H181308   6.586   0.868  10.888 -1.3127  1.7556 -1.5058
19939TIP3    H281309   6.492   0.975  10.939 -0.2074  1.4100  1.4431
19940TIP3   OH281310   5.697   5.648  14.043  0.0715 -0.2701 -0.2215
19940TIP3    H181311   5.782   5.608  14.064 -0.1587 -0.4304  0.4302
19940TIP3    H281312   5.686   5.718  14.109  0.3283  0.6797 -1.1535
19941TIP3   OH281313   4.575   1.995   2.718  0.0424  0.5559 -0.1872
19941TIP3    H181314   4.502   2.046   2.684 -0.1298 -0.1053 -0.8248
19941TIP3    H281315   4.535   1.932   2.778  0.2606  1.1979  0.6485
19942TIP3   OH281316   6.291   3.125  14.136 -0.1929  0.0185 -0.3546
19942TIP3    H181317   6.316   3.144  14.227 -0.1015 -2.0703  0.0968
19942TIP3    H281318   6.266   3.211  14.100 -0.8461  0.8166  1.8227
19943TIP3   OH281319   0.684   4.190   1.163 -0.0430  0.0828  0.4758
19943TIP3    H181320   0.713   4.153   1.246  0.5031 -1.6350 -0.4377
19943TIP3    H281321   0.606   4.141   1.140  1.7355 -1.9752 -1.6776
19944TIP3   OH281322   4.615   0.244   4.862  0.2698  0.6242  0.2287
19944TIP3    H181323   4.523   0.235   4.838 -0.0870 -0.1895  1.7736
19944TIP3    H281324   4.627   0.338   4.875 -0.0436  0.8552 -1.0191
19945TIP3   OH281325   0.302   1.533  11.244  0.8008  0.3810 -0.3764
19945TIP3    H181326   0.271   1.573  11.325  0.5984 -0.6674  0.0770
19945TIP3    H281327   0.392   1.564  11.234  0.1855  2.1414 -0.8427
19946TIP3   OH281328   1.176   0.437   5.477 -0.3785  0.6558  0.2285
19946TIP3    H181329   1.224   0.473   5.552  0.8941 -2.2289  0.9221
19946TIP3    H281330   1.087   0.422   5.511 -0.0840  0.3155  0.8637
19947TIP3   OH281331   5.887   5.662  12.523 -0.0233  0.9104 -0.2814
19947TIP3    H181332   5.951   5.630  12.586  2.3306  0.7417 -2.6054
19947TIP3    H281333   5.871   5.753  12.550 -0.4834  0.3410  1.5341
19948TIP3   OH281334   0.835   1.572  16.661 -0.4298 -0.2503  0.3786
19948TIP3    H181335   0.783   1.567  16.581 -0.8114  0.1978  0.5966
19948TIP3    H281336   0.864   1.663  16.666 -0.8220 -0.1498  1.0053
19949TIP3   OH281337   5.572   2.403  15.865  0.3430 -0.0649 -0.0546
19949TIP3    H181338   5.477   2.416  15.863  0.1647 -1.1543  0.4734
19949TIP3    H281339   5.593   2.392  15.958  0.6835 -1.7634 -0.3008
19950TIP3   OH281340   0.928   2.074  15.607 -0.6697  0.4934  0.1955
19950TIP3    H181341   0.978   2.142  15.651 -1.3398 -0.2329  2.1894
19950TIP3    H281342   0.994   2.026  15.556  0.1894  1.2450  0.5692
19951TIP3   OH281343   2.717   4.735  10.259 -0.4748 -0.4636  0.2108
19951TIP3    H181344   2.666   4.798  10.308 -1.6430 -1.1616 -0.0831
19951TIP3    H281345   2.787   4.787  10.218  0.6048  0.1183  2.6200
19952TIP3   OH281346   3.713   3.651   0.485 -0.0771  0.1971 -1.3464
19952TIP3    H181347   3.671   3.733   0.462  1.0569  1.0894 -0.3912
19952TIP3    H281348   3.685   3.589   0.417 -0.4226  1.5336 -2.4644
19953TIP3   OH281349   6.653   6.479  15.354 -0.2607  0.1896  0.1533
19953TIP3    H181350   6.596   6.449  15.425 -1.4182  1.1080 -0.3503
19953TIP3    H281351   6.670   6.571  15.375  2.9565 -0.5686  1.5045
19954TIP3   OH281352   6.067   3.203  12.232 -0.7262 -0.1767 -0.2917
19954TIP3    H181353   6.006   3.136  12.203 -0.0947 -1.1800  0.6386
19954TIP3    H281354   6.152   3.175  12.198 -0.5238  0.3650 -0.2445
19955TIP3   OH281355   5.896   3.253  11.429 -0.3054 -0.6452  0.9821
19955TIP3    H181356   5.878   3.340  11.464  0.0754 -0.3241  0.4045
19955TIP3    H281357   5.943   3.208  11.498  4.0293  1.2826 -0.3865
19956TIP3   OH281358   0.997   3.664   3.549  0.5482 -0.0595  0.2072
19956TIP3    H181359   1.069   3.686   3.608  1.7430  0.2427 -1.3013
19956TIP3    H281360   0.981   3.744   3.500 -1.1627  0.0164  0.8201
19957TIP3   OH281361   1.937   0.959  12.440  0.0545  0.4228 -0.0070
19957TIP3    H181362   1.961   0.903  12.513 -0.2717 -0.5500 -0.6239
19957TIP3    H281363   1.890   1.032  12.480 -0.6267 -0.3835  0.7142
19958TIP3   OH281364   4.219   3.336   4.760  0.1119  0.3314  0.0667
19958TIP3    H181365   4.255   3.411   4.807 -3.5924  0.8116  2.4988
19958TIP3    H281366   4.199   3.370   4.673 -0.1552  1.8073  0.6687
19959TIP3   OH281367   0.624   3.333   0.227  0.4341  0.0164  0.0057
19959TIP3    H181368   0.592   3.265   0.167 -0.6297 -0.4086  1.0250
19959TIP3    H281369   0.694   3.291   0.275 -0.7607 -0.6601  1.2088
19960TIP3   OH281370   6.393   1.397  15.855  0.4860 -0.0339  0.0006
19960TIP3    H181371   6.386   1.490  15.833  0.5667 -0.1577 -0.5654
19960TIP3    H281372   6.309   1.375  15.893 -0.6346 -0.4204 -2.5370
19961TIP3   OH281373   4.391   0.149   5.950 -0.3474 -0.2165  0.8006
19961TIP3    H181374   4.452   0.075   5.951  0.8565  0.7252  0.7164
19961TIP3    H281375   4.333   0.133   5.876  2.2587  0.7136 -1.6139
19962TIP3   OH281376   4.873   5.923  14.440  0.3569 -0.6228 -0.2540
19962TIP3    H181377   4.910   6.006  14.409 -1.1892 -0.4668 -1.7821
19962TIP3    H281378   4.818   5.948  14.515 -0.3619 -0.2036 -0.9100
19963TIP3   OH281379   3.476   6.814   4.462 -0.7932  0.0531  0.4572
19963TIP3    H181380   3.570   6.817   4.446 -0.5194  1.6152  2.0673
19963TIP3    H281381   3.466   6.755   4.537 -1.4010 -2.0283 -1.1571
19964TIP3   OH281382   3.314   0.764   2.192  0.2291  0.2177  0.1842
19964TIP3    H181383   3.392   0.770   2.246  0.3637  2.4198 -0.1439
19964TIP3    H281384   3.289   0.856   2.177 -0.6526 -0.3518 -2.2308
19965TIP3   OH281385   4.774   2.633   3.885 -0.3196  0.1134  0.3496
19965TIP3    H181386   4.869   2.625   3.877  0.1184  3.4068  0.9890
19965TIP3    H281387   4.745   2.652   3.796 -0.1260  0.8568  0.4388
19966TIP3   OH281388   0.972   2.512   2.956  0.5799 -0.1195 -0.1390
19966TIP3    H181389   0.903   2.541   3.015  0.9687 -1.3235  0.9579
19966TIP3    H281390   1.037   2.471   3.013  1.0199 -1.2600 -1.3908
19967TIP3   OH281391   5.795   5.033   2.826  0.5336 -0.5624  0.6238
19967TIP3    H181392   5.876   4.984   2.842 -0.1014 -2.2842 -1.0684
19967TIP3    H281393   5.728   4.966   2.815 -1.0368  0.8193  1.3928
19968TIP3   OH281394   6.425   2.831   0.537  0.1750 -0.3720  0.0579
19968TIP3    H181395   6.435   2.778   0.458  0.4087  0.6022 -0.5825
19968TIP3    H281396   6.510   2.875   0.548  0.9595 -2.2442  2.1870
19969TIP3   OH281397   3.116   4.217  12.592  0.2575  0.5960 -0.5621
19969TIP3    H181398   3.180   4.163  12.545 -0.6741  0.9945 -2.4063
19969TIP3    H281399   3.169   4.279  12.641  1.3105  0.2523 -1.2207
19970TIP3   OH281400   6.169   0.614  14.435  0.2910  0.5849 -0.4195
19970TIP3    H181401   6.246   0.620  14.491 -0.0311 -0.2644  0.1326
19970TIP3    H281402   6.100   0.660  14.483 -0.1281 -0.6025  0.1685
19971TIP3   OH281403   5.533   5.607   5.875  0.2651  0.2731  0.3439
19971TIP3    H181404   5.450   5.565   5.850 -0.3722  2.3921 -1.4399
19971TIP3    H281405   5.524   5.622   5.969 -0.8224 -0.6798  0.4222
19972TIP3   OH281406   0.046   2.707   4.902  0.5982 -0.2168 -0.3922
19972TIP3    H181407   0.001   2.696   4.986  0.0530 -1.2637 -0.7918
19972TIP3    H281408   0.101   2.629   4.894  0.5655 -0.1821 -1.0433
19973TIP3   OH281409   2.079   6.762  14.059 -0.3090  0.3712  0.1607
19973TIP3    H181410   2.173   6.753  14.044  0.0315  2.6977  0.4748
19973TIP3    H281411   2.069   6.761  14.155 -0.3933  1.4108  0.1826
19974TIP3   OH281412   1.502   4.256  10.844 -0.1883  0.2029 -0.0094
19974TIP3    H181413   1.474   4.344  10.870 -0.0145  0.3303 -0.2550
19974TIP3    H281414   1.480   4.250  10.751 -0.7179 -0.2183  0.1397
19975TIP3   OH281415   3.670   0.232   5.622 -0.9565  0.5792  0.0282
19975TIP3    H181416   3.609   0.305   5.638 -1.5692  0.0420  0.1643
19975TIP3    H281417   3.661   0.177   5.699 -0.7149  0.1994 -0.2160
19976TIP3   OH281418   6.423   2.378   5.106 -0.2786 -0.3312 -0.3578
19976TIP3    H181419   6.448   2.453   5.052 -1.9024 -0.8156 -1.8769
19976TIP3    H281420   6.406   2.416   5.192  1.7427  0.5625 -0.2751
19977TIP3   OH281421   5.465   1.023   0.267 -0.7991 -0.1784  0.1227
19977TIP3    H181422   5.399   1.091   0.279 -0.5748  0.0885 -0.1377
19977TIP3    H281423   5.532   1.043   0.333 -1.7393 -1.4055  1.5029
19978TIP3   OH281424   6.048   0.573   3.967  0.2314 -0.2517 -0.2001
19978TIP3    H181425   6.009   0.572   4.054  0.3591  0.6614 -0.1193
19978TIP3    H281426   6.019   0.492   3.926 -1.9304  0.4804 -0.2326
19979TIP3   OH281427   2.746   6.605  13.201 -0.2300 -0.0059  0.5637
19979TIP3    H181428   2.780   6.668  13.265  1.8957 -0.5397  0.0444
19979TIP3    H281429   2.806   6.531  13.206 -0.8617 -0.6775 -1.0474
19980TIP3   OH281430   2.390   4.749   2.552 -0.1419 -0.1195 -0.8224
19980TIP3    H181431   2.423   4.806   2.483  1.5412 -0.2951 -0.1979
19980TIP3    H281432   2.329   4.803   2.602  0.5604  0.7767 -0.9263
19981TIP3   OH281433   4.239   1.089  12.667  0.5759 -0.1216  0.1254
19981TIP3    H181434   4.215   1.167  12.716  1.4559 -0.2499  0.7843
19981TIP3    H281435   4.158   1.061  12.625 -0.0637  0.3367  1.0202
19982TIP3   OH281436   2.303   5.338  12.600 -0.1416 -0.3335 -0.0566
19982TIP3    H181437   2.288   5.282  12.676  1.7675 -1.0991 -0.1741
19982TIP3    H281438   2.322   5.277  12.528  0.2933  0.4145 -0.6011
19983TIP3   OH281439   2.186   0.121  13.765  0.1817 -0.0533 -0.1026
19983TIP3    H181440   2.249   0.129  13.837  0.9381  1.2302 -0.8621
19983TIP3    H281441   2.101   0.136  13.806  0.5701  0.2802  0.5967
19984TIP3   OH281442   2.275   3.884  17.090  0.1227  0.3092 -0.0732
19984TIP3    H181443   2.290   3.944  17.163 -1.2855  0.7903 -0.1548
19984TIP3    H281444   2.183   3.897  17.067 -0.1911 -1.8033 -0.1677
19985TIP3   OH281445   4.266   0.567   5.006 -0.2478  0.8648  0.1841
19985TIP3    H181446   4.198   0.582   4.941 -0.3266  1.8426  0.4675
19985TIP3    H281447   4.348   0.574   4.958 -0.3244 -1.7779 -0.4519
19986TIP3   OH281448   5.743   4.912   1.853 -0.1962  0.4655  0.0492
19986TIP3    H181449   5.693   4.854   1.795  1.1012 -0.5911 -0.0811
19986TIP3    H281450   5.733   4.999   1.814 -0.1176 -0.0728 -1.2357
19987TIP3   OH281451   4.461   1.228   4.545  0.2582 -0.1478 -1.0380
19987TIP3    H181452   4.528   1.236   4.476  0.2456 -0.6522 -1.1128
19987TIP3    H281453   4.379   1.253   4.502  0.1541 -1.0365 -1.3780
19988TIP3   OH281454   6.385   6.713  11.707  0.0716 -0.3212 -0.4273
19988TIP3    H181455   6.354   6.689  11.794 -0.2913  0.0847 -0.4395
19988TIP3    H281456   6.314   6.686  11.648 -1.1447  2.3084 -0.2807
19989TIP3   OH281457   5.348   3.233  15.526  0.7014 -0.2804 -0.7813
19989TIP3    H181458   5.386   3.305  15.475 -0.3354  0.5396 -0.4350
19989TIP3    H281459   5.395   3.155  15.497  0.9928  0.3559 -2.0695
19990TIP3   OH281460   5.404   6.302   6.259 -0.4592 -0.0252  0.0912
19990TIP3    H181461   5.322   6.338   6.293 -0.1994 -0.0229  0.7326
19990TIP3    H281462   5.454   6.379   6.232 -0.8320 -0.0487 -0.7065
19991TIP3   OH281463   4.382   2.255  13.509  0.4842 -0.1591 -0.2303
19991TIP3    H181464   4.337   2.185  13.555  0.7732  0.2928  0.7560
19991TIP3    H281465   4.374   2.232  13.416 -0.6729 -0.7280  0.0032
19992TIP3   OH281466   2.344   1.122  14.789 -0.7613 -0.5092  0.3743
19992TIP3    H181467   2.414   1.077  14.742 -0.1155 -0.4566  1.2564
19992TIP3    H281468   2.310   1.057  14.850  0.4554  0.2823  1.9424
19993TIP3   OH281469   0.749   6.622  13.435  0.4765  0.0360  0.0167
19993TIP3    H181470   0.781   6.709  13.409  1.6967  0.0279  1.4044
19993TIP3    H281471   0.738   6.576  13.352 -1.1978  1.8097 -0.8444
19994TIP3   OH281472   4.846   5.495  14.769 -0.1911 -0.6539 -0.0101
19994TIP3    H181473   4.857   5.508  14.675 -2.5400 -1.1613 -0.4384
19994TIP3    H281474   4.890   5.570  14.809  1.4946 -0.8140 -1.4448
19995TIP3   OH281475   5.144   0.184  12.326  0.4597 -0.1578 -0.5953
19995TIP3    H181476   5.053   0.207  12.344  0.3092 -2.5326  2.7714
19995TIP3    H281477   5.195   0.256  12.365  0.0651  0.5083 -1.2847
19996TIP3   OH281478   1.887   4.593  16.342  0.1975  0.7332  0.5965
19996TIP3    H181479   1.803   4.633  16.318  1.0439  1.0325 -2.1962
19996TIP3    H281480   1.912   4.637  16.423 -1.7949  1.4350  0.8973
19997TIP3   OH281481   1.210   5.237   1.910 -0.4331 -0.2943 -0.3857
19997TIP3    H181482   1.158   5.157   1.922 -0.3430 -0.4245 -0.8072
19997TIP3    H281483   1.210   5.250   1.815 -1.0489  0.6172 -0.2699
19998TIP3   OH281484   2.195   6.734  16.605 -0.1979  0.3749  0.1539
19998TIP3    H181485   2.100   6.744  16.596 -0.1468 -0.7506 -2.6022
19998TIP3    H281486   2.231   6.811  16.561  0.2184  1.1776  1.8301
19999TIP3   OH281487   1.218   5.757   1.664  0.2420 -0.0358  0.4101
19999TIP3    H181488   1.179   5.774   1.578 -0.6010 -1.3377  0.5140
19999TIP3    H281489   1.301   5.713   1.645  1.1331  1.6450  0.2259
20000TIP3   OH281490   4.372   0.645   0.205  0.0453 -0.5283 -0.5892
20000TIP3    H181491   4.375   0.734   0.169 -3.5001 -0.2429 -0.5928
20000TIP3    H281492   4.399   0.589   0.132  0.0379  0.4288 -1.3550
20001TIP3   OH281493   1.135   2.305   2.792 -0.6421  0.3922  0.4442
20001TIP3    H181494   1.063   2.362   2.818  0.7794  2.2112  0.6014
20001TIP3    H281495   1.210   2.363   2.785  0.5612 -1.2268 -0.9443
20002TIP3   OH281496   4.158   1.135   0.950  0.0229  0.3131 -0.4666
20002TIP3    H181497   4.072   1.170   0.926 -0.3161  0.0076  0.2877
20002TIP3    H281498   4.144   1.041   0.959  0.8033  0.0235 -1.9348
20003TIP3   OH281499   6.723   0.135  12.212  0.1868 -0.2686  0.1369
20003TIP3    H181500   6.737   0.168  12.301  2.3256  0.1516 -0.2881
20003TIP3    H281501   6.692   0.211  12.162  1.0160  0.0543  0.0924
20004TIP3   OH281502   5.870   0.685   5.510 -0.8578  0.1215  0.2068
20004TIP3    H181503   5.822   0.639   5.579 -1.1252 -0.8878 -0.6224
20004TIP3    H281504   5.804   0.702   5.443 -0.6857  1.4499  0.3560
20005TIP3   OH281505   2.099   5.574   5.983 -0.2221 -0.4438 -1.1083
20005TIP3    H181506   2.052   5.629   6.045 -0.5494 -0.5972 -1.2215
20005TIP3    H281507   2.190   5.605   5.987 -0.4278  0.1917 -1.2701
20006TIP3   OH281508   5.141   5.660  10.703 -0.3431 -0.1316  0.5988
20006TIP3    H181509   5.186   5.577  10.690  0.3934 -0.0645  2.5001
20006TIP3    H281510   5.048   5.636  10.704 -0.1936 -0.7700  0.1014
20007TIP3   OH281511   1.018   4.720  14.834  0.4984  0.4197  0.3657
20007TIP3    H181512   0.949   4.654  14.823 -1.9553  2.7357  0.9915
20007TIP3    H281513   1.038   4.718  14.928 -0.8909  1.7212  0.7236
20008TIP3   OH281514   5.618   5.243   2.628  0.0204 -0.1272 -0.1113
20008TIP3    H181515   5.566   5.313   2.667 -1.1527 -0.6006 -0.7809
20008TIP3    H281516   5.669   5.208   2.702 -1.4900 -0.4340  0.8234
20009TIP3   OH281517   6.096   2.019  13.979 -0.6382 -0.1301  0.3675
20009TIP3    H181518   6.014   2.065  13.996  0.1195  0.8874  1.4407
20009TIP3    H281519   6.142   2.020  14.063  0.8053  0.0313 -0.3945
20010TIP3   OH281520   3.085   4.530  16.256  0.1494 -0.3936 -0.0161
20010TIP3    H181521   3.018   4.518  16.189  0.6757  2.0535 -1.0995
20010TIP3    H281522   3.167   4.535  16.206  0.6824  0.3727  0.9059
20011TIP3   OH281523   0.049   0.495  12.025  0.8217  0.8193  0.0630
20011TIP3    H181524   0.032   0.580  12.066 -1.8638  1.3618 -1.8584
20011TIP3    H281525  -0.028   0.442  12.046  2.0324 -0.8728  0.4473
20012TIP3   OH281526   3.357   2.766  12.971  0.3964 -0.1915  0.1285
20012TIP3    H181527   3.387   2.676  12.974 -1.2940 -0.7671  1.5377
20012TIP3    H281528   3.314   2.774  12.886  2.2539 -0.0744 -0.8471
20013TIP3   OH281529   2.382   0.974  13.710  0.1422  0.0665 -0.2571
20013TIP3    H181530   2.435   1.029  13.653  1.9487 -0.1229  1.1240
20013TIP3    H281531   2.441   0.904  13.738 -0.1518  0.8901  2.8736
20014TIP3   OH281532   5.351   4.075  12.143 -0.1322  0.0106  0.4102
20014TIP3    H181533   5.431   4.108  12.183  0.1928 -0.6709  0.3331
20014TIP3    H281534   5.281   4.102  12.203  0.0883  1.0390  0.2215
20015TIP3   OH281535   0.057   1.933   5.496  0.0906  0.3039  0.1105
20015TIP3    H181536   0.144   1.912   5.461  0.4185  3.0770 -0.9813
20015TIP3    H281537   0.073   1.960   5.586  0.2100 -0.1627  0.2311
20016TIP3   OH281538   3.599   3.279  14.075 -0.2526  0.3310  0.0645
20016TIP3    H181539   3.544   3.329  14.016 -1.3881 -0.7994  0.1224
20016TIP3    H281540   3.650   3.222  14.018 -0.2793  0.2749  0.0967
20017TIP3   OH281541   0.954   1.112   4.706 -0.3298 -0.0379  0.2130
20017TIP3    H181542   0.987   1.050   4.771 -1.4303  0.5800  1.4056
20017TIP3    H281543   0.862   1.124   4.729  0.1718  3.2045  1.0582
20018TIP3   OH281544   5.126   6.522   2.594 -0.4403 -0.0630 -0.2465
20018TIP3    H181545   5.215   6.550   2.616  0.0762  0.2128 -2.4394
20018TIP3    H281546   5.120   6.432   2.624 -0.1835  0.5650  1.8398
20019TIP3   OH281547   0.688   3.381  13.677 -0.3410  0.1351  0.1490
20019TIP3    H181548   0.636   3.301  13.673  1.3708 -1.0546  0.4075
20019TIP3    H281549   0.633   3.448  13.636 -1.5023 -1.3352 -0.7964
20020TIP3   OH281550   5.343   2.358   4.966  0.1788  0.7864  1.1311
20020TIP3    H181551   5.253   2.392   4.972  0.0474  0.7837 -0.5794
20020TIP3    H281552   5.397   2.436   4.953  0.4246  0.7697  1.9848
20021TIP3   OH281553   3.113   3.161   2.872  0.0977  0.1222  0.5806
20021TIP3    H181554   3.179   3.214   2.916 -0.7424  1.0404  0.7702
20021TIP3    H281555   3.037   3.165   2.929 -0.6882  0.5128 -0.4573
20022TIP3   OH281556   0.314   2.903   3.506 -0.1057  0.0728 -0.4361
20022TIP3    H181557   0.271   2.823   3.476 -1.2239  0.3118  0.4332
20022TIP3    H281558   0.378   2.874   3.571  0.2250 -0.1922 -0.8764
20023TIP3   OH281559   0.420   0.596  11.275  0.8961  0.5642  0.0821
20023TIP3    H181560   0.487   0.654  11.238 -0.4606  1.4871 -1.0080
20023TIP3    H281561   0.350   0.596  11.211  0.6638 -2.0215  0.2260
20024TIP3   OH281562   3.487   3.269   3.815  0.4534  0.0580  0.0999
20024TIP3    H181563   3.494   3.179   3.847  0.5162  0.4434  1.2454
20024TIP3    H281564   3.576   3.293   3.790  0.4120 -0.2384 -0.3380
20025TIP3   OH281565   3.158   0.396   3.715 -0.2845  0.0765  0.6743
20025TIP3    H181566   3.145   0.404   3.620 -0.3167 -0.1385  0.6601
20025TIP3    H281567   3.192   0.307   3.727  1.3729  0.6814  0.6952
20026TIP3   OH281568   4.868   6.679   0.775  0.2395  0.0556  0.1022
20026TIP3    H181569   4.801   6.613   0.795 -0.8269  0.8358 -0.8310
20026TIP3    H281570   4.925   6.636   0.712 -0.0125 -0.2371  0.0679
20027TIP3   OH281571   3.014   5.537   1.937 -0.1049  0.2178  0.1979
20027TIP3    H181572   3.079   5.578   1.880 -0.9844  0.1297 -0.8946
20027TIP3    H281573   2.989   5.606   1.999  1.3099  0.1316  0.8969
20028TIP3   OH281574   5.494   6.622   4.048  0.5278  0.6788  0.2903
20028TIP3    H181575   5.494   6.706   4.095 -0.9120  2.8713 -3.2183
20028TIP3    H281576   5.567   6.573   4.086 -0.0486  2.4425  4.1653
20029TIP3   OH281577   1.862   2.460  12.731 -0.3767 -0.2424 -0.1101
20029TIP3    H181578   1.771   2.456  12.758 -1.1677 -1.0149 -2.6522
20029TIP3    H281579   1.883   2.554  12.733 -1.5317  0.0398 -0.4646
20030TIP3   OH281580   3.681   3.361   1.592  0.3412  0.3499 -0.2554
20030TIP3    H181581   3.620   3.433   1.607  1.0647  0.5365  2.1851
20030TIP3    H281582   3.763   3.404   1.567  0.1298  0.2040 -1.2650
20031TIP3   OH281583   3.507   3.234   4.209 -0.0855 -0.0440  0.2818
20031TIP3    H181584   3.458   3.315   4.194 -0.2811 -0.3383 -0.7633
20031TIP3    H281585   3.557   3.251   4.289  0.9169  1.6232 -0.6340
20032TIP3   OH281586   2.567   5.254  14.588 -0.0727  0.2095 -0.4875
20032TIP3    H181587   2.560   5.334  14.536  3.3534  0.6236 -0.5847
20032TIP3    H281588   2.589   5.285  14.676 -2.1395 -0.5911  0.3493
20033TIP3   OH281589   1.532   6.322   3.410 -0.5700  0.2289 -0.4472
20033TIP3    H181590   1.525   6.315   3.505  1.7735  1.7517 -0.0733
20033TIP3    H281591   1.478   6.251   3.376 -0.8023 -0.8630  2.0299
20034TIP3   OH281592   5.740   6.395   4.625 -0.1342  0.2795  0.7889
20034TIP3    H181593   5.747   6.393   4.530  0.5728  2.6426  0.7346
20034TIP3    H281594   5.829   6.408   4.656 -0.2611 -1.0912  1.8574
20035TIP3   OH281595   3.183   0.557   1.087  0.1437  0.7572  0.2783
20035TIP3    H181596   3.220   0.590   1.169 -0.4645 -0.8175  1.2271
20035TIP3    H281597   3.105   0.509   1.114  0.2993 -0.3566 -1.1643
20036TIP3   OH281598   6.536   2.216  12.160  0.4788  0.3206  0.4732
20036TIP3    H181599   6.584   2.208  12.243  1.6858  1.7816 -0.0335
20036TIP3    H281600   6.595   2.266  12.103  0.1825 -1.6766 -1.7046
20037TIP3   OH281601   5.906   5.400   5.254 -0.2046  0.1262 -0.5301
20037TIP3    H181602   5.867   5.320   5.289 -0.3663  0.5930  0.4036
20037TIP3    H281603   5.931   5.378   5.165  0.0563 -1.0682 -0.1778
20038TIP3   OH281604   1.550   4.528  16.885  0.2425  0.3588  0.4344
20038TIP3    H181605   1.616   4.586  16.847 -0.3021 -0.3974 -1.8516
20038TIP3    H281606   1.468   4.554  16.843 -0.1804 -1.3809  0.0947
20039TIP3   OH281607   0.133   2.998  15.919 -0.0032  0.4386  0.0861
20039TIP3    H181608   0.222   2.988  15.951 -1.2045 -0.5493  3.6345
20039TIP3    H281609   0.112   2.914  15.878 -0.0406 -0.2866  1.5199
20040TIP3   OH281610   0.177   4.288   0.884 -0.2529 -0.1864  0.8206
20040TIP3    H181611   0.246   4.304   0.949 -1.1026  2.3249  1.2046
20040TIP3    H281612   0.105   4.345   0.911 -1.2726 -0.3108 -1.4108
20041TIP3   OH281613   0.534   4.697   3.703 -0.5721 -0.1682  0.0438
20041TIP3    H181614   0.482   4.776   3.718  1.0595  1.0627 -0.4835
20041TIP3    H281615   0.592   4.692   3.779  0.1382 -0.1787 -0.4926
20042TIP3   OH281616   3.495   0.540  15.968  0.5188 -0.6741 -0.3546
20042TIP3    H181617   3.519   0.475  15.902 -1.0246 -0.3796 -1.2431
20042TIP3    H281618   3.400   0.545  15.963  0.5292  0.7614  0.5551
20043TIP3   OH281619   5.194   6.820   6.111 -0.5110 -0.6053  0.6043
20043TIP3    H181620   5.283   6.854   6.106 -0.2024 -1.4530  0.1651
20043TIP3    H281621   5.139   6.898   6.115  0.2233 -0.0682  0.4915
20044TIP3   OH281622   3.785   5.186   0.266 -0.3534  0.4302 -0.3698
20044TIP3    H181623   3.697   5.150   0.254 -0.5758  0.6272  0.6065
20044TIP3    H281624   3.837   5.143   0.198 -1.1223  0.0374 -0.7300
20045TIP3   OH281625   1.854   6.710   1.827 -0.1022 -0.0147 -0.5052
20045TIP3    H181626   1.830   6.786   1.774  3.1462  1.4170 -0.1754
20045TIP3    H281627   1.947   6.696   1.808 -0.1905 -2.8912  0.7167
20046TIP3   OH281628   0.694   4.099  11.638 -0.0396  0.0121  0.8364
20046TIP3    H181629   0.737   4.172  11.683  1.1632 -0.6261  0.7586
20046TIP3    H281630   0.766   4.041  11.613 -0.6359  0.4146 -2.0890
20047TIP3   OH281631   2.741   1.436  10.551  0.2582 -0.5985  0.0187
20047TIP3    H181632   2.669   1.452  10.490  1.1435  2.2489 -0.4293
20047TIP3    H281633   2.814   1.409  10.496  0.5831  0.3178 -0.0173
20048TIP3   OH281634   4.374   5.154   4.724  0.5276 -0.1254  0.5501
20048TIP3    H181635   4.300   5.188   4.674 -0.0212  0.7871  1.9654
20048TIP3    H281636   4.451   5.180   4.673 -0.0841 -1.7521 -1.3464
20049TIP3   OH281637   1.698   0.201  14.450 -0.1228  0.4349  0.2900
20049TIP3    H181638   1.677   0.185  14.541 -0.4393  0.2898  0.1914
20049TIP3    H281639   1.621   0.171  14.401  0.0414  0.5119 -0.0227
20050TIP3   OH281640   3.719   6.768  14.611 -0.7717 -0.0627  0.0369
20050TIP3    H181641   3.706   6.840  14.549  0.0221 -1.4817 -1.8780
20050TIP3    H281642   3.795   6.720  14.578 -0.0831 -0.7163  2.3397
20051TIP3   OH281643   5.393   4.500  15.951  0.4456 -0.5227  0.5120
20051TIP3    H181644   5.451   4.540  16.015  0.4074  1.2212 -0.4816
20051TIP3    H281645   5.417   4.541  15.868 -1.6253 -0.3623 -0.0622
20052TIP3   OH281646   5.711   2.081   3.744  0.0061 -0.0148 -0.5953
20052TIP3    H181647   5.618   2.087   3.765  0.0584 -0.3495 -0.2663
20052TIP3    H281648   5.730   2.164   3.701 -0.0643  0.7822  0.8253
20053TIP3   OH281649   5.330   5.904   5.906  0.3245 -0.2100 -0.2609
20053TIP3    H181650   5.415   5.936   5.934  0.9587 -2.4813  0.6308
20053TIP3    H281651   5.307   5.836   5.969 -1.4696 -0.6688 -1.3148
20054TIP3   OH281652   6.181   5.705   0.777 -0.3703  0.3306 -0.4327
20054TIP3    H181653   6.214   5.637   0.836 -0.5312 -0.5173 -1.2844
20054TIP3    H281654   6.101   5.667   0.740  0.3269  0.3626 -2.0475
20055TIP3   OH281655   6.023   2.417  17.124  0.1626  0.1353 -0.0646
20055TIP3    H181656   5.955   2.400  17.059 -0.1152 -1.7629  0.6346
20055TIP3    H281657   6.084   2.477  17.081 -0.8266  0.1722 -1.4880
20056TIP3   OH281658   5.814   1.118   3.457 -0.1201  0.3809 -0.6475
20056TIP3    H181659   5.719   1.130   3.453 -0.2270  0.5613  1.3464
20056TIP3    H281660   5.828   1.062   3.533  1.4117  0.9920 -0.4347
20057TIP3   OH281661   4.350   3.289   1.797  0.4701  0.5752  0.7223
20057TIP3    H181662   4.397   3.215   1.759  0.4464  0.6494  0.5469
20057TIP3    H281663   4.350   3.355   1.728 -0.8547  0.1715  0.2995
20058TIP3   OH281664   0.674   4.034   2.174 -0.3654 -0.4647 -0.0514
20058TIP3    H181665   0.656   3.994   2.088 -1.5579  1.0340 -0.5337
20058TIP3    H281666   0.589   4.065   2.204  0.5454  2.0580  0.1059
20059TIP3   OH281667   4.299   2.418   1.257  0.1257 -0.1853 -0.3084
20059TIP3    H181668   4.306   2.325   1.233  1.2313 -0.4051  0.7982
20059TIP3    H281669   4.258   2.459   1.181  1.5281 -1.2203 -1.6903
20060TIP3   OH281670   3.948   5.940  10.358 -0.6788  0.6132 -0.0808
20060TIP3    H181671   4.020   5.962  10.417 -1.1079 -1.3771  1.2950
20060TIP3    H281672   3.911   6.025  10.333  2.9858  1.8140 -2.0744
20061TIP3   OH281673   1.805   5.096  11.071 -0.2015 -0.6852 -0.1189
20061TIP3    H181674   1.871   5.098  11.002  0.5624  0.2082  0.6016
20061TIP3    H281675   1.737   5.037  11.038 -0.5033  0.7339 -2.2118
20062TIP3   OH281676   0.975   3.209  14.087  0.0649  0.0404  0.1920
20062TIP3    H181677   0.948   3.265  14.160 -1.2802  0.5557 -0.6595
20062TIP3    H281678   1.066   3.235  14.069 -0.3530  1.5771  0.1769
20063TIP3   OH281679   4.824   1.659  13.447  0.2139 -0.1336  0.1352
20063TIP3    H181680   4.796   1.695  13.362 -0.6919 -1.1119  0.0016
20063TIP3    H281681   4.915   1.632  13.433 -0.3936 -1.7572 -1.0448
20064TIP3   OH281682   0.941   4.183   5.008 -0.2273  0.2770  0.7942
20064TIP3    H181683   0.897   4.164   5.092 -2.7049 -0.0609 -0.4784
20064TIP3    H281684   0.989   4.103   4.987 -0.5427 -0.0624  1.3306
20065TIP3   OH281685   6.422   4.826   1.411  0.6410 -0.3414 -0.3012
20065TIP3    H181686   6.358   4.785   1.470 -0.2178 -0.1963 -1.1015
20065TIP3    H281687   6.500   4.838   1.465  0.1333 -0.9053  0.5904
20066TIP3   OH281688   5.742   2.196   5.292  0.4135 -0.3098 -0.6195
20066TIP3    H181689   5.795   2.195   5.212 -0.4793 -0.9647 -1.2158
20066TIP3    H281690   5.735   2.289   5.314  0.2610 -0.0779 -1.5832
20067TIP3   OH281691   3.024   6.490  15.896 -0.0712 -0.2564 -0.8983
20067TIP3    H181692   3.040   6.539  15.976  0.5903 -2.1876  0.2247
20067TIP3    H281693   2.929   6.490  15.886 -0.0724  1.6895 -1.2811
20068TIP3   OH281694   5.174   2.568  10.918 -0.2752 -0.1486 -0.5202
20068TIP3    H181695   5.225   2.495  10.882  0.3841  0.2022 -0.3277
20068TIP3    H281696   5.115   2.528  10.982 -2.1561 -0.9232 -2.6082
20069TIP3   OH281697   1.226   1.443   5.003 -0.0816  0.6080  0.4808
20069TIP3    H181698   1.254   1.502   4.933 -0.4821 -0.7238 -0.8530
20069TIP3    H281699   1.263   1.482   5.082  2.1482  1.1042 -0.6919
20070TIP3   OH281700   2.974   4.314   3.278  0.5760 -0.3624 -0.2819
20070TIP3    H181701   2.941   4.404   3.268  1.5971 -0.0275 -0.7360
20070TIP3    H281702   2.979   4.301   3.373  1.7656  0.5874 -0.1868
20071TIP3   OH281703   5.712   1.942  17.162  0.4825 -0.2233  0.7076
20071TIP3    H181704   5.629   1.922  17.119  0.2063 -1.0731  1.6232
20071TIP3    H281705   5.766   1.980  17.092 -0.6364  0.2871  0.0864
20072TIP3   OH281706   2.174   1.878  13.973  0.3599 -0.1334 -0.3315
20072TIP3    H181707   2.124   1.860  14.052  1.0322  0.8808  0.3408
20072TIP3    H281708   2.121   1.842  13.902 -0.0842 -1.3693  0.6016
20073TIP3   OH281709   0.026   4.708   0.369  0.2014 -0.1152  0.0045
20073TIP3    H181710  -0.021   4.792   0.378  1.0718  0.5454 -1.3029
20073TIP3    H281711  -0.013   4.652   0.436 -2.6356  0.3103 -1.1549
20074TIP3   OH281712   4.545   4.172  11.170  0.3153  0.0087  0.4282
20074TIP3    H181713   4.571   4.261  11.195  0.4442  0.5468 -1.4910
20074TIP3    H281714   4.493   4.141  11.244  0.1849  1.7103  1.1006
20075TIP3   OH281715   2.839   6.330  14.759 -0.2675 -0.2471 -0.3099
20075TIP3    H181716   2.817   6.302  14.848  0.7223  0.8642  0.3096
20075TIP3    H281717   2.877   6.418  14.770  0.9689 -0.5689 -1.7017
20076TIP3   OH281718   1.337   6.783  13.082  0.0038 -0.5851  0.3137
20076TIP3    H181719   1.366   6.737  13.003  0.1550  0.9795 -0.5838
20076TIP3    H281720   1.333   6.875  13.056  3.3708  0.5509  3.0039
20077TIP3   OH281721   3.171   0.824  11.699  0.1184  0.5474 -0.0782
20077TIP3    H181722   3.214   0.850  11.780 -0.3701  1.2337 -0.0233
20077TIP3    H281723   3.077   0.831  11.718 -0.0114 -0.0716 -0.4551
20078TIP3   OH281724   2.438   5.205   2.665  0.4620 -0.2341 -0.1800
20078TIP3    H181725   2.373   5.139   2.644  0.2667 -0.3473  0.7509
20078TIP3    H281726   2.507   5.192   2.599 -0.6608  0.2299 -1.5058
20079TIP3   OH281727   3.304   1.398  16.648 -0.1608 -0.1001 -0.1908
20079TIP3    H181728   3.271   1.446  16.724  1.4321  1.7778 -0.6084
20079TIP3    H281729   3.340   1.465  16.590  2.8403 -1.7632 -0.5015
20080TIP3   OH281730   6.194   4.693   0.698 -0.0055 -0.0658  0.1175
20080TIP3    H181731   6.161   4.626   0.638 -0.8655  0.9142 -0.5235
20080TIP3    H281732   6.116   4.726   0.743  0.3750  0.6760  0.2505
20081TIP3   OH281733   6.693   0.745   2.757  0.5289 -0.1618  0.5446
20081TIP3    H181734   6.771   0.741   2.812  0.5653  0.0743  0.5124
20081TIP3    H281735   6.644   0.821   2.789  0.9727  0.4900 -0.2925
20082TIP3   OH281736   6.494   0.857   4.444 -0.2601 -0.2665  0.0483
20082TIP3    H181737   6.468   0.933   4.392 -0.5353 -0.3865  0.0057
20082TIP3    H281738   6.477   0.782   4.386 -0.6011 -0.4016  0.3243
20083TIP3   OH281739   3.653   0.766   2.601 -0.9158 -0.0495 -0.0730
20083TIP3    H181740   3.603   0.843   2.627 -2.3338 -1.1097  0.4893
20083TIP3    H281741   3.716   0.753   2.672 -2.2683 -0.7536  1.0428
20084TIP3   OH281742   2.397   0.264   1.943  0.2166  0.3522  0.1170
20084TIP3    H181743   2.364   0.174   1.951 -2.6957  1.1535 -1.2616
20084TIP3    H281744   2.353   0.298   1.865  1.1696  3.0029  0.6335
20085TIP3   OH281745   5.739   3.077   5.128 -0.3774  0.4534  0.2245
20085TIP3    H181746   5.701   3.038   5.206 -1.0074 -0.6471 -0.6063
20085TIP3    H281747   5.830   3.047   5.127 -0.8702 -1.1337 -0.4465
20086TIP3   OH281748   5.409   1.926   0.726 -0.1880  0.0021 -0.1696
20086TIP3    H181749   5.424   1.841   0.685  1.5128 -0.0511  0.4642
20086TIP3    H281750   5.485   1.978   0.700  1.1877 -0.1452  3.0973
20087TIP3   OH281751   5.510   6.141  16.248 -0.3691 -0.1071 -0.4702
20087TIP3    H181752   5.548   6.223  16.281  0.0102  0.4797 -2.2523
20087TIP3    H281753   5.417   6.159  16.240 -0.6811 -0.6605  1.3287
20088TIP3   OH281754   4.992   0.451   4.910  0.1014  0.0694  0.9308
20088TIP3    H181755   4.997   0.380   4.846  0.7922  2.0810 -1.3985
20088TIP3    H281756   4.912   0.434   4.959  0.2108 -2.2445  0.4129
20089TIP3   OH281757   3.796   4.393  11.156  0.2945  0.3597 -0.0732
20089TIP3    H181758   3.783   4.310  11.109  1.3473  0.0875  0.0910
20089TIP3    H281759   3.832   4.452  11.090  1.1702  0.1670  0.2201
20090TIP3   OH281760   5.296   6.579   1.633 -0.2736  0.2011  0.4321
20090TIP3    H181761   5.356   6.532   1.575 -0.3404  0.6601 -0.0078
20090TIP3    H281762   5.318   6.671   1.621 -1.6749  0.4463 -0.4126
20091TIP3   OH281763   4.441   6.170  11.192  0.3632  0.1503  0.0091
20091TIP3    H181764   4.531   6.165  11.224  0.3608 -0.3892 -0.0661
20091TIP3    H281765   4.447   6.221  11.111  0.4121  1.2379  0.6758
20092TIP3   OH281766   3.860   4.902   3.113 -0.1075 -0.1181 -0.0619
20092TIP3    H181767   3.930   4.911   3.049 -0.5563 -2.6323 -1.0513
20092TIP3    H281768   3.899   4.930   3.196  2.6425 -2.7517 -0.2823
20093TIP3   OH281769   0.472   1.633   5.315  0.3980  0.3381 -0.0428
20093TIP3    H181770   0.470   1.677   5.231 -0.2542  1.3200  0.4626
20093TIP3    H281771   0.380   1.613   5.334  0.5273  0.2024  0.4699
20094TIP3   OH281772   1.455   3.825   4.011 -0.1652 -0.3225 -0.0830
20094TIP3    H181773   1.478   3.884   3.939 -1.7833  0.6725  0.1474
20094TIP3    H281774   1.462   3.879   4.089 -3.3943  0.2252 -0.0183
20095TIP3   OH281775   0.625   5.081   4.768  0.1677 -0.2771 -0.1361
20095TIP3    H181776   0.719   5.065   4.763  0.2884  0.5075 -0.5281
20095TIP3    H281777   0.587   5.026   4.700  0.5310  0.7020 -1.1665
20096TIP3   OH281778   4.552   4.871  12.993 -0.5186 -0.3117 -0.1019
20096TIP3    H181779   4.590   4.948  13.037  0.7001  0.1150 -1.7748
20096TIP3    H281780   4.463   4.899  12.969 -0.2836  0.3887 -0.1983
20097TIP3   OH281781   5.912   5.592   1.926 -0.5747  0.4934 -0.3659
20097TIP3    H181782   5.928   5.558   1.838  1.6847  0.1490  0.1201
20097TIP3    H281783   5.898   5.515   1.980  1.8697  0.4117  0.2403
20098TIP3   OH281784   1.380   6.794   2.167  0.1687 -0.0208  0.3134
20098TIP3    H181785   1.325   6.872   2.159  0.8583  0.3752 -0.5847
20098TIP3    H281786   1.317   6.722   2.177 -0.4692  0.7509  2.4877
20099TIP3   OH281787   4.138   5.389  11.820 -0.0798 -0.6214  0.5259
20099TIP3    H181788   4.147   5.409  11.914  1.0709  0.2365  0.2537
20099TIP3    H281789   4.076   5.316  11.817  0.7836 -1.4727  2.0530
20100TIP3   OH281790   1.615   5.616   0.708  0.0729  0.3118 -0.0386
20100TIP3    H181791   1.684   5.567   0.663  1.4189  2.8195 -0.8921
20100TIP3    H281792   1.556   5.644   0.637  0.2520  1.3236  0.2013
20101TIP3   OH281793   0.475   3.726  16.015 -0.1677  0.1900 -0.2749
20101TIP3    H181794   0.394   3.690  15.979 -0.5430 -1.0131  1.6323
20101TIP3    H281795   0.487   3.809  15.969 -1.1387 -0.7404 -2.3504
20102TIP3   OH281796   1.102   6.039   2.772  0.1436 -0.4200  0.1542
20102TIP3    H181797   1.086   5.983   2.848 -0.4567  0.8773  1.0076
20102TIP3    H281798   1.089   5.981   2.697 -1.1676 -1.2759  0.9974
20103TIP3   OH281799   0.820   5.084  16.255 -0.3101 -0.0760  0.5916
20103TIP3    H181800   0.785   5.173  16.257 -0.3894 -0.0941  0.1131
20103TIP3    H281801   0.875   5.082  16.177 -0.2613 -0.4306  0.6356
20104TIP3   OH281802   6.485   0.721   5.358 -0.5078  0.6357 -0.3060
20104TIP3    H181803   6.568   0.764   5.379 -0.2024  0.1333 -0.4698
20104TIP3    H281804   6.423   0.794   5.345 -0.7023  0.9751  2.1643
20105TIP3   OH281805   3.261   1.993   0.316 -0.3915  0.5314  0.7722
20105TIP3    H181806   3.297   2.031   0.236 -0.1496 -2.4467 -0.6431
20105TIP3    H281807   3.214   1.915   0.287 -1.1938 -0.0770  3.4371
20106TIP3   OH281808   1.516   5.351   1.726  0.0646 -0.1284 -0.2171
20106TIP3    H181809   1.596   5.399   1.749  0.5460 -1.9321  2.4040
20106TIP3    H281810   1.452   5.377   1.792  0.2577 -2.7004  1.1229
20107TIP3   OH281811   2.456   4.958   2.369 -0.1878 -0.5053  0.1733
20107TIP3    H181812   2.506   5.035   2.396  0.8513 -0.5021 -1.6510
20107TIP3    H281813   2.518   4.904   2.320 -1.9761 -0.3787 -2.3913
20108TIP3   OH281814   6.483   2.349  16.378 -0.4581  0.1570  0.4870
20108TIP3    H181815   6.474   2.256  16.398  0.7719 -0.1144 -0.1158
20108TIP3    H281816   6.418   2.392  16.434 -2.4655 -1.2071 -0.6697
20109TIP3   OH281817   5.655   6.315  15.542 -0.0983  0.5749  0.3161
20109TIP3    H181818   5.622   6.235  15.502 -0.6672  0.3111  1.2795
20109TIP3    H281819   5.602   6.385  15.504 -0.3262  0.3793  0.2779
20110TIP3   OH281820   3.632   1.355  11.148  0.0433  0.6866  0.2484
20110TIP3    H181821   3.692   1.330  11.218 -0.0738  0.8298  0.4005
20110TIP3    H281822   3.569   1.283  11.143  1.6798 -0.7387 -1.6281
20111TIP3   OH281823   6.528   2.814  15.006  0.7922 -0.3958 -0.1707
20111TIP3    H181824   6.599   2.838  14.947 -0.0977  0.0308 -1.1083
20111TIP3    H281825   6.465   2.769  14.951 -1.1079  1.9456 -0.1089
20112TIP3   OH281826   1.146   2.502  11.754 -0.1797 -0.2975  0.0110
20112TIP3    H181827   1.069   2.558  11.746  0.7681  1.3810  1.8356
20112TIP3    H281828   1.125   2.442  11.826  0.3421  0.4370  0.7923
20113TIP3   OH281829   6.490   5.547   1.728 -0.3071  0.2813 -0.4244
20113TIP3    H181830   6.536   5.593   1.658  1.3500  0.1824  0.5698
20113TIP3    H281831   6.450   5.471   1.685  2.2347 -0.8153 -0.9839
20114TIP3   OH281832   0.393   2.785  13.365 -0.3447 -0.1780  0.2700
20114TIP3    H181833   0.415   2.754  13.278 -0.8069 -2.1143  0.8003
20114TIP3    H281834   0.444   2.866  13.375  0.5997 -0.5290 -1.3450
20115TIP3   OH281835   0.562   4.937  12.427 -0.7238 -0.1560 -0.2176
20115TIP3    H181836   0.579   4.959  12.518 -1.9494  1.8862 -0.4293
20115TIP3    H281837   0.468   4.925  12.421 -0.8645  1.1866 -1.4524
20116TIP3   OH281838   0.885   3.172   3.279 -0.0803 -0.0604  0.2443
20116TIP3    H181839   0.837   3.152   3.198  0.0972 -0.3710  0.2152
20116TIP3    H281840   0.963   3.118   3.274  0.9548  1.4256 -0.3640
20117TIP3   OH281841   5.507   4.432   1.628  0.1323  0.7716 -0.0673
20117TIP3    H181842   5.449   4.483   1.571 -1.0250  1.7153  1.8476
20117TIP3    H281843   5.552   4.497   1.681  0.7702 -0.0976  0.4734
20118TIP3   OH281844   5.935   1.865   1.607  0.2393  0.2845  0.1385
20118TIP3    H181845   5.998   1.807   1.566 -1.6689 -2.0915  0.3212
20118TIP3    H281846   5.917   1.932   1.541  0.9616 -0.5323 -0.9164
20119TIP3   OH281847   5.583   5.620  11.906  0.6571 -0.2800 -0.2537
20119TIP3    H181848   5.612   5.541  11.860  2.7053 -0.9224  1.9159
20119TIP3    H281849   5.645   5.687  11.879  1.7778 -0.6248  1.3242
20120TIP3   OH281850   0.228   6.331  16.592  0.4969  0.2303  0.2184
20120TIP3    H181851   0.145   6.314  16.547 -0.2731 -1.1391  1.9858
20120TIP3    H281852   0.270   6.400  16.542 -0.9831 -0.1546 -1.6507
20121TIP3   OH281853   4.666   5.810  13.541 -1.0802  0.0551  0.1421
20121TIP3    H181854   4.712   5.758  13.608 -1.1263 -0.5221 -0.2737
20121TIP3    H281855   4.722   5.888  13.530 -0.8745 -0.0245  0.5739
20122TIP3   OH281856   3.213   0.972  16.320  0.6518 -0.1391 -0.2784
20122TIP3    H181857   3.153   1.017  16.380  0.0005 -1.7371  0.3275
20122TIP3    H281858   3.289   0.950  16.374  0.8085 -0.0636 -0.4696
20123TIP3   OH281859   3.340   2.634   5.255  0.1596  0.2243 -0.0727
20123TIP3    H181860   3.432   2.611   5.269  0.8145  1.8530 -1.3918
20123TIP3    H281861   3.323   2.610   5.164 -1.2345 -1.5403  0.5938
20124TIP3   OH281862   5.137   1.600   0.488 -0.5570 -0.8908 -0.1760
20124TIP3    H181863   5.062   1.543   0.507  0.5361 -2.5512 -0.6038
20124TIP3    H281864   5.193   1.547   0.431  0.9321  0.3042  0.1232
20125TIP3   OH281865   0.848   6.430   5.675 -0.1908  0.3681  1.0177
20125TIP3    H181866   0.799   6.512   5.678  0.0864  0.5932 -0.0670
20125TIP3    H281867   0.796   6.373   5.618  0.2443  0.2262  0.7572
20126TIP3   OH281868   3.558   5.434   3.594 -0.0760  0.1639 -0.2148
20126TIP3    H181869   3.596   5.381   3.664 -0.5276  0.0359 -0.0564
20126TIP3    H281870   3.627   5.494   3.568  0.0352  0.3527  0.4880
20127TIP3   OH281871   4.479   6.391   1.808 -0.2593 -0.0057  0.5730
20127TIP3    H181872   4.546   6.386   1.876  1.2073 -0.7486 -0.8591
20127TIP3    H281873   4.491   6.311   1.756 -1.4666  0.4318 -0.4418
20128TIP3   OH281874   3.034   3.844   2.012 -0.1041 -0.4181 -0.3549
20128TIP3    H181875   2.950   3.880   1.985  1.0420  0.8182 -2.5118
20128TIP3    H281876   3.032   3.753   1.981 -0.8214 -0.5568  0.0728
20129TIP3   OH281877   3.239   3.383  13.975 -0.0663 -0.4946 -0.6308
20129TIP3    H181878   3.222   3.332  13.896 -1.5593  0.8335 -1.2129
20129TIP3    H281879   3.174   3.352  14.038  1.1568 -1.5917  0.1446
20130TIP3   OH281880   0.546   5.437  11.494  0.2707 -0.2957 -0.0066
20130TIP3    H181881   0.507   5.519  11.527  1.1820 -0.9872  3.2098
20130TIP3    H281882   0.639   5.446  11.514  0.3354 -2.2210  0.8097
20131TIP3   OH281883   1.195   0.306  11.784 -0.5539  0.2467 -0.5776
20131TIP3    H181884   1.171   0.361  11.710  0.3962  2.3720  0.6229
20131TIP3    H281885   1.289   0.293  11.775 -0.6200 -0.4617 -0.3436
20132TIP3   OH281886   1.245   6.399   0.973  0.7593  0.6134 -0.2170
20132TIP3    H181887   1.311   6.377   0.908  1.4886 -0.0141  0.7042
20132TIP3    H281888   1.289   6.462   1.031  0.2567  0.8525 -0.0892
20133TIP3   OH281889   3.570   1.074   3.720  0.0330  0.2889 -0.2663
20133TIP3    H181890   3.533   1.056   3.806  0.3226 -0.7135 -0.3337
20133TIP3    H281891   3.627   1.150   3.733  1.4066 -0.8752  0.8148
20134TIP3   OH281892   6.592   2.536  12.959 -0.1669  0.0810 -0.1414
20134TIP3    H181893   6.586   2.468  13.027 -2.8153 -0.1583 -0.4952
20134TIP3    H281894   6.585   2.618  13.007  1.8244  0.1017  0.1763
20135TIP3   OH281895   5.929   6.041  11.476 -0.1938 -0.1547 -0.2982
20135TIP3    H181896   5.988   6.018  11.405  0.8523  1.2548  0.0675
20135TIP3    H281897   5.872   6.109  11.439  0.2295  0.4481  0.1508
20136TIP3   OH281898   4.481   6.488  12.650 -0.1742 -0.2480 -0.0889
20136TIP3    H181899   4.558   6.537  12.623  0.8151 -1.5312  0.3384
20136TIP3    H281900   4.437   6.466  12.568 -0.1112  0.4895 -0.3324
20137TIP3   OH281901   4.547   5.648   5.258 -0.1437 -0.2510  0.1454
20137TIP3    H181902   4.588   5.723   5.215  3.7310 -1.1359  1.8639
20137TIP3    H281903   4.576   5.654   5.349  0.3169 -3.7628  0.3449
20138TIP3   OH281904   5.051   4.859   0.189 -0.2512 -0.5034 -0.1865
20138TIP3    H181905   5.013   4.898   0.268  0.5318 -0.6491  0.2788
20138TIP3    H281906   5.060   4.932   0.128 -1.4697 -0.5101 -0.3992
20139TIP3   OH281907   0.874   3.855   5.066 -0.0829  0.4809 -0.2879
20139TIP3    H181908   0.940   3.886   5.004 -0.5863  0.8539 -0.6457
20139TIP3    H281909   0.923   3.800   5.128  0.4200  0.0344 -1.0603
20140TIP3   OH281910   5.589   0.506  14.101 -0.2876 -0.3426  0.0346
20140TIP3    H181911   5.588   0.515  14.006  0.2589  0.3079  0.0844
20140TIP3    H281912   5.586   0.596  14.134 -2.1342 -0.5825  0.6653
20141TIP3   OH281913   5.927   4.911  12.360 -0.7392  0.1067  0.5471
20141TIP3    H181914   5.916   4.816  12.357 -1.3266  0.1876 -0.4399
20141TIP3    H281915   5.849   4.946  12.317 -0.1368  1.0046  0.1410
20142TIP3   OH281916   2.062   1.052  14.516 -0.1794 -0.0791  0.1009
20142TIP3    H181917   1.968   1.064  14.524 -0.2711  0.8828 -1.9420
20142TIP3    H281918   2.100   1.134  14.547 -0.2192  0.9070 -2.3147
20143TIP3   OH281919   4.652   1.199   3.601 -0.2066 -0.0436  0.5138
20143TIP3    H181920   4.570   1.203   3.649 -0.8370 -0.1576 -0.5108
20143TIP3    H281921   4.683   1.109   3.613 -0.5458 -0.1745  0.4240
20144TIP3   OH281922   1.620   4.636  13.422  0.1984 -0.0754 -0.3413
20144TIP3    H181923   1.653   4.717  13.462 -1.0196 -0.3475  1.2959
20144TIP3    H281924   1.697   4.580  13.415  0.3157 -0.5628  3.0448
20145TIP3   OH281925   3.232   1.539  13.789  0.2671 -0.1816 -0.0310
20145TIP3    H181926   3.198   1.575  13.871  1.6802  1.7434 -0.2157
20145TIP3    H281927   3.327   1.530  13.805  0.1706 -2.8504 -0.4202
20146TIP3   OH281928   2.674   6.617  16.976  0.2953 -0.0443  0.2566
20146TIP3    H181929   2.663   6.634  17.070 -0.8444 -0.5573  0.2352
20146TIP3    H281930   2.648   6.525  16.965 -1.3970  0.5062 -0.8183
20147TIP3   OH281931   0.555   2.174  11.420  0.0091  0.5591  0.8185
20147TIP3    H181932   0.611   2.206  11.491  0.6258  1.3314  0.0064
20147TIP3    H281933   0.475   2.228  11.427 -0.3064  0.0167  1.4711
20148TIP3   OH281934   4.604   6.814   2.155  0.1778  0.1791 -0.5664
20148TIP3    H181935   4.639   6.808   2.066 -0.7059  0.7865 -0.9654
20148TIP3    H281936   4.668   6.767   2.209 -0.2835 -1.9695 -1.7972
20149TIP3   OH281937   5.091   4.938  10.567 -0.1123  0.2713  0.3301
20149TIP3    H181938   5.116   5.025  10.599  0.2103  1.1563 -2.1552
20149TIP3    H281939   5.002   4.925  10.602 -0.8176  2.3277 -0.5481
20150TIP3   OH281940   4.669   2.264  16.974 -0.5913 -0.0042  0.5094
20150TIP3    H181941   4.618   2.185  16.991 -0.8502  0.3492  1.4286
20150TIP3    H281942   4.604   2.332  16.957 -0.4111  0.3236  1.1252
20151TIP3   OH281943   2.524   6.449  11.571 -0.8460  0.0462 -0.4666
20151TIP3    H181944   2.589   6.380  11.585 -0.8147  0.2766  0.6316
20151TIP3    H281945   2.543   6.514  11.639 -2.9830 -0.4729  0.7465
20152TIP3   OH281946   2.347   0.713  17.108  0.0760  0.2228 -0.3500
20152TIP3    H181947   2.328   0.633  17.156  0.3770  0.9313  0.9867
20152TIP3    H281948   2.384   0.683  17.025  0.2963 -1.0172  0.1785
20153TIP3   OH281949   0.411   0.393  16.287  0.2018  0.2011  0.1622
20153TIP3    H181950   0.405   0.298  16.285  1.8028  0.0752 -1.1341
20153TIP3    H281951   0.386   0.418  16.376  0.7875 -1.5056  0.8372
20154TIP3   OH281952   5.285   5.333  16.141 -0.5305 -0.0780  0.4801
20154TIP3    H181953   5.353   5.399  16.150 -0.4952  0.1811 -1.3194
20154TIP3    H281954   5.297   5.275  16.217  1.9773 -0.3001  0.0032
20155TIP3   OH281955   4.933   2.450   5.604  0.2289 -0.1571 -0.6778
20155TIP3    H181956   4.897   2.504   5.674 -0.3759  1.7496 -2.3616
20155TIP3    H281957   5.026   2.442   5.625 -0.5674 -3.3250  2.5765
20156TIP3   OH281958   4.409   4.584   3.005 -0.1567  0.3079 -0.3865
20156TIP3    H181959   4.331   4.533   2.984  0.0191  1.3289 -4.3990
20156TIP3    H281960   4.482   4.526   2.981  0.3820 -0.1428  2.0671
20157TIP3   OH281961   2.822   6.229   1.067  0.3448 -0.5675 -0.4514
20157TIP3    H181962   2.761   6.286   1.114 -0.5307 -0.7852 -1.3073
20157TIP3    H281963   2.819   6.146   1.115 -1.1225 -1.0354 -1.2923
20158TIP3   OH281964   2.323   5.121   3.665  0.0241  0.1624 -0.0958
20158TIP3    H181965   2.306   5.195   3.606  0.6786  0.9946  0.7210
20158TIP3    H281966   2.237   5.097   3.699 -0.0317  1.8191  1.0644
20159TIP3   OH281967   6.448   2.328   4.084 -0.0620  0.3374 -0.0629
20159TIP3    H181968   6.353   2.317   4.074  0.1851 -0.4828 -1.6124
20159TIP3    H281969   6.463   2.312   4.177 -1.3252 -0.3916  0.0436
20160TIP3   OH281970   6.014   4.315   1.316  0.2535  0.4161 -0.0986
20160TIP3    H181971   5.953   4.273   1.377 -0.4863  0.3168 -0.8788
20160TIP3    H281972   5.960   4.336   1.239  1.6015 -1.5177 -1.6641
20161TIP3   OH281973   5.044   1.900   0.477  0.3205 -0.0715  0.7030
20161TIP3    H181974   5.038   1.868   0.567  0.8790 -0.7065  0.5214
20161TIP3    H281975   5.136   1.887   0.453  0.0096 -0.6304 -0.2170
20162TIP3   OH281976   1.224   5.726  11.769  0.7318 -0.1811 -0.1198
20162TIP3    H181977   1.264   5.790  11.709 -3.0991  2.0413 -0.6306
20162TIP3    H281978   1.166   5.674  11.714 -0.5949 -0.1231  1.1578
20163TIP3   OH281979   3.449   0.616  15.614 -0.1308 -0.1053 -0.0708
20163TIP3    H181980   3.487   0.700  15.639 -0.0423  0.2534 -1.3431
20163TIP3    H281981   3.444   0.567  15.696 -1.3912  1.5983  0.9464
20164TIP3   OH281982   6.586   1.050  16.539  0.5130 -0.1652 -0.3070
20164TIP3    H181983   6.659   0.988  16.531  1.3965  0.7621  0.2985
20164TIP3    H281984   6.602   1.094  16.622 -1.7188 -1.1442  0.7048
20165TIP3   OH281985   3.811   3.201  16.395 -0.0830 -0.1438  0.0385
20165TIP3    H181986   3.854   3.133  16.448 -0.3719 -0.8857 -0.6633
20165TIP3    H281987   3.880   3.266  16.379  0.1030 -0.0806  1.0183
20166TIP3   OH281988   0.354   0.787  11.463 -0.0242  0.2366 -0.1548
20166TIP3    H181989   0.367   0.709  11.408 -1.5321  0.4995 -0.9477
20166TIP3    H281990   0.396   0.765  11.546 -1.8218 -2.1433  0.2594
20167TIP3   OH281991   2.591   1.100  11.377 -0.3777  0.1049  0.2302
20167TIP3    H181992   2.653   1.031  11.398  0.3935  0.2286 -1.4960
20167TIP3    H281993   2.528   1.059  11.318 -1.1609  0.3322  0.8902
20168TIP3   OH281994   6.600   3.679   3.138  0.0807 -0.1662 -0.1664
20168TIP3    H181995   6.574   3.758   3.091 -0.8285 -1.2847 -1.6466
20168TIP3    H281996   6.653   3.630   3.075  1.1403 -0.4851  0.9336
20169TIP3   OH281997   5.140   4.967   4.945  0.3704  0.4973 -0.1313
20169TIP3    H181998   5.112   4.990   4.856  1.0108  0.2298 -0.4091
20169TIP3    H281999   5.203   5.035   4.969  0.1006  0.6442  0.1776
20170TIP3   OH282000   6.722   0.001   3.848  0.0638 -0.0733 -0.2276
20170TIP3    H182001   6.746   0.051   3.926  1.1700 -0.4287 -0.3308
20170TIP3    H282002   6.643   0.044   3.816  1.3250  2.0169 -0.6733
20171TIP3   OH282003   3.105   5.307  14.241  0.5832  0.0564  0.0300
20171TIP3    H182004   3.078   5.349  14.160  1.1828 -1.5056 -1.0175
20171TIP3    H282005   3.129   5.380  14.299 -0.2170  1.2102 -1.0430
20172TIP3   OH282006   0.571   6.805   2.294  0.3641 -0.1062 -0.0520
20172TIP3    H182007   0.598   6.714   2.278  0.1351  0.0166 -1.2196
20172TIP3    H282008   0.649   6.857   2.277  0.7104 -0.1119  1.3452
20173TIP3   OH282009   2.969   4.689   4.496 -0.1268 -0.3731  0.2770
20173TIP3    H182010   2.942   4.657   4.582 -1.0495  2.2700  1.0638
20173TIP3    H282011   2.887   4.699   4.447  0.0799  1.1093  0.2097
20174TIP3   OH282012   0.865   4.037  11.080 -0.3901 -0.3799 -0.8445
20174TIP3    H182013   0.790   4.072  11.127  1.8960  0.2889  2.7581
20174TIP3    H282014   0.858   3.942  11.090 -0.0281 -0.2629  0.9724
20175TIP3   OH282015   6.154   1.185   5.352  0.5244 -0.2494 -0.2553
20175TIP3    H182016   6.067   1.227   5.352  0.8493  0.4386  0.3767
20175TIP3    H282017   6.202   1.232   5.284  0.3114 -0.8428 -0.8259
20176TIP3   OH282018   1.412   2.779  16.977  0.2550 -0.0494  0.2570
20176TIP3    H182019   1.338   2.732  16.937  0.0350  0.8470 -0.4055
20176TIP3    H282020   1.371   2.852  17.024  0.7503  0.9062 -0.7494
20177TIP3   OH282021   0.124   3.774   4.664  0.0435 -0.3703  0.6535
20177TIP3    H182022   0.212   3.749   4.692  1.3682  1.0128 -1.9917
20177TIP3    H282023   0.136   3.816   4.580 -3.1014  0.6027  0.5644
20178TIP3   OH282024   0.914   5.325   0.401 -0.4112  0.0316 -0.0662
20178TIP3    H182025   0.944   5.314   0.311  0.3082  0.6396  0.0855
20178TIP3    H282026   0.844   5.261   0.412  0.8628 -1.4725 -0.4232
20179TIP3   OH282027   3.161   1.865   1.919 -0.6462 -0.0027 -0.3258
20179TIP3    H182028   3.079   1.914   1.929  0.5318  2.1056 -0.3942
20179TIP3    H282029   3.181   1.833   2.007 -0.2582  1.7372  0.2688
20180TIP3   OH282030   2.256   4.831   3.424  0.2058 -0.1579 -0.6922
20180TIP3    H182031   2.265   4.789   3.509 -0.7749 -0.8742 -0.9209
20180TIP3    H282032   2.174   4.880   3.430  0.5160  0.4106 -0.9782
20181TIP3   OH282033   1.929   1.283  15.771 -0.5035  0.3453  0.5735
20181TIP3    H182034   1.886   1.342  15.709  0.5564  1.3058  0.7193
20181TIP3    H282035   1.862   1.219  15.794 -1.7016  1.5096  0.4260
20182TIP3   OH282036   5.554   0.934   1.662  0.2646  0.2080  0.0711
20182TIP3    H182037   5.586   0.962   1.747  0.0388  0.1714  0.1676
20182TIP3    H282038   5.521   1.014   1.620 -1.0318 -0.0162  0.6282
20183TIP3   OH282039   4.375   5.407  10.809  0.0173 -0.1678 -0.2705
20183TIP3    H182040   4.341   5.496  10.817  1.3759  0.3571  0.1036
20183TIP3    H282041   4.312   5.352  10.856  1.2271  1.1723  3.3135
20184TIP3   OH282042   3.133   3.861  11.455  0.4651 -0.0985  0.3761
20184TIP3    H182043   3.114   3.885  11.365 -0.2485  1.1752  0.8325
20184TIP3    H282044   3.221   3.895  11.471  0.7705 -0.7183  0.0359
20185TIP3   OH282045   5.485   5.353  12.200  0.1677  0.2098  0.5107
20185TIP3    H182046   5.434   5.424  12.161  0.8218  0.5124  0.2045
20185TIP3    H282047   5.420   5.301  12.248 -0.4313  0.5848  0.1167
20186TIP3   OH282048   6.830   5.783  17.060  0.5460 -0.3220  0.2195
20186TIP3    H182049   6.847   5.874  17.037 -1.4072  0.0729  0.1637
20186TIP3    H282050   6.772   5.787  17.136  0.1497 -1.5098  0.0148
20187TIP3   OH282051   1.333   5.418   4.322 -0.2640 -0.2086  0.1308
20187TIP3    H182052   1.343   5.426   4.227 -0.1751 -0.6701  0.0994
20187TIP3    H282053   1.347   5.507   4.355 -0.4428 -0.0166 -0.2998
20188TIP3   OH282054   6.753   0.367   3.504 -0.4016 -0.3755  0.3265
20188TIP3    H182055   6.839   0.332   3.530  0.4324  2.1168  1.2325
20188TIP3    H282056   6.764   0.391   3.412 -1.0572 -2.5346 -0.3770
20189TIP3   OH282057   6.600   3.748   5.866  0.1711 -0.1192 -0.1176
20189TIP3    H182058   6.664   3.820   5.866 -0.3710  0.3784  0.6819
20189TIP3    H282059   6.525   3.783   5.819  0.0355 -0.2853 -0.0244
20190TIP3   OH282060   4.362   4.512   2.665  0.4514  0.0937 -0.8345
20190TIP3    H182061   4.317   4.482   2.744 -1.8547  1.4405 -1.5274
20190TIP3    H282062   4.443   4.551   2.696 -0.4114  0.6014  0.8834
20191TIP3   OH282063   6.766   3.434   5.327  0.1719 -0.1389  0.3504
20191TIP3    H182064   6.791   3.508   5.272  1.5510 -1.9592 -1.6652
20191TIP3    H282065   6.814   3.447   5.409 -0.9624  2.0070  0.7403
20192TIP3   OH282066   1.076   0.567  15.129 -0.3237  0.2373 -0.4621
20192TIP3    H182067   1.145   0.587  15.192 -0.3064 -0.1100 -0.3697
20192TIP3    H282068   1.005   0.530  15.181 -0.1087 -0.5456 -0.6964
20193TIP3   OH282069   4.134   4.663   1.514 -0.0387  0.0362 -0.1199
20193TIP3    H182070   4.048   4.703   1.526 -0.5654 -0.9013 -0.6785
20193TIP3    H282071   4.192   4.737   1.495 -0.5050  0.8025  1.2698
20194TIP3   OH282072   3.238   3.100   4.177  0.1417 -0.1912 -0.2312
20194TIP3    H182073   3.300   3.029   4.157 -2.3865 -1.7987 -3.3749
20194TIP3    H282074   3.287   3.180   4.158  1.9078 -1.2671 -0.4675
20195TIP3   OH282075   4.384   2.593  16.477  0.4153  0.4891 -0.2342
20195TIP3    H182076   4.359   2.628  16.391 -0.7303 -0.2008 -0.2036
20195TIP3    H282077   4.479   2.581  16.471  0.4680  1.2213 -1.1120
20196TIP3   OH282078   0.072   3.932  12.651  0.1606 -0.1533  0.0461
20196TIP3    H182079   0.035   3.858  12.699  1.4657 -0.0343  1.2757
20196TIP3    H282080   0.099   3.894  12.567 -0.2023 -0.8292  0.2288
20197TIP3   OH282081   1.943   3.327   0.371  0.3454 -0.0572 -0.5279
20197TIP3    H182082   2.004   3.377   0.317  0.7808 -0.4724 -0.4235
20197TIP3    H282083   1.881   3.392   0.403 -0.3386  0.1096 -2.0794
20198TIP3   OH282084   3.153   0.166   5.128  0.3698 -0.4447  0.0786
20198TIP3    H182085   3.145   0.261   5.116 -0.9935 -0.0808  3.0222
20198TIP3    H282086   3.231   0.142   5.079  0.0451  1.9576 -1.7976
20199TIP3   OH282087   0.361   5.409   2.649  0.0833 -0.4136  0.4025
20199TIP3    H182088   0.296   5.340   2.651 -0.2299 -0.1082  1.7234
20199TIP3    H282089   0.311   5.489   2.632  0.3919 -0.4313 -0.6935
20200TIP3   OH282090   3.355   3.076  12.048  0.3214  0.0024  0.7281
20200TIP3    H182091   3.264   3.065  12.073  0.2899 -0.0840  0.5808
20200TIP3    H282092   3.386   3.152  12.097 -0.7227  2.0341 -1.5632
20201TIP3   OH282093   0.169   0.605   0.571  0.6373 -0.3570  0.0886
20201TIP3    H182094   0.182   0.685   0.622 -1.2109 -0.3833  0.6767
20201TIP3    H282095   0.127   0.634   0.490 -0.2609 -0.7219  0.4052
20202TIP3   OH282096   3.321   0.368  10.699 -0.6355 -0.0755  0.5245
20202TIP3    H182097   3.414   0.349  10.705 -0.2880  1.1323 -0.6287
20202TIP3    H282098   3.302   0.368  10.605 -1.5942  0.6129  0.7015
20203TIP3   OH282099   1.697   0.044  11.220  0.1807 -0.1186  0.0807
20203TIP3    H182100   1.771  -0.016  11.212  0.2286  0.0392 -0.7761
20203TIP3    H282101   1.672   0.040  11.312 -0.6139 -2.4078 -0.1612
20204TIP3   OH282102   6.230   6.289   0.285  0.2742 -0.0419  0.9097
20204TIP3    H182103   6.232   6.359   0.351  1.6134  1.7448 -0.8936
20204TIP3    H282104   6.174   6.324   0.216  1.8968 -0.1836 -0.5472
20205TIP3   OH282105   4.223   5.753  15.142 -0.2399  0.0349 -0.4525
20205TIP3    H182106   4.226   5.690  15.070 -0.6714  0.3846 -0.7837
20205TIP3    H282107   4.164   5.714  15.206  0.1622 -0.2882 -0.2734
20206TIP3   OH282108   4.856   1.483  17.190  0.3899 -0.2944 -0.0687
20206TIP3    H182109   4.936   1.535  17.188 -0.0001  0.3186 -2.2354
20206TIP3    H282110   4.859   1.437  17.274  1.2433  2.4434  1.5235
20207TIP3   OH282111   5.824   3.066  13.275 -0.0863  0.0260 -0.3111
20207TIP3    H182112   5.837   2.973  13.256  1.2196  0.3599 -1.2485
20207TIP3    H282113   5.813   3.106  13.188  3.8853  1.3231 -0.4286
20208TIP3   OH282114   6.675   6.355   6.970  0.0517  0.0921  0.6082
20208TIP3    H182115   6.608   6.298   6.931  0.7264  1.5433 -2.9906
20208TIP3    H282116   6.740   6.295   7.006  0.2277 -1.5070 -2.1408
20209TIP3   OH282117   4.365   2.140  15.477  0.3412  0.0495  0.2330
20209TIP3    H182118   4.329   2.176  15.396 -1.3414 -0.2025  0.8195
20209TIP3    H282119   4.363   2.045  15.465  2.2713  0.0573 -0.2984
20210TIP3   OH282120   2.718   3.965   4.985  0.1902  0.2030 -0.0983
20210TIP3    H182121   2.717   4.053   4.949 -2.3613  0.5054  0.5386
20210TIP3    H282122   2.631   3.930   4.966  1.0085 -2.0437  0.0167
20211TIP3   OH282123   5.382   0.949  17.024 -0.4290 -0.2428  0.2905
20211TIP3    H182124   5.306   0.910  16.981  0.5094 -1.1769 -0.5693
20211TIP3    H282125   5.415   1.013  16.961 -0.5933  0.2858  0.7305
20212TIP3   OH282126   3.435   5.145  11.326  0.3569  0.4032 -0.1761
20212TIP3    H182127   3.496   5.072  11.329  0.2432  0.3417  1.4191
20212TIP3    H282128   3.425   5.165  11.233  1.7069 -0.4904 -0.5266
20213TIP3   OH282129   1.829   2.778  12.177 -0.4311 -0.2529  0.1116
20213TIP3    H182130   1.816   2.861  12.224 -3.0725 -0.7408  0.3530
20213TIP3    H282131   1.897   2.733  12.228  0.0450  1.1440  0.7803
20214TIP3   OH282132   1.677   2.856  16.902  0.3355  0.4204 -0.2200
20214TIP3    H182133   1.588   2.826  16.920  0.7587 -0.3316  0.7028
20214TIP3    H282134   1.666   2.943  16.865 -0.7709  0.4222  0.0817
20215TIP3   OH282135   3.363   5.256   5.105 -0.2787  0.1446 -0.3722
20215TIP3    H182136   3.312   5.336   5.118 -2.1562 -1.0914  0.3075
20215TIP3    H282137   3.434   5.262   5.169 -0.7489  0.9692  0.0905
20216TIP3   OH282138   6.573   6.323  13.116 -0.6797 -0.4968 -0.0387
20216TIP3    H182139   6.593   6.230  13.107 -1.0084 -0.4795 -1.0365
20216TIP3    H282140   6.508   6.327  13.186 -1.2692 -1.1027 -0.5475
20217TIP3   OH282141   0.214   1.017   3.992  0.4445 -0.6880  0.6143
20217TIP3    H182142   0.168   0.946   3.948  0.3747 -0.4217  0.2548
20217TIP3    H282143   0.210   0.994   4.085 -2.2532  0.3601  0.8493
20218TIP3   OH282144   5.010   4.673  14.299  0.0710  0.2771  0.5643
20218TIP3    H182145   5.044   4.617  14.230 -0.4026 -0.6362  1.0548
20218TIP3    H282146   4.978   4.751  14.253 -2.3667 -1.2735 -0.6034
20219TIP3   OH282147   0.002   4.085   5.109  0.1307 -0.4295  0.9954
20219TIP3    H182148  -0.075   4.140   5.123  0.8910  0.7342  0.7919
20219TIP3    H282149  -0.018   4.034   5.031  0.0229  0.7523  0.2181
20220TIP3   OH282150   0.198   4.827   2.900  0.2470  0.4942  0.6792
20220TIP3    H182151   0.102   4.822   2.903  0.3121 -0.7964  2.4327
20220TIP3    H282152   0.226   4.736   2.894  1.3645  0.7000  2.2030
20221TIP3   OH282153   1.668   2.698   4.955  0.5190 -0.2536  0.3777
20221TIP3    H182154   1.727   2.645   4.902  1.9281 -1.3510  2.8727
20221TIP3    H282155   1.726   2.759   5.002 -0.6120  0.4007  0.9851
20222TIP3   OH282156   6.237   1.380   2.644 -0.2030 -0.9061  0.4441
20222TIP3    H182157   6.166   1.316   2.655 -0.6211 -0.7628 -1.1748
20222TIP3    H282158   6.283   1.351   2.566  0.0677  0.3502  0.1300
20223TIP3   OH282159   3.172   1.934  14.831  0.1877 -0.0496 -0.4902
20223TIP3    H182160   3.157   2.000  14.899 -0.5414 -1.8646  1.2105
20223TIP3    H282161   3.260   1.952  14.799 -0.2450  2.1572 -0.5970
20224TIP3   OH282162   5.048   4.006   5.813  0.0532 -0.0098  0.1098
20224TIP3    H182163   5.025   4.087   5.857 -1.3887 -0.4122  0.1433
20224TIP3    H282164   4.971   3.950   5.823  1.1584 -1.5377  0.4426
20225TIP3   OH282165   4.493   4.794  16.468  0.4128 -0.4376 -0.3497
20225TIP3    H182166   4.493   4.883  16.434 -0.7609 -0.4114 -0.3331
20225TIP3    H282167   4.468   4.740  16.392 -0.3960 -0.5813  0.0155
20226TIP3   OH282168   2.029   3.295  16.573  0.5480 -0.9503  0.1826
20226TIP3    H182169   2.117   3.261  16.560  0.9081 -0.8218  2.0992
20226TIP3    H282170   2.039   3.390  16.569  0.4313 -0.9396  0.1275
20227TIP3   OH282171   5.401   6.117  12.959  0.1048  0.1549  0.0207
20227TIP3    H182172   5.451   6.198  12.956 -0.9524  0.7949 -1.0298
20227TIP3    H282173   5.316   6.142  12.995  0.7396 -1.0799  2.6492
20228TIP3   OH282174   2.577   3.141  16.407  0.4055  0.3468  0.6680
20228TIP3    H182175   2.499   3.181  16.368 -0.1847 -1.3319  0.0572
20228TIP3    H282176   2.556   3.048  16.412  2.0312 -0.0084  1.3549
20229TIP3   OH282177   4.020   5.681   6.167  0.1579  0.1897 -0.4385
20229TIP3    H182178   3.973   5.598   6.166 -2.2905  1.3056  2.9113
20229TIP3    H282179   4.089   5.669   6.232  0.0075  0.6431 -0.1888
20230TIP3   OH282180   2.388   5.170   1.929 -0.7176 -0.2567  0.1174
20230TIP3    H182181   2.367   5.104   1.994 -1.6221  2.0666  2.3586
20230TIP3    H282182   2.437   5.237   1.977 -0.2528  0.9438 -1.9029
20231TIP3   OH282183   2.892   3.876   3.425 -0.2686  0.3155 -0.7303
20231TIP3    H182184   2.869   3.857   3.516 -0.4575  1.3879 -0.5390
20231TIP3    H282185   2.862   3.799   3.376  1.5102 -1.1201  0.3157
20232TIP3   OH282186   3.860   3.369   1.958 -0.1633  0.4245 -0.7565
20232TIP3    H182187   3.870   3.429   1.884  0.4969 -0.7460 -1.6464
20232TIP3    H282188   3.941   3.318   1.959 -0.8500 -0.7026 -0.2667
20233TIP3   OH282189   5.806   5.522   0.012 -0.2638  0.5252  0.5620
20233TIP3    H182190   5.721   5.533  -0.030 -0.4526 -0.3561  0.6990
20233TIP3    H282191   5.866   5.501  -0.060 -0.1262  1.2930  0.4471
20234TIP3   OH282192   5.904   3.282  13.855 -0.0360 -0.1813  0.3312
20234TIP3    H182193   5.994   3.291  13.824 -0.4546  0.2413 -0.8512
20234TIP3    H282194   5.896   3.191  13.881 -0.0758 -1.0486 -2.4164
20235TIP3   OH282195   4.492   3.140   1.602 -0.2409 -0.2628  0.2173
20235TIP3    H182196   4.421   3.142   1.538 -0.2010  1.1512  0.1786
20235TIP3    H282197   4.556   3.203   1.568  1.0139 -1.4634  0.2767
20236TIP3   OH282198   0.869   3.339  15.584  0.0828 -0.1293 -0.7353
20236TIP3    H182199   0.801   3.294  15.534 -0.0241  0.0212 -0.7280
20236TIP3    H282200   0.917   3.390  15.519 -1.8704  2.4044 -0.3789
20237TIP3   OH282201   6.343   2.009   4.025 -0.2974 -0.3875 -0.0356
20237TIP3    H182202   6.405   2.060   3.973  0.4244 -1.3975 -0.1830
20237TIP3    H282203   6.258   2.029   3.985  0.1443 -0.4624 -1.0439
20238TIP3   OH282204   3.382   0.209   0.085  0.3292  1.2172 -0.3366
20238TIP3    H182205   3.298   0.195   0.043  0.0467 -0.4690  0.7100
20238TIP3    H282206   3.368   0.284   0.143 -0.3614  1.1379 -0.3949
20239TIP3   OH282207   0.514   3.308   2.034  0.0343 -0.1721 -0.2419
20239TIP3    H182208   0.510   3.256   2.114  0.3573 -1.0316 -0.7662
20239TIP3    H282209   0.601   3.348   2.037  0.0310 -0.1709 -0.1442
20240TIP3   OH282210   0.733   4.573   4.969  0.2237  0.0533 -0.1801
20240TIP3    H182211   0.666   4.511   4.998  0.5477  0.5221  1.7461
20240TIP3    H282212   0.700   4.658   4.998  0.5925  0.5773 -1.2541
20241TIP3   OH282213   3.739   4.426   2.456 -0.0913 -0.0229 -0.3699
20241TIP3    H182214   3.715   4.338   2.482 -0.3429 -0.0071 -0.5478
20241TIP3    H282215   3.698   4.483   2.522  1.2401 -0.1058  0.5762
20242TIP3   OH282216   2.778   0.505  12.227 -0.0716 -0.7479  0.7118
20242TIP3    H182217   2.815   0.432  12.177  1.8160 -0.0450  1.0028
20242TIP3    H282218   2.744   0.565  12.161  2.5388  0.2458  0.1462
20243TIP3   OH282219   3.273   3.168   1.164 -0.1550 -0.4923  0.1615
20243TIP3    H182220   3.254   3.245   1.218  2.1676  1.3613 -1.4815
20243TIP3    H282221   3.329   3.113   1.220  0.8120  0.5714  0.2638
20244TIP3   OH282222   0.711   1.387   2.531  0.0179 -0.3178 -0.3352
20244TIP3    H182223   0.639   1.409   2.472  0.6571  0.1711 -0.9577
20244TIP3    H282224   0.790   1.393   2.477  0.5854 -0.2950  0.4600
20245TIP3   OH282225   1.532   5.739   3.936  0.0239 -0.2592 -0.0938
20245TIP3    H182226   1.564   5.807   3.877 -0.0165  0.5817  0.8171
20245TIP3    H282227   1.505   5.667   3.879  1.4622 -0.1220 -1.0124
20246TIP3   OH282228   1.782   1.120   4.198  0.6437  0.4128 -0.0691
20246TIP3    H182229   1.876   1.115   4.217  1.0697 -1.2429 -2.1932
20246TIP3    H282230   1.776   1.101   4.104 -1.8237  0.6225 -0.0141
20247TIP3   OH282231   1.284   2.230  10.701  0.0576  0.2647 -0.1066
20247TIP3    H182232   1.289   2.312  10.652 -0.0635  1.5650  1.9244
20247TIP3    H282233   1.372   2.220  10.738  0.1214 -0.6406 -0.4853
20248TIP3   OH282234   0.938   5.772  14.209 -0.5747  0.3205  0.4554
20248TIP3    H182235   0.978   5.807  14.129 -0.9421  1.5181  0.7758
20248TIP3    H282236   0.940   5.845  14.271 -3.5205  0.5713  0.3957
20249TIP3   OH282237   2.782   2.953  13.397 -0.0027 -0.5356  0.5782
20249TIP3    H182238   2.702   2.924  13.353  0.2939 -0.6922  0.1445
20249TIP3    H282239   2.847   2.888  13.374  0.2022 -0.5235  1.1075
20250TIP3   OH282240   6.644   5.033   4.937  0.1401 -0.4643 -0.4044
20250TIP3    H182241   6.681   5.045   5.024 -2.1500  0.7334  0.4999
20250TIP3    H282242   6.549   5.035   4.951 -0.3540 -2.6453 -2.6407
20251TIP3   OH282243   5.195   1.469  15.195  0.2140  0.1697 -0.3162
20251TIP3    H182244   5.230   1.555  15.218  0.8406  0.0959 -0.9300
20251TIP3    H282245   5.226   1.454  15.105  1.4526 -1.3572  0.3233
20252TIP3   OH282246   6.192   2.268  13.865  0.9662 -0.1291 -0.7986
20252TIP3    H182247   6.159   2.346  13.910 -1.1454 -0.8617 -0.9627
20252TIP3    H282248   6.152   2.194  13.911  2.9512 -1.1695 -0.6169
20253TIP3   OH282249   1.013   5.302  14.297  0.2294 -0.6726  0.1604
20253TIP3    H182250   1.080   5.263  14.241 -0.5428 -0.7000 -0.7610
20253TIP3    H282251   0.930   5.282  14.253 -0.2488  1.2719  0.0810
20254TIP3   OH282252   6.257   2.710  13.350  0.0413 -0.4271  0.0884
20254TIP3    H182253   6.217   2.684  13.267 -2.8727  0.4665  1.1193
20254TIP3    H282254   6.263   2.806  13.344 -0.2837 -0.3524  0.9382
20255TIP3   OH282255   4.961   2.960   3.835  0.0419  0.0400 -0.5024
20255TIP3    H182256   4.889   2.959   3.772  1.3728  1.1729 -2.1238
20255TIP3    H282257   4.975   2.867   3.856 -1.0093 -0.2913 -1.1693
20256TIP3   OH282258   1.399   5.921  17.044  0.1273  0.3367  0.5220
20256TIP3    H182259   1.483   5.966  17.043  0.6489 -0.2969  3.9283
20256TIP3    H282260   1.334   5.990  17.058  0.3266  0.5785  0.2573
20257TIP3   OH282261   0.871   2.263   3.230  0.2459  0.6034 -0.3336
20257TIP3    H182262   0.890   2.184   3.180 -1.0081 -0.9848  1.5741
20257TIP3    H282263   0.878   2.236   3.321 -2.5699  2.0393  0.4141
20258TIP3   OH282264   0.881   0.345   2.186 -0.1136 -0.8387  0.2137
20258TIP3    H182265   0.840   0.403   2.250 -0.8330  0.3164 -1.2338
20258TIP3    H282266   0.971   0.375   2.180 -0.3007 -0.3048 -0.0062
20259TIP3   OH282267   2.515   1.460  16.078  1.2735  0.7612  0.2076
20259TIP3    H182268   2.444   1.432  16.136  2.3314  1.5939  1.9482
20259TIP3    H282269   2.570   1.382  16.068 -0.1949 -0.1429 -1.8005
20260TIP3   OH282270   4.815   2.514  11.871  0.2056  0.3268  0.0819
20260TIP3    H182271   4.766   2.432  11.862  1.5406 -0.7906  2.1300
20260TIP3    H282272   4.750   2.577  11.904  0.1717 -1.3954  3.8173
20261TIP3   OH282273   1.140   2.042  12.176 -0.1941  0.3234  0.1951
20261TIP3    H182274   1.218   2.034  12.122 -0.2344  1.6146 -0.0811
20261TIP3    H282275   1.106   1.952  12.183 -0.5731  0.1887 -2.4557
20262TIP3   OH282276   4.822   1.713   4.580  0.3598 -0.2247 -0.1695
20262TIP3    H182277   4.890   1.780   4.574  1.0152 -0.8354  0.2034
20262TIP3    H282278   4.865   1.633   4.552 -0.0178 -0.7441  0.6731
20263TIP3   OH282279   3.666   5.454   0.363  0.1629  0.2996  0.0640
20263TIP3    H182280   3.627   5.455   0.451 -0.2317  0.3243 -0.1072
20263TIP3    H282281   3.660   5.363   0.335 -1.4322  0.5936 -0.6746
20264TIP3   OH282282   3.159   0.469  11.780  0.1992  0.0579  0.1042
20264TIP3    H182283   3.251   0.495  11.777  0.1529  0.1668 -0.5368
20264TIP3    H282284   3.114   0.533  11.724  0.3305 -2.3317 -2.9480
20265TIP3   OH282285   3.348   5.457  11.255  0.3219  0.2672  0.3756
20265TIP3    H182286   3.386   5.390  11.313 -1.0122 -0.1055  0.8428
20265TIP3    H282287   3.263   5.421  11.230 -0.4108  1.7748  0.6243
20266TIP3   OH282288   3.099   4.740  16.913 -0.7283 -0.6094 -0.6079
20266TIP3    H182289   3.083   4.819  16.861  0.3193 -0.8574 -1.3456
20266TIP3    H282290   3.134   4.677  16.850 -1.3657 -1.6016  0.0100
20267TIP3   OH282291   0.241   0.369  12.224 -0.0150 -0.3734  0.0781
20267TIP3    H182292   0.224   0.417  12.305  1.0094  0.5143 -0.2111
20267TIP3    H282293   0.180   0.407  12.160  0.6324  0.4041 -0.0908
20268TIP3   OH282294   4.030   0.408  14.691  0.1866 -0.3860 -0.0054
20268TIP3    H182295   4.041   0.403  14.786  0.7246  0.1474 -0.0333
20268TIP3    H282296   4.002   0.498  14.676 -0.7377 -0.7096 -0.2775
20269TIP3   OH282297   6.832   1.439   5.782 -0.2010 -0.0157 -0.3080
20269TIP3    H182298   6.839   1.504   5.712 -0.9991  0.4394  0.0185
20269TIP3    H282299   6.751   1.392   5.764 -1.3894  1.2891  1.2431
20270TIP3   OH282300   4.282   5.371   2.207  0.0024  0.3887 -0.2994
20270TIP3    H182301   4.201   5.385   2.255 -0.5835 -0.7457 -0.9199
20270TIP3    H282302   4.291   5.276   2.202  1.3340  0.4900 -0.3207
20271TIP3   OH282303   1.426   6.483   0.388 -0.0297 -0.1624  0.3131
20271TIP3    H182304   1.429   6.530   0.472 -0.8309  0.7616 -0.1537
20271TIP3    H282305   1.362   6.532   0.336 -0.5503 -1.5138 -0.3611
20272TIP3   OH282306   6.635   1.236   1.199 -0.1283 -0.5040  0.2623
20272TIP3    H182307   6.713   1.202   1.155 -0.2929 -0.3235 -0.1758
20272TIP3    H282308   6.567   1.171   1.181  0.1793 -1.2125  1.5562
20273TIP3   OH282309   0.990   4.443   4.410  0.2892  0.1150 -0.1160
20273TIP3    H182310   1.052   4.468   4.478  1.3693  0.0803 -1.0426
20273TIP3    H282311   1.028   4.364   4.371 -0.7219 -0.3300 -0.2286
20274TIP3   OH282312   1.382   6.656  14.444 -0.0237 -0.1114  0.1626
20274TIP3    H182313   1.369   6.667  14.539  0.9096  1.1283  0.1740
20274TIP3    H282314   1.436   6.577  14.436 -0.3908 -0.4148  0.6430
20275TIP3   OH282315   2.867   6.538  11.956 -0.3093  0.2800 -0.2538
20275TIP3    H182316   2.784   6.507  11.993 -0.9736  1.2520 -0.8585
20275TIP3    H282317   2.917   6.459  11.939 -0.5066 -0.2567  1.4828
20276TIP3   OH282318   4.606   6.103  14.015  0.2149 -0.3783  0.3810
20276TIP3    H182319   4.511   6.112  14.020  0.3627  0.6753  3.2291
20276TIP3    H282320   4.621   6.008  14.009 -0.9866 -0.5182 -0.8026
20277LIG      O82321   5.315   5.601  16.732  0.7035  0.8996 -0.0227
20277LIG     C182322   5.347   5.469  16.692  0.1751 -0.2191 -0.2116
20277LIG     C282323   5.221   5.390  16.649  0.0430  0.0635  0.5772
20277LIG     C382324   5.451   5.475  16.585 -0.2764 -0.5695  0.0952
20277LIG     H182325   5.391   5.412  16.777  0.3732  1.0072  0.5379
20277LIG     H282326   5.247   5.282  16.641  1.8597  0.6045 -3.4132
20277LIG     H382327   5.185   5.442  16.557  1.7152  0.7647  0.2940
20277LIG     H482328   5.143   5.408  16.726 -0.1290  0.7124  0.2671
20277LIG     H582329   5.545   5.526  16.617 -0.8889  1.6628 -1.4042
20277LIG     H682330   5.414   5.521  16.491  1.1896  0.1602 -0.1626
20277LIG     H782331   5.473   5.372  16.550 -0.5677 -0.3355 -0.7878
20277LIG     H882332   5.236   5.601  16.786  0.8404 -0.1258  0.1926
   6.83683   6.83683  17.21016
